Generic title
51006
    1C5    HO5'    1   3.200   4.863   3.121  0.0029  3.0825  0.1077
    1C5     O5'    2   3.217   4.880   3.214  1.1785  0.1379  0.5274
    1C5     C5'    3   3.245   5.023   3.229 -0.4206 -0.0566  0.0449
    1C5     H5'    4   3.159   5.070   3.181  1.3194  1.0901 -2.1293
    1C5    H5''    5   3.333   5.049   3.170 -0.3978 -0.9554 -0.3321
    1C5     C4'    6   3.264   5.068   3.374 -0.0136 -0.1148 -0.2396
    1C5     H4'    7   3.291   5.174   3.366  1.6445 -0.5033 -0.3087
    1C5     O4'    8   3.144   5.061   3.452  0.7245 -0.2844 -0.9562
    1C5     C1'    9   3.175   5.021   3.583  0.0376  0.2544 -0.0719
    1C5     H1'   10   3.141   5.100   3.650  1.2745 -2.1034  3.6391
    1C5      N1   11   3.131   4.883   3.623 -0.6406  0.2069 -0.0321
    1C5      C6   12   3.086   4.795   3.526 -0.3438 -0.3561 -0.2412
    1C5      H6   13   3.088   4.814   3.420 -2.2042  0.6262 -0.1318
    1C5      C5   14   3.021   4.682   3.572 -0.7955  0.5457  1.2503
    1C5      H5   15   2.985   4.608   3.502 -0.2299  1.8238 -0.4324
    1C5      C4   16   3.006   4.660   3.710  0.0458 -0.1119 -0.2241
    1C5      N4   17   2.946   4.551   3.766 -0.4630 -0.3407 -0.1345
    1C5     H41   18   2.941   4.544   3.866  1.0171  0.4573  0.0419
    1C5     H42   19   2.933   4.467   3.712  3.0956 -2.3489  1.7854
    1C5      N3   20   3.055   4.746   3.794  0.0215  0.1945  0.0869
    1C5      C2   21   3.123   4.859   3.760  0.4869  0.2548  0.0604
    1C5      O2   22   3.175   4.935   3.839  0.3595 -0.6112 -0.5251
    1C5     C3'   23   3.372   4.992   3.448  0.1870  0.0080  0.7169
    1C5     H3'   24   3.362   4.887   3.424  1.9387  0.0614 -0.4744
    1C5     C2'   25   3.330   5.025   3.594 -0.3062 -0.1622  0.5591
    1C5     H2'   26   3.362   4.948   3.665  2.0262 -0.4664 -0.7484
    1C5     O2'   27   3.360   5.159   3.641 -0.5231  0.1176 -0.2441
    1C5    HO2'   28   3.374   5.167   3.736 -0.5093 -0.9004 -0.1508
    1C5     O3'   29   3.510   5.027   3.428 -0.0227 -0.0345 -0.2656
    2U        P   30   3.629   4.920   3.433  0.0202 -0.5758  0.0352
    2U      OP1   31   3.754   4.987   3.388 -0.3567 -0.8187  0.3905
    2U      OP2   32   3.582   4.796   3.377  0.3166  0.2762  0.1936
    2U      O5'   33   3.645   4.893   3.590  0.0754  0.8464  0.7802
    2U      C5'   34   3.674   4.998   3.676 -0.1281 -0.1164 -0.3641
    2U      H5'   35   3.600   5.074   3.651  0.3452  0.1751 -0.8816
    2U     H5''   36   3.773   5.043   3.665  0.5712 -1.5919 -0.2963
    2U      C4'   37   3.652   4.959   3.812 -0.3565 -0.3063 -0.5019
    2U      H4'   38   3.694   5.043   3.867  1.3116 -0.6734 -1.1641
    2U      O4'   39   3.519   4.941   3.849  0.4766 -0.4184  0.1287
    2U      C1'   40   3.512   4.831   3.943 -0.4871  0.0523 -0.3556
    2U      H1'   41   3.448   4.865   4.024  0.7246  0.6846  0.3614
    2U       N1   42   3.445   4.707   3.882  0.4225  0.0569 -0.8842
    2U       C6   43   3.435   4.687   3.749 -0.3044 -0.3669 -0.9384
    2U       H6   44   3.478   4.757   3.679  2.3303 -0.6716  0.2664
    2U       C5   45   3.362   4.582   3.702  0.1768 -0.2369  0.5123
    2U       H5   46   3.353   4.568   3.596 -0.1602  1.4487  0.2936
    2U       C4   47   3.291   4.496   3.792  0.2405  1.0915  0.7626
    2U       O4   48   3.219   4.398   3.767 -0.0042 -0.1018 -0.0074
    2U       N3   49   3.312   4.519   3.921 -0.3950 -0.4307 -0.1767
    2U       H3   50   3.272   4.450   3.983 -0.1927 -0.9200 -0.5953
    2U       C2   51   3.401   4.617   3.972  0.6118  0.2969 -0.7839
    2U       O2   52   3.412   4.624   4.094  0.1265  0.0265  0.1299
    2U      C3'   53   3.724   4.828   3.855  0.0689 -0.3837  0.3550
    2U      H3'   54   3.703   4.747   3.786  1.1627  0.5547 -1.1277
    2U      C2'   55   3.653   4.794   3.987 -0.6735  0.5157 -0.2319
    2U      H2'   56   3.657   4.692   4.025  0.9361  0.1153 -1.3683
    2U      O2'   57   3.682   4.892   4.085  0.2484 -0.2904  0.0954
    2U     HO2'   58   3.664   4.851   4.171 -3.2290  0.8621  0.0750
    2U      O3'   59   3.864   4.844   3.865  0.4893  0.1271  0.3989
    3G        P   60   3.961   4.721   3.856  0.3369 -0.1411  0.0392
    3G      OP1   61   4.099   4.768   3.868 -1.2650 -0.1426  0.3755
    3G      OP2   62   3.922   4.637   3.746  0.3762 -0.4782  0.0439
    3G      O5'   63   3.912   4.651   3.993  0.0213 -0.2238 -0.9467
    3G      C5'   64   3.939   4.708   4.120  0.3340 -0.1988 -0.2596
    3G      H5'   65   3.901   4.809   4.134  2.5070  0.5726  0.5121
    3G     H5''   66   4.045   4.711   4.147  0.2892 -2.7867  0.4567
    3G      C4'   67   3.887   4.617   4.224 -0.2698 -0.1577  0.4612
    3G      H4'   68   3.922   4.647   4.322  0.1509 -0.4890  0.4149
    3G      O4'   69   3.748   4.599   4.227  0.0218 -0.3252 -0.0245
    3G      C1'   70   3.718   4.468   4.270 -1.5039 -0.2799  0.0633
    3G      H1'   71   3.659   4.469   4.362  0.3165 -0.4847  1.2820
    3G       N9   72   3.648   4.409   4.162 -0.1232 -0.2672 -0.1188
    3G       C8   73   3.655   4.435   4.027 -0.2805 -0.1504 -0.2541
    3G       H8   74   3.711   4.516   3.982 -1.4248  0.6382 -0.2955
    3G       N7   75   3.572   4.359   3.956  0.3373 -0.0779  0.7474
    3G       C5   76   3.520   4.270   4.047 -0.7518  1.2324 -0.7826
    3G       C6   77   3.435   4.157   4.031 -0.4132  0.3349 -0.0799
    3G       O6   78   3.376   4.125   3.927 -0.2253  0.4128 -0.8783
    3G       N1   79   3.415   4.091   4.151  0.0354 -0.1058  0.8970
    3G       H1   80   3.346   4.017   4.152 -1.6222  1.3189 -1.0649
    3G       C2   81   3.478   4.119   4.268  0.0996  0.5873  0.2509
    3G       N2   82   3.450   4.046   4.367  0.3023 -0.4608 -0.0314
    3G      H21   83   3.384   3.970   4.353  0.1228 -0.5432  1.1620
    3G      H22   84   3.482   4.057   4.462 -0.2131  1.4078 -0.0282
    3G       N3   85   3.560   4.220   4.286  0.6571  0.0156 -0.4280
    3G       C4   86   3.577   4.290   4.171  0.6175  0.0691 -0.7701
    3G      C3'   87   3.947   4.479   4.205  0.1087  0.0929  0.7027
    3G      H3'   88   3.940   4.444   4.102  2.3437  0.1742  0.4678
    3G      C2'   89   3.854   4.397   4.294  0.1792 -0.2269  0.4940
    3G      H2'   90   3.852   4.291   4.268 -0.2984  0.0661 -0.7774
    3G      O2'   91   3.877   4.418   4.431 -0.2229  0.5531  0.8699
    3G     HO2'   92   3.879   4.338   4.485 -1.3660  0.2609  0.4917
    3G      O3'   93   4.085   4.488   4.240  0.2636 -0.1318  0.3523
    4G        P   94   4.182   4.375   4.181  0.0877  0.0261 -0.5427
    4G      OP1   95   4.319   4.403   4.228 -0.1847 -0.7630  0.4781
    4G      OP2   96   4.154   4.359   4.040  0.3435 -0.2431  0.3690
    4G      O5'   97   4.129   4.255   4.269  0.2834 -0.2062 -0.1273
    4G      C5'   98   4.131   4.121   4.228 -0.8566  0.0772  0.3874
    4G      H5'   99   4.231   4.077   4.228 -1.3434 -1.1447 -1.2742
    4G     H5''  100   4.097   4.124   4.124  2.4620  1.0752 -0.7951
    4G      C4'  101   4.046   4.034   4.322  0.3863  0.4231  0.5562
    4G      H4'  102   4.093   4.037   4.420  0.8161  0.3221  0.3566
    4G      O4'  103   3.910   4.088   4.325  0.0415  0.8213 -0.0926
    4G      C1'  104   3.818   3.987   4.294  0.1321 -0.0254  0.3560
    4G      H1'  105   3.735   3.996   4.363 -0.1225  0.1903  0.0223
    4G       N9  106   3.773   3.991   4.154  0.4701  0.5850 -0.4143
    4G       C8  107   3.793   4.082   4.055 -1.0445  0.3795 -0.9556
    4G       H8  108   3.857   4.166   4.079 -1.5129 -0.0327  2.1506
    4G       N7  109   3.731   4.056   3.945  0.0603 -0.1144 -0.8050
    4G       C5  110   3.646   3.952   3.979  0.0388  0.7221  1.1351
    4G       C6  111   3.536   3.894   3.908 -0.7161 -0.1540 -0.0682
    4G       O6  112   3.499   3.909   3.790 -0.3472 -0.0341  0.0975
    4G       N1  113   3.483   3.787   3.983  1.1367  0.2719  0.3016
    4G       H1  114   3.407   3.737   3.939  1.6663 -1.2289  1.0268
    4G       C2  115   3.512   3.761   4.111  0.5100  1.0265 -0.2828
    4G       N2  116   3.454   3.655   4.160  0.9138  0.3185 -0.1316
    4G      H21  117   3.383   3.605   4.107  0.3550 -2.1673  2.7187
    4G      H22  118   3.469   3.627   4.256  0.5262 -1.3408 -0.5100
    4G       N3  119   3.601   3.825   4.184  0.1476 -0.6743  0.4637
    4G       C4  120   3.669   3.914   4.111  0.2654 -0.2628  0.0352
    4G      C3'  121   4.035   3.891   4.280 -0.0968  0.5733 -0.0930
    4G      H3'  122   4.022   3.874   4.173  0.2501  0.5902 -0.1392
    4G      C2'  123   3.898   3.863   4.336  0.7876  0.1998 -0.1455
    4G      H2'  124   3.855   3.774   4.290 -0.1798  0.2796  0.5776
    4G      O2'  125   3.902   3.841   4.480  0.6317 -0.1330  0.3384
    4G     HO2'  126   3.808   3.835   4.499  0.1762  2.5091 -0.5294
    4G      O3'  127   4.143   3.809   4.327 -0.2138 -0.0166 -0.0532
    5G        P  128   4.201   3.688   4.234 -0.1582 -0.0926  0.3209
    5G      OP1  129   4.315   3.638   4.307 -0.4068  0.3384  0.1124
    5G      OP2  130   4.217   3.731   4.093 -0.3984 -0.3194  0.2529
    5G      O5'  131   4.087   3.587   4.248 -0.3289  0.3244  0.4071
    5G      C5'  132   4.036   3.544   4.369 -0.1766  0.9144 -0.2347
    5G      H5'  133   4.005   3.622   4.438 -4.1899 -3.0785  3.1228
    5G     H5''  134   4.108   3.482   4.423 -0.6238  1.9914  1.6915
    5G      C4'  135   3.911   3.472   4.326 -0.3124 -0.4353 -0.6307
    5G      H4'  136   3.873   3.421   4.415  0.3168  1.8071  1.0006
    5G      O4'  137   3.802   3.554   4.270  0.4316 -0.0128 -0.3749
    5G      C1'  138   3.734   3.480   4.174  0.2286 -0.5050  0.0155
    5G      H1'  139   3.628   3.481   4.201  0.2257 -2.7659  0.2654
    5G       N9  140   3.749   3.540   4.042 -0.2111  0.4979  0.4032
    5G       C8  141   3.841   3.641   4.008  0.5679 -0.0512  0.6959
    5G       H8  142   3.910   3.686   4.078  2.0027  1.5166 -1.5873
    5G       N7  143   3.811   3.693   3.886 -0.0592 -0.7484 -0.3632
    5G       C5  144   3.705   3.614   3.838 -0.5371 -1.0371 -0.8730
    5G       C6  145   3.616   3.627   3.720  0.0030  0.7186 -0.3806
    5G       O6  146   3.631   3.699   3.625 -0.1689  0.0288 -0.3418
    5G       N1  147   3.511   3.540   3.719 -0.4515  0.0725 -0.0167
    5G       H1  148   3.449   3.552   3.640  1.3754  2.4322 -1.2575
    5G       C2  149   3.490   3.449   3.819 -0.3521  0.4452 -0.1082
    5G       N2  150   3.392   3.363   3.801  0.2753 -0.3305 -0.2330
    5G      H21  151   3.346   3.363   3.712  2.4345 -1.8486 -1.4500
    5G      H22  152   3.381   3.286   3.865 -3.2238 -0.0047 -0.2460
    5G       N3  153   3.560   3.438   3.934  0.3294 -0.4294 -0.0642
    5G       C4  154   3.668   3.522   3.938 -0.1869 -0.0732 -0.0035
    5G      C3'  155   3.931   3.361   4.224  0.2147  0.1522  0.0151
    5G      H3'  156   3.996   3.401   4.146  0.8862  2.8696  1.8199
    5G      C2'  157   3.786   3.336   4.172  0.3598 -0.1667  0.2228
    5G      H2'  158   3.787   3.291   4.073 -1.5450  0.9693 -0.3586
    5G      O2'  159   3.714   3.251   4.260 -0.3373 -0.5195 -0.6069
    5G     HO2'  160   3.784   3.198   4.299 -0.0302  0.8117  0.7117
    5G      O3'  161   3.988   3.252   4.287  0.4726  0.3604 -0.4934
    6U        P  162   4.063   3.134   4.210  0.5273 -0.0703 -0.0994
    6U      OP1  163   4.186   3.096   4.281  0.4828  0.1759 -0.2771
    6U      OP2  164   4.073   3.170   4.072 -0.3257 -0.0743  0.0952
    6U      O5'  165   3.962   3.007   4.229 -0.1784 -0.7167  0.5038
    6U      C5'  166   3.952   2.939   4.347 -0.0888  0.8541 -0.7348
    6U      H5'  167   3.927   3.017   4.419 -0.7738  0.3141 -0.3715
    6U     H5''  168   4.042   2.891   4.385 -1.2339  0.0195  1.0055
    6U      C4'  169   3.841   2.839   4.360  0.3574  1.0440  0.6055
    6U      H4'  170   3.852   2.786   4.455  0.7769 -1.9763 -1.0059
    6U      O4'  171   3.714   2.900   4.341 -0.0340  0.5653  0.8272
    6U      C1'  172   3.648   2.817   4.250 -0.4403  0.3080  0.0048
    6U      H1'  173   3.555   2.782   4.296  1.6092 -2.6082  2.3580
    6U       N1  174   3.632   2.881   4.111 -0.2897  0.0364  0.3204
    6U       C6  175   3.706   2.984   4.069 -0.2842  0.2626 -0.2622
    6U       H6  176   3.779   3.027   4.136 -0.8071  0.7838 -0.0226
    6U       C5  177   3.677   3.045   3.954 -0.2014 -0.1299 -0.2057
    6U       H5  178   3.727   3.138   3.930 -1.1961  1.2075  2.5337
    6U       C4  179   3.579   2.997   3.866  0.4586 -0.1441  0.0728
    6U       O4  180   3.547   3.041   3.755 -0.4048  0.1045 -0.2832
    6U       N3  181   3.515   2.889   3.913  0.6077 -0.0559  0.3674
    6U       H3  182   3.425   2.874   3.870  0.7911 -0.3591  0.0867
    6U       C2  183   3.530   2.831   4.032 -0.2211  0.2008 -0.2655
    6U       O2  184   3.447   2.745   4.068  0.2266  0.6699  0.1279
    6U      C3'  185   3.859   2.739   4.249  0.2898 -0.3088 -0.3954
    6U      H3'  186   3.879   2.784   4.151 -2.6362  0.1292 -0.8760
    6U      C2'  187   3.721   2.684   4.239  1.2074 -0.0191  0.0768
    6U      H2'  188   3.705   2.643   4.139 -0.1507  1.7022 -0.4640
    6U      O2'  189   3.685   2.587   4.337  0.2582  0.0584  0.3581
    6U     HO2'  190   3.634   2.627   4.407  1.3402 -3.0268  3.1694
    6U      O3'  191   3.960   2.642   4.274 -0.4518 -0.4746 -0.0267
    7C        P  192   4.059   2.584   4.164  0.0821  0.0785  0.4263
    7C      OP1  193   4.130   2.469   4.224 -0.3975 -0.1628  0.3226
    7C      OP2  194   4.133   2.701   4.106 -0.3036  0.2925  0.2915
    7C      O5'  195   3.981   2.522   4.047 -0.1573  0.7886  0.6684
    7C      C5'  196   3.875   2.428   4.061 -0.6055  0.5109  0.5137
    7C      H5'  197   3.816   2.432   4.153 -0.0431 -0.6790  0.9396
    7C     H5''  198   3.925   2.331   4.056 -1.3929  0.0352  1.6187
    7C      C4'  199   3.775   2.440   3.943 -0.4757  0.4605 -0.7281
    7C      H4'  200   3.700   2.361   3.954  0.6445 -0.7638 -1.6296
    7C      O4'  201   3.712   2.566   3.936  0.1836 -0.0711 -0.5574
    7C      C1'  202   3.687   2.619   3.813  0.1527  0.5339  0.1231
    7C      H1'  203   3.585   2.653   3.795  0.1129  0.2382 -0.2377
    7C       N1  204   3.783   2.731   3.773  0.1860  0.3395 -0.3589
    7C       C6  205   3.888   2.772   3.851  0.2700  0.4840 -0.3003
    7C       H6  206   3.924   2.723   3.940 -2.5751  0.0756  0.7366
    7C       C5  207   3.955   2.886   3.830 -0.7965  0.8756  0.4052
    7C       H5  208   4.038   2.922   3.890 -0.0427  0.5380 -0.4236
    7C       C4  209   3.919   2.959   3.713  1.2122 -0.1600 -0.8459
    7C       N4  210   3.971   3.069   3.676  0.8692 -0.3457 -0.0093
    7C      H41  211   3.942   3.113   3.590 -0.5939  0.5256  0.8946
    7C      H42  212   4.044   3.120   3.725  0.0202  0.6884  0.2057
    7C       N3  213   3.814   2.920   3.638 -0.1497 -0.2611 -0.8436
    7C       C2  214   3.750   2.808   3.660  0.6409 -0.1877  0.2944
    7C       O2  215   3.650   2.774   3.594  0.6456  0.0478 -0.1330
    7C      C3'  216   3.834   2.426   3.801  0.0755  0.5654 -0.3099
    7C      H3'  217   3.924   2.488   3.801 -0.2549  1.0995  1.1378
    7C      C2'  218   3.722   2.496   3.724 -0.2911  0.6035 -0.1657
    7C      H2'  219   3.749   2.532   3.624 -0.0040  1.0170  0.0558
    7C      O2'  220   3.599   2.422   3.712 -0.3324 -0.1013 -0.4288
    7C     HO2'  221   3.548   2.465   3.643  0.0540  0.0928 -0.5939
    7C      O3'  222   3.852   2.291   3.762 -0.1242  0.3802 -0.7590
    8G        P  223   4.000   2.231   3.743  0.1252  0.1960 -0.0030
    8G      OP1  224   3.990   2.123   3.643 -0.3661 -0.1343 -0.6573
    8G      OP2  225   4.060   2.198   3.870  0.2548  0.0072  0.0951
    8G      O5'  226   4.076   2.361   3.690  0.0897 -0.4301  0.0594
    8G      C5'  227   4.125   2.364   3.559 -0.4898  0.0851 -1.0168
    8G      H5'  228   4.191   2.278   3.549  1.4809  1.3132  0.4667
    8G     H5''  229   4.201   2.442   3.561 -0.5918  0.1827 -0.9218
    8G      C4'  230   4.020   2.384   3.448  0.5188 -0.3989  0.2888
    8G      H4'  231   3.947   2.305   3.432 -1.9162  1.8745 -0.6452
    8G      O4'  232   3.928   2.498   3.482  0.5176  0.0646  0.2813
    8G      C1'  233   3.963   2.609   3.406 -0.0669  0.1060  0.7159
    8G      H1'  234   3.884   2.677   3.375  1.1255  0.0417 -2.7881
    8G       N9  235   4.049   2.702   3.482  0.3338  0.6244  0.1484
    8G       C8  236   4.111   2.681   3.602 -0.3721 -0.2685 -0.3505
    8G       H8  237   4.085   2.601   3.669 -2.8610  0.4103 -0.4399
    8G       N7  238   4.213   2.761   3.623  0.4578  0.3662  0.4629
    8G       C5  239   4.200   2.855   3.520 -0.3676  0.0868  0.6225
    8G       C6  240   4.270   2.977   3.496  0.4186  0.3345  0.6709
    8G       O6  241   4.348   3.033   3.564  0.4375  0.8723  0.7841
    8G       N1  242   4.232   3.035   3.380 -0.7738 -0.8382  0.7072
    8G       H1  243   4.276   3.123   3.358 -0.6453 -1.0662  0.0287
    8G       C2  244   4.148   2.984   3.293 -0.6559  1.0113 -0.0624
    8G       N2  245   4.130   3.059   3.188 -0.0984 -0.3116  0.7619
    8G      H21  246   4.159   3.156   3.189 -0.5502 -0.1769  0.9417
    8G      H22  247   4.055   3.026   3.129 -0.5193  1.1789  0.4064
    8G       N3  248   4.075   2.872   3.308 -0.2523 -0.9606 -0.4598
    8G       C4  249   4.106   2.817   3.429 -0.4906  0.4351  0.4884
    8G      C3'  250   4.100   2.420   3.323 -0.8833  0.8748 -0.1403
    8G      H3'  251   4.205   2.444   3.336 -0.6387 -0.2482  0.0717
    8G      C2'  252   4.038   2.556   3.283 -0.6612  0.4797  0.1375
    8G      H2'  253   4.115   2.630   3.259  0.3551 -0.5139  0.2815
    8G      O2'  254   3.948   2.553   3.175 -0.2167  0.3912  0.1280
    8G     HO2'  255   3.979   2.604   3.099 -2.1960  1.4053 -0.0834
    8G      O3'  256   4.091   2.325   3.217 -0.4790  0.1990  0.2178
    9C        P  257   4.206   2.217   3.219 -0.1023  0.0979 -0.3636
    9C      OP1  258   4.194   2.126   3.103  0.3693  0.3099  0.6124
    9C      OP2  259   4.231   2.164   3.352 -0.5340  0.3828 -0.3763
    9C      O5'  260   4.328   2.306   3.178 -0.3993  0.1193  0.4026
    9C      C5'  261   4.445   2.302   3.247 -0.2984 -0.2897  0.3485
    9C      H5'  262   4.482   2.201   3.270 -0.6632 -0.8300 -1.2761
    9C     H5''  263   4.427   2.352   3.342  0.8175 -0.2591  0.5690
    9C      C4'  264   4.552   2.375   3.162  0.6060  0.5232  0.3976
    9C      H4'  265   4.651   2.366   3.208  0.5088 -2.4662  0.1583
    9C      O4'  266   4.565   2.329   3.032  0.3609 -0.0248  0.3848
    9C      C1'  267   4.568   2.442   2.939 -0.0146  0.1907 -0.0651
    9C      H1'  268   4.653   2.437   2.872  0.1058 -0.0847  0.1045
    9C       N1  269   4.436   2.450   2.862  0.0321  0.4132 -0.8308
    9C       C6  270   4.336   2.365   2.889 -0.0566  0.6047  0.3303
    9C       H6  271   4.356   2.288   2.962 -1.1726  1.9165  2.1202
    9C       C5  272   4.222   2.371   2.818  0.2110 -0.4909 -0.6967
    9C       H5  273   4.145   2.299   2.844  0.2549 -0.2864  0.0276
    9C       C4  274   4.198   2.473   2.727  0.2817  0.1775  0.7112
    9C       N4  275   4.087   2.482   2.656  0.0775 -0.5888 -0.1608
    9C      H41  276   4.073   2.554   2.587 -1.9095 -0.3627  0.3985
    9C      H42  277   4.009   2.420   2.672  1.4198 -2.3592 -0.0842
    9C       N3  278   4.296   2.555   2.698 -0.1568  0.1024  0.3588
    9C       C2  279   4.414   2.545   2.760  0.0322  0.4252 -0.4431
    9C       O2  280   4.505   2.619   2.731  0.7046 -1.0817  0.4846
    9C      C3'  281   4.526   2.528   3.158 -0.1698 -0.1834  0.1373
    9C      H3'  282   4.418   2.545   3.156 -0.4609 -1.7491  1.1345
    9C      C2'  283   4.587   2.567   3.025 -0.2751  0.7201  0.2563
    9C      H2'  284   4.530   2.653   2.992  0.0847  0.7053 -0.4069
    9C      O2'  285   4.730   2.590   3.022 -0.2155 -0.5737 -1.0536
    9C     HO2'  286   4.758   2.633   2.941  2.0148 -0.7958 -0.4597
    9C      O3'  287   4.587   2.601   3.264  0.0226 -0.0760  0.6293
   10A        P  288   4.503   2.712   3.341  0.0684  0.0981  0.2426
   10A      OP1  289   4.591   2.780   3.441  0.3050 -0.3059  0.1830
   10A      OP2  290   4.380   2.643   3.388 -0.3823  0.0644 -0.0894
   10A      O5'  291   4.472   2.817   3.225 -0.1222 -0.4446  0.3991
   10A      C5'  292   4.579   2.879   3.156 -0.0630  0.2404 -0.3230
   10A      H5'  293   4.653   2.805   3.125  0.1457 -0.1644  1.0659
   10A     H5''  294   4.629   2.947   3.225 -0.1036 -0.5582  0.5069
   10A      C4'  295   4.534   2.959   3.033 -0.6805  0.3743 -0.0410
   10A      H4'  296   4.619   3.019   2.999  0.0496 -0.3175  0.5229
   10A      O4'  297   4.499   2.872   2.931 -0.0204 -0.2226  0.2649
   10A      C1'  298   4.377   2.920   2.873  0.3946 -0.0504  0.8154
   10A      H1'  299   4.387   2.935   2.765 -1.3838  1.5296  0.8081
   10A       N9  300   4.265   2.827   2.896 -0.3139 -0.4594  0.3247
   10A       C8  301   4.240   2.743   3.002  0.1848  0.1035 -0.3558
   10A       H8  302   4.307   2.738   3.087  0.5919  2.2250 -0.4997
   10A       N7  303   4.121   2.680   3.002 -0.1871  0.5688  0.0246
   10A       C5  304   4.067   2.731   2.884 -0.3053 -0.2726 -0.2257
   10A       C6  305   3.945   2.706   2.809  0.1860  0.3773  0.4246
   10A       N6  306   3.846   2.623   2.841 -0.0832  0.2759  0.4097
   10A      H61  307   3.756   2.633   2.797  0.4647 -1.0159 -1.0818
   10A      H62  308   3.859   2.569   2.925  0.9335  0.3032  0.2838
   10A       N1  309   3.923   2.774   2.692 -0.1741  0.4003 -0.2743
   10A       C2  310   4.011   2.862   2.653 -0.2682  0.2934 -0.4302
   10A       H2  311   3.986   2.910   2.560 -0.3495  1.9786  0.4250
   10A       N3  312   4.132   2.890   2.713 -0.1691  0.0361 -0.3616
   10A       C4  313   4.153   2.820   2.828  0.4931 -0.1796 -0.0772
   10A      C3'  314   4.426   3.070   3.061  0.2426  1.0346 -0.0454
   10A      H3'  315   4.361   3.042   3.144 -1.1369 -0.6544 -1.6069
   10A      C2'  316   4.347   3.061   2.932  0.2800  0.2534  0.4836
   10A      H2'  317   4.242   3.073   2.959  0.4561  1.2301  0.7801
   10A      O2'  318   4.386   3.153   2.830 -0.0385  0.3692  0.6539
   10A     HO2'  319   4.470   3.194   2.848  0.7619  0.2387 -2.2263
   10A      O3'  320   4.487   3.196   3.077  0.0301 -0.0222  0.3532
   11G        P  321   4.453   3.287   3.199  0.2495  0.0982  0.4458
   11G      OP1  322   4.531   3.411   3.197  0.2019 -0.4110  0.0606
   11G      OP2  323   4.447   3.218   3.327  0.4474  0.7907 -0.8322
   11G      O5'  324   4.299   3.323   3.167  0.3366 -0.8746 -0.4303
   11G      C5'  325   4.273   3.401   3.046 -0.5552 -0.3096  0.1771
   11G      H5'  326   4.257   3.332   2.963  1.6753 -0.2592 -0.3570
   11G     H5''  327   4.364   3.457   3.025  1.2088 -2.5909  1.2196
   11G      C4'  328   4.149   3.496   3.075 -0.5894 -0.2056  0.8760
   11G      H4'  329   4.150   3.566   2.992 -1.1396  0.3720  1.3487
   11G      O4'  330   4.024   3.437   3.062  0.7724 -0.2155 -0.1569
   11G      C1'  331   3.950   3.475   3.175 -0.2937  1.2730  0.4725
   11G      H1'  332   3.851   3.502   3.137 -0.5661 -1.4868 -0.9834
   11G       N9  333   3.934   3.355   3.254  0.1817 -0.6750 -0.5035
   11G       C8  334   4.012   3.298   3.352  0.3839  0.4511  0.4496
   11G       H8  335   4.112   3.325   3.382  1.2605 -2.3689  0.3895
   11G       N7  336   3.955   3.197   3.407 -0.4583 -0.1104  0.6150
   11G       C5  337   3.847   3.173   3.325 -0.3035  0.2272  0.2776
   11G       C6  338   3.756   3.064   3.308 -0.2068  0.0206  0.5795
   11G       O6  339   3.768   2.951   3.353  0.4874  0.7063 -0.2041
   11G       N1  340   3.650   3.083   3.218 -0.5176  0.4225 -0.3167
   11G       H1  341   3.579   3.011   3.220  1.0125 -1.3709 -3.1329
   11G       C2  342   3.651   3.180   3.124 -0.1289 -0.3140 -1.1031
   11G       N2  343   3.551   3.186   3.044  0.2618 -0.1477  0.7153
   11G      H21  344   3.480   3.114   3.038 -1.3675  1.4500 -0.2619
   11G      H22  345   3.535   3.270   2.990 -2.3392 -1.6274 -1.0800
   11G       N3  346   3.736   3.285   3.131 -0.2899  0.3479  0.2657
   11G       C4  347   3.827   3.270   3.228  0.1231 -0.4304 -0.2231
   11G      C3'  348   4.165   3.579   3.201  0.2069  0.0178  0.1907
   11G      H3'  349   4.231   3.527   3.271  1.4397  2.7659  1.1983
   11G      C2'  350   4.017   3.576   3.262  0.5038  0.4394 -0.0333
   11G      H2'  351   4.016   3.549   3.367 -1.5349  0.7095  0.0600
   11G      O2'  352   3.947   3.700   3.248 -0.0841 -0.0806 -0.0016
   11G     HO2'  353   3.933   3.722   3.156 -2.0525  2.3202  0.7940
   11G      O3'  354   4.199   3.713   3.171  0.0361  0.2085  0.5095
   12U        P  355   4.348   3.755   3.144  0.0080 -0.1751  0.0162
   12U      OP1  356   4.402   3.685   3.029 -0.1581  0.0779 -0.1847
   12U      OP2  357   4.429   3.765   3.268 -0.6701 -0.3200  0.2339
   12U      O5'  358   4.317   3.904   3.110  0.6509  0.0070  0.4526
   12U      C5'  359   4.244   3.978   3.204 -0.5217 -0.1461  0.0484
   12U      H5'  360   4.292   4.009   3.297 -0.0976  1.6825 -0.7367
   12U     H5''  361   4.146   3.941   3.234  0.5030 -0.4020  3.4791
   12U      C4'  362   4.214   4.109   3.135  0.2085  0.8682  0.1269
   12U      H4'  363   4.157   4.168   3.206  0.5366 -0.4889  1.5548
   12U      O4'  364   4.331   4.184   3.098  0.4053  0.2493  0.2509
   12U      C1'  365   4.336   4.195   2.958  0.3345 -0.0559  0.3348
   12U      H1'  366   4.309   4.297   2.931  0.3108 -0.0401  0.4204
   12U       N1  367   4.470   4.159   2.905 -0.0106 -0.5182 -0.3627
   12U       C6  368   4.549   4.064   2.968  0.6463 -0.3755 -0.5882
   12U       H6  369   4.511   4.021   3.059  1.6111 -1.3183 -0.6173
   12U       C5  370   4.673   4.032   2.918  0.7167  0.7492 -0.3875
   12U       H5  371   4.737   3.958   2.965 -1.6588 -1.0012  0.2629
   12U       C4  372   4.722   4.089   2.793  0.4145  0.2297 -0.8141
   12U       O4  373   4.836   4.064   2.756 -0.2173  0.3056 -0.1283
   12U       N3  374   4.636   4.183   2.741  0.1765 -0.2948  0.8290
   12U       H3  375   4.686   4.249   2.682  1.8418 -0.9272  1.4745
   12U       C2  376   4.513   4.224   2.789  0.0171  0.1290  0.1300
   12U       O2  377   4.451   4.313   2.726 -0.3142  0.5587 -0.2391
   12U      C3'  378   4.130   4.097   3.005  0.5716 -0.4343 -0.6367
   12U      H3'  379   4.073   4.004   3.001 -1.0244  0.4123  0.8620
   12U      C2'  380   4.234   4.099   2.897 -0.0496  0.5870  0.0505
   12U      H2'  381   4.275   3.999   2.889  1.8594  1.3195  0.1922
   12U      O2'  382   4.194   4.152   2.772 -0.1548 -0.6026 -0.9048
   12U     HO2'  383   4.109   4.192   2.793 -0.5995 -1.9842  0.0691
   12U      O3'  384   4.044   4.213   2.995 -0.5001  0.1843 -0.5905
   13A        P  385   3.889   4.181   2.972 -0.2143  0.2743 -0.0897
   13A      OP1  386   3.823   4.311   2.986 -0.1548 -0.4376 -0.0841
   13A      OP2  387   3.842   4.061   3.047  0.6108  0.1406  0.0245
   13A      O5'  388   3.879   4.144   2.819 -0.1935  0.1914  0.0513
   13A      C5'  389   3.891   4.245   2.720  0.9863  0.1075  0.5711
   13A      H5'  390   3.988   4.293   2.717  1.2920 -0.5266 -1.4994
   13A     H5''  391   3.811   4.317   2.739 -0.4322 -1.1429 -0.4210
   13A      C4'  392   3.863   4.169   2.592 -0.0471 -0.5181 -0.2608
   13A      H4'  393   3.864   4.240   2.508 -0.9794  1.1827  1.0962
   13A      O4'  394   3.961   4.063   2.552  0.8382 -0.0708  0.0898
   13A      C1'  395   3.886   3.961   2.491 -0.3081  0.3816 -0.0448
   13A      H1'  396   3.915   3.942   2.387 -1.2979  2.1240 -0.6808
   13A       N9  397   3.910   3.840   2.574  0.4003  0.0279  0.0907
   13A       C8  398   3.998   3.832   2.676  0.5613 -0.5237 -0.2005
   13A       H8  399   4.056   3.915   2.714  0.7086 -0.6848 -0.0732
   13A       N7  400   4.012   3.712   2.725 -0.0528 -0.3232 -0.7286
   13A       C5  401   3.926   3.638   2.645 -0.2314 -0.3948  0.2209
   13A       C6  402   3.873   3.509   2.645  0.9523 -0.0190  0.1392
   13A       N6  403   3.899   3.409   2.725  0.7413 -0.8420 -0.5526
   13A      H61  404   3.832   3.334   2.734  0.5001 -0.6250 -0.5192
   13A      H62  405   3.965   3.440   2.795  0.2135  3.1931 -1.5873
   13A       N1  406   3.776   3.468   2.561  0.2242  0.3405  0.0920
   13A       C2  407   3.720   3.554   2.479 -0.4140 -0.6187 -0.1181
   13A       H2  408   3.636   3.527   2.417  1.0638 -2.5807 -1.3608
   13A       N3  409   3.758   3.684   2.470 -0.0411 -0.2220 -0.3318
   13A       C4  410   3.861   3.716   2.553 -0.7005  0.3834 -0.0906
   13A      C3'  411   3.724   4.109   2.591 -0.4225  0.0808  0.1304
   13A      H3'  412   3.700   4.063   2.686 -0.8724  1.4373  0.6991
   13A      C2'  413   3.739   4.001   2.484 -0.0865 -0.5837 -0.6353
   13A      H2'  414   3.677   3.915   2.508 -2.0653  0.5082 -1.5880
   13A      O2'  415   3.716   4.060   2.359 -0.1112  0.5693  0.2722
   13A     HO2'  416   3.651   4.013   2.306  1.8569 -1.4466 -0.5093
   13A      O3'  417   3.628   4.211   2.576 -0.0640  0.2547  0.3769
   14A        P  418   3.504   4.242   2.684 -0.2263 -0.1060 -0.4016
   14A      OP1  419   3.462   4.381   2.662 -0.4510 -0.8856 -0.1926
   14A      OP2  420   3.543   4.205   2.825 -0.2524 -0.5076  0.0125
   14A      O5'  421   3.391   4.151   2.647  0.0235  0.2403 -0.1667
   14A      C5'  422   3.357   4.134   2.510 -0.5631  0.2477  0.6813
   14A      H5'  423   3.431   4.166   2.436  0.8083  1.9615  2.6518
   14A     H5''  424   3.262   4.181   2.485 -1.9368 -2.5337  0.3214
   14A      C4'  425   3.318   3.992   2.490  0.3518 -0.1052 -0.5983
   14A      H4'  426   3.265   3.999   2.396 -2.5521 -2.2077  0.7211
   14A      O4'  427   3.432   3.905   2.483  0.3485 -0.5477  0.7010
   14A      C1'  428   3.400   3.780   2.535  0.1371 -0.3971  0.5790
   14A      H1'  429   3.421   3.702   2.461 -2.7328 -0.3766 -0.3528
   14A       N9  430   3.484   3.746   2.654 -0.1930 -0.0600  0.2190
   14A       C8  431   3.560   3.830   2.728 -0.2375 -0.1460 -0.3005
   14A       H8  432   3.563   3.936   2.708  0.8458 -0.0457  0.3283
   14A       N7  433   3.638   3.767   2.809  0.0525  0.7380 -0.0113
   14A       C5  434   3.595   3.636   2.794 -0.4575 -0.4879 -0.7883
   14A       C6  435   3.627   3.511   2.862  0.4945  0.0723 -0.3713
   14A       N6  436   3.715   3.500   2.956 -0.2483  0.4260  0.6899
   14A      H61  437   3.720   3.407   2.996 -0.7273  0.0455 -0.1215
   14A      H62  438   3.776   3.578   2.977  0.3216 -0.1488  1.2119
   14A       N1  439   3.549   3.398   2.843  1.2658  0.2905 -0.8223
   14A       C2  440   3.451   3.401   2.755  0.1997  0.4217 -0.2556
   14A       H2  441   3.403   3.306   2.735  2.6834 -0.7497 -1.0677
   14A       N3  442   3.421   3.510   2.680  0.4553  0.4290  0.3880
   14A       C4  443   3.494   3.621   2.709  0.0342 -0.0954 -0.3407
   14A      C3'  444   3.227   3.931   2.593  0.1574  1.4704  0.0453
   14A      H3'  445   3.269   3.961   2.689  1.5810  1.4458 -0.5335
   14A      C2'  446   3.253   3.781   2.570 -0.1011  0.0070  1.0761
   14A      H2'  447   3.237   3.731   2.665  0.7951 -1.6904  0.3744
   14A      O2'  448   3.178   3.728   2.460  0.0762  0.2864  0.1887
   14A     HO2'  449   3.207   3.637   2.453  1.4195  0.6013  1.1693
   14A      O3'  450   3.097   3.972   2.583 -0.3790 -0.3043 -0.3475
   15C        P  451   3.020   4.005   2.719  0.0713  0.4385 -0.3087
   15C      OP1  452   2.885   4.044   2.680  0.2770 -0.0709  0.3528
   15C      OP2  453   3.104   4.099   2.793  0.0129 -0.3383 -0.0932
   15C      O5'  454   3.004   3.864   2.797  0.1142 -0.2532 -0.3768
   15C      C5'  455   2.934   3.759   2.736 -0.0117 -0.0383  0.0116
   15C      H5'  456   2.949   3.765   2.628 -0.5953 -3.0594 -0.3292
   15C     H5''  457   2.828   3.779   2.753  0.3635  2.0656  0.1138
   15C      C4'  458   2.972   3.616   2.786 -0.6871  0.6896 -0.0488
   15C      H4'  459   2.906   3.548   2.732 -0.6867  1.1417 -0.6342
   15C      O4'  460   3.109   3.576   2.768 -0.1868  0.7347 -0.2672
   15C      C1'  461   3.148   3.505   2.878  0.9437  0.1595  0.0784
   15C      H1'  462   3.181   3.404   2.852 -0.3568 -0.3996  0.4935
   15C       N1  463   3.258   3.581   2.947 -0.8161  0.2756  0.8444
   15C       C6  464   3.286   3.710   2.927 -0.4810 -0.0410  0.6731
   15C       H6  465   3.218   3.768   2.866 -1.4219 -1.1032  0.6798
   15C       C5  466   3.378   3.781   2.992  0.1440  0.0142  0.4666
   15C       H5  467   3.395   3.886   2.971  1.3265 -0.0640  1.0077
   15C       C4  468   3.453   3.710   3.085 -0.7554 -0.3514 -0.0620
   15C       N4  469   3.551   3.766   3.154 -0.0503  0.4278 -0.1689
   15C      H41  470   3.606   3.698   3.204 -0.9061  0.4544  0.8536
   15C      H42  471   3.582   3.853   3.114 -2.7363  1.7098  0.3101
   15C       N3  472   3.435   3.583   3.106 -0.2261  0.2220 -0.1918
   15C       C2  473   3.339   3.516   3.045 -0.0823 -0.5915  0.5688
   15C       O2  474   3.327   3.392   3.065 -0.0282 -0.3584 -0.0304
   15C      C3'  475   2.951   3.614   2.935 -0.4039  0.2161 -0.2954
   15C      H3'  476   3.003   3.693   2.990 -1.3387 -0.4933  1.7070
   15C      C2'  477   3.024   3.487   2.967 -0.3257 -0.0356  0.3188
   15C      H2'  478   3.062   3.483   3.069  2.3162 -2.7477 -0.6009
   15C      O2'  479   2.949   3.373   2.941  0.0844  0.2048 -0.3775
   15C     HO2'  480   3.007   3.301   2.966 -0.0809  0.3027  0.2923
   15C      O3'  481   2.815   3.619   2.961  0.0661  0.3136 -0.1156
   16C        P  482   2.759   3.686   3.091 -0.0416 -0.2654 -0.4047
   16C      OP1  483   2.616   3.696   3.074 -0.2280 -0.1136  0.3314
   16C      OP2  484   2.828   3.804   3.139 -0.2396  0.3897 -0.7460
   16C      O5'  485   2.794   3.573   3.190 -0.6228 -0.0937  0.5213
   16C      C5'  486   2.743   3.442   3.187 -0.0981  0.7744  0.9406
   16C      H5'  487   2.760   3.391   3.092  0.7528 -0.5756  1.7773
   16C     H5''  488   2.636   3.441   3.209 -0.3616  2.4609 -0.0991
   16C      C4'  489   2.826   3.354   3.288  0.1544 -0.0443 -0.1626
   16C      H4'  490   2.793   3.250   3.291 -3.2122  0.8918 -0.7378
   16C      O4'  491   2.967   3.344   3.253 -0.5939  0.9388 -0.2260
   16C      C1'  492   3.040   3.346   3.378  0.0143  0.6525 -0.0625
   16C      H1'  493   3.109   3.262   3.388  0.1893  0.8492  0.3839
   16C       N1  494   3.111   3.465   3.407  0.4683 -0.2722  0.2580
   16C       C6  495   3.118   3.569   3.318  0.3698 -0.6055 -0.0294
   16C       H6  496   3.032   3.576   3.253 -0.7210 -0.4242  1.3927
   16C       C5  497   3.213   3.664   3.331  0.1148  0.4517 -0.6139
   16C       H5  498   3.204   3.750   3.265 -0.4249  0.8548 -0.0239
   16C       C4  499   3.311   3.636   3.426  0.2303 -0.9902  0.7374
   16C       N4  500   3.404   3.726   3.442 -0.6183  0.3335 -0.1370
   16C      H41  501   3.479   3.709   3.506 -0.4470 -2.3530 -0.9479
   16C      H42  502   3.408   3.816   3.395  0.5998  0.4691  0.2004
   16C       N3  503   3.307   3.541   3.515 -0.3686  0.2807 -0.3655
   16C       C2  504   3.205   3.451   3.505 -0.6487  0.1526 -0.7309
   16C       O2  505   3.214   3.361   3.589  0.7181  0.7017  0.2264
   16C      C3'  506   2.827   3.422   3.426 -0.6586  0.3741 -0.0561
   16C      H3'  507   2.854   3.528   3.429  0.2386  0.2151 -1.3138
   16C      C2'  508   2.937   3.337   3.490  0.0331 -0.0681 -0.2278
   16C      H2'  509   2.979   3.371   3.584  0.0034  0.4505 -0.3995
   16C      O2'  510   2.900   3.211   3.517 -0.0901  0.5584 -0.2901
   16C     HO2'  511   2.974   3.165   3.556  0.1647  0.1027 -1.2795
   16C      O3'  512   2.699   3.392   3.477 -0.0958  0.1817  0.1940
   17C        P  513   2.634   3.491   3.579 -0.3143  0.0886 -0.4435
   17C      OP1  514   2.495   3.448   3.600  0.2403  0.4060  0.1361
   17C      OP2  515   2.666   3.638   3.551  0.6565  0.6309  0.2484
   17C      O5'  516   2.708   3.452   3.709 -0.5430 -0.0288  0.0387
   17C      C5'  517   2.711   3.324   3.766  0.3439 -0.3585  0.2183
   17C      H5'  518   2.728   3.248   3.689 -0.2386 -1.3461  1.0480
   17C     H5''  519   2.613   3.313   3.812 -0.3147  0.6312 -0.8682
   17C      C4'  520   2.821   3.313   3.872  0.7486 -0.4208  0.5017
   17C      H4'  521   2.792   3.225   3.927  0.7553 -0.1090  1.0084
   17C      O4'  522   2.955   3.310   3.823  0.4002  0.4788  0.0637
   17C      C1'  523   3.029   3.386   3.916 -0.1954 -0.3900 -0.0366
   17C      H1'  524   3.126   3.339   3.928 -0.1362 -0.6183 -1.3227
   17C       N1  525   3.069   3.518   3.861 -0.0374  0.4059  0.8007
   17C       C6  526   3.006   3.577   3.753 -0.2949 -0.1947 -0.0185
   17C       H6  527   2.916   3.540   3.706  0.6651  0.3050 -2.4450
   17C       C5  528   3.072   3.675   3.687 -0.6103 -1.0665  0.6633
   17C       H5  529   3.036   3.715   3.593 -1.1719 -1.3117  0.7692
   17C       C4  530   3.200   3.724   3.742 -0.1675 -0.3016  0.4557
   17C       N4  531   3.257   3.826   3.682  0.2258  0.0638  0.0485
   17C      H41  532   3.346   3.855   3.719  0.7847  1.1317 -1.9988
   17C      H42  533   3.217   3.859   3.595 -1.3584 -0.5520  0.5004
   17C       N3  534   3.254   3.674   3.847  0.5879 -0.5323 -0.3119
   17C       C2  535   3.194   3.569   3.907  1.0862  0.3911  0.6045
   17C       O2  536   3.254   3.526   4.009  0.4067 -0.5504 -0.7424
   17C      C3'  537   2.807   3.418   3.981  0.2838  0.2420 -0.2893
   17C      H3'  538   2.814   3.514   3.930 -0.5189  0.7057  0.4563
   17C      C2'  539   2.946   3.401   4.042  0.9842 -0.7109 -0.1202
   17C      H2'  540   2.983   3.482   4.105  2.7763 -2.7134  1.5934
   17C      O2'  541   2.945   3.277   4.117 -1.0111  0.2837 -0.1174
   17C     HO2'  542   3.006   3.288   4.191 -3.4371 -1.1408  2.2511
   17C      O3'  543   2.688   3.402   4.056 -0.3798 -0.7578 -0.5478
   18C        P  544   2.615   3.530   4.113 -0.3646 -0.3284  0.0260
   18C      OP1  545   2.484   3.488   4.174  0.1907 -0.3579 -0.4257
   18C      OP2  546   2.612   3.639   4.018 -0.6298 -0.1079 -0.2736
   18C      O5'  547   2.710   3.579   4.231 -0.9964 -0.0264 -0.2150
   18C      C5'  548   2.746   3.491   4.338 -0.1933  0.9593 -0.0575
   18C      H5'  549   2.776   3.394   4.298 -1.2940  0.6998 -0.2707
   18C     H5''  550   2.662   3.491   4.408  0.0335 -1.6181  0.2913
   18C      C4'  551   2.870   3.549   4.412  0.4301  0.1244  0.0072
   18C      H4'  552   2.891   3.498   4.506  1.5900  0.5659 -0.0047
   18C      O4'  553   2.987   3.531   4.339  0.1238  0.2192  0.6341
   18C      C1'  554   3.066   3.639   4.366 -0.1889  0.6253 -0.1638
   18C      H1'  555   3.165   3.610   4.399 -0.4692 -1.3920 -0.9517
   18C       N1  556   3.087   3.729   4.252 -0.0522 -0.6950  0.1016
   18C       C6  557   2.996   3.735   4.155  0.7214 -0.2780 -0.2413
   18C       H6  558   2.907   3.675   4.151 -1.0648  2.2700 -0.9815
   18C       C5  559   3.010   3.809   4.045 -0.1006 -0.7625  0.6274
   18C       H5  560   2.933   3.816   3.970  1.0140  1.9371 -0.3923
   18C       C4  561   3.124   3.890   4.037 -0.3615  0.5595  0.3235
   18C       N4  562   3.147   3.975   3.943 -0.2129  0.4797 -0.2705
   18C      H41  563   3.238   4.018   3.934  0.3361 -0.7342 -0.8405
   18C      H42  564   3.092   3.949   3.862 -1.0774 -4.9908  1.6910
   18C       N3  565   3.217   3.890   4.133 -1.2558  0.0804 -0.2478
   18C       C2  566   3.194   3.818   4.246  0.3409 -1.0226 -0.2048
   18C       O2  567   3.270   3.843   4.341 -0.3543  0.1447  0.3935
   18C      C3'  568   2.859   3.702   4.448  0.2994 -0.6647  0.3202
   18C      H3'  569   2.823   3.761   4.364  4.5446  1.9991  0.0826
   18C      C2'  570   3.006   3.724   4.475  0.1078  0.3584 -0.2546
   18C      H2'  571   3.037   3.828   4.463  0.2068  0.0728 -2.8623
   18C      O2'  572   3.050   3.679   4.599 -0.5733  0.3070 -0.2765
   18C     HO2'  573   3.086   3.751   4.651  2.4871 -1.1133 -0.2231
   18C      O3'  574   2.778   3.722   4.559 -0.1680 -0.3700 -0.2330
   19A        P  575   2.688   3.859   4.567  0.2454 -0.1668 -0.3054
   19A      OP1  576   2.590   3.842   4.675 -0.1393  0.0100 -0.2612
   19A      OP2  577   2.639   3.894   4.433  0.4900 -0.0984 -0.1512
   19A      O5'  578   2.800   3.959   4.612 -0.3174  0.1928  0.1705
   19A      C5'  579   2.869   3.932   4.730 -0.0360 -0.0050  0.2782
   19A      H5'  580   2.905   3.830   4.732  1.0293  0.3597  0.4829
   19A     H5''  581   2.794   3.940   4.809 -0.7417 -0.0778 -0.3707
   19A      C4'  582   2.986   4.024   4.735 -0.4906  0.3701  0.5395
   19A      H4'  583   3.035   4.013   4.831  0.5802  0.6989  0.0478
   19A      O4'  584   3.075   3.989   4.634  0.0985 -0.2660 -0.2784
   19A      C1'  585   3.129   4.107   4.571 -0.0576 -0.2046 -0.5202
   19A      H1'  586   3.237   4.116   4.569 -0.1641  1.5311 -0.0296
   19A       N9  587   3.081   4.121   4.429 -0.2840  0.3556 -0.1916
   19A       C8  588   2.981   4.061   4.362  0.3631 -0.1554 -0.5722
   19A       H8  589   2.915   3.987   4.406  0.2382 -1.0021 -2.1300
   19A       N7  590   2.976   4.087   4.234  0.3019  0.1108  0.2583
   19A       C5  591   3.082   4.183   4.216 -0.3484  0.1541 -0.3966
   19A       C6  592   3.123   4.271   4.112  0.5097 -0.4274  0.0175
   19A       N6  593   3.071   4.269   3.990 -0.1145 -0.5367  0.0340
   19A      H61  594   3.113   4.318   3.912  2.2957  1.4598  2.3758
   19A      H62  595   2.988   4.214   3.973  0.1463 -0.7111 -0.7518
   19A       N1  596   3.217   4.363   4.133 -0.3461  0.3377  0.5674
   19A       C2  597   3.269   4.374   4.249 -0.0917 -0.2770 -0.2784
   19A       H2  598   3.337   4.456   4.261 -0.0668 -0.0226 -1.8850
   19A       N3  599   3.246   4.297   4.355 -0.1371 -0.2500  0.3539
   19A       C4  600   3.141   4.206   4.334  0.3783  0.6947 -0.5819
   19A      C3'  601   2.956   4.174   4.716 -0.6393  0.4220 -0.0838
   19A      H3'  602   2.878   4.178   4.639  0.7255 -1.9424 -1.7012
   19A      C2'  603   3.090   4.220   4.666 -0.7497  0.4131  1.0975
   19A      H2'  604   3.092   4.317   4.616 -0.7526 -1.3759 -2.7418
   19A      O2'  605   3.188   4.219   4.774 -0.1405  0.0246 -0.4827
   19A     HO2'  606   3.272   4.237   4.732  0.8293 -1.6760  0.6383
   19A      O3'  607   2.915   4.237   4.832 -0.0088  0.5060 -0.2780
   20G        P  608   2.837   4.374   4.820 -0.1453  0.1315 -0.2499
   20G      OP1  609   2.780   4.401   4.956 -0.2437 -0.1006 -0.1172
   20G      OP2  610   2.742   4.361   4.708 -0.0853 -0.6312  0.8575
   20G      O5'  611   2.940   4.488   4.787  0.5456  0.0726  0.4436
   20G      C5'  612   3.050   4.520   4.867  0.8312  0.8230 -0.3095
   20G      H5'  613   3.108   4.430   4.888  0.3325  0.7194  0.7281
   20G     H5''  614   3.009   4.557   4.961 -0.9821  1.1180 -1.1881
   20G      C4'  615   3.143   4.622   4.797 -0.6066  0.4350 -0.3429
   20G      H4'  616   3.232   4.633   4.859 -1.6864 -2.2305  1.9006
   20G      O4'  617   3.177   4.574   4.668  0.0027 -0.2594  0.0839
   20G      C1'  618   3.133   4.664   4.570  0.5975 -0.7631 -0.4395
   20G      H1'  619   3.214   4.732   4.541  0.2662 -0.1802 -0.0297
   20G       N9  620   3.066   4.604   4.453 -0.2401 -0.0826  0.3039
   20G       C8  621   2.974   4.504   4.456 -0.3238 -0.2662  0.3179
   20G       H8  622   2.944   4.462   4.551  1.1540  2.0358  1.8977
   20G       N7  623   2.929   4.471   4.339  0.7850 -1.3551 -0.2739
   20G       C5  624   3.000   4.558   4.253 -0.7862 -0.4120  0.2071
   20G       C6  625   2.999   4.587   4.113  0.1114 -0.1419 -0.5578
   20G       O6  626   2.932   4.529   4.029  0.1830 -0.3515 -0.4175
   20G       N1  627   3.065   4.701   4.074  0.3386  0.2555 -0.2272
   20G       H1  628   3.073   4.715   3.974  3.3820  1.3011  0.0450
   20G       C2  629   3.146   4.766   4.159 -0.2435 -0.1757  0.0986
   20G       N2  630   3.201   4.871   4.112  0.2813 -0.4930  0.0253
   20G      H21  631   3.181   4.886   4.014 -1.4901 -0.3482  0.3798
   20G      H22  632   3.243   4.937   4.176  0.4315  0.0093 -0.5765
   20G       N3  633   3.161   4.747   4.290 -0.2822 -0.1334  0.1717
   20G       C4  634   3.088   4.641   4.323  0.3860  0.2773 -0.1855
   20G      C3'  635   3.068   4.755   4.776 -0.0156  0.3059 -0.0037
   20G      H3'  636   2.992   4.771   4.853  0.6488 -0.4268  0.8209
   20G      C2'  637   3.022   4.748   4.630 -0.1243 -0.0507 -0.0449
   20G      H2'  638   2.934   4.684   4.642  0.8511 -1.1461  1.6301
   20G      O2'  639   2.991   4.867   4.565  0.6228  0.3685  0.3830
   20G     HO2'  640   2.916   4.853   4.506 -2.0657 -0.2078  3.6098
   20G      O3'  641   3.165   4.857   4.781 -0.1721 -0.0697 -0.1032
   21U        P  642   3.220   4.922   4.911 -0.3760  0.1883  0.0695
   21U      OP1  643   3.218   4.837   5.035 -0.3694 -0.3381  0.0648
   21U      OP2  644   3.178   5.062   4.921  0.0540  0.1472 -0.0894
   21U      O5'  645   3.367   4.933   4.863 -0.0254 -0.2296 -0.3125
   21U      C5'  646   3.473   4.865   4.937 -0.1130 -0.2024  0.4422
   21U      H5'  647   3.468   4.757   4.925 -1.4477 -0.3747  2.1371
   21U     H5''  648   3.466   4.889   5.043 -0.5976 -0.5735  0.5001
   21U      C4'  649   3.601   4.920   4.881 -0.1234 -0.0311 -0.1171
   21U      H4'  650   3.686   4.871   4.929 -0.8555 -3.5717 -2.1142
   21U      O4'  651   3.604   4.896   4.740  0.0796  0.0779  0.0411
   21U      C1'  652   3.638   5.017   4.667 -0.4808  0.1199 -0.7782
   21U      H1'  653   3.737   5.007   4.623  0.4282 -2.7666  1.6290
   21U       N1  654   3.533   5.041   4.562  0.0125 -0.4397 -0.4145
   21U       C6  655   3.408   4.977   4.563 -0.2423  0.4452  0.3017
   21U       H6  656   3.389   4.900   4.636  0.3300  0.0265  0.0144
   21U       C5  657   3.315   5.006   4.466 -0.6038 -0.4817 -0.0617
   21U       H5  658   3.223   4.949   4.463 -1.2341  0.5194  0.0222
   21U       C4  659   3.358   5.075   4.348 -0.1930  0.2142  0.9199
   21U       O4  660   3.291   5.097   4.246 -0.2515  0.2087  0.7785
   21U       N3  661   3.487   5.120   4.347  0.4420 -0.5399 -0.0152
   21U       H3  662   3.515   5.181   4.272  2.1426 -0.4995  0.6040
   21U       C2  663   3.572   5.122   4.454 -0.2043  0.3612 -0.3380
   21U       O2  664   3.685   5.170   4.438 -0.3341  0.7441 -0.3882
   21U      C3'  665   3.606   5.071   4.893  0.2770 -0.7421  0.2250
   21U      H3'  666   3.502   5.101   4.900  0.1033 -1.4115  0.6156
   21U      C2'  667   3.644   5.138   4.766  0.6059 -0.0111  0.1888
   21U      H2'  668   3.568   5.214   4.747  1.0892  0.1827 -1.0723
   21U      O2'  669   3.770   5.213   4.752  0.1250  0.2584 -0.6507
   21U     HO2'  670   3.831   5.177   4.817  0.5767 -0.4206 -1.4341
   21U      O3'  671   3.683   5.110   5.008  0.5512  0.1446  0.2456
   22U        P  672   3.831   5.069   5.037  0.1689 -0.0694 -0.1017
   22U      OP1  673   3.896   5.175   5.114  0.3177 -0.1691 -0.3136
   22U      OP2  674   3.893   5.037   4.914 -0.6397 -0.2630  0.0540
   22U      O5'  675   3.808   4.938   5.118 -0.5526  0.4142 -0.3756
   22U      C5'  676   3.901   4.821   5.119 -0.0424 -0.3888 -0.5471
   22U      H5'  677   4.004   4.843   5.148  0.6170  0.4501 -3.1656
   22U     H5''  678   3.899   4.791   5.014  0.4725  1.3782 -1.1013
   22U      C4'  679   3.837   4.712   5.199 -0.0827 -0.0736  0.2935
   22U      H4'  680   3.902   4.625   5.192 -0.5986 -0.3797 -0.9785
   22U      O4'  681   3.822   4.747   5.332 -0.2160  0.5031 -0.1749
   22U      C1'  682   3.708   4.701   5.394  1.0051  0.4026 -0.3292
   22U      H1'  683   3.734   4.612   5.452 -0.1643  0.9776  1.1597
   22U       N1  684   3.662   4.810   5.477  0.0828 -0.2964 -0.1242
   22U       C6  685   3.627   4.929   5.417  0.1794  0.1341  0.2308
   22U       H6  686   3.659   4.944   5.315  1.4042  2.9087  0.9155
   22U       C5  687   3.581   5.035   5.488 -0.2429  0.2021 -0.4539
   22U       H5  688   3.565   5.128   5.436 -0.5254  0.1617 -0.4440
   22U       C4  689   3.564   5.021   5.632 -0.2287 -0.3959 -0.0057
   22U       O4  690   3.531   5.114   5.705 -0.5674 -0.0394  0.3653
   22U       N3  691   3.580   4.892   5.685 -0.3732 -0.0183  0.2976
   22U       H3  692   3.546   4.882   5.779  0.8313 -0.8213  0.6780
   22U       C2  693   3.641   4.790   5.612 -0.0430  0.1739 -0.2962
   22U       O2  694   3.656   4.683   5.672 -0.8559 -0.2169 -0.2696
   22U      C3'  695   3.697   4.677   5.151  0.0604 -0.3152 -0.1147
   22U      H3'  696   3.647   4.762   5.104  0.1411  0.8144  1.7435
   22U      C2'  697   3.614   4.658   5.277  0.0098 -0.7545  0.0920
   22U      H2'  698   3.532   4.730   5.275  0.1223 -0.5486  1.5539
   22U      O2'  699   3.554   4.536   5.305 -0.0310  0.0797 -1.0256
   22U     HO2'  700   3.612   4.466   5.276  1.2260  0.8805 -0.5262
   22U      O3'  701   3.689   4.575   5.055  0.1578 -0.4420  0.1388
   23A        P  702   3.754   4.431   5.080 -0.1248  0.5063  0.5110
   23A      OP1  703   3.731   4.391   5.218 -0.0084  0.0775  0.6119
   23A      OP2  704   3.890   4.433   5.019  0.3820  0.2986 -0.7036
   23A      O5'  705   3.667   4.338   4.985 -1.0285 -0.1040 -0.2686
   23A      C5'  706   3.528   4.346   4.996  0.2721  0.2885  0.2568
   23A      H5'  707   3.497   4.419   5.071 -0.5296 -0.8112  1.0250
   23A     H5''  708   3.488   4.250   5.026  0.1411  0.1894 -0.2175
   23A      C4'  709   3.466   4.372   4.860 -0.2602  0.4829  0.0330
   23A      H4'  710   3.357   4.375   4.866 -0.2144  1.5704  0.6293
   23A      O4'  711   3.487   4.509   4.815 -0.0597 -0.0336  0.2779
   23A      C1'  712   3.496   4.500   4.677  0.2915  0.6198  0.0277
   23A      H1'  713   3.412   4.561   4.643 -1.6126 -0.2836  2.7441
   23A       N9  714   3.613   4.573   4.621  0.2640  0.2511  0.0043
   23A       C8  715   3.736   4.597   4.671 -0.0044  0.2134  0.2744
   23A       H8  716   3.776   4.535   4.750 -1.3497 -0.7746  0.2050
   23A       N7  717   3.809   4.682   4.600  0.2439 -0.2944  0.1579
   23A       C5  718   3.718   4.727   4.513 -0.0669  0.1302  0.2936
   23A       C6  719   3.715   4.823   4.407  0.3272  0.3392 -0.5933
   23A       N6  720   3.816   4.905   4.381  0.0650  0.4998  0.4902
   23A      H61  721   3.808   4.977   4.311  0.7819  0.8007  0.7148
   23A      H62  722   3.902   4.899   4.432  0.2802  2.1991  0.3738
   23A       N1  723   3.606   4.844   4.333  0.0800  0.5659  0.3873
   23A       C2  724   3.503   4.762   4.342 -0.3582 -0.0355  0.1547
   23A       H2  725   3.422   4.789   4.276  1.6671  3.6648 -1.0972
   23A       N3  726   3.493   4.663   4.435 -0.5795 -0.8813 -0.2343
   23A       C4  727   3.601   4.656   4.517  0.2142 -0.2258  0.5360
   23A      C3'  728   3.513   4.281   4.749 -0.2419  0.0874  0.3244
   23A      H3'  729   3.621   4.282   4.757 -0.2314 -0.5004  0.3233
   23A      C2'  730   3.482   4.358   4.627  0.2375 -0.2817  0.0696
   23A      H2'  731   3.561   4.342   4.553  1.1181  2.0955  0.3824
   23A      O2'  732   3.344   4.357   4.594 -0.1338 -0.8115 -0.2287
   23A     HO2'  733   3.326   4.331   4.503  1.4482 -2.3764 -0.1379
   23A      O3'  734   3.457   4.151   4.750  0.4644 -0.7734  0.0415
   24A        P  735   3.554   4.030   4.719  0.2508 -0.3245 -0.3185
   24A      OP1  736   3.696   4.071   4.719  0.6823  0.5726  0.0245
   24A      OP2  737   3.502   3.947   4.610 -0.7875 -0.0351  0.3403
   24A      O5'  738   3.521   3.946   4.840  0.3618  0.3379 -0.4852
   24A      C5'  739   3.585   3.980   4.967  0.3209 -0.0026 -0.2957
   24A      H5'  740   3.579   4.088   4.979 -2.2247  0.0995 -1.7772
   24A     H5''  741   3.688   3.944   4.971  0.2006 -0.2526  0.7818
   24A      C4'  742   3.520   3.916   5.087 -0.5736  0.2539  0.3912
   24A      H4'  743   3.569   3.950   5.178  2.6100 -1.8605 -0.3675
   24A      O4'  744   3.385   3.937   5.088  0.0060  0.0436 -0.0279
   24A      C1'  745   3.315   3.827   5.136 -0.6120 -0.1286 -0.3087
   24A      H1'  746   3.258   3.849   5.227 -1.1348 -2.4823 -0.0142
   24A       N9  747   3.207   3.786   5.045  0.2842 -0.2259 -0.5396
   24A       C8  748   3.192   3.817   4.914  0.4615  0.8604 -0.3428
   24A       H8  749   3.259   3.888   4.869 -0.2215  3.0579  1.8557
   24A       N7  750   3.093   3.758   4.851  0.3824 -0.4476  0.3259
   24A       C5  751   3.032   3.682   4.957 -0.0604 -0.3288  0.5557
   24A       C6  752   2.925   3.593   4.966  0.0356 -0.1528 -0.4854
   24A       N6  753   2.844   3.567   4.862 -0.0220  0.0077 -0.0006
   24A      H61  754   2.763   3.510   4.877  1.5483 -2.6615 -0.9777
   24A      H62  755   2.853   3.629   4.782 -2.2328  0.7699  0.2727
   24A       N1  756   2.898   3.530   5.084 -0.3170 -0.1788 -0.2553
   24A       C2  757   2.978   3.559   5.188  1.2669  0.2251  0.6397
   24A       H2  758   2.952   3.514   5.283  1.1811 -1.0451  0.0348
   24A       N3  759   3.078   3.639   5.188  1.0975  0.1231  0.1219
   24A       C4  760   3.100   3.704   5.074 -0.3718  0.1983 -0.9358
   24A      C3'  761   3.530   3.763   5.063 -0.5810 -0.3788 -0.7596
   24A      H3'  762   3.497   3.738   4.962 -1.0705  2.1360 -1.3092
   24A      C2'  763   3.415   3.713   5.153  0.9691 -0.1635 -0.2473
   24A      H2'  764   3.373   3.619   5.114 -0.3269 -0.6819  2.2165
   24A      O2'  765   3.435   3.693   5.296 -0.2574  0.3625 -0.1079
   24A     HO2'  766   3.399   3.608   5.321  1.7295 -0.1834  1.1244
   24A      O3'  767   3.658   3.726   5.091 -0.0103 -0.9183 -0.5450
   25C        P  768   3.727   3.612   5.016 -0.6061 -0.3471  0.1860
   25C      OP1  769   3.861   3.592   5.069  0.1599 -0.2245 -0.4404
   25C      OP2  770   3.706   3.627   4.873  0.5586 -0.3701  0.1015
   25C      O5'  771   3.645   3.488   5.048  0.2230 -0.2071 -0.4047
   25C      C5'  772   3.654   3.435   5.179 -0.1116 -0.0360 -0.3444
   25C      H5'  773   3.655   3.510   5.258  2.1896  0.2905 -0.6033
   25C     H5''  774   3.743   3.374   5.191  0.6008  0.9840 -0.2517
   25C      C4'  775   3.537   3.345   5.214 -0.3172 -0.0139  0.0816
   25C      H4'  776   3.555   3.322   5.319  1.6166  1.1188  0.0490
   25C      O4'  777   3.411   3.407   5.197  0.3705 -0.1438  0.1871
   25C      C1'  778   3.312   3.309   5.157 -0.5168  0.2953 -0.5387
   25C      H1'  779   3.236   3.311   5.235 -0.4427 -1.1568 -0.3921
   25C       N1  780   3.257   3.331   5.026  0.9606 -0.2026 -0.1143
   25C       C6  781   3.306   3.421   4.934 -0.6221 -0.1486 -0.5277
   25C       H6  782   3.397   3.477   4.955 -0.7876 -0.8037  2.3390
   25C       C5  783   3.243   3.449   4.820 -0.0883 -0.8746 -0.8223
   25C       H5  784   3.285   3.515   4.747 -1.2354 -1.3983 -1.9948
   25C       C4  785   3.129   3.379   4.788  0.5699 -0.2262  0.2401
   25C       N4  786   3.062   3.399   4.682 -0.1077  0.8380  0.4394
   25C      H41  787   2.971   3.354   4.685  0.9386 -1.7547 -2.1056
   25C      H42  788   3.075   3.486   4.632  1.5436  0.8180  0.7793
   25C       N3  789   3.079   3.285   4.872 -0.4391 -0.0607  0.3966
   25C       C2  790   3.141   3.260   4.988 -0.2209  0.3197  0.3974
   25C       O2  791   3.086   3.182   5.061 -0.0603  0.4592 -0.0554
   25C      C3'  792   3.530   3.223   5.126  0.3313  0.1186  0.0597
   25C      H3'  793   3.526   3.257   5.023 -2.0517  0.9160  0.3527
   25C      C2'  794   3.388   3.177   5.164  1.3564  0.0820 -0.3114
   25C      H2'  795   3.359   3.104   5.088 -0.6319 -1.4613  1.7877
   25C      O2'  796   3.370   3.122   5.292 -0.2411 -0.1322  0.1542
   25C     HO2'  797   3.354   3.027   5.286  0.7738 -0.2903 -0.1384
   25C      O3'  798   3.638   3.141   5.163  0.5002 -0.6246 -0.1614
   26A        P  799   3.709   3.038   5.073 -0.3941  0.0076 -0.7948
   26A      OP1  800   3.780   2.933   5.157 -0.3747  0.3285  0.6312
   26A      OP2  801   3.781   3.108   4.964  0.1424  0.2410 -0.6391
   26A      O5'  802   3.590   2.964   5.017  0.1627 -0.0028  0.4707
   26A      C5'  803   3.561   2.947   4.884  0.4469 -0.9606 -0.6416
   26A      H5'  804   3.617   2.860   4.850 -2.8967 -3.6485  0.1053
   26A     H5''  805   3.574   3.042   4.832 -2.8840 -0.0462 -0.0646
   26A      C4'  806   3.415   2.925   4.863  0.0692 -0.4081 -0.1476
   26A      H4'  807   3.380   2.857   4.941  0.7500 -0.5031  0.0783
   26A      O4'  808   3.332   3.046   4.859  0.1863  0.0859 -0.3989
   26A      C1'  809   3.248   3.046   4.748  0.1027  0.0633  0.1224
   26A      H1'  810   3.145   3.070   4.774 -0.6919  1.0416 -3.3420
   26A       N9  811   3.292   3.141   4.646 -0.4113 -0.6041 -0.4363
   26A       C8  812   3.392   3.235   4.656  0.1705 -0.1969 -0.2334
   26A       H8  813   3.462   3.245   4.739 -0.9602  1.9455  0.5550
   26A       N7  814   3.400   3.314   4.551 -0.8451 -0.0842 -0.2721
   26A       C5  815   3.290   3.277   4.469 -0.1610 -0.4818 -0.8521
   26A       C6  816   3.234   3.326   4.354  0.4455 -0.7465  0.4291
   26A       N6  817   3.279   3.429   4.281 -0.5960  0.3142  0.1918
   26A      H61  818   3.230   3.444   4.194 -2.7965 -2.9353  0.7077
   26A      H62  819   3.361   3.479   4.311 -1.0514  1.2013 -0.0005
   26A       N1  820   3.115   3.279   4.310 -0.1218 -0.8808 -0.9596
   26A       C2  821   3.060   3.183   4.384  0.6785 -0.4209  0.1898
   26A       H2  822   2.979   3.135   4.331 -2.0155  1.9090  1.9290
   26A       N3  823   3.100   3.124   4.494 -0.3688  0.1941 -0.2924
   26A       C4  824   3.218   3.177   4.533 -0.1065 -0.3048 -0.2882
   26A      C3'  825   3.383   2.858   4.731 -0.4159 -0.2263  0.0572
   26A      H3'  826   3.454   2.895   4.658 -0.3538 -0.0521  0.2069
   26A      C2'  827   3.243   2.901   4.699  0.0938  0.5287  0.4084
   26A      H2'  828   3.222   2.904   4.592 -1.5470 -0.0041  0.6857
   26A      O2'  829   3.129   2.837   4.766  0.1024 -0.5122 -0.7070
   26A     HO2'  830   3.044   2.876   4.747 -0.2472 -0.3020  1.0615
   26A      O3'  831   3.396   2.714   4.753  0.5547 -0.0882 -0.3926
   27A        P  832   3.426   2.615   4.635 -0.2338  0.1472 -0.1512
   27A      OP1  833   3.413   2.477   4.693 -0.6603 -0.4937 -0.0583
   27A      OP2  834   3.553   2.656   4.578 -0.0343  0.2791 -0.4732
   27A      O5'  835   3.322   2.641   4.522 -0.2486  0.1667  0.5429
   27A      C5'  836   3.193   2.595   4.554 -0.3866  0.2067 -0.5134
   27A      H5'  837   3.162   2.645   4.646  1.3443  1.0550 -0.3646
   27A     H5''  838   3.189   2.491   4.587  1.2881  0.0708 -0.6574
   27A      C4'  839   3.092   2.631   4.447 -0.1918 -1.1137  0.8835
   27A      H4'  840   2.994   2.591   4.475 -0.7988  0.4398  1.0986
   27A      O4'  841   3.090   2.772   4.428 -0.2219 -0.1989  0.4118
   27A      C1'  842   3.102   2.815   4.290  0.1503  0.2666  0.2027
   27A      H1'  843   3.017   2.881   4.273  0.6794  0.2026 -3.6010
   27A       N9  844   3.225   2.892   4.271 -0.1988 -0.2671  0.2949
   27A       C8  845   3.331   2.909   4.353 -0.0354  0.4076 -0.2842
   27A       H8  846   3.355   2.845   4.436  1.5950  0.4655 -0.6836
   27A       N7  847   3.406   3.011   4.320  0.0678 -0.3492 -0.3514
   27A       C5  848   3.341   3.062   4.207  0.3379  0.1696  0.6595
   27A       C6  849   3.364   3.172   4.118  0.0304 -0.0610 -0.0636
   27A       N6  850   3.465   3.251   4.133 -0.5400 -0.1002  0.5041
   27A      H61  851   3.472   3.325   4.064 -0.0291 -0.6005  0.0065
   27A      H62  852   3.524   3.238   4.213 -2.6729  1.1500  2.3916
   27A       N1  853   3.293   3.194   4.005  0.1066 -0.2566 -0.2645
   27A       C2  854   3.189   3.110   3.990  0.0144  0.3248  0.0568
   27A       H2  855   3.136   3.114   3.896 -2.0204 -0.7313  1.0928
   27A       N3  856   3.147   3.009   4.071 -0.1454  0.0506  0.3870
   27A       C4  857   3.235   2.985   4.174 -0.1366  0.0447 -0.1926
   27A      C3'  858   3.147   2.580   4.316  0.3342 -0.0510  0.2652
   27A      H3'  859   3.256   2.586   4.309  0.4407 -1.9801 -0.6539
   27A      C2'  860   3.096   2.686   4.211 -0.0519  0.0698 -1.0669
   27A      H2'  861   3.154   2.688   4.119  0.8550 -0.1374 -0.5096
   27A      O2'  862   2.950   2.677   4.192 -0.0542 -0.8324 -0.3861
   27A     HO2'  863   2.937   2.624   4.113  2.2094 -1.1502 -0.6317
   27A      O3'  864   3.112   2.444   4.296  0.0722 -0.1414  0.1204
   28A        P  865   3.212   2.344   4.218  0.1375  0.1809 -0.0682
   28A      OP1  866   3.172   2.205   4.261 -0.1781 -0.6538  0.1683
   28A      OP2  867   3.350   2.396   4.243  0.0415  0.6578 -0.1913
   28A      O5'  868   3.168   2.373   4.064 -0.2278  0.1385 -0.6682
   28A      C5'  869   3.052   2.313   4.029  0.3625  0.9061  0.1822
   28A      H5'  870   2.981   2.320   4.112  0.3385  2.4765  0.0618
   28A     H5''  871   3.073   2.207   4.013  0.2926  0.9278 -0.0575
   28A      C4'  872   2.994   2.381   3.903 -0.7049 -0.1572  0.0593
   28A      H4'  873   2.894   2.342   3.886 -0.5394 -0.3888 -0.3995
   28A      O4'  874   2.985   2.515   3.937 -0.5157 -0.5138 -0.1565
   28A      C1'  875   2.981   2.581   3.815  0.1332  0.0520  0.7141
   28A      H1'  876   2.887   2.632   3.795  0.1506  0.8105  2.4106
   28A       N9  877   3.086   2.690   3.815 -0.4720  0.2972  0.5104
   28A       C8  878   3.226   2.679   3.843  0.4496 -0.0048 -0.2357
   28A       H8  879   3.268   2.584   3.869 -2.2810 -1.4828 -0.8062
   28A       N7  880   3.290   2.781   3.791  0.1666  0.3809 -0.3022
   28A       C5  881   3.194   2.868   3.740 -0.0198  0.1698 -0.3999
   28A       C6  882   3.190   2.994   3.685 -0.4904 -0.6339 -0.0490
   28A       N6  883   3.291   3.083   3.681  0.0354 -0.0758 -0.0445
   28A      H61  884   3.275   3.170   3.632  0.8361 -0.2797 -0.6892
   28A      H62  885   3.379   3.041   3.708 -0.3332 -1.1096 -0.4089
   28A       N1  886   3.081   3.040   3.632  0.2107  0.2269  0.8068
   28A       C2  887   2.972   2.962   3.637 -0.8682  0.2163  0.1988
   28A       H2  888   2.886   2.997   3.582 -1.5636  0.0067  1.1407
   28A       N3  889   2.958   2.849   3.694  0.2100  0.0027 -0.1109
   28A       C4  890   3.076   2.805   3.744 -0.1694  0.1033  0.3245
   28A      C3'  891   3.083   2.369   3.781  0.7501  0.5417  0.1877
   28A      H3'  892   3.189   2.386   3.801  0.5891  1.6880  0.1500
   28A      C2'  893   3.017   2.483   3.709 -0.6283  0.3907 -0.0749
   28A      H2'  894   3.076   2.513   3.622 -0.7133  0.5525 -0.0769
   28A      O2'  895   2.891   2.446   3.664  0.7749 -0.7777 -0.1433
   28A     HO2'  896   2.888   2.484   3.576 -0.0048 -0.8745 -0.1624
   28A      O3'  897   3.058   2.240   3.719 -0.0439  0.6476 -0.2633
   29A        P  898   3.147   2.189   3.602  0.1684  0.1958 -0.4178
   29A      OP1  899   3.099   2.053   3.584 -0.1064 -0.4228 -0.8264
   29A      OP2  900   3.287   2.211   3.644  0.5951 -0.1373  0.1945
   29A      O5'  901   3.104   2.281   3.486 -0.0107  0.8258 -0.1748
   29A      C5'  902   2.980   2.263   3.420  0.1360 -0.5140  0.4017
   29A      H5'  903   2.898   2.250   3.490  0.5169 -1.9951  0.6099
   29A     H5''  904   2.991   2.179   3.353 -2.2058  0.6308 -1.5817
   29A      C4'  905   2.955   2.384   3.327  0.5901  0.1336 -0.3603
   29A      H4'  906   2.862   2.363   3.273  0.5941 -0.1181 -0.2690
   29A      O4'  907   2.940   2.500   3.413 -0.1204 -0.1219 -0.1270
   29A      C1'  908   2.988   2.614   3.355 -0.3365 -0.5111 -0.3130
   29A      H1'  909   2.917   2.696   3.354  0.4152  0.2464  1.9806
   29A       N9  910   3.115   2.670   3.398  0.7024 -0.1032  0.1642
   29A       C8  911   3.222   2.599   3.449  0.4566 -0.3013  0.4535
   29A       H8  912   3.218   2.493   3.471 -1.8418 -0.2635  0.4255
   29A       N7  913   3.327   2.674   3.464  0.4547  0.4902 -0.5062
   29A       C5  914   3.288   2.798   3.418  0.3010  0.2656  0.5839
   29A       C6  915   3.347   2.924   3.412  0.5565  0.2496 -0.5578
   29A       N6  916   3.465   2.957   3.462 -0.5121  0.5645  0.6035
   29A      H61  917   3.478   3.057   3.473 -0.6681  0.4172  2.4920
   29A      H62  918   3.525   2.886   3.502  0.7719  0.4758 -1.3553
   29A       N1  919   3.281   3.025   3.351 -0.0906  0.2638 -0.2330
   29A       C2  920   3.156   3.001   3.309  0.6441 -0.3061 -1.0148
   29A       H2  921   3.108   3.088   3.266  0.8380  0.8730  0.9924
   29A       N3  922   3.080   2.894   3.319  0.5066  0.5211  0.4693
   29A       C4  923   3.157   2.797   3.380  0.4662 -0.3901 -0.1458
   29A      C3'  924   3.065   2.420   3.222  0.4466 -0.8837 -0.5270
   29A      H3'  925   3.165   2.422   3.266 -0.2530  0.3640  1.0979
   29A      C2'  926   3.013   2.565   3.211 -0.6637 -0.3572 -0.6245
   29A      H2'  927   3.091   2.630   3.172  0.7753  0.0102  2.5327
   29A      O2'  928   2.898   2.588   3.139  0.3328 -0.1800 -0.0977
   29A     HO2'  929   2.925   2.632   3.059  1.8298  0.4263  0.7032
   29A      O3'  930   3.050   2.340   3.107 -0.0471  0.0756  0.0256
   30C        P  931   3.170   2.327   3.003 -0.1240  0.0457  0.4163
   30C      OP1  932   3.134   2.207   2.926  0.2273  0.2177 -0.1644
   30C      OP2  933   3.303   2.331   3.071  0.0386  1.1257 -0.0821
   30C      O5'  934   3.157   2.464   2.912  0.1408  0.3714  0.1652
   30C      C5'  935   3.046   2.510   2.840 -0.7609  0.2929 -0.3254
   30C      H5'  936   2.947   2.480   2.876 -1.0717  1.5038 -0.1574
   30C     H5''  937   3.055   2.459   2.745 -0.3216  1.8450 -1.1428
   30C      C4'  938   3.074   2.663   2.829 -0.1114 -0.0939 -0.6172
   30C      H4'  939   2.995   2.711   2.770  0.1507  2.8455  1.2417
   30C      O4'  940   3.068   2.722   2.963  0.2169 -0.1540 -0.6747
   30C      C1'  941   3.165   2.831   2.969 -0.8381  0.1545 -0.2574
   30C      H1'  942   3.125   2.927   3.001  0.9434  0.4352  1.3222
   30C       N1  943   3.294   2.795   3.037  0.1619  0.1258 -0.1791
   30C       C6  944   3.322   2.666   3.079  0.5167 -0.5329  0.0690
   30C       H6  945   3.260   2.580   3.061  1.4169 -0.7873 -2.2664
   30C       C5  946   3.433   2.646   3.147 -0.0382  0.0084  0.0281
   30C       H5  947   3.459   2.546   3.178  0.1565 -0.1115 -0.5147
   30C       C4  948   3.516   2.755   3.182  0.4286 -0.0736  0.4140
   30C       N4  949   3.620   2.742   3.255 -0.2649  0.6200  0.5043
   30C      H41  950   3.672   2.823   3.286 -0.6345  1.0179  0.1012
   30C      H42  951   3.628   2.653   3.302 -2.0652  1.1799  1.9592
   30C       N3  952   3.487   2.880   3.145  0.4342 -0.9774  0.4788
   30C       C2  953   3.375   2.898   3.070 -1.0515 -0.0262 -0.3902
   30C       O2  954   3.339   3.013   3.038 -0.4829  0.8956  0.3174
   30C      C3'  955   3.206   2.710   2.759  0.0370  0.2453 -0.7335
   30C      H3'  956   3.288   2.649   2.796 -2.3420 -2.0622  1.1374
   30C      C2'  957   3.200   2.855   2.825 -0.0873  0.1594 -0.1539
   30C      H2'  958   3.296   2.902   2.802  1.5863 -2.0893  1.7008
   30C      O2'  959   3.099   2.937   2.762 -0.4781  0.0225  0.2457
   30C     HO2'  960   3.145   2.993   2.699  0.8249 -0.9407  0.2985
   30C      O3'  961   3.176   2.700   2.623 -0.3463  0.5726 -0.0031
   31A        P  962   3.294   2.681   2.525  0.2501  0.0035 -0.1354
   31A      OP1  963   3.238   2.660   2.393  0.6272  0.0655  0.7440
   31A      OP2  964   3.398   2.587   2.575 -0.4265  0.6635 -0.0652
   31A      O5'  965   3.357   2.823   2.536 -0.0203  0.0877 -0.4740
   31A      C5'  966   3.299   2.940   2.475 -0.2030  0.8576 -0.2285
   31A      H5'  967   3.210   2.965   2.533 -0.0813  1.3511 -0.2538
   31A     H5''  968   3.290   2.933   2.367  0.2447 -1.5916 -0.1850
   31A      C4'  969   3.394   3.054   2.501 -0.9982 -0.1214 -0.3943
   31A      H4'  970   3.358   3.151   2.467  2.5183  1.4008 -0.1745
   31A      O4'  971   3.431   3.068   2.636 -0.0742 -0.7907  0.6599
   31A      C1'  972   3.573   3.092   2.639  0.1296 -0.3241 -0.2340
   31A      H1'  973   3.597   3.181   2.697  2.3769 -1.0209 -0.0009
   31A       N9  974   3.639   2.987   2.723 -0.0520 -0.2227 -0.1136
   31A       C8  975   3.587   2.872   2.768  0.3253  0.2275  0.4668
   31A       H8  976   3.499   2.833   2.719 -0.2549  1.1978  0.7253
   31A       N7  977   3.648   2.819   2.870  0.3688 -0.7880 -0.1104
   31A       C5  978   3.750   2.915   2.895 -0.4456  0.3064 -0.5909
   31A       C6  979   3.851   2.939   2.997  0.2456  1.3455  0.3203
   31A       N6  980   3.881   2.845   3.091  0.4624 -0.8562 -0.1016
   31A      H61  981   3.937   2.879   3.168 -0.3987  4.0905 -1.3066
   31A      H62  982   3.816   2.769   3.106 -2.7980  1.8062  0.3009
   31A       N1  983   3.937   3.040   2.992  0.2539 -0.0938 -0.8067
   31A       C2  984   3.918   3.130   2.898  0.0313 -0.0452 -0.1449
   31A       H2  985   3.981   3.218   2.893  2.1746 -1.5440 -1.2621
   31A       N3  986   3.831   3.126   2.798 -0.2176  0.4065 -0.3049
   31A       C4  987   3.750   3.011   2.799  0.0683 -0.0710 -0.7087
   31A      C3'  988   3.531   3.023   2.430 -0.2590  0.3229 -1.2005
   31A      H3'  989   3.556   2.919   2.451  2.0257  1.2106  1.1534
   31A      C2'  990   3.629   3.106   2.502  0.1009 -0.0049  0.2296
   31A      H2'  991   3.732   3.071   2.510 -0.5600 -1.8361  1.5094
   31A      O2'  992   3.624   3.248   2.473 -0.1968 -0.0300  0.2707
   31A     HO2'  993   3.699   3.290   2.517 -0.0535 -0.6236  0.6172
   31A      O3'  994   3.514   3.040   2.292 -0.1691  0.0023 -0.2000
   32A        P  995   3.611   2.984   2.181  0.2821  0.0614 -0.1422
   32A      OP1  996   3.534   2.937   2.061  0.3770 -0.0564  0.1123
   32A      OP2  997   3.705   2.896   2.246 -0.8491  0.6532 -0.3133
   32A      O5'  998   3.680   3.110   2.135  0.4415 -0.8360  0.1163
   32A      C5'  999   3.608   3.219   2.079 -0.3114 -0.4207  0.1003
   32A      H5' 1000   3.521   3.232   2.144 -0.5595 -1.7702  0.0535
   32A     H5'' 1001   3.554   3.198   1.987 -0.6121  1.2917 -0.1559
   32A      C4' 1002   3.692   3.346   2.083  0.3567  0.2400 -0.3969
   32A      H4' 1003   3.643   3.420   2.021 -0.0108  0.5100  0.2065
   32A      O4' 1004   3.716   3.391   2.218  0.0738 -0.1769 -0.3300
   32A      C1' 1005   3.853   3.427   2.234  0.5349  0.5538  0.5459
   32A      H1' 1006   3.866   3.519   2.291  2.8682  0.7457 -0.1869
   32A       N9 1007   3.930   3.330   2.314 -0.2058 -0.1594 -0.6854
   32A       C8 1008   3.896   3.204   2.342  0.0318  0.8558  0.1619
   32A       H8 1009   3.818   3.142   2.300  0.1090  0.2584  0.8704
   32A       N7 1010   3.976   3.146   2.431 -0.1305 -0.2506 -0.1784
   32A       C5 1011   4.051   3.254   2.470 -0.8351 -0.1406 -0.3564
   32A       C6 1012   4.153   3.265   2.568 -0.4746 -0.5933 -0.0610
   32A       N6 1013   4.182   3.169   2.652 -0.5152 -0.4686  0.4828
   32A      H61 1014   4.251   3.191   2.722  0.6700  2.5490 -1.4586
   32A      H62 1015   4.124   3.086   2.649  2.9709 -3.0933 -1.2032
   32A       N1 1016   4.214   3.385   2.588  0.2843  0.5346  0.0545
   32A       C2 1017   4.180   3.486   2.507 -1.2095  0.3571  0.3737
   32A       H2 1018   4.223   3.582   2.528  0.6625 -0.3143 -0.2377
   32A       N3 1019   4.098   3.486   2.403 -0.3842  0.0393  0.5106
   32A       C4 1020   4.035   3.370   2.394  0.3212  0.4417 -0.1957
   32A      C3' 1021   3.825   3.328   2.018  0.1195  0.2293  0.7985
   32A      H3' 1022   3.861   3.230   2.049  0.6975 -0.3452 -1.4800
   32A      C2' 1023   3.909   3.438   2.088 -0.0343  0.2604 -0.7121
   32A      H2' 1024   4.014   3.412   2.085 -0.3391 -1.5083  1.5788
   32A      O2' 1025   3.889   3.572   2.049 -0.4025  0.4914  0.1622
   32A     HO2' 1026   3.929   3.584   1.963 -0.4238  1.8337  0.3241
   32A      O3' 1027   3.819   3.335   1.878 -0.5329 -0.5421  0.8207
   33G3       P 1028   3.860   3.222   1.778 -0.1527 -0.2423 -0.3808
   33G3     OP1 1029   3.832   3.284   1.648  0.4293  0.7689  0.0179
   33G3     OP2 1030   3.791   3.095   1.805  0.4110  0.1954  0.3498
   33G3     O5' 1031   4.020   3.207   1.787  0.0970  0.4909 -0.2035
   33G3     C5' 1032   4.075   3.143   1.895 -0.4182 -0.0171  0.1391
   33G3     H5' 1033   4.085   3.037   1.871  1.3030  0.5312 -1.7211
   33G3    H5'' 1034   3.999   3.151   1.974 -0.3241  2.1231  0.0733
   33G3     C4' 1035   4.203   3.199   1.954  0.8478  0.1328 -0.6869
   33G3     H4' 1036   4.222   3.296   1.907 -0.3525 -1.0026 -3.8317
   33G3     O4' 1037   4.173   3.219   2.094  0.3541  0.0079  0.8650
   33G3     C1' 1038   4.253   3.141   2.171  0.4590  0.8703 -0.3258
   33G3     H1' 1039   4.289   3.193   2.260 -1.0001 -0.0942  0.8668
   33G3      N9 1040   4.186   3.019   2.222 -0.0381 -0.3130  0.0956
   33G3      C8 1041   4.065   2.968   2.189  0.6551  0.7863 -0.4325
   33G3      H8 1042   3.987   3.011   2.128 -0.2903 -1.2395 -0.7187
   33G3      N7 1043   4.033   2.855   2.251 -0.2088 -0.1265  0.4631
   33G3      C5 1044   4.153   2.830   2.328  0.8074 -0.4919  0.4180
   33G3      C6 1045   4.192   2.719   2.406  0.3190  0.4040  0.2272
   33G3      O6 1046   4.130   2.615   2.413 -0.3857 -0.0938 -0.0601
   33G3      N1 1047   4.304   2.738   2.478 -0.3879  0.4314  0.5998
   33G3      H1 1048   4.331   2.660   2.537 -1.8434 -0.2645  0.3916
   33G3      C2 1049   4.374   2.852   2.480  0.5615  0.9470 -0.4494
   33G3      N2 1050   4.488   2.839   2.537 -0.8593  0.1990 -0.5116
   33G3     H21 1051   4.500   2.754   2.591 -1.8192 -1.4720 -2.7732
   33G3     H22 1052   4.557   2.912   2.531 -0.4256 -0.1163  0.4467
   33G3      N3 1053   4.354   2.956   2.395  0.0341  0.2684  0.8703
   33G3      C4 1054   4.236   2.939   2.324  0.3898  0.3585 -0.7297
   33G3     C3' 1055   4.320   3.100   1.941 -0.2020 -0.5470 -0.0851
   33G3     H3' 1056   4.279   3.006   1.904  0.0439 -0.3806 -0.7909
   33G3     C2' 1057   4.371   3.095   2.082 -0.4031  0.7376  0.4840
   33G3     H2' 1058   4.388   2.989   2.101  2.4554  0.9336 -0.5882
   33G3     O2' 1059   4.488   3.176   2.110 -0.3299  0.1912  0.3081
   33G3    HO2' 1060   4.470   3.270   2.117 -2.4254 -0.3013  2.5168
   33G3     O3' 1061   4.413   3.146   1.843 -0.1241 -0.2857  0.9191
   33G3    HO3' 1062   4.491   3.094   1.863 -1.2379 -1.6348  1.8660
   34pq0     N1 1063   3.547   3.424   3.325  0.8875  0.3588 -0.2151
   34pq0     C2 1064   3.487   3.325   3.379 -0.0210 -0.2477 -0.4136
   34pq0     N3 1065   3.524   3.241   3.470  0.0649  0.1283  0.0280
   34pq0     C4 1066   3.635   3.282   3.524 -0.2040  1.0158 -0.2649
   34pq0     C5 1067   3.695   3.401   3.506  0.3629  0.2191  1.1605
   34pq0     C6 1068   3.654   3.473   3.389 -0.2732  0.0945 -0.6532
   34pq0     O6 1069   3.707   3.581   3.354  0.6505 -0.1435  0.0859
   34pq0     C7 1070   3.804   3.412   3.603  0.4083 -0.3670  0.1543
   34pq0    C10 1071   3.884   3.529   3.606 -0.0812  0.7093  0.4648
   34pq0    N11 1072   3.956   3.615   3.584 -0.4057  0.5919  0.2764
   34pq0     C8 1073   3.799   3.306   3.684  0.5872 -0.5162  0.7948
   34pq0     N9 1074   3.698   3.220   3.630 -0.5973 -0.1415  0.2193
   34pq0     N2 1075   3.383   3.304   3.318 -0.3591 -0.4391  0.2945
   34pq0     H1 1076   3.507   3.487   3.257  0.3966  1.8831  1.4134
   34pq0     H2 1077   3.865   3.288   3.769  0.1573 -1.3159  0.9632
   34pq0     H3 1078   3.671   3.134   3.675 -2.2970  0.3594  0.2250
   34pq0     H4 1079   3.388   3.324   3.219 -0.7045 -0.5106  0.2633
   34pq0     H5 1080   3.347   3.212   3.339 -0.1279 -0.7956 -0.7751
   35K+      K+ 1081   3.798   3.817   3.455  0.1385 -0.4215 -0.1767
   36K+      K+ 1082   4.739   3.731   4.954 -0.5342  0.2726  0.1706
   37K+      K+ 1083   2.324   4.207   4.988  0.3073  0.2839 -0.0432
   38K+      K+ 1084   3.715   1.317   5.365 -0.0473 -0.4320 -0.2539
   39K+      K+ 1085   2.836   5.653   2.415 -0.1687 -0.0190 -0.1274
   40K+      K+ 1086   4.604   3.027   3.475 -0.1840 -0.1037 -0.0235
   41K+      K+ 1087   3.747   2.334   4.372 -0.1653  0.0010  0.0407
   42K+      K+ 1088   7.178   4.828   3.791  0.0347  0.0374  0.0413
   43K+      K+ 1089   3.584   4.228   3.731  0.2453  0.2226 -0.2746
   44K+      K+ 1090   5.216   2.739   1.658  0.2121  0.3398 -0.0040
   45K+      K+ 1091   3.583   4.682   2.957 -0.0280  0.3507  0.4001
   46K+      K+ 1092   0.180   4.818   7.295  0.3755  0.2487 -0.4304
   47K+      K+ 1093   3.616   2.258   1.381 -0.0136 -0.1876  0.2655
   48K+      K+ 1094   3.764   2.285   4.954  0.1196 -0.1542  0.4079
   49K+      K+ 1095   4.773   4.135   1.655  0.0448  0.0341  0.0981
   50K+      K+ 1096   3.674   3.371   4.559 -0.1756  0.2155  0.5986
   51K+      K+ 1097   2.475   1.435   4.808  0.1060  0.0321 -0.0826
   52K+      K+ 1098   4.632   3.562   2.982 -0.1375 -0.1524 -0.0903
   53K+      K+ 1099   6.877   0.501   3.616 -0.2470  0.3858  0.7488
   54K+      K+ 1100   0.973   3.294   0.254 -0.2344 -0.8057 -0.2174
   55K+      K+ 1101   2.385   4.018   4.616  0.0639  0.0726  0.4843
   56K+      K+ 1102   1.781   3.431   2.613  0.3624 -0.0566 -0.1166
   57K+      K+ 1103   1.236   1.896   4.693  0.1404  0.3825  0.2471
   58K+      K+ 1104   5.547   2.152   3.370 -0.2557  0.0261 -0.1349
   59K+      K+ 1105   6.052   7.163   1.579 -0.1318 -0.0992 -0.3402
   60K+      K+ 1106   2.770   6.686   3.166  0.1308 -0.1397  0.3506
   61K+      K+ 1107   4.534   1.853   2.136  0.0125 -0.2792  0.0419
   62K+      K+ 1108   3.825   1.357   5.864 -0.0578  0.1662  0.1791
   63K+      K+ 1109   2.610   4.129   4.124 -0.1666  0.0329  0.0394
   64K+      K+ 1110   5.832   5.474   6.172 -0.0865  0.3183  0.1539
   65K+      K+ 1111   4.255   4.368   3.663 -0.2585 -0.0527 -0.3517
   66K+      K+ 1112   4.058   1.898   2.362 -0.0882  0.1103 -0.0671
   67K+      K+ 1113   2.245   5.410   4.387 -0.1341  0.1726  0.1649
   68K+      K+ 1114   3.846   2.694   2.117 -0.2029 -0.1134 -0.2759
   69K+      K+ 1115   3.630   2.167   3.667  0.1442  0.2086  0.1401
   70K+      K+ 1116   2.355   3.130   3.223  0.2166 -0.0612 -0.5678
   71K+      K+ 1117   7.166   1.960   1.537 -0.1505  0.1939 -0.2665
   72K+      K+ 1118   4.257   5.613   3.743  0.1795  0.0356 -0.0658
   73K+      K+ 1119   2.031   4.277   0.387 -0.2659 -0.0854 -0.3295
   74K+      K+ 1120   4.336   3.240   3.738 -0.1308 -0.1354 -0.1840
   75K+      K+ 1121   2.696   0.206   1.229  0.1416 -0.0518 -0.5326
   76K+      K+ 1122   1.576   4.261   3.242 -0.1619 -0.1623  0.1165
   77K+      K+ 1123   4.769   5.273   4.032  0.6369 -0.3238  0.1826
   78K+      K+ 1124   2.681   5.955   3.057 -0.0769  0.2935  0.0306
   79K+      K+ 1125   7.202   0.639   6.085 -0.1493  0.0990 -0.5040
   80K+      K+ 1126   1.762   3.377   4.532  0.0706 -0.1545 -0.1822
   81K+      K+ 1127   1.898   5.713   1.273  0.1695 -0.3528 -0.1040
   82K+      K+ 1128   4.932   2.014   0.948  0.3509 -0.4061  0.2675
   83K+      K+ 1129   6.920   4.112   4.519  0.0671  0.0597  0.2032
   84K+      K+ 1130   4.084   3.945   4.926 -0.0420 -0.2865 -0.2189
   85K+      K+ 1131   3.151   0.148   5.570  0.0450  0.1031 -0.3992
   86K+      K+ 1132   6.548   2.752   6.440  0.3199 -0.1901 -0.1633
   87K+      K+ 1133   5.096   3.935   1.786  0.0122 -0.1363 -0.2623
   88Cl-    Cl- 1134   0.134   0.094   3.835  0.0559  0.0014 -0.1128
   89Cl-    Cl- 1135   1.867   6.288   0.522  0.2227 -0.2833  0.2125
   90Cl-    Cl- 1136   3.681   0.929   6.011 -0.2437 -0.3052 -0.0869
   91Cl-    Cl- 1137   1.074   5.073   0.055  0.2557  0.1164 -0.1492
   92Cl-    Cl- 1138   6.193   1.168   3.852  0.0220 -0.0656  0.0842
   93Cl-    Cl- 1139   3.781   6.727   0.437 -0.1585  0.2006  0.2819
   94Cl-    Cl- 1140   5.187   1.521   1.002  0.2025  0.0465 -0.1418
   95Cl-    Cl- 1141   2.295   0.446   4.502  0.2777 -0.2057  0.1884
   96Cl-    Cl- 1142   3.150   5.999   1.320  0.0425  0.1361  0.1696
   97Cl-    Cl- 1143   2.377   2.365   6.167  0.4910 -0.0433  0.1640
   98Cl-    Cl- 1144   5.273   3.234   1.591  0.6184 -0.2755  0.0281
   99Cl-    Cl- 1145   6.025   5.524   6.966 -0.1355  0.4350 -0.1634
  100Cl-    Cl- 1146   0.554   1.349   3.288  0.2715 -0.0814 -0.0721
  101Cl-    Cl- 1147   5.547   2.486   2.874  0.0572  0.0291 -0.2480
  102Cl-    Cl- 1148   6.814   4.217   3.295 -0.1999  0.2361  0.0509
  103Cl-    Cl- 1149   0.281   5.537   5.595  0.1307  0.2209  0.0464
  104Cl-    Cl- 1150   2.800   6.935   5.463 -0.4391 -0.1247 -0.2828
  105Cl-    Cl- 1151   2.742   5.958   2.449  0.1801 -0.0508 -0.5979
  106Cl-    Cl- 1152   7.102   0.423   5.161 -0.2263  0.2437 -0.5592
  107Cl-    Cl- 1153   7.009   5.595   1.813  0.0366 -0.1799 -0.0328
  108Cl-    Cl- 1154   0.236   3.712   6.384  0.0072 -0.0010 -0.5120
  109WAT      O 1155   2.283   1.597   6.405 -0.4376  0.1444  0.2377
  109WAT     H1 1156   2.199   1.574   6.404  0.0160 -1.8112  1.1150
  109WAT     H2 1157   2.294   1.631   6.485 -0.0045 -1.5663  0.9671
  109WAT    EPW 1158   2.272   1.598   6.417 -0.3066 -0.3972  0.4750
  110WAT      O 1159   2.077   0.520   3.797 -0.1806 -0.6600  0.2604
  110WAT     H1 1160   2.153   0.535   3.835 -0.3362  0.9882 -0.0117
  110WAT     H2 1161   2.090   0.445   3.754  1.3096 -0.3630  0.1391
  110WAT    EPW 1162   2.090   0.511   3.796  0.0166 -0.3726  0.2023
  111WAT      O 1163   0.380   4.025   4.048 -0.6526  0.0157  0.1421
  111WAT     H1 1164   0.416   3.977   4.112 -1.4503 -0.0863  0.5298
  111WAT     H2 1165   0.438   4.088   4.034 -0.1052 -0.4198  0.4176
  111WAT    EPW 1166   0.393   4.027   4.055 -0.6896 -0.0637  0.2401
  112WAT      O 1167   7.206   3.776   6.398  0.2964 -0.3771 -0.4041
  112WAT     H1 1168   7.135   3.809   6.436  0.9070  0.4108  0.1077
  112WAT     H2 1169   7.263   3.842   6.401  0.2374 -0.0933 -3.1768
  112WAT    EPW 1170   7.204   3.791   6.404  0.3779 -0.2188 -0.7381
  113WAT      O 1171   1.658   5.441   7.365  0.4794 -0.1124 -0.4097
  113WAT     H1 1172   1.637   5.469   7.285  0.7207 -1.2841 -0.9141
  113WAT     H2 1173   1.741   5.468   7.375  0.3764  0.2214 -0.4664
  113WAT    EPW 1174   1.667   5.449   7.355  0.4999 -0.2362 -0.4926
  114WAT      O 1175   7.137   5.188   3.524  0.6960  0.0373  0.0216
  114WAT     H1 1176   7.184   5.203   3.451 -2.1035  0.8111 -1.7776
  114WAT     H2 1177   7.138   5.265   3.564 -0.2181  0.4828 -0.7826
  114WAT    EPW 1178   7.144   5.202   3.519  0.1474  0.2174 -0.3630
  115WAT      O 1179   5.851   7.176   4.317  0.7712  0.4530  0.4479
  115WAT     H1 1180   5.868   7.179   4.402 -0.3645 -1.8734  0.8221
  115WAT     H2 1181   5.811   7.252   4.301  1.9711  1.4034  1.7007
  115WAT    EPW 1182   5.848   7.188   4.327  0.7807  0.2497  0.6882
  116WAT      O 1183   3.643   6.527   5.365  0.4973  0.0939 -0.3010
  116WAT     H1 1184   3.634   6.472   5.298  1.6112  0.9548 -1.2168
  116WAT     H2 1185   3.660   6.476   5.433  0.3625 -0.7435 -0.8889
  116WAT    EPW 1186   3.644   6.512   5.365  0.6419  0.0974 -0.5231
  117WAT      O 1187   5.706   0.294   5.760  0.2279  0.5331 -0.4066
  117WAT     H1 1188   5.778   0.280   5.806 -0.0078  1.2758  0.2109
  117WAT     H2 1189   5.714   0.240   5.692  1.3482  0.5829 -0.3327
  117WAT    EPW 1190   5.718   0.284   5.756  0.3586  0.6501 -0.3045
  118WAT      O 1191   5.479   1.695   5.121 -0.1032 -0.0007  0.4117
  118WAT     H1 1192   5.449   1.705   5.040 -0.8404  0.2907  0.7149
  118WAT     H2 1193   5.556   1.736   5.119 -1.1551  2.1069  0.4724
  118WAT    EPW 1194   5.486   1.703   5.109 -0.3675  0.3537  0.4655
  119WAT      O 1195   5.652   3.259   0.858  0.2333 -0.3353 -0.5333
  119WAT     H1 1196   5.583   3.244   0.910 -0.4472 -0.3144 -1.4208
  119WAT     H2 1197   5.685   3.333   0.890 -1.8307  1.2536 -1.8005
  119WAT    EPW 1198   5.646   3.268   0.871 -0.1721 -0.0975 -0.8516
  120WAT      O 1199   1.745   2.463   6.099  0.7529 -1.1540  0.1673
  120WAT     H1 1200   1.768   2.547   6.106 -0.3012 -0.7277 -1.1005
  120WAT     H2 1201   1.821   2.421   6.100  1.3401 -0.1301  0.1671
  120WAT    EPW 1202   1.759   2.469   6.101  0.6839 -0.9398 -0.0200
  121WAT      O 1203   6.887   4.104   6.320  0.6893  0.0792 -0.1798
  121WAT     H1 1204   6.805   4.080   6.337  1.0446 -1.4403 -0.4926
  121WAT     H2 1205   6.881   4.149   6.246  0.3728 -1.9956 -1.4900
  121WAT    EPW 1206   6.874   4.107   6.311  0.6950 -0.4518 -0.4196
  122WAT      O 1207   0.371   6.709   6.628  0.1709  0.3749 -0.5855
  122WAT     H1 1208   0.297   6.747   6.601  0.5852 -0.6535 -3.6101
  122WAT     H2 1209   0.427   6.776   6.635 -0.7588  1.0469  0.8234
  122WAT    EPW 1210   0.368   6.725   6.625  0.0947  0.3223 -0.8241
  123WAT      O 1211   4.551   6.343   0.343  0.1625  0.4785 -0.2310
  123WAT     H1 1212   4.602   6.403   0.380  0.0446  0.3501  0.1421
  123WAT     H2 1213   4.598   6.314   0.275  0.2064  1.0108 -0.4294
  123WAT    EPW 1214   4.565   6.347   0.338  0.1516  0.5382 -0.2052
  124WAT      O 1215   2.119   3.211   5.689 -0.7597  0.1586  0.5910
  124WAT     H1 1216   2.052   3.157   5.675 -0.8406  0.3729  0.0929
  124WAT     H2 1217   2.174   3.192   5.624 -0.3228 -0.0355  1.0155
  124WAT    EPW 1218   2.117   3.201   5.677 -0.7071  0.1616  0.5801
  125WAT      O 1219   6.750   1.776   2.574 -0.0947  0.4601  0.4413
  125WAT     H1 1220   6.706   1.702   2.591  0.4255 -0.8508 -3.2075
  125WAT     H2 1221   6.819   1.772   2.628 -0.1672 -1.6293  0.4520
  125WAT    EPW 1222   6.753   1.764   2.585 -0.0285 -0.0422 -0.0961
  126WAT      O 1223   4.497   4.852   4.491 -0.0380 -0.6744 -0.3016
  126WAT     H1 1224   4.541   4.901   4.434 -1.1150  0.0541 -0.5463
  126WAT     H2 1225   4.437   4.811   4.441 -1.3549  0.3941  0.3371
  126WAT    EPW 1226   4.494   4.853   4.475 -0.3916 -0.4090 -0.2434
  127WAT      O 1227   4.407   2.724   6.867  0.2392 -0.7444 -0.2509
  127WAT     H1 1228   4.471   2.729   6.925  1.4190  1.9966 -1.6140
  127WAT     H2 1229   4.448   2.702   6.793 -0.6030 -0.3540 -0.8508
  127WAT    EPW 1230   4.422   2.721   6.864  0.2891 -0.2818 -0.5409
  128WAT      O 1231   1.458   4.779   4.644  0.1984 -0.4149  0.3690
  128WAT     H1 1232   1.519   4.741   4.693  0.2420  1.2320  1.6800
  128WAT     H2 1233   1.394   4.797   4.701 -0.5376 -0.0750 -0.5370
  128WAT    EPW 1234   1.458   4.776   4.660  0.0961 -0.1214  0.4288
  129WAT      O 1235   2.667   4.662   3.869 -0.5974  0.0266 -0.0088
  129WAT     H1 1236   2.678   4.725   3.809  1.8452  1.8868  2.1780
  129WAT     H2 1237   2.749   4.640   3.891 -1.3828 -0.8983  2.2997
  129WAT    EPW 1238   2.681   4.668   3.863 -0.3526  0.1648  0.6552
  130WAT      O 1239   1.398   2.219   4.151  0.1732  0.1536 -0.3116
  130WAT     H1 1240   1.312   2.224   4.160 -0.0022 -1.5325 -0.8514
  130WAT     H2 1241   1.422   2.161   4.212  0.8017 -0.1249 -0.8078
  130WAT    EPW 1242   1.389   2.211   4.162  0.2402 -0.1366 -0.4646
  131WAT      O 1243   6.356   6.158   2.892  0.7436 -0.3457  0.0948
  131WAT     H1 1244   6.304   6.222   2.863  0.1080 -0.0079  1.8639
  131WAT     H2 1245   6.320   6.086   2.859  2.0322  0.1601 -2.7665
  131WAT    EPW 1246   6.343   6.157   2.883  0.8400 -0.2211 -0.0666
  132WAT      O 1247   3.657   1.038   2.105 -0.2176  0.0350 -0.8078
  132WAT     H1 1248   3.669   1.107   2.053  1.8914  1.2348  1.0935
  132WAT     H2 1249   3.711   0.978   2.071 -2.5593 -1.0837 -2.8801
  132WAT    EPW 1250   3.667   1.040   2.092 -0.2520  0.0470 -0.8331
  133WAT      O 1251   6.066   6.355   3.504 -0.4736 -0.4563  0.5971
  133WAT     H1 1252   6.043   6.366   3.587  0.4779  0.8052  0.7067
  133WAT     H2 1253   6.080   6.436   3.475 -0.3532 -0.9091 -0.6723
  133WAT    EPW 1254   6.065   6.368   3.512 -0.3152 -0.3368  0.4258
  134WAT      O 1255   6.145   2.737   4.421 -0.5345 -0.6175  0.1149
  134WAT     H1 1256   6.161   2.819   4.394 -0.8025 -0.7629 -0.5049
  134WAT     H2 1257   6.072   2.716   4.378 -0.8000 -0.9734  0.7318
  134WAT    EPW 1258   6.136   2.746   4.411 -0.6133 -0.6916  0.1144
  135WAT      O 1259   3.724   2.990   0.405  0.0362 -0.4021  0.4456
  135WAT     H1 1260   3.675   3.055   0.372  1.3977  0.4960  0.1091
  135WAT     H2 1261   3.683   2.918   0.378 -0.5397  0.3139 -0.6824
  135WAT    EPW 1262   3.711   2.989   0.396  0.1523 -0.1637  0.2293
  136WAT      O 1263   3.538   2.856   0.709 -0.5433  0.1568 -0.4804
  136WAT     H1 1264   3.624   2.864   0.695 -0.5973  0.3137 -0.7331
  136WAT     H2 1265   3.533   2.790   0.765 -0.1762  0.9305  0.4986
  136WAT    EPW 1266   3.550   2.848   0.715 -0.4971  0.2943 -0.3731
  137WAT      O 1267   6.705   7.090   3.788 -0.0236 -0.3944  0.1204
  137WAT     H1 1268   6.688   7.024   3.841 -0.0156 -2.2579 -2.0653
  137WAT     H2 1269   6.792   7.097   3.790  0.1765 -1.9000 -1.1656
  137WAT    EPW 1270   6.715   7.082   3.796  0.0071 -0.8921 -0.3925
  138WAT      O 1271   3.323   6.667   6.974 -0.3865  0.4133 -0.7524
  138WAT     H1 1272   3.338   6.597   7.024  2.2855  0.7249 -0.9385
  138WAT     H2 1273   3.289   6.725   7.029 -1.9947 -0.7727 -0.4384
  138WAT    EPW 1274   3.320   6.665   6.989 -0.2294  0.2841 -0.7335
  139WAT      O 1275   6.484   0.612   6.927 -0.6619  0.6425  0.0763
  139WAT     H1 1276   6.422   0.570   6.972 -1.3051  0.6462 -0.7749
  139WAT     H2 1277   6.451   0.692   6.917  0.5087  1.3533  1.5998
  139WAT    EPW 1278   6.470   0.618   6.932 -0.5840  0.7480  0.1756
  140WAT      O 1279   6.841   2.682   5.006 -0.4402 -0.4832 -0.0082
  140WAT     H1 1280   6.795   2.621   4.964 -1.8047 -0.0678  0.8389
  140WAT     H2 1281   6.837   2.751   4.952 -0.9680 -0.3947  0.1405
  140WAT    EPW 1282   6.834   2.683   4.992 -0.7197 -0.4088  0.1389
  141WAT      O 1283   4.532   6.557   4.620 -0.1670 -0.2373  0.7056
  141WAT     H1 1284   4.570   6.617   4.569 -0.6155 -1.4688 -1.1427
  141WAT     H2 1285   4.578   6.562   4.694  2.3712 -0.3274 -0.7572
  141WAT    EPW 1286   4.544   6.567   4.624  0.1417 -0.4325  0.2165
  142WAT      O 1287   5.688   5.747   7.139  0.2454  1.1646 -0.7060
  142WAT     H1 1288   5.740   5.809   7.171  0.5861  0.0127  1.0892
  142WAT     H2 1289   5.719   5.674   7.174 -1.1889  0.1678 -1.4216
  142WAT    EPW 1290   5.700   5.746   7.149  0.0839  0.8472 -0.5465
  143WAT      O 1291   6.429   2.623   1.858 -0.4807  0.1833  0.2720
  143WAT     H1 1292   6.380   2.609   1.929  0.8459  0.6637  1.3080
  143WAT     H2 1293   6.435   2.709   1.853 -0.4340  0.1504 -0.3571
  143WAT    EPW 1294   6.422   2.633   1.868 -0.2778  0.2494  0.3321
  144WAT      O 1295   3.107   5.224   1.223  1.0013 -0.0369  0.3917
  144WAT     H1 1296   3.142   5.156   1.180  0.7874 -0.2315  0.5257
  144WAT     H2 1297   3.049   5.187   1.276  0.0115  0.3644 -0.4019
  144WAT    EPW 1298   3.104   5.208   1.225  0.8235 -0.0063  0.2943
  145WAT      O 1299   2.284   2.557   3.445  0.2176 -0.3762  0.0138
  145WAT     H1 1300   2.223   2.585   3.500 -0.6000  1.9670 -1.9064
  145WAT     H2 1301   2.247   2.489   3.405 -1.0212  0.7092 -0.7755
  145WAT    EPW 1302   2.270   2.551   3.447 -0.0862  0.1303 -0.3865
  146WAT      O 1303   5.503   0.879   1.131  0.0749 -0.2155 -0.5706
  146WAT     H1 1304   5.576   0.908   1.169 -0.5222 -1.3240  1.5329
  146WAT     H2 1305   5.513   0.905   1.048  2.3701  0.5569 -0.1487
  146WAT    EPW 1306   5.515   0.887   1.124  0.3258 -0.2651 -0.1975
  147WAT      O 1307   6.439   4.143   5.221 -0.3379  0.3465 -0.2178
  147WAT     H1 1308   6.465   4.141   5.304 -0.9154 -0.7898 -0.0445
  147WAT     H2 1309   6.495   4.198   5.183  0.7760 -0.1514  0.6499
  147WAT    EPW 1310   6.451   4.151   5.228 -0.2587  0.1051 -0.0640
  148WAT      O 1311   3.283   4.181   7.412  0.0653 -0.3696  0.1873
  148WAT     H1 1312   3.326   4.106   7.405  0.6620  0.0240 -0.4501
  148WAT     H2 1313   3.292   4.217   7.333 -2.4024 -0.7754 -0.3537
  148WAT    EPW 1314   3.291   4.175   7.399 -0.2111 -0.3714  0.0132
  149WAT      O 1315   0.897   7.043   1.579  0.3368  0.0760 -0.0700
  149WAT     H1 1316   0.878   6.961   1.600  0.3903  0.1291  0.1945
  149WAT     H2 1317   0.890   7.045   1.492 -0.5079  0.0017 -0.0108
  149WAT    EPW 1318   0.893   7.031   1.569  0.2199  0.0729 -0.0222
  150WAT      O 1319   0.218   0.855   5.368 -0.3657  0.0086 -0.1861
  150WAT     H1 1320   0.271   0.793   5.401 -0.2221  0.4179  0.3587
  150WAT     H2 1321   0.152   0.809   5.334  0.3183 -0.5116 -0.8593
  150WAT    EPW 1322   0.216   0.839   5.368 -0.2434 -0.0078 -0.2051
  151WAT      O 1323   2.963   0.208   0.193  0.0968  0.6662  0.0530
  151WAT     H1 1324   2.949   0.123   0.177  0.9656  0.1374  1.7931
  151WAT     H2 1325   2.888   0.246   0.172 -0.7560 -0.7289  0.4722
  151WAT    EPW 1326   2.950   0.201   0.187  0.0991  0.3820  0.3720
  152WAT      O 1327   0.617   6.813   1.869  0.0620  0.3671 -0.2821
  152WAT     H1 1328   0.702   6.826   1.857 -0.1657  3.1005  0.4518
  152WAT     H2 1329   0.582   6.892   1.853 -2.2135 -0.4368  0.4104
  152WAT    EPW 1330   0.624   6.827   1.865 -0.3078  0.6521 -0.0714
  153WAT      O 1331   0.047   5.028   3.165  0.5246  0.0103 -0.0551
  153WAT     H1 1332   0.066   5.017   3.249  2.2077  0.1434 -0.3947
  153WAT     H2 1333   0.120   5.007   3.124 -0.3842 -0.4248 -1.5339
  153WAT    EPW 1334   0.060   5.023   3.171  0.6390 -0.0343 -0.3237
  154WAT      O 1335   5.093   3.900   2.986 -0.0026 -0.0312 -0.2382
  154WAT     H1 1336   5.087   3.921   3.070  0.4726 -0.3878 -0.1085
  154WAT     H2 1337   5.058   3.969   2.945 -0.2341  0.1459  0.2462
  154WAT    EPW 1338   5.087   3.913   2.992  0.0334 -0.0577 -0.1475
  155WAT      O 1339   6.305   2.760   6.345 -0.1969 -0.1233  0.1476
  155WAT     H1 1340   6.247   2.730   6.403  0.5959  1.0679  1.6260
  155WAT     H2 1341   6.256   2.806   6.289 -0.8531 -0.3062  0.5571
  155WAT    EPW 1342   6.289   2.763   6.345 -0.1767  0.0257  0.4265
  156WAT      O 1343   3.191   6.138   2.191  0.6366 -0.3946  0.0057
  156WAT     H1 1344   3.133   6.152   2.254 -0.3730 -1.6980 -0.5921
  156WAT     H2 1345   3.163   6.189   2.126  1.3017  0.4491  0.3600
  156WAT    EPW 1346   3.179   6.148   2.191  0.5857 -0.4625 -0.0303
  157WAT      O 1347   2.427   6.256   2.543  0.1006 -0.0168 -0.1166
  157WAT     H1 1348   2.396   6.250   2.462  0.5907 -1.3569 -0.2312
  157WAT     H2 1349   2.513   6.266   2.532  0.1539 -0.0731  0.2224
  157WAT    EPW 1350   2.435   6.256   2.529  0.1809 -0.2230 -0.0835
  158WAT      O 1351   0.332   4.210   4.805 -0.0873 -0.0367  0.3711
  158WAT     H1 1352   0.253   4.227   4.774 -0.1906 -0.2690  0.5050
  158WAT     H2 1353   0.330   4.244   4.885  0.8278  2.3480 -0.5062
  158WAT    EPW 1354   0.320   4.218   4.812  0.0326  0.2813  0.2613
  159WAT      O 1355   5.015   7.253   7.103 -0.4513 -0.2703  0.7103
  159WAT     H1 1356   4.956   7.251   7.040 -0.7122  0.2917  0.9332
  159WAT     H2 1357   4.968   7.244   7.176 -0.3521  0.8695  0.9336
  159WAT    EPW 1358   5.000   7.251   7.104 -0.4752 -0.0189  0.7762
  160WAT      O 1359   4.069   4.520   3.555 -0.7396 -0.0865  0.8169
  160WAT     H1 1360   4.004   4.503   3.500  0.7152  0.4173 -1.2044
  160WAT     H2 1361   4.038   4.583   3.606 -1.5433  0.8358 -0.7435
  160WAT    EPW 1362   4.055   4.527   3.555 -0.6434  0.1241  0.2878
  161WAT      O 1363   4.619   4.525   4.806 -0.2187 -0.2114  0.1604
  161WAT     H1 1364   4.665   4.582   4.758 -2.7102  1.4792 -0.4526
  161WAT     H2 1365   4.544   4.518   4.762 -1.6247 -0.6193  2.4838
  161WAT    EPW 1366   4.615   4.532   4.792 -0.7944 -0.0219  0.4131
  162WAT      O 1367   0.709   4.160   2.189  0.6252  0.1499  0.5138
  162WAT     H1 1368   0.716   4.177   2.104 -1.5924  2.2082  0.6315
  162WAT     H2 1369   0.759   4.222   2.226  1.2474 -0.4812  0.7656
  162WAT    EPW 1370   0.718   4.172   2.182  0.3895  0.3607  0.5684
  163WAT      O 1371   6.511   6.332   4.785 -0.2485  0.3408  0.4436
  163WAT     H1 1372   6.568   6.283   4.740 -0.7353  0.4304 -0.2775
  163WAT     H2 1373   6.563   6.388   4.828  0.2380  0.1203  0.1605
  163WAT    EPW 1374   6.527   6.333   4.785 -0.2485  0.3215  0.2952
  164WAT      O 1375   5.799   3.626   3.076 -0.0842 -0.1690 -0.2344
  164WAT     H1 1376   5.737   3.566   3.082 -0.5340  0.3956  1.0199
  164WAT     H2 1377   5.832   3.630   3.156  0.7952  0.3575 -0.6085
  164WAT    EPW 1378   5.795   3.618   3.089 -0.0207 -0.0078 -0.1044
  165WAT      O 1379   2.859   0.028   3.940  0.4280 -0.0442  0.3530
  165WAT     H1 1380   2.939   0.044   3.973  0.2582  0.3904  0.5521
  165WAT     H2 1381   2.872   0.028   3.854  0.9018 -1.3019  0.4028
  165WAT    EPW 1382   2.873   0.030   3.933  0.4729 -0.1658  0.3898
  166WAT      O 1383   4.479   2.396   5.817 -0.1425  0.0552 -0.4710
  166WAT     H1 1384   4.414   2.425   5.867 -0.6778 -1.7389 -0.0487
  166WAT     H2 1385   4.471   2.310   5.822  2.0755 -0.2179 -0.6838
  166WAT    EPW 1386   4.468   2.388   5.826  0.1061 -0.2501 -0.4401
  167WAT      O 1387   5.044   3.366   6.737  0.3345  0.1663 -0.7107
  167WAT     H1 1388   5.084   3.291   6.721 -0.6762 -0.4836 -0.2546
  167WAT     H2 1389   5.049   3.374   6.824 -0.0654  0.3336 -0.6996
  167WAT    EPW 1390   5.051   3.356   6.748  0.1262  0.0950 -0.6417
  168WAT      O 1391   5.689   5.109   5.788 -0.3072 -0.0228 -0.3437
  168WAT     H1 1392   5.721   5.142   5.714  1.0640  0.1748  0.2987
  168WAT     H2 1393   5.730   5.032   5.795  0.4999  0.4797  0.7829
  168WAT    EPW 1394   5.700   5.102   5.778  0.0146  0.0806 -0.0824
  169WAT      O 1395   0.182   0.220   1.851 -0.2628  0.1288  0.2610
  169WAT     H1 1396   0.172   0.269   1.923 -3.1598 -1.9219  1.4601
  169WAT     H2 1397   0.244   0.162   1.874  0.0718  0.5577  0.4499
  169WAT    EPW 1398   0.190   0.218   1.865 -0.6413 -0.1108  0.4661
  170WAT      O 1399   6.528   4.722   2.905 -0.2088 -0.0621 -0.0785
  170WAT     H1 1400   6.509   4.789   2.853 -0.8488  0.0150  0.2443
  170WAT     H2 1401   6.525   4.653   2.851 -1.1693 -0.0192 -0.0851
  170WAT    EPW 1402   6.525   4.722   2.889 -0.4452 -0.0444 -0.0318
  171WAT      O 1403   6.743   4.163   2.082 -0.0763 -0.8782  0.0750
  171WAT     H1 1404   6.709   4.170   2.002 -1.1573  0.3234  0.6117
  171WAT     H2 1405   6.816   4.118   2.069 -0.6690 -1.4676 -1.4646
  171WAT    EPW 1406   6.749   4.157   2.068 -0.3235 -0.7878 -0.0731
  172WAT      O 1407   0.839   3.448   2.973 -0.2668 -0.6886  0.3011
  172WAT     H1 1408   0.849   3.470   3.057  0.5444  0.6451 -0.1189
  172WAT     H2 1409   0.812   3.522   2.935 -1.6591 -1.5327 -0.4662
  172WAT    EPW 1410   0.836   3.462   2.980 -0.3526 -0.6163  0.1257
  173WAT      O 1411   6.195   5.684   6.727  0.0191  0.4464  0.1472
  173WAT     H1 1412   6.135   5.703   6.667  0.3492 -0.6826 -0.5683
  173WAT     H2 1413   6.151   5.638   6.787 -0.2950  1.5127  0.7600
  173WAT    EPW 1414   6.179   5.680   6.727  0.0215  0.4371  0.1321
  174WAT      O 1415   3.515   0.408   0.682  0.5639 -0.3170  1.1640
  174WAT     H1 1416   3.599   0.425   0.696  0.3383  2.5046 -0.2155
  174WAT     H2 1417   3.516   0.349   0.618  1.4726 -0.5160  1.3533
  174WAT    EPW 1418   3.528   0.402   0.675  0.6648  0.0704  0.9882
  175WAT      O 1419   0.961   4.794   1.783  0.0474  0.0448  0.5124
  175WAT     H1 1420   0.890   4.845   1.783 -0.3137 -0.3710  2.8381
  175WAT     H2 1421   0.948   4.741   1.715 -0.9964  1.1149 -0.1618
  175WAT    EPW 1422   0.948   4.794   1.773 -0.1601  0.1414  0.7564
  176WAT      O 1423   5.886   6.430   6.277 -0.3251 -0.0545 -0.6071
  176WAT     H1 1424   5.853   6.425   6.357 -2.7606  1.3279 -1.4120
  176WAT     H2 1425   5.874   6.349   6.245 -0.2116 -0.3565  0.1122
  176WAT    EPW 1426   5.879   6.417   6.284 -0.6681  0.1051 -0.6197
  177WAT      O 1427   2.561   2.151   5.454 -0.1696  0.7030 -0.8427
  177WAT     H1 1428   2.571   2.237   5.448  1.0331  0.6546  0.1442
  177WAT     H2 1429   2.560   2.136   5.540 -0.2945 -0.2736 -1.0023
  177WAT    EPW 1430   2.562   2.161   5.466 -0.0104  0.5516 -0.7205
  178WAT      O 1431   0.087   5.906   0.229 -0.2257  0.0586  0.0048
  178WAT     H1 1432   0.126   5.865   0.163  0.1048  1.1374 -0.4927
  178WAT     H2 1433   0.038   5.844   0.266  0.3955 -0.8142 -0.6052
  178WAT    EPW 1434   0.085   5.891   0.225 -0.0851  0.0890 -0.1588
  179WAT      O 1435   5.815   4.984   4.914  0.1444 -0.1053 -0.5774
  179WAT     H1 1436   5.850   4.904   4.908  0.9595  0.0653  1.2130
  179WAT     H2 1437   5.883   5.037   4.900  0.6119  0.2290  2.4314
  179WAT    EPW 1438   5.831   4.980   4.911  0.3338 -0.0307  0.1315
  180WAT      O 1439   5.200   5.337   5.832  0.7131 -0.5897 -0.0936
  180WAT     H1 1440   5.159   5.292   5.769  0.7029  1.0403 -1.3240
  180WAT     H2 1441   5.273   5.291   5.846 -0.4368 -2.3226  0.5335
  180WAT    EPW 1442   5.205   5.323   5.825  0.5418 -0.6049 -0.1827
  181WAT      O 1443   2.256   5.140   1.039  0.1398 -0.2942  0.3947
  181WAT     H1 1444   2.199   5.179   1.093  1.2563 -1.5438  2.6356
  181WAT     H2 1445   2.295   5.206   0.999  0.7110  0.8972  2.7319
  181WAT    EPW 1446   2.253   5.155   1.041  0.3891 -0.3028  1.0709
  182WAT      O 1447   1.064   5.611   0.309  0.4820 -0.3450  0.3433
  182WAT     H1 1448   1.095   5.599   0.389  0.4016  0.5239  0.5162
  182WAT     H2 1449   0.997   5.556   0.304  1.4842 -1.6020  0.2781
  182WAT    EPW 1450   1.059   5.601   0.320  0.6182 -0.4024  0.3592
  183WAT      O 1451   5.943   6.506   2.559  0.2850 -1.0952  0.5105
  183WAT     H1 1452   5.873   6.466   2.525  1.4159 -0.7551 -2.5900
  183WAT     H2 1453   6.010   6.472   2.513  1.5101  2.7272 -0.9499
  183WAT    EPW 1454   5.943   6.495   2.547  0.6330 -0.4803 -0.1632
  184WAT      O 1455   1.761   1.823   2.355 -0.1317 -0.1346  0.3507
  184WAT     H1 1456   1.800   1.766   2.407  0.9116 -1.1074 -1.4321
  184WAT     H2 1457   1.735   1.775   2.287 -2.2933  0.9241  0.3466
  184WAT    EPW 1458   1.763   1.808   2.352 -0.2969 -0.1219  0.0867
  185WAT      O 1459   4.855   4.580   2.343  0.0987 -0.0466  0.2207
  185WAT     H1 1460   4.849   4.667   2.346  2.3495  0.2204 -1.1508
  185WAT     H2 1461   4.822   4.561   2.265  1.5313 -0.1813 -0.3712
  185WAT    EPW 1462   4.849   4.590   2.332  0.6428 -0.0271 -0.0693
  186WAT      O 1463   6.664   2.427   1.502  0.2836  0.3364  0.4390
  186WAT     H1 1464   6.670   2.449   1.417  1.5514 -1.8785 -0.1376
  186WAT     H2 1465   6.674   2.340   1.501 -0.7104  0.1245  2.8034
  186WAT    EPW 1466   6.666   2.417   1.489  0.3240 -0.0221  0.7031
  187WAT      O 1467   4.053   1.742   1.074 -0.1816  0.1250  0.0430
  187WAT     H1 1468   4.006   1.714   1.007  0.6367 -0.5050 -0.2906
  187WAT     H2 1469   4.115   1.792   1.037 -0.3028  0.5736  0.4269
  187WAT    EPW 1470   4.055   1.746   1.059 -0.0786  0.0982  0.0504
  188WAT      O 1471   5.309   0.024   6.341 -0.4265  0.5596  0.5013
  188WAT     H1 1472   5.332  -0.020   6.413  0.9682  2.1700  1.1011
  188WAT     H2 1473   5.252   0.083   6.371 -2.4119 -0.8180 -0.3243
  188WAT    EPW 1474   5.304   0.026   6.356 -0.5138  0.5940  0.4680
  189WAT      O 1475   5.236   6.001   0.410 -0.1331  0.4498  0.6472
  189WAT     H1 1476   5.273   5.953   0.348 -0.4896  2.6328 -1.3856
  189WAT     H2 1477   5.263   5.964   0.484  2.2233 -0.8591 -0.7658
  189WAT    EPW 1478   5.245   5.989   0.412  0.1623  0.5789  0.1382
  190WAT      O 1479   6.828   5.376   1.991 -0.2456 -0.1929 -0.4478
  190WAT     H1 1480   6.784   5.435   2.038  2.2233  0.2120  1.6006
  190WAT     H2 1481   6.876   5.425   1.936  1.3838 -0.2111  0.8693
  190WAT    EPW 1482   6.829   5.392   1.990  0.3598 -0.1358  0.0494
  191WAT      O 1483   4.940   0.359   4.399 -0.2027 -0.1658  0.5206
  191WAT     H1 1484   4.866   0.325   4.370  0.1712 -2.1899  1.7610
  191WAT     H2 1485   4.932   0.355   4.486 -0.3879  3.6623  0.8511
  191WAT    EPW 1486   4.928   0.354   4.407 -0.1748  0.1007  0.7526
  192WAT      O 1487   0.913   4.225   6.385 -0.6612 -0.0010  0.2194
  192WAT     H1 1488   0.858   4.288   6.406  0.1574  0.2765  1.6345
  192WAT     H2 1489   0.965   4.218   6.454  0.9853 -0.3561 -0.9829
  192WAT    EPW 1490   0.913   4.233   6.398 -0.2970 -0.0125  0.2508
  193WAT      O 1491   3.913   0.379   7.245  0.3329 -0.1310 -0.4723
  193WAT     H1 1492   3.933   0.450   7.199 -0.8257  0.0456 -0.7431
  193WAT     H2 1493   3.929   0.313   7.191  0.0857  0.0086 -0.7159
  193WAT    EPW 1494   3.918   0.380   7.230  0.1252 -0.0843 -0.5483
  194WAT      O 1495   0.376   3.928   2.670 -0.0186 -0.8210 -0.0772
  194WAT     H1 1496   0.381   3.909   2.755  1.4626 -1.9489 -0.3619
  194WAT     H2 1497   0.456   3.908   2.641 -0.1442  0.6421 -1.5234
  194WAT    EPW 1498   0.389   3.922   2.678  0.1817 -0.7715 -0.3329
  195WAT      O 1499   4.003   2.144   2.439  0.1140  0.6551  0.5691
  195WAT     H1 1500   4.071   2.197   2.432 -0.0123  0.7593  0.0581
  195WAT     H2 1501   3.965   2.168   2.514  1.0500  0.0939  1.2552
  195WAT    EPW 1502   4.007   2.155   2.449  0.2336  0.5876  0.5950
  196WAT      O 1503   1.801   4.765   2.825 -0.2191  0.2053  0.3892
  196WAT     H1 1504   1.730   4.813   2.813 -0.7987 -0.1231  2.1645
  196WAT     H2 1505   1.769   4.687   2.847  0.6576  0.2404  1.9019
  196WAT    EPW 1506   1.786   4.760   2.827 -0.1752  0.1620  0.8749
  197WAT      O 1507   1.279   2.397   0.092 -0.4345  0.1730 -0.3405
  197WAT     H1 1508   1.259   2.336   0.033 -2.4702 -0.2193  0.6777
  197WAT     H2 1509   1.269   2.356   0.168 -1.5997  1.6918  0.3662
  197WAT    EPW 1510   1.275   2.382   0.094 -0.9073  0.3394 -0.0857
  198WAT      O 1511   0.934   1.396   6.897 -0.0929  0.6896 -0.1452
  198WAT     H1 1512   0.943   1.384   6.983  2.9715 -0.6942 -0.5216
  198WAT     H2 1513   0.973   1.326   6.862  1.0316  2.4225 -2.6366
  198WAT    EPW 1514   0.941   1.384   6.905  0.5259  0.7411 -0.5688
  199WAT      O 1515   5.875   3.330   1.185  0.2442 -0.7943  0.3083
  199WAT     H1 1516   5.898   3.377   1.115 -0.4121 -0.7459  0.1216
  199WAT     H2 1517   5.949   3.325   1.231  0.3214  0.4750  0.3636
  199WAT    EPW 1518   5.889   3.336   1.181  0.1586 -0.5997  0.2889
  200WAT      O 1519   6.104   5.208   1.107 -0.2215 -0.6583  0.3238
  200WAT     H1 1520   6.097   5.124   1.129  1.9253 -0.4292  2.2200
  200WAT     H2 1521   6.186   5.214   1.077  0.0793  0.9483  1.3594
  200WAT    EPW 1522   6.115   5.196   1.106  0.1401 -0.3871  0.7569
  201WAT      O 1523   4.231   4.963   5.660 -0.3918 -0.2154  0.4309
  201WAT     H1 1524   4.151   4.940   5.684 -0.4659 -0.6218 -0.2146
  201WAT     H2 1525   4.279   4.893   5.677 -0.5371 -0.7137 -1.0899
  201WAT    EPW 1526   4.227   4.949   5.666 -0.4242 -0.3490  0.1109
  202WAT      O 1527   1.728   0.095   3.527  0.2614  0.1611 -0.1753
  202WAT     H1 1528   1.686   0.110   3.603  2.0060  0.2288  0.8350
  202WAT     H2 1529   1.755   0.174   3.503  0.2356  0.0528 -0.5671
  202WAT    EPW 1530   1.726   0.109   3.535  0.5153  0.1551 -0.0839
  203WAT      O 1531   4.634   2.929   5.375  0.3699  0.4187 -0.2430
  203WAT     H1 1532   4.608   3.012   5.387 -2.1475 -0.1371 -1.2342
  203WAT     H2 1533   4.581   2.883   5.427  4.4639 -0.4971  3.7225
  203WAT    EPW 1534   4.622   2.935   5.384  0.6028  0.2013  0.1964
  204WAT      O 1535   0.333   0.505   2.548 -0.3386 -0.0258 -0.4126
  204WAT     H1 1536   0.381   0.543   2.611 -0.6373  0.4933 -0.4998
  204WAT     H2 1537   0.379   0.520   2.475  0.6850 -1.7348 -0.1862
  204WAT    EPW 1538   0.347   0.513   2.547 -0.2315 -0.2016 -0.3920
  205WAT      O 1539   2.527   0.024   6.009 -0.0264  0.4477  0.1705
  205WAT     H1 1540   2.614   0.028   6.000 -0.1419  1.3515 -0.7206
  205WAT     H2 1541   2.498   0.024   5.927 -0.9197  1.7782  0.4559
  205WAT    EPW 1542   2.536   0.025   5.996 -0.1754  0.7777  0.0810
  206WAT      O 1543   6.244   5.839   3.104 -0.8060 -0.2594  0.1981
  206WAT     H1 1544   6.254   5.920   3.136  0.5233 -0.2800 -0.0876
  206WAT     H2 1545   6.237   5.852   3.018  0.1939 -0.4714  0.0675
  206WAT    EPW 1546   6.245   5.853   3.096 -0.4619 -0.2937  0.1366
  207WAT      O 1547   6.134   0.007   2.087  0.3444  0.0877  0.2094
  207WAT     H1 1548   6.065  -0.040   2.113  0.6019 -0.6034 -0.3119
  207WAT     H2 1549   6.168   0.037   2.161 -0.4677  0.3771  0.4765
  207WAT    EPW 1550   6.129   0.004   2.102  0.2625  0.0283  0.1718
  208WAT      O 1551   1.986   4.233   1.217 -0.0740  0.1509  0.0730
  208WAT     H1 1552   1.900   4.222   1.214 -0.3454  1.4602  1.4482
  208WAT     H2 1553   2.017   4.153   1.234 -0.7640 -0.8162 -2.7638
  208WAT    EPW 1554   1.978   4.220   1.219 -0.2160  0.2015 -0.1429
  209WAT      O 1555   6.528   1.430   2.941  0.1412  0.7598 -0.2366
  209WAT     H1 1556   6.446   1.403   2.932  0.2361  0.3495  0.0639
  209WAT     H2 1557   6.539   1.488   2.877 -0.2686  0.5444 -0.5005
  209WAT    EPW 1558   6.518   1.434   2.930  0.0947  0.6674 -0.2312
  210WAT      O 1559   4.002   5.508   0.982  0.1355  0.1924 -0.4530
  210WAT     H1 1560   4.013   5.506   1.068 -0.4904 -1.1828 -0.3693
  210WAT     H2 1561   4.081   5.527   0.951  0.3896  0.5892  0.4153
  210WAT    EPW 1562   4.015   5.510   0.990  0.0806  0.0479 -0.3123
  211WAT      O 1563   5.863   5.553   5.533 -0.1131 -0.0450 -0.6237
  211WAT     H1 1564   5.859   5.491   5.472 -0.3535 -0.7193  0.0630
  211WAT     H2 1565   5.948   5.561   5.550 -0.0636 -0.0016 -0.8957
  211WAT    EPW 1566   5.875   5.545   5.527 -0.1413 -0.1382 -0.5624
  212WAT      O 1567   5.784   6.205   6.177 -0.6726 -0.3104  0.2687
  212WAT     H1 1568   5.735   6.196   6.106 -2.9904 -0.0795  1.7431
  212WAT     H2 1569   5.800   6.123   6.202  0.7809 -0.4116 -0.8483
  212WAT    EPW 1570   5.779   6.192   6.170 -0.8003 -0.2913  0.3215
  213WAT      O 1571   1.119   3.518   5.904  0.7265 -0.2854 -0.2186
  213WAT     H1 1572   1.161   3.527   5.980  0.4248  0.1654 -0.0986
  213WAT     H2 1573   1.182   3.533   5.845  1.6259 -3.3136 -0.1667
  213WAT    EPW 1574   1.135   3.522   5.907  0.8148 -0.6662 -0.1932
  214WAT      O 1575   3.949   4.185   1.644 -0.0676 -0.2330 -0.1144
  214WAT     H1 1576   3.865   4.209   1.648 -0.5217 -1.8299  1.4880
  214WAT     H2 1577   3.945   4.100   1.624  1.3320  0.2464 -2.8647
  214WAT    EPW 1578   3.936   4.176   1.642  0.0720 -0.3981 -0.2839
  215WAT      O 1579   1.971   3.789   1.879 -0.4336  0.1864 -0.2225
  215WAT     H1 1580   2.055   3.797   1.902 -0.3552  2.9693 -1.0144
  215WAT     H2 1581   1.933   3.858   1.916 -2.2361 -0.5897 -0.5161
  215WAT    EPW 1582   1.978   3.801   1.888 -0.6882  0.4828 -0.3828
  216WAT      O 1583   7.190   5.590   3.108 -0.0676  0.2795  0.5693
  216WAT     H1 1584   7.188   5.671   3.075  0.6985  0.2821  0.5167
  216WAT     H2 1585   7.272   5.582   3.136  0.9449 -1.7325 -2.5368
  216WAT    EPW 1586   7.202   5.601   3.107  0.1951 -0.0174  0.1027
  217WAT      O 1587   0.546   7.232   6.550 -0.0189  0.7604  0.2813
  217WAT     H1 1588   0.563   7.266   6.472 -1.9156 -0.7424 -0.8750
  217WAT     H2 1589   0.600   7.275   6.604  2.0791  1.1408 -1.9686
  217WAT    EPW 1590   0.557   7.243   6.546  0.0108  0.5946 -0.2219
  218WAT      O 1591   3.410   0.218   1.949  0.7789 -0.5433  0.3078
  218WAT     H1 1592   3.337   0.170   1.948 -1.5233  2.6379 -1.8698
  218WAT     H2 1593   3.452   0.193   1.877  0.0703  0.0217 -0.3078
  218WAT    EPW 1594   3.405   0.207   1.938  0.3341  0.0101 -0.1048
  219WAT      O 1595   4.171   6.158   3.395 -0.1053  0.1192 -0.7280
  219WAT     H1 1596   4.105   6.166   3.338  1.3112  0.9921 -2.3637
  219WAT     H2 1597   4.235   6.123   3.347  1.5197  1.9100 -0.0412
  219WAT    EPW 1598   4.171   6.154   3.379  0.3440  0.5127 -0.8682
  220WAT      O 1599   1.307   4.428   6.742 -0.1755  0.0561 -0.3404
  220WAT     H1 1600   1.339   4.438   6.823  0.9868  1.2087 -0.9134
  220WAT     H2 1601   1.320   4.344   6.726  0.6962  0.0652  0.2320
  220WAT    EPW 1602   1.314   4.417   6.752  0.1249  0.2277 -0.3405
  221WAT      O 1603   1.984   2.621   0.795  0.2654  0.6119 -0.2871
  221WAT     H1 1604   2.056   2.650   0.754  0.0473  0.4540 -0.7841
  221WAT     H2 1605   1.981   2.537   0.774  0.8759  0.2045  1.1315
  221WAT    EPW 1606   1.994   2.613   0.785  0.3233  0.5284 -0.1510
  222WAT      O 1607   1.765   2.277   3.257  0.3270 -0.5229  0.4377
  222WAT     H1 1608   1.813   2.337   3.299 -0.2695 -0.4953  1.1011
  222WAT     H2 1609   1.749   2.217   3.318  0.1654 -0.9181  0.0156
  222WAT    EPW 1610   1.769   2.277   3.272  0.2150 -0.5772  0.4734
  223WAT      O 1611   4.745   3.608   6.079 -0.0490 -0.3650  0.9792
  223WAT     H1 1612   4.681   3.578   6.028  0.3480 -0.5981  0.6051
  223WAT     H2 1613   4.709   3.675   6.121 -1.0427 -1.5162  2.0251
  223WAT    EPW 1614   4.730   3.613   6.078 -0.1371 -0.5695  1.0784
  224WAT      O 1615   6.435   2.910   4.178 -0.1787  0.2202  0.4982
  224WAT     H1 1616   6.504   2.871   4.216 -1.8623 -1.7787  1.7360
  224WAT     H2 1617   6.416   2.858   4.111 -1.4715 -0.2411  1.1869
  224WAT    EPW 1618   6.443   2.896   4.174 -0.6184 -0.1433  0.7828
  225WAT      O 1619   4.896   2.454   2.162 -0.2948  0.0543  0.4358
  225WAT     H1 1620   4.849   2.412   2.222  1.1453 -0.1088  1.4885
  225WAT     H2 1621   4.837   2.503   2.120 -1.7512 -1.7174  0.2778
  225WAT    EPW 1622   4.881   2.455   2.165 -0.2972 -0.2315  0.5680
  226WAT      O 1623   2.346   1.209   1.316 -0.1017 -0.2830 -0.0631
  226WAT     H1 1624   2.372   1.218   1.399 -0.1516  1.3072 -0.2000
  226WAT     H2 1625   2.269   1.167   1.324  0.7940 -1.9061  0.5349
  226WAT    EPW 1626   2.338   1.204   1.330  0.0232 -0.2878  0.0050
  227WAT      O 1627   2.169   2.573   4.421 -0.2555  0.0242 -0.2053
  227WAT     H1 1628   2.249   2.592   4.451  0.1508 -1.6303 -0.1448
  227WAT     H2 1629   2.139   2.650   4.394 -0.3242  1.5700  3.6009
  227WAT    EPW 1630   2.176   2.587   4.422 -0.2056  0.0081  0.3659
  228WAT      O 1631   5.664   5.485   3.001  0.2425  0.6416  0.3509
  228WAT     H1 1632   5.655   5.461   3.084  0.7571  0.9844  0.5069
  228WAT     H2 1633   5.581   5.494   2.973  0.0657  0.1271  0.7032
  228WAT    EPW 1634   5.650   5.483   3.009  0.2924  0.6162  0.4260
  229WAT      O 1635   0.048   0.406   2.880  0.1299  0.5669 -0.1086
  229WAT     H1 1636   0.080   0.375   2.956  0.2850  0.5346 -0.1882
  229WAT     H2 1637   0.089   0.482   2.870 -0.8775  1.2132  0.5188
  229WAT    EPW 1638   0.059   0.413   2.890  0.0040  0.6576 -0.0276
  230WAT      O 1639   1.207   5.676   6.509  0.0897 -0.3450 -0.0112
  230WAT     H1 1640   1.163   5.672   6.584  0.9397 -0.9716  0.4694
  230WAT     H2 1641   1.242   5.597   6.502  0.8347  0.0282 -0.5732
  230WAT    EPW 1642   1.205   5.664   6.519  0.3253 -0.3824 -0.0232
  231WAT      O 1643   4.515   0.492   0.694 -0.6018  0.1069  0.3953
  231WAT     H1 1644   4.597   0.516   0.713 -0.0740 -1.2085 -0.1093
  231WAT     H2 1645   4.475   0.493   0.771  0.2199 -0.4070  0.8477
  231WAT    EPW 1646   4.521   0.496   0.708 -0.4024 -0.1634  0.3876
  232WAT      O 1647   0.432   1.664   3.808  0.0287  0.2631 -0.0044
  232WAT     H1 1648   0.509   1.660   3.769 -0.4578  1.7606 -1.2155
  232WAT     H2 1649   0.375   1.648   3.744 -0.6935 -1.5223  1.0064
  232WAT    EPW 1650   0.435   1.661   3.793 -0.1499  0.2206 -0.0340
  233WAT      O 1651   2.999   6.615   5.929 -0.2955  0.0838  0.4076
  233WAT     H1 1652   3.027   6.614   6.012 -0.0926 -1.2050  0.3450
  233WAT     H2 1653   3.047   6.678   5.892 -0.3766  0.6658  1.2475
  233WAT    EPW 1654   3.010   6.624   5.936 -0.2775 -0.0206  0.5225
  234WAT      O 1655   0.593   5.547   1.157  0.0867  0.1310  0.6182
  234WAT     H1 1656   0.599   5.632   1.176 -0.4602  0.3496 -0.1514
  234WAT     H2 1657   0.567   5.511   1.232 -1.4352  0.8931  0.5017
  234WAT    EPW 1658   0.590   5.554   1.171 -0.2189  0.2758  0.4873
  235WAT      O 1659   6.336   6.564   2.779 -0.3027  0.5613  0.1861
  235WAT     H1 1660   6.282   6.495   2.782 -0.1332  0.3709 -0.6828
  235WAT     H2 1661   6.378   6.561   2.855  1.5505 -1.8558 -0.7997
  235WAT    EPW 1662   6.334   6.553   2.790 -0.0039  0.1761 -0.0879
  236WAT      O 1663   0.138   1.660   2.600  0.1787  0.7421 -0.1962
  236WAT     H1 1664   0.213   1.630   2.633  0.3352  0.3994 -0.8436
  236WAT     H2 1665   0.080   1.642   2.662  0.9888  3.1482  1.3689
  236WAT    EPW 1666   0.141   1.653   2.614  0.3215  1.0469 -0.0606
  237WAT      O 1667   0.869   1.099   5.586  0.2456 -0.3988  0.3987
  237WAT     H1 1668   0.793   1.058   5.575 -0.1849  0.3944  0.3182
  237WAT     H2 1669   0.855   1.149   5.657  0.6014 -0.0452  0.2234
  237WAT    EPW 1670   0.856   1.100   5.595  0.2346 -0.2294  0.3609
  238WAT      O 1671   6.177   4.525   4.602 -0.3150 -0.0820  0.2835
  238WAT     H1 1672   6.163   4.503   4.686  0.5871  0.9385  0.7297
  238WAT     H2 1673   6.184   4.448   4.562 -0.7734 -0.5910  1.1504
  238WAT    EPW 1674   6.176   4.510   4.609 -0.2495 -0.0064  0.4774
  239WAT      O 1675   4.617   4.341   3.204  0.3206  0.3120 -0.4778
  239WAT     H1 1676   4.534   4.333   3.230  0.3662  2.0931  0.3316
  239WAT     H2 1677   4.650   4.262   3.221 -0.4519  0.4272  2.1361
  239WAT    EPW 1678   4.610   4.328   3.211  0.2132  0.5921  0.0279
  240WAT      O 1679   0.885   4.164   1.287 -0.5706  0.1431 -0.0692
  240WAT     H1 1680   0.922   4.123   1.220 -1.5565  0.4889 -0.8564
  240WAT     H2 1681   0.953   4.191   1.335  0.1305 -0.7224 -0.5452
  240WAT    EPW 1682   0.901   4.162   1.285 -0.6127  0.0663 -0.2558
  241WAT      O 1683   2.883   1.712   3.028  0.5084  0.1936  0.0966
  241WAT     H1 1684   2.904   1.797   3.031 -0.1498  0.3370  1.4495
  241WAT     H2 1685   2.933   1.681   2.964  0.9065  1.5632 -0.2932
  241WAT    EPW 1686   2.894   1.720   3.019  0.4700  0.4171  0.2389
  242WAT      O 1687   5.641   7.173   1.927  0.3741 -0.0697  0.0902
  242WAT     H1 1688   5.657   7.087   1.934 -1.2508 -0.3554  0.6844
  242WAT     H2 1689   5.667   7.205   2.004  0.4872 -0.1028  0.0665
  242WAT    EPW 1690   5.647   7.165   1.940  0.1508 -0.1168  0.1745
  243WAT      O 1691   0.191   4.350   3.566 -0.0470 -0.1523 -0.0974
  243WAT     H1 1692   0.109   4.366   3.539  0.6292  0.5402 -1.8312
  243WAT     H2 1693   0.224   4.430   3.579  0.7409 -0.3930 -0.5903
  243WAT    EPW 1694   0.184   4.364   3.564  0.1693 -0.0856 -0.4264
  244WAT      O 1695   0.119   4.306   1.543 -0.0995  0.2454  0.2711
  244WAT     H1 1696   0.170   4.288   1.611  0.4606  0.3017 -0.1251
  244WAT     H2 1697   0.046   4.261   1.560  0.0008  0.3252  0.9426
  244WAT    EPW 1698   0.116   4.296   1.555 -0.0020  0.2655  0.3118
  245WAT      O 1699   2.981   4.830   1.524 -0.1886 -0.3018 -0.5566
  245WAT     H1 1700   2.915   4.777   1.503 -0.1201 -0.8309  0.5056
  245WAT     H2 1701   2.994   4.814   1.608  0.5308  0.6550 -0.4705
  245WAT    EPW 1702   2.973   4.820   1.533 -0.0722 -0.2386 -0.3869
  246WAT      O 1703   7.125   6.507   3.300 -0.0655 -0.0153 -0.2228
  246WAT     H1 1704   7.112   6.434   3.254  0.0088  0.5384 -1.1579
  246WAT     H2 1705   7.061   6.559   3.273 -0.1370  0.2529  0.4649
  246WAT    EPW 1706   7.114   6.504   3.289 -0.0651  0.1061 -0.2594
  247WAT      O 1707   5.807   1.385   7.383 -0.1940 -0.0808 -0.4589
  247WAT     H1 1708   5.792   1.400   7.468  3.7983 -0.4444  0.4837
  247WAT     H2 1709   5.735   1.416   7.344 -1.2490  2.1841  2.8466
  247WAT    EPW 1710   5.794   1.392   7.390  0.2399  0.2001  0.1686
  248WAT      O 1711   4.434   1.664   3.714 -0.0103  0.0006  0.2179
  248WAT     H1 1712   4.449   1.599   3.658  1.5344  0.5405 -0.0266
  248WAT     H2 1713   4.392   1.723   3.666  0.7387  0.1936 -0.2075
  248WAT    EPW 1714   4.430   1.663   3.699  0.3285  0.1088  0.1190
  249WAT      O 1715   3.126   6.693   6.785 -0.3604 -0.0486 -0.3654
  249WAT     H1 1716   3.165   6.747   6.728 -0.2435  2.2857  1.7533
  249WAT     H2 1717   3.190   6.670   6.839 -1.0978  0.6927  0.8800
  249WAT    EPW 1718   3.141   6.698   6.784 -0.4520  0.4058  0.1315
  250WAT      O 1719   1.690   6.712   0.504 -0.3644  0.1160 -0.7872
  250WAT     H1 1720   1.776   6.711   0.521 -0.6267  0.0166  0.7062
  250WAT     H2 1721   1.663   6.634   0.531 -1.4143  1.2701  1.8930
  250WAT    EPW 1722   1.699   6.701   0.511 -0.5582  0.2718 -0.1707
  251WAT      O 1723   4.046   3.675   5.970  0.2831 -0.0513 -0.4028
  251WAT     H1 1724   4.003   3.615   5.923  0.2561  0.2794 -0.8083
  251WAT     H2 1725   4.129   3.660   5.950  0.2214  0.6309 -1.2255
  251WAT    EPW 1726   4.052   3.664   5.960  0.2700  0.0984 -0.5843
  252WAT      O 1727   3.801   1.693   5.795  0.4846 -0.5322  0.0327
  252WAT     H1 1728   3.757   1.658   5.862  0.8471  0.1868  0.6747
  252WAT     H2 1729   3.878   1.653   5.798  0.5597 -0.3824  0.1637
  252WAT    EPW 1730   3.806   1.682   5.805  0.5492 -0.4039  0.1469
  253WAT      O 1731   1.413   3.835   5.772 -0.3569  0.2453 -0.8703
  253WAT     H1 1732   1.440   3.897   5.717  1.6758  2.9762  2.8000
  253WAT     H2 1733   1.328   3.852   5.782 -0.4970  0.4251 -2.2109
  253WAT    EPW 1734   1.404   3.846   5.765 -0.0773  0.6753 -0.5261
  254WAT      O 1735   2.989   1.347   4.400  0.0312 -0.5277 -0.0688
  254WAT     H1 1736   2.904   1.367   4.402  0.0883 -0.1310 -1.0779
  254WAT     H2 1737   3.027   1.424   4.383  0.7703 -0.3051  2.2597
  254WAT    EPW 1738   2.982   1.361   4.397  0.1488 -0.4362  0.1261
  255WAT      O 1739   4.240   4.692   5.026 -0.0293 -0.0934  0.0855
  255WAT     H1 1740   4.214   4.775   5.022  0.1379  0.0230  1.1222
  255WAT     H2 1741   4.186   4.656   5.083  0.6950 -0.3769  0.6139
  255WAT    EPW 1742   4.228   4.699   5.034  0.1024 -0.1181  0.3167
  256WAT      O 1743   7.226   1.342   1.695 -0.3631  0.0543 -0.0687
  256WAT     H1 1744   7.188   1.384   1.630  2.7503  2.0577 -0.8315
  256WAT     H2 1745   7.226   1.400   1.761 -2.2157 -1.4244  1.3395
  256WAT    EPW 1746   7.221   1.357   1.695 -0.1768  0.1318  0.0266
  257WAT      O 1747   1.306   2.587   6.288  0.0938 -0.2514 -0.2209
  257WAT     H1 1748   1.309   2.599   6.374 -1.7018 -0.6735 -0.0567
  257WAT     H2 1749   1.372   2.532   6.272  0.9530  0.4611  0.7401
  257WAT    EPW 1750   1.316   2.581   6.299 -0.0445 -0.2085 -0.0547
  258WAT      O 1751   5.428   5.680   1.559  0.3105 -0.4139 -0.0991
  258WAT     H1 1752   5.395   5.599   1.553 -1.4892  0.1492  1.3011
  258WAT     H2 1753   5.493   5.671   1.616  0.1528 -0.8975  0.0128
  258WAT    EPW 1754   5.433   5.667   1.566  0.0213 -0.4022  0.1243
  259WAT      O 1755   6.396   4.598   0.659  0.0488  0.0510  0.0770
  259WAT     H1 1756   6.319   4.557   0.661  0.7358 -1.3714  3.0288
  259WAT     H2 1757   6.380   4.668   0.609 -2.7415 -0.8658 -0.5447
  259WAT    EPW 1758   6.382   4.603   0.652 -0.2619 -0.2945  0.4212
  260WAT      O 1759   2.748   2.145   1.166 -0.3813  0.0899 -0.4842
  260WAT     H1 1760   2.714   2.174   1.091 -0.9670  0.1942 -0.1899
  260WAT     H2 1761   2.812   2.092   1.141  1.0132  1.9608 -1.0297
  260WAT    EPW 1762   2.752   2.141   1.152 -0.2619  0.3817 -0.5213
  261WAT      O 1763   4.703   0.104   0.433 -0.3922 -0.8457  0.1361
  261WAT     H1 1764   4.761   0.132   0.492 -0.3618 -0.5321 -0.0380
  261WAT     H2 1765   4.652   0.174   0.420 -1.3647 -1.3772  0.9483
  261WAT    EPW 1766   4.704   0.119   0.440 -0.5314 -0.8779  0.2304
  262WAT      O 1767   2.247   2.083   5.729 -0.0348 -0.1246 -0.7720
  262WAT     H1 1768   2.163   2.072   5.749  0.4617 -1.0680  0.9935
  262WAT     H2 1769   2.251   2.167   5.705 -1.3240  0.2049  0.0531
  262WAT    EPW 1770   2.236   2.094   5.729 -0.1519 -0.2153 -0.3893
  263WAT      O 1771   1.080   3.100   2.853 -0.1450  0.0548  0.2090
  263WAT     H1 1772   1.077   3.181   2.819  2.3800 -0.3118 -1.1580
  263WAT     H2 1773   1.108   3.051   2.787  0.8522 -1.4864  1.6861
  263WAT    EPW 1774   1.084   3.105   2.838  0.3753 -0.2270  0.2253
  264WAT      O 1775   1.526   0.359   2.044  0.0091 -0.3893  0.7586
  264WAT     H1 1776   1.613   0.358   2.038  0.1765  0.0294  2.5033
  264WAT     H2 1777   1.503   0.277   2.025  0.9893 -1.0598  2.2647
  264WAT    EPW 1778   1.535   0.347   2.040  0.1786 -0.4265  1.2388
  265WAT      O 1779   6.830   2.639   3.235  0.0931  0.6736 -0.1037
  265WAT     H1 1780   6.808   2.721   3.256 -0.7033  0.3838  0.2077
  265WAT     H2 1781   6.873   2.611   3.305  0.6969  0.9399 -0.3581
  265WAT    EPW 1782   6.833   2.647   3.248  0.0647  0.6701 -0.0953
  266WAT      O 1783   0.016   1.234   1.243  0.4127 -0.0958  0.6535
  266WAT     H1 1784   0.066   1.305   1.244  0.8808 -0.3911 -0.1716
  266WAT     H2 1785   0.070   1.172   1.214 -0.4153 -0.4369 -0.2046
  266WAT    EPW 1786   0.032   1.235   1.239  0.3595 -0.1898  0.4048
  267WAT      O 1787   7.158   4.814   2.832 -0.3078 -0.0705  0.0206
  267WAT     H1 1788   7.175   4.818   2.918  1.1690 -1.2113 -0.1762
  267WAT     H2 1789   7.099   4.750   2.827 -1.0427  0.5759  0.2509
  267WAT    EPW 1790   7.152   4.805   2.844 -0.1982 -0.1435  0.0256
  268WAT      O 1791   3.300   2.247   0.599  0.0654  0.1311 -0.2999
  268WAT     H1 1792   3.342   2.213   0.531 -0.3707  1.4878 -1.3053
  268WAT     H2 1793   3.314   2.189   0.663 -0.5995 -1.8982 -1.8582
  268WAT    EPW 1794   3.308   2.233   0.598 -0.0972  0.0317 -0.6786
  269WAT      O 1795   5.244   4.405   3.840  0.0464  0.8108 -0.2566
  269WAT     H1 1796   5.216   4.466   3.895 -0.7417  0.7100 -0.5415
  269WAT     H2 1797   5.331   4.410   3.846  0.0082 -0.1218  2.0047
  269WAT    EPW 1798   5.253   4.414   3.849 -0.0757  0.6582  0.0354
  270WAT      O 1799   4.591   3.823   2.167  0.2386  0.0835 -0.5743
  270WAT     H1 1800   4.661   3.870   2.189  0.5331 -1.3231  1.8298
  270WAT     H2 1801   4.525   3.860   2.211  0.0657 -0.4017 -0.4079
  270WAT    EPW 1802   4.591   3.835   2.177  0.2565 -0.1960 -0.1946
  271WAT      O 1803   4.609   6.073   1.249  0.1614  0.1199 -0.2283
  271WAT     H1 1804   4.566   6.115   1.186  2.0786  0.2464 -1.5437
  271WAT     H2 1805   4.554   6.074   1.316 -2.5454 -1.2238 -2.2706
  271WAT    EPW 1806   4.595   6.079   1.250  0.0448 -0.0599 -0.7243
  272WAT      O 1807   0.129   2.357   3.610  0.1175  0.3913  0.0048
  272WAT     H1 1808   0.083   2.333   3.540 -2.2323  0.7963  1.2973
  272WAT     H2 1809   0.130   2.285   3.659  0.0320  0.6465  0.3868
  272WAT    EPW 1810   0.122   2.343   3.607 -0.2422  0.4888  0.2521
  273WAT      O 1811   2.999   0.743   3.204 -0.7860  0.0218  0.7050
  273WAT     H1 1812   3.044   0.668   3.207 -1.5274 -0.4007  2.0001
  273WAT     H2 1813   3.043   0.791   3.147  0.6905 -0.7641  1.1427
  273WAT    EPW 1814   3.012   0.739   3.196 -0.6774 -0.1567  0.9610
  274WAT      O 1815   1.968   1.775   1.328 -0.1853  0.3492 -0.2512
  274WAT     H1 1816   2.035   1.720   1.317 -0.0173  0.8539 -2.1020
  274WAT     H2 1817   2.002   1.852   1.305 -1.1605  0.7684 -0.3086
  274WAT    EPW 1818   1.983   1.778   1.323 -0.3046  0.4857 -0.5331
  275WAT      O 1819   5.934   1.463   2.739  0.2811 -0.6452  0.4372
  275WAT     H1 1820   5.853   1.491   2.721  0.8925  1.0622  0.2332
  275WAT     H2 1821   5.970   1.454   2.660  0.9976  0.8170  0.5805
  275WAT    EPW 1822   5.927   1.466   2.725  0.4772 -0.1770  0.4282
  276WAT      O 1823   1.550   1.510   1.928  0.1437  0.2057 -0.1537
  276WAT     H1 1824   1.573   1.426   1.930  0.6166  0.3229  1.8265
  276WAT     H2 1825   1.625   1.552   1.916  0.0507  0.3732 -0.1637
  276WAT    EPW 1826   1.564   1.504   1.927  0.1998  0.2478  0.1373
  277WAT      O 1827   4.130   0.690   2.589 -0.5433 -0.1141  0.1867
  277WAT     H1 1828   4.202   0.671   2.634 -0.4232 -0.6934 -0.2355
  277WAT     H2 1829   4.080   0.620   2.600 -1.7999  0.9552  1.9030
  277WAT    EPW 1830   4.133   0.677   2.597 -0.7112 -0.0417  0.3779
  278WAT      O 1831   7.131   4.229   4.824  0.3380  0.1878  0.0875
  278WAT     H1 1832   7.097   4.309   4.810 -0.0188 -0.1707 -1.2197
  278WAT     H2 1833   7.200   4.226   4.772 -0.6075 -0.9355 -1.1760
  278WAT    EPW 1834   7.136   4.241   4.814  0.1456 -0.0311 -0.2922
  279WAT      O 1835   6.364   0.857   6.919  0.2240 -0.5575  0.0626
  279WAT     H1 1836   6.291   0.842   6.873  0.6282 -1.7901 -0.2227
  279WAT     H2 1837   6.374   0.944   6.915 -1.4350 -0.3207  0.4525
  279WAT    EPW 1838   6.355   0.868   6.911  0.0387 -0.7046  0.0780
  280WAT      O 1839   0.972   4.348   0.349  0.1714  0.2801 -0.4784
  280WAT     H1 1840   0.998   4.328   0.429 -0.1271  0.6823 -0.2776
  280WAT     H2 1841   1.009   4.426   0.335 -1.9475  1.5166  0.3268
  280WAT    EPW 1842   0.982   4.357   0.358 -0.1857  0.5222 -0.3298
  281WAT      O 1843   5.593   4.251   5.955 -0.1011  0.6700 -0.0707
  281WAT     H1 1844   5.656   4.192   5.945 -0.9439 -0.0527 -1.5525
  281WAT     H2 1845   5.584   4.285   5.875 -0.6744  1.7223  0.4185
  281WAT    EPW 1846   5.601   4.247   5.942 -0.3103  0.7187 -0.2174
  282WAT      O 1847   5.678   5.461   0.966 -0.3421  0.7119 -0.1581
  282WAT     H1 1848   5.699   5.545   0.955 -1.5885  0.8524 -1.8752
  282WAT     H2 1849   5.751   5.425   0.997  0.0575  2.5058  1.1069
  282WAT    EPW 1850   5.691   5.468   0.969 -0.4672  0.9976 -0.2249
  283WAT      O 1851   4.070   5.403   3.363 -0.2291 -0.6359  0.2357
  283WAT     H1 1852   4.072   5.441   3.285  0.6452  1.5161  1.2075
  283WAT     H2 1853   3.988   5.374   3.371 -0.8033  0.6359 -0.8105
  283WAT    EPW 1854   4.058   5.404   3.353 -0.1847 -0.1301  0.2247
  284WAT      O 1855   6.870   5.057   5.607 -0.3431 -0.7999 -0.0914
  284WAT     H1 1856   6.814   5.103   5.655 -0.5467 -0.8407 -0.2891
  284WAT     H2 1857   6.820   4.995   5.570 -0.4162 -0.0180 -1.3555
  284WAT    EPW 1858   6.854   5.054   5.609 -0.3840 -0.6904 -0.3074
  285WAT      O 1859   7.275   3.844   2.932 -0.2443 -0.5257  0.1025
  285WAT     H1 1860   7.288   3.867   2.849  1.0515 -0.7487  0.2269
  285WAT     H2 1861   7.221   3.906   2.962  0.8436  0.7134 -0.3691
  285WAT    EPW 1862   7.269   3.857   2.924  0.1078 -0.3756  0.0512
  286WAT      O 1863   1.196   3.230   2.548 -0.3626 -0.4370  0.5575
  286WAT     H1 1864   1.212   3.217   2.463 -1.5815  1.4292 -0.0101
  286WAT     H2 1865   1.232   3.161   2.586  0.5611 -1.1322 -1.4431
  286WAT    EPW 1866   1.204   3.218   2.541 -0.4062 -0.2640  0.1781
  287WAT      O 1867   5.701   5.257   7.296 -0.0093 -0.0789 -0.1942
  287WAT     H1 1868   5.739   5.335   7.282  0.3614 -0.4536 -1.4189
  287WAT     H2 1869   5.768   5.207   7.321 -0.2883  0.0315  0.8176
  287WAT    EPW 1870   5.717   5.261   7.297  0.0042 -0.1179 -0.2256
  288WAT      O 1871   7.291   0.192   2.738 -0.3400 -0.6581  0.7252
  288WAT     H1 1872   7.327   0.259   2.780  1.2612 -0.7774 -0.3716
  288WAT     H2 1873   7.246   0.230   2.673 -1.5297 -0.5627  1.5581
  288WAT    EPW 1874   7.289   0.207   2.735 -0.2793 -0.6616  0.6862
  289WAT      O 1875   5.064   2.121   2.736  0.9590 -0.0777 -0.1554
  289WAT     H1 1876   5.096   2.140   2.815  0.6643  1.7084 -0.4197
  289WAT     H2 1877   5.034   2.197   2.707  1.4275 -0.5909 -2.1790
  289WAT    EPW 1878   5.064   2.135   2.743  0.9847  0.1104 -0.4934
  290WAT      O 1879   6.878   3.096   0.557 -0.8492  0.2471 -0.0922
  290WAT     H1 1880   6.799   3.059   0.567 -0.9415  0.7225  1.1278
  290WAT     H2 1881   6.872   3.134   0.478 -2.1862  1.0515  0.3541
  290WAT    EPW 1882   6.865   3.096   0.546 -1.0603  0.4361  0.1540
  291WAT      O 1883   1.261   2.590   5.767  0.0230  0.1527 -0.2978
  291WAT     H1 1884   1.344   2.613   5.784 -0.3219  0.9928  0.3188
  291WAT     H2 1885   1.216   2.631   5.829 -1.0441  1.1578 -1.6844
  291WAT    EPW 1886   1.267   2.599   5.779 -0.1855  0.4253 -0.4116
  292WAT      O 1887   1.476   0.488   5.497  0.0775  0.4098  0.4228
  292WAT     H1 1888   1.445   0.502   5.416  1.6403  0.4959 -0.2036
  292WAT     H2 1889   1.540   0.547   5.505  0.7026 -0.3520  1.2779
  292WAT    EPW 1890   1.481   0.499   5.486  0.4007  0.3100  0.4566
  293WAT      O 1891   4.207   1.857   6.303 -0.2308 -0.2202  0.0573
  293WAT     H1 1892   4.208   1.774   6.329  0.3025 -0.4184 -0.5667
  293WAT     H2 1893   4.123   1.872   6.286 -0.4399 -0.3821  0.9361
  293WAT    EPW 1894   4.195   1.847   6.304 -0.1829 -0.2734  0.0949
  294WAT      O 1895   6.977   0.536   5.471  0.0382 -0.5715 -0.1976
  294WAT     H1 1896   6.893   0.557   5.463  0.5334  1.5453 -0.4353
  294WAT     H2 1897   7.003   0.524   5.388 -0.0404 -1.4331 -0.1129
  294WAT    EPW 1898   6.969   0.537   5.457  0.0998 -0.3861 -0.2202
  295WAT      O 1899   6.741   6.140   4.476  0.4647 -0.4052 -0.6804
  295WAT     H1 1900   6.736   6.183   4.401  0.9443 -0.7174 -0.8933
  295WAT     H2 1901   6.808   6.085   4.465  1.1551  0.2023  0.3105
  295WAT    EPW 1902   6.750   6.138   4.464  0.6375 -0.3616 -0.5655
  296WAT      O 1903   5.966   2.007   0.230 -0.6134 -0.2415  0.0213
  296WAT     H1 1904   6.032   2.059   0.255 -1.7544  0.6663  1.3220
  296WAT     H2 1905   5.975   1.937   0.281 -1.8283  0.7932  1.7540
  296WAT    EPW 1906   5.977   2.005   0.241 -0.9614  0.0455  0.4694
  297WAT      O 1907   2.322   1.695   5.791  0.0983  0.1249 -0.6166
  297WAT     H1 1908   2.254   1.655   5.827  1.9069 -2.2624  0.3813
  297WAT     H2 1909   2.350   1.749   5.854 -0.3620  0.5031 -0.7318
  297WAT    EPW 1910   2.316   1.697   5.805  0.2975 -0.1719 -0.4862
  298WAT      O 1911   1.777   0.647   1.874 -0.4615  0.0529  0.2365
  298WAT     H1 1912   1.802   0.669   1.793  1.4520 -0.9665  0.5048
  298WAT     H2 1913   1.714   0.706   1.892  0.3001  1.4348 -1.2947
  298WAT    EPW 1914   1.771   0.659   1.865 -0.0663  0.1065  0.0500
  299WAT      O 1915   6.829   3.313   0.733  0.4835  0.1115 -0.2049
  299WAT     H1 1916   6.874   3.353   0.796  0.5210  1.3058 -0.9575
  299WAT     H2 1917   6.888   3.261   0.695  0.4626 -0.6160  0.7054
  299WAT    EPW 1918   6.844   3.311   0.737  0.4860  0.1805 -0.1816
  300WAT      O 1919   0.992   5.405   2.237 -0.2791  0.1914  0.2273
  300WAT     H1 1920   0.969   5.488   2.244  0.3446  0.3085  0.9953
  300WAT     H2 1921   0.927   5.361   2.276  0.1859  0.4332  1.2886
  300WAT    EPW 1922   0.979   5.411   2.244 -0.1183  0.2445  0.4975
  301WAT      O 1923   3.441   1.409   2.388  0.5881 -0.1856 -0.1000
  301WAT     H1 1924   3.486   1.484   2.387 -0.2510  0.3578 -2.5001
  301WAT     H2 1925   3.500   1.350   2.364  0.7270  0.0381 -0.3180
  301WAT    EPW 1926   3.457   1.412   2.384  0.4847 -0.0723 -0.4868
  302WAT      O 1927   5.115   4.251   4.831 -0.5247  0.1267 -0.1768
  302WAT     H1 1928   5.075   4.326   4.845 -1.1640 -0.2607  0.1066
  302WAT     H2 1929   5.067   4.212   4.769 -0.7819 -0.4683  0.3772
  302WAT    EPW 1930   5.102   4.256   4.824 -0.6571 -0.0184 -0.0531
  303WAT      O 1931   4.383   4.941   3.578  0.7452 -0.1090 -0.0417
  303WAT     H1 1932   4.316   4.892   3.549  1.2589 -0.9252  0.1147
  303WAT     H2 1933   4.387   4.922   3.663  3.1462 -2.5937 -0.5683
  303WAT    EPW 1934   4.374   4.931   3.586  1.1758 -0.5966 -0.0964
  304WAT      O 1935   0.924   1.476   0.226 -0.3121 -0.2781  0.6858
  304WAT     H1 1936   0.845   1.478   0.263 -0.9122  0.0396 -0.5766
  304WAT     H2 1937   0.907   1.483   0.141  1.2060  2.7674  0.5031
  304WAT    EPW 1938   0.910   1.477   0.219 -0.1765  0.2187  0.4723
  305WAT      O 1939   4.421   6.428   4.282 -0.4127  0.4360  0.5074
  305WAT     H1 1940   4.371   6.482   4.235  0.4876  1.0828  0.2526
  305WAT     H2 1941   4.502   6.460   4.271  0.7504 -2.8614 -2.4470
  305WAT    EPW 1942   4.426   6.441   4.274 -0.1079  0.0444  0.0333
  306WAT      O 1943   2.808   1.339   0.771 -0.1130  0.2198 -0.1114
  306WAT     H1 1944   2.747   1.316   0.828 -0.6321 -0.5390 -0.9540
  306WAT     H2 1945   2.871   1.281   0.784  0.1088  0.5232  0.2103
  306WAT    EPW 1946   2.809   1.327   0.782 -0.1569  0.1525 -0.1884
  307WAT      O 1947   4.147   5.795   3.541 -0.2792  0.0747 -0.1566
  307WAT     H1 1948   4.160   5.878   3.565 -0.7340  0.2689 -0.5662
  307WAT     H2 1949   4.205   5.783   3.477  0.1980 -0.1127  0.3047
  307WAT    EPW 1950   4.158   5.805   3.535 -0.2759  0.0757 -0.1490
  308WAT      O 1951   2.886   6.494   6.546 -0.6529 -0.1010 -0.1251
  308WAT     H1 1952   2.866   6.457   6.622 -0.2088  0.4563  0.2693
  308WAT     H2 1953   2.879   6.580   6.562  2.2524  0.1828  0.1430
  308WAT    EPW 1954   2.882   6.502   6.559 -0.1581  0.0232 -0.0272
  309WAT      O 1955   0.292   6.174   6.088 -0.6753 -0.2055  0.3190
  309WAT     H1 1956   0.350   6.178   6.152 -0.1901 -0.2059 -0.1181
  309WAT     H2 1957   0.252   6.097   6.100  0.4869 -0.9260 -0.2955
  309WAT    EPW 1958   0.294   6.163   6.099 -0.4319 -0.3120  0.1636
  310WAT      O 1959   1.095   0.536   6.097 -0.8606  0.1027 -0.2505
  310WAT     H1 1960   1.136   0.485   6.155 -2.1462  0.6409  1.2074
  310WAT     H2 1961   1.020   0.493   6.082 -0.4776 -0.0981 -1.6564
  310WAT    EPW 1962   1.090   0.522   6.103 -0.9939  0.1525 -0.2428
  311WAT      O 1963   6.866   4.964   2.590 -0.0417 -0.3808  0.1567
  311WAT     H1 1964   6.853   5.024   2.528  0.2755 -0.6957 -0.2270
  311WAT     H2 1965   6.840   4.890   2.552 -0.4279 -0.4828  0.6259
  311WAT    EPW 1966   6.860   4.962   2.575 -0.0519 -0.4424  0.1693
  312WAT      O 1967   1.059   0.910   6.684 -0.2141 -0.3860 -0.1792
  312WAT     H1 1968   1.090   0.935   6.606 -0.6312 -0.3553 -0.3393
  312WAT     H2 1969   1.096   0.832   6.697  1.9125  0.7242  0.7989
  312WAT    EPW 1970   1.069   0.902   6.674  0.0384 -0.2175 -0.0584
  313WAT      O 1971   5.915   4.158   1.816 -0.3096 -0.5227 -0.3409
  313WAT     H1 1972   5.979   4.151   1.874 -0.2991  2.0178  0.0809
  313WAT     H2 1973   5.843   4.150   1.863 -0.2873 -0.0356 -0.2129
  313WAT    EPW 1974   5.914   4.156   1.831 -0.3048 -0.0754 -0.2597
  314WAT      O 1975   5.592   0.160   4.497 -0.3824  0.5827  0.0906
  314WAT     H1 1976   5.651   0.172   4.433 -1.4843  0.6696 -0.9634
  314WAT     H2 1977   5.536   0.226   4.485 -0.6989  0.5021  1.0589
  314WAT    EPW 1978   5.592   0.172   4.485 -0.5919  0.5836  0.0779
  315WAT      O 1979   3.411   4.234   6.280  0.5418  0.1175  0.4842
  315WAT     H1 1980   3.454   4.206   6.210  2.7481  0.2967  1.6823
  315WAT     H2 1981   3.394   4.318   6.261  1.2768  0.2143  0.2232
  315WAT    EPW 1982   3.415   4.242   6.267  0.9763  0.1583  0.6227
  316WAT      O 1983   5.482   1.070   3.094 -0.1392  0.4451  0.2866
  316WAT     H1 1984   5.557   1.030   3.075  0.7152  1.5227  1.2155
  316WAT     H2 1985   5.481   1.138   3.039 -2.1526 -1.3213 -2.1168
  316WAT    EPW 1986   5.493   1.074   3.083 -0.3104  0.3434  0.0688
  317WAT      O 1987   2.173   7.267   3.240 -0.0915 -0.0477 -0.3242
  317WAT     H1 1988   2.246   7.250   3.284 -1.2654 -0.4335  1.6117
  317WAT     H2 1989   2.113   7.276   3.303 -2.1518 -1.9244 -1.8568
  317WAT    EPW 1990   2.175   7.266   3.256 -0.5693 -0.3819 -0.2646
  318WAT      O 1991   5.612   0.350   2.174 -0.2262 -0.5128 -0.4473
  318WAT     H1 1992   5.534   0.388   2.176  0.1427  0.3266 -1.2067
  318WAT     H2 1993   5.667   0.416   2.187  0.3946 -0.9535 -0.7893
  318WAT    EPW 1994   5.609   0.366   2.176 -0.0800 -0.4539 -0.6100
  319WAT      O 1995   1.018   0.736   6.386  0.4052 -0.4049  0.6554
  319WAT     H1 1996   0.978   0.695   6.452 -0.5091 -0.7763 -0.1018
  319WAT     H2 1997   1.093   0.692   6.377 -0.3012 -1.5873  0.2442
  319WAT    EPW 1998   1.023   0.723   6.394  0.1658 -0.6344  0.4828
  320WAT      O 1999   6.045   4.939   5.951  0.3153 -0.2139 -0.0317
  320WAT     H1 2000   6.048   5.019   5.984 -0.5569 -0.6152  1.1055
  320WAT     H2 2001   5.975   4.942   5.898 -0.5731 -0.5828  1.0905
  320WAT    EPW 2002   6.035   4.951   5.948  0.0552 -0.3277  0.3021
  321WAT      O 2003   0.825   2.508   3.428  0.5107  0.5746  0.2216
  321WAT     H1 2004   0.867   2.453   3.374 -0.2590 -0.4357  0.6194
  321WAT     H2 2005   0.752   2.526   3.384  0.2989  0.4750  0.5339
  321WAT    EPW 2006   0.821   2.502   3.413  0.3657  0.4106  0.3265
  322WAT      O 2007   2.283   2.965   6.253 -0.1615 -0.0073 -0.2072
  322WAT     H1 2008   2.344   2.904   6.253  0.1296  0.2447  1.1981
  322WAT     H2 2009   2.217   2.928   6.296 -0.3791  0.3049 -0.2667
  322WAT    EPW 2010   2.282   2.951   6.259 -0.1507  0.0760 -0.0084
  323WAT      O 2011   0.286   4.176   3.751 -0.1799 -1.0113  0.1752
  323WAT     H1 2012   0.233   4.168   3.820  0.6132 -0.4436  0.8787
  323WAT     H2 2013   0.238   4.219   3.693  0.1729  1.5738  1.6333
  323WAT    EPW 2014   0.271   4.181   3.753 -0.0106 -0.5456  0.4945
  324WAT      O 2015   7.284   0.192   0.817 -0.2282 -0.1563  0.3909
  324WAT     H1 2016   7.330   0.200   0.744  1.5386 -0.4153  1.4217
  324WAT     H2 2017   7.333   0.234   0.877 -1.1067 -0.8343  1.6265
  324WAT    EPW 2018   7.298   0.200   0.815 -0.0970 -0.2948  0.7257
  325WAT      O 2019   4.416   1.221   1.907 -0.0201 -0.3307 -0.2287
  325WAT     H1 2020   4.391   1.138   1.912  1.0334 -0.7315 -1.2136
  325WAT     H2 2021   4.354   1.258   1.857 -0.1228 -0.6713 -0.3530
  325WAT    EPW 2022   4.403   1.215   1.900  0.1204 -0.4402 -0.3925
  326WAT      O 2023   5.031   5.749   3.873  0.0939  0.7228 -0.1730
  326WAT     H1 2024   5.056   5.781   3.796 -0.9845  0.6023 -0.5901
  326WAT     H2 2025   5.081   5.792   3.930  1.7989 -0.0673 -0.9814
  326WAT    EPW 2026   5.042   5.760   3.870  0.1865  0.5883 -0.3540
  327WAT      O 2027   3.244   3.056   5.827 -0.2709 -0.2167 -0.0624
  327WAT     H1 2028   3.197   3.038   5.898  0.2139  1.9947  0.8953
  327WAT     H2 2029   3.212   3.133   5.801  1.6726  0.5278 -0.3756
  327WAT    EPW 2030   3.232   3.065   5.834  0.0878  0.2199  0.0328
  328WAT      O 2031   2.158   4.467   4.925 -0.4307  0.3997 -0.2157
  328WAT     H1 2032   2.230   4.513   4.944 -1.8516  1.6985  2.6648
  328WAT     H2 2033   2.124   4.511   4.857  0.4786  0.9495 -0.3394
  328WAT    EPW 2034   2.164   4.480   4.918 -0.5063  0.6728  0.1916
  329WAT      O 2035   0.010   0.404   1.460  0.8144  0.0651 -0.7619
  329WAT     H1 2036   0.032   0.436   1.382 -1.1289  0.8721 -1.0421
  329WAT     H2 2037  -0.013   0.474   1.506  0.1822 -0.5539 -0.0970
  329WAT    EPW 2038   0.010   0.419   1.455  0.4340  0.0929 -0.7051
  330WAT      O 2039   5.946   2.159   3.905  0.2264 -0.1492  0.5200
  330WAT     H1 2040   5.956   2.088   3.855  0.1797  2.0933 -3.0771
  330WAT     H2 2041   5.874   2.142   3.951 -0.0974 -2.2018 -0.6214
  330WAT    EPW 2042   5.937   2.146   3.904  0.1716 -0.1212 -0.1800
  331WAT      O 2043   1.626   2.920   6.209  0.2802 -0.2349  0.4939
  331WAT     H1 2044   1.684   2.857   6.196 -1.3619 -1.6508 -0.4513
  331WAT     H2 2045   1.595   2.903   6.289  1.2662  0.6385  1.0795
  331WAT    EPW 2046   1.630   2.908   6.219  0.1833 -0.3150  0.4408
  332WAT      O 2047   5.794   3.067   5.118  0.2853  0.4158  0.6122
  332WAT     H1 2048   5.758   3.031   5.189 -1.6336  0.1974 -0.4015
  332WAT     H2 2049   5.760   3.148   5.117  0.9476  0.6999  0.3761
  332WAT    EPW 2050   5.784   3.074   5.129  0.0997  0.4255  0.4276
  333WAT      O 2051   0.983   0.266   2.376  0.0935 -0.2127  0.6993
  333WAT     H1 2052   0.906   0.239   2.407 -0.8299  0.0556 -1.2399
  333WAT     H2 2053   1.041   0.233   2.433 -1.3591 -1.4506  1.5145
  333WAT    EPW 2054   0.980   0.257   2.389 -0.2575 -0.3559  0.5332
  334WAT      O 2055   5.852   1.735   4.130 -0.3509  0.1658 -0.3636
  334WAT     H1 2056   5.792   1.672   4.132  0.6894 -0.9006 -1.2220
  334WAT     H2 2057   5.843   1.770   4.050  0.9752 -0.8800 -1.0214
  334WAT    EPW 2058   5.842   1.731   4.118 -0.0013 -0.1462 -0.5875
  335WAT      O 2059   0.604   6.477   5.037 -0.0773  0.1595  0.5133
  335WAT     H1 2060   0.566   6.436   4.970 -0.8582 -3.1272  2.7030
  335WAT     H2 2061   0.571   6.557   5.034 -2.5522 -0.8051 -1.1628
  335WAT    EPW 2062   0.594   6.483   5.026 -0.5582 -0.4685  0.5891
  336WAT      O 2063   5.705   6.715   2.806  0.1020  0.6739  0.2717
  336WAT     H1 2064   5.697   6.631   2.828 -0.6707  0.8571  0.7254
  336WAT     H2 2065   5.786   6.720   2.773  0.3204 -0.1544  0.6536
  336WAT    EPW 2066   5.716   6.703   2.805  0.0201  0.5786  0.3951
  337WAT      O 2067   5.748   7.005   2.343 -0.2800 -0.1716 -0.3278
  337WAT     H1 2068   5.794   7.009   2.417 -0.7759  1.5060 -0.0782
  337WAT     H2 2069   5.723   6.921   2.339  2.2325 -1.0065 -0.1686
  337WAT    EPW 2070   5.751   6.993   2.354  0.0179 -0.0471 -0.2674
  338WAT      O 2071   0.584   0.476   3.496 -0.5786 -0.8457 -0.2697
  338WAT     H1 2072   0.588   0.554   3.457  0.2081  0.0774  1.5420
  338WAT     H2 2073   0.634   0.426   3.445  0.4066  0.3118 -0.4992
  338WAT    EPW 2074   0.592   0.480   3.483 -0.3168 -0.5383 -0.0360
  339WAT      O 2075   5.041   3.501   5.190  0.4502 -0.4308 -0.2054
  339WAT     H1 2076   4.995   3.430   5.211 -1.6232  0.8164 -0.1844
  339WAT     H2 2077   5.064   3.534   5.267 -0.5064  0.0658 -0.1179
  339WAT    EPW 2078   5.038   3.495   5.204  0.0026 -0.1732 -0.1893
  340WAT      O 2079   3.553   4.149   1.077 -0.0657  0.4637  0.2975
  340WAT     H1 2080   3.581   4.221   1.117  0.8100 -0.3375  1.1570
  340WAT     H2 2081   3.619   4.093   1.086 -0.6529 -0.3890 -0.5323
  340WAT    EPW 2082   3.567   4.152   1.084 -0.0230  0.2194  0.3019
  341WAT      O 2083   4.293   1.606   0.603 -0.6324 -0.5569  0.6404
  341WAT     H1 2084   4.327   1.631   0.527  0.8077 -3.4782  0.1888
  341WAT     H2 2085   4.212   1.582   0.583 -2.0482  3.2120  1.0825
  341WAT    EPW 2086   4.286   1.606   0.589 -0.6288 -0.4317  0.6390
  342WAT      O 2087   0.738   5.201   3.784 -0.3595 -0.9364  0.1537
  342WAT     H1 2088   0.731   5.208   3.871 -0.0870 -0.4248  0.1340
  342WAT     H2 2089   0.669   5.244   3.754  0.5894  0.5951  0.0731
  342WAT    EPW 2090   0.727   5.208   3.793 -0.1790 -0.6346  0.1389
  343WAT      O 2091   4.122   6.374   3.784 -0.2854  0.2883  0.0105
  343WAT     H1 2092   4.096   6.320   3.849 -0.5758  0.2671 -0.1210
  343WAT     H2 2093   4.123   6.452   3.822 -0.1300  0.2279  0.1310
  343WAT    EPW 2094   4.118   6.377   3.799 -0.3053  0.2762  0.0088
  344WAT      O 2095   4.958   0.062   1.780 -0.6347  0.3166  0.1888
  344WAT     H1 2096   4.998   0.029   1.850  0.5359  0.4854 -0.3803
  344WAT     H2 2097   5.010   0.041   1.714 -0.2442  2.5555 -0.2934
  344WAT    EPW 2098   4.971   0.054   1.781 -0.4041  0.6723  0.0335
  345WAT      O 2099   0.497   5.032   0.755  0.0667 -0.2193  0.4252
  345WAT     H1 2100   0.507   5.116   0.775 -0.7552 -0.0374  0.1101
  345WAT     H2 2101   0.578   5.005   0.735  0.1476  0.8195 -0.7354
  345WAT    EPW 2102   0.511   5.040   0.755 -0.0428 -0.0389  0.2072
  346WAT      O 2103   1.652   2.685   5.549 -0.0567  0.2129  0.7288
  346WAT     H1 2104   1.651   2.772   5.550  0.7425  0.2289  1.5432
  346WAT     H2 2105   1.731   2.666   5.518 -1.3944 -0.2837 -2.8373
  346WAT    EPW 2106   1.664   2.695   5.545 -0.1362  0.1419  0.3223
  347WAT      O 2107   6.055   3.537   2.565 -0.4128 -0.3234  0.5656
  347WAT     H1 2108   6.137   3.560   2.545 -0.9763  1.2762 -0.0501
  347WAT     H2 2109   6.010   3.611   2.557 -1.7857 -0.9729  1.7702
  347WAT    EPW 2110   6.061   3.551   2.561 -0.6989 -0.1831  0.6526
  348WAT      O 2111   5.605   2.008   1.291  0.0998  0.3001  0.1990
  348WAT     H1 2112   5.533   2.051   1.268 -0.0088 -0.2450 -0.5680
  348WAT     H2 2113   5.593   1.989   1.375 -1.8342 -1.9053 -0.4591
  348WAT    EPW 2114   5.593   2.011   1.300 -0.2020 -0.1062 -0.0115
  349WAT      O 2115   3.924   2.325   0.952  0.1915  0.1949  0.8003
  349WAT     H1 2116   3.981   2.260   0.938 -0.6292 -0.6701  1.3774
  349WAT     H2 2117   3.849   2.294   0.919 -0.4143  0.4693  1.8852
  349WAT    EPW 2118   3.922   2.311   0.945 -0.0192  0.1076  1.0458
  350WAT      O 2119   5.334   4.196   6.058 -0.1644 -0.1311 -0.1868
  350WAT     H1 2120   5.406   4.208   6.010 -1.0051  1.4253 -1.1790
  350WAT     H2 2121   5.269   4.207   6.001 -1.2366 -2.3047  0.5004
  350WAT    EPW 2122   5.335   4.200   6.043 -0.4470 -0.2223 -0.2319
  351WAT      O 2123   5.926   4.185   2.730  0.4778 -0.1567 -0.8347
  351WAT     H1 2124   5.931   4.100   2.748 -3.9927 -0.4466  0.1413
  351WAT     H2 2125   5.907   4.222   2.806  1.1833  1.6103 -1.4468
  351WAT    EPW 2126   5.924   4.178   2.744 -0.0784  0.0615 -0.7809
  352WAT      O 2127   1.230   5.009   3.458 -0.6435  0.2739  0.5434
  352WAT     H1 2128   1.309   5.035   3.487 -0.7537  0.6348  0.5328
  352WAT     H2 2129   1.246   4.932   3.422 -0.2314  0.4921  0.2500
  352WAT    EPW 2130   1.244   5.002   3.457 -0.5989  0.3594  0.4985
  353WAT      O 2131   6.672   1.741   6.051 -0.9997 -0.1590  0.3483
  353WAT     H1 2132   6.587   1.732   6.066 -1.1976  1.4657  0.3791
  353WAT     H2 2133   6.676   1.798   5.985  0.0593  0.7774  1.1648
  353WAT    EPW 2134   6.660   1.748   6.043 -0.8725  0.2193  0.4735
  354WAT      O 2135   5.337   2.928   7.419 -0.5649 -0.8616  0.3675
  354WAT     H1 2136   5.331   2.861   7.475 -0.3156 -0.2276  1.1534
  354WAT     H2 2137   5.302   2.995   7.462  1.9498  0.2757  0.8019
  354WAT    EPW 2138   5.331   2.928   7.433 -0.1566 -0.5999  0.5478
  355WAT      O 2139   4.390   0.041   7.098 -0.5181  0.1312 -0.0443
  355WAT     H1 2140   4.390   0.078   7.018  1.2464  1.4906  0.5052
  355WAT     H2 2141   4.417  -0.040   7.083  0.0851  0.4605 -0.8308
  355WAT    EPW 2142   4.394   0.035   7.084 -0.1684  0.3806 -0.0793
  356WAT      O 2143   4.451   4.411   0.617 -0.3874 -0.3491 -0.5719
  356WAT     H1 2144   4.428   4.401   0.701  3.1049 -1.5642  0.4072
  356WAT     H2 2145   4.476   4.494   0.613  1.2280 -0.7512  0.2038
  356WAT    EPW 2146   4.451   4.422   0.629  0.3671 -0.5880 -0.3127
  357WAT      O 2147   5.391   3.264   1.922  0.0780  0.3607 -0.3887
  357WAT     H1 2148   5.353   3.257   1.843 -0.0543  3.0228 -0.6753
  357WAT     H2 2149   5.364   3.342   1.950  0.8657 -0.1255  1.9268
  357WAT    EPW 2150   5.381   3.275   1.914  0.1748  0.6821 -0.0890
  358WAT      O 2151   2.333   3.907   5.854 -0.0499  0.0663  0.7369
  358WAT     H1 2152   2.247   3.921   5.847  0.0287  1.6934  2.3795
  358WAT     H2 2153   2.338   3.831   5.896 -0.5372 -2.4913 -3.2712
  358WAT    EPW 2154   2.321   3.898   5.859 -0.1103 -0.0712  0.3874
  359WAT      O 2155   0.856   2.325   4.285 -0.3480 -0.4040 -0.2139
  359WAT     H1 2156   0.823   2.305   4.363 -0.4059 -0.6104 -0.2935
  359WAT     H2 2157   0.787   2.347   4.237 -0.0923  4.1758  1.0495
  359WAT    EPW 2158   0.841   2.325   4.289 -0.3188  0.2420 -0.0390
  360WAT      O 2159   5.041   4.915   6.027  0.1242  0.2113  0.1951
  360WAT     H1 2160   5.106   4.915   5.970  0.4635 -0.5785  0.5698
  360WAT     H2 2161   4.974   4.949   5.982  0.2685 -0.7714 -0.8154
  360WAT    EPW 2162   5.040   4.920   6.012  0.1956 -0.0506  0.1012
  361WAT      O 2163   2.706   0.697   3.852  0.1374  0.2741 -0.4927
  361WAT     H1 2164   2.743   0.618   3.854  0.6718  0.4985 -1.0109
  361WAT     H2 2165   2.690   0.710   3.767  2.2354  1.6746 -0.7782
  361WAT    EPW 2166   2.709   0.687   3.839  0.5262  0.5141 -0.6114
  362WAT      O 2167   0.199   7.159   1.877  0.3491  0.2985  0.8453
  362WAT     H1 2168   0.230   7.166   1.796 -1.1919  1.0685  0.2801
  362WAT     H2 2169   0.174   7.076   1.883  0.4382  0.2470  0.5065
  362WAT    EPW 2170   0.200   7.148   1.866  0.1346  0.4046  0.7118
  363WAT      O 2171   0.394   3.517   2.756 -0.1971  0.0642  0.4724
  363WAT     H1 2172   0.437   3.527   2.832 -0.2306  1.1089  0.3586
  363WAT     H2 2173   0.311   3.509   2.781 -0.3839  1.7803  0.4878
  363WAT    EPW 2174   0.388   3.517   2.771 -0.2296  0.4720  0.4579
  364WAT      O 2175   3.314   2.191   4.917  0.2048  0.0248 -0.0082
  364WAT     H1 2176   3.358   2.174   4.844 -1.4067 -1.1700 -0.7757
  364WAT     H2 2177   3.255   2.250   4.893 -1.1461 -1.2681 -0.0630
  364WAT    EPW 2178   3.311   2.197   4.903 -0.2328 -0.3427 -0.1297
  365WAT      O 2179   4.818   4.170   4.334  0.5561  0.1951 -0.1491
  365WAT     H1 2180   4.826   4.239   4.282  0.1762  0.1936 -0.2164
  365WAT     H2 2181   4.893   4.167   4.378 -0.1793  1.8585  1.3415
  365WAT    EPW 2182   4.830   4.180   4.333  0.3913  0.4406  0.0611
  366WAT      O 2183   5.512   4.393   3.833 -0.4065 -0.1814  0.0235
  366WAT     H1 2184   5.529   4.458   3.888  0.0756  0.4841 -0.8993
  366WAT     H2 2185   5.567   4.330   3.858  0.7845  0.6020 -0.5341
  366WAT    EPW 2186   5.522   4.393   3.845 -0.1593  0.0326 -0.1952
  367WAT      O 2187   4.081   6.711   3.616 -0.0254 -0.0934  0.2275
  367WAT     H1 2188   4.064   6.705   3.701  0.3794  1.5288  0.4679
  367WAT     H2 2189   4.132   6.782   3.611 -0.9762  0.5221 -1.4893
  367WAT    EPW 2190   4.086   6.721   3.628 -0.1061  0.2371  0.0094
  368WAT      O 2191   4.820   1.635   3.601 -0.2467  0.8845  0.4462
  368WAT     H1 2192   4.805   1.636   3.514  1.8078  1.9333  0.0434
  368WAT     H2 2193   4.757   1.687   3.632 -1.0310  0.4805 -0.4108
  368WAT    EPW 2194   4.808   1.643   3.592 -0.0590  0.9797  0.2601
  369WAT      O 2195   1.786   2.172   2.028 -0.2299  0.3879  0.6374
  369WAT     H1 2196   1.856   2.172   2.080 -0.1688  1.2777  0.5697
  369WAT     H2 2197   1.731   2.226   2.069 -1.2896 -1.0789  1.2155
  369WAT    EPW 2198   1.788   2.180   2.042 -0.3774  0.3027  0.7128
  370WAT      O 2199   4.747   0.008   6.582 -0.0631 -0.3247 -0.0531
  370WAT     H1 2200   4.711  -0.068   6.606 -0.2420 -0.8680 -1.8494
  370WAT     H2 2201   4.692   0.038   6.521  1.2935 -0.0329 -1.1966
  370WAT    EPW 2202   4.734   0.001   6.576  0.1109 -0.3619 -0.4874
  371WAT      O 2203   3.922   7.135   4.105  0.1862 -0.2306  0.2182
  371WAT     H1 2204   3.894   7.204   4.059  0.3631 -0.8207 -0.7986
  371WAT     H2 2205   3.880   7.143   4.181 -1.2510 -0.0291 -0.5558
  371WAT    EPW 2206   3.912   7.147   4.109  0.0000 -0.2880 -0.0464
  372WAT      O 2207   0.402   3.631   6.653 -0.1963 -0.7840  0.2872
  372WAT     H1 2208   0.479   3.610   6.617 -0.2510  0.8132 -0.8598
  372WAT     H2 2209   0.352   3.652   6.585 -0.9481  0.3457  1.1504
  372WAT    EPW 2210   0.406   3.631   6.638 -0.3154 -0.3812  0.2452
  373WAT      O 2211   5.505   5.360   4.958  0.2838 -0.3068  0.0355
  373WAT     H1 2212   5.455   5.414   5.005  0.0628  0.2148 -0.7828
  373WAT     H2 2213   5.585   5.372   4.991  0.1680  0.2279  0.1301
  373WAT    EPW 2214   5.509   5.369   4.970  0.2340 -0.1508 -0.0714
  374WAT      O 2215   5.023   4.772   3.528 -0.1296  0.1174  0.2912
  374WAT     H1 2216   4.946   4.811   3.538 -0.2640 -0.0425 -0.1177
  374WAT     H2 2217   5.074   4.834   3.494 -0.0364  0.2631  0.6866
  374WAT    EPW 2218   5.019   4.787   3.525 -0.1357  0.1153  0.2892
  375WAT      O 2219   4.332   6.027   3.218  0.2244  0.7588 -0.3007
  375WAT     H1 2220   4.294   6.007   3.142 -0.1707  1.3916 -0.2726
  375WAT     H2 2221   4.417   6.031   3.198  0.0727  1.4516 -0.8285
  375WAT    EPW 2222   4.339   6.024   3.204  0.1437  0.9546 -0.3745
  376WAT      O 2223   1.493   3.185   6.183  0.2887 -0.3630 -0.2930
  376WAT     H1 2224   1.562   3.138   6.158 -0.5170 -0.5915 -2.3192
  376WAT     H2 2225   1.440   3.125   6.218  0.3416 -0.5114 -0.4646
  376WAT    EPW 2226   1.495   3.169   6.185  0.1775 -0.4186 -0.6177
  377WAT      O 2227   5.484   1.238   6.893 -0.2270 -0.5840  0.1922
  377WAT     H1 2228   5.566   1.245   6.922  0.2548 -0.4178 -1.1297
  377WAT     H2 2229   5.453   1.319   6.898 -0.6672 -0.8130  1.6149
  377WAT    EPW 2230   5.491   1.251   6.898 -0.2208 -0.5933  0.2070
  378WAT      O 2231   5.202   5.276   4.716 -0.1496  0.1712  0.3040
  378WAT     H1 2232   5.157   5.203   4.732 -0.2476  0.6615  2.7183
  378WAT     H2 2233   5.284   5.254   4.734 -0.1408  0.5724  0.7717
  378WAT    EPW 2234   5.207   5.262   4.721 -0.1628  0.3029  0.7297
  379WAT      O 2235   1.777   1.936   5.804 -0.4349 -0.6310 -0.1525
  379WAT     H1 2236   1.732   1.994   5.851  1.6813  1.2077 -0.2113
  379WAT     H2 2237   1.716   1.883   5.773 -2.9598  2.9712 -2.1654
  379WAT    EPW 2238   1.761   1.937   5.806 -0.4953  0.1727 -0.4586
  380WAT      O 2239   4.103   0.063   2.811 -0.0852 -0.5267  0.0808
  380WAT     H1 2240   4.054   0.000   2.776  0.2698 -0.8064  0.0868
  380WAT     H2 2241   4.184   0.033   2.804  0.0814 -0.1099  0.1673
  380WAT    EPW 2242   4.107   0.049   2.805 -0.0082 -0.5065  0.0945
  381WAT      O 2243   1.919   0.939   0.585  0.1063 -0.1373  0.0685
  381WAT     H1 2244   1.930   0.906   0.666  0.4918  0.4939  0.2745
  381WAT     H2 2245   1.929   1.025   0.596 -0.7785  0.0556 -0.4898
  381WAT    EPW 2246   1.922   0.947   0.599  0.0326 -0.0156  0.0164
  382WAT      O 2247   6.031   2.564   2.339 -0.2965  0.6926 -0.4367
  382WAT     H1 2248   6.074   2.640   2.336  0.5888  0.1710 -1.1262
  382WAT     H2 2249   6.077   2.516   2.395  0.8755 -0.3462 -2.1981
  382WAT    EPW 2250   6.044   2.568   2.347  0.0074  0.4621 -0.7988
  383WAT      O 2251   3.690   4.792   2.188 -0.5924  0.1822  0.0264
  383WAT     H1 2252   3.605   4.791   2.210 -0.4765 -0.4223  0.4999
  383WAT     H2 2253   3.689   4.781   2.102 -1.0257  1.1785 -0.1078
  383WAT    EPW 2254   3.677   4.790   2.179 -0.6393  0.2401  0.0765
  384WAT      O 2255   5.258   1.953   5.956  0.5232 -0.1988 -0.0244
  384WAT     H1 2256   5.318   1.939   6.018  0.8430 -1.8392 -0.6653
  384WAT     H2 2257   5.286   2.026   5.917  1.3974 -0.2382  0.4976
  384WAT    EPW 2258   5.271   1.962   5.959  0.6996 -0.4470 -0.0420
  385WAT      O 2259   6.938   0.105   3.977  0.9461  0.2781  0.1222
  385WAT     H1 2260   6.974   0.039   4.022  0.0408 -0.6792 -0.5073
  385WAT     H2 2261   6.998   0.168   3.982  1.6713 -0.4450  1.0798
  385WAT    EPW 2262   6.952   0.105   3.984  0.9195  0.0299  0.1707
  386WAT      O 2263   0.077   6.602   0.361 -0.4631  0.0844 -0.0560
  386WAT     H1 2264   0.037   6.661   0.311  1.2778  0.8780 -0.6105
  386WAT     H2 2265   0.021   6.535   0.364 -1.6380  0.9897 -1.0569
  386WAT    EPW 2266   0.063   6.601   0.354 -0.3795  0.3353 -0.2858
  387WAT      O 2267   6.916   6.366   3.937  0.2324 -0.0779  0.2337
  387WAT     H1 2268   6.908   6.409   4.012  0.0460 -0.9897  0.7506
  387WAT     H2 2269   6.838   6.327   3.927  0.1131  0.3441 -0.6419
  387WAT    EPW 2270   6.903   6.367   3.946  0.1872 -0.1502  0.1807
  388WAT      O 2271   6.820   5.457   3.337 -0.7841 -0.1177  0.4727
  388WAT     H1 2272   6.821   5.393   3.278  1.3412 -0.3056  0.6178
  388WAT     H2 2273   6.792   5.526   3.292  1.3574 -0.1033 -1.0072
  388WAT    EPW 2274   6.816   5.458   3.322 -0.1538 -0.1433  0.2755
  389WAT      O 2275   6.776   0.200   7.113 -0.5753  0.1272  0.2601
  389WAT     H1 2276   6.764   0.168   7.032  0.9777 -0.1425  0.0968
  389WAT     H2 2277   6.697   0.227   7.137 -0.9927  0.6087 -1.5259
  389WAT    EPW 2278   6.763   0.199   7.105 -0.4075  0.1585 -0.0279
  390WAT      O 2279   4.978   1.219   3.567  0.2708  0.2106 -0.1977
  390WAT     H1 2280   5.016   1.286   3.527  1.0937 -0.1331 -0.0205
  390WAT     H2 2281   5.033   1.199   3.632  0.1795 -0.7908 -0.4027
  390WAT    EPW 2282   4.992   1.226   3.571  0.3789  0.0119 -0.2018
  391WAT      O 2283   2.113   0.134   0.624 -0.3678  0.2068 -0.2458
  391WAT     H1 2284   2.157   0.060   0.610 -0.3634  0.1488  0.0680
  391WAT     H2 2285   2.172   0.186   0.661 -0.0747  0.7287 -1.3828
  391WAT    EPW 2286   2.128   0.131   0.627 -0.3238  0.2753 -0.3674
  392WAT      O 2287   1.947   1.207   3.486  0.0423 -0.1060  0.2997
  392WAT     H1 2288   1.904   1.168   3.550 -0.7728 -0.1885 -0.2809
  392WAT     H2 2289   1.886   1.222   3.426  1.0601 -1.6662 -1.2351
  392WAT    EPW 2290   1.932   1.204   3.486  0.0722 -0.3486 -0.0128
  393WAT      O 2291   3.977   4.915   6.109  0.4521 -0.0639  0.0581
  393WAT     H1 2292   4.015   4.991   6.089  0.4935 -0.3757 -1.1033
  393WAT     H2 2293   3.949   4.885   6.032  0.9212 -1.4810  0.4192
  393WAT    EPW 2294   3.979   4.922   6.095  0.5275 -0.3193 -0.0601
  394WAT      O 2295   5.699   5.703   5.111 -0.9005  0.0218  0.6058
  394WAT     H1 2296   5.693   5.733   5.193 -0.7431  0.0787  0.5969
  394WAT     H2 2297   5.623   5.728   5.075 -0.7916  0.3680  0.6127
  394WAT    EPW 2298   5.687   5.711   5.118 -0.8612  0.0813  0.6055
  395WAT      O 2299   2.047   0.647   1.946  0.3849 -0.1130  0.1371
  395WAT     H1 2300   2.069   0.631   2.029  1.1108 -3.4507 -0.5546
  395WAT     H2 2301   1.960   0.653   1.949  0.4019 -0.1975  1.1106
  395WAT    EPW 2302   2.037   0.646   1.959  0.4947 -0.6185  0.1787
  396WAT      O 2303   1.763   5.170   7.312  0.0054 -0.1015 -0.2412
  396WAT     H1 2304   1.731   5.249   7.329  3.4060  1.2410  0.8902
  396WAT     H2 2305   1.792   5.177   7.230 -0.7227 -0.5945 -0.5463
  396WAT    EPW 2306   1.763   5.183   7.302  0.4001  0.0240 -0.1191
  397WAT      O 2307   1.338   3.516   2.616  0.4157 -0.2559 -0.4513
  397WAT     H1 2308   1.263   3.487   2.584  0.2686  0.2564 -0.5767
  397WAT     H2 2309   1.325   3.602   2.625  0.6056 -0.3106  0.5411
  397WAT    EPW 2310   1.325   3.525   2.613  0.4220 -0.1883 -0.3232
  398WAT      O 2311   3.545   4.235   0.470 -0.0234  0.7507  0.2338
  398WAT     H1 2312   3.612   4.269   0.426  1.4656 -2.0611  0.0835
  398WAT     H2 2313   3.518   4.169   0.419 -0.2628 -0.6632  2.0686
  398WAT    EPW 2314   3.551   4.230   0.456  0.1612  0.1265  0.4826
  399WAT      O 2315   5.577   6.469   2.955 -0.0161  0.4467  0.0519
  399WAT     H1 2316   5.519   6.463   3.020  0.8213 -1.1705  0.7170
  399WAT     H2 2317   5.558   6.400   2.905  1.8995 -0.7211  0.8244
  399WAT    EPW 2318   5.566   6.458   2.957  0.3906  0.0353  0.2643
  400WAT      O 2319   3.233   3.808   2.070 -0.9503 -0.4133 -0.5188
  400WAT     H1 2320   3.241   3.894   2.067  1.9291 -0.6043 -1.7597
  400WAT     H2 2321   3.183   3.790   2.001  0.6041  0.1723 -1.8573
  400WAT    EPW 2322   3.227   3.818   2.059 -0.2954 -0.3550 -0.8998
  401WAT      O 2323   0.051   2.669   2.769  0.5905  0.2671  0.0914
  401WAT     H1 2324  -0.015   2.723   2.752  0.1694  0.0342  0.9229
  401WAT     H2 2325   0.050   2.613   2.703  0.6404  0.9015 -0.4538
  401WAT    EPW 2326   0.041   2.669   2.757  0.5357  0.3264  0.1337
  402WAT      O 2327   4.499   6.248   0.780  0.4615  0.5484 -0.1994
  402WAT     H1 2328   4.542   6.223   0.709  1.7888 -0.1598  0.7986
  402WAT     H2 2329   4.422   6.275   0.749  0.3938 -1.1859 -1.7558
  402WAT    EPW 2330   4.494   6.248   0.765  0.6476  0.1876 -0.2819
  403WAT      O 2331   2.707   4.809   2.827  0.6730 -0.4160 -0.0256
  403WAT     H1 2332   2.745   4.789   2.751 -1.0124  0.0512 -1.0350
  403WAT     H2 2333   2.650   4.744   2.840  1.1536 -0.6591  1.0273
  403WAT    EPW 2334   2.704   4.796   2.818  0.4950 -0.3829 -0.0192
  404WAT      O 2335   2.499   7.036   0.514  0.1835  0.0161 -0.1322
  404WAT     H1 2336   2.440   6.971   0.521 -0.3297  0.4830 -0.0476
  404WAT     H2 2337   2.529   7.028   0.433 -1.4384  0.9688 -0.8800
  404WAT    EPW 2338   2.495   7.025   0.503 -0.1319  0.2258 -0.2302
  405WAT      O 2339   6.477   0.004   0.939 -0.6165  0.4597  0.4249
  405WAT     H1 2340   6.422  -0.061   0.919  0.5103 -0.2797 -0.4366
  405WAT     H2 2341   6.442   0.040   1.011 -1.9537 -0.2706  0.1683
  405WAT    EPW 2342   6.463   0.000   0.947 -0.6476  0.2426  0.2598
  406WAT      O 2343   0.783   0.496   3.968  0.0372 -0.0989 -0.6702
  406WAT     H1 2344   0.788   0.516   3.883 -1.6713  1.2441 -0.5119
  406WAT     H2 2345   0.697   0.499   3.984  0.1033 -2.7002  0.6109
  406WAT    EPW 2346   0.771   0.500   3.958 -0.2054 -0.2848 -0.4576
  407WAT      O 2347   6.206   6.825   2.763 -0.3523 -0.1130 -0.0610
  407WAT     H1 2348   6.234   6.743   2.758  0.5957  0.1468  0.7304
  407WAT     H2 2349   6.201   6.841   2.849 -2.0557  0.1690 -0.1676
  407WAT    EPW 2350   6.209   6.815   2.775 -0.4639 -0.0330  0.0402
  408WAT      O 2351   5.620   2.297   0.918 -0.2950  0.0179 -0.2550
  408WAT     H1 2352   5.533   2.291   0.909 -0.2616  0.4267 -0.9221
  408WAT     H2 2353   5.636   2.381   0.899  0.3792 -0.3448 -1.3163
  408WAT    EPW 2354   5.609   2.309   0.914 -0.1905  0.0247 -0.5103
  409WAT      O 2355   4.494   1.759   5.796  0.2006  0.3907 -0.3575
  409WAT     H1 2356   4.534   1.685   5.819 -1.3255 -0.1781  0.6400
  409WAT     H2 2357   4.560   1.813   5.778  1.3719 -1.1559 -1.0072
  409WAT    EPW 2358   4.510   1.756   5.797  0.1482  0.0782 -0.3061
  410WAT      O 2359   7.149   6.615   2.254  0.0188  0.7699  0.1813
  410WAT     H1 2360   7.106   6.545   2.226  1.2076  0.0582  0.1041
  410WAT     H2 2361   7.188   6.588   2.327  2.8663  0.4093 -1.3326
  410WAT    EPW 2362   7.148   6.601   2.261  0.6151  0.6115 -0.0537
  411WAT      O 2363   1.567   4.669   5.360 -0.2759 -0.6936  0.5549
  411WAT     H1 2364   1.588   4.585   5.348 -2.0090 -0.8572 -2.4834
  411WAT     H2 2365   1.628   4.712   5.315 -1.2288 -0.5952 -0.6884
  411WAT    EPW 2366   1.579   4.663   5.352 -0.6727 -0.7032 -0.0776
  412WAT      O 2367   0.191   4.278   0.273  0.4244  0.0016  0.0146
  412WAT     H1 2368   0.251   4.218   0.295  2.2063  2.3411  2.2468
  412WAT     H2 2369   0.239   4.346   0.246 -1.2581  1.5934  0.7934
  412WAT    EPW 2370   0.207   4.280   0.272  0.4391  0.5823  0.4594
  413WAT      O 2371   7.305   5.418   4.657 -0.0900 -0.3463  0.0772
  413WAT     H1 2372   7.326   5.491   4.699 -1.8326 -0.2102  0.8107
  413WAT     H2 2373   7.298   5.443   4.574  0.3307  0.0905  0.1706
  413WAT    EPW 2374   7.307   5.432   4.651 -0.2853 -0.2617  0.1993
  414WAT      O 2375   0.155   2.215   0.846 -0.3331 -0.0580  0.1666
  414WAT     H1 2376   0.228   2.257   0.821 -0.0730 -0.3317  0.4662
  414WAT     H2 2377   0.120   2.189   0.770 -0.6636  0.9590 -0.0491
  414WAT    EPW 2378   0.161   2.217   0.831 -0.3435  0.0518  0.1790
  415WAT      O 2379   0.293   2.385   2.741 -0.0002  0.0544  0.0607
  415WAT     H1 2380   0.296   2.464   2.778 -0.1653  0.5294 -0.9078
  415WAT     H2 2381   0.336   2.335   2.797  1.2420  1.0906  0.0776
  415WAT    EPW 2382   0.299   2.389   2.755  0.1589  0.2776 -0.0799
  416WAT      O 2383   4.234   4.156   0.940  0.3176  0.7474 -0.0351
  416WAT     H1 2384   4.309   4.199   0.951 -0.4521  2.0255  0.3456
  416WAT     H2 2385   4.221   4.160   0.853  0.0380  1.6667  0.0410
  416WAT    EPW 2386   4.243   4.163   0.928  0.1626  1.0720  0.0324
  417WAT      O 2387   1.656   4.634   6.585 -0.6473  0.3311 -0.1138
  417WAT     H1 2388   1.572   4.647   6.603 -1.2493 -0.1068 -2.3531
  417WAT     H2 2389   1.662   4.548   6.574  0.2742  0.2671  0.7256
  417WAT    EPW 2390   1.644   4.623   6.586 -0.6001  0.2570 -0.3206
  418WAT      O 2391   4.775   7.051   1.536 -0.5626 -0.1403 -0.0359
  418WAT     H1 2392   4.745   6.972   1.516  0.6513 -0.4281 -0.7964
  418WAT     H2 2393   4.704   7.101   1.530 -1.1581 -1.0051 -0.5238
  418WAT    EPW 2394   4.760   7.047   1.532 -0.4712 -0.3106 -0.2203
  419WAT      O 2395   1.882   4.158   5.274  0.7498  0.8641 -0.5273
  419WAT     H1 2396   1.928   4.095   5.311  0.9131  1.0342 -0.4392
  419WAT     H2 2397   1.888   4.225   5.330 -0.0499  0.7198 -0.2569
  419WAT    EPW 2398   1.890   4.159   5.287  0.6558  0.8679 -0.4743
  420WAT      O 2399   2.710   0.639   6.779 -0.5300 -0.1462 -0.4197
  420WAT     H1 2400   2.794   0.614   6.775 -0.1984  0.2496  2.3546
  420WAT     H2 2401   2.708   0.693   6.847 -3.6239 -2.7005  1.7767
  420WAT    EPW 2402   2.722   0.643   6.788 -0.9381 -0.4650  0.3146
  421WAT      O 2403   5.607   1.254   3.587  0.2574  0.0020 -0.0504
  421WAT     H1 2404   5.610   1.168   3.576  2.2055  0.1977 -1.6982
  421WAT     H2 2405   5.691   1.279   3.578 -0.2606  2.0864  0.2236
  421WAT    EPW 2406   5.620   1.245   3.584  0.4687  0.3389 -0.2533
  422WAT      O 2407   5.737   0.921   1.266  0.4573 -0.1704 -0.1370
  422WAT     H1 2408   5.761   0.849   1.309  0.8941  0.2637  0.3768
  422WAT     H2 2409   5.812   0.965   1.257  0.2046  0.1930 -0.4843
  422WAT    EPW 2410   5.752   0.917   1.271  0.4845 -0.0526 -0.1124
  423WAT      O 2411   6.125   3.376   1.013 -0.6189  0.1460  0.4214
  423WAT     H1 2412   6.154   3.298   0.986 -1.4008 -0.1103  0.2760
  423WAT     H2 2413   6.191   3.408   1.060  0.1145 -0.1457 -0.3911
  423WAT    EPW 2414   6.139   3.369   1.016 -0.6261  0.0650  0.2799
  424WAT      O 2415   3.355   6.142   1.722 -0.0555  0.0467  0.0163
  424WAT     H1 2416   3.291   6.200   1.734 -0.6507 -0.0848 -2.1433
  424WAT     H2 2417   3.410   6.184   1.668 -0.1974 -1.1336 -1.0947
  424WAT    EPW 2418   3.354   6.157   1.716 -0.1644 -0.1471 -0.4668
  425WAT      O 2419   3.698   1.973   1.495  0.0530  0.3272  0.0766
  425WAT     H1 2420   3.734   1.943   1.421 -0.0965 -1.7782  0.7804
  425WAT     H2 2421   3.755   1.948   1.556 -1.5016 -1.1491  0.9914
  425WAT    EPW 2422   3.712   1.965   1.493 -0.1988 -0.2019  0.3157
  426WAT      O 2423   5.847   6.696   3.883  0.3885 -0.0242 -0.5224
  426WAT     H1 2424   5.886   6.628   3.921  0.5129 -0.2097 -0.9798
  426WAT     H2 2425   5.789   6.722   3.943  1.1955  0.2502  0.1619
  426WAT    EPW 2426   5.844   6.690   3.897  0.5261 -0.0111 -0.4889
  427WAT      O 2427   4.422   3.345   3.976 -0.0562 -0.1390  0.2296
  427WAT     H1 2428   4.351   3.396   3.983  0.3249  0.5086 -0.5018
  427WAT     H2 2429   4.419   3.296   4.048 -2.2915 -1.4764 -0.6480
  427WAT    EPW 2430   4.411   3.345   3.987 -0.3301 -0.2409 -0.0081
  428WAT      O 2431   1.648   5.258   0.514 -0.0936 -0.3070 -0.7079
  428WAT     H1 2432   1.687   5.184   0.488  0.1469 -0.8701  1.1235
  428WAT     H2 2433   1.681   5.271   0.593 -2.2648  0.2024  0.1651
  428WAT    EPW 2434   1.659   5.249   0.522 -0.3788 -0.3149 -0.3084
  429WAT      O 2435   0.155   4.827   1.986  0.0260 -0.0943 -0.1543
  429WAT     H1 2436   0.217   4.880   1.954  0.6570 -1.4069 -1.1806
  429WAT     H2 2437   0.103   4.813   1.918  0.8672 -2.1883 -0.4484
  429WAT    EPW 2438   0.157   4.833   1.972  0.2435 -0.5976 -0.3493
  430WAT      O 2439   5.940   2.459   5.022  0.9250 -0.2725  0.8188
  430WAT     H1 2440   5.907   2.538   5.007  0.3492 -0.7035 -0.2982
  430WAT     H2 2441   5.946   2.424   4.942  0.2230 -1.7247  1.3698
  430WAT    EPW 2442   5.936   2.466   5.008  0.7363 -0.5507  0.7352
  431WAT      O 2443   1.572   1.241   1.927 -0.1470  0.8852  0.1340
  431WAT     H1 2444   1.651   1.240   1.891  0.0416 -0.0815  0.5354
  431WAT     H2 2445   1.542   1.160   1.913 -0.8154  1.0549  0.5192
  431WAT    EPW 2446   1.579   1.229   1.920 -0.2179  0.7675  0.2502
  432WAT      O 2447   3.862   1.481   2.365 -0.2213 -0.2712 -0.5552
  432WAT     H1 2448   3.785   1.517   2.385 -0.4079 -0.9248 -0.0435
  432WAT     H2 2449   3.851   1.452   2.284  0.3191  1.8223 -1.4482
  432WAT    EPW 2450   3.849   1.482   2.356 -0.1690 -0.0585 -0.6115
  433WAT      O 2451   1.138   5.850   0.942 -0.7997 -0.3604 -0.4922
  433WAT     H1 2452   1.138   5.783   0.998 -0.3301  0.0478  0.0123
  433WAT     H2 2453   1.142   5.812   0.864 -0.0063 -0.9067 -0.1938
  433WAT    EPW 2454   1.138   5.835   0.939 -0.6131 -0.3808 -0.3736
  434WAT      O 2455   5.197   4.611   6.170 -0.1530  0.1323 -0.1721
  434WAT     H1 2456   5.251   4.666   6.129 -0.3352 -0.9960 -2.0546
  434WAT     H2 2457   5.133   4.663   6.199 -0.2981  0.9752 -1.8397
  434WAT    EPW 2458   5.196   4.627   6.168 -0.2014  0.0901 -0.6965
  435WAT      O 2459   5.731   0.443   5.326 -0.3964 -0.1767  0.3074
  435WAT     H1 2460   5.731   0.489   5.400 -2.4209  1.2146 -0.4834
  435WAT     H2 2461   5.674   0.379   5.342 -0.8020  0.0983 -0.0272
  435WAT    EPW 2462   5.722   0.440   5.339 -0.7554  0.0694  0.1411
  436WAT      O 2463   7.041   1.809   6.174  0.4830 -0.0857  0.6760
  436WAT     H1 2464   7.127   1.811   6.185  0.2582  0.0834  2.8641
  436WAT     H2 2465   7.031   1.766   6.099  2.4280 -1.9231  1.3589
  436WAT    EPW 2466   7.052   1.803   6.165  0.7371 -0.3321  1.1001
  437WAT      O 2467   1.408   6.545   4.246  0.0746 -0.6397 -0.4127
  437WAT     H1 2468   1.461   6.583   4.189 -0.7850 -0.2687 -0.9800
  437WAT     H2 2469   1.363   6.488   4.198 -1.3403  0.3504 -0.3204
  437WAT    EPW 2470   1.409   6.542   4.231 -0.2614 -0.4386 -0.4828
  438WAT      O 2471   1.389   0.931   2.491  0.4863  0.4538 -0.1582
  438WAT     H1 2472   1.469   0.965   2.479 -0.1571  1.0544 -3.7318
  438WAT     H2 2473   1.394   0.853   2.452 -0.0570 -0.5927  1.7569
  438WAT    EPW 2474   1.402   0.924   2.483  0.3110  0.3880 -0.4032
  439WAT      O 2475   3.642   3.642   6.586 -0.7375 -0.2178 -0.4000
  439WAT     H1 2476   3.686   3.714   6.607 -1.4913  0.1218  0.0844
  439WAT     H2 2477   3.691   3.577   6.616 -1.6085  0.2328  2.2368
  439WAT    EPW 2478   3.655   3.643   6.593 -0.9775 -0.1011  0.0611
  440WAT      O 2479   6.787   0.152   4.475 -0.7198  0.2270 -0.1327
  440WAT     H1 2480   6.848   0.185   4.528  0.3162  0.0692 -1.1947
  440WAT     H2 2481   6.831   0.100   4.422 -1.4240  1.6696 -2.2791
  440WAT    EPW 2482   6.802   0.149   4.475 -0.6708  0.4168 -0.6067
  441WAT      O 2483   2.808   4.675   1.863  0.7600 -0.6911 -0.7891
  441WAT     H1 2484   2.764   4.603   1.840 -1.6036  0.6753 -0.8788
  441WAT     H2 2485   2.804   4.675   1.950 -0.0544 -0.2476 -0.8130
  441WAT    EPW 2486   2.801   4.664   1.873  0.2905 -0.4237 -0.8059
  442WAT      O 2487   2.925   1.025   3.673 -0.0747  0.5102 -0.4834
  442WAT     H1 2488   2.885   0.973   3.615  0.2277  0.7592 -0.9197
  442WAT     H2 2489   2.872   1.022   3.742  0.0108 -0.4985 -0.4412
  442WAT    EPW 2490   2.911   1.017   3.674 -0.0174  0.3980 -0.5416
  443WAT      O 2491   5.125   7.221   5.633 -0.3985 -0.0130  0.8784
  443WAT     H1 2492   5.197   7.175   5.649  0.5271  0.7262 -0.9033
  443WAT     H2 2493   5.077   7.168   5.584  0.1298  0.4267 -0.1469
  443WAT    EPW 2494   5.129   7.206   5.628 -0.1838  0.1611  0.4637
  444WAT      O 2495   4.441   5.394   1.903  0.3714  0.1459 -0.3916
  444WAT     H1 2496   4.390   5.433   1.844 -0.2426  1.2554  0.8091
  444WAT     H2 2497   4.486   5.461   1.937  0.3042 -0.3854  0.7643
  444WAT    EPW 2498   4.440   5.410   1.899  0.2708  0.2313 -0.0435
  445WAT      O 2499   6.291   3.694   2.459 -0.5721  1.1784  0.0104
  445WAT     H1 2500   6.360   3.722   2.504  2.1644 -3.0558 -0.9517
  445WAT     H2 2501   6.313   3.710   2.376 -0.6377 -0.1833 -0.3021
  445WAT    EPW 2502   6.304   3.700   2.453 -0.1775  0.3518 -0.1779
  446WAT      O 2503   5.622   3.687   6.748  0.0404 -0.5835  0.2156
  446WAT     H1 2504   5.600   3.757   6.701 -0.4200  0.4914  1.9826
  446WAT     H2 2505   5.588   3.621   6.702  1.3495  0.1914 -2.0178
  446WAT    EPW 2506   5.614   3.687   6.734  0.1657 -0.3102  0.1467
  447WAT      O 2507   6.114   0.288   0.309  0.3589  0.5410 -0.1416
  447WAT     H1 2508   6.125   0.374   0.322 -2.0435  0.9487 -0.2196
  447WAT     H2 2509   6.050   0.267   0.365 -0.1719 -0.8584 -1.2139
  447WAT    EPW 2510   6.106   0.298   0.319 -0.0744  0.3945 -0.3116
  448WAT      O 2511   2.563   6.992   4.017  0.2778 -0.0741 -0.1589
  448WAT     H1 2512   2.492   7.002   4.067  0.8357 -2.5838  1.3102
  448WAT     H2 2513   2.628   7.005   4.073  0.9492 -0.4222 -0.8483
  448WAT    EPW 2514   2.562   6.996   4.033  0.4594 -0.4962 -0.0437
  449WAT      O 2515   4.836   4.339   4.617  0.0048  0.7208  0.3469
  449WAT     H1 2516   4.761   4.325   4.575  0.7497 -1.3817 -0.4479
  449WAT     H2 2517   4.824   4.299   4.694  0.2450  0.4942  0.2694
  449WAT    EPW 2518   4.823   4.331   4.622  0.1503  0.3767  0.2180
  450WAT      O 2519   4.516   0.428   7.019 -0.4349  0.1767 -0.1780
  450WAT     H1 2520   4.557   0.353   7.037  0.1228  0.7597  1.1386
  450WAT     H2 2521   4.432   0.410   7.035 -0.4840 -0.5229 -1.1524
  450WAT    EPW 2522   4.510   0.415   7.024 -0.3598  0.1595 -0.1275
  451WAT      O 2523   3.011   1.044   5.736  0.2875 -0.2705  0.6656
  451WAT     H1 2524   3.076   1.040   5.794  2.2204  1.3990 -1.2157
  451WAT     H2 2525   3.030   0.981   5.679  0.4073  0.3492 -0.0006
  451WAT    EPW 2526   3.023   1.034   5.736  0.5907  0.0677  0.2893
  452WAT      O 2527   1.766   7.208   2.695  0.1665 -0.4846  0.0522
  452WAT     H1 2528   1.696   7.257   2.709 -0.2637 -0.0224 -3.0353
  452WAT     H2 2529   1.833   7.260   2.716 -0.3580  0.5788 -0.8304
  452WAT    EPW 2530   1.766   7.223   2.700  0.0255 -0.2593 -0.5342
  453WAT      O 2531   1.855   4.846   1.750  0.1929  1.1011  0.1503
  453WAT     H1 2532   1.806   4.855   1.821 -0.9430  1.9222 -0.7061
  453WAT     H2 2533   1.797   4.830   1.686  1.2901 -1.2189 -0.3703
  453WAT    EPW 2534   1.839   4.845   1.751  0.1872  0.8797 -0.0531
  454WAT      O 2535   5.276   2.391   1.558  0.3146 -0.0851  0.1964
  454WAT     H1 2536   5.286   2.386   1.645 -0.5318 -2.0731  0.2314
  454WAT     H2 2537   5.298   2.473   1.540 -1.7485  1.1486  2.5962
  454WAT    EPW 2538   5.281   2.402   1.568 -0.1152 -0.1965  0.5561
  455WAT      O 2539   1.406   6.500   1.810  0.3394  0.3300  0.5974
  455WAT     H1 2540   1.329   6.529   1.840  0.5035  1.0863  0.2933
  455WAT     H2 2541   1.397   6.413   1.812 -0.2714  0.4013  1.2186
  455WAT    EPW 2542   1.393   6.492   1.815  0.2734  0.4522  0.6443
  456WAT      O 2543   4.515   2.401   7.269 -0.0023  0.3458 -0.2881
  456WAT     H1 2544   4.507   2.372   7.188  1.6084  0.4231 -0.5029
  456WAT     H2 2545   4.549   2.481   7.259 -1.5407  1.1463  0.4160
  456WAT    EPW 2546   4.519   2.408   7.256  0.0084  0.4755 -0.2158
  457WAT      O 2547   4.686   6.444   4.196 -0.2348 -0.2162  0.2463
  457WAT     H1 2548   4.698   6.381   4.137 -0.7132  0.0161 -0.1104
  457WAT     H2 2549   4.662   6.513   4.147  0.3721  0.2633  0.6194
  457WAT    EPW 2550   4.684   6.445   4.180 -0.2159 -0.1111  0.2487
  458WAT      O 2551   5.465   5.655   6.344  0.1342 -0.0791  0.3865
  458WAT     H1 2552   5.386   5.656   6.308 -0.0030 -0.2040  0.6835
  458WAT     H2 2553   5.449   5.654   6.430  0.4589  0.4875  0.4612
  458WAT    EPW 2554   5.451   5.655   6.352  0.1619 -0.0138  0.4414
  459WAT      O 2555   3.557   4.194   5.757  0.4104 -0.1264  0.1789
  459WAT     H1 2556   3.591   4.114   5.755 -0.2834 -0.4293 -0.8892
  459WAT     H2 2557   3.472   4.180   5.744  0.3153  0.7892 -0.2756
  459WAT    EPW 2558   3.550   4.180   5.755  0.2939 -0.0359 -0.0460
  460WAT      O 2559   0.864   5.727   6.024  0.2119  0.3477  0.8165
  460WAT     H1 2560   0.834   5.653   6.060 -0.0555  0.7551  1.4356
  460WAT     H2 2561   0.856   5.711   5.938 -1.8329  0.4132  0.9247
  460WAT    EPW 2562   0.858   5.714   6.016 -0.1296  0.4176  0.9240
  461WAT      O 2563   6.400   6.464   0.788 -0.2631 -0.3055 -0.0613
  461WAT     H1 2564   6.459   6.443   0.848  0.5709 -0.8146 -1.0255
  461WAT     H2 2565   6.447   6.470   0.715 -1.6631 -2.9055 -1.3050
  461WAT    EPW 2566   6.416   6.462   0.786 -0.3467 -0.7648 -0.3875
  462WAT      O 2567   5.301   2.618   3.064  0.3364  0.2431 -0.4921
  462WAT     H1 2568   5.280   2.582   3.141  0.3926  0.3361 -0.4319
  462WAT     H2 2569   5.372   2.574   3.040  0.1001 -0.0371 -0.6717
  462WAT    EPW 2570   5.308   2.606   3.072  0.3098  0.2154 -0.5097
  463WAT      O 2571   0.759   4.289   5.258  0.4193 -0.2236  0.0043
  463WAT     H1 2572   0.711   4.297   5.186  1.1684  1.6914 -0.3383
  463WAT     H2 2573   0.719   4.341   5.316  0.2634 -1.1482  0.7738
  463WAT    EPW 2574   0.746   4.298   5.256  0.5069 -0.0773  0.0674
  464WAT      O 2575   5.544   2.867   2.492  0.1966  0.2773  0.2831
  464WAT     H1 2576   5.509   2.791   2.466 -1.2464  0.2745  2.0643
  464WAT     H2 2577   5.613   2.876   2.440 -1.9473 -0.1351 -2.9188
  464WAT    EPW 2578   5.549   2.857   2.480 -0.3333  0.2159  0.0733
  465WAT      O 2579   0.340   0.746   3.767 -0.1241  0.2996 -0.7730
  465WAT     H1 2580   0.375   0.753   3.688  0.0355  0.7809 -0.6624
  465WAT     H2 2581   0.304   0.824   3.781 -0.7873 -0.0146 -0.6627
  465WAT    EPW 2582   0.340   0.758   3.758 -0.1985  0.3243 -0.7404
  466WAT      O 2583   6.100   0.305   2.486  0.1557 -0.2098 -0.3050
  466WAT     H1 2584   6.025   0.315   2.529  0.1842 -1.7305  0.1629
  466WAT     H2 2585   6.094   0.363   2.421 -2.1914 -1.3809 -1.2878
  466WAT    EPW 2586   6.088   0.315   2.483 -0.1868 -0.6075 -0.3811
  467WAT      O 2587   4.048   0.853   1.501 -0.6619 -0.4458 -0.3325
  467WAT     H1 2588   4.094   0.784   1.527  0.8589  0.5551 -0.1971
  467WAT     H2 2589   3.967   0.837   1.530  0.0360 -1.3564  1.2227
  467WAT    EPW 2590   4.043   0.840   1.509 -0.3342 -0.4324 -0.0828
  468WAT      O 2591   4.492   0.664   3.123  0.1996  0.1958  0.7269
  468WAT     H1 2592   4.528   0.735   3.086  1.1923  0.3622  1.9292
  468WAT     H2 2593   4.537   0.598   3.088 -1.2464  0.0344 -0.9923
  468WAT    EPW 2594   4.504   0.665   3.112  0.1327  0.1965  0.6505
  469WAT      O 2595   1.443   1.464   4.313  0.5506  0.1674  0.1328
  469WAT     H1 2596   1.467   1.548   4.316  1.6121 -0.1035 -0.4493
  469WAT     H2 2597   1.423   1.452   4.229 -2.0787  0.4636  0.6060
  469WAT    EPW 2598   1.443   1.475   4.301  0.3190  0.1711  0.1167
  470WAT      O 2599   6.383   1.698   6.425  0.1892 -0.3152  0.1351
  470WAT     H1 2600   6.388   1.688   6.339  1.2389  0.9409  0.0146
  470WAT     H2 2601   6.300   1.682   6.443  0.4258 -3.0671 -0.7427
  470WAT    EPW 2602   6.372   1.694   6.415  0.3792 -0.5362 -0.0124
  471WAT      O 2603   1.399   4.060   4.557 -0.1978 -0.4126  0.4384
  471WAT     H1 2604   1.370   3.978   4.549 -0.7902 -0.1100 -0.8100
  471WAT     H2 2605   1.427   4.079   4.476  0.6717  0.3595  0.8998
  471WAT    EPW 2606   1.399   4.051   4.544 -0.1569 -0.2538  0.3221
  472WAT      O 2607   3.965   2.205   0.173 -0.3391 -0.2404  0.4356
  472WAT     H1 2608   3.990   2.251   0.243 -0.6385 -0.3641  0.6261
  472WAT     H2 2609   4.026   2.143   0.167  0.5919  0.7194 -0.3757
  472WAT    EPW 2610   3.977   2.202   0.183 -0.2458 -0.1169  0.3439
  473WAT      O 2611   0.618   4.231   1.406  0.3721 -0.0987  0.1836
  473WAT     H1 2612   0.532   4.225   1.389 -0.0623 -1.9115  2.4792
  473WAT     H2 2613   0.653   4.171   1.353 -0.1908 -1.3616  1.1650
  473WAT    EPW 2614   0.610   4.221   1.395  0.2248 -0.5531  0.6677
  474WAT      O 2615   3.338   4.962   2.673  0.2042  0.1070 -0.2977
  474WAT     H1 2616   3.302   4.887   2.646 -0.3207  1.4835 -3.9312
  474WAT     H2 2617   3.393   4.982   2.609  1.1367  2.3449  1.1002
  474WAT    EPW 2618   3.341   4.954   2.660  0.2644  0.6409 -0.6280
  475WAT      O 2619   4.236   4.705   2.304  0.0388 -0.1441  0.0328
  475WAT     H1 2620   4.247   4.746   2.380  0.3079 -1.8546  0.9754
  475WAT     H2 2621   4.280   4.630   2.315  0.1393 -0.3967 -1.8383
  475WAT    EPW 2622   4.244   4.700   2.317  0.0934 -0.4341 -0.1044
  476WAT      O 2623   0.411   3.230   2.387 -0.1400 -0.0969 -0.3965
  476WAT     H1 2624   0.429   3.244   2.471  0.4844  1.0764 -0.7021
  476WAT     H2 2625   0.449   3.153   2.371  0.8287  0.2590  0.0938
  476WAT    EPW 2626   0.419   3.221   2.397  0.0953  0.1290 -0.3692
  477WAT      O 2627   2.739   3.048   6.936  0.0874  0.4414 -0.3843
  477WAT     H1 2628   2.767   3.130   6.948 -0.4388  0.7367 -1.1068
  477WAT     H2 2629   2.656   3.051   6.963 -0.4700  0.6001 -2.0214
  477WAT    EPW 2630   2.731   3.061   6.942 -0.0727  0.5085 -0.7329
  478WAT      O 2631   6.980   3.587   1.147  0.0497  0.1366 -0.6117
  478WAT     H1 2632   6.959   3.572   1.063 -0.7889 -1.7132 -0.1022
  478WAT     H2 2633   7.064   3.566   1.151  0.5845  1.8866 -1.3227
  478WAT    EPW 2634   6.989   3.582   1.135  0.0049  0.1218 -0.6415
  479WAT      O 2635   6.751   0.126   3.767 -0.3071  0.0487 -0.3658
  479WAT     H1 2636   6.807   0.116   3.832 -0.7614 -0.4805 -0.0445
  479WAT     H2 2637   6.710   0.049   3.763  1.1104 -0.7066 -2.6156
  479WAT    EPW 2638   6.753   0.113   3.776 -0.1648 -0.1410 -0.6507
  480WAT      O 2639   5.231   1.208   5.038 -0.4212 -0.3045  0.2038
  480WAT     H1 2640   5.246   1.215   5.124  0.5715 -1.0831  0.1131
  480WAT     H2 2641   5.144   1.200   5.033 -0.7826  2.1667  0.9422
  480WAT    EPW 2642   5.221   1.208   5.050 -0.3279 -0.0545  0.2994
  481WAT      O 2643   1.970   2.371   0.712 -0.4020  0.6378 -0.0489
  481WAT     H1 2644   1.925   2.343   0.643  0.9769 -0.4398 -0.5779
  481WAT     H2 2645   2.053   2.361   0.687  0.1414  0.2700  1.7587
  481WAT    EPW 2646   1.976   2.366   0.698 -0.1180  0.4243  0.1400
  482WAT      O 2647   5.098   6.549   5.813  0.7014 -0.6640  0.0613
  482WAT     H1 2648   5.169   6.577   5.770 -0.2570  2.7440  0.3673
  482WAT     H2 2649   5.107   6.584   5.893 -1.2036 -0.2343  0.1473
  482WAT    EPW 2650   5.110   6.559   5.819  0.2784 -0.0971  0.1192
  483WAT      O 2651   7.208   6.614   5.916 -0.6514  0.1891 -0.3655
  483WAT     H1 2652   7.150   6.569   5.869  0.4970 -0.3175 -1.3520
  483WAT     H2 2653   7.203   6.694   5.882  1.9325 -0.6899 -3.2409
  483WAT    EPW 2654   7.198   6.619   5.904 -0.1001 -0.0156 -0.9360
  484WAT      O 2655   5.192   1.392   2.215  0.2539  0.0587 -0.0171
  484WAT     H1 2656   5.219   1.389   2.298  1.0005  0.5411 -0.2400
  484WAT     H2 2657   5.106   1.405   2.223  0.4239  0.8398  0.6789
  484WAT    EPW 2658   5.183   1.393   2.229  0.3893  0.2453  0.0528
  485WAT      O 2659   4.882   3.041   1.570 -0.7182 -0.0659 -0.0045
  485WAT     H1 2660   4.798   3.018   1.559 -1.0564 -0.2365  2.3529
  485WAT     H2 2661   4.889   3.053   1.656  1.3077  1.5598 -0.3138
  485WAT    EPW 2662   4.871   3.039   1.581 -0.4689  0.1491  0.2981
  486WAT      O 2663   6.628   6.074   1.407  0.4218 -0.6684  0.1205
  486WAT     H1 2664   6.628   6.161   1.416  0.1938 -0.7862  1.3891
  486WAT     H2 2665   6.670   6.045   1.478 -1.7134 -1.6900  1.0596
  486WAT    EPW 2666   6.634   6.083   1.419  0.0727 -0.8367  0.4467
  487WAT      O 2667   1.582   1.239   1.095  0.4032  0.0255  0.1411
  487WAT     H1 2668   1.642   1.260   1.036 -1.9705  2.6075 -1.6303
  487WAT     H2 2669   1.591   1.300   1.157  0.6677 -0.5768  0.6985
  487WAT    EPW 2670   1.592   1.251   1.095  0.0916  0.3180 -0.0382
  488WAT      O 2671   5.825   4.027   2.988  0.3940  0.3999  0.0990
  488WAT     H1 2672   5.842   3.958   2.937  0.5770  0.3773  0.1877
  488WAT     H2 2673   5.744   4.050   2.966  0.6381  0.6733 -0.5335
  488WAT    EPW 2674   5.816   4.020   2.978  0.4571  0.4370  0.0187
  489WAT      O 2675   4.524   3.981   3.411 -0.2277 -0.4098  0.4715
  489WAT     H1 2676   4.485   3.916   3.366  2.5273 -1.3518 -0.7496
  489WAT     H2 2677   4.588   3.940   3.454  2.4700  1.5334 -1.3648
  489WAT    EPW 2678   4.527   3.965   3.410  0.5778 -0.2619  0.0198
  490WAT      O 2679   5.247   2.950   0.392  0.1250  0.2323  0.2132
  490WAT     H1 2680   5.299   3.003   0.438  1.4533 -1.5540  0.9051
  490WAT     H2 2681   5.234   2.993   0.318  3.6564  0.3094 -0.5348
  490WAT    EPW 2682   5.252   2.964   0.388  0.8429 -0.0202  0.2049
  491WAT      O 2683   1.421   4.897   1.264  0.0904  0.5298 -0.7912
  491WAT     H1 2684   1.361   4.836   1.248  0.1518  0.2455  0.0355
  491WAT     H2 2685   1.404   4.922   1.346  1.4370  0.0518 -0.3491
  491WAT    EPW 2686   1.410   4.892   1.273  0.2984  0.4172 -0.6038
  492WAT      O 2687   1.584   4.557   5.064 -0.3528 -0.3408 -0.6937
  492WAT     H1 2688   1.547   4.478   5.067 -1.8416  0.3409 -0.2014
  492WAT     H2 2689   1.651   4.550   5.119 -1.3345 -0.8578  0.4835
  492WAT    EPW 2690   1.588   4.544   5.072 -0.7177 -0.3165 -0.4471
  493WAT      O 2691   3.961   4.404   5.412 -0.6055 -0.3513 -0.0952
  493WAT     H1 2692   3.896   4.395   5.355  0.1086 -1.5287 -0.7720
  493WAT     H2 2693   3.936   4.356   5.480 -0.5588 -0.5919 -0.2483
  493WAT    EPW 2694   3.948   4.396   5.414 -0.4931 -0.5608 -0.2178
  494WAT      O 2695   0.300   1.598   4.820 -0.1520 -0.4805 -0.1411
  494WAT     H1 2696   0.310   1.521   4.859 -0.8326 -0.0887  0.8296
  494WAT     H2 2697   0.238   1.637   4.866 -1.1777 -0.0913 -1.7637
  494WAT    EPW 2698   0.292   1.592   4.832 -0.4040 -0.3652 -0.2374
  495WAT      O 2699   5.512   1.173   5.636  0.4487  0.3886 -0.7518
  495WAT     H1 2700   5.523   1.087   5.640 -0.9739  0.2417  0.7731
  495WAT     H2 2701   5.566   1.197   5.572  3.0335 -1.2728  0.5932
  495WAT    EPW 2702   5.522   1.164   5.627  0.6204  0.1215 -0.3278
  496WAT      O 2703   5.662   5.895   3.656 -0.0297  0.0891 -0.8696
  496WAT     H1 2704   5.655   5.819   3.699 -2.0946  0.6926 -0.0330
  496WAT     H2 2705   5.628   5.878   3.578  0.8183 -0.1782 -1.1979
  496WAT    EPW 2706   5.656   5.881   3.651 -0.2094  0.1387 -0.7945
  497WAT      O 2707   4.169   5.098   6.003 -0.4475 -0.3649  0.4154
  497WAT     H1 2708   4.190   5.150   6.071  0.1387 -0.6896  0.4913
  497WAT     H2 2709   4.170   5.153   5.935  0.4530 -0.3195  0.4535
  497WAT    EPW 2710   4.172   5.114   6.003 -0.2279 -0.4061  0.4323
  498WAT      O 2711   1.403   2.052   5.707  0.0277 -0.0999  0.4338
  498WAT     H1 2712   1.387   1.996   5.772 -0.1317  0.5736  0.9821
  498WAT     H2 2713   1.363   2.125   5.732  1.6316  0.7876  0.5372
  498WAT    EPW 2714   1.395   2.055   5.720  0.2411  0.1307  0.5301
  499WAT      O 2715   7.084   5.048   0.797  0.3682 -0.0219  0.5605
  499WAT     H1 2716   7.087   5.135   0.808 -0.0471  0.1484 -0.6301
  499WAT     H2 2717   7.113   5.036   0.716  0.2653 -0.9993  0.6546
  499WAT    EPW 2718   7.089   5.059   0.787  0.2916 -0.1411  0.3985
  500WAT      O 2719   5.278   1.405   2.536 -0.5578  0.7266  0.0488
  500WAT     H1 2720   5.203   1.416   2.578 -1.3364  1.6463 -1.4787
  500WAT     H2 2721   5.305   1.487   2.521  0.8185  0.4166  0.6548
  500WAT    EPW 2722   5.271   1.419   2.540 -0.4695  0.8166 -0.0873
  501WAT      O 2723   5.364   7.093   7.080  0.0086  0.1185  0.0825
  501WAT     H1 2724   5.420   7.084   7.014 -0.6695  0.3254 -0.5377
  501WAT     H2 2725   5.328   7.171   7.066  0.3678  0.4806  1.1093
  501WAT    EPW 2726   5.367   7.103   7.068 -0.0385  0.2026  0.1426
  502WAT      O 2727   5.735   6.938   0.233  0.8007 -0.8029  0.5333
  502WAT     H1 2728   5.666   6.950   0.285  0.4850  0.0778 -0.0596
  502WAT     H2 2729   5.722   6.859   0.199 -1.0083  0.0921 -1.1034
  502WAT    EPW 2730   5.723   6.928   0.235  0.4869 -0.5406  0.2039
  503WAT      O 2731   3.698   1.711   3.380  0.3494  0.5341 -0.0087
  503WAT     H1 2732   3.763   1.763   3.355 -0.8459  1.7666 -0.7062
  503WAT     H2 2733   3.647   1.706   3.309 -0.6766  0.1901  0.7324
  503WAT    EPW 2734   3.700   1.718   3.366  0.0213  0.6654 -0.0023
  504WAT      O 2735   2.182   5.175   5.118 -0.0995  0.1424  0.2462
  504WAT     H1 2736   2.162   5.099   5.080  0.4969  0.1241 -0.0372
  504WAT     H2 2737   2.209   5.151   5.198 -0.4611  0.1085  0.3624
  504WAT    EPW 2738   2.183   5.160   5.125 -0.0648  0.1347  0.2215
  505WAT      O 2739   6.163   7.145   3.384 -0.4923  0.3529 -0.5103
  505WAT     H1 2740   6.143   7.229   3.396 -2.0943  0.0533 -0.8509
  505WAT     H2 2741   6.193   7.143   3.302  0.3563  0.7145 -0.2169
  505WAT    EPW 2742   6.164   7.157   3.374 -0.6036  0.3621 -0.5173
  506WAT      O 2743   2.345   4.841   3.132 -0.4610 -0.3650 -0.4347
  506WAT     H1 2744   2.343   4.832   3.045  1.7043  1.7465 -0.7976
  506WAT     H2 2745   2.384   4.767   3.158  0.0053 -0.4881 -1.3966
  506WAT    EPW 2746   2.350   4.828   3.123 -0.0722 -0.0713 -0.6304
  507WAT      O 2747   5.869   6.896   1.978 -0.2557  0.2064 -0.9854
  507WAT     H1 2748   5.786   6.870   1.978 -0.2552  0.1568  0.1458
  507WAT     H2 2749   5.910   6.833   2.023  0.6872 -0.5702 -2.8190
  507WAT    EPW 2750   5.863   6.883   1.985 -0.1164  0.0844 -1.0891
  508WAT      O 2751   6.255   2.060   5.575 -0.7547  0.1658  0.2339
  508WAT     H1 2752   6.299   2.010   5.519  0.3433  1.5944 -0.2741
  508WAT     H2 2753   6.181   2.078   5.533 -1.4471 -1.4890  0.6885
  508WAT    EPW 2754   6.250   2.056   5.560 -0.6948  0.1324  0.2260
  509WAT      O 2755   2.197   2.185   4.609  0.0582 -0.0746  0.3749
  509WAT     H1 2756   2.204   2.110   4.653 -0.6568 -0.1697  0.3504
  509WAT     H2 2757   2.232   2.167   4.531 -3.7805 -1.7821 -1.2356
  509WAT    EPW 2758   2.203   2.171   4.604 -0.6145 -0.3409  0.1334
  510WAT      O 2759   4.342   5.693   3.065 -0.1525  0.5539 -0.2127
  510WAT     H1 2760   4.397   5.637   3.102  0.0336  1.1708  0.4645
  510WAT     H2 2761   4.365   5.693   2.981  1.3442  1.3221  0.1683
  510WAT    EPW 2762   4.353   5.685   3.059  0.0961  0.7585 -0.0564
  511WAT      O 2763   0.072   1.434   3.960 -0.4377 -0.0475  0.0583
  511WAT     H1 2764   0.037   1.355   3.974  0.1642 -0.0971  1.4471
  511WAT     H2 2765   0.155   1.415   3.940 -0.5748  0.1867 -0.7530
  511WAT    EPW 2766   0.079   1.419   3.959 -0.3691 -0.0202  0.1436
  512WAT      O 2767   2.788   3.557   5.509  0.1831  0.2706  0.2971
  512WAT     H1 2768   2.787   3.641   5.484  0.8847  0.3150  0.3886
  512WAT     H2 2769   2.754   3.514   5.442 -1.6219  0.7645  0.8274
  512WAT    EPW 2770   2.783   3.563   5.496  0.0201  0.3501  0.3890
  513WAT      O 2771   6.766   6.683   6.126  0.0433  0.5285  0.6177
  513WAT     H1 2772   6.840   6.659   6.086 -0.0839  0.4246  0.4438
  513WAT     H2 2773   6.754   6.765   6.101 -0.7519  0.0498 -0.6420
  513WAT    EPW 2774   6.775   6.691   6.117 -0.0930  0.4424  0.4059
  514WAT      O 2775   5.972   1.521   0.571  0.0321  0.0795  0.0696
  514WAT     H1 2776   5.912   1.563   0.618 -0.7760 -1.5086  0.5555
  514WAT     H2 2777   6.013   1.584   0.527 -0.8267  1.3682  1.0652
  514WAT    EPW 2778   5.969   1.536   0.571 -0.2141  0.0353  0.2884
  515WAT      O 2779   5.314   0.278   5.610 -0.5118 -0.1826  0.2512
  515WAT     H1 2780   5.340   0.204   5.650 -1.3183 -1.3818 -1.3334
  515WAT     H2 2781   5.363   0.281   5.539 -1.4073  0.0802 -0.3709
  515WAT    EPW 2782   5.325   0.268   5.606 -0.7632 -0.3209 -0.0748
  516WAT      O 2783   2.745   2.049   3.120  0.3801 -0.6764 -0.3831
  516WAT     H1 2784   2.661   2.054   3.097  0.3895 -0.6022 -0.4003
  516WAT     H2 2785   2.743   2.043   3.207  0.3920  0.1901 -0.3152
  516WAT    EPW 2786   2.733   2.049   3.129  0.3832 -0.5374 -0.3756
  517WAT      O 2787   0.872   0.137   5.813 -0.5518 -0.8026 -0.6787
  517WAT     H1 2788   0.796   0.095   5.810 -0.7553 -0.5015  0.0140
  517WAT     H2 2789   0.849   0.220   5.830  0.0180 -1.0335  1.4419
  517WAT    EPW 2790   0.858   0.143   5.815 -0.4977 -0.7922 -0.2631
  518WAT      O 2791   1.818   1.276   1.800  0.1704  0.2753  0.2739
  518WAT     H1 2792   1.891   1.273   1.848  0.1982  0.5339  0.2472
  518WAT     H2 2793   1.835   1.338   1.741  0.1640 -0.0842 -0.1087
  518WAT    EPW 2794   1.831   1.285   1.798  0.1736  0.2604  0.2134
  519WAT      O 2795   6.794   4.571   7.315 -0.2789  0.4030  0.1515
  519WAT     H1 2796   6.801   4.524   7.242 -0.1634  0.6206  0.0217
  519WAT     H2 2797   6.855   4.537   7.368  0.0190  0.6123 -0.0557
  519WAT    EPW 2798   6.804   4.559   7.312 -0.2178  0.4661  0.1017
  520WAT      O 2799   6.326   6.724   3.225 -0.4784  0.0389  0.4837
  520WAT     H1 2800   6.281   6.677   3.284  1.4352 -0.4641  1.6257
  520WAT     H2 2801   6.355   6.792   3.271  1.9706 -0.9219  0.5192
  520WAT    EPW 2802   6.324   6.727   3.241  0.1660 -0.1774  0.6576
  521WAT      O 2803   1.353   3.870   1.853  0.2687  0.0659 -0.2328
  521WAT     H1 2804   1.299   3.893   1.788 -0.1602 -0.5867 -0.1212
  521WAT     H2 2805   1.312   3.899   1.924 -0.7069 -1.6830 -0.0074
  521WAT    EPW 2806   1.339   3.878   1.854  0.0612 -0.2888 -0.1830
  522WAT      O 2807   2.803   6.601   1.547 -0.3099 -0.2029 -0.0921
  522WAT     H1 2808   2.880   6.562   1.556  0.0946  0.6832  0.4090
  522WAT     H2 2809   2.822   6.676   1.507 -0.7764  0.4324  0.8333
  522WAT    EPW 2810   2.817   6.607   1.543 -0.3191  0.0218  0.1186
  523WAT      O 2811   4.087   2.133   5.371  0.2183 -0.4818 -0.0998
  523WAT     H1 2812   4.108   2.131   5.287  0.1005 -0.7514 -0.1260
  523WAT     H2 2813   4.043   2.208   5.380 -1.1139 -1.1656 -0.6073
  523WAT    EPW 2814   4.083   2.144   5.360  0.0041 -0.6226 -0.1786
  524WAT      O 2815   6.957   1.942   2.721 -0.1759  0.4333 -0.0084
  524WAT     H1 2816   6.872   1.946   2.741 -0.3574  0.5230 -0.7902
  524WAT     H2 2817   6.965   1.994   2.652  0.2751 -0.5623 -0.7382
  524WAT    EPW 2818   6.946   1.950   2.714 -0.1361  0.2995 -0.2317
  525WAT      O 2819   4.035   1.239   6.965  0.2032 -0.2832 -0.0278
  525WAT     H1 2820   3.970   1.218   6.912  0.3244  1.3243 -0.8766
  525WAT     H2 2821   4.018   1.194   7.038 -0.5211 -1.7334 -1.0550
  525WAT    EPW 2822   4.023   1.229   6.968  0.1141 -0.2600 -0.3049
  526WAT      O 2823   2.366   6.810   0.960 -0.4314 -0.3054 -0.0105
  526WAT     H1 2824   2.335   6.780   1.036 -0.4959  0.5058  0.2922
  526WAT     H2 2825   2.426   6.869   0.984  0.4521 -0.9328 -0.5925
  526WAT    EPW 2826   2.371   6.815   0.975 -0.3104 -0.2782 -0.0518
  527WAT      O 2827   3.495   2.150   0.047  0.2410 -0.3229 -0.2459
  527WAT     H1 2828   3.570   2.121   0.082 -1.2123 -0.8696  2.7132
  527WAT     H2 2829   3.506   2.236   0.045  1.6652 -0.4806 -1.8346
  527WAT    EPW 2830   3.508   2.158   0.052  0.2367 -0.4270 -0.0435
  528WAT      O 2831   5.876   1.464   2.260  0.2602  0.3381  0.1565
  528WAT     H1 2832   5.830   1.436   2.191  1.7184  1.0602 -1.1602
  528WAT     H2 2833   5.824   1.524   2.296 -0.0990  0.7034 -0.9361
  528WAT    EPW 2834   5.861   1.469   2.255  0.4225  0.4987 -0.1994
  529WAT      O 2835   5.617   3.379   3.088 -0.0756  0.1656  0.0702
  529WAT     H1 2836   5.558   3.427   3.131  0.1993  1.2623 -0.7233
  529WAT     H2 2837   5.668   3.348   3.152 -0.5235  0.5712  0.6401
  529WAT    EPW 2838   5.616   3.382   3.104 -0.1011  0.3875  0.0372
  530WAT      O 2839   1.328   6.303   7.168  0.7952  1.1835  0.3079
  530WAT     H1 2840   1.348   6.238   7.223 -2.5189  1.1273  1.7276
  530WAT     H2 2841   1.345   6.375   7.213  1.8884  1.2671 -0.2125
  530WAT    EPW 2842   1.333   6.304   7.183  0.4672  1.1875  0.4407
  531WAT      O 2843   0.312   6.295   4.239  0.1436 -0.4617 -0.1637
  531WAT     H1 2844   0.287   6.335   4.166  1.4660 -0.5818 -0.6975
  531WAT     H2 2845   0.269   6.219   4.235 -0.8422  0.0765 -0.1230
  531WAT    EPW 2846   0.302   6.290   4.228  0.1933 -0.3999 -0.2366
  532WAT      O 2847   6.641   0.505   7.280 -0.2219 -0.6663 -0.1848
  532WAT     H1 2848   6.650   0.559   7.212  0.7654 -0.2473  0.2692
  532WAT     H2 2849   6.568   0.534   7.319  1.1226  1.4294  0.9749
  532WAT    EPW 2850   6.632   0.517   7.276  0.1226 -0.2948  0.0536
  533WAT      O 2851   6.106   2.166   2.868 -0.5309 -0.6153 -0.2970
  533WAT     H1 2852   6.116   2.126   2.945 -1.7762 -1.0393 -0.3345
  533WAT     H2 2853   6.187   2.184   2.844  0.1529 -3.3476 -0.3958
  533WAT    EPW 2854   6.119   2.163   2.876 -0.6138 -1.0816 -0.3172
  534WAT      O 2855   5.051   2.784   4.016 -0.3151 -0.4010 -0.2873
  534WAT     H1 2856   5.020   2.771   4.096 -1.6646  2.4996 -0.2379
  534WAT     H2 2857   4.984   2.760   3.964 -0.8356  1.0594 -0.3506
  534WAT    EPW 2858   5.036   2.778   4.020 -0.5913  0.2432 -0.2894
  535WAT      O 2859   7.037   1.072   1.207  0.1605  0.2325  0.4315
  535WAT     H1 2860   7.046   1.092   1.291 -0.4594 -0.3179  0.6379
  535WAT     H2 2861   6.953   1.048   1.200  0.5858 -1.2933  0.0112
  535WAT    EPW 2862   7.026   1.071   1.218  0.1317 -0.0742  0.3999
  536WAT      O 2863   4.104   5.870   3.129  0.3179 -0.1410  0.0243
  536WAT     H1 2864   4.120   5.896   3.047 -3.0324 -0.2909 -0.8415
  536WAT     H2 2865   4.170   5.817   3.147  2.4874  1.7738 -1.6130
  536WAT    EPW 2866   4.116   5.866   3.119  0.1434  0.1197 -0.3454
  537WAT      O 2867   4.448   4.267   1.096  0.4866  0.3992  0.1782
  537WAT     H1 2868   4.513   4.225   1.136 -0.2559 -0.9422  0.0547
  537WAT     H2 2869   4.382   4.259   1.153  0.1217  0.7392 -0.1962
  537WAT    EPW 2870   4.448   4.259   1.110  0.3230  0.2512  0.1047
  538WAT      O 2871   4.163   2.861   1.622  0.7283  0.1605  0.2105
  538WAT     H1 2872   4.160   2.802   1.685 -0.7542  0.1045  0.1226
  538WAT     H2 2873   4.083   2.895   1.622  0.7201  0.2344 -1.5457
  538WAT    EPW 2874   4.151   2.857   1.631  0.5081  0.1631 -0.0619
  539WAT      O 2875   6.214   3.456   1.980  0.0965  0.2340 -0.0347
  539WAT     H1 2876   6.180   3.495   1.910  1.6516  0.4473 -0.7206
  539WAT     H2 2877   6.238   3.378   1.950  0.3720  0.1614  0.3747
  539WAT    EPW 2878   6.212   3.450   1.965  0.3669  0.2548 -0.0755
  540WAT      O 2879   4.061   1.823   1.410 -0.5485 -0.5684 -0.6976
  540WAT     H1 2880   3.989   1.817   1.362  0.1996  0.1878 -1.9514
  540WAT     H2 2881   4.124   1.835   1.352  0.4177  0.2515  0.4678
  540WAT    EPW 2882   4.060   1.824   1.394 -0.2953 -0.3355 -0.7107
  541WAT      O 2883   5.854   4.345   2.941  0.3114  0.2284 -0.0740
  541WAT     H1 2884   5.877   4.318   3.020  0.0838 -0.2050 -0.1552
  541WAT     H2 2885   5.767   4.349   2.945  0.3263  0.6673 -0.1537
  541WAT    EPW 2886   5.845   4.342   2.953  0.2800  0.2292 -0.0978
  542WAT      O 2887   2.537   2.076   5.717  0.2704  0.6236  0.5464
  542WAT     H1 2888   2.551   2.141   5.775 -0.2296  0.3170  1.0178
  542WAT     H2 2889   2.455   2.052   5.732  0.4573 -0.1385  0.3896
  542WAT    EPW 2890   2.527   2.082   5.728  0.2241  0.4658  0.5929
  543WAT      O 2891   0.194   3.245   2.229 -0.3079 -0.0340 -0.1181
  543WAT     H1 2892   0.135   3.276   2.285 -0.6467 -0.0703 -0.4509
  543WAT     H2 2893   0.261   3.223   2.280 -1.8046 -3.1726  0.7680
  543WAT    EPW 2894   0.195   3.246   2.245 -0.5790 -0.5030 -0.0363
  544WAT      O 2895   5.844   6.366   4.763 -0.1164 -0.0174 -0.2646
  544WAT     H1 2896   5.852   6.280   4.773  0.6484 -0.1007 -1.4303
  544WAT     H2 2897   5.916   6.389   4.719  0.0284  1.3275  0.5992
  544WAT    EPW 2898   5.856   6.357   4.758  0.0179  0.1690 -0.3092
  545WAT      O 2899   3.068   3.503   6.728 -0.2550  0.5009 -0.3525
  545WAT     H1 2900   3.073   3.452   6.798  0.1345  0.8859 -0.0994
  545WAT     H2 2901   3.137   3.479   6.680 -1.4357 -0.9661 -1.4383
  545WAT    EPW 2902   3.079   3.492   6.731 -0.3719  0.3411 -0.4755
  546WAT      O 2903   4.249   5.216   4.589  0.1208  0.6944  0.4929
  546WAT     H1 2904   4.292   5.210   4.514  1.1134  0.6539  1.0443
  546WAT     H2 2905   4.172   5.251   4.566  0.2279  0.2571 -0.5898
  546WAT    EPW 2906   4.244   5.221   4.575  0.2833  0.6238  0.4144
  547WAT      O 2907   4.327   6.736   0.588 -0.4906  0.2423  0.0006
  547WAT     H1 2908   4.268   6.796   0.612 -1.3848 -0.9806  0.9263
  547WAT     H2 2909   4.283   6.685   0.532 -0.2484 -0.5233  0.4957
  547WAT    EPW 2910   4.312   6.738   0.583 -0.5869 -0.0514  0.2105
  548WAT      O 2911   6.730   5.348   1.311 -0.2003  0.0195  0.0065
  548WAT     H1 2912   6.715   5.265   1.291 -0.2854  0.0210  0.0630
  548WAT     H2 2913   6.728   5.348   1.399 -2.8074  0.5415  0.0228
  548WAT    EPW 2914   6.727   5.336   1.321 -0.5980  0.0968  0.0172
  549WAT      O 2915   3.620   2.112   1.097  0.3368 -1.2298  0.2192
  549WAT     H1 2916   3.704   2.093   1.083  0.7630  0.8556 -0.4564
  549WAT     H2 2917   3.602   2.172   1.036 -1.2477 -0.6263  1.2082
  549WAT    EPW 2918   3.630   2.118   1.086  0.1657 -0.8326  0.2655
  550WAT      O 2919   6.710   5.466   7.141 -0.1040  0.0869 -0.1758
  550WAT     H1 2920   6.781   5.480   7.092 -0.0312  1.5273  0.3075
  550WAT     H2 2921   6.700   5.379   7.137  1.6945 -0.1548 -0.2415
  550WAT    EPW 2922   6.719   5.455   7.133  0.1724  0.2640 -0.1141
  551WAT      O 2923   5.302   1.046   2.543 -0.0661  0.7181  0.3311
  551WAT     H1 2924   5.282   1.096   2.475 -0.5199  1.0156  0.6747
  551WAT     H2 2925   5.388   1.054   2.551  0.4039 -1.2400 -1.7056
  551WAT    EPW 2926   5.312   1.054   2.534 -0.0637  0.4728  0.0810
  552WAT      O 2927   2.518   4.441   4.990  0.0183 -0.7086  0.3098
  552WAT     H1 2928   2.508   4.471   5.071  0.5436 -2.1293  0.9338
  552WAT     H2 2929   2.604   4.428   4.983  0.4469  2.1048 -1.5365
  552WAT    EPW 2930   2.529   4.444   5.001  0.1592 -0.5029  0.1292
  553WAT      O 2931   0.008   1.152   1.511  0.2476 -0.0242 -0.1944
  553WAT     H1 2932  -0.014   1.214   1.569  2.3559  1.1186 -0.5171
  553WAT     H2 2933   0.003   1.194   1.434 -2.2872 -1.4606 -0.9291
  553WAT    EPW 2934   0.004   1.168   1.508  0.1846 -0.0676 -0.3506
  554WAT      O 2935   5.607   3.244   4.043 -0.2936  0.3858 -0.0550
  554WAT     H1 2936   5.528   3.276   4.023  0.2367  1.4414 -0.5488
  554WAT     H2 2937   5.662   3.298   4.001  0.7619  0.7849  1.7304
  554WAT    EPW 2938   5.603   3.257   4.034 -0.0593  0.6007  0.1358
  555WAT      O 2939   1.526   3.886   0.535  0.0871  0.1996  0.6507
  555WAT     H1 2940   1.553   3.904   0.616 -0.7833 -1.5073  1.3708
  555WAT     H2 2941   1.448   3.925   0.531  0.3462  0.7103  0.4308
  555WAT    EPW 2942   1.519   3.895   0.547 -0.0032  0.0229  0.7246
  556WAT      O 2943   6.749   5.978   6.181  0.0791 -0.2904  0.2146
  556WAT     H1 2944   6.764   5.997   6.264 -0.5250  0.8429  0.0864
  556WAT     H2 2945   6.767   5.893   6.175  0.5931 -0.2723  1.3819
  556WAT    EPW 2946   6.753   5.969   6.192  0.0658 -0.1203  0.3681
  557WAT      O 2947   2.857   6.215   2.140 -0.5919  0.1160  0.2448
  557WAT     H1 2948   2.882   6.267   2.206 -0.5866  1.4336 -0.7728
  557WAT     H2 2949   2.779   6.247   2.117 -0.7428 -0.5489 -0.1799
  557WAT    EPW 2950   2.849   6.227   2.147 -0.6134  0.2124  0.0318
  558WAT      O 2951   6.363   6.924   1.560  0.1803  0.2563 -0.0697
  558WAT     H1 2952   6.338   6.959   1.637 -1.9466  0.7575 -0.9007
  558WAT     H2 2953   6.385   6.993   1.512 -3.1942  0.5929 -1.4264
  558WAT    EPW 2954   6.362   6.939   1.565 -0.6324  0.3801 -0.3929
  559WAT      O 2955   5.330   0.118   0.044  0.2427  0.1241 -0.8379
  559WAT     H1 2956   5.389   0.170   0.006 -0.3037  0.6444 -0.9874
  559WAT     H2 2957   5.357   0.113   0.127 -0.5254  1.9273 -0.4238
  559WAT    EPW 2958   5.343   0.125   0.051  0.0485  0.4674 -0.7988
  560WAT      O 2959   2.845   0.334   0.426 -0.0626 -0.2068  0.3448
  560WAT     H1 2960   2.781   0.292   0.468 -0.8577 -1.4718 -1.9316
  560WAT     H2 2961   2.879   0.273   0.374  0.3364  1.3850 -1.3956
  560WAT    EPW 2962   2.841   0.319   0.424 -0.1211 -0.1585 -0.2486
  561WAT      O 2963   3.322   2.838   5.205 -0.0584  0.0439 -0.2369
  561WAT     H1 2964   3.302   2.802   5.282  0.7398 -0.1258 -0.1100
  561WAT     H2 2965   3.351   2.771   5.157  1.8664  0.5501  0.1450
  561WAT    EPW 2966   3.323   2.823   5.209  0.3438  0.0936 -0.1617
  562WAT      O 2967   6.138   7.171   4.212 -0.0655  0.6520  0.7601
  562WAT     H1 2968   6.175   7.095   4.233  0.6262  0.2107 -1.8059
  562WAT     H2 2969   6.063   7.170   4.257 -0.5473 -2.0185  0.0624
  562WAT    EPW 2970   6.132   7.160   4.222 -0.0345  0.1923  0.2780
  563WAT      O 2971   5.926   6.092   4.719  0.0929 -0.0151  0.3364
  563WAT     H1 2972   5.945   6.018   4.678 -1.5518  0.3322 -1.1821
  563WAT     H2 2973   6.003   6.133   4.723  0.5384 -0.5683 -1.4383
  563WAT    EPW 2974   5.940   6.087   4.713 -0.0843 -0.0456 -0.1501
  564WAT      O 2975   4.380   2.286   5.379 -0.2044  0.4691  0.0413
  564WAT     H1 2976   4.420   2.345   5.429  0.4114  2.6253 -2.7183
  564WAT     H2 2977   4.386   2.212   5.425  0.1710  2.2477  3.1035
  564WAT    EPW 2978   4.387   2.284   5.393 -0.0580  1.0504  0.0860
  565WAT      O 2979   3.365   6.736   2.396 -0.3052 -0.4259  0.2309
  565WAT     H1 2980   3.430   6.752   2.341 -0.1279  1.5152  0.9006
  565WAT     H2 2981   3.405   6.710   2.469 -0.3513 -0.2295  0.3266
  565WAT    EPW 2982   3.380   6.735   2.399 -0.2858 -0.1101  0.3440
  566WAT      O 2983   1.424   4.178   4.291 -0.0067  1.4008 -0.6920
  566WAT     H1 2984   1.475   4.241   4.259 -0.2093  0.9419 -1.9621
  566WAT     H2 2985   1.348   4.190   4.249  0.1245 -0.0188 -1.3816
  566WAT    EPW 2986   1.420   4.189   4.280 -0.0172  1.1233 -0.9815
  567WAT      O 2987   6.066   4.719   6.822  0.4433 -1.1733  0.2549
  567WAT     H1 2988   6.017   4.791   6.818  2.8115  0.5404 -0.2887
  567WAT     H2 2989   6.033   4.675   6.890 -1.8908 -0.2638 -0.1877
  567WAT    EPW 2990   6.054   4.723   6.831  0.4484 -0.7858  0.1092
  568WAT      O 2991   5.457   5.920   0.246 -0.8422  0.1226  0.1993
  568WAT     H1 2992   5.456   5.930   0.160 -1.1796 -1.8396 -0.0823
  568WAT     H2 2993   5.537   5.943   0.269 -0.6936  0.5027 -0.6607
  568WAT    EPW 2994   5.468   5.925   0.237 -0.8701 -0.1111  0.0306
  569WAT      O 2995   6.365   0.012   0.383  0.5595  0.7507 -0.0714
  569WAT     H1 2996   6.450  -0.007   0.379  0.2182 -1.3678  0.8495
  569WAT     H2 2997   6.358   0.061   0.454  0.8530 -0.5942  0.9407
  569WAT    EPW 2998   6.376   0.016   0.393  0.5524  0.2391  0.2141
  570WAT      O 2999   6.751   6.930   5.149  0.2522  0.9134 -0.1095
  570WAT     H1 3000   6.746   6.857   5.196  0.2014  1.1131  0.2005
  570WAT     H2 3001   6.821   6.917   5.098 -0.3233  0.2574 -0.7429
  570WAT    EPW 3002   6.761   6.917   5.148  0.1597  0.8460 -0.1573
  571WAT      O 3003   1.665   4.879   1.961 -0.0331  0.1468  0.3455
  571WAT     H1 3004   1.722   4.915   2.016 -0.2221 -0.5095  0.9800
  571WAT     H2 3005   1.633   4.948   1.917  1.6065  0.4698 -0.3944
  571WAT    EPW 3006   1.668   4.895   1.963  0.1811  0.0976  0.3299
  572WAT      O 3007   6.492   5.337   4.147  0.3445  0.3906  0.5615
  572WAT     H1 3008   6.534   5.353   4.073  0.7415 -0.8947  0.4814
  572WAT     H2 3009   6.484   5.250   4.148 -2.2894  0.5506  0.6055
  572WAT    EPW 3010   6.497   5.326   4.137  0.0141  0.2243  0.5562
  573WAT      O 3011   5.254   3.092   4.503 -0.3304  0.0242  0.2665
  573WAT     H1 3012   5.238   3.026   4.557 -1.9428  1.2677  1.3979
  573WAT     H2 3013   5.223   3.064   4.426 -1.6459 -0.2777  0.8897
  573WAT    EPW 3014   5.247   3.078   4.500 -0.7629  0.1633  0.5257
  574WAT      O 3015   1.043   2.284   7.359  0.1668  0.0700 -0.1237
  574WAT     H1 3016   0.977   2.341   7.367  0.8506  1.0023 -0.8307
  574WAT     H2 3017   1.068   2.296   7.276  0.0894 -1.5459 -0.3994
  574WAT    EPW 3018   1.037   2.295   7.348  0.2564 -0.0310 -0.2688
  575WAT      O 3019   5.555   4.201   6.672  0.2367  0.4699  0.0692
  575WAT     H1 3020   5.544   4.247   6.599 -0.3436 -1.1468 -0.8966
  575WAT     H2 3021   5.474   4.195   6.704  0.4940  1.2537  0.9554
  575WAT    EPW 3022   5.541   4.207   6.666  0.1890  0.3469  0.0575
  576WAT      O 3023   6.469   4.517   1.383  0.1833 -0.2624 -0.1123
  576WAT     H1 3024   6.509   4.439   1.382  0.3019 -0.2079 -1.5311
  576WAT     H2 3025   6.532   4.572   1.358 -0.0143  0.2347  0.4760
  576WAT    EPW 3026   6.484   4.513   1.379  0.1716 -0.1810 -0.2350
  577WAT      O 3027   2.998   2.784   2.339 -0.2695  0.1312  0.8662
  577WAT     H1 3028   3.074   2.744   2.350  0.9523  2.5918  2.1397
  577WAT     H2 3029   3.003   2.814   2.257  0.6898  1.2044  1.2792
  577WAT    EPW 3030   3.010   2.782   2.328  0.0527  0.6532  1.1154
  578WAT      O 3031   3.676   1.912   4.139  0.2343  0.2589  0.3325
  578WAT     H1 3032   3.697   1.934   4.058  0.0901  0.4503  0.3470
  578WAT     H2 3033   3.745   1.936   4.186  0.9358 -1.1418  0.0797
  578WAT    EPW 3034   3.689   1.919   4.134  0.3166  0.0803  0.2973
  579WAT      O 3035   6.514   3.466   2.130  0.4356 -1.1306 -0.6043
  579WAT     H1 3036   6.493   3.382   2.126  0.5695 -1.2428  0.6067
  579WAT     H2 3037   6.568   3.470   2.199 -0.5066  0.1271  0.0939
  579WAT    EPW 3038   6.519   3.454   2.139  0.3162 -0.9614 -0.3223
  580WAT      O 3039   2.173   5.827   2.239 -0.3857 -0.0828 -0.2612
  580WAT     H1 3040   2.233   5.773   2.272  0.6162  1.4320  0.5380
  580WAT     H2 3041   2.161   5.797   2.158  2.1568  0.0781 -0.7654
  580WAT    EPW 3042   2.180   5.815   2.232  0.1379  0.1647 -0.2176
  581WAT      O 3043   5.620   4.552   1.102 -0.5017 -0.0668 -0.0263
  581WAT     H1 3044   5.587   4.631   1.086 -1.3161  0.0074  1.8384
  581WAT     H2 3045   5.684   4.567   1.159 -1.1629 -0.7870  0.9414
  581WAT    EPW 3046   5.624   4.566   1.108 -0.7197 -0.1623  0.3921
  582WAT      O 3047   5.565   2.298   6.133  0.3908 -0.3673  0.3575
  582WAT     H1 3048   5.587   2.366   6.183 -0.9608 -1.0233  1.9727
  582WAT     H2 3049   5.614   2.233   6.164  0.5380 -0.4874 -0.1197
  582WAT    EPW 3050   5.575   2.299   6.145  0.2129 -0.4820  0.5256
  583WAT      O 3051   1.597   5.103   1.813 -0.0876  0.5843 -0.2612
  583WAT     H1 3052   1.575   5.091   1.729 -0.4008 -1.2027  0.0304
  583WAT     H2 3053   1.525   5.136   1.849 -0.4442  0.0047 -0.4268
  583WAT    EPW 3054   1.583   5.106   1.806 -0.1865  0.2347 -0.2426
  584WAT      O 3055   6.338   5.378   7.030  0.4344 -0.2251 -0.1778
  584WAT     H1 3056   6.396   5.442   7.016 -0.2615  0.4362 -0.1196
  584WAT     H2 3057   6.264   5.421   7.048  0.2167 -1.0360  1.0232
  584WAT    EPW 3058   6.335   5.394   7.031  0.2994 -0.2472  0.0082
  585WAT      O 3059   2.578   1.600   5.497  0.4291 -0.8461  0.3591
  585WAT     H1 3060   2.609   1.519   5.505  2.0119 -0.2334  0.7745
  585WAT     H2 3061   2.596   1.637   5.574 -1.1739 -0.3674  0.5398
  585WAT    EPW 3062   2.585   1.593   5.509  0.4261 -0.6849  0.4471
  586WAT      O 3063   6.350   1.810   0.409  0.4840 -0.2850 -0.3717
  586WAT     H1 3064   6.415   1.769   0.369  0.6883 -0.5496  0.2146
  586WAT     H2 3065   6.349   1.773   0.489 -2.0649 -2.1741 -1.1540
  586WAT    EPW 3066   6.359   1.798   0.415  0.1377 -0.6031 -0.4007
  587WAT      O 3067   7.055   5.941   5.859  0.0636  0.0921 -0.0200
  587WAT     H1 3068   6.971   5.965   5.868  0.1072 -0.4482  2.8557
  587WAT     H2 3069   7.054   5.855   5.874  1.2194  0.2538  1.1866
  587WAT    EPW 3070   7.043   5.932   5.863  0.2408  0.0362  0.5831
  588WAT      O 3071   6.828   4.440   5.523 -0.5054 -0.1431  0.0084
  588WAT     H1 3072   6.815   4.357   5.546  1.2009 -0.0778  1.4473
  588WAT     H2 3073   6.806   4.485   5.594  2.1364  0.3035  0.6375
  588WAT    EPW 3074   6.823   4.434   5.537  0.1369 -0.0675  0.3139
  589WAT      O 3075   2.214   2.808   5.005 -0.2224 -0.0524  0.0770
  589WAT     H1 3076   2.282   2.848   5.043 -0.2754  1.2622 -1.1132
  589WAT     H2 3077   2.152   2.869   5.007 -0.9635 -0.7989  0.0009
  589WAT    EPW 3078   2.215   2.823   5.011 -0.3397  0.0315 -0.1101
  590WAT      O 3079   1.331   0.902   3.952 -0.0983 -0.2610 -0.4118
  590WAT     H1 3080   1.248   0.909   3.979  0.7100  0.7903  2.0372
  590WAT     H2 3081   1.377   0.939   4.016  2.2006  0.6541 -2.4371
  590WAT    EPW 3082   1.325   0.908   3.966  0.3607  0.0295 -0.3492
  591WAT      O 3083   5.849   4.814   6.118  0.7289 -0.3786  0.3314
  591WAT     H1 3084   5.895   4.862   6.062 -0.2236 -0.3122 -0.4377
  591WAT     H2 3085   5.823   4.746   6.070 -1.3890  0.4386  0.2042
  591WAT    EPW 3086   5.852   4.811   6.103  0.2754 -0.2481  0.1990
  592WAT      O 3087   0.586   1.925   5.197  0.3416  0.1794  0.6470
  592WAT     H1 3088   0.540   1.858   5.164 -0.8459  1.5953 -0.7239
  592WAT     H2 3089   0.667   1.894   5.200  0.1589 -0.7623 -1.6881
  592WAT    EPW 3090   0.591   1.911   5.192  0.1392  0.2495  0.0996
  593WAT      O 3091   6.483   2.509   6.319  0.2132 -0.7245  0.0711
  593WAT     H1 3092   6.397   2.501   6.310 -0.2000  0.9193  1.9861
  593WAT     H2 3093   6.515   2.443   6.271 -2.1234 -2.0207  0.1729
  593WAT    EPW 3094   6.475   2.498   6.311 -0.1930 -0.6732  0.3690
  594WAT      O 3095   7.218   2.750   6.456  0.2643 -0.5941 -0.4165
  594WAT     H1 3096   7.280   2.811   6.451 -1.1008  1.0404  1.1641
  594WAT     H2 3097   7.163   2.772   6.392  0.3837 -0.9280 -0.6353
  594WAT    EPW 3098   7.219   2.762   6.446  0.0803 -0.4020 -0.2153
  595WAT      O 3099   7.002   6.470   1.043 -0.1106 -0.2678 -0.3936
  595WAT     H1 3100   6.963   6.411   1.094  0.4328 -0.1005  0.2277
  595WAT     H2 3101   7.087   6.456   1.056  0.0705  1.7035  1.0610
  595WAT    EPW 3102   7.009   6.460   1.052 -0.0036  0.0482 -0.0870
  596WAT      O 3103   5.902   0.333   7.048 -0.0623 -0.4518  0.4726
  596WAT     H1 3104   5.912   0.304   6.966  3.1089  0.0820  0.5341
  596WAT     H2 3105   5.927   0.265   7.096 -0.4425 -0.2519  0.9596
  596WAT    EPW 3106   5.907   0.319   7.043  0.3500 -0.3435  0.5536
  597WAT      O 3107   4.061   4.199   6.316  0.4252  0.4391 -0.7316
  597WAT     H1 3108   4.031   4.278   6.336 -1.0211 -0.1502 -0.4906
  597WAT     H2 3109   4.145   4.214   6.295  0.5132  1.8566  0.4615
  597WAT    EPW 3110   4.069   4.213   6.316  0.2245  0.5614 -0.5198
  598WAT      O 3111   4.766   2.199   6.915 -0.5804  0.3189  0.4896
  598WAT     H1 3112   4.807   2.130   6.950 -1.7149 -0.8742 -0.4282
  598WAT     H2 3113   4.754   2.176   6.832  0.2574  2.2393 -0.2306
  598WAT    EPW 3114   4.770   2.185   6.908 -0.6242  0.4263  0.2476
  599WAT      O 3115   0.922   4.359   6.843  0.0740 -0.3957 -0.2476
  599WAT     H1 3116   0.943   4.431   6.797 -0.1732  0.9450  1.6226
  599WAT     H2 3117   0.999   4.327   6.867  0.1777 -0.4930 -0.7088
  599WAT    EPW 3118   0.936   4.365   6.840  0.0528 -0.2120 -0.0394
  600WAT      O 3119   1.437   4.870   6.410  0.2302  0.2094  0.0980
  600WAT     H1 3120   1.430   4.805   6.468 -0.8921 -0.9313 -1.2387
  600WAT     H2 3121   1.516   4.902   6.424  0.2432 -0.4808  1.7898
  600WAT    EPW 3122   1.447   4.865   6.420  0.0663 -0.0610  0.1505
  601WAT      O 3123   2.714   4.781   6.395  0.0202 -0.4954  0.0120
  601WAT     H1 3124   2.762   4.738   6.454  0.9444 -1.0719 -1.1192
  601WAT     H2 3125   2.687   4.719   6.340  2.2186  0.3547 -2.2366
  601WAT    EPW 3126   2.717   4.766   6.396  0.4815 -0.4550 -0.4873
  602WAT      O 3127   3.012   7.047   7.202  0.3935 -0.5076  0.0169
  602WAT     H1 3128   2.984   7.128   7.186 -1.3493 -0.9664  0.5747
  602WAT     H2 3129   2.945   6.997   7.179  0.7093 -1.6755  1.4803
  602WAT    EPW 3130   2.998   7.051   7.196  0.1827 -0.7479  0.3155
  603WAT      O 3131   0.265   6.464   6.129 -0.4348  0.0149 -0.3539
  603WAT     H1 3132   0.226   6.386   6.137  2.0920 -1.3924 -0.6654
  603WAT     H2 3133   0.230   6.497   6.057 -1.0442 -1.1503 -0.6162
  603WAT    EPW 3134   0.254   6.457   6.120 -0.1515 -0.3651 -0.4387
  604WAT      O 3135   4.759   5.916   4.328 -0.0805  0.3762 -0.1032
  604WAT     H1 3136   4.745   5.931   4.413  0.5606 -0.0923  0.0959
  604WAT     H2 3137   4.824   5.972   4.308 -0.3344  0.5942 -0.3258
  604WAT    EPW 3138   4.767   5.927   4.338 -0.0233  0.3392 -0.1067
  605WAT      O 3139   5.301   4.135   2.183 -0.4822  0.8041  0.0246
  605WAT     H1 3140   5.379   4.135   2.224 -0.1409 -2.0730 -0.4167
  605WAT     H2 3141   5.265   4.211   2.208  2.0247  1.7760  1.0544
  605WAT    EPW 3142   5.307   4.146   2.193 -0.0615  0.5227  0.1115
  606WAT      O 3143   6.769   4.492   1.898 -0.9633 -0.0515 -0.4039
  606WAT     H1 3144   6.695   4.446   1.891 -0.5962 -0.8936  0.8088
  606WAT     H2 3145   6.775   4.534   1.822 -3.4939  1.2891  0.0561
  606WAT    EPW 3146   6.759   4.491   1.886 -1.2829  0.0221 -0.1568
  607WAT      O 3147   4.234   6.288   0.704  0.0086 -0.3663 -0.4638
  607WAT     H1 3148   4.205   6.318   0.627  1.0006 -1.4877 -1.3218
  607WAT     H2 3149   4.227   6.202   0.696 -0.0342 -0.4952  0.7968
  607WAT    EPW 3150   4.229   6.280   0.692  0.1488 -0.5510 -0.4044
  608WAT      O 3151   7.064   0.660   6.309 -0.3241 -0.2630 -0.0909
  608WAT     H1 3152   6.985   0.697   6.308  0.2759  1.0290 -0.5911
  608WAT     H2 3153   7.064   0.615   6.384 -0.8518  1.2409  0.8577
  608WAT    EPW 3154   7.052   0.659   6.320 -0.3134  0.1500 -0.0247
  609WAT      O 3155   5.143   6.035   7.419 -0.1402  0.1125  0.0809
  609WAT     H1 3156   5.115   6.069   7.344  1.4123 -2.5898 -1.8871
  609WAT     H2 3157   5.134   5.949   7.408  2.4203 -0.5385  2.0001
  609WAT    EPW 3158   5.138   6.028   7.407  0.4674 -0.3829  0.0737
  610WAT      O 3159   4.123   4.565   7.389  0.3170  0.2089  0.1527
  610WAT     H1 3160   4.038   4.549   7.396  0.3022  0.4328  0.4783
  610WAT     H2 3161   4.128   4.620   7.321  0.1945  0.2429  0.1715
  610WAT    EPW 3162   4.111   4.571   7.380  0.2967  0.2470  0.2036
  611WAT      O 3163   2.382   5.657   2.304  0.1614 -0.2191  0.7035
  611WAT     H1 3164   2.407   5.691   2.381  0.3381  2.5781 -0.4645
  611WAT     H2 3165   2.456   5.627   2.270  0.9226  2.2418 -0.0189
  611WAT    EPW 3166   2.397   5.658   2.311  0.2999  0.5577  0.4243
  612WAT      O 3167   4.182   3.759   5.318 -0.5628 -1.0643  0.0737
  612WAT     H1 3168   4.224   3.683   5.317  1.2012 -0.1451 -0.9563
  612WAT     H2 3169   4.151   3.766   5.237  0.7247  0.0076 -0.3669
  612WAT    EPW 3170   4.184   3.749   5.306 -0.1120 -0.7702 -0.1435
  613WAT      O 3171   5.115   2.713   5.023 -0.4345  0.0771  0.3685
  613WAT     H1 3172   5.114   2.642   4.973 -0.2260 -0.8973  1.6938
  613WAT     H2 3173   5.033   2.719   5.052 -0.5686  0.6731 -0.1016
  613WAT    EPW 3174   5.103   2.704   5.020 -0.4235  0.0212  0.4948
  614WAT      O 3175   1.563   6.157   3.074 -0.2569  0.7077 -0.1571
  614WAT     H1 3176   1.616   6.226   3.074  0.2395  0.3760 -2.0692
  614WAT     H2 3177   1.544   6.146   3.159  0.7732  2.3032  0.3299
  614WAT    EPW 3178   1.568   6.166   3.087 -0.0314  0.8944 -0.3676
  615WAT      O 3179   0.087   2.075   3.715  0.2107 -0.4975  0.1399
  615WAT     H1 3180   0.105   2.058   3.798 -1.1302 -0.2387  0.5058
  615WAT     H2 3181   0.136   2.018   3.671  1.4946 -0.1531  1.0516
  615WAT    EPW 3182   0.097   2.064   3.721  0.2023 -0.4084  0.3287
  616WAT      O 3183   1.367   5.164   3.123 -0.0028 -0.0750 -0.3341
  616WAT     H1 3184   1.283   5.186   3.133 -0.3127 -0.6143 -1.5743
  616WAT     H2 3185   1.387   5.192   3.043  0.8187 -0.5208 -0.2978
  616WAT    EPW 3186   1.357   5.171   3.113  0.0728 -0.2205 -0.5120
  617WAT      O 3187   0.298   4.178   1.760 -0.0434 -0.4769 -0.4938
  617WAT     H1 3188   0.292   4.185   1.847  0.6493 -1.0365 -0.3956
  617WAT     H2 3189   0.324   4.096   1.747  0.8100 -0.1152 -1.1864
  617WAT    EPW 3190   0.301   4.167   1.771  0.1850 -0.5061 -0.5816
  618WAT      O 3191   3.988   4.884   3.328 -0.3673 -0.2954  0.6253
  618WAT     H1 3192   3.913   4.912   3.363 -0.6755 -0.1847 -0.1132
  618WAT     H2 3193   4.032   4.958   3.313 -0.6211 -0.2691 -0.0589
  618WAT    EPW 3194   3.983   4.899   3.331 -0.4503 -0.2751  0.4152
  619WAT      O 3195   1.704   0.995   5.174  0.2339  0.2882 -0.1317
  619WAT     H1 3196   1.683   0.914   5.198  0.8443  0.2828  0.4091
  619WAT     H2 3197   1.628   1.029   5.148 -0.0764 -0.3620 -0.0950
  619WAT    EPW 3198   1.690   0.988   5.174  0.2782  0.1914 -0.0464
  620WAT      O 3199   5.480   6.156   6.285  0.4954  0.5899 -0.1034
  620WAT     H1 3200   5.557   6.161   6.327  0.3618 -1.1563  0.4169
  620WAT     H2 3201   5.499   6.108   6.215 -0.4364 -1.4630  0.9647
  620WAT    EPW 3202   5.494   6.149   6.281  0.3380  0.0287  0.1312
  621WAT      O 3203   0.465   0.192   1.033  0.0796  0.2060  0.2517
  621WAT     H1 3204   0.500   0.152   1.102 -0.1781 -0.6913 -0.1250
  621WAT     H2 3205   0.406   0.135   1.004 -2.1253  1.8826  1.1703
  621WAT    EPW 3206   0.462   0.178   1.039 -0.2842  0.3211  0.3317
  622WAT      O 3207   5.295   6.749   1.581 -0.8295 -0.3245 -0.7350
  622WAT     H1 3208   5.255   6.770   1.656 -1.0076 -0.1219 -0.8853
  622WAT     H2 3209   5.301   6.662   1.585 -1.4070 -0.3668 -0.7710
  622WAT    EPW 3210   5.290   6.740   1.593 -0.9411 -0.3008 -0.7625
  623WAT      O 3211   7.060   0.977   2.012 -0.2841  0.2035 -0.1736
  623WAT     H1 3212   7.077   0.988   2.096 -1.6304  3.5125 -0.1814
  623WAT     H2 3213   6.988   0.928   2.011  1.2617 -2.2481  0.3625
  623WAT    EPW 3214   7.052   0.971   2.024 -0.2546  0.3302 -0.0955
  624WAT      O 3215   3.383   6.328   4.217 -0.6858  0.2617  0.0863
  624WAT     H1 3216   3.446   6.277   4.251 -0.2806  0.6551 -0.0655
  624WAT     H2 3217   3.410   6.342   4.136 -0.7671  0.7752  0.1472
  624WAT    EPW 3218   3.396   6.323   4.210 -0.6380  0.3957  0.0729
  625WAT      O 3219   2.049   1.214   5.362  0.4472 -0.1256 -0.3162
  625WAT     H1 3220   1.994   1.250   5.420  0.8563 -0.4440  0.2736
  625WAT     H2 3221   1.996   1.191   5.297 -0.8694 -3.8301  1.7343
  625WAT    EPW 3222   2.033   1.216   5.361  0.3131 -0.7199  0.0738
  626WAT      O 3223   1.844   3.276   0.217  0.2902  0.4657  0.0171
  626WAT     H1 3224   1.829   3.337   0.277  0.5186  0.3161  0.2303
  626WAT     H2 3225   1.819   3.202   0.256 -0.1289  0.4401 -0.2952
  626WAT    EPW 3226   1.838   3.274   0.232  0.2620  0.4398  0.0024
  627WAT      O 3227   3.466   2.345   4.457 -0.2021 -0.0160 -0.4194
  627WAT     H1 3228   3.435   2.403   4.514 -0.4740  0.7382 -1.3177
  627WAT     H2 3229   3.437   2.374   4.380 -0.4408 -1.3971 -0.8881
  627WAT    EPW 3230   3.457   2.358   4.454 -0.2775 -0.1086 -0.6213
  628WAT      O 3231   4.313   2.257   0.019  0.3485  0.0530  0.0471
  628WAT     H1 3232   4.382   2.308   0.005 -0.4920  2.0209  2.3326
  628WAT     H2 3233   4.250   2.293  -0.029  0.4666 -0.7343 -0.7247
  628WAT    EPW 3234   4.314   2.270   0.010  0.2418  0.2274  0.2707
  629WAT      O 3235   4.468   5.782   5.210  0.2314 -0.0481 -0.1081
  629WAT     H1 3236   4.421   5.747   5.145 -1.0216 -0.8090  1.1614
  629WAT     H2 3237   4.413   5.783   5.277  1.8668 -0.4985  1.3192
  629WAT    EPW 3238   4.453   5.777   5.210  0.2879 -0.2270  0.2903
  630WAT      O 3239   5.148   4.761   6.551 -0.3633 -1.0197 -0.2682
  630WAT     H1 3240   5.147   4.674   6.546  2.3911 -1.1136 -0.9854
  630WAT     H2 3241   5.179   4.785   6.473  0.3263  0.4937  0.4371
  630WAT    EPW 3242   5.153   4.752   6.539  0.1455 -0.8100 -0.2700
  631WAT      O 3243   6.126   2.548   5.997 -0.2111  0.3098  0.4800
  631WAT     H1 3244   6.064   2.561   6.058  0.7753 -0.1705  1.6315
  631WAT     H2 3245   6.166   2.475   6.024  0.4772  0.2835 -0.5641
  631WAT    EPW 3246   6.123   2.539   6.010  0.0363  0.2350  0.4959
  632WAT      O 3247   6.500   4.142   3.425 -0.9447  0.3813 -0.1457
  632WAT     H1 3248   6.585   4.152   3.408 -1.3042  1.8799 -1.3379
  632WAT     H2 3249   6.465   4.128   3.346 -1.8188 -0.2169  0.3296
  632WAT    EPW 3250   6.507   4.142   3.411 -1.1269  0.5143 -0.2516
  633WAT      O 3251   1.637   3.037   2.410 -0.2826  0.2321  0.0738
  633WAT     H1 3252   1.624   3.114   2.370  1.3144  0.0598 -0.8613
  633WAT     H2 3253   1.623   3.055   2.494  0.8604  1.7833 -0.0232
  633WAT    EPW 3254   1.633   3.051   2.416  0.1221  0.4358 -0.0787
  634WAT      O 3255   0.871   5.970   0.653  0.4384  0.1420 -0.2070
  634WAT     H1 3256   0.812   6.032   0.670  0.3795  0.1113 -0.2974
  634WAT     H2 3257   0.833   5.897   0.681  1.2028  0.3608  1.4795
  634WAT    EPW 3258   0.857   5.969   0.660  0.5426  0.1698  0.0288
  635WAT      O 3259   4.842   1.644   2.879 -0.0568  0.6354  0.1620
  635WAT     H1 3260   4.779   1.647   2.940 -0.5981  0.6479 -0.3867
  635WAT     H2 3261   4.820   1.575   2.831 -0.5100  1.5213 -0.9399
  635WAT    EPW 3262   4.829   1.634   2.881 -0.2037  0.7681 -0.0818
  636WAT      O 3263   5.588   2.373   1.519 -0.2014 -0.3061  0.4094
  636WAT     H1 3264   5.596   2.448   1.563  1.4439  1.0122 -1.9204
  636WAT     H2 3265   5.503   2.354   1.525 -0.7367  1.9911  0.7512
  636WAT    EPW 3266   5.577   2.381   1.526 -0.0374  0.2280  0.1158
  637WAT      O 3267   1.348   3.988   6.387 -0.2646  0.0559 -0.3890
  637WAT     H1 3268   1.284   3.930   6.370 -1.3610  1.3374 -0.7943
  637WAT     H2 3269   1.421   3.940   6.382 -1.0739 -1.1232 -1.5506
  637WAT    EPW 3270   1.349   3.972   6.383 -0.5461  0.0710 -0.6205
  638WAT      O 3271   1.128   1.142   1.819  0.2592  0.0917  0.0719
  638WAT     H1 3272   1.189   1.139   1.756 -0.6026 -1.1635 -0.7388
  638WAT     H2 3273   1.167   1.103   1.886  0.2156 -1.1187 -0.5831
  638WAT    EPW 3274   1.143   1.136   1.819  0.1255 -0.2725 -0.1446
  639WAT      O 3275   6.788   0.390   4.341  0.0022  0.1787  0.5629
  639WAT     H1 3276   6.793   0.463   4.390  2.8422  0.1529  0.4974
  639WAT     H2 3277   6.794   0.326   4.400  1.6113  0.1227  0.3877
  639WAT    EPW 3278   6.789   0.391   4.357  0.6594  0.1666  0.5273
  640WAT      O 3279   0.893   5.348   0.546  0.4438 -0.0304  0.1036
  640WAT     H1 3280   0.863   5.381   0.621 -0.3408 -2.4388  0.9143
  640WAT     H2 3281   0.965   5.304   0.570  0.1657 -0.8595 -0.5370
  640WAT    EPW 3282   0.899   5.347   0.561  0.2868 -0.5086  0.1287
  641WAT      O 3283   1.893   5.284   3.207 -0.2482  0.0347  0.0617
  641WAT     H1 3284   1.811   5.261   3.225  0.4320 -1.5003  1.5193
  641WAT     H2 3285   1.934   5.208   3.195  0.8316  0.7901 -1.4374
  641WAT    EPW 3286   1.887   5.269   3.208  0.0118 -0.0805  0.0556
  642WAT      O 3287   6.213   2.824   1.647 -0.0525  0.5055 -0.1205
  642WAT     H1 3288   6.199   2.868   1.573  1.0653  0.4173 -0.4015
  642WAT     H2 3289   6.299   2.809   1.646 -0.3108 -1.2909  0.1826
  642WAT    EPW 3290   6.224   2.828   1.636  0.0745  0.2271 -0.1173
  643WAT      O 3291   2.585   4.519   1.424 -0.2329 -0.2326 -0.6622
  643WAT     H1 3292   2.516   4.551   1.466 -0.8441 -1.2532 -0.8349
  643WAT     H2 3293   2.589   4.436   1.452  0.8092 -0.2415 -0.7999
  643WAT    EPW 3294   2.576   4.511   1.434 -0.1692 -0.3847 -0.7080
  644WAT      O 3295   0.999   6.568   7.150 -0.3374  0.2169  0.0899
  644WAT     H1 3296   1.044   6.496   7.129  0.0549  0.4422  0.1331
  644WAT     H2 3297   1.046   6.633   7.115 -0.7788  0.4430 -0.0976
  644WAT    EPW 3298   1.013   6.567   7.142 -0.3446  0.2836  0.0685
  645WAT      O 3299   3.786   4.853   0.164 -0.0380  0.6630  0.3371
  645WAT     H1 3300   3.848   4.913   0.173 -0.6013  0.9686  2.5685
  645WAT     H2 3301   3.770   4.854   0.078  0.4078  3.2389  0.1992
  645WAT    EPW 3302   3.793   4.862   0.152 -0.0554  1.0887  0.6464
  646WAT      O 3303   3.007   6.313   0.760  0.0747  0.5134 -0.4673
  646WAT     H1 3304   3.085   6.278   0.776  0.3338  1.2661 -0.0634
  646WAT     H2 3305   3.024   6.375   0.701 -0.1296  1.0396  0.0187
  646WAT    EPW 3306   3.021   6.317   0.753  0.0828  0.7023 -0.3359
  647WAT      O 3307   6.059   5.155   6.812  0.1602 -0.6938  0.2140
  647WAT     H1 3308   6.126   5.210   6.813 -1.4607  1.5236 -2.0205
  647WAT     H2 3309   6.005   5.187   6.874 -1.5307  1.4636 -2.1821
  647WAT    EPW 3310   6.061   5.168   6.822 -0.3290 -0.0476 -0.4701
  648WAT      O 3311   5.872   3.069   5.987 -0.4119 -0.0069  0.3658
  648WAT     H1 3312   5.950   3.103   6.004  0.3576 -1.1118 -0.7891
  648WAT     H2 3313   5.822   3.138   5.973  0.1739  0.7515  1.7527
  648WAT    EPW 3314   5.876   3.084   5.988 -0.2117 -0.0581  0.4001
  649WAT      O 3315   3.849   5.612   5.036  0.0287 -0.0725  0.3127
  649WAT     H1 3316   3.815   5.599   4.957 -0.3515 -0.1277  0.4855
  649WAT     H2 3317   3.909   5.548   5.042 -0.1346 -0.2413  0.1810
  649WAT    EPW 3318   3.853   5.600   5.025 -0.0516 -0.1056  0.3188
  650WAT      O 3319   6.868   4.353   6.087  0.0274  0.2353 -0.4474
  650WAT     H1 3320   6.920   4.406   6.133 -0.1449 -2.4293  3.3137
  650WAT     H2 3321   6.790   4.391   6.091  0.1469  0.3639  1.0731
  650WAT    EPW 3322   6.864   4.367   6.094  0.0196 -0.1393  0.3328
  651WAT      O 3323   5.900   5.540   0.435 -0.4761  0.7839  0.0394
  651WAT     H1 3324   5.982   5.567   0.437 -0.2077  0.1644 -1.2145
  651WAT     H2 3325   5.905   5.458   0.465 -0.0477 -0.4108 -2.9056
  651WAT    EPW 3326   5.913   5.532   0.440 -0.3732  0.5159 -0.5809
  652WAT      O 3327   5.549   7.060   6.419 -0.1231  0.2567 -0.1275
  652WAT     H1 3328   5.479   7.075   6.469  0.0325  0.8068 -0.0628
  652WAT     H2 3329   5.613   7.052   6.477  0.1717  1.5278 -0.2374
  652WAT    EPW 3330   5.548   7.061   6.435 -0.0566  0.5257 -0.1342
  653WAT      O 3331   7.094   0.077   2.395 -0.3783 -0.5184  0.2026
  653WAT     H1 3332   7.138   0.006   2.420  0.2331 -0.2635 -0.1430
  653WAT     H2 3333   7.053   0.102   2.468  1.7601  0.5041  1.1459
  653WAT    EPW 3334   7.094   0.070   2.410  0.0279 -0.3297  0.2909
  654WAT      O 3335   6.792   5.001   2.870 -0.4596 -0.7637 -0.0860
  654WAT     H1 3336   6.710   4.990   2.841 -0.3599 -1.5498 -0.1091
  654WAT     H2 3337   6.840   4.996   2.798 -0.4899  1.3554 -0.2959
  654WAT    EPW 3338   6.787   4.999   2.855 -0.4493 -0.5668 -0.1204
  655WAT      O 3339   4.564   5.137   4.182 -0.5281  0.2531 -0.1772
  655WAT     H1 3340   4.487   5.169   4.207 -1.2568  0.0197 -2.0126
  655WAT     H2 3341   4.549   5.053   4.166 -0.4615  0.6047 -2.5008
  655WAT    EPW 3342   4.551   5.130   4.183 -0.6259  0.2705 -0.7916
  656WAT      O 3343   3.911   5.925   5.339  0.0471  0.4830 -0.1909
  656WAT     H1 3344   3.858   5.868   5.299  1.2561  0.5784 -2.0747
  656WAT     H2 3345   3.959   5.875   5.391  0.8513 -0.2268 -1.5532
  656WAT    EPW 3346   3.910   5.910   5.341  0.3445  0.3923 -0.6704
  657WAT      O 3347   0.085   7.092   6.095  0.6957  0.3542 -0.3162
  657WAT     H1 3348   0.131   7.079   6.168  0.6742  0.6281 -0.2557
  657WAT     H2 3349   0.002   7.082   6.121  0.6697  0.7961 -0.2333
  657WAT    EPW 3350   0.080   7.088   6.110  0.6887  0.4600 -0.2950
  658WAT      O 3351   4.196   4.745   3.448  0.2251 -0.3695  0.1157
  658WAT     H1 3352   4.158   4.667   3.461 -2.2556  0.9056  1.1623
  658WAT     H2 3353   4.135   4.791   3.406  1.6611  1.0173 -0.5658
  658WAT    EPW 3354   4.181   4.740   3.443  0.0708  0.0237  0.1696
  659WAT      O 3355   1.597   4.442   0.255 -0.5764  0.3480 -0.6727
  659WAT     H1 3356   1.541   4.376   0.263 -0.1437 -0.0701 -1.0505
  659WAT     H2 3357   1.557   4.496   0.200 -1.5442  1.0754  0.6719
  659WAT    EPW 3358   1.583   4.440   0.248 -0.6554  0.3937 -0.5298
  660WAT      O 3359   4.016   4.273   7.326 -0.0630 -0.4609  0.2162
  660WAT     H1 3360   3.953   4.330   7.346 -0.2746 -0.5481 -0.1842
  660WAT     H2 3361   4.028   4.228   7.400  0.0009  0.0021  0.4875
  660WAT    EPW 3362   4.009   4.274   7.340 -0.0848 -0.4054  0.1971
  661WAT      O 3363   7.291   1.872   6.320 -0.0139  0.3951  0.1986
  661WAT     H1 3364   7.344   1.930   6.282 -1.0278  0.4241 -1.2855
  661WAT     H2 3365   7.281   1.904   6.400  3.0220 -0.2026  0.9269
  661WAT    EPW 3366   7.297   1.886   6.326  0.2848  0.3111  0.0869
  662WAT      O 3367   2.917   3.749   0.157 -0.0669 -0.1939 -0.1837
  662WAT     H1 3368   2.946   3.830   0.144 -0.1575  0.2097  1.7957
  662WAT     H2 3369   2.931   3.710   0.081  1.2959  1.2778 -0.7504
  662WAT    EPW 3370   2.923   3.755   0.144  0.1211  0.0831  0.0250
  663WAT      O 3371   0.753   1.696   3.006  0.1561 -0.1416  0.0561
  663WAT     H1 3372   0.758   1.771   2.962  0.3876  0.0282  0.3682
  663WAT     H2 3373   0.816   1.703   3.065 -1.0947  0.2756  1.3934
  663WAT    EPW 3374   0.763   1.708   3.008  0.0055 -0.0549  0.2998
  664WAT      O 3375   6.180   5.484   5.465 -0.0846  0.0422 -0.3619
  664WAT     H1 3376   6.246   5.459   5.414 -0.2668 -0.0709 -0.5436
  664WAT     H2 3377   6.139   5.409   5.484 -1.0204  0.2538 -1.4440
  664WAT    EPW 3378   6.184   5.469   5.461 -0.2498  0.0568 -0.5486
  665WAT      O 3379   2.787   4.932   2.529 -0.5908  0.0661  0.4012
  665WAT     H1 3380   2.734   4.901   2.468  0.4608  1.0862 -1.0955
  665WAT     H2 3381   2.756   5.012   2.545 -1.1117 -0.3434  1.5444
  665WAT    EPW 3382   2.775   4.939   2.523 -0.5124  0.1563  0.3490
  666WAT      O 3383   1.066   5.332   3.100  0.2879 -0.2924  0.0992
  666WAT     H1 3384   1.063   5.404   3.148  2.4043 -0.4002  0.4802
  666WAT     H2 3385   1.055   5.361   3.019 -0.2295  0.2675  0.3582
  666WAT    EPW 3386   1.064   5.347   3.095  0.5241 -0.2256  0.1937
  667WAT      O 3387   6.820   6.478   7.040 -0.1795  0.0588 -0.0084
  667WAT     H1 3388   6.833   6.539   6.979 -0.9762  0.8071  0.5414
  667WAT     H2 3389   6.739   6.451   7.024  0.2559 -1.0666 -0.4062
  667WAT    EPW 3390   6.810   6.483   7.029 -0.2329  0.0031  0.0140
  668WAT      O 3391   5.158   3.588   0.719  0.4692  0.3520 -0.5119
  668WAT     H1 3392   5.082   3.549   0.703  1.8662 -2.2170 -1.4292
  668WAT     H2 3393   5.152   3.664   0.675 -1.8522  0.7070  0.2518
  668WAT    EPW 3394   5.146   3.594   0.710  0.3326  0.0249 -0.5346
  669WAT      O 3395   5.127   4.132   6.795 -0.0012  0.3178 -0.1252
  669WAT     H1 3396   5.184   4.066   6.790 -0.0531  0.2446  0.2213
  669WAT     H2 3397   5.172   4.200   6.763 -0.0242  0.0726 -0.6983
  669WAT    EPW 3398   5.142   4.132   6.789 -0.0123  0.2708 -0.1587
  670WAT      O 3399   5.756   4.301   7.305 -0.4152 -0.1407  0.3173
  670WAT     H1 3400   5.800   4.225   7.308 -1.0724 -0.6039 -0.9941
  670WAT     H2 3401   5.801   4.352   7.360 -0.1739 -1.5742  1.5451
  670WAT    EPW 3402   5.769   4.297   7.314 -0.4766 -0.4209  0.3050
  671WAT      O 3403   7.178   5.319   6.588 -0.4529  0.4929 -0.1949
  671WAT     H1 3404   7.212   5.392   6.621 -1.0767  0.3057  0.9373
  671WAT     H2 3405   7.247   5.266   6.580 -0.1019  0.9707 -0.3561
  671WAT    EPW 3406   7.193   5.322   6.592 -0.4932  0.5358 -0.0515
  672WAT      O 3407   4.417   2.114   5.145 -0.5012  1.0737  0.4023
  672WAT     H1 3408   4.411   2.177   5.205 -2.3130  1.0649  0.2688
  672WAT     H2 3409   4.441   2.157   5.073  0.2555  1.2902  0.7710
  672WAT    EPW 3410   4.420   2.130   5.143 -0.6571  1.1044  0.4370
  673WAT      O 3411   4.187   0.227   5.082 -0.4229 -0.4544 -0.1439
  673WAT     H1 3412   4.248   0.283   5.055  0.2127 -1.3221 -0.5305
  673WAT     H2 3413   4.157   0.264   5.156 -0.0181  0.3846 -0.3846
  673WAT    EPW 3414   4.191   0.241   5.089 -0.2692 -0.4586 -0.2365
  674WAT      O 3415   2.033   1.757   0.355 -0.3988  0.3404  0.3111
  674WAT     H1 3416   2.082   1.686   0.367  0.5199  1.0956  1.1315
  674WAT     H2 3417   2.059   1.786   0.276  0.3859  0.6505  0.6712
  674WAT    EPW 3418   2.044   1.751   0.345 -0.1471  0.4978  0.4855
  675WAT      O 3419   1.191   6.962   6.453  0.3587 -0.4122  0.4208
  675WAT     H1 3420   1.205   6.899   6.394 -0.9854 -1.3766  1.0740
  675WAT     H2 3421   1.266   7.006   6.455  0.5455 -0.5242 -1.7794
  675WAT    EPW 3422   1.204   6.959   6.445  0.1878 -0.5712  0.1923
  676WAT      O 3423   7.215   2.583   1.143 -0.7710  0.1914  0.4391
  676WAT     H1 3424   7.166   2.596   1.214 -0.0937  0.9245  0.7952
  676WAT     H2 3425   7.163   2.606   1.077 -1.5937 -1.0260  0.6458
  676WAT    EPW 3426   7.200   2.588   1.144 -0.7925  0.1199  0.5222
  677WAT      O 3427   7.086   1.344   6.916  1.2943 -0.3698  0.3226
  677WAT     H1 3428   7.016   1.312   6.875  0.7707 -0.7878  1.5046
  677WAT     H2 3429   7.153   1.304   6.878  1.0798  1.2417 -1.9751
  677WAT    EPW 3430   7.085   1.334   6.905  1.1853 -0.1935  0.1578
  678WAT      O 3431   0.996   6.591   3.401 -0.2721 -0.1812  0.3163
  678WAT     H1 3432   0.994   6.658   3.344  0.4197  0.2629  0.8089
  678WAT     H2 3433   1.005   6.522   3.349  0.9403  0.2651 -0.1026
  678WAT    EPW 3434   0.997   6.591   3.385  0.0092 -0.0496  0.3272
  679WAT      O 3435   1.197   5.160   4.317  0.1707  0.4546  0.0032
  679WAT     H1 3436   1.165   5.086   4.283  1.3449 -0.2902  0.4664
  679WAT     H2 3437   1.202   5.213   4.248  1.0091 -0.5072 -0.6960
  679WAT    EPW 3438   1.193   5.157   4.302  0.4680  0.2025 -0.0316
  680WAT      O 3439   6.159   2.937   6.193 -0.1355 -0.2739  0.2519
  680WAT     H1 3440   6.172   2.898   6.116 -1.3598 -0.7880  0.2771
  680WAT     H2 3441   6.140   3.019   6.171  1.7746  0.1868  0.1606
  680WAT    EPW 3442   6.158   2.943   6.178 -0.0342 -0.2818  0.2422
  681WAT      O 3443   2.268   0.552   7.133  0.4045 -0.4008 -0.4602
  681WAT     H1 3444   2.287   0.612   7.073  3.1601 -1.0278 -0.3132
  681WAT     H2 3445   2.181   0.542   7.124  0.2995  1.4577 -2.4480
  681WAT    EPW 3446   2.258   0.559   7.123  0.7961 -0.2189 -0.7321
  682WAT      O 3447   4.881   6.571   5.641  0.9378  0.5861 -0.9886
  682WAT     H1 3448   4.939   6.594   5.702  0.6128 -1.1350  0.0617
  682WAT     H2 3449   4.928   6.522   5.586  1.2998  2.3943 -2.3558
  682WAT    EPW 3450   4.897   6.567   5.642  0.9432  0.5990 -1.0354
  683WAT      O 3451   0.357   5.564   2.500 -0.4073 -0.0924 -0.2761
  683WAT     H1 3452   0.401   5.496   2.467  0.6216  1.5915 -2.7058
  683WAT     H2 3453   0.274   5.546   2.482 -0.2894 -1.2396  0.2495
  683WAT    EPW 3454   0.351   5.551   2.492 -0.2379 -0.0131 -0.5574
  684WAT      O 3455   0.106   1.657   0.022  0.6107 -0.2673  0.2206
  684WAT     H1 3456   0.102   1.586   0.074  3.2467  0.5843  1.8016
  684WAT     H2 3457   0.176   1.642  -0.027 -0.9292 -0.3156 -2.1202
  684WAT    EPW 3458   0.116   1.644   0.023  0.7726 -0.1486  0.1084
  685WAT      O 3459   5.383   6.885   3.919  0.5618 -0.2759  0.3464
  685WAT     H1 3460   5.376   6.834   3.848  0.6688  1.2406 -0.7909
  685WAT     H2 3461   5.458   6.859   3.955  0.3440 -1.2939  0.1158
  685WAT    EPW 3462   5.393   6.873   3.914  0.5454 -0.2023  0.1443
  686WAT      O 3463   4.386   3.628   0.303 -0.8666  0.1262 -0.1990
  686WAT     H1 3464   4.376   3.576   0.234  0.8709 -1.3876  0.6043
  686WAT     H2 3465   4.374   3.708   0.270 -0.0112 -0.5287 -2.2948
  686WAT    EPW 3466   4.383   3.632   0.288 -0.4836 -0.1941 -0.3900
  687WAT      O 3467   7.023   3.057   2.447 -0.1038 -0.7867 -0.3816
  687WAT     H1 3468   6.946   3.026   2.475  0.1075  0.6438  2.0507
  687WAT     H2 3469   7.080   2.999   2.478  0.0689  0.3852  1.6181
  687WAT    EPW 3470   7.020   3.044   2.455 -0.0471 -0.4023  0.2731
  688WAT      O 3471   3.422   1.268   3.852 -0.5987  0.4262 -0.2644
  688WAT     H1 3472   3.409   1.342   3.807 -1.5080 -0.0318 -0.7816
  688WAT     H2 3473   3.352   1.220   3.832  1.0193 -1.4946 -1.7386
  688WAT    EPW 3474   3.409   1.272   3.842 -0.4940  0.0748 -0.5586
  689WAT      O 3475   0.120   0.526   1.206  0.5068 -0.1952  0.1454
  689WAT     H1 3476   0.205   0.507   1.198  0.7379  1.4059 -2.7704
  689WAT     H2 3477   0.120   0.611   1.224 -0.4855 -0.2904  0.6218
  689WAT    EPW 3478   0.133   0.536   1.207  0.3943  0.0273 -0.2149
  690WAT      O 3479   2.651   1.844   4.082  0.0995 -0.6705  0.0132
  690WAT     H1 3480   2.689   1.778   4.125 -1.6256 -2.3157 -0.8255
  690WAT     H2 3481   2.574   1.853   4.122  0.8192  1.9124  1.0529
  690WAT    EPW 3482   2.645   1.836   4.094 -0.0490 -0.5320  0.0429
  691WAT      O 3483   5.543   6.759   6.366 -0.2055 -0.7992  0.2275
  691WAT     H1 3484   5.458   6.750   6.383 -1.1038  2.2771 -1.7161
  691WAT     H2 3485   5.558   6.843   6.380  1.9491 -0.7717 -1.6472
  691WAT    EPW 3486   5.533   6.770   6.370 -0.0199 -0.3407 -0.3366
  692WAT      O 3487   4.995   3.889   5.485 -0.5511  0.0395  0.4634
  692WAT     H1 3488   5.050   3.912   5.421 -1.2411  1.7345  0.4251
  692WAT     H2 3489   4.987   3.803   5.475 -0.3385  0.2024 -1.4793
  692WAT    EPW 3490   5.002   3.880   5.474 -0.6216  0.3140  0.1708
  693WAT      O 3491   4.002   3.624   0.679  0.5893 -0.1019 -0.1284
  693WAT     H1 3492   4.021   3.606   0.762  0.8921 -0.2808 -0.2327
  693WAT     H2 3493   3.921   3.591   0.669  2.1847 -4.4729 -1.1578
  693WAT    EPW 3494   3.993   3.616   0.690  0.8697 -0.7740 -0.2959
  694WAT      O 3495   3.410   1.494   0.906  1.0187 -0.0380 -0.3563
  694WAT     H1 3496   3.404   1.559   0.848  3.4136  0.3956 -0.2187
  694WAT     H2 3497   3.342   1.509   0.960  0.7227  1.5438 -1.1064
  694WAT    EPW 3498   3.399   1.506   0.905  1.3288  0.2597 -0.4468
  695WAT      O 3499   3.341   1.760   3.650 -0.2437 -0.7438 -0.4468
  695WAT     H1 3500   3.279   1.787   3.705 -1.4784 -2.9247 -0.6477
  695WAT     H2 3501   3.310   1.780   3.571  1.0201  1.3605 -0.5082
  695WAT    EPW 3502   3.327   1.767   3.647 -0.2394 -0.7551 -0.4855
  696WAT      O 3503   0.960   5.130   0.946  0.0293 -0.5045 -0.2258
  696WAT     H1 3504   1.009   5.061   0.969 -1.0399 -1.0242  0.5860
  696WAT     H2 3505   1.012   5.198   0.963  0.3846 -1.0273  0.9146
  696WAT    EPW 3506   0.975   5.130   0.952 -0.0762 -0.6585  0.0626
  697WAT      O 3507   5.727   0.744   6.278 -0.2900 -0.2588 -0.1644
  697WAT     H1 3508   5.649   0.716   6.250  0.2484 -1.1522 -0.8047
  697WAT     H2 3509   5.706   0.798   6.344 -1.4343 -0.7367 -0.1043
  697WAT    EPW 3510   5.712   0.748   6.284 -0.3795 -0.4614 -0.2501
  698WAT      O 3511   3.731   7.200   7.226  0.3142  0.6328  0.0750
  698WAT     H1 3512   3.816   7.187   7.212  0.4850  2.2869 -0.5460
  698WAT     H2 3513   3.727   7.219   7.311  0.4420 -0.2769  0.2930
  698WAT    EPW 3514   3.743   7.201   7.237  0.3583  0.7427  0.0155
  699WAT      O 3515   6.736   1.237   2.753 -0.3184  0.5557 -0.5257
  699WAT     H1 3516   6.665   1.215   2.798 -1.1611  1.3704 -1.4192
  699WAT     H2 3517   6.782   1.285   2.809  1.1887 -2.5950  1.2115
  699WAT    EPW 3518   6.732   1.241   2.768 -0.2202  0.2107 -0.4011
  700WAT      O 3519   3.131   0.910   4.686  0.0081 -0.0813  0.2271
  700WAT     H1 3520   3.144   0.876   4.607  2.0272  0.4756  0.2570
  700WAT     H2 3521   3.116   0.994   4.670 -0.2836 -0.0968  0.4088
  700WAT    EPW 3522   3.131   0.917   4.672  0.2633 -0.0013  0.2583
  701WAT      O 3523   0.998   4.850   6.484  0.8468 -0.9422  0.0319
  701WAT     H1 3524   0.979   4.847   6.569 -1.6909 -1.1918 -0.4778
  701WAT     H2 3525   1.071   4.898   6.482  0.4988 -0.1655  2.2821
  701WAT    EPW 3526   1.006   4.857   6.496  0.4205 -0.8643  0.2890
  702WAT      O 3527   2.530   6.055   4.734 -0.0809  0.2335 -0.5590
  702WAT     H1 3528   2.528   6.132   4.694  0.8260  1.1311  1.0023
  702WAT     H2 3529   2.576   6.005   4.680 -0.3354  0.8848 -1.4091
  702WAT    EPW 3530   2.537   6.059   4.720  0.0155  0.4623 -0.4539
  703WAT      O 3531   6.083   4.396   2.197  0.0135  0.5811 -0.4349
  703WAT     H1 3532   6.092   4.330   2.140 -2.4071 -0.6048  0.4107
  703WAT     H2 3533   6.133   4.459   2.163  2.1897 -1.5477 -1.4475
  703WAT    EPW 3534   6.091   4.396   2.183 -0.0226  0.0915 -0.4596
  704WAT      O 3535   6.572   0.973   3.506  0.4061 -0.0804  0.1909
  704WAT     H1 3536   6.572   1.031   3.572 -0.9509  0.9721 -0.6841
  704WAT     H2 3537   6.566   0.896   3.546  0.1614  0.5010  1.3096
  704WAT    EPW 3538   6.571   0.970   3.522  0.1695  0.1610  0.2269
  705WAT      O 3539   6.152   5.828   6.006 -0.3706 -0.0788 -0.9031
  705WAT     H1 3540   6.095   5.893   5.995 -0.3045  0.0685 -0.4039
  705WAT     H2 3541   6.132   5.772   5.942 -1.3762 -0.2504 -0.4588
  705WAT    EPW 3542   6.141   5.830   5.995 -0.5094 -0.0824 -0.7638
  706WAT      O 3543   1.228   7.154   3.236 -0.3334 -0.5560  0.4775
  706WAT     H1 3544   1.312   7.156   3.259 -1.0369  0.2464  3.3871
  706WAT     H2 3545   1.209   7.069   3.239  0.0858 -0.6366  1.0030
  706WAT    EPW 3546   1.238   7.141   3.240 -0.3754 -0.4494  0.9850
  707WAT      O 3547   1.297   4.204   0.033  0.4152 -0.7367  0.8547
  707WAT     H1 3548   1.229   4.194  -0.021  1.1042  0.6812 -0.3357
  707WAT     H2 3549   1.337   4.126   0.030 -0.8946 -1.4579  1.2615
  707WAT    EPW 3550   1.293   4.191   0.024  0.3235 -0.6338  0.7390
  708WAT      O 3551   5.776   3.444   3.954 -0.5279 -0.2133  0.5033
  708WAT     H1 3552   5.833   3.423   4.017 -1.0012  0.4294  1.1549
  708WAT     H2 3553   5.816   3.418   3.881  0.2913 -0.4137  1.0138
  708WAT    EPW 3554   5.790   3.437   3.952 -0.4768 -0.1480  0.6749
  709WAT      O 3555   4.643   7.186   1.798  0.7140 -0.2090 -0.0337
  709WAT     H1 3556   4.683   7.217   1.727  0.0600  2.0136  0.4876
  709WAT     H2 3557   4.563   7.165   1.769  0.8352 -0.4437 -0.1967
  709WAT    EPW 3558   4.637   7.187   1.783  0.6353  0.0847  0.0192
  710WAT      O 3559   0.030   7.146   6.952  0.0143  0.0740 -0.3502
  710WAT     H1 3560  -0.008   7.204   7.005  0.7187  0.9858 -0.8326
  710WAT     H2 3561   0.083   7.102   7.005  1.5515  1.7139 -0.4346
  710WAT    EPW 3562   0.032   7.148   6.968  0.3454  0.4510 -0.4339
  711WAT      O 3563   6.851   1.377   2.541  0.6363 -0.5172 -0.6549
  711WAT     H1 3564   6.868   1.446   2.592 -0.9655  0.2039 -1.0489
  711WAT     H2 3565   6.783   1.339   2.580  1.0240 -1.4597 -0.8603
  711WAT    EPW 3566   6.844   1.382   2.555  0.4570 -0.5499 -0.7434
  712WAT      O 3567   3.929   5.778   0.256  0.2597 -0.6044  0.0696
  712WAT     H1 3568   3.901   5.740   0.330  0.8453  0.0005  0.6191
  712WAT     H2 3569   3.962   5.854   0.284 -0.7758  0.2781 -0.9863
  712WAT    EPW 3570   3.930   5.784   0.271  0.1933 -0.3847 -0.0052
  713WAT      O 3571   7.070   4.990   3.973  0.5545  0.1427  0.2993
  713WAT     H1 3572   7.060   4.973   4.058 -0.3605  0.1530  0.2058
  713WAT     H2 3573   7.125   5.058   3.972  1.4192 -0.5257  0.8294
  713WAT    EPW 3574   7.077   4.997   3.986  0.5471  0.0455  0.3638
  714WAT      O 3575   2.247   4.234   7.183  0.1556 -0.5000 -0.2008
  714WAT     H1 3576   2.316   4.264   7.229  0.4739  0.2183 -1.1299
  714WAT     H2 3577   2.206   4.182   7.240  0.8756 -0.0965  0.7113
  714WAT    EPW 3578   2.251   4.231   7.199  0.3090 -0.3343 -0.2033
  715WAT      O 3579   6.002   4.484   3.563  0.2508 -0.5125  1.0850
  715WAT     H1 3580   5.971   4.516   3.637 -1.0331  1.0895 -0.0673
  715WAT     H2 3581   6.082   4.518   3.557  0.0998 -0.0912  1.4227
  715WAT    EPW 3582   6.009   4.494   3.573  0.0388 -0.2136  0.9647
  716WAT      O 3583   2.044   5.433   5.144 -0.0394 -0.0828 -0.1177
  716WAT     H1 3584   2.082   5.427   5.222  2.5992  3.1325 -0.9162
  716WAT     H2 3585   2.077   5.366   5.099  1.2477  0.0774  0.5491
  716WAT    EPW 3586   2.055   5.422   5.149  0.5405  0.4159 -0.1372
  717WAT      O 3587   6.289   2.992   2.876  0.4747 -0.2037 -0.1878
  717WAT     H1 3588   6.374   2.973   2.875  0.5576  0.0444  0.8036
  717WAT     H2 3589   6.287   3.078   2.863  0.3833 -0.1846 -0.0478
  717WAT    EPW 3590   6.301   3.002   2.874  0.4735 -0.1643 -0.0207
  718WAT      O 3591   3.244   6.724   5.293 -0.0264  0.0679 -0.2391
  718WAT     H1 3592   3.264   6.657   5.242  0.6940 -0.0051  0.1220
  718WAT     H2 3593   3.164   6.705   5.322 -0.6210  0.3227 -1.6617
  718WAT    EPW 3594   3.235   6.712   5.290 -0.0078  0.0948 -0.3959
  719WAT      O 3595   3.860   2.428   6.504  0.2570 -0.0970  0.2266
  719WAT     H1 3596   3.801   2.384   6.552 -2.2296  2.1338 -0.5353
  719WAT     H2 3597   3.901   2.365   6.459 -2.0674 -1.7490  0.2395
  719WAT    EPW 3598   3.857   2.412   6.505 -0.4537 -0.0115  0.1159
  720WAT      O 3599   2.968   0.860   4.116 -0.3465  0.1609  0.0217
  720WAT     H1 3600   3.011   0.929   4.148  0.7506 -0.9862  1.1400
  720WAT     H2 3601   3.020   0.831   4.052 -1.8610  1.6078 -1.9934
  720WAT    EPW 3602   2.982   0.866   4.111 -0.4082  0.2052 -0.1108
  721WAT      O 3603   2.978   1.667   0.454  0.3275 -0.3771  0.1072
  721WAT     H1 3604   2.963   1.737   0.405  1.4469 -0.0961  0.1276
  721WAT     H2 3605   2.899   1.634   0.469 -0.3024  1.3455  0.7722
  721WAT    EPW 3606   2.964   1.672   0.449  0.3998 -0.0812  0.2084
  722WAT      O 3607   1.722   4.163   7.193 -0.5746  0.2453  0.2455
  722WAT     H1 3608   1.755   4.175   7.272  1.3418  1.9089 -0.7107
  722WAT     H2 3609   1.737   4.239   7.152  0.0530 -1.0672 -2.2022
  722WAT    EPW 3610   1.729   4.176   7.199 -0.1988  0.2971 -0.2573
  723WAT      O 3611   0.874   3.168   2.288 -0.2274 -0.0059 -0.2640
  723WAT     H1 3612   0.853   3.087   2.314 -1.7134  0.6194  0.6332
  723WAT     H2 3613   0.961   3.168   2.288 -0.1999 -1.5030  0.0416
  723WAT    EPW 3614   0.884   3.156   2.292 -0.4428 -0.1347 -0.0863
  724WAT      O 3615   5.173   7.177   7.350  0.1023 -0.5683  0.0053
  724WAT     H1 3616   5.222   7.240   7.385 -0.6448 -0.1067  0.2413
  724WAT     H2 3617   5.134   7.217   7.283  0.1416 -0.9673 -0.2619
  724WAT    EPW 3618   5.175   7.192   7.345 -0.0022 -0.5591  0.0007
  725WAT      O 3619   4.317   1.628   6.426  0.1293 -0.3405  0.5025
  725WAT     H1 3620   4.310   1.560   6.371  1.3459  0.3909 -0.6058
  725WAT     H2 3621   4.271   1.602   6.495 -0.7317 -1.6575 -0.5012
  725WAT    EPW 3622   4.309   1.614   6.428  0.1818 -0.4270  0.1905
  726WAT      O 3623   3.119   1.532   6.582  0.2375  0.9077  0.0436
  726WAT     H1 3624   3.095   1.528   6.498 -1.4168  2.9112  0.3576
  726WAT     H2 3625   3.109   1.449   6.609  0.6809  0.2380 -1.6620
  726WAT    EPW 3626   3.114   1.519   6.573  0.0586  1.1047 -0.1620
  727WAT      O 3627   0.855   2.979   3.664 -0.0210 -0.2718  0.1319
  727WAT     H1 3628   0.835   3.062   3.681  1.4420  0.0479  0.4910
  727WAT     H2 3629   0.868   2.977   3.578  0.7874  0.0939  0.2363
  727WAT    EPW 3630   0.854   2.991   3.654  0.3145 -0.1706  0.2004
  728WAT      O 3631   0.425   4.894   1.337  0.0423  0.3224  0.1127
  728WAT     H1 3632   0.496   4.873   1.290 -0.4267 -1.4495  0.1373
  728WAT     H2 3633   0.363   4.903   1.276 -0.0271  0.4216  0.1993
  728WAT    EPW 3634   0.426   4.892   1.321 -0.0372  0.0753  0.1291
  729WAT      O 3635   0.913   2.669   1.195  0.2763  0.1703  0.5254
  729WAT     H1 3636   0.975   2.682   1.135  0.0467  0.7006  0.3948
  729WAT     H2 3637   0.861   2.739   1.187 -1.2526 -1.0021 -0.4647
  729WAT    EPW 3638   0.914   2.681   1.185  0.0165  0.0754  0.3598
  730WAT      O 3639   5.927   7.107   2.154 -0.0378 -0.1695  0.2117
  730WAT     H1 3640   5.883   7.077   2.223 -0.2800 -0.6218 -0.1375
  730WAT     H2 3641   5.916   7.045   2.094 -1.2118  0.9638 -0.7817
  730WAT    EPW 3642   5.919   7.094   2.156 -0.2470 -0.0689  0.0134
  731WAT      O 3643   3.958   1.070   4.564  0.3407  0.3729  0.1533
  731WAT     H1 3644   3.959   0.999   4.512 -2.1004  1.1067 -1.0702
  731WAT     H2 3645   3.945   1.036   4.643  0.2464 -0.6128 -0.2598
  731WAT    EPW 3646   3.956   1.054   4.568 -0.0338  0.3357 -0.0885
  732WAT      O 3647   0.541   3.136   5.265 -0.4192 -0.2901  0.6259
  732WAT     H1 3648   0.525   3.218   5.290  0.9514 -0.0193  0.6813
  732WAT     H2 3649   0.473   3.116   5.214 -1.2533  0.5302  1.3909
  732WAT    EPW 3650   0.529   3.145   5.261 -0.3399 -0.1289  0.7471
  733WAT      O 3651   3.719   3.544   0.666 -0.1049 -0.3725 -0.3080
  733WAT     H1 3652   3.672   3.590   0.724  0.0942  0.7339 -1.0022
  733WAT     H2 3653   3.708   3.462   0.692 -0.9028  0.0174  0.6568
  733WAT    EPW 3654   3.710   3.539   0.679 -0.1933 -0.1514 -0.2680
  734WAT      O 3655   0.549   4.717   6.252 -0.1186 -0.1072  0.5932
  734WAT     H1 3656   0.550   4.633   6.230 -1.1224  0.3624 -1.5769
  734WAT     H2 3657   0.468   4.742   6.231  0.5318  1.6652 -0.0002
  734WAT    EPW 3658   0.537   4.708   6.245 -0.1708  0.2240  0.1850
  735WAT      O 3659   1.693   1.794   3.533  0.2231  0.1165 -0.1409
  735WAT     H1 3660   1.753   1.775   3.593 -0.5493  1.2908  1.0583
  735WAT     H2 3661   1.662   1.716   3.510  1.4030 -0.4309  0.0454
  735WAT    EPW 3662   1.697   1.780   3.538  0.2833  0.2091  0.0637
  736WAT      O 3663   1.959   6.636   0.544 -0.2811  0.0981 -0.0174
  736WAT     H1 3664   1.941   6.554   0.567  0.7794  0.1126  0.9580
  736WAT     H2 3665   1.971   6.631   0.458  0.4271 -0.9270  0.1217
  736WAT    EPW 3666   1.958   6.623   0.535 -0.0198 -0.0512  0.1472
  737WAT      O 3667   6.294   3.265   2.775 -0.5107  0.1585  0.1250
  737WAT     H1 3668   6.359   3.269   2.717 -0.7890  0.0145 -0.1972
  737WAT     H2 3669   6.226   3.238   2.728 -0.6509 -0.3124  0.5889
  737WAT    EPW 3670   6.294   3.262   2.760 -0.5725  0.0676  0.1459
  738WAT      O 3671   5.310   2.244   4.817 -0.0132 -0.9042  0.0621
  738WAT     H1 3672   5.257   2.306   4.848  2.7563  0.8095  1.7799
  738WAT     H2 3673   5.340   2.279   4.743 -0.6356 -1.5256 -0.4967
  738WAT    EPW 3674   5.307   2.258   4.810  0.3039 -0.7428  0.2333
  739WAT      O 3675   4.393   6.316   3.894  0.0212 -0.1392  0.3228
  739WAT     H1 3676   4.458   6.354   3.852  0.3559 -0.6001  0.4179
  739WAT     H2 3677   4.323   6.335   3.846  0.1209  0.9162  0.5807
  739WAT    EPW 3678   4.392   6.324   3.881  0.0854 -0.0514  0.3749
  740WAT      O 3679   1.332   4.484   4.845 -0.0015 -0.2430  0.3121
  740WAT     H1 3680   1.299   4.437   4.911  0.1362 -2.1734 -0.9350
  740WAT     H2 3681   1.418   4.475   4.854  0.0247 -0.3060 -0.0026
  740WAT    EPW 3682   1.340   4.476   4.856  0.0227 -0.5375  0.0814
  741WAT      O 3683   4.701   2.560   5.839 -0.3484 -0.0194  0.1749
  741WAT     H1 3684   4.748   2.515   5.898 -1.2805  1.0000  1.7749
  741WAT     H2 3685   4.646   2.500   5.808  0.0349 -0.5433  0.4750
  741WAT    EPW 3686   4.700   2.544   5.843 -0.4295  0.0538  0.4556
  742WAT      O 3687   6.500   4.628   4.569  0.3038 -0.1455  0.2324
  742WAT     H1 3688   6.475   4.612   4.487  2.2058  0.6343 -0.5448
  742WAT     H2 3689   6.425   4.639   4.612 -0.8535 -2.9937 -0.8406
  742WAT    EPW 3690   6.485   4.627   4.563  0.4138 -0.4510 -0.0409
  743WAT      O 3691   5.158   2.482   4.850  0.4554 -0.1373 -0.3083
  743WAT     H1 3692   5.090   2.453   4.895 -0.4884  1.6055 -0.5275
  743WAT     H2 3693   5.124   2.510   4.775  1.9631 -2.7696 -2.1461
  743WAT    EPW 3694   5.143   2.482   4.846  0.5387 -0.2687 -0.6121
  744WAT      O 3695   4.590   4.935   7.211  0.1784 -0.0837  0.8828
  744WAT     H1 3696   4.579   4.988   7.279  0.3111 -0.6215  1.3298
  744WAT     H2 3697   4.531   4.872   7.225  0.2895 -0.2628  0.5573
  744WAT    EPW 3698   4.579   4.934   7.223  0.2144 -0.1896  0.9008
  745WAT      O 3699   4.765   6.133   2.360  0.0875 -0.1822 -0.5379
  745WAT     H1 3700   4.754   6.061   2.408  0.1521  0.3835  0.3257
  745WAT     H2 3701   4.691   6.139   2.314 -1.6061  1.3073  2.1827
  745WAT    EPW 3702   4.753   6.123   2.360 -0.1531  0.1214 -0.0084
  746WAT      O 3703   4.373   4.380   5.137 -0.4422  0.1724  0.2093
  746WAT     H1 3704   4.407   4.363   5.059 -0.2804 -1.6187  0.6278
  746WAT     H2 3705   4.295   4.415   5.119  0.1194  0.9886 -0.7330
  746WAT    EPW 3706   4.367   4.383   5.123 -0.3353  0.0284  0.1319
  747WAT      O 3707   5.081   0.313   4.897  0.3552 -0.5409 -0.0117
  747WAT     H1 3708   5.156   0.329   4.938 -0.8023  0.4469  1.8713
  747WAT     H2 3709   5.047   0.246   4.941 -1.4622  1.2937  1.6029
  747WAT    EPW 3710   5.087   0.305   4.909 -0.0842 -0.1240  0.5049
  748WAT      O 3711   4.806   0.943   6.334 -0.6232  0.5867  0.0073
  748WAT     H1 3712   4.851   0.939   6.260  0.6701  0.8134  0.7587
  748WAT     H2 3713   4.752   0.875   6.329 -1.9443  1.7009 -1.9944
  748WAT    EPW 3714   4.805   0.933   6.322 -0.6273  0.7848 -0.1774
  749WAT      O 3715   4.215   3.992   1.142  0.1402 -0.5974 -0.2725
  749WAT     H1 3716   4.225   4.055   1.083  2.9157 -0.2454  0.4260
  749WAT     H2 3717   4.210   4.036   1.218 -2.6390 -1.0733 -0.0829
  749WAT    EPW 3718   4.216   4.008   1.144  0.1396 -0.6157 -0.1413
  750WAT      O 3719   1.767   5.307   4.449 -0.4286  0.5964  0.3707
  750WAT     H1 3720   1.716   5.344   4.509  1.5476  0.8033  2.0120
  750WAT     H2 3721   1.722   5.318   4.374 -2.0912  1.9955  1.5026
  750WAT    EPW 3722   1.753   5.314   4.446 -0.3823  0.8337  0.7804
  751WAT      O 3723   5.876   4.737   4.832  0.3700 -0.0308 -0.3731
  751WAT     H1 3724   5.826   4.711   4.766  1.8982 -2.1256 -0.7898
  751WAT     H2 3725   5.864   4.676   4.893 -1.7628  2.3471  1.8136
  751WAT    EPW 3726   5.867   4.724   4.831  0.2807  0.0110 -0.1117
  752WAT      O 3727   4.894   4.651   5.730 -0.0785  0.1006  0.2445
  752WAT     H1 3728   4.900   4.737   5.745  1.3975  0.0013  0.3822
  752WAT     H2 3729   4.809   4.638   5.720 -0.5509  1.2617  2.1498
  752WAT    EPW 3730   4.883   4.662   5.731  0.0697  0.2575  0.5463
  753WAT      O 3731   3.976   0.794   3.664 -0.3727 -0.1118 -0.0875
  753WAT     H1 3732   4.049   0.800   3.617 -1.0162 -1.1553 -1.2796
  753WAT     H2 3733   3.913   0.787   3.604 -1.3914  0.0949  0.9166
  753WAT    EPW 3734   3.977   0.794   3.648 -0.6183 -0.2354 -0.1152
  754WAT      O 3735   0.672   2.535   6.191  0.2475  0.5036 -0.0043
  754WAT     H1 3736   0.706   2.606   6.155 -0.3279  0.4252 -0.7407
  754WAT     H2 3737   0.635   2.494   6.123 -0.0085 -0.1499  0.5199
  754WAT    EPW 3738   0.672   2.539   6.176  0.1247  0.3955 -0.0357
  755WAT      O 3739   3.208   4.771   2.956 -0.2992  0.2915  0.2411
  755WAT     H1 3740   3.132   4.770   2.912 -0.7341  0.4487  0.9680
  755WAT     H2 3741   3.251   4.703   2.924 -1.3107 -0.6413  0.7542
  755WAT    EPW 3742   3.203   4.761   2.945 -0.5129  0.1769  0.4242
  756WAT      O 3743   6.079   5.199   6.030 -0.9122 -0.4271 -0.1236
  756WAT     H1 3744   6.166   5.193   6.041 -0.9500  0.3530  0.7273
  756WAT     H2 3745   6.050   5.211   6.111 -1.7848 -0.2190 -0.4659
  756WAT    EPW 3746   6.088   5.200   6.044 -1.0467 -0.2811 -0.0484
  757WAT      O 3747   0.757   0.856   5.051 -0.2572  0.1030 -0.2572
  757WAT     H1 3748   0.832   0.859   5.095 -0.6981  0.9150  0.4550
  757WAT     H2 3749   0.705   0.910   5.094 -0.8996  0.4522 -1.4233
  757WAT    EPW 3750   0.761   0.864   5.064 -0.4172  0.2746 -0.3242
  758WAT      O 3751   1.823   5.459   1.207  0.0141 -0.4706  0.2892
  758WAT     H1 3752   1.761   5.486   1.153 -0.8938  0.3840  1.7120
  758WAT     H2 3753   1.780   5.437   1.280  1.1713 -1.7890  0.6390
  758WAT    EPW 3754   1.807   5.460   1.210  0.0509 -0.5391  0.5510
  759WAT      O 3755   6.683   0.502   1.763  0.1634  0.2994 -0.1906
  759WAT     H1 3756   6.627   0.495   1.829 -1.0463 -0.9314 -1.2951
  759WAT     H2 3757   6.716   0.583   1.773 -0.9910  0.6502  1.1069
  759WAT    EPW 3758   6.680   0.513   1.774 -0.1858  0.1694 -0.1621
  760WAT      O 3759   0.755   5.519   5.540  0.1741  0.2324 -0.1077
  760WAT     H1 3760   0.839   5.527   5.521  1.0165 -2.8679  1.5978
  760WAT     H2 3761   0.746   5.567   5.613  0.0265  1.7578 -1.0868
  760WAT    EPW 3762   0.766   5.527   5.548  0.2767 -0.0003 -0.0004
  761WAT      O 3763   0.579   0.390   0.458  0.3046 -0.0706 -0.1839
  761WAT     H1 3764   0.663   0.378   0.481  0.5335  1.4828 -0.0589
  761WAT     H2 3765   0.582   0.395   0.371 -0.0521 -2.4760 -0.3832
  761WAT    EPW 3766   0.592   0.389   0.449  0.2857 -0.1965 -0.1949
  762WAT      O 3767   6.478   2.398   5.405 -0.6097 -0.0881  0.1242
  762WAT     H1 3768   6.405   2.366   5.370  1.1880 -2.0110 -2.1958
  762WAT     H2 3769   6.522   2.326   5.430  0.7843  0.9678  0.8652
  762WAT    EPW 3770   6.474   2.382   5.404 -0.1382 -0.2162 -0.1090
  763WAT      O 3771   4.398   2.154   4.221 -0.6013 -0.3112 -0.5695
  763WAT     H1 3772   4.382   2.081   4.265 -0.4951 -0.6174 -1.0296
  763WAT     H2 3773   4.338   2.154   4.158  0.3353 -0.7921 -1.4952
  763WAT    EPW 3774   4.387   2.143   4.218 -0.4473 -0.4275 -0.7742
  764WAT      O 3775   1.517   1.573   2.806  0.3097 -0.1183  0.0348
  764WAT     H1 3776   1.445   1.560   2.854  0.4873  0.8777  0.5912
  764WAT     H2 3777   1.486   1.609   2.733  0.3679  1.9326  0.9699
  764WAT    EPW 3778   1.502   1.576   2.802  0.3445  0.3318  0.2551
  765WAT      O 3779   0.976   0.856   0.857  0.3158  0.0503  0.5881
  765WAT     H1 3780   1.054   0.823   0.837  0.3444 -0.5220  1.5651
  765WAT     H2 3781   0.947   0.804   0.921 -1.3916 -0.4527 -0.5391
  765WAT    EPW 3782   0.983   0.843   0.864  0.0678 -0.1086  0.5659
  766WAT      O 3783   4.523   6.905   3.946  0.1065  0.1698  0.4685
  766WAT     H1 3784   4.590   6.863   3.908 -0.8824 -0.2017 -0.9190
  766WAT     H2 3785   4.562   6.965   3.996  1.4876 -0.5350  0.2828
  766WAT    EPW 3786   4.539   6.907   3.948  0.1644  0.0108  0.2361
  767WAT      O 3787   5.720   3.605   1.981 -0.3563  0.0642  0.1443
  767WAT     H1 3788   5.699   3.545   2.041 -0.7071 -0.0266 -0.0690
  767WAT     H2 3789   5.654   3.661   1.983  0.0704  0.5606  0.4880
  767WAT    EPW 3790   5.707   3.604   1.990 -0.3451  0.1241  0.1636
  768WAT      O 3791   3.037   4.490   1.607  0.1222 -0.1523  0.2067
  768WAT     H1 3792   2.992   4.536   1.548 -0.5135 -0.4792  0.4236
  768WAT     H2 3793   3.091   4.549   1.642 -1.8056  0.8852  1.6545
  768WAT    EPW 3794   3.039   4.506   1.603 -0.2565 -0.0473  0.4526
  769WAT      O 3795   0.594   1.043   5.181 -0.0116  0.1558  0.4398
  769WAT     H1 3796   0.508   1.056   5.170  0.2191 -0.4526 -2.9136
  769WAT     H2 3797   0.627   1.123   5.173 -0.1461  0.1895  0.2065
  769WAT    EPW 3798   0.586   1.057   5.178  0.0026  0.0709 -0.0900
  770WAT      O 3799   0.308   3.230   3.174  0.3258  0.0068  0.3060
  770WAT     H1 3800   0.223   3.233   3.196 -0.1955 -0.8488 -1.3644
  770WAT     H2 3801   0.340   3.164   3.220 -0.2422 -0.5019 -0.0220
  770WAT    EPW 3802   0.300   3.221   3.184  0.1649 -0.1948  0.0108
  771WAT      O 3803   2.018   1.972   0.542  0.3893 -0.6599  0.1118
  771WAT     H1 3804   1.937   1.961   0.572  0.8686 -3.5278  0.6298
  771WAT     H2 3805   2.032   1.901   0.493  1.2641  1.6473 -3.3766
  771WAT    EPW 3806   2.008   1.960   0.539  0.5894 -0.7427 -0.3270
  772WAT      O 3807   0.413   2.020   3.995 -0.5364 -0.3928  0.8343
  772WAT     H1 3808   0.444   2.011   3.913 -0.2685  1.5958  0.6798
  772WAT     H2 3809   0.327   2.024   3.984 -0.4157  3.0748  0.1962
  772WAT    EPW 3810   0.405   2.019   3.981 -0.4790  0.4132  0.7172
  773WAT      O 3811   6.415   2.698   0.367 -0.3512  0.4064  0.5391
  773WAT     H1 3812   6.364   2.766   0.387 -0.6014  0.4739 -0.2991
  773WAT     H2 3813   6.397   2.683   0.283 -0.4923 -0.8614  0.7803
  773WAT    EPW 3814   6.405   2.706   0.358 -0.4090  0.2291  0.4510
  774WAT      O 3815   0.188   1.799   4.156  0.5030 -0.5870 -0.3115
  774WAT     H1 3816   0.258   1.749   4.139  0.2112 -0.0832 -3.4690
  774WAT     H2 3817   0.129   1.742   4.186  1.8904 -1.1554  1.5495
  774WAT    EPW 3818   0.190   1.783   4.158  0.6649 -0.5966 -0.5030
  775WAT      O 3819   6.128   0.669   0.107  0.5540  0.1833 -0.3763
  775WAT     H1 3820   6.159   0.599   0.149  1.7936  0.8027 -0.2339
  775WAT     H2 3821   6.125   0.731   0.168 -0.6255  0.2591 -0.4812
  775WAT    EPW 3822   6.132   0.667   0.122  0.5629  0.2860 -0.3708
  776WAT      O 3823   5.530   2.180   5.843  0.4449 -0.3310  0.2621
  776WAT     H1 3824   5.561   2.212   5.918  1.0762 -0.5154  0.0839
  776WAT     H2 3825   5.600   2.142   5.806 -0.2947 -1.9940  0.4940
  776WAT    EPW 3826   5.545   2.179   5.848  0.4289 -0.6039  0.2700
  777WAT      O 3827   4.280   1.691   7.014 -0.7526 -0.0634  0.0726
  777WAT     H1 3828   4.332   1.690   7.085 -0.9219  1.5920  0.2750
  777WAT     H2 3829   4.303   1.619   6.970 -0.2406 -0.8254  1.5205
  777WAT    EPW 3830   4.291   1.680   7.018 -0.7020  0.0686  0.3164
  778WAT      O 3831   6.849   1.011   2.614  0.4339 -0.1826 -0.8411
  778WAT     H1 3832   6.928   1.045   2.627  0.1618 -0.0303  0.5769
  778WAT     H2 3833   6.796   1.065   2.657 -0.2759 -1.1063 -0.5166
  778WAT    EPW 3834   6.853   1.024   2.622  0.2888 -0.2966 -0.5837
  779WAT      O 3835   2.391   1.936   0.618 -0.4081  0.0665  0.3628
  779WAT     H1 3836   2.325   1.957   0.672  0.9792  0.0080  2.1671
  779WAT     H2 3837   2.382   1.994   0.553 -1.6687  0.6898  1.0359
  779WAT    EPW 3838   2.380   1.948   0.617 -0.3894  0.1499  0.7287
  780WAT      O 3839   6.454   3.822   1.773 -0.4466  0.2004 -0.4272
  780WAT     H1 3840   6.484   3.759   1.720 -0.9902  1.6411 -2.5862
  780WAT     H2 3841   6.515   3.828   1.835  0.3251 -1.4524 -0.9637
  780WAT    EPW 3842   6.467   3.814   1.775 -0.4129  0.1691 -0.8254
  781WAT      O 3843   5.026   0.093   2.793 -0.6116 -0.2991  0.0952
  781WAT     H1 3844   5.079   0.155   2.825 -1.2452  0.1208  0.3647
  781WAT     H2 3845   5.049   0.087   2.710  0.3113 -0.6051  0.3636
  781WAT    EPW 3846   5.037   0.101   2.786 -0.5689 -0.2823  0.1747
  782WAT      O 3847   6.814   0.672   0.706  0.4567  0.4233 -0.1213
  782WAT     H1 3848   6.728   0.684   0.696  0.5474  0.7094 -0.5901
  782WAT     H2 3849   6.820   0.631   0.783 -0.0705  0.7544  0.1016
  782WAT    EPW 3850   6.802   0.668   0.716  0.3922  0.5145 -0.1576
  783WAT      O 3851   4.033   7.110   0.644  0.2976 -0.6636  0.1498
  783WAT     H1 3852   3.978   7.116   0.711  0.7280 -2.0852  0.6650
  783WAT     H2 3853   4.047   7.025   0.636  1.4221 -0.4235 -0.7997
  783WAT    EPW 3854   4.027   7.099   0.652  0.5273 -0.8381  0.0857
  784WAT      O 3855   0.157   6.662   1.143 -0.5449  0.0715 -0.2503
  784WAT     H1 3856   0.079   6.659   1.181 -0.3844 -0.9274  0.0409
  784WAT     H2 3857   0.139   6.676   1.059 -0.9027  2.3086  0.1403
  784WAT    EPW 3858   0.143   6.663   1.136 -0.5741  0.2544 -0.1496
  785WAT      O 3859   6.661   1.419   4.509  0.2064  0.1513  0.1682
  785WAT     H1 3860   6.722   1.439   4.450  0.2123 -1.2889 -0.3466
  785WAT     H2 3861   6.598   1.382   4.461  0.0037 -0.6009  0.9959
  785WAT    EPW 3862   6.660   1.416   4.493  0.1773 -0.1725  0.2144
  786WAT      O 3863   2.502   2.590   0.616  0.1528 -0.2855 -0.3138
  786WAT     H1 3864   2.579   2.612   0.652  0.7094 -0.0857 -1.5781
  786WAT     H2 3865   2.479   2.518   0.659  0.5732  0.1818  0.7298
  786WAT    EPW 3866   2.510   2.583   0.628  0.2971 -0.1870 -0.3464
  787WAT      O 3867   2.105   3.396   3.000  0.3553  0.1321 -0.6389
  787WAT     H1 3868   2.072   3.338   2.944 -0.5894  0.4041 -0.3904
  787WAT     H2 3869   2.089   3.473   2.963 -0.9008  0.3511  0.2805
  787WAT    EPW 3870   2.098   3.399   2.986  0.0302  0.2046 -0.4664
  788WAT      O 3871   6.462   3.897   2.529  0.1503 -0.1928  0.3240
  788WAT     H1 3872   6.426   3.941   2.463 -1.1495  0.9628  1.7123
  788WAT     H2 3873   6.528   3.948   2.554 -0.3906  0.2263  0.9405
  788WAT    EPW 3874   6.467   3.911   2.523 -0.1216  0.0398  0.6201
  789WAT      O 3875   3.109   0.478   3.192 -0.2693 -0.2390  0.2490
  789WAT     H1 3876   3.061   0.436   3.252  0.5516 -0.6620  0.6292
  789WAT     H2 3877   3.148   0.414   3.148  0.9544  0.0888  0.8026
  789WAT    EPW 3878   3.107   0.463   3.195  0.0327 -0.2531  0.3870
  790WAT      O 3879   6.343   3.000   1.465 -0.2530 -0.0599 -0.2687
  790WAT     H1 3880   6.404   3.043   1.510  0.2213  0.8244 -1.6966
  790WAT     H2 3881   6.363   3.017   1.382 -2.3224  0.0931 -0.7855
  790WAT    EPW 3882   6.355   3.009   1.460 -0.4887  0.0933 -0.5560
  791WAT      O 3883   0.705   0.066   4.412 -0.1518  0.3122 -0.2143
  791WAT     H1 3884   0.642   0.039   4.359  1.3367 -1.2054 -1.3170
  791WAT     H2 3885   0.690   0.021   4.486 -0.4003  0.0446 -0.4263
  791WAT    EPW 3886   0.693   0.055   4.415  0.0314  0.0485 -0.4085
  792WAT      O 3887   0.027   6.649   4.669 -0.2476  0.0549 -0.2640
  792WAT     H1 3888   0.061   6.678   4.594 -0.4309  2.0138  0.3490
  792WAT     H2 3889   0.089   6.666   4.728 -0.8543  0.3358  0.3099
  792WAT    EPW 3890   0.041   6.656   4.667 -0.3643  0.3858 -0.0887
  793WAT      O 3891   1.242   1.514   3.769 -0.4001 -0.3869  0.6285
  793WAT     H1 3892   1.295   1.449   3.741  1.2847  2.2046 -3.1326
  793WAT     H2 3893   1.298   1.574   3.799 -1.1895  1.5575 -1.4638
  793WAT    EPW 3894   1.258   1.513   3.769 -0.2678  0.2831 -0.2362
  794WAT      O 3895   5.300   2.123   2.569 -0.2010  0.4301  0.2112
  794WAT     H1 3896   5.276   2.121   2.485 -0.4463  1.7737  0.2265
  794WAT     H2 3897   5.224   2.126   2.612 -0.0558  1.3000  0.4132
  794WAT    EPW 3898   5.285   2.123   2.563 -0.2158  0.7571  0.2433
  795WAT      O 3899   6.021   0.736   4.535 -0.0313 -0.4845  0.2093
  795WAT     H1 3900   5.939   0.761   4.518 -0.3716 -2.3640 -1.2153
  795WAT     H2 3901   6.028   0.660   4.493  2.3572 -0.5118  0.5505
  795WAT    EPW 3902   6.010   0.729   4.526  0.2712 -0.7662  0.0492
  796WAT      O 3903   3.897   0.173   7.072  0.1437  0.5545  0.0349
  796WAT     H1 3904   3.811   0.166   7.065  0.1585 -0.7924  0.7783
  796WAT     H2 3905   3.925   0.091   7.057  1.1828  0.6837  1.1124
  796WAT    EPW 3906   3.889   0.160   7.068  0.2994  0.3746  0.3039
  797WAT      O 3907   0.686   1.596   0.753  0.6038  0.4937  0.3020
  797WAT     H1 3908   0.660   1.527   0.801  0.9259  0.1662  0.0131
  797WAT     H2 3909   0.744   1.561   0.697  0.6986  0.9850  0.0910
  797WAT    EPW 3910   0.691   1.581   0.752  0.6654  0.5179  0.2282
  798WAT      O 3911   4.841   4.344   5.675 -0.0212 -0.0770  0.3056
  798WAT     H1 3912   4.811   4.316   5.752 -1.3639 -0.3886 -0.2940
  798WAT     H2 3913   4.808   4.425   5.669  0.3803  0.0816  0.2095
  798WAT    EPW 3914   4.831   4.352   5.686 -0.1602 -0.0996  0.2028
  799WAT      O 3915   0.483   0.106   2.353 -0.3345 -0.0006  0.0071
  799WAT     H1 3916   0.470   0.122   2.438 -0.7860 -0.0790 -0.0450
  799WAT     H2 3917   0.405   0.121   2.318 -0.2423 -0.3385 -0.3415
  799WAT    EPW 3918   0.470   0.111   2.361 -0.3876 -0.0621 -0.0521
  800WAT      O 3919   3.802   1.307   4.744 -0.7763  0.6954 -0.4511
  800WAT     H1 3920   3.782   1.381   4.702  0.0185  1.5416  0.5959
  800WAT     H2 3921   3.749   1.248   4.708 -0.5468  1.4956 -2.2093
  800WAT    EPW 3922   3.791   1.309   4.732 -0.6250  0.9386 -0.5562
  801WAT      O 3923   0.915   2.884   5.641 -0.0134 -0.7114 -0.0907
  801WAT     H1 3924   0.869   2.820   5.604  1.3922 -1.0604 -1.3433
  801WAT     H2 3925   0.997   2.866   5.618  0.6134  0.5832  0.9951
  801WAT    EPW 3926   0.920   2.872   5.632  0.2868 -0.5717 -0.1153
  802WAT      O 3927   2.383   6.901   4.627  0.0045  0.4166  0.1042
  802WAT     H1 3928   2.436   6.965   4.654  0.6643  0.8725 -2.0831
  802WAT     H2 3929   2.439   6.842   4.594 -0.7707  0.8955 -2.2360
  802WAT    EPW 3930   2.399   6.901   4.627 -0.0126  0.5547 -0.5646
  803WAT      O 3931   6.945   2.739   0.368 -0.3685 -0.5467  0.2220
  803WAT     H1 3932   6.922   2.809   0.322  1.7700 -0.8104 -1.3619
  803WAT     H2 3933   6.896   2.746   0.441 -0.9332  2.0288 -0.3070
  803WAT    EPW 3934   6.934   2.751   0.372 -0.1360 -0.2052 -0.0901
  804WAT      O 3935   0.651   5.122   1.164  0.1559 -0.0449 -0.0589
  804WAT     H1 3936   0.694   5.125   1.240 -0.9109  0.6538  0.5364
  804WAT     H2 3937   0.677   5.196   1.124 -1.2019  0.8953  0.7248
  804WAT    EPW 3938   0.661   5.134   1.169 -0.2022  0.1972  0.1448
  805WAT      O 3939   1.113   4.114   2.607  0.3544 -0.1145 -0.1156
  805WAT     H1 3940   1.035   4.153   2.607  0.5466  0.2857 -0.4941
  805WAT     H2 3941   1.094   4.029   2.604 -0.0684 -0.0488  0.6543
  805WAT    EPW 3942   1.099   4.108   2.606  0.3203 -0.0457 -0.0578
  806WAT      O 3943   6.575   0.039   0.019  0.4453 -0.4236 -0.3338
  806WAT     H1 3944   6.515  -0.020  -0.003  0.6198 -1.0731  0.8713
  806WAT     H2 3945   6.527   0.107   0.048  0.2726 -0.4029 -0.6622
  806WAT    EPW 3946   6.559   0.041   0.020  0.4455 -0.5165 -0.2043
  807WAT      O 3947   4.687   2.041   4.692  0.5655  0.1707  0.8122
  807WAT     H1 3948   4.732   2.034   4.618 -0.1014 -1.5716  0.5385
  807WAT     H2 3949   4.707   2.122   4.720  2.3715  0.1460 -0.2262
  807WAT    EPW 3950   4.697   2.052   4.685  0.7338 -0.0903  0.6184
  808WAT      O 3951   2.910   1.885   3.572 -0.0459 -0.0052 -0.4897
  808WAT     H1 3952   2.971   1.948   3.577 -0.5477  0.5548 -1.2339
  808WAT     H2 3953   2.875   1.885   3.652  2.0323 -1.5065  0.5159
  808WAT    EPW 3954   2.914   1.894   3.585  0.1870 -0.1443 -0.4511
  809WAT      O 3955   1.450   4.070   3.728 -0.0424  0.9174 -0.0217
  809WAT     H1 3956   1.393   4.026   3.679 -1.9552  2.8104  0.3374
  809WAT     H2 3957   1.499   4.112   3.669  0.6340 -0.2396 -0.3204
  809WAT    EPW 3958   1.449   4.070   3.712 -0.2251  1.0261 -0.0128
  810WAT      O 3959   3.321   6.983   6.795  0.6138  0.3511  0.1224
  810WAT     H1 3960   3.308   6.921   6.735  1.2982 -0.2164  0.5416
  810WAT     H2 3961   3.396   7.020   6.772  0.7883  0.2525  0.5178
  810WAT    EPW 3962   3.330   6.979   6.783  0.7407  0.2527  0.2428
  811WAT      O 3963   4.888   1.295   6.612  0.3072  0.2697  0.2568
  811WAT     H1 3964   4.879   1.208   6.614 -1.0795  0.3991  0.3479
  811WAT     H2 3965   4.959   1.308   6.661  0.8719 -0.8372 -0.2194
  811WAT    EPW 3966   4.897   1.284   6.620  0.1858  0.1253  0.1999
  812WAT      O 3967   4.671   3.192   0.247 -0.1650  0.4054  0.0489
  812WAT     H1 3968   4.713   3.141   0.190 -0.3070  0.2880  0.0471
  812WAT     H2 3969   4.594   3.207   0.208 -1.7936 -2.6416  1.6708
  812WAT    EPW 3970   4.666   3.187   0.233 -0.4266 -0.0620  0.2882
  813WAT      O 3971   3.593   5.099   0.789  0.6262 -0.2822 -0.1375
  813WAT     H1 3972   3.643   5.131   0.853  2.3898  0.1967 -1.6481
  813WAT     H2 3973   3.650   5.057   0.738 -0.7650 -0.9448 -1.2089
  813WAT    EPW 3974   3.609   5.098   0.791  0.6812 -0.3093 -0.5189
  814WAT      O 3975   6.704   2.214   5.423 -1.0584 -0.0744  0.0332
  814WAT     H1 3976   6.665   2.191   5.349 -1.4917  0.3089  0.1356
  814WAT     H2 3977   6.766   2.269   5.397  0.5581 -1.9553 -0.3004
  814WAT    EPW 3978   6.707   2.219   5.408 -0.8836 -0.2956 -0.0009
  815WAT      O 3979   4.257   3.088   7.047  0.2675 -0.4091  0.3102
  815WAT     H1 3980   4.175   3.116   7.056  1.2778  2.4957  2.0607
  815WAT     H2 3981   4.253   3.034   6.979 -3.1834 -0.9635  0.7731
  815WAT    EPW 3982   4.244   3.084   7.038 -0.0931 -0.0619  0.6372
  816WAT      O 3983   5.475   0.358   3.816 -0.2399  0.1830 -0.1148
  816WAT     H1 3984   5.419   0.323   3.872  2.4812 -3.0884  0.8999
  816WAT     H2 3985   5.480   0.298   3.752  0.5121  1.4286 -1.2871
  816WAT    EPW 3986   5.467   0.344   3.815  0.2732 -0.1163 -0.1381
  817WAT      O 3987   6.812   1.915   1.202  0.5402  0.3686  0.0919
  817WAT     H1 3988   6.839   1.953   1.128  0.2859 -0.4787 -0.4492
  817WAT     H2 3989   6.887   1.896   1.243  0.6633  2.3807  0.8835
  817WAT    EPW 3990   6.827   1.918   1.197  0.5208  0.5407  0.1289
  818WAT      O 3991   3.660   5.736   4.111 -0.0732  0.0630  0.6875
  818WAT     H1 3992   3.709   5.801   4.145 -0.4860  0.6234  0.2342
  818WAT     H2 3993   3.706   5.712   4.041  0.3386 -0.4955  1.1411
  818WAT    EPW 3994   3.674   5.742   4.105 -0.0733  0.0633  0.6876
  819WAT      O 3995   0.117   1.011   0.313 -0.1671 -0.1909  0.2724
  819WAT     H1 3996   0.150   0.932   0.293 -0.0369 -0.1263  0.2274
  819WAT     H2 3997   0.061   0.994   0.377  1.7220 -0.0192  2.0840
  819WAT    EPW 3998   0.114   0.997   0.320  0.1312 -0.1560  0.5333
  820WAT      O 3999   1.865   2.401   2.840 -0.0443 -0.0286 -0.0576
  820WAT     H1 4000   1.943   2.375   2.870  0.0501  0.1143 -0.1807
  820WAT     H2 4001   1.836   2.331   2.797 -0.3508 -0.3706  0.6874
  820WAT    EPW 4002   1.873   2.387   2.838 -0.0756 -0.0580  0.0343
  821WAT      O 4003   1.117   0.022   4.621  0.1355  0.2552  0.0176
  821WAT     H1 4004   1.112   0.032   4.708 -0.6824  2.1556 -0.2087
  821WAT     H2 4005   1.054   0.074   4.591  0.4167 -0.3593 -1.7422
  821WAT    EPW 4006   1.107   0.031   4.630  0.0562  0.4452 -0.2758
  822WAT      O 4007   2.316   5.721   6.180 -0.0866 -0.0604  0.4949
  822WAT     H1 4008   2.297   5.716   6.265  0.9128  1.3469  0.8316
  822WAT     H2 4009   2.334   5.638   6.159 -0.1597 -0.4047  1.6995
  822WAT    EPW 4010   2.316   5.708   6.190  0.0502  0.0966  0.7226
  823WAT      O 4011   3.977   2.380   5.483  0.6600  0.9221 -0.3455
  823WAT     H1 4012   3.994   2.355   5.565  1.6874 -1.4776 -1.1965
  823WAT     H2 4013   3.896   2.351   5.469  1.2308 -0.4995 -0.7951
  823WAT    EPW 4014   3.967   2.372   5.493  0.8961  0.3577 -0.5376
  824WAT      O 4015   6.084   0.648   1.392 -0.1699  0.1028 -0.0923
  824WAT     H1 4016   6.094   0.561   1.395  0.2930  0.0594 -1.6810
  824WAT     H2 4017   6.001   0.659   1.367 -0.3545  0.1321  0.5283
  824WAT    EPW 4018   6.073   0.637   1.389 -0.1288  0.1007 -0.2353
  825WAT      O 4019   0.622   3.508   6.539  0.2753  0.0430  0.2945
  825WAT     H1 4020   0.627   3.423   6.523 -0.2650  0.0581  0.0247
  825WAT     H2 4021   0.694   3.525   6.586 -0.7413 -1.0023  2.3669
  825WAT    EPW 4022   0.634   3.498   6.544  0.0453 -0.1092  0.5608
  826WAT      O 4023   2.417   1.443   7.020 -0.1823  0.5692  0.3791
  826WAT     H1 4024   2.341   1.450   7.063 -1.0131  1.3849 -1.1509
  826WAT     H2 4025   2.394   1.451   6.936  1.4626 -0.3586 -0.1950
  826WAT    EPW 4026   2.402   1.445   7.014 -0.0620  0.5526  0.0683
  827WAT      O 4027   2.360   3.776   3.978  0.5328 -0.2187 -0.1679
  827WAT     H1 4028   2.311   3.703   3.981 -0.4303  0.4057 -0.3087
  827WAT     H2 4029   2.441   3.746   3.989  0.1596 -1.3222 -0.2444
  827WAT    EPW 4030   2.365   3.761   3.980  0.3354 -0.2895 -0.2000
  828WAT      O 4031   2.712   6.030   2.773 -0.0226 -0.6214  0.4755
  828WAT     H1 4032   2.783   6.081   2.772  0.9740 -1.8973  1.5873
  828WAT     H2 4033   2.706   6.001   2.692  0.8783 -0.6650  0.4119
  828WAT    EPW 4034   2.722   6.033   2.761  0.2577 -0.8163  0.6304
  829WAT      O 4035   0.480   6.724   5.099  0.4286  0.2925  0.0019
  829WAT     H1 4036   0.441   6.723   5.177  1.1137 -0.4443  0.3500
  829WAT     H2 4037   0.549   6.775   5.112  0.5276  0.1905 -0.1287
  829WAT    EPW 4038   0.484   6.731   5.113  0.5444  0.1686  0.0340
  830WAT      O 4039   6.679   7.141   1.100  0.3452  0.3411  0.3022
  830WAT     H1 4040   6.613   7.173   1.052  0.0506  0.2942  0.6701
  830WAT     H2 4041   6.715   7.213   1.135  0.6705  0.3895 -0.1234
  830WAT    EPW 4042   6.675   7.157   1.099  0.3497  0.3413  0.2936
  831WAT      O 4043   6.460   5.985   5.844 -0.1684  0.0312  0.3485
  831WAT     H1 4044   6.431   5.936   5.778  0.5518 -1.5714  1.1663
  831WAT     H2 4045   6.455   5.931   5.913  2.5726  0.3647  0.9236
  831WAT    EPW 4046   6.455   5.970   5.844  0.3429 -0.1563  0.5542
  832WAT      O 4047   4.115   3.856   4.652  0.1173  0.1080  0.1903
  832WAT     H1 4048   4.040   3.858   4.607  0.3253 -0.9443 -0.2311
  832WAT     H2 4049   4.159   3.790   4.616  0.6753 -0.1818  1.3498
  832WAT    EPW 4050   4.110   3.847   4.640  0.2305 -0.0903  0.2993
  833WAT      O 4051   0.931   2.961   6.999  0.3660  0.7455  0.1947
  833WAT     H1 4052   0.877   2.921   6.943 -1.4143  0.8742  1.7006
  833WAT     H2 4053   0.963   2.895   7.046 -0.1022  0.8266  0.6329
  833WAT    EPW 4054   0.928   2.945   6.998  0.0339  0.7765  0.4819
  834WAT      O 4055   4.795   4.837   2.341  0.4868  0.1109 -0.4603
  834WAT     H1 4056   4.726   4.821   2.392  1.0587  0.8636  0.5993
  834WAT     H2 4057   4.765   4.824   2.261 -0.4946 -0.9651  0.0549
  834WAT    EPW 4058   4.780   4.833   2.337  0.4263  0.0632 -0.2277
  835WAT      O 4059   3.066   5.471   1.641  0.5213  0.6361  0.2588
  835WAT     H1 4060   3.055   5.525   1.709 -1.0075  1.6172 -0.7133
  835WAT     H2 4061   2.991   5.478   1.597  0.5551 -1.7206 -0.3364
  835WAT    EPW 4062   3.053   5.480   1.645  0.3004  0.4329  0.0273
  836WAT      O 4063   5.426   6.137   3.211 -0.9844  0.0860  0.4331
  836WAT     H1 4064   5.416   6.105   3.130 -0.8576 -1.7035  1.0746
  836WAT     H2 4065   5.506   6.109   3.234 -0.2032  2.2000  0.5241
  836WAT    EPW 4066   5.437   6.128   3.203 -0.8502  0.1340  0.5413
  837WAT      O 4067   2.844   4.634   6.618 -0.2567 -0.7712 -1.0547
  837WAT     H1 4068   2.873   4.631   6.700 -1.0271  0.8287 -0.6875
  837WAT     H2 4069   2.913   4.659   6.572 -0.2541  0.0445 -0.6242
  837WAT    EPW 4070   2.858   4.637   6.623 -0.3701 -0.4144 -0.9368
  838WAT      O 4071   5.547   3.646   5.101  0.3017 -0.0119  0.0288
  838WAT     H1 4072   5.555   3.680   5.021  1.6349 -0.9630 -0.2786
  838WAT     H2 4073   5.514   3.567   5.086 -2.6183  0.9383  0.7232
  838WAT    EPW 4074   5.544   3.639   5.087  0.0673 -0.0120  0.0860
  839WAT      O 4075   3.878   1.932   3.325  0.4670  0.5116 -0.5042
  839WAT     H1 4076   3.949   1.921   3.374  0.2725  1.3429 -0.0252
  839WAT     H2 4077   3.834   1.995   3.366 -0.8913 -0.4537 -0.4023
  839WAT    EPW 4078   3.882   1.939   3.338  0.2376  0.4918 -0.4184
  840WAT      O 4079   4.754   3.451   3.587  0.1344 -0.1286  0.1131
  840WAT     H1 4080   4.838   3.425   3.586 -0.5105 -2.4316  0.3947
  840WAT     H2 4081   4.727   3.432   3.667 -0.2042  2.4548  0.6972
  840WAT    EPW 4082   4.763   3.445   3.598 -0.0109 -0.0872  0.2410
  841WAT      O 4083   0.522   5.816   4.286 -0.6472  0.0701  0.7279
  841WAT     H1 4084   0.512   5.805   4.372 -0.8703 -1.7095  0.5201
  841WAT     H2 4085   0.442   5.836   4.258 -1.1722 -1.8998  0.6531
  841WAT    EPW 4086   0.508   5.817   4.295 -0.7577 -0.4838  0.6862
  842WAT      O 4087   6.092   3.706   5.324 -0.0591  0.4473 -0.4983
  842WAT     H1 4088   6.099   3.780   5.280  2.3274  1.0656  0.7689
  842WAT     H2 4089   6.045   3.729   5.394  0.8917  0.8654  0.0205
  842WAT    EPW 4090   6.086   3.720   5.328  0.4339  0.6004 -0.2345
  843WAT      O 4091   2.258   3.058   2.211  0.1849 -1.1123  0.3690
  843WAT     H1 4092   2.190   3.079   2.262 -0.8194 -2.1525 -0.4919
  843WAT     H2 4093   2.283   2.981   2.242 -0.3088 -1.6592 -0.5666
  843WAT    EPW 4094   2.251   3.050   2.223 -0.0364 -1.3468  0.1036
  844WAT      O 4095   4.102   4.272   1.861 -0.4852  0.1345 -0.1525
  844WAT     H1 4096   4.048   4.246   1.798  0.8239 -0.9316 -0.8860
  844WAT     H2 4097   4.060   4.338   1.899 -1.6207  0.3267 -1.6839
  844WAT    EPW 4098   4.088   4.278   1.858 -0.4595  0.0054 -0.4870
  845WAT      O 4099   4.774   3.667   5.530  0.7823 -0.3011 -0.5218
  845WAT     H1 4100   4.787   3.637   5.449  1.4446 -1.1015 -0.1214
  845WAT     H2 4101   4.816   3.610   5.581 -0.4635 -0.3717  0.4743
  845WAT    EPW 4102   4.782   3.654   5.525  0.6961 -0.4298 -0.3155
  846WAT      O 4103   4.284   4.131   0.327  0.4476 -0.3640 -0.4223
  846WAT     H1 4104   4.279   4.156   0.410 -2.1363  0.9499 -0.8655
  846WAT     H2 4105   4.259   4.048   0.328 -0.7973 -0.0113  0.0378
  846WAT    EPW 4106   4.280   4.122   0.339 -0.1180 -0.1178 -0.4198
  847WAT      O 4107   5.826   3.671   4.554 -0.1085  0.3428 -0.7202
  847WAT     H1 4108   5.867   3.646   4.627 -1.0947 -1.1858 -0.6507
  847WAT     H2 4109   5.891   3.696   4.502  0.7182  0.2061  0.2173
  847WAT    EPW 4110   5.842   3.671   4.557 -0.1321  0.0968 -0.5715
  848WAT      O 4111   2.373   1.602   5.234  0.0658 -0.2705 -0.6205
  848WAT     H1 4112   2.315   1.549   5.270 -0.7040 -0.2512 -1.7819
  848WAT     H2 4113   2.403   1.650   5.301 -2.7653  1.1747 -0.2383
  848WAT    EPW 4114   2.369   1.602   5.249 -0.4661 -0.0541 -0.7356
  849WAT      O 4115   5.474   7.139   3.167  0.3724  0.6717 -0.8047
  849WAT     H1 4116   5.484   7.206   3.222 -1.0193 -0.0714  0.4336
  849WAT     H2 4117   5.398   7.157   3.127 -0.4284 -0.4884  0.1114
  849WAT    EPW 4118   5.464   7.152   3.169  0.0485  0.3906 -0.4865
  850WAT      O 4119   6.976   2.620   5.486  0.1542  0.2696 -0.3423
  850WAT     H1 4120   6.917   2.661   5.535 -1.5516 -1.9938 -0.3607
  850WAT     H2 4121   7.050   2.629   5.531 -0.6425  1.2817  0.8237
  850WAT    EPW 4122   6.978   2.628   5.500 -0.2155  0.0848 -0.1727
  851WAT      O 4123   5.556   3.901   6.353  0.1620 -0.5750 -0.1836
  851WAT     H1 4124   5.590   3.978   6.328 -0.3728 -0.0144  0.7570
  851WAT     H2 4125   5.538   3.913   6.437 -4.3946 -0.0223 -1.0029
  851WAT    EPW 4126   5.559   3.914   6.362 -0.5901 -0.4106 -0.1657
  852WAT      O 4127   4.906   4.428   0.551 -0.1289  0.0532 -0.0564
  852WAT     H1 4128   4.965   4.365   0.559 -0.0933  0.1651  0.7047
  852WAT     H2 4129   4.832   4.385   0.535  0.0269 -0.1314 -0.2898
  852WAT    EPW 4130   4.904   4.412   0.550 -0.1006  0.0425  0.0215
  853WAT      O 4131   3.351   1.061   4.208  0.6641  0.5771 -0.3697
  853WAT     H1 4132   3.405   1.036   4.272 -1.3626 -0.3902  1.0875
  853WAT     H2 4133   3.299   1.120   4.247  0.6433  1.4963 -1.7200
  853WAT    EPW 4134   3.351   1.066   4.223  0.3616  0.5700 -0.3539
  854WAT      O 4135   4.796   2.209   3.631  0.2195  0.3019  0.4493
  854WAT     H1 4136   4.761   2.167   3.563  0.5143  2.1373 -0.9117
  854WAT     H2 4137   4.739   2.194   3.696 -1.3262  0.4159 -0.8126
  854WAT    EPW 4138   4.782   2.200   3.630  0.0347  0.5898  0.0618
  855WAT      O 4139   3.341   1.252   5.938 -0.0190 -0.7551 -0.0432
  855WAT     H1 4140   3.332   1.286   5.858 -0.8761 -2.2185 -0.6036
  855WAT     H2 4141   3.269   1.204   5.949  0.4766 -1.2620  1.2706
  855WAT    EPW 4142   3.329   1.250   5.928 -0.0724 -1.0462  0.0681
  856WAT      O 4143   5.621   3.541   2.500 -0.0397 -0.6874  0.3648
  856WAT     H1 4144   5.543   3.507   2.479 -0.8266  0.4333  1.2975
  856WAT     H2 4145   5.675   3.507   2.441 -1.4931 -0.4065 -1.2036
  856WAT    EPW 4146   5.617   3.531   2.488 -0.3706 -0.4803  0.2709
  857WAT      O 4147   3.551   0.278   0.038 -0.5373 -0.2852  0.5326
  857WAT     H1 4148   3.575   0.330  -0.028 -1.8179 -0.1029  0.1897
  857WAT     H2 4149   3.575   0.323   0.109 -1.2967  0.6394  0.2314
  857WAT    EPW 4150   3.558   0.293   0.039 -0.8387 -0.1217  0.4375
  858WAT      O 4151   4.515   1.908   5.294  0.6292 -0.7932  0.2738
  858WAT     H1 4152   4.469   1.838   5.268  0.4393 -0.6375  0.1954
  858WAT     H2 4153   4.493   1.970   5.237  0.3201 -0.4893  0.7203
  858WAT    EPW 4154   4.505   1.907   5.281  0.5555 -0.7253  0.3282
  859WAT      O 4155   5.290   1.389   3.901 -0.1253  0.0938 -0.1022
  859WAT     H1 4156   5.354   1.342   3.867 -0.7429 -1.9470  1.3180
  859WAT     H2 4157   5.302   1.469   3.868 -0.1095 -1.3871 -4.1698
  859WAT    EPW 4158   5.301   1.394   3.891 -0.2142 -0.4264 -0.4933
  860WAT      O 4159   5.129   0.989   7.033 -0.1464  0.2691  0.4596
  860WAT     H1 4160   5.087   1.065   7.024 -0.1577  0.2977  0.7492
  860WAT     H2 4161   5.209   1.006   7.001 -0.6233 -0.0503 -0.9876
  860WAT    EPW 4162   5.135   1.003   7.027 -0.2185  0.2261  0.2886
  861WAT      O 4163   4.246   0.565   1.324 -0.1871  0.6846  0.4684
  861WAT     H1 4164   4.258   0.574   1.410  0.9952  0.4685  0.3425
  861WAT     H2 4165   4.309   0.615   1.289 -0.5117  0.5864 -0.2740
  861WAT    EPW 4166   4.257   0.574   1.331 -0.0604  0.6382  0.3401
  862WAT      O 4167   6.034   5.184   5.241 -0.0929 -0.4502 -0.0218
  862WAT     H1 4168   5.988   5.114   5.268 -1.6114  0.3063 -0.5523
  862WAT     H2 4169   6.113   5.169   5.274 -0.6131 -1.9701  0.6741
  862WAT    EPW 4170   6.039   5.171   5.250 -0.3941 -0.5629  0.0026
  863WAT      O 4171   0.671   1.555   1.097  0.2997 -0.1167 -0.1575
  863WAT     H1 4172   0.641   1.499   1.037 -0.3184  0.6076 -0.5354
  863WAT     H2 4173   0.601   1.603   1.117  0.1119 -1.1858  2.1316
  863WAT    EPW 4174   0.656   1.554   1.091  0.1807 -0.1676  0.1248
  864WAT      O 4175   3.499   5.145   0.304  0.5134 -0.2907  0.3502
  864WAT     H1 4176   3.571   5.193   0.309  0.5521  0.0385 -2.1093
  864WAT     H2 4177   3.497   5.118   0.221 -0.9007 -2.3827  0.9579
  864WAT    EPW 4178   3.509   5.148   0.293  0.3102 -0.5511  0.0767
  865WAT      O 4179   3.344   0.092   4.036  0.0944  0.0296 -0.8151
  865WAT     H1 4180   3.291   0.158   4.057  0.7673  0.3119  0.0730
  865WAT     H2 4181   3.308   0.023   4.073 -0.1281  0.0619 -0.9719
  865WAT    EPW 4182   3.331   0.092   4.045  0.1609  0.0761 -0.7071
  866WAT      O 4183   2.027   6.249   6.795 -0.1002 -0.2114  0.0892
  866WAT     H1 4184   2.078   6.233   6.864  0.2659  0.6007  0.0186
  866WAT     H2 4185   1.946   6.243   6.828  0.0724  0.1200  0.5904
  866WAT    EPW 4186   2.022   6.246   6.810 -0.0206 -0.0425  0.1528
  867WAT      O 4187   7.222   4.132   1.602 -0.8088 -0.5190 -0.1041
  867WAT     H1 4188   7.261   4.056   1.620 -0.7010 -0.6012 -0.6739
  867WAT     H2 4189   7.160   4.138   1.663 -1.6127 -1.6478 -0.7683
  867WAT    EPW 4190   7.219   4.122   1.614 -0.9116 -0.6979 -0.2864
  868WAT      O 4191   6.559   3.377   5.146  0.3524  0.5836 -0.3294
  868WAT     H1 4192   6.592   3.304   5.180 -0.4259  0.4585  0.1739
  868WAT     H2 4193   6.617   3.399   5.085 -0.2655 -1.4206 -1.7403
  868WAT    EPW 4194   6.573   3.369   5.142  0.1461  0.2690 -0.4635
  869WAT      O 4195   6.794   3.869   0.894 -0.1054 -0.2041  0.0857
  869WAT     H1 4196   6.739   3.931   0.921  0.7582  0.7456 -0.2851
  869WAT     H2 4197   6.767   3.851   0.813  0.0675  0.2182 -0.0726
  869WAT    EPW 4198   6.782   3.875   0.886  0.0477 -0.0014  0.0075
  870WAT      O 4199   1.883   6.097   3.757 -0.2698  0.3201  0.5894
  870WAT     H1 4200   1.954   6.081   3.806 -0.6598  0.9954  1.3953
  870WAT     H2 4201   1.826   6.035   3.783  0.1376 -0.4866 -0.3536
  870WAT    EPW 4202   1.885   6.085   3.768 -0.2672  0.3007  0.5692
  871WAT      O 4203   0.171   6.399   5.679  0.0199  0.7065 -0.1440
  871WAT     H1 4204   0.096   6.364   5.707  0.2507  0.1032 -0.2527
  871WAT     H2 4205   0.186   6.463   5.736 -0.4172  0.6295  0.0647
  871WAT    EPW 4206   0.162   6.403   5.692 -0.0106  0.6060 -0.1293
  872WAT      O 4207   6.763   4.592   5.741 -0.0038 -0.4290  0.1182
  872WAT     H1 4208   6.822   4.650   5.714 -0.1792 -1.3760 -2.5249
  872WAT     H2 4209   6.768   4.598   5.828  2.4641  1.0097 -0.0221
  872WAT    EPW 4210   6.773   4.602   5.750  0.3349 -0.3564 -0.2930
  873WAT      O 4211   4.323   1.865   3.231 -0.0573 -0.4152  0.5315
  873WAT     H1 4212   4.249   1.820   3.233 -0.6638  0.5567  0.9090
  873WAT     H2 4213   4.298   1.945   3.206  1.0186 -0.3431 -0.3742
  873WAT    EPW 4214   4.308   1.870   3.228  0.0121 -0.2610  0.4534
  874WAT      O 4215   5.086   6.301   0.356  0.2497  0.2661 -0.1406
  874WAT     H1 4216   5.054   6.233   0.311 -0.7544  0.8757 -0.3824
  874WAT     H2 4217   5.160   6.321   0.314  0.0113 -0.0224 -0.7079
  874WAT    EPW 4218   5.092   6.294   0.343  0.0662  0.3135 -0.2601
  875WAT      O 4219   1.323   1.420   6.249  0.4208  0.3112 -0.0659
  875WAT     H1 4220   1.242   1.423   6.219 -0.7561  0.3481  2.7770
  875WAT     H2 4221   1.372   1.426   6.178 -2.0472 -0.0301 -1.9150
  875WAT    EPW 4222   1.319   1.421   6.234 -0.1176  0.2662  0.0809
  876WAT      O 4223   4.183   6.835   0.213  0.5844  0.1386  0.2090
  876WAT     H1 4224   4.270   6.833   0.206  0.7000  1.2884  1.0097
  876WAT     H2 4225   4.167   6.913   0.249 -0.8308  0.2313 -0.5262
  876WAT    EPW 4226   4.193   6.847   0.217  0.3924  0.3222  0.2187
  877WAT      O 4227   6.281   7.141   5.649 -0.1413  0.0440 -0.0046
  877WAT     H1 4228   6.209   7.180   5.678  0.9500 -0.3808  3.9000
  877WAT     H2 4229   6.252   7.067   5.613 -1.7500  0.4217  0.4605
  877WAT    EPW 4230   6.266   7.136   5.648 -0.2178  0.0370  0.6409
  878WAT      O 4231   6.767   0.494   0.110  0.1555  0.1375  0.4355
  878WAT     H1 4232   6.849   0.521   0.096 -1.0914  3.5165 -1.5482
  878WAT     H2 4233   6.735   0.483   0.030 -1.5417 -0.4414  1.1439
  878WAT    EPW 4234   6.774   0.496   0.096 -0.2794  0.5511  0.2471
  879WAT      O 4235   2.268   3.371   1.092 -0.2375 -0.1592  0.7723
  879WAT     H1 4236   2.216   3.319   1.139 -0.7486 -1.1313 -0.7729
  879WAT     H2 4237   2.324   3.315   1.054  0.5470  0.6541  0.6960
  879WAT    EPW 4238   2.269   3.355   1.093 -0.1971 -0.1827  0.5328
  880WAT      O 4239   1.260   3.991   0.511  0.2183 -0.4632 -0.7563
  880WAT     H1 4240   1.213   3.981   0.438 -0.5252 -0.0782 -0.3294
  880WAT     H2 4241   1.203   3.976   0.575  0.7222 -0.1781 -0.2381
  880WAT    EPW 4242   1.245   3.987   0.509  0.1829 -0.3643 -0.6167
  881WAT      O 4243   0.230   4.518   1.885 -0.8277 -0.3148 -0.2974
  881WAT     H1 4244   0.175   4.450   1.880 -0.1726 -0.9989  1.2814
  881WAT     H2 4245   0.189   4.574   1.937 -0.4477 -0.4326  0.1365
  881WAT    EPW 4246   0.216   4.516   1.892 -0.6748 -0.4332 -0.0001
  882WAT      O 4247   6.705   5.177   1.075  0.4166 -0.1777  0.4384
  882WAT     H1 4248   6.684   5.250   1.032  0.3304  0.4607  1.5159
  882WAT     H2 4249   6.722   5.119   1.012 -0.0298  0.6273 -0.4328
  882WAT    EPW 4250   6.705   5.179   1.060  0.3379  0.0355  0.4689
  883WAT      O 4251   3.248   0.628   5.572 -0.1095 -0.3107  0.2917
  883WAT     H1 4252   3.249   0.548   5.539  0.9666 -0.0675 -0.3267
  883WAT     H2 4253   3.318   0.630   5.625 -0.4347  0.0496  0.7184
  883WAT    EPW 4254   3.259   0.617   5.575  0.0014 -0.2216  0.2634
  884WAT      O 4255   4.577   4.542   6.031  0.3853 -0.6364  0.3606
  884WAT     H1 4256   4.514   4.510   6.083 -0.2891 -0.0024 -0.0538
  884WAT     H2 4257   4.650   4.526   6.076 -0.0272 -1.6754  0.7107
  884WAT    EPW 4258   4.578   4.535   6.045  0.2248 -0.6963  0.3511
  885WAT      O 4259   0.599   1.194   5.694 -0.4123  0.1429 -0.2641
  885WAT     H1 4260   0.590   1.244   5.623 -1.2282 -1.0074 -1.0222
  885WAT     H2 4261   0.595   1.113   5.662 -0.0533 -0.4105  1.0197
  885WAT    EPW 4262   0.597   1.189   5.679 -0.4798 -0.1088 -0.1864
  886WAT      O 4263   7.257   4.759   0.861 -0.2680  0.5786  0.1841
  886WAT     H1 4264   7.201   4.706   0.821 -1.2704  0.9757  1.0265
  886WAT     H2 4265   7.315   4.778   0.798 -0.9079 -0.0593 -0.6269
  886WAT    EPW 4266   7.258   4.754   0.846 -0.5106  0.5430  0.1887
  887WAT      O 4267   1.917   1.077   4.291  0.1978 -0.2456 -0.2237
  887WAT     H1 4268   1.962   1.004   4.276  0.4587  0.2552 -2.2546
  887WAT     H2 4269   1.869   1.058   4.361  0.7558 -2.1304 -0.2977
  887WAT    EPW 4270   1.916   1.064   4.299  0.3188 -0.4500 -0.5347
  888WAT      O 4271   5.253   6.488   6.909  0.4240 -0.5760  0.4826
  888WAT     H1 4272   5.273   6.557   6.958  2.2034 -0.1012 -0.7933
  888WAT     H2 4273   5.195   6.520   6.852  1.8453  0.1388 -0.6163
  888WAT    EPW 4274   5.247   6.503   6.908  0.8968 -0.4003  0.1318
  889WAT      O 4275   5.963   1.388   1.637 -0.1899  0.0264 -0.0230
  889WAT     H1 4276   5.979   1.451   1.695  0.5365 -1.7900  1.8891
  889WAT     H2 4277   5.901   1.341   1.675  0.9810 -1.7718 -0.2091
  889WAT    EPW 4278   5.956   1.390   1.651  0.0904 -0.5075  0.2320
  890WAT      O 4279   5.739   2.862   3.686 -0.1520 -0.0309 -0.0860
  890WAT     H1 4280   5.665   2.901   3.709 -0.9318 -1.1438 -0.6265
  890WAT     H2 4281   5.729   2.780   3.717  1.2200  0.0292  0.5952
  890WAT    EPW 4282   5.727   2.855   3.694 -0.0645 -0.1864 -0.0652
  891WAT      O 4283   3.366   5.384   0.288 -0.1207 -0.6109 -0.2177
  891WAT     H1 4284   3.398   5.304   0.302 -0.1163 -0.1365  3.1512
  891WAT     H2 4285   3.433   5.426   0.251  0.8294 -1.4333  0.5213
  891WAT    EPW 4286   3.381   5.379   0.284  0.0203 -0.6623  0.3892
  892WAT      O 4287   7.204   4.573   2.444  0.3136  0.6007  0.3043
  892WAT     H1 4288   7.249   4.553   2.516  1.7821  1.8863 -0.2091
  892WAT     H2 4289   7.245   4.643   2.412 -0.6600  0.4299 -1.4724
  892WAT    EPW 4290   7.216   4.580   2.450  0.3867  0.7654 -0.0340
  893WAT      O 4291   5.958   2.030   3.638  0.5509  0.2083 -0.5780
  893WAT     H1 4292   5.930   1.962   3.590 -0.8193 -0.9643  1.6936
  893WAT     H2 4293   5.889   2.084   3.638  0.9069  0.6644 -0.7310
  893WAT    EPW 4294   5.944   2.028   3.631  0.4011  0.1025 -0.2651
  894WAT      O 4295   6.481   3.725   5.809  0.2631 -0.1290  0.6010
  894WAT     H1 4296   6.512   3.770   5.741 -0.2323 -1.6563 -0.6776
  894WAT     H2 4297   6.496   3.778   5.877  0.8717  1.3891 -0.6657
  894WAT    EPW 4298   6.488   3.739   5.809  0.2798 -0.1304  0.2250
  895WAT      O 4299   3.260   4.688   2.623  0.2788  0.2669 -0.2420
  895WAT     H1 4300   3.192   4.720   2.580  1.0805  1.0973 -0.9410
  895WAT     H2 4301   3.224   4.636   2.683 -1.0043  1.2297 -0.1333
  895WAT    EPW 4302   3.245   4.685   2.626  0.2076  0.5318 -0.3292
  896WAT      O 4303   3.695   4.823   7.076  0.2265 -0.0829 -0.0301
  896WAT     H1 4304   3.749   4.873   7.028  2.5692 -1.0843  1.3730
  896WAT     H2 4305   3.739   4.812   7.150 -1.1636 -2.4592  0.5288
  896WAT    EPW 4306   3.710   4.829   7.080  0.3672 -0.5819  0.2597
  897WAT      O 4307   2.667   1.741   0.751  0.1931 -0.1495 -0.4040
  897WAT     H1 4308   2.652   1.806   0.806 -3.0892 -0.4565 -0.7458
  897WAT     H2 4309   2.748   1.715   0.772  0.5512  2.1815  1.5964
  897WAT    EPW 4310   2.677   1.747   0.762 -0.2389  0.1495 -0.1590
  898WAT      O 4311   2.009   5.022   2.602 -0.3732  0.5141  0.3411
  898WAT     H1 4312   2.079   4.998   2.557  0.1506  1.1478  0.8043
  898WAT     H2 4313   1.948   5.035   2.541 -0.1660 -0.2715 -0.0401
  898WAT    EPW 4314   2.010   5.021   2.587 -0.2652  0.4916  0.3532
  899WAT      O 4315   6.418   5.335   5.846 -0.2853 -0.3783 -0.0514
  899WAT     H1 4316   6.475   5.393   5.878 -0.3053 -0.3300 -0.1042
  899WAT     H2 4317   6.386   5.297   5.917 -0.1269 -0.4626 -0.0231
  899WAT    EPW 4318   6.422   5.338   5.861 -0.2648 -0.3836 -0.0550
  900WAT      O 4319   3.105   6.728   1.028  0.1404  0.6417  0.1622
  900WAT     H1 4320   3.070   6.800   0.994 -0.2915 -0.0100 -0.8328
  900WAT     H2 4321   3.065   6.719   1.104  0.1601  1.4213  0.2679
  900WAT    EPW 4322   3.094   6.737   1.034  0.0795  0.6606  0.0308
  901WAT      O 4323   6.137   0.997   1.511  0.2878 -0.3195  0.0766
  901WAT     H1 4324   6.150   1.050   1.579 -1.6728  0.3070  0.0412
  901WAT     H2 4325   6.149   0.917   1.544  3.0566  0.0417  0.1838
  901WAT    EPW 4326   6.140   0.993   1.526  0.4072 -0.1736  0.0872
  902WAT      O 4327   3.911   3.096   5.775 -0.5888 -0.1360 -0.0597
  902WAT     H1 4328   3.905   3.010   5.791 -0.9994  0.3938  3.4766
  902WAT     H2 4329   3.830   3.118   5.753 -0.4700 -0.6077 -1.0489
  902WAT    EPW 4330   3.898   3.086   5.774 -0.6319 -0.1274  0.3165
  903WAT      O 4331   1.382   5.545   4.405  0.2741  0.0851 -0.1529
  903WAT     H1 4332   1.338   5.523   4.333 -0.4510  0.7216  0.0804
  903WAT     H2 4333   1.325   5.594   4.449  1.3514  1.2649 -0.0235
  903WAT    EPW 4334   1.367   5.549   4.401  0.3261  0.3534 -0.0993
  904WAT      O 4335   4.861   1.361   0.629 -0.0329  0.0036  0.2861
  904WAT     H1 4336   4.807   1.296   0.651 -2.0981  1.6149  0.2610
  904WAT     H2 4337   4.832   1.388   0.552  0.6405  1.1158  0.3939
  904WAT    EPW 4338   4.849   1.355   0.621 -0.2385  0.4059  0.2983
  905WAT      O 4339   4.915   5.480   3.232 -0.7672  0.0304 -0.4191
  905WAT     H1 4340   4.884   5.425   3.292 -1.2183  1.1129  0.3451
  905WAT     H2 4341   4.920   5.430   3.160  1.8857 -1.9430  0.9431
  905WAT    EPW 4342   4.911   5.464   3.230 -0.4420 -0.1012 -0.1050
  906WAT      O 4343   5.778   1.639   0.743  0.1893 -0.3190  0.0547
  906WAT     H1 4344   5.703   1.659   0.704  0.8465  2.1303 -0.0826
  906WAT     H2 4345   5.817   1.716   0.754  2.5230 -1.4740  0.4679
  906WAT    EPW 4346   5.773   1.653   0.739  0.6311 -0.1278  0.0955
  907WAT      O 4347   3.015   5.352   3.742 -0.1017 -0.2908 -0.2345
  907WAT     H1 4348   2.953   5.413   3.744 -0.4910 -0.6993  0.5961
  907WAT     H2 4349   3.079   5.387   3.790  0.4159  0.2188 -1.2620
  907WAT    EPW 4350   3.016   5.366   3.750 -0.0827 -0.2759 -0.2636
  908WAT      O 4351   4.835   3.953   4.773 -0.0985 -0.0914 -0.2653
  908WAT     H1 4352   4.837   4.031   4.812  2.1517 -0.2397  0.0950
  908WAT     H2 4353   4.791   3.967   4.700 -2.5248  0.7274  1.2429
  908WAT    EPW 4354   4.829   3.966   4.768 -0.1245  0.0076  0.0107
  909WAT      O 4355   5.733   4.997   0.110  0.2281 -0.1948 -0.0033
  909WAT     H1 4356   5.681   4.974   0.043 -0.2703 -0.8482  0.5944
  909WAT     H2 4357   5.770   4.922   0.133  2.3941  0.4419 -1.1812
  909WAT    EPW 4358   5.731   4.982   0.103  0.4744 -0.1973 -0.0890
  910WAT      O 4359   6.136   0.142   6.815  0.1087 -0.0195 -0.1873
  910WAT     H1 4360   6.199   0.184   6.772 -1.3779  2.5162 -0.0522
  910WAT     H2 4361   6.174   0.116   6.889  1.4738 -0.3795 -0.9751
  910WAT    EPW 4362   6.151   0.144   6.819  0.0908  0.3019 -0.2837
  911WAT      O 4363   6.495   1.086   2.553 -0.1366 -0.4658  0.0455
  911WAT     H1 4364   6.422   1.073   2.600 -1.4165  2.5530 -0.8404
  911WAT     H2 4365   6.525   1.006   2.539 -1.8304 -1.6902  2.6747
  911WAT    EPW 4366   6.488   1.073   2.558 -0.5759 -0.2007  0.3030
  912WAT      O 4367   6.980   4.786   5.688  0.1052 -0.6761  0.2138
  912WAT     H1 4368   6.958   4.866   5.716  0.7955 -0.0419 -0.9757
  912WAT     H2 4369   7.022   4.801   5.613  1.4798 -2.0642  0.6514
  912WAT    EPW 4370   6.983   4.800   5.681  0.4102 -0.7875  0.1027
  913WAT      O 4371   3.189   6.135   3.955  0.0427  0.0016 -0.6617
  913WAT     H1 4372   3.245   6.080   3.918 -2.9440 -0.9588 -4.4837
  913WAT     H2 4373   3.147   6.086   4.013 -0.3797 -0.8619 -1.6657
  913WAT    EPW 4374   3.191   6.120   3.958 -0.4609 -0.2678 -1.3746
  914WAT      O 4375   0.509   6.752   2.271 -0.5084 -0.1526 -0.2808
  914WAT     H1 4376   0.516   6.837   2.289 -0.1455  0.0796 -1.4495
  914WAT     H2 4377   0.547   6.713   2.339 -1.4090  0.5744  0.6693
  914WAT    EPW 4378   0.516   6.758   2.284 -0.5879 -0.0109 -0.3131
  915WAT      O 4379   1.451   0.518   0.919 -0.2656 -0.0764  0.4218
  915WAT     H1 4380   1.445   0.490   1.001  0.9182 -0.2085  0.4902
  915WAT     H2 4381   1.469   0.445   0.874  2.0857  0.3915  0.4932
  915WAT    EPW 4382   1.453   0.503   0.924  0.2566 -0.0268  0.4425
  916WAT      O 4383   4.598   6.215   6.194  0.1150 -0.4305  0.5904
  916WAT     H1 4384   4.648   6.216   6.266  0.4470  1.0338  0.3679
  916WAT     H2 4385   4.583   6.299   6.178  0.6359 -0.6690 -1.4718
  916WAT    EPW 4386   4.603   6.227   6.202  0.2410 -0.2494  0.2529
  917WAT      O 4387   6.449   6.562   3.023  1.0143 -0.3115 -0.0409
  917WAT     H1 4388   6.504   6.629   3.009  1.5246 -0.9251 -1.0814
  917WAT     H2 4389   6.388   6.596   3.075  0.8857  1.1674 -1.0987
  917WAT    EPW 4390   6.448   6.577   3.028  1.0707 -0.1837 -0.3509
  918WAT      O 4391   0.825   0.454   5.290  0.3404  0.3592  1.0146
  918WAT     H1 4392   0.837   0.368   5.283  1.3024  0.5671 -0.2739
  918WAT     H2 4393   0.821   0.468   5.376  0.5517 -0.9138  1.2424
  918WAT    EPW 4394   0.826   0.444   5.301  0.5137  0.2019  0.8579
  919WAT      O 4395   3.111   0.918   1.476 -0.5556 -0.1925 -0.8065
  919WAT     H1 4396   3.183   0.955   1.510  0.0524 -1.7693 -0.3012
  919WAT     H2 4397   3.069   0.887   1.546 -1.4480  0.1862 -1.1589
  919WAT    EPW 4398   3.115   0.919   1.492 -0.5976 -0.3695 -0.7839
  920WAT      O 4399   5.535   2.000   5.494 -0.2478 -0.4225 -0.0345
  920WAT     H1 4400   5.551   1.985   5.409 -3.4323  0.6903 -0.9604
  920WAT     H2 4401   5.481   2.068   5.493  0.3985  0.2799  3.0125
  920WAT    EPW 4402   5.529   2.008   5.481 -0.6227 -0.1544  0.2788
  921WAT      O 4403   5.224   5.841   4.076  0.2129  0.3519 -0.2309
  921WAT     H1 4404   5.233   5.863   4.160 -1.8898  0.6415 -0.0331
  921WAT     H2 4405   5.295   5.793   4.060  0.8396  0.5763  1.6103
  921WAT    EPW 4406   5.236   5.837   4.086 -0.0051  0.4278  0.0703
  922WAT      O 4407   6.365   4.919   6.168  0.5950 -0.3782 -0.3717
  922WAT     H1 4408   6.407   4.871   6.228  2.0985  0.8663 -0.3348
  922WAT     H2 4409   6.282   4.894   6.175  1.0034 -1.4758  1.0438
  922WAT    EPW 4410   6.359   4.908   6.177  0.8774 -0.3565 -0.1571
  923WAT      O 4411   6.931   2.539   2.037 -0.8655 -0.3413  0.0596
  923WAT     H1 4412   6.954   2.579   2.112  1.4552  0.2504 -0.8819
  923WAT     H2 4413   7.005   2.539   1.991 -1.7317 -2.5096 -1.4600
  923WAT    EPW 4414   6.945   2.545   2.041 -0.6506 -0.5742 -0.3040
  924WAT      O 4415   3.099   5.309   7.281  0.4604 -0.1390 -0.4248
  924WAT     H1 4416   3.183   5.301   7.260  0.6086  1.5495 -0.6227
  924WAT     H2 4417   3.100   5.334   7.365  0.1505 -0.1488 -0.4147
  924WAT    EPW 4418   3.111   5.312   7.290  0.4365  0.1090 -0.4525
  925WAT      O 4419   5.439   1.788   4.843  0.0363  0.3852 -0.2364
  925WAT     H1 4420   5.512   1.782   4.796 -0.5777 -0.1625 -1.1432
  925WAT     H2 4421   5.393   1.849   4.801 -0.4538  0.0017 -0.2563
  925WAT    EPW 4422   5.443   1.796   4.830 -0.1268  0.2476 -0.3733
  926WAT      O 4423   3.607   5.528   2.281 -0.1971 -0.0763 -0.3548
  926WAT     H1 4424   3.685   5.555   2.311 -1.2105 -0.7211  3.3155
  926WAT     H2 4425   3.609   5.442   2.294 -1.7539 -0.0053  0.5981
  926WAT    EPW 4426   3.619   5.519   2.287 -0.5767 -0.1611  0.3281
  927WAT      O 4427   6.366   1.027   6.281  0.4010 -0.2914  0.1678
  927WAT     H1 4428   6.386   1.037   6.196  1.3575 -0.0264  0.4095
  927WAT     H2 4429   6.438   0.992   6.315 -0.3669 -1.4094  0.6896
  927WAT    EPW 4430   6.380   1.024   6.273  0.4289 -0.4174  0.2806
  928WAT      O 4431   3.622   2.924   7.213  0.6703  0.1368 -0.4162
  928WAT     H1 4432   3.622   2.883   7.290  1.0443 -1.4827 -1.2159
  928WAT     H2 4433   3.666   2.997   7.228 -0.8143  0.7385  1.3150
  928WAT    EPW 4434   3.628   2.929   7.226  0.5062 -0.0136 -0.2786
  929WAT      O 4435   6.153   6.006   3.513  0.1034 -0.2339  0.3958
  929WAT     H1 4436   6.220   6.044   3.554  0.8844 -1.2314  0.0861
  929WAT     H2 4437   6.119   6.070   3.464 -0.7786  0.9651  2.4477
  929WAT    EPW 4438   6.158   6.021   3.512  0.0885 -0.2042  0.6532
  930WAT      O 4439   6.345   2.210   5.046 -0.6124 -0.6472  0.7809
  930WAT     H1 4440   6.392   2.195   4.974 -0.4695 -0.1225  0.7580
  930WAT     H2 4441   6.304   2.285   5.029 -2.3095 -1.6169  0.3860
  930WAT    EPW 4442   6.346   2.219   5.033 -0.8420 -0.7129  0.7191
  931WAT      O 4443   5.005   5.843   5.525 -0.5284  0.4838  0.1193
  931WAT     H1 4444   5.017   5.919   5.567  0.5285  0.4185 -0.0454
  931WAT     H2 4445   5.082   5.827   5.489  0.2048 -2.1315  2.5262
  931WAT    EPW 4446   5.018   5.852   5.526 -0.2640  0.0879  0.4505
  932WAT      O 4447   2.254   6.285   6.972  0.2591 -0.0217 -0.5767
  932WAT     H1 4448   2.324   6.330   6.997  0.5088 -0.8023  0.1381
  932WAT     H2 4449   2.254   6.215   7.023 -3.6246  2.0475  2.8242
  932WAT    EPW 4450   2.264   6.282   6.983 -0.2777  0.1686  0.0313
  933WAT      O 4451   1.930   2.488   4.125 -0.2097 -0.2641  0.0757
  933WAT     H1 4452   2.004   2.532   4.112  0.3205 -0.9966  0.5675
  933WAT     H2 4453   1.956   2.405   4.132 -0.9286 -0.4038  1.3966
  933WAT    EPW 4454   1.945   2.483   4.124 -0.2376 -0.3929  0.3435
  934WAT      O 4455   6.530   4.647   7.421  0.0563  0.7349 -0.4910
  934WAT     H1 4456   6.491   4.569   7.412 -0.6263  0.9038  0.8342
  934WAT     H2 4457   6.610   4.634   7.387  0.3471 -0.8538  0.7096
  934WAT    EPW 4458   6.536   4.633   7.414 -0.0016  0.5251 -0.1179
  935WAT      O 4459   2.444   7.180   3.379 -0.7093  0.6602  0.2854
  935WAT     H1 4460   2.403   7.156   3.452  1.0161  0.3617  1.2021
  935WAT     H2 4461   2.483   7.107   3.353  0.9046  1.3637  0.6011
  935WAT    EPW 4462   2.444   7.166   3.386 -0.2160  0.7200  0.4675
  936WAT      O 4463   1.030   7.095   2.773  0.0500  0.6262 -0.2127
  936WAT     H1 4464   1.102   7.077   2.727  1.5622 -0.6387  2.4070
  936WAT     H2 4465   0.972   7.037   2.744  0.9116 -0.0738 -0.5896
  936WAT    EPW 4466   1.032   7.084   2.762  0.4007  0.3359  0.1186
  937WAT      O 4467   6.963   3.822   3.681 -0.0626  0.0736  0.9627
  937WAT     H1 4468   6.987   3.887   3.734 -0.2644  0.1888  0.9149
  937WAT     H2 4469   6.930   3.863   3.611 -1.1377 -0.0752  1.3642
  937WAT    EPW 4470   6.962   3.837   3.678 -0.2512  0.0686  1.0150
  938WAT      O 4471   6.410   2.278   6.964  0.4588  0.5090 -0.1228
  938WAT     H1 4472   6.401   2.207   7.013 -0.4995  0.8999  0.2802
  938WAT     H2 4473   6.399   2.344   7.020  0.1131  0.9687 -0.7181
  938WAT    EPW 4474   6.407   2.277   6.980  0.2662  0.6346 -0.1512
  939WAT      O 4475   5.124   1.719   6.800 -0.2331  0.2252 -0.6687
  939WAT     H1 4476   5.103   1.802   6.781 -2.0756 -0.1476 -0.3974
  939WAT     H2 4477   5.165   1.725   6.877 -1.8061  0.7611  0.1657
  939WAT    EPW 4478   5.127   1.732   6.809 -0.7376  0.2493 -0.5053
  940WAT      O 4479   6.855   3.739   6.732  0.4043  0.8725 -0.3965
  940WAT     H1 4480   6.881   3.814   6.695 -2.2342  1.7325 -0.7410
  940WAT     H2 4481   6.840   3.762   6.815  1.0977  0.3006 -0.1062
  940WAT    EPW 4482   6.856   3.754   6.738  0.1170  0.9150 -0.4045
  941WAT      O 4483   3.981   5.230   0.974  0.0541 -0.3748  0.2639
  941WAT     H1 4484   3.896   5.222   0.987  0.1860 -0.8291  0.8941
  941WAT     H2 4485   3.999   5.309   1.005  0.4621 -1.6307  3.6661
  941WAT    EPW 4486   3.971   5.241   0.980  0.1338 -0.6275  0.8596
  942WAT      O 4487   0.110   5.318   5.383  0.4736  0.1588 -0.3058
  942WAT     H1 4488   0.116   5.388   5.434 -0.8498  0.4586 -0.5358
  942WAT     H2 4489   0.094   5.351   5.304  2.2565 -0.3122 -0.9144
  942WAT    EPW 4490   0.109   5.333   5.379  0.5415  0.1335 -0.4297
  943WAT      O 4491   3.927   3.784   0.305 -0.4299  0.2923 -0.1833
  943WAT     H1 4492   3.853   3.824   0.328 -0.6748  0.4753 -1.2255
  943WAT     H2 4493   3.909   3.751   0.226  0.6331  0.4374 -0.5066
  943WAT    EPW 4494   3.913   3.785   0.296 -0.3090  0.3408 -0.3850
  944WAT      O 4495   4.364   4.297   2.169  0.1466 -0.4858 -0.3901
  944WAT     H1 4496   4.378   4.358   2.230  2.8788 -1.0879 -0.3156
  944WAT     H2 4497   4.307   4.243   2.207  0.4292  0.1053  0.9178
  944WAT    EPW 4498   4.358   4.298   2.183  0.5920 -0.4875 -0.1859
  945WAT      O 4499   4.387   0.332   2.687  0.6653  0.2514  0.8686
  945WAT     H1 4500   4.366   0.393   2.746  1.2590  0.4953  0.8347
  945WAT     H2 4501   4.385   0.374   2.611 -1.2463 -0.3309  0.5433
  945WAT    EPW 4502   4.383   0.347   2.685  0.4706  0.2014  0.8156
  946WAT      O 4503   0.790   2.109   3.029 -0.1735  0.2298 -0.1032
  946WAT     H1 4504   0.745   2.098   3.103 -1.3919 -0.4611 -0.9034
  946WAT     H2 4505   0.751   2.177   2.992  0.7774  0.9081  0.1245
  946WAT    EPW 4506   0.777   2.117   3.035 -0.2130  0.2279 -0.1878
  947WAT      O 4507   5.999   0.507   3.657 -0.2456 -0.5740 -0.2221
  947WAT     H1 4508   5.940   0.476   3.600  0.4622  0.5921 -1.6504
  947WAT     H2 4509   6.075   0.496   3.615  0.4335 -0.7839  1.0192
  947WAT    EPW 4510   6.001   0.501   3.642 -0.0407 -0.4328 -0.2498
  948WAT      O 4511   6.128   6.281   1.188  0.2349  0.2407 -0.1697
  948WAT     H1 4512   6.098   6.359   1.163 -1.5516 -0.8441 -1.6787
  948WAT     H2 4513   6.201   6.270   1.141 -0.2537  0.4378 -0.9940
  948WAT    EPW 4514   6.134   6.291   1.178 -0.1012  0.1096 -0.5144
  949WAT      O 4515   1.088   4.463   3.547 -0.3808  0.1470  0.1502
  949WAT     H1 4516   1.019   4.510   3.525 -1.0991 -1.0810 -0.3435
  949WAT     H2 4517   1.080   4.391   3.498  2.1734  0.6869 -1.2462
  949WAT    EPW 4518   1.077   4.459   3.536 -0.1096  0.0454 -0.1290
  950WAT      O 4519   2.275   3.391   5.027 -0.0595  0.1307 -0.0983
  950WAT     H1 4520   2.266   3.357   4.947 -0.0587 -0.8834  0.3233
  950WAT     H2 4521   2.360   3.412   5.031 -0.0207  0.0144 -0.2971
  950WAT    EPW 4522   2.286   3.389   5.015 -0.0537 -0.0363 -0.0654
  951WAT      O 4523   2.677   3.989   2.499 -0.0475 -0.3592  0.0312
  951WAT     H1 4524   2.637   3.921   2.537  0.0266  0.2638  1.2633
  951WAT     H2 4525   2.754   3.993   2.538  0.4912 -0.3816 -0.9978
  951WAT    EPW 4526   2.682   3.980   2.510  0.0430 -0.2705  0.0612
  952WAT      O 4527   6.496   4.386   7.355 -0.2039  0.2500  0.5106
  952WAT     H1 4528   6.458   4.381   7.276  0.6911  0.9341  0.0149
  952WAT     H2 4529   6.566   4.335   7.347  0.1232  0.6681  0.7233
  952WAT    EPW 4530   6.501   4.378   7.342 -0.0234  0.4128  0.4688
  953WAT      O 4531   1.056   4.939   2.173 -0.0924 -0.6484  0.0349
  953WAT     H1 4532   1.056   4.851   2.174  0.3492 -0.6514 -0.0499
  953WAT     H2 4533   0.983   4.959   2.217  1.2157 -1.0513  2.5925
  953WAT    EPW 4534   1.045   4.929   2.180  0.1660 -0.7084  0.4002
  954WAT      O 4535   5.343   6.054   2.900 -0.0105  0.5467 -0.2791
  954WAT     H1 4536   5.376   5.974   2.892 -0.8036  0.0056  1.3252
  954WAT     H2 4537   5.403   6.106   2.863  1.6396 -0.5657  0.7175
  954WAT    EPW 4538   5.357   6.050   2.893  0.1161  0.3024  0.1051
  955WAT      O 4539   5.273   5.524   7.409 -0.2606  0.4206 -0.8110
  955WAT     H1 4540   5.317   5.461   7.369 -1.1306  0.7134 -2.3149
  955WAT     H2 4541   5.326   5.549   7.474  0.6455 -0.9463 -0.9924
  955WAT    EPW 4542   5.287   5.518   7.413 -0.2552  0.2619 -1.0599
  956WAT      O 4543   1.343   4.498   3.838  0.2072 -1.0664 -0.1343
  956WAT     H1 4544   1.371   4.578   3.860 -0.4906 -1.2841  1.7939
  956WAT     H2 4545   1.261   4.497   3.867  0.2905 -2.5675  0.1306
  956WAT    EPW 4546   1.335   4.510   3.846  0.1164 -1.3203  0.1897
  957WAT      O 4547   0.035   3.062   4.420 -0.5194 -0.7690 -0.2474
  957WAT     H1 4548  -0.038   3.080   4.376 -0.0829  0.5993 -0.4356
  957WAT     H2 4549   0.077   3.006   4.367  0.7539  2.0440 -2.4579
  957WAT    EPW 4550   0.030   3.056   4.405 -0.2669 -0.1513 -0.6018
  958WAT      O 4551   1.585   0.792   2.789  0.5276 -0.3525  0.0848
  958WAT     H1 4552   1.508   0.808   2.752  0.3034 -1.2733  0.1316
  958WAT     H2 4553   1.598   0.860   2.842 -0.6879 -0.6302  0.7703
  958WAT    EPW 4554   1.576   0.804   2.791  0.3149 -0.5296  0.1930
  959WAT      O 4555   6.610   3.010   2.050  1.3127  0.1700  0.3540
  959WAT     H1 4556   6.561   3.071   2.088  1.7518  0.9916 -0.3672
  959WAT     H2 4557   6.689   3.047   2.046  1.4224 -0.1552 -0.7503
  959WAT    EPW 4558   6.614   3.025   2.055  1.3937  0.2433  0.0844
  960WAT      O 4559   4.122   3.004   6.532 -0.0745  0.5882 -0.2751
  960WAT     H1 4560   4.041   3.003   6.499 -0.1800 -2.0774 -0.1276
  960WAT     H2 4561   4.147   3.087   6.521 -2.9489  1.6263  0.0253
  960WAT    EPW 4562   4.114   3.016   6.526 -0.5147  0.3478 -0.2090
  961WAT      O 4563   0.386   2.012   2.883 -0.2767 -0.2123 -0.6535
  961WAT     H1 4564   0.324   2.060   2.845 -2.1955 -1.6038  0.5082
  961WAT     H2 4565   0.427   1.975   2.815 -0.4317  1.0434 -1.4671
  961WAT    EPW 4566   0.382   2.013   2.867 -0.5831 -0.2324 -0.6021
  962WAT      O 4567   2.027   0.351   1.499  0.0918 -0.4793 -0.3805
  962WAT     H1 4568   2.107   0.319   1.487 -0.1026 -0.6510 -1.3317
  962WAT     H2 4569   2.014   0.344   1.585  0.2536 -2.5122 -0.4841
  962WAT    EPW 4570   2.037   0.345   1.510  0.0870 -0.8050 -0.5363
  963WAT      O 4571   6.219   1.570   0.895 -0.9777  0.0847 -0.1012
  963WAT     H1 4572   6.249   1.622   0.959 -0.5403  1.0717 -1.0787
  963WAT     H2 4573   6.142   1.544   0.925 -0.0374 -0.9349  1.6297
  963WAT    EPW 4574   6.212   1.574   0.909 -0.7742  0.0799  0.0101
  964WAT      O 4575   5.037   7.180   1.526  0.0380 -0.0672  0.3987
  964WAT     H1 4576   5.087   7.116   1.493 -0.1109 -0.4328  0.8749
  964WAT     H2 4577   4.957   7.147   1.523 -0.2982  0.7712 -0.9880
  964WAT    EPW 4578   5.033   7.165   1.520 -0.0337  0.0026  0.2642
  965WAT      O 4579   6.764   0.006   5.772 -0.2519  0.6178 -1.1938
  965WAT     H1 4580   6.681  -0.016   5.787 -0.0547 -0.0464 -0.9996
  965WAT     H2 4581   6.765   0.093   5.779 -1.0074  0.6661 -1.6220
  965WAT    EPW 4582   6.752   0.015   5.775 -0.3344  0.5268 -1.2284
  966WAT      O 4583   5.619   1.649   1.857  0.6525 -0.2848  0.0900
  966WAT     H1 4584   5.653   1.642   1.776  0.6626  0.7637 -0.0055
  966WAT     H2 4585   5.684   1.683   1.903  0.4426 -0.3114  0.4038
  966WAT    EPW 4586   5.634   1.653   1.852  0.6230 -0.1338  0.1222
  967WAT      O 4587   3.004   0.143   3.039 -0.2489  0.3647 -0.0617
  967WAT     H1 4588   2.924   0.130   3.007 -0.1146  1.2954 -0.7872
  967WAT     H2 4589   2.990   0.157   3.124 -0.6668 -1.4128  0.2128
  967WAT    EPW 4590   2.991   0.143   3.047 -0.2908  0.2396 -0.1283
  968WAT      O 4591   2.036   1.495   6.879 -0.5682 -0.2332  0.1082
  968WAT     H1 4592   2.089   1.499   6.948  0.1018 -0.1481 -0.4012
  968WAT     H2 4593   1.969   1.547   6.901  0.4618  1.1833  0.0095
  968WAT    EPW 4594   2.034   1.503   6.892 -0.3170 -0.0114  0.0184
  969WAT      O 4595   5.958   6.584   7.079  0.3082  0.6880 -0.0168
  969WAT     H1 4596   5.965   6.552   7.159 -1.8713  0.6740  0.2355
  969WAT     H2 4597   5.898   6.532   7.041 -0.3340  2.0083 -0.9012
  969WAT    EPW 4598   5.950   6.571   7.085 -0.1087  0.8810 -0.1102
  970WAT      O 4599   5.650   1.141   0.382  0.2969 -0.0963  0.3083
  970WAT     H1 4600   5.681   1.077   0.331 -0.1681 -1.7056  1.9291
  970WAT     H2 4601   5.708   1.205   0.373  1.1045 -0.9508 -0.9201
  970WAT    EPW 4602   5.663   1.141   0.373  0.3475 -0.4603  0.3663
  971WAT      O 4603   0.527   3.533   1.180  0.8721 -0.2920  0.1493
  971WAT     H1 4604   0.573   3.485   1.124  1.8601 -0.3568  1.0009
  971WAT     H2 4605   0.568   3.609   1.181  1.5557 -0.6374  1.6026
  971WAT    EPW 4606   0.540   3.537   1.172  1.1191 -0.3526  0.4898
  972WAT      O 4607   6.112   1.459   0.231 -0.2121  0.4179  0.1880
  972WAT     H1 4608   6.043   1.508   0.210  0.8571  0.6894 -3.1646
  972WAT     H2 4609   6.096   1.383   0.192  0.6269 -0.1369  0.8834
  972WAT    EPW 4610   6.099   1.455   0.222  0.0698  0.3760 -0.2045
  973WAT      O 4611   5.929   1.939   2.166 -0.3575  0.1145 -0.0434
  973WAT     H1 4612   6.013   1.964   2.158 -0.3995 -0.0827 -1.3923
  973WAT     H2 4613   5.928   1.894   2.240  0.6700  0.3896  0.1615
  973WAT    EPW 4614   5.941   1.936   2.175 -0.2119  0.1260 -0.2124
  974WAT      O 4615   4.496   0.262   5.781 -0.4749  0.3761 -0.0431
  974WAT     H1 4616   4.452   0.239   5.853 -1.9390 -0.1615 -1.0576
  974WAT     H2 4617   4.465   0.341   5.762 -2.4096 -0.6739 -1.7120
  974WAT    EPW 4618   4.485   0.270   5.788 -0.9770  0.1415 -0.4395
  975WAT      O 4619   6.203   0.330   1.802 -0.3949 -0.1522 -0.4559
  975WAT     H1 4620   6.290   0.333   1.800 -0.2526 -2.0604  0.7411
  975WAT     H2 4621   6.186   0.246   1.815 -2.3822  0.4321  1.1652
  975WAT    EPW 4622   6.214   0.318   1.804 -0.6675 -0.3478 -0.0396
  976WAT      O 4623   4.388   4.990   4.719  0.0022 -0.1337  0.5284
  976WAT     H1 4624   4.366   5.069   4.687 -0.6267 -0.3738  0.3485
  976WAT     H2 4625   4.434   4.954   4.654  0.0502 -0.0248  0.5008
  976WAT    EPW 4626   4.391   4.996   4.705 -0.0836 -0.1531  0.4977
  977WAT      O 4627   2.968   0.630   1.303 -0.3510 -1.1942  0.3332
  977WAT     H1 4628   2.894   0.637   1.348 -0.5596 -3.1540  0.3695
  977WAT     H2 4629   3.020   0.583   1.355  1.1603  0.5756  0.5403
  977WAT    EPW 4630   2.965   0.624   1.318 -0.1586 -1.2223  0.3692
  978WAT      O 4631   0.197   5.155   2.142  0.5788 -0.2067 -0.2884
  978WAT     H1 4632   0.114   5.130   2.144  1.3821 -3.2565  1.1683
  978WAT     H2 4633   0.216   5.158   2.057 -1.0577  0.8550 -0.6495
  978WAT    EPW 4634   0.188   5.152   2.130  0.4557 -0.5004 -0.1266
  979WAT      O 4635   6.186   0.740   1.629  0.3230 -0.3273  0.3456
  979WAT     H1 4636   6.135   0.698   1.572  0.5084 -0.5507  0.3416
  979WAT     H2 4637   6.187   0.687   1.698  1.2569 -0.7613  0.0252
  979WAT    EPW 4638   6.179   0.726   1.631  0.4883 -0.4244  0.2977
  980WAT      O 4639   2.920   5.320   5.562  0.1685  0.3679  0.6446
  980WAT     H1 4640   2.956   5.393   5.593  0.1321  0.6801 -0.0282
  980WAT     H2 4641   2.871   5.291   5.628  0.1750  0.9607  0.9120
  980WAT    EPW 4642   2.918   5.326   5.576  0.1641  0.5016  0.5847
  981WAT      O 4643   0.061   2.548   1.521  0.2376  0.3055 -0.2664
  981WAT     H1 4644   0.123   2.510   1.473  1.3924  0.8937  0.7049
  981WAT     H2 4645   0.101   2.564   1.597 -0.9400  1.2301  0.1893
  981WAT    EPW 4646   0.076   2.545   1.525  0.2342  0.5290 -0.0556
  982WAT      O 4647   5.845   4.576   1.931  0.2512 -0.1160 -0.0612
  982WAT     H1 4648   5.850   4.554   2.015 -3.2823  0.5451  0.4717
  982WAT     H2 4649   5.899   4.644   1.924 -0.6414  0.9050  2.1516
  982WAT    EPW 4650   5.854   4.583   1.942 -0.4026  0.1325  0.3444
  983WAT      O 4651   7.215   0.147   5.381 -0.3214  0.2210  0.1678
  983WAT     H1 4652   7.300   0.166   5.390 -0.5511  0.8607  1.1169
  983WAT     H2 4653   7.182   0.218   5.344 -0.0628 -0.9367 -2.4680
  983WAT    EPW 4654   7.223   0.160   5.377 -0.3171  0.1445 -0.0814
  984WAT      O 4655   4.752   0.138   4.398 -0.1565 -0.4071  0.0785
  984WAT     H1 4656   4.669   0.164   4.408 -0.5598 -1.0653 -1.2403
  984WAT     H2 4657   4.760   0.072   4.455 -0.9915 -1.2195 -0.6965
  984WAT    EPW 4658   4.741   0.132   4.408 -0.3394 -0.6243 -0.2308
  985WAT      O 4659   3.968   5.632   3.214 -0.4468  0.3331  0.3491
  985WAT     H1 4660   3.982   5.689   3.150 -2.0785 -0.6222 -0.9276
  985WAT     H2 4661   3.928   5.566   3.174 -3.7050  0.6886  2.7046
  985WAT    EPW 4662   3.964   5.630   3.199 -1.1692  0.2445  0.5084
  986WAT      O 4663   1.391   0.128   6.038 -0.0184 -0.1901  0.0670
  986WAT     H1 4664   1.401   0.215   6.041 -1.0373 -0.0646  0.7137
  986WAT     H2 4665   1.394   0.109   5.953  0.1095  0.4971 -0.0857
  986WAT    EPW 4666   1.393   0.138   6.026 -0.1500 -0.0700  0.1400
  987WAT      O 4667   7.049   1.582   1.498 -0.2538 -0.0080  0.5856
  987WAT     H1 4668   6.991   1.579   1.563 -0.3621  1.0179  0.5418
  987WAT     H2 4669   7.111   1.636   1.527 -2.6255  4.6256 -1.9557
  987WAT    EPW 4670   7.050   1.589   1.512 -0.6201  0.8280  0.2038
  988WAT      O 4671   0.793   6.191   6.673 -0.3721 -0.1071 -0.1655
  988WAT     H1 4672   0.842   6.255   6.707 -0.0332 -0.6530  0.4013
  988WAT     H2 4673   0.833   6.118   6.700  0.7245 -0.6254 -2.9048
  988WAT    EPW 4674   0.806   6.190   6.682 -0.1600 -0.2643 -0.4864
  989WAT      O 4675   1.085   6.600   2.326 -0.1625  0.0643  0.6315
  989WAT     H1 4676   1.067   6.514   2.322 -0.5750  0.1856 -1.2818
  989WAT     H2 4677   1.168   6.602   2.351  0.8348 -1.0936 -2.1936
  989WAT    EPW 4678   1.094   6.587   2.329 -0.0761 -0.0888 -0.0684
  990WAT      O 4679   6.533   0.117   6.756 -0.0062 -0.2072  0.5619
  990WAT     H1 4680   6.503   0.117   6.838 -0.0039  0.3849  0.5690
  990WAT     H2 4681   6.619   0.112   6.766 -0.0369 -0.6776  0.5806
  990WAT    EPW 4682   6.541   0.116   6.770 -0.0104 -0.1892  0.5657
  991WAT      O 4683   6.444   5.679   3.257  0.0813  0.1249  0.4432
  991WAT     H1 4684   6.421   5.709   3.179  0.8983 -0.1341  0.0962
  991WAT     H2 4685   6.474   5.599   3.241  1.5828  0.5819  0.8059
  991WAT    EPW 4686   6.445   5.671   3.243  0.4238  0.1542  0.4455
  992WAT      O 4687   4.717   1.041   1.180 -0.1666 -0.3475  0.0385
  992WAT     H1 4688   4.654   1.003   1.132 -0.5971 -1.6397  1.5354
  992WAT     H2 4689   4.677   1.061   1.255  1.4407 -2.5212  1.6101
  992WAT    EPW 4690   4.702   1.038   1.184  0.0072 -0.8595  0.4918
  993WAT      O 4691   0.467   5.395   4.420  0.5971 -0.5493 -0.2407
  993WAT     H1 4692   0.488   5.359   4.497  0.9538  0.1190 -0.0163
  993WAT     H2 4693   0.419   5.333   4.381 -0.2568 -0.6081  0.8390
  993WAT    EPW 4694   0.463   5.380   4.426  0.5236 -0.4593 -0.0481
  994WAT      O 4695   5.040   4.263   3.002  0.8107 -0.1080 -0.7013
  994WAT     H1 4696   5.110   4.269   2.949  0.9430  1.5116 -0.3825
  994WAT     H2 4697   5.072   4.225   3.074  1.5939  1.3308 -0.2488
  994WAT    EPW 4698   5.055   4.258   3.005  0.9459  0.3438 -0.5874
  995WAT      O 4699   2.234   4.556   2.692  0.5651 -0.1004 -0.4989
  995WAT     H1 4700   2.195   4.478   2.694 -0.8135  0.5560 -0.6677
  995WAT     H2 4701   2.169   4.611   2.672  1.2682  1.2290  0.6711
  995WAT    EPW 4702   2.218   4.553   2.690  0.4653  0.1929 -0.3510
  996WAT      O 4703   5.299   5.985   5.057  0.0621  0.0181  0.1586
  996WAT     H1 4704   5.244   5.987   4.990  0.6576  0.6359 -0.3294
  996WAT     H2 4705   5.316   6.069   5.073  1.5167 -0.1696 -0.2720
  996WAT    EPW 4706   5.294   5.998   5.050  0.3649  0.0816  0.0229
  997WAT      O 4707   4.450   3.052   7.407  0.1283 -0.1163  0.1958
  997WAT     H1 4708   4.426   3.108   7.469  0.5102  1.0017 -0.6363
  997WAT     H2 4709   4.462   3.102   7.337  0.0062 -1.3012 -0.7188
  997WAT    EPW 4710   4.448   3.067   7.406  0.1667 -0.1262 -0.0623
  998WAT      O 4711   7.026   6.073   0.927  0.0063  0.0331 -0.1759
  998WAT     H1 4712   6.961   6.104   0.877  0.3270  1.4457  0.2372
  998WAT     H2 4713   7.098   6.106   0.890  0.3644 -0.2039  0.3033
  998WAT    EPW 4714   7.027   6.083   0.914  0.1066  0.2067 -0.0441
  999WAT      O 4715   2.477   5.910   3.518 -0.1876  0.1156 -0.4450
  999WAT     H1 4716   2.477   5.841   3.572  0.2811  1.2455  1.0900
  999WAT     H2 4717   2.491   5.977   3.572 -0.9584  1.4558 -1.8460
  999WAT    EPW 4718   2.479   5.909   3.534 -0.2322  0.4805 -0.4252
 1000WAT      O 4719   1.844   0.752   2.374 -0.5234  0.0499  0.8369
 1000WAT     H1 4720   1.829   0.813   2.434  1.2494  1.3315  0.0718
 1000WAT     H2 4721   1.765   0.717   2.360 -1.5517  1.9236  1.5495
 1000WAT    EPW 4722   1.830   0.756   2.381 -0.4135  0.5160  0.8291
 1001WAT      O 4723   3.635   4.547   0.801 -0.1207  0.2690 -0.8235
 1001WAT     H1 4724   3.680   4.472   0.805 -1.0868 -0.2998 -0.2147
 1001WAT     H2 4725   3.691   4.602   0.763  0.7907 -0.6265 -0.8348
 1001WAT    EPW 4726   3.650   4.544   0.796 -0.1288  0.0527 -0.7353
 1002WAT      O 4727   0.391   6.877   4.663  0.1084  0.1392  0.0091
 1002WAT     H1 4728   0.331   6.832   4.706  1.9659 -2.2777  0.2658
 1002WAT     H2 4729   0.345   6.920   4.602 -1.8951 -1.1317  0.5475
 1002WAT    EPW 4730   0.375   6.877   4.660  0.0868 -0.4056  0.1265
 1003WAT      O 4731   3.896   2.083   1.722  0.2189 -0.4571  0.3880
 1003WAT     H1 4732   3.975   2.093   1.687  0.3693  0.7787  1.0433
 1003WAT     H2 4733   3.901   2.124   1.799 -0.3803 -2.2863  1.4926
 1003WAT    EPW 4734   3.908   2.091   1.728  0.1526 -0.5448  0.6480
 1004WAT      O 4735   4.692   4.813   2.092  0.5441  0.0504  0.0169
 1004WAT     H1 4736   4.611   4.846   2.091  0.3384 -0.4510  0.1622
 1004WAT     H2 4737   4.688   4.748   2.034  0.8277 -0.0216  0.0791
 1004WAT    EPW 4738   4.679   4.809   2.083  0.5556 -0.0343  0.0476
 1005WAT      O 4739   3.967   2.253   1.920  0.3518 -0.3288 -0.1134
 1005WAT     H1 4740   3.900   2.292   1.960  1.4911  0.0875  1.4830
 1005WAT     H2 4741   4.002   2.316   1.871 -0.1522 -0.4386 -0.6293
 1005WAT    EPW 4742   3.962   2.268   1.919  0.4457 -0.2835  0.0462
 1006WAT      O 4743   0.635   2.617   1.077 -0.1082  0.5449 -0.0321
 1006WAT     H1 4744   0.623   2.615   0.990  0.8376 -1.6618 -0.1751
 1006WAT     H2 4745   0.721   2.602   1.086  0.0919  2.2017  1.2908
 1006WAT    EPW 4746   0.646   2.615   1.065  0.0611  0.4637  0.1422
 1007WAT      O 4747   1.654   6.465   4.915 -0.2906 -0.4793  0.5838
 1007WAT     H1 4748   1.648   6.552   4.912  1.1206 -0.3808 -0.3056
 1007WAT     H2 4749   1.740   6.451   4.919 -0.4610 -1.8562 -0.0425
 1007WAT    EPW 4750   1.666   6.476   4.916 -0.1073 -0.6681  0.3599
 1008WAT      O 4751   3.227   4.751   5.513  0.1455 -0.3115  0.0183
 1008WAT     H1 4752   3.260   4.792   5.443 -2.0231  0.1878 -0.7933
 1008WAT     H2 4753   3.216   4.816   5.571 -0.0808 -0.3536  0.0218
 1008WAT    EPW 4754   3.230   4.767   5.511 -0.2083 -0.2440 -0.1011
 1009WAT      O 4755   3.914   2.496   2.305 -0.9710 -0.1973  0.1794
 1009WAT     H1 4756   3.858   2.535   2.359 -0.1049  1.4888 -0.0866
 1009WAT     H2 4757   3.992   2.516   2.337 -0.4819 -0.8622 -0.5571
 1009WAT    EPW 4758   3.917   2.505   2.317 -0.7708 -0.0465  0.0313
 1010WAT      O 4759   6.957   6.571   3.777 -0.6561 -0.3812  0.1392
 1010WAT     H1 4760   6.968   6.492   3.812 -0.4821 -0.8473 -0.9294
 1010WAT     H2 4761   7.019   6.619   3.814 -1.3665 -0.4781  1.5270
 1010WAT    EPW 4762   6.968   6.566   3.787 -0.7353 -0.4644  0.1863
 1011WAT      O 4763   1.131   1.652   0.048 -0.0458 -0.9245 -0.5299
 1011WAT     H1 4764   1.207   1.621   0.077 -1.1364 -2.6268  0.7049
 1011WAT     H2 4765   1.101   1.700   0.115 -0.5062 -1.0764 -0.6252
 1011WAT    EPW 4766   1.138   1.655   0.062 -0.2749 -1.1984 -0.3616
 1012WAT      O 4767   1.173   6.886   5.005 -0.2249 -0.2287 -0.3879
 1012WAT     H1 4768   1.122   6.815   5.006  0.4006 -0.7397 -1.9608
 1012WAT     H2 4769   1.254   6.853   5.006  0.0760  0.4490 -1.3878
 1012WAT    EPW 4770   1.177   6.870   5.005 -0.0880 -0.2041 -0.7680
 1013WAT      O 4771   5.370   4.191   5.585 -0.3114 -0.2776  0.3776
 1013WAT     H1 4772   5.406   4.126   5.629  0.6102  0.1763  0.3207
 1013WAT     H2 4773   5.301   4.214   5.633  1.2016  0.8383  2.1369
 1013WAT    EPW 4774   5.365   4.185   5.598  0.0482 -0.0457  0.6291
 1014WAT      O 4775   1.564   3.972   2.151  0.2202  0.0318 -0.0272
 1014WAT     H1 4776   1.517   4.024   2.099  1.8080 -0.3619 -2.0190
 1014WAT     H2 4777   1.605   4.028   2.204 -1.8171  0.4162  1.2733
 1014WAT    EPW 4778   1.563   3.988   2.151  0.1538  0.0304 -0.1293
 1015WAT      O 4779   3.541   6.722   5.011 -0.3464 -0.3653 -0.1036
 1015WAT     H1 4780   3.596   6.756   4.953  0.4090 -0.1584  0.7180
 1015WAT     H2 4781   3.463   6.756   4.988  0.3742  2.1244  0.7769
 1015WAT    EPW 4782   3.537   6.732   4.999 -0.1283  0.0331  0.1478
 1016WAT      O 4783   4.176   0.295   1.307  0.2544  0.4987  0.0545
 1016WAT     H1 4784   4.188   0.379   1.328 -0.0960  0.1503  1.8493
 1016WAT     H2 4785   4.098   0.295   1.268  1.0218  1.2188 -1.5837
 1016WAT    EPW 4786   4.166   0.308   1.304  0.3160  0.5536  0.0776
 1017WAT      O 4787   3.178   4.076   6.957  0.1366  0.0944  0.2412
 1017WAT     H1 4788   3.108   4.023   6.954 -0.4500  0.7450  1.5469
 1017WAT     H2 4789   3.243   4.027   6.926 -0.5680 -1.0977  0.5966
 1017WAT    EPW 4790   3.177   4.061   6.952 -0.0541  0.0144  0.4866
 1018WAT      O 4791   0.122   1.465   5.406  0.0748 -0.3893  0.4509
 1018WAT     H1 4792   0.168   1.390   5.407  1.7171  0.5518  2.1158
 1018WAT     H2 4793   0.050   1.444   5.451  0.6884 -0.8871  1.2329
 1018WAT    EPW 4794   0.118   1.451   5.413  0.4081 -0.3238  0.8124
 1019WAT      O 4795   1.092   2.753   2.353 -0.5171  0.0692 -0.8004
 1019WAT     H1 4796   1.115   2.772   2.271  0.8114 -2.0644 -1.0028
 1019WAT     H2 4797   1.051   2.676   2.345 -0.4664 -0.1115  0.5285
 1019WAT    EPW 4798   1.089   2.745   2.339 -0.3133 -0.2727 -0.6340
 1020WAT      O 4799   3.294   4.707   7.425 -0.3215  0.5776  0.0844
 1020WAT     H1 4800   3.247   4.719   7.352  0.3076  2.7697 -0.0406
 1020WAT     H2 4801   3.318   4.623   7.421 -0.8542  0.4745 -1.8908
 1020WAT    EPW 4802   3.290   4.696   7.414 -0.3072  0.8862 -0.2258
 1021WAT      O 4803   2.224   0.494   5.798 -0.2508 -0.1011  0.3279
 1021WAT     H1 4804   2.150   0.457   5.825  0.9285 -1.9426  1.2370
 1021WAT     H2 4805   2.206   0.580   5.801 -2.2849 -0.4736  0.5893
 1021WAT    EPW 4806   2.210   0.501   5.802 -0.3771 -0.4282  0.5008
 1022WAT      O 4807   3.598   1.749   5.623  0.1563 -0.2424  0.1059
 1022WAT     H1 4808   3.591   1.836   5.622  0.3350 -0.2145  0.8162
 1022WAT     H2 4809   3.666   1.734   5.675 -0.2133 -0.8247  0.4370
 1022WAT    EPW 4810   3.607   1.760   5.630  0.1281 -0.3243  0.2597
 1023WAT      O 4811   1.958   5.445   3.421  0.2067  0.3218 -0.5560
 1023WAT     H1 4812   1.965   5.387   3.356 -1.3998 -1.0847  0.4527
 1023WAT     H2 4813   1.900   5.502   3.391 -0.0852  0.0118 -0.5884
 1023WAT    EPW 4814   1.951   5.445   3.407 -0.0737  0.0682 -0.4118
 1024WAT      O 4815   5.993   4.223   3.126 -0.9570  0.4834 -0.3687
 1024WAT     H1 4816   5.939   4.164   3.090  0.8993 -1.2952 -0.4640
 1024WAT     H2 4817   6.006   4.192   3.207  0.2109  0.5966 -0.4835
 1024WAT    EPW 4818   5.987   4.209   3.133 -0.5103  0.2374 -0.3997
 1025WAT      O 4819   4.979   4.034   6.549  0.1026 -0.2676 -0.2905
 1025WAT     H1 4820   5.030   4.062   6.614  0.5595 -0.3032 -0.6347
 1025WAT     H2 4821   4.898   4.050   6.579  0.3256  1.2112 -0.3707
 1025WAT    EPW 4822   4.974   4.041   6.563  0.2030 -0.0544 -0.3532
 1026WAT      O 4823   2.356   2.356   0.118 -0.6581  0.6948 -0.6574
 1026WAT     H1 4824   2.417   2.353   0.055 -0.9309  0.2065 -0.9014
 1026WAT     H2 4825   2.354   2.441   0.139 -0.3232  0.8137 -1.0740
 1026WAT    EPW 4826   2.365   2.368   0.112 -0.6489  0.6402 -0.7550
 1027WAT      O 4827   7.194   0.763   0.191 -0.0149  0.0310  0.2459
 1027WAT     H1 4828   7.137   0.766   0.257  0.2734  1.0179  0.4653
 1027WAT     H2 4829   7.159   0.703   0.137  0.3403 -1.6434  1.7917
 1027WAT    EPW 4830   7.180   0.754   0.193  0.0802 -0.0706  0.5066
 1028WAT      O 4831   1.015   0.843   3.110 -0.2862 -0.1613 -0.2641
 1028WAT     H1 4832   1.044   0.767   3.078 -0.5323  0.0714 -1.0716
 1028WAT     H2 4833   1.081   0.870   3.161 -1.1616 -2.0651  2.0330
 1028WAT    EPW 4834   1.029   0.836   3.113 -0.4519 -0.4081 -0.0441
 1029WAT      O 4835   1.293   3.780   2.638  0.5040 -0.1257 -0.5568
 1029WAT     H1 4836   1.335   3.829   2.696 -1.4566  1.4807 -0.3789
 1029WAT     H2 4837   1.286   3.832   2.568 -1.3152 -0.2067 -0.4985
 1029WAT    EPW 4838   1.298   3.795   2.636 -0.0544  0.0997 -0.5219
 1030WAT      O 4839   6.053   1.385   7.252 -0.5591  0.0605  0.5077
 1030WAT     H1 4840   6.052   1.332   7.184 -1.8995 -1.1085  1.3938
 1030WAT     H2 4841   5.974   1.376   7.287 -0.5663  2.0649  1.1413
 1030WAT    EPW 4842   6.042   1.376   7.247 -0.7582  0.1839  0.7322
 1031WAT      O 4843   6.006   7.058   2.934  1.0445 -0.1817 -0.1685
 1031WAT     H1 4844   5.994   7.110   3.003  1.0295 -0.0838 -0.2443
 1031WAT     H2 4845   6.037   6.984   2.969  1.1214 -0.1020 -0.0659
 1031WAT    EPW 4846   6.009   7.055   2.949  1.0536 -0.1555 -0.1646
 1032WAT      O 4847   1.919   6.933   6.212 -0.5024  0.6040 -0.1448
 1032WAT     H1 4848   1.870   6.986   6.261 -0.0665 -0.1222  1.1163
 1032WAT     H2 4849   2.001   6.959   6.228 -0.2119 -0.9505  1.1906
 1032WAT    EPW 4850   1.924   6.944   6.221 -0.3951  0.2671  0.2387
 1033WAT      O 4851   0.362   5.796   2.324 -0.2867  0.1908 -0.1065
 1033WAT     H1 4852   0.286   5.839   2.325 -0.6988 -0.4962 -0.7489
 1033WAT     H2 4853   0.348   5.730   2.380 -0.0959  0.1885 -0.0634
 1033WAT    EPW 4854   0.349   5.792   2.332 -0.3194  0.0890 -0.1950
 1034WAT      O 4855   1.348   4.390   1.513  0.0474  0.3719  0.4469
 1034WAT     H1 4856   1.321   4.471   1.497  0.8516  0.1773 -2.3853
 1034WAT     H2 4857   1.367   4.391   1.598 -1.4188  2.6773  0.8138
 1034WAT    EPW 4858   1.347   4.402   1.523 -0.0504  0.6837  0.0827
 1035WAT      O 4859   4.616   2.154   0.325  0.3532 -0.3999 -0.0865
 1035WAT     H1 4860   4.666   2.180   0.392  1.4453 -0.5330 -0.8275
 1035WAT     H2 4861   4.539   2.191   0.342  1.0110  0.7848  0.4941
 1035WAT    EPW 4862   4.612   2.164   0.338  0.6117 -0.2446 -0.1102
 1036WAT      O 4863   5.527   2.638   7.086 -0.0735 -0.6208 -0.4551
 1036WAT     H1 4864   5.521   2.582   7.019 -0.3654  0.9954 -1.8424
 1036WAT     H2 4865   5.444   2.657   7.105  0.0110  1.3138 -1.7780
 1036WAT    EPW 4866   5.514   2.632   7.079 -0.1042 -0.0962 -0.8555
 1037WAT      O 4867   4.454   5.225   1.568  0.1700  0.0568 -0.2378
 1037WAT     H1 4868   4.380   5.220   1.613  0.0012  0.4407 -0.4664
 1037WAT     H2 4869   4.470   5.143   1.545 -1.1595  0.1658 -1.7321
 1037WAT    EPW 4870   4.445   5.212   1.571 -0.0514  0.1296 -0.4923
 1038WAT      O 4871   0.152   4.864   6.470  0.2618 -0.2196 -0.0066
 1038WAT     H1 4872   0.225   4.819   6.486  0.2298 -0.0079  0.7800
 1038WAT     H2 4873   0.172   4.912   6.400  1.1153  0.3626  0.6240
 1038WAT    EPW 4874   0.166   4.864   6.462  0.3831 -0.1023  0.2028
 1039WAT      O 4875   6.304   5.214   0.157  0.6475 -0.2050  0.0622
 1039WAT     H1 4876   6.244   5.213   0.221  1.3310 -3.3580  0.8563
 1039WAT     H2 4877   6.336   5.295   0.160 -1.7644  0.8240  1.3198
 1039WAT    EPW 4878   6.300   5.226   0.167  0.3922 -0.5187  0.3653
 1040WAT      O 4879   6.886   2.388   6.419 -0.2274  0.1593  0.3088
 1040WAT     H1 4880   6.939   2.362   6.355 -0.8211 -1.6905  0.5093
 1040WAT     H2 4881   6.929   2.369   6.492 -0.5222  0.0879  0.4670
 1040WAT    EPW 4882   6.900   2.382   6.420 -0.3587 -0.1245  0.3618
 1041WAT      O 4883   6.310   3.930   5.084 -0.1156  0.6197  0.0376
 1041WAT     H1 4884   6.361   3.859   5.090 -0.8450 -0.0092 -0.9168
 1041WAT     H2 4885   6.361   3.994   5.115  0.9829 -0.1126 -0.1734
 1041WAT    EPW 4886   6.325   3.929   5.089 -0.0611  0.4186 -0.1345
 1042WAT      O 4887   0.177   1.023   1.101 -0.2996  0.5752 -0.5409
 1042WAT     H1 4888   0.143   1.004   1.023  0.8689 -1.5547 -0.6026
 1042WAT     H2 4889   0.246   1.072   1.082  0.3062 -0.3993 -0.9203
 1042WAT    EPW 4890   0.182   1.027   1.087 -0.0375  0.1166 -0.6060
 1043WAT      O 4891   1.790   3.178   6.039 -0.1797 -0.4728  0.0136
 1043WAT     H1 4892   1.860   3.129   6.024 -0.0159  0.5220 -3.3279
 1043WAT     H2 4893   1.731   3.147   5.983 -0.5007  2.1340 -1.2358
 1043WAT    EPW 4894   1.792   3.166   6.028 -0.2029  0.0593 -0.6646
 1044WAT      O 4895   4.268   4.030   2.543  0.3774  0.3827 -0.5631
 1044WAT     H1 4896   4.196   4.055   2.500 -0.0377  0.5934  0.2410
 1044WAT     H2 4897   4.255   4.060   2.624 -0.0107 -2.1109  0.3986
 1044WAT    EPW 4898   4.255   4.038   2.548  0.2587  0.0455 -0.3023
 1045WAT      O 4899   0.166   1.847   0.412 -0.4788 -0.1301  0.3616
 1045WAT     H1 4900   0.145   1.918   0.459 -1.2861 -0.7151  0.9200
 1045WAT     H2 4901   0.094   1.797   0.418 -0.1095 -0.7794 -0.4386
 1045WAT    EPW 4902   0.152   1.850   0.420 -0.5435 -0.3124  0.3259
 1046WAT      O 4903   5.918   2.302   0.577 -0.2815 -0.2350  0.2978
 1046WAT     H1 4904   5.956   2.348   0.513 -0.7268 -1.1844 -0.6919
 1046WAT     H2 4905   5.906   2.361   0.640  0.9240  0.5506 -0.1650
 1046WAT    EPW 4906   5.922   2.318   0.577 -0.1692 -0.2592  0.0832
 1047WAT      O 4907   5.957   6.052   5.977 -0.1494  0.5623  0.3064
 1047WAT     H1 4908   5.930   6.024   6.055 -2.2402  2.5272  0.3791
 1047WAT     H2 4909   5.883   6.069   5.934  0.8111 -2.3179 -2.9778
 1047WAT    EPW 4910   5.942   6.050   5.982 -0.3164  0.4271 -0.1680
 1048WAT      O 4911   0.816   0.092   0.411  0.1428 -0.0392 -0.8682
 1048WAT     H1 4912   0.824   0.150   0.476  1.8357 -0.6004 -0.5319
 1048WAT     H2 4913   0.804   0.016   0.451  0.2397 -0.2514 -1.2331
 1048WAT    EPW 4914   0.815   0.090   0.426  0.4072 -0.1534 -0.8724
 1049WAT      O 4915   5.047   2.485   1.932  0.3503 -0.7569  0.1675
 1049WAT     H1 4916   5.001   2.450   1.997 -0.8813  0.6189  0.0897
 1049WAT     H2 4917   5.056   2.569   1.956  3.9992 -1.1761  0.8201
 1049WAT    EPW 4918   5.042   2.493   1.945  0.7074 -0.6156  0.2524
 1050WAT      O 4919   0.907   1.559   2.638  0.2625 -0.0968 -0.3650
 1050WAT     H1 4920   0.824   1.547   2.615  0.4114 -0.5814 -0.6584
 1050WAT     H2 4921   0.923   1.492   2.692 -0.7515  2.1768  3.0858
 1050WAT    EPW 4922   0.897   1.547   2.642  0.1347  0.1675  0.1014
 1051WAT      O 4923   0.140   3.605   5.201  0.3257 -1.1350  0.1576
 1051WAT     H1 4924   0.115   3.610   5.118 -0.7838 -1.3269  0.4640
 1051WAT     H2 4925   0.179   3.527   5.207 -0.1372 -1.3878 -0.0540
 1051WAT    EPW 4926   0.142   3.594   5.190  0.0935 -1.2007  0.1716
 1052WAT      O 4927   2.045   0.131   5.041 -0.0589 -0.4472 -0.3381
 1052WAT     H1 4928   2.037   0.126   4.954 -0.0967 -0.3279 -0.3412
 1052WAT     H2 4929   1.963   0.130   5.069 -0.0302 -1.3176 -0.2589
 1052WAT    EPW 4930   2.032   0.130   5.032 -0.0603 -0.5582 -0.3269
 1053WAT      O 4931   4.083   1.152   3.581  0.1076  0.4335  0.3819
 1053WAT     H1 4932   4.064   1.212   3.641 -1.8160 -0.3410  0.5961
 1053WAT     H2 4933   4.116   1.086   3.628 -0.3104  0.2795  0.4621
 1053WAT    EPW 4934   4.085   1.151   3.597 -0.2383  0.2963  0.4254
 1054WAT      O 4935   1.931   0.044   1.630 -0.1918 -0.3022 -0.6166
 1054WAT     H1 4936   1.985  -0.022   1.614  0.9782  1.0075 -2.5185
 1054WAT     H2 4937   1.886   0.053   1.555 -0.5000  0.8518 -0.3201
 1054WAT    EPW 4938   1.932   0.036   1.616 -0.0645  0.0617 -0.8538
 1055WAT      O 4939   1.879   6.639   3.204  0.2354  0.2246 -0.0869
 1055WAT     H1 4940   1.823   6.704   3.219  0.5357  0.6322 -0.7113
 1055WAT     H2 4941   1.932   6.641   3.273  0.6312  1.0530 -0.4062
 1055WAT    EPW 4942   1.878   6.649   3.217  0.3383  0.4072 -0.2263
 1056WAT      O 4943   5.591   4.632   1.630  0.2958 -0.1532 -0.3187
 1056WAT     H1 4944   5.668   4.620   1.592 -0.6957 -0.4154 -2.3971
 1056WAT     H2 4945   5.552   4.554   1.622  0.5124 -0.6609  2.5535
 1056WAT    EPW 4946   5.596   4.619   1.623  0.1813 -0.2669 -0.2014
 1057WAT      O 4947   4.402   6.234   2.988  0.0935  0.5749  0.0154
 1057WAT     H1 4948   4.423   6.290   3.051 -1.9332  1.8741 -0.3843
 1057WAT     H2 4949   4.360   6.283   2.930  0.8009 -0.8343 -1.7768
 1057WAT    EPW 4950   4.399   6.249   2.989 -0.1014  0.5586 -0.3084
 1058WAT      O 4951   2.497   5.582   0.691 -0.5520  0.0406  0.4109
 1058WAT     H1 4952   2.549   5.630   0.741 -0.0426 -0.0286 -0.0412
 1058WAT     H2 4953   2.444   5.641   0.654  0.4612  0.3389 -0.6042
 1058WAT    EPW 4954   2.497   5.598   0.693 -0.3271  0.0745  0.1942
 1059WAT      O 4955   6.279   5.541   5.725 -0.4215  0.2728  0.0709
 1059WAT     H1 4956   6.259   5.521   5.642  2.5259  2.0369 -1.2706
 1059WAT     H2 4957   6.320   5.470   5.754 -1.0050 -0.1633 -0.1539
 1059WAT    EPW 4958   6.282   5.528   5.717 -0.0723  0.4690 -0.1605
 1060WAT      O 4959   0.441   5.933   3.616  0.4046 -0.2066  0.5166
 1060WAT     H1 4960   0.394   5.987   3.666 -2.8920 -2.4947  0.1846
 1060WAT     H2 4961   0.397   5.931   3.540 -0.2257 -3.8800  0.7881
 1060WAT    EPW 4962   0.427   5.941   3.612 -0.1755 -1.0873  0.5077
 1061WAT      O 4963   2.543   3.552   5.986  0.5983  0.5331 -0.5873
 1061WAT     H1 4964   2.524   3.471   6.011  0.5671  0.2542 -1.4826
 1061WAT     H2 4965   2.534   3.549   5.899  0.6951  1.4663 -0.6362
 1061WAT    EPW 4966   2.539   3.540   5.976  0.6080  0.6297 -0.7268
 1062WAT      O 4967   0.292   2.905   0.146 -0.1687  0.3879 -0.6619
 1062WAT     H1 4968   0.212   2.898   0.180 -0.4027  0.8761 -1.0900
 1062WAT     H2 4969   0.344   2.904   0.216 -0.5650  0.3109 -0.3630
 1062WAT    EPW 4970   0.288   2.904   0.162 -0.2618  0.4486 -0.6810
 1063WAT      O 4971   4.815   0.141   3.044 -0.0920 -0.0807 -0.4622
 1063WAT     H1 4972   4.822   0.057   3.068 -2.5192 -0.6268 -1.3318
 1063WAT     H2 4973   4.730   0.149   3.025  0.5755  1.8601 -3.0580
 1063WAT    EPW 4974   4.803   0.129   3.045 -0.3520  0.1253 -0.9741
 1064WAT      O 4975   4.393   6.813   5.314  0.1717 -0.5696 -0.2078
 1064WAT     H1 4976   4.470   6.850   5.294  0.3782 -0.2273  1.0889
 1064WAT     H2 4977   4.356   6.872   5.367 -0.6518 -1.0701 -0.2217
 1064WAT    EPW 4978   4.399   6.827   5.319  0.0806 -0.5930 -0.0183
 1065WAT      O 4979   4.133   6.520   2.257 -0.1734  0.4583  0.6755
 1065WAT     H1 4980   4.110   6.512   2.341  0.1305  0.4841  0.7629
 1065WAT     H2 4981   4.088   6.456   2.217 -1.1442  1.1163  0.6843
 1065WAT    EPW 4982   4.123   6.509   2.263 -0.2719  0.5593  0.6897
 1066WAT      O 4983   4.585   0.088   7.337  0.4179 -0.2087  0.3541
 1066WAT     H1 4984   4.537   0.063   7.406 -1.7933  0.8680 -0.6945
 1066WAT     H2 4985   4.526   0.124   7.283  2.4165  1.1375 -1.0727
 1066WAT    EPW 4986   4.569   0.090   7.339  0.3865  0.1492 -0.0116
 1067WAT      O 4987   3.478   2.425   0.740  0.6007 -0.5505  0.4668
 1067WAT     H1 4988   3.427   2.376   0.690  0.7471  1.4284 -1.8037
 1067WAT     H2 4989   3.530   2.466   0.683 -0.6227  3.4986  1.9297
 1067WAT    EPW 4990   3.478   2.424   0.725  0.4416  0.3400  0.3475
 1068WAT      O 4991   1.952   3.996   3.331 -0.1355 -0.4139 -0.3628
 1068WAT     H1 4992   1.893   3.997   3.395 -0.1631 -0.6529 -0.3811
 1068WAT     H2 4993   2.028   3.987   3.373  0.0382  1.3475 -0.2492
 1068WAT    EPW 4994   1.954   3.995   3.347 -0.1139 -0.1890 -0.3487
 1069WAT      O 4995   6.487   5.801   1.557 -0.1409 -0.0478  0.1665
 1069WAT     H1 4996   6.447   5.772   1.629  1.4439 -0.0897  1.0893
 1069WAT     H2 4997   6.558   5.842   1.588  0.1380  0.7023 -1.3384
 1069WAT    EPW 4998   6.492   5.803   1.572  0.1344  0.0568  0.0805
 1070WAT      O 4999   4.704   3.859   0.422  0.1657  0.2123  0.4241
 1070WAT     H1 5000   4.647   3.902   0.472  1.7045  1.5430  1.1373
 1070WAT     H2 5001   4.772   3.914   0.416  1.3268 -1.2304 -0.5125
 1070WAT    EPW 5002   4.706   3.874   0.428  0.5645  0.1958  0.3911
 1071WAT      O 5003   6.902   1.611   1.724  0.3009 -0.0026 -0.2942
 1071WAT     H1 5004   6.888   1.643   1.804  2.8962 -1.4043  0.8220
 1071WAT     H2 5005   6.903   1.525   1.736  0.7507 -0.2405 -1.8351
 1071WAT    EPW 5006   6.900   1.603   1.737  0.7507 -0.2448 -0.3570
 1072WAT      O 5007   0.237   6.071   1.504 -0.1195 -0.2198 -0.1764
 1072WAT     H1 5008   0.178   6.041   1.447 -1.4157 -0.3832  1.1967
 1072WAT     H2 5009   0.236   6.157   1.490 -2.7634  0.1570  1.6077
 1072WAT    EPW 5010   0.228   6.079   1.493 -0.7015 -0.1883  0.2900
 1073WAT      O 5011   6.076   6.178   0.250  0.2476  0.0446  0.3743
 1073WAT     H1 5012   6.111   6.257   0.245 -0.0263  0.0918 -2.0152
 1073WAT     H2 5013   5.994   6.194   0.276  0.0786  0.6064 -0.4670
 1073WAT    EPW 5014   6.069   6.192   0.253  0.1822  0.1345 -0.1030
 1074WAT      O 5015   4.897   2.670   5.214  0.3697  0.0687  0.6765
 1074WAT     H1 5016   4.813   2.654   5.196 -0.0688  0.6774  2.0480
 1074WAT     H2 5017   4.894   2.739   5.267  1.8593  1.2155 -0.6258
 1074WAT    EPW 5018   4.884   2.677   5.219  0.5250  0.3280  0.6867
 1075WAT      O 5019   4.668   1.832   2.373 -0.1639 -0.0800 -0.5850
 1075WAT     H1 5020   4.713   1.761   2.396 -0.4071 -0.0723 -0.0706
 1075WAT     H2 5021   4.694   1.893   2.431 -2.5269 -0.6841  1.2826
 1075WAT    EPW 5022   4.679   1.831   2.385 -0.5489 -0.1681 -0.2331
 1076WAT      O 5023   5.468   4.480   3.560 -0.3043  0.6661  0.3440
 1076WAT     H1 5024   5.541   4.525   3.546  1.6909 -2.0858  1.2457
 1076WAT     H2 5025   5.471   4.462   3.645 -0.9396 -1.2345  0.0079
 1076WAT    EPW 5026   5.479   4.484   3.570 -0.1034 -0.0212  0.4275
 1077WAT      O 5027   2.496   3.603   5.108  0.3963 -0.1992 -0.0658
 1077WAT     H1 5028   2.574   3.578   5.138 -0.2388 -0.2679  1.6224
 1077WAT     H2 5029   2.516   3.657   5.043  1.8431 -0.8253 -0.1794
 1077WAT    EPW 5030   2.511   3.607   5.103  0.5162 -0.3018  0.1668
 1078WAT      O 5031   0.361   6.070   4.594  0.4316  0.8332  0.1336
 1078WAT     H1 5032   0.340   6.060   4.678  0.4259 -1.2755 -0.0780
 1078WAT     H2 5033   0.436   6.114   4.597  1.9656 -1.6551  1.4400
 1078WAT    EPW 5034   0.369   6.075   4.607  0.6573  0.1541  0.2953
 1079WAT      O 5035   1.664   5.285   4.882 -0.1874 -0.3460  0.2066
 1079WAT     H1 5036   1.634   5.203   4.893 -0.7098 -0.2068 -0.1321
 1079WAT     H2 5037   1.695   5.306   4.961  0.7100 -1.1636  0.1037
 1079WAT    EPW 5038   1.664   5.276   4.895 -0.1320 -0.4462  0.1414
 1080WAT      O 5039   6.798   2.052   3.619  0.1293 -0.0870 -0.3635
 1080WAT     H1 5040   6.723   2.077   3.656  0.6544  2.3599 -0.7205
 1080WAT     H2 5041   6.858   2.098   3.664  1.1339 -0.0276 -1.7169
 1080WAT    EPW 5042   6.796   2.063   3.631  0.3552  0.2832 -0.6162
 1081WAT      O 5043   6.185   2.682   3.780  0.2983  0.2257  0.9499
 1081WAT     H1 5044   6.192   2.757   3.738  1.0434 -0.7546 -0.7791
 1081WAT     H2 5045   6.233   2.693   3.852 -0.6713  1.7984  1.4023
 1081WAT    EPW 5046   6.193   2.695   3.784  0.2651  0.3132  0.7613
 1082WAT      O 5047   2.966   0.048   7.219 -0.2218  0.6073 -0.4239
 1082WAT     H1 5048   3.010   0.123   7.231 -0.0582  0.1818  1.9810
 1082WAT     H2 5049   2.936   0.029   7.298  0.5734 -2.4184 -0.7481
 1082WAT    EPW 5050   2.968   0.057   7.232 -0.0802  0.0975 -0.1165
 1083WAT      O 5051   5.717   3.686   5.466  0.0093 -0.1187  0.2806
 1083WAT     H1 5052   5.748   3.702   5.386 -0.5050 -0.3109  0.0361
 1083WAT     H2 5053   5.785   3.702   5.518  0.2178  0.4585 -0.1550
 1083WAT    EPW 5054   5.731   3.691   5.462 -0.0359 -0.0618  0.1802
 1084WAT      O 5055   2.369   0.998   4.617 -0.0959 -0.3459  0.0051
 1084WAT     H1 5056   2.361   1.051   4.548  1.0780 -1.8248 -1.3499
 1084WAT     H2 5057   2.302   0.943   4.607 -0.3364 -0.1368  0.4556
 1084WAT    EPW 5058   2.358   0.998   4.605  0.0420 -0.5335 -0.1285
 1085WAT      O 5059   2.222   3.802   1.982 -0.3539  0.1655 -0.1476
 1085WAT     H1 5060   2.237   3.733   1.931 -1.0166 -0.2201  0.1761
 1085WAT     H2 5061   2.287   3.856   1.962  0.3433 -0.6665 -0.1943
 1085WAT    EPW 5062   2.234   3.800   1.972 -0.3488 -0.0144 -0.1067
 1086WAT      O 5063   1.107   4.999   0.596  0.3920  0.3005 -0.2627
 1086WAT     H1 5064   1.085   5.038   0.521 -1.4310  0.9096  0.5221
 1086WAT     H2 5065   1.079   4.917   0.584  0.2392  0.3587 -0.3148
 1086WAT    EPW 5066   1.100   4.993   0.583  0.1002  0.3991 -0.1545
 1087WAT      O 5067   6.344   6.978   0.139 -0.1272 -0.1820  0.0220
 1087WAT     H1 5068   6.411   6.978   0.194 -0.0158 -0.9806 -0.1104
 1087WAT     H2 5069   6.276   6.998   0.190  0.0131 -0.6681  0.4005
 1087WAT    EPW 5070   6.344   6.981   0.155 -0.0900 -0.3718  0.0584
 1088WAT      O 5071   5.445   1.003   2.218 -0.3949 -0.0409 -0.1732
 1088WAT     H1 5072   5.438   0.969   2.138  1.8376  0.3366 -0.6090
 1088WAT     H2 5073   5.527   0.984   2.241 -0.1367  2.1006  0.9316
 1088WAT    EPW 5074   5.456   0.995   2.210 -0.0270  0.3312 -0.0744
 1089WAT      O 5075   0.822   7.034   6.251  0.3794 -0.3315  0.1634
 1089WAT     H1 5076   0.748   7.077   6.234 -0.7728 -1.3541  2.2014
 1089WAT     H2 5077   0.878   7.097   6.275 -0.5277  0.2863  0.7384
 1089WAT    EPW 5078   0.820   7.050   6.252  0.0752 -0.3913  0.5494
 1090WAT      O 5079   0.757   5.857   4.161 -0.8996 -0.1028 -0.1390
 1090WAT     H1 5080   0.803   5.794   4.120 -0.3982  0.5327 -0.5761
 1090WAT     H2 5081   0.695   5.813   4.203  0.1310 -1.0037  0.4910
 1090WAT    EPW 5082   0.755   5.841   4.161 -0.6733 -0.1420 -0.1105
 1091WAT      O 5083   0.905   4.838   3.715  0.0564 -0.2118  0.2145
 1091WAT     H1 5084   0.952   4.809   3.648 -1.1374  1.3662 -1.4080
 1091WAT     H2 5085   0.862   4.767   3.743  0.6810 -0.9182 -0.5753
 1091WAT    EPW 5086   0.906   4.823   3.710 -0.0277 -0.0831 -0.1419
 1092WAT      O 5087   3.096   7.210   5.726  0.4794 -0.4070  0.1582
 1092WAT     H1 5088   3.141   7.228   5.799 -0.1361  1.0327  0.2003
 1092WAT     H2 5089   3.015   7.194   5.755  0.5517 -1.3008 -0.0887
 1092WAT    EPW 5090   3.091   7.210   5.741  0.3991 -0.3264  0.1280
 1093WAT      O 5091   3.260   1.233   4.424 -0.0783 -0.2332 -0.3378
 1093WAT     H1 5092   3.205   1.228   4.492 -0.8017 -1.4620 -0.9976
 1093WAT     H2 5093   3.327   1.280   4.456 -1.9126  2.2527  0.1843
 1093WAT    EPW 5094   3.262   1.240   4.439 -0.4561 -0.0475 -0.3581
 1094WAT      O 5095   5.419   0.898   1.541  0.4947  0.4902  0.4819
 1094WAT     H1 5096   5.440   0.821   1.506 -0.6617 -0.4655  1.7379
 1094WAT     H2 5097   5.365   0.934   1.482  0.6232  0.0866  0.1176
 1094WAT    EPW 5098   5.414   0.892   1.527  0.3428  0.2894  0.6136
 1095WAT      O 5099   0.421   0.332   4.443 -0.3781 -0.2921  0.3451
 1095WAT     H1 5100   0.491   0.335   4.392 -0.9111  2.2372 -0.3838
 1095WAT     H2 5101   0.452   0.355   4.521 -0.2437 -0.0139  0.2124
 1095WAT    EPW 5102   0.436   0.335   4.447 -0.4370  0.1226  0.2179
 1096WAT      O 5103   6.716   1.920   1.652 -0.2452  0.2578 -0.1079
 1096WAT     H1 5104   6.693   1.877   1.725 -0.1942  0.7163  0.1786
 1096WAT     H2 5105   6.671   1.878   1.589 -0.4903  0.0274  0.2186
 1096WAT    EPW 5106   6.706   1.907   1.653 -0.2739  0.2915 -0.0173
 1097WAT      O 5107   5.756   5.763   5.395  0.0881 -0.1636  0.0389
 1097WAT     H1 5108   5.770   5.686   5.432 -2.3848 -1.0778 -0.6962
 1097WAT     H2 5109   5.760   5.819   5.461  1.1003 -1.0276  0.7293
 1097WAT    EPW 5110   5.759   5.760   5.410 -0.1277 -0.4263  0.0323
 1098WAT      O 5111   6.195   0.096   5.041 -0.2925  0.2559  0.3143
 1098WAT     H1 5112   6.108   0.101   5.032 -0.1415  1.9109 -0.7105
 1098WAT     H2 5113   6.224   0.111   4.960  0.9614  1.9689  1.0365
 1098WAT    EPW 5114   6.186   0.099   5.028 -0.0850  0.7534  0.2696
 1099WAT      O 5115   5.984   5.907   2.333  0.2083 -1.1060 -0.2463
 1099WAT     H1 5116   6.005   5.870   2.257 -1.7451  0.0522 -1.4382
 1099WAT     H2 5117   5.897   5.906   2.333  0.1507 -0.2246  1.5472
 1099WAT    EPW 5118   5.975   5.902   2.321 -0.0888 -0.8047 -0.1574
 1100WAT      O 5119   6.678   6.336   3.561  0.4240 -0.2392 -0.0112
 1100WAT     H1 5120   6.594   6.359   3.550  0.0934 -0.9176  1.0376
 1100WAT     H2 5121   6.711   6.343   3.480 -0.3951  0.9505 -0.2761
 1100WAT    EPW 5122   6.670   6.341   3.547  0.2542 -0.1637  0.1046
 1101WAT      O 5123   5.542   6.683   1.037 -0.2864  0.1143 -0.4876
 1101WAT     H1 5124   5.543   6.598   1.016 -2.4064 -0.2314  0.4926
 1101WAT     H2 5125   5.562   6.683   1.122 -0.0932  0.6209 -0.5305
 1101WAT    EPW 5126   5.545   6.670   1.046 -0.5710  0.1381 -0.3492
 1102WAT      O 5127   5.676   5.704   6.185 -0.1075 -0.0836  0.3006
 1102WAT     H1 5128   5.650   5.682   6.105 -0.3168 -0.9126  0.5950
 1102WAT     H2 5129   5.607   5.685   6.235  0.1202  0.1819  0.7247
 1102WAT    EPW 5130   5.662   5.698   6.180 -0.1048 -0.1668  0.4068
 1103WAT      O 5131   1.342   0.112   4.501  0.0713 -0.4345 -0.1776
 1103WAT     H1 5132   1.347   0.075   4.422  1.8408 -2.4820  0.7833
 1103WAT     H2 5133   1.272   0.075   4.536  0.8771 -1.7160  0.1626
 1103WAT    EPW 5134   1.333   0.101   4.494  0.4517 -0.9262  0.0146
 1104WAT      O 5135   2.583   1.252   0.921  0.1893  0.2799 -0.2664
 1104WAT     H1 5136   2.513   1.285   0.961  0.6411  0.8197  0.0869
 1104WAT     H2 5137   2.554   1.175   0.891  0.1317 -0.7617  2.1735
 1104WAT    EPW 5138   2.568   1.245   0.922  0.2475  0.2058  0.1462
 1105WAT      O 5139   0.328   2.925   0.581 -0.2281  0.3851  0.0960
 1105WAT     H1 5140   0.391   2.927   0.641 -0.4176 -0.2171  0.3178
 1105WAT     H2 5141   0.372   2.926   0.505  0.1896 -2.4009  0.2038
 1105WAT    EPW 5142   0.344   2.925   0.578 -0.1944 -0.1154  0.1447
 1106WAT      O 5143   7.185   1.613   0.622  0.6948 -0.2361  0.2690
 1106WAT     H1 5144   7.109   1.575   0.605  1.0970 -0.5975 -0.7662
 1106WAT     H2 5145   7.206   1.653   0.547  0.7164  1.2861  1.0507
 1106WAT    EPW 5146   7.177   1.613   0.609  0.7574 -0.0646  0.2316
 1107WAT      O 5147   5.151   4.403   4.400  0.1673  0.4439  0.0251
 1107WAT     H1 5148   5.219   4.399   4.345  0.9822  0.2226  1.0108
 1107WAT     H2 5149   5.179   4.454   4.464 -0.2034 -0.4771  0.9546
 1107WAT    EPW 5150   5.165   4.410   4.401  0.2329  0.2752  0.3080
 1108WAT      O 5151   6.950   3.359   5.511  0.2379  0.1607  0.0039
 1108WAT     H1 5152   6.995   3.328   5.578  1.1218  0.0878 -0.6100
 1108WAT     H2 5153   6.988   3.436   5.495  1.7056 -0.8710 -1.9559
 1108WAT    EPW 5154   6.962   3.366   5.518  0.5853 -0.0025 -0.3763
 1109WAT      O 5155   2.108   4.366   0.896 -0.1767  0.1089  0.0442
 1109WAT     H1 5156   2.141   4.438   0.933 -0.8442  0.6681 -0.4021
 1109WAT     H2 5157   2.157   4.302   0.927  0.9266  0.8386 -0.1393
 1109WAT    EPW 5158   2.120   4.367   0.906 -0.1123  0.2993 -0.0488
 1110WAT      O 5159   0.040   5.804   1.065  0.3472  0.0649  0.3590
 1110WAT     H1 5160  -0.017   5.804   0.998  0.8837  0.9608 -0.1251
 1110WAT     H2 5161   0.101   5.747   1.041 -0.1922 -0.6983  0.7581
 1110WAT    EPW 5162   0.040   5.796   1.052  0.3468  0.0845  0.3465
 1111WAT      O 5163   1.695   3.387   0.466  0.2668  0.1959  0.1470
 1111WAT     H1 5164   1.651   3.443   0.516 -0.5910 -1.2832  1.1014
 1111WAT     H2 5165   1.727   3.330   0.522  2.0833  0.3158 -0.7005
 1111WAT    EPW 5166   1.693   3.387   0.481  0.4084 -0.0049  0.1628
 1112WAT      O 5167   6.319   7.044   2.153 -0.2702  0.6925  0.0453
 1112WAT     H1 5168   6.280   7.092   2.092  0.0287  0.3256 -0.4387
 1112WAT     H2 5169   6.350   6.975   2.109  0.4941  0.7351  0.5005
 1112WAT    EPW 5170   6.318   7.041   2.138 -0.1132  0.6446  0.0410
 1113WAT      O 5171   1.270   6.497   0.366  0.1161  0.0775 -0.2348
 1113WAT     H1 5172   1.303   6.454   0.434  1.5752  0.2508 -0.7968
 1113WAT     H2 5173   1.331   6.556   0.346  0.3159 -0.7527 -2.4313
 1113WAT    EPW 5174   1.284   6.500   0.373  0.3612 -0.0195 -0.6423
 1114WAT      O 5175   3.939   6.189   2.852 -0.5768 -0.1227 -0.1399
 1114WAT     H1 5176   3.985   6.165   2.782 -0.5257 -1.3397  0.3009
 1114WAT     H2 5177   3.867   6.224   2.817 -0.5047 -0.6101 -0.8008
 1114WAT    EPW 5178   3.935   6.191   2.836 -0.5586 -0.3745 -0.1724
 1115WAT      O 5179   1.980   1.165   2.983  0.0946 -0.0375 -0.0341
 1115WAT     H1 5180   2.062   1.176   3.009  0.5062  0.1230 -1.3240
 1115WAT     H2 5181   1.964   1.081   3.000  1.0498 -0.4679 -1.1359
 1115WAT    EPW 5182   1.990   1.155   2.989  0.2965 -0.0774 -0.3874
 1116WAT      O 5183   1.186   7.038   4.512 -0.1056  0.5167 -0.3032
 1116WAT     H1 5184   1.159   7.121   4.520  0.2598  0.6476 -0.4040
 1116WAT     H2 5185   1.219   7.019   4.590  0.0849  0.5652 -0.3723
 1116WAT    EPW 5186   1.187   7.048   4.524 -0.0235  0.5432 -0.3283
 1117WAT      O 5187   1.093   4.340   4.444 -0.0593 -0.1230  0.0280
 1117WAT     H1 5188   1.070   4.347   4.360 -2.1715  0.4476  0.5996
 1117WAT     H2 5189   1.064   4.414   4.480  0.6416 -0.4329  1.3151
 1117WAT    EPW 5190   1.085   4.352   4.437 -0.2678 -0.0845  0.3025
 1118WAT      O 5191   6.429   6.794   6.166 -0.4961 -0.0286 -0.1710
 1118WAT     H1 5192   6.352   6.825   6.194  0.8191  1.7627  1.8071
 1118WAT     H2 5193   6.451   6.849   6.101 -1.3542 -1.2432 -1.5350
 1118WAT    EPW 5194   6.421   6.807   6.161 -0.4286  0.0566 -0.0803
 1119WAT      O 5195   2.526   5.719   3.722 -0.3633  0.2221  1.1701
 1119WAT     H1 5196   2.565   5.652   3.683  1.1435  0.9434  1.3600
 1119WAT     H2 5197   2.510   5.689   3.803 -0.5553 -0.2141  0.9705
 1119WAT    EPW 5198   2.530   5.705   3.728 -0.1691  0.2642  1.1687
 1120WAT      O 5199   6.999   6.289   3.132 -0.2804 -0.0816 -0.0216
 1120WAT     H1 5200   6.965   6.326   3.061 -0.2725  1.3824  0.6880
 1120WAT     H2 5201   6.947   6.221   3.148 -1.1924  0.4698 -0.5554
 1120WAT    EPW 5202   6.987   6.284   3.124 -0.4140  0.2161  0.0044
 1121WAT      O 5203   2.595   3.692   0.182 -0.1156 -0.1962  0.1463
 1121WAT     H1 5204   2.588   3.713   0.097  1.1969 -0.4338 -0.0410
 1121WAT     H2 5205   2.656   3.747   0.211 -1.4804  0.7872  1.2802
 1121WAT    EPW 5206   2.602   3.703   0.174 -0.1233 -0.0860  0.2861
 1122WAT      O 5207   4.565   6.538   2.914 -0.6681 -0.0363  0.6021
 1122WAT     H1 5208   4.622   6.473   2.921 -1.4040 -0.9780 -1.4723
 1122WAT     H2 5209   4.498   6.512   2.964 -1.3153 -1.3652 -0.8588
 1122WAT    EPW 5210   4.564   6.525   2.923 -0.8724 -0.3717  0.0799
 1123WAT      O 5211   5.106   5.450   7.021  0.0460 -0.2964  0.4990
 1123WAT     H1 5212   5.091   5.429   6.938  0.5360 -1.5521  0.7169
 1123WAT     H2 5213   5.065   5.388   7.067 -1.7419  1.3563  1.2660
 1123WAT    EPW 5214   5.098   5.438   7.016 -0.1457 -0.2378  0.6445
 1124WAT      O 5215   6.773   0.879   6.084 -0.1001 -0.0237  0.1733
 1124WAT     H1 5216   6.853   0.878   6.050 -0.5163  0.1178 -0.8259
 1124WAT     H2 5217   6.722   0.846   6.021 -0.8702  0.1183  0.6985
 1124WAT    EPW 5218   6.777   0.874   6.070 -0.2754  0.0182  0.1033
 1125WAT      O 5219   4.203   0.693   2.253  0.5956 -0.1574 -0.0215
 1125WAT     H1 5220   4.131   0.693   2.302  0.4386  1.6052 -0.1836
 1125WAT     H2 5221   4.258   0.642   2.297 -0.1160  0.0111  1.1016
 1125WAT    EPW 5222   4.201   0.685   2.266  0.4673  0.1279  0.1204
 1126WAT      O 5223   6.047   3.628   7.224  0.0295  0.2955 -0.2340
 1126WAT     H1 5224   6.077   3.666   7.151  0.9181  1.2322  0.5921
 1126WAT     H2 5225   6.106   3.567   7.241 -0.2079  0.0400 -0.3270
 1126WAT    EPW 5226   6.060   3.625   7.216  0.1257  0.3961 -0.1257
 1127WAT      O 5227   4.429   4.365   5.663  0.5524 -0.0731 -0.1561
 1127WAT     H1 5228   4.414   4.279   5.670  2.5665 -0.5642 -1.1120
 1127WAT     H2 5229   4.395   4.385   5.585 -0.0526  0.0286  0.1339
 1127WAT    EPW 5230   4.422   4.355   5.652  0.7605 -0.1307 -0.2544
 1128WAT      O 5231   2.896   4.157   0.002 -0.0642 -0.2779 -0.4174
 1128WAT     H1 5232   2.948   4.115   0.058 -0.0045  0.2800 -0.0472
 1128WAT     H2 5233   2.952   4.198  -0.052 -0.0051  2.2599  1.3912
 1128WAT    EPW 5234   2.912   4.157   0.002 -0.0466  0.1794 -0.0956
 1129WAT      O 5235   5.081   3.571   5.492  0.1022 -0.5988  0.3370
 1129WAT     H1 5236   5.028   3.535   5.551 -0.2045 -0.8414 -0.0801
 1129WAT     H2 5237   5.148   3.600   5.539  0.2270 -1.4740  0.7180
 1129WAT    EPW 5238   5.083   3.570   5.507  0.0753 -0.7639  0.3317
 1130WAT      O 5239   5.580   2.644   0.246  0.0405  0.3667  0.2058
 1130WAT     H1 5240   5.625   2.589   0.196 -2.2920 -1.0684 -0.4588
 1130WAT     H2 5241   5.563   2.597   0.318 -2.3409 -0.0386 -0.5437
 1130WAT    EPW 5242   5.584   2.629   0.249 -0.6558  0.0948 -0.0031
 1131WAT      O 5243   3.711   5.556   4.508  0.5686 -0.4509  0.0243
 1131WAT     H1 5244   3.652   5.615   4.481 -0.7033 -1.2620  0.9106
 1131WAT     H2 5245   3.677   5.527   4.583  1.7189 -1.5140  0.1573
 1131WAT    EPW 5246   3.697   5.561   4.515  0.5506 -0.7278  0.1749
 1132WAT      O 5247   1.877   0.532   0.728 -0.3514  0.6465 -0.0641
 1132WAT     H1 5248   1.905   0.457   0.693  0.0159  0.5253  0.4749
 1132WAT     H2 5249   1.813   0.557   0.675  0.0255  0.3373 -0.6746
 1132WAT    EPW 5250   1.872   0.525   0.715 -0.2415  0.5829 -0.0746
 1133WAT      O 5251   4.082   4.841   5.373  0.5468 -0.2130 -0.7122
 1133WAT     H1 5252   3.995   4.836   5.369  0.3691  0.4613  1.0925
 1133WAT     H2 5253   4.098   4.925   5.353  0.8422 -0.4855 -1.6318
 1133WAT    EPW 5254   4.071   4.853   5.370  0.5642 -0.1537 -0.5814
 1134WAT      O 5255   5.194   7.036   2.805 -0.3525 -0.0673 -0.4076
 1134WAT     H1 5256   5.240   7.075   2.869  1.1459 -0.7067 -1.0439
 1134WAT     H2 5257   5.155   7.103   2.765 -0.0650  0.4968  0.2246
 1134WAT    EPW 5258   5.195   7.052   2.809 -0.0887 -0.0785 -0.4082
 1135WAT      O 5259   4.544   0.851   7.004 -0.0595  0.4150  0.3504
 1135WAT     H1 5260   4.579   0.773   6.991 -1.2490 -0.4201  1.8203
 1135WAT     H2 5261   4.602   0.892   7.055  0.3041  0.2995  0.0322
 1135WAT    EPW 5262   4.557   0.846   7.010 -0.1815  0.2746  0.5205
 1136WAT      O 5263   4.207   5.221   3.620  0.1324  0.3641  0.1957
 1136WAT     H1 5264   4.268   5.233   3.681  2.7222 -0.3932 -2.0525
 1136WAT     H2 5265   4.165   5.150   3.646  0.1381  0.9117  1.8163
 1136WAT    EPW 5266   4.210   5.213   3.633  0.5158  0.3331  0.1030
 1137WAT      O 5267   6.324   5.150   5.328 -0.3208  0.5838 -0.2692
 1137WAT     H1 5268   6.367   5.075   5.317 -1.7499 -0.2226 -0.5585
 1137WAT     H2 5269   6.353   5.179   5.405 -0.9315 -1.0843  0.6273
 1137WAT    EPW 5270   6.335   5.143   5.338 -0.6221  0.2183 -0.1795
 1138WAT      O 5271   0.980   4.787   5.218 -0.1905  0.3010  0.1276
 1138WAT     H1 5272   0.895   4.772   5.205 -0.3704  0.8284  0.6726
 1138WAT     H2 5273   1.001   4.729   5.280 -0.0062 -0.2289 -0.4157
 1138WAT    EPW 5274   0.971   4.776   5.225 -0.1899  0.3006  0.1278
 1139WAT      O 5275   3.826   5.683   1.709  0.2078  0.1639  0.0399
 1139WAT     H1 5276   3.801   5.759   1.675  1.4831  0.5691 -0.0297
 1139WAT     H2 5277   3.760   5.629   1.688  1.0975  0.2367 -3.5882
 1139WAT    EPW 5278   3.812   5.686   1.701  0.5276  0.2345 -0.5064
 1140WAT      O 5279   6.114   1.472   5.083 -0.2716 -0.1339  0.1815
 1140WAT     H1 5280   6.161   1.414   5.128  0.2603 -1.1493 -1.5773
 1140WAT     H2 5281   6.103   1.433   5.006 -1.4592  1.3702 -0.4443
 1140WAT    EPW 5282   6.119   1.458   5.078 -0.3684 -0.0617 -0.1708
 1141WAT      O 5283   1.840   1.351   3.785  0.0052 -0.0664  0.9453
 1141WAT     H1 5284   1.870   1.314   3.858  2.8247 -0.9824 -0.5480
 1141WAT     H2 5285   1.902   1.408   3.764  0.6066 -1.6409 -2.0350
 1141WAT    EPW 5286   1.854   1.354   3.793  0.5105 -0.4343  0.2845
 1142WAT      O 5287   4.177   6.833   0.952 -0.2453 -0.1045 -0.3537
 1142WAT     H1 5288   4.200   6.891   0.892 -0.8905  1.8668  1.2012
 1142WAT     H2 5289   4.105   6.796   0.919 -0.1580  0.3958 -1.1132
 1142WAT    EPW 5290   4.170   6.836   0.939 -0.3277  0.2606 -0.2362
 1143WAT      O 5291   5.548   6.992   6.900 -0.0049 -0.6440 -0.3806
 1143WAT     H1 5292   5.548   6.906   6.886  1.1862 -0.4308 -1.9476
 1143WAT     H2 5293   5.524   7.026   6.824 -0.3749  0.4292  0.1881
 1143WAT    EPW 5294   5.545   6.984   6.887  0.1164 -0.4540 -0.5281
 1144WAT      O 5295   2.868   2.206   2.837 -0.5411  0.1098 -0.0106
 1144WAT     H1 5296   2.859   2.240   2.757 -0.6353 -0.2850 -0.1711
 1144WAT     H2 5297   2.951   2.221   2.857 -0.3537 -0.3323 -0.4375
 1144WAT    EPW 5298   2.879   2.213   2.828 -0.5274 -0.0138 -0.0974
 1145WAT      O 5299   3.383   5.217   2.173  1.0244  0.2904 -0.4117
 1145WAT     H1 5300   3.346   5.240   2.248  0.7578  1.5732 -0.9157
 1145WAT     H2 5301   3.469   5.228   2.188  0.8984  1.8004 -0.6743
 1145WAT    EPW 5302   3.390   5.222   2.186  0.9664  0.7029 -0.5250
 1146WAT      O 5303   0.774   7.230   1.733 -0.1968  0.1888 -0.1478
 1146WAT     H1 5304   0.825   7.174   1.689 -2.1712 -2.4857  0.6382
 1146WAT     H2 5305   0.728   7.269   1.670 -0.9967 -1.4973 -0.6814
 1146WAT    EPW 5306   0.774   7.227   1.718 -0.6066 -0.4553 -0.1105
 1147WAT      O 5307   1.922   0.019   4.242  0.0144  0.0909 -0.0142
 1147WAT     H1 5308   1.888   0.039   4.164 -1.8764 -1.3221  0.3643
 1147WAT     H2 5309   1.865   0.055   4.298  1.2476  0.9307  0.7543
 1147WAT    EPW 5310   1.908   0.027   4.239 -0.0827  0.0062  0.1552
 1148WAT      O 5311   1.242   6.622   3.782 -0.1399 -1.0753 -0.2470
 1148WAT     H1 5312   1.187   6.687   3.761  0.9570 -0.7549 -2.3073
 1148WAT     H2 5313   1.312   6.664   3.814 -0.5661 -1.4274  1.2268
 1148WAT    EPW 5314   1.244   6.638   3.784 -0.0408 -1.0800 -0.3336
 1149WAT      O 5315   3.927   6.655   6.292  0.0803  0.5196  0.3691
 1149WAT     H1 5316   3.860   6.646   6.348 -1.5173  0.1757 -1.4850
 1149WAT     H2 5317   3.939   6.741   6.289 -0.1717  0.5746  0.8296
 1149WAT    EPW 5318   3.919   6.666   6.300 -0.1929  0.4770  0.1632
 1150WAT      O 5319   1.770   2.929   1.087  0.0765  0.0640  0.3324
 1150WAT     H1 5320   1.838   2.888   1.052  0.8563  0.2763  1.5159
 1150WAT     H2 5321   1.702   2.879   1.066  0.3510  0.5509 -2.0568
 1150WAT    EPW 5322   1.770   2.916   1.079  0.2322  0.1673  0.1543
 1151WAT      O 5323   3.493   5.639   2.690 -0.2407  0.2824  0.2958
 1151WAT     H1 5324   3.531   5.600   2.758  0.9681  0.7814 -0.0676
 1151WAT     H2 5325   3.504   5.724   2.707 -0.1626  0.4117 -0.3803
 1151WAT    EPW 5326   3.500   5.646   2.703 -0.0506  0.3752  0.1422
 1152WAT      O 5327   3.456   1.827   1.475  0.5703  0.1326 -0.0955
 1152WAT     H1 5328   3.537   1.854   1.493 -0.4866  2.5805  1.6130
 1152WAT     H2 5329   3.418   1.819   1.553 -1.5147  1.5966 -0.8488
 1152WAT    EPW 5330   3.462   1.830   1.489  0.1062  0.7105  0.0456
 1153WAT      O 5331   4.968   0.814   5.847 -0.1180 -0.0417 -0.4193
 1153WAT     H1 5332   4.998   0.807   5.928  0.6781  1.8993 -0.5160
 1153WAT     H2 5333   4.884   0.791   5.855 -0.4059  1.4093  1.2215
 1153WAT    EPW 5334   4.960   0.809   5.860 -0.0429  0.4594 -0.1912
 1154WAT      O 5335   3.189   6.414   4.886  0.0580 -0.0516 -0.1302
 1154WAT     H1 5336   3.190   6.339   4.930 -0.1435  0.2629  0.4163
 1154WAT     H2 5337   3.265   6.414   4.843 -0.2083 -0.8519 -0.6240
 1154WAT    EPW 5338   3.200   6.403   4.886 -0.0111 -0.1233 -0.1224
 1155WAT      O 5339   4.644   1.310   1.778  0.3442 -0.2416  0.2174
 1155WAT     H1 5340   4.577   1.267   1.815  2.4271 -3.4641  0.6231
 1155WAT     H2 5341   4.696   1.247   1.750  2.6422  2.1228 -1.2800
 1155WAT    EPW 5342   4.642   1.294   1.779  0.9913 -0.3683  0.0561
 1156WAT      O 5343   4.779   4.470   6.209 -0.4946 -0.5382 -0.1840
 1156WAT     H1 5344   4.712   4.422   6.239  1.3199 -1.5503  2.6098
 1156WAT     H2 5345   4.790   4.530   6.271  3.8531 -3.1143  2.0004
 1156WAT    EPW 5346   4.771   4.472   6.223  0.4157 -1.0683  0.5514
 1157WAT      O 5347   2.069   1.555   4.317  1.0406  0.2647 -0.1434
 1157WAT     H1 5348   2.145   1.516   4.299  0.8998  0.0578 -0.3004
 1157WAT     H2 5349   2.041   1.514   4.388  0.0299 -1.1799 -1.3215
 1157WAT    EPW 5350   2.076   1.543   4.325  0.8705  0.0208 -0.3406
 1158WAT      O 5351   5.186   3.287   0.885 -0.2721 -0.2397  0.0167
 1158WAT     H1 5352   5.099   3.292   0.891 -0.3778  1.3946 -1.7615
 1158WAT     H2 5353   5.214   3.351   0.937 -0.1705 -0.2910  0.0254
 1158WAT    EPW 5354   5.177   3.297   0.894 -0.2727 -0.0059 -0.2447
 1159WAT      O 5355   2.893   6.990   0.992  0.3207  0.2945  0.5344
 1159WAT     H1 5356   2.918   7.072   1.008 -1.0918  0.3475  2.9076
 1159WAT     H2 5357   2.806   6.994   0.997  0.2112 -1.2934  0.3405
 1159WAT    EPW 5358   2.884   7.003   0.995  0.0958  0.0678  0.8563
 1160WAT      O 5359   3.786   5.957   2.967  0.1337  0.4057  0.0117
 1160WAT     H1 5360   3.825   6.033   2.951 -0.0748  0.7894  1.2711
 1160WAT     H2 5361   3.720   5.977   3.020  1.3033 -0.8592  2.1258
 1160WAT    EPW 5362   3.782   5.971   2.972  0.2756  0.2755  0.5100
 1161WAT      O 5363   1.331   4.779   5.446 -0.4096 -0.3334  0.1804
 1161WAT     H1 5364   1.325   4.834   5.379  2.1496  0.8630  0.8126
 1161WAT     H2 5365   1.417   4.776   5.462 -0.7833 -2.0143  2.2339
 1161WAT    EPW 5366   1.343   4.787   5.438 -0.0867 -0.4050  0.5772
 1162WAT      O 5367   3.402   2.022   4.296  0.1580 -0.3896  0.0424
 1162WAT     H1 5368   3.332   2.072   4.300  1.2593  1.1325  2.9238
 1162WAT     H2 5369   3.464   2.076   4.267  0.4041 -1.4740 -1.5952
 1162WAT    EPW 5370   3.401   2.037   4.292  0.3570 -0.3250  0.2262
 1163WAT      O 5371   3.977   5.133   1.619  0.2664  0.0518 -0.1991
 1163WAT     H1 5372   3.917   5.078   1.650 -0.1270 -1.1890 -2.8494
 1163WAT     H2 5373   4.038   5.080   1.585  0.8162  1.2568 -1.1797
 1163WAT    EPW 5374   3.977   5.117   1.618  0.2895  0.0465 -0.7354
 1164WAT      O 5375   5.168   6.633   4.116 -0.1830 -0.3566  0.3579
 1164WAT     H1 5376   5.182   6.709   4.157  0.8325 -0.1905 -0.2400
 1164WAT     H2 5377   5.170   6.655   4.031  0.7609 -1.1204  0.1540
 1164WAT    EPW 5378   5.171   6.648   4.109  0.1064 -0.4449  0.2394
 1165WAT      O 5379   0.148   6.673   5.097  0.8187 -0.7963 -0.3467
 1165WAT     H1 5380   0.203   6.697   5.161 -0.9047 -0.4833  1.0926
 1165WAT     H2 5381   0.136   6.588   5.111  2.4879 -1.3775 -1.9666
 1165WAT    EPW 5382   0.155   6.664   5.108  0.8107 -0.8359 -0.3734
 1166WAT      O 5383   3.652   0.044   5.618 -0.2362 -0.4409 -0.7361
 1166WAT     H1 5384   3.645  -0.028   5.667  1.2306 -1.6369 -2.1545
 1166WAT     H2 5385   3.570   0.064   5.598 -0.9502  0.4986  2.6490
 1166WAT    EPW 5386   3.639   0.036   5.622 -0.1250 -0.4788 -0.4456
 1167WAT      O 5387   1.890   6.157   4.149 -0.1494 -0.1655  0.6543
 1167WAT     H1 5388   1.947   6.156   4.083 -0.1820 -0.8887  0.6333
 1167WAT     H2 5389   1.941   6.157   4.220 -0.1212  0.0113  0.6355
 1167WAT    EPW 5390   1.906   6.157   4.149 -0.1501 -0.2462  0.6484
 1168WAT      O 5391   4.309   2.094   7.119  0.0858 -0.2385  0.4748
 1168WAT     H1 5392   4.368   2.041   7.082 -0.7701 -0.4907 -0.5762
 1168WAT     H2 5393   4.255   2.038   7.159 -0.3683 -0.1199  0.0363
 1168WAT    EPW 5394   4.310   2.078   7.120 -0.1077 -0.2582  0.2548
 1169WAT      O 5395   2.975   5.951   3.569 -0.1416  0.4214 -0.0522
 1169WAT     H1 5396   2.904   6.000   3.579 -0.1736  0.2277  0.6862
 1169WAT     H2 5397   3.041   6.008   3.576 -0.1644  0.3123  1.2195
 1169WAT    EPW 5398   2.975   5.967   3.572 -0.1497  0.3767  0.2447
 1170WAT      O 5399   4.243   0.413   3.410 -0.2795 -0.8924  0.4600
 1170WAT     H1 5400   4.254   0.483   3.462  1.0324  0.2864 -1.3058
 1170WAT     H2 5401   4.308   0.360   3.433  2.2402  0.9275 -1.8467
 1170WAT    EPW 5402   4.254   0.415   3.421  0.2865 -0.4494 -0.1416
 1171WAT      O 5403   5.167   3.551   4.950 -0.3419 -0.2501 -0.1221
 1171WAT     H1 5404   5.127   3.536   5.026  1.5361 -1.1202  0.7732
 1171WAT     H2 5405   5.174   3.471   4.915  1.3707 -0.2846  0.2093
 1171WAT    EPW 5406   5.162   3.537   4.956  0.1885 -0.3837  0.0591
 1172WAT      O 5407   3.647   1.248   4.024  0.1790  0.3528 -0.0624
 1172WAT     H1 5408   3.573   1.261   3.981  0.7190 -1.3986 -1.6409
 1172WAT     H2 5409   3.653   1.162   4.029  1.4426  0.4875  1.2636
 1172WAT    EPW 5410   3.637   1.237   4.018  0.4455  0.1140 -0.0997
 1173WAT      O 5411   2.024   0.837   2.763  0.5570  0.0467 -0.1468
 1173WAT     H1 5412   1.972   0.849   2.694 -0.4809  0.2381  0.6386
 1173WAT     H2 5413   2.086   0.897   2.753  0.2635  0.2564 -0.7732
 1173WAT    EPW 5414   2.025   0.848   2.752  0.3603  0.1060 -0.1233
 1174WAT      O 5415   7.169   0.273   1.127  0.1134  0.5099 -0.3847
 1174WAT     H1 5416   7.140   0.235   1.200  1.2472  0.4643  0.0690
 1174WAT     H2 5417   7.209   0.208   1.084 -0.9359  0.4314 -1.2808
 1174WAT    EPW 5418   7.171   0.258   1.131  0.1259  0.4915 -0.4501
 1175WAT      O 5419   2.467   1.326   0.598 -0.2844 -0.2283 -0.0740
 1175WAT     H1 5420   2.462   1.322   0.511  1.7805  0.5140 -0.2879
 1175WAT     H2 5421   2.483   1.244   0.622  1.3128 -0.1323 -0.6496
 1175WAT    EPW 5422   2.469   1.313   0.589  0.2566 -0.1044 -0.1906
 1176WAT      O 5423   6.517   1.037   1.064  0.9426  0.7108 -0.8512
 1176WAT     H1 5424   6.591   0.994   1.078  1.3350  1.8595  0.8105
 1176WAT     H2 5425   6.472   0.983   1.012  1.2160 -1.9297  1.4326
 1176WAT    EPW 5426   6.521   1.023   1.058  1.0409  0.4904 -0.2684
 1177WAT      O 5427   1.599   4.396   4.789 -0.5642  0.6993  0.0063
 1177WAT     H1 5428   1.637   4.366   4.862  0.9143  0.0349 -1.0009
 1177WAT     H2 5429   1.604   4.328   4.735 -1.2310  1.3409 -0.8744
 1177WAT    EPW 5430   1.605   4.381   4.792 -0.4443  0.6959 -0.2726
 1178WAT      O 5431   0.774   6.084   5.900 -0.2675 -0.0448  0.3947
 1178WAT     H1 5432   0.736   6.159   5.877  0.6821  0.4995  0.5513
 1178WAT     H2 5433   0.859   6.104   5.904  0.3532 -1.7134 -1.9810
 1178WAT    EPW 5434   0.781   6.098   5.897 -0.0356 -0.2109  0.0669
 1179WAT      O 5435   7.019   1.167   4.734 -0.7221  0.1512  0.3233
 1179WAT     H1 5436   7.052   1.113   4.674  1.8442  1.7315  0.1840
 1179WAT     H2 5437   7.061   1.146   4.807  1.2428  2.5512  0.0283
 1179WAT    EPW 5438   7.030   1.156   4.736 -0.0528  0.7392  0.2591
 1180WAT      O 5439   2.517   5.834   4.531  0.8954  0.6850  0.1856
 1180WAT     H1 5440   2.571   5.841   4.463  0.4510  1.8792 -0.0571
 1180WAT     H2 5441   2.447   5.881   4.507 -0.8484 -1.7641 -0.0475
 1180WAT    EPW 5442   2.514   5.842   4.517  0.5721  0.4997  0.1153
 1181WAT      O 5443   6.859   2.280   1.742  0.0982  0.2961  0.3898
 1181WAT     H1 5444   6.940   2.293   1.770  0.2374  2.7241 -0.9158
 1181WAT     H2 5445   6.823   2.359   1.744 -1.3934 -0.2551 -1.5818
 1181WAT    EPW 5446   6.866   2.293   1.747 -0.1015  0.5733 -0.0943
 1182WAT      O 5447   3.198   1.501   5.315  0.6809 -0.2604  0.2713
 1182WAT     H1 5448   3.244   1.561   5.358  0.6717  0.4571 -0.6982
 1182WAT     H2 5449   3.144   1.548   5.265  0.2145 -1.0781 -0.0154
 1182WAT    EPW 5450   3.196   1.517   5.314  0.6107 -0.2752  0.0857
 1183WAT      O 5451   2.959   5.564   4.335 -0.0191  0.3234  0.0663
 1183WAT     H1 5452   2.918   5.487   4.339  0.7183 -0.1327 -0.6780
 1183WAT     H2 5453   2.922   5.604   4.267  0.7765 -0.1062 -0.6317
 1183WAT    EPW 5454   2.948   5.558   4.326  0.2074  0.1926 -0.1468
 1184WAT      O 5455   2.301   7.236   2.975 -0.4205  0.4422 -0.2951
 1184WAT     H1 5456   2.301   7.149   2.978  1.4873  0.4307  0.8681
 1184WAT     H2 5457   2.252   7.260   3.043 -0.7564  0.2923 -0.4811
 1184WAT    EPW 5458   2.294   7.227   2.985 -0.1883  0.4184 -0.1508
 1185WAT      O 5459   7.011   3.224   7.302 -0.7896 -0.2669  0.3397
 1185WAT     H1 5460   7.066   3.159   7.318 -1.5876 -0.6622  1.6811
 1185WAT     H2 5461   6.952   3.189   7.248  0.2984  0.1928 -1.1941
 1185WAT    EPW 5462   7.010   3.210   7.296 -0.7468 -0.2574  0.3113
 1186WAT      O 5463   6.701   0.269   1.437 -0.3929  0.8653 -0.0667
 1186WAT     H1 5464   6.740   0.337   1.399 -1.4249  1.8480  0.6025
 1186WAT     H2 5465   6.748   0.256   1.509 -1.3680  2.1986  0.8609
 1186WAT    EPW 5466   6.714   0.277   1.442 -0.6894  1.2074  0.1692
 1187WAT      O 5467   2.736   4.841   4.109 -0.1543  0.0534  0.1160
 1187WAT     H1 5468   2.776   4.906   4.065 -0.6213 -0.2374 -0.7708
 1187WAT     H2 5469   2.722   4.781   4.047 -1.9717  0.1604  0.3892
 1187WAT    EPW 5470   2.740   4.842   4.093 -0.4918  0.0262  0.0254
 1188WAT      O 5471   6.254   0.502   3.254 -0.1769  0.3168 -0.1651
 1188WAT     H1 5472   6.193   0.535   3.201 -0.3237 -1.7457 -1.3718
 1188WAT     H2 5473   6.321   0.488   3.200 -0.2603 -1.6537  0.1885
 1188WAT    EPW 5474   6.255   0.505   3.238 -0.2109 -0.2790 -0.2911
 1189WAT      O 5475   2.602   2.570   2.482  0.2606 -0.5486 -0.3382
 1189WAT     H1 5476   2.687   2.556   2.466  0.3067 -0.5823 -0.0705
 1189WAT     H2 5477   2.599   2.578   2.568  0.4782  2.7759 -0.5023
 1189WAT    EPW 5478   2.614   2.569   2.492  0.2996 -0.0625 -0.3229
 1190WAT      O 5479   3.604   0.030   3.912  0.0463  0.0820  0.1738
 1190WAT     H1 5480   3.549   0.082   3.957  0.7480  1.9363 -0.9916
 1190WAT     H2 5481   3.582  -0.050   3.939 -3.7546  0.6099 -0.7180
 1190WAT    EPW 5482   3.592   0.026   3.923 -0.4115  0.4339 -0.1301
 1191WAT      O 5483   2.915   2.323   6.747 -0.0132  0.0119 -0.1759
 1191WAT     H1 5484   2.885   2.348   6.669 -0.7299 -1.6784 -0.4909
 1191WAT     H2 5485   2.950   2.244   6.731  0.9313  0.1657  0.9815
 1191WAT    EPW 5486   2.916   2.315   6.733  0.0205 -0.2151 -0.0515
 1192WAT      O 5487   0.166   4.730   6.769  0.4127  0.2203 -0.0709
 1192WAT     H1 5488   0.210   4.655   6.762 -1.6710 -1.0624 -0.2324
 1192WAT     H2 5489   0.206   4.782   6.710  0.8566 -1.3063 -1.1987
 1192WAT    EPW 5490   0.179   4.726   6.759  0.1704 -0.1947 -0.2614
 1193WAT      O 5491   3.975   5.304   4.530  0.1782  0.6955 -0.5568
 1193WAT     H1 5492   3.900   5.261   4.535  0.5899 -0.0640 -0.7639
 1193WAT     H2 5493   3.973   5.341   4.451  0.1630  0.4075 -0.6929
 1193WAT    EPW 5494   3.964   5.303   4.519  0.2367  0.5408 -0.6075
 1194WAT      O 5495   6.294   5.911   6.830 -0.0536  0.1922 -0.2005
 1194WAT     H1 5496   6.355   5.895   6.891  0.8380  1.5418 -0.6906
 1194WAT     H2 5497   6.269   5.831   6.805  3.1704 -0.5472 -1.5847
 1194WAT    EPW 5498   6.299   5.896   6.836  0.5544  0.2823 -0.4773
 1195WAT      O 5499   6.526   5.879   3.514  0.4932  0.0606 -0.8226
 1195WAT     H1 5500   6.580   5.810   3.514 -0.0055 -0.4461 -3.4001
 1195WAT     H2 5501   6.448   5.843   3.502  0.1331  1.0390 -1.4744
 1195WAT    EPW 5502   6.523   5.863   3.512  0.3663  0.1302 -1.2996
 1196WAT      O 5503   3.099   3.994   0.121 -0.0155  0.5609  0.0880
 1196WAT     H1 5504   3.155   4.043   0.076  0.6007 -0.0719  0.1476
 1196WAT     H2 5505   3.112   4.017   0.204 -1.3419  1.9232 -0.0420
 1196WAT    EPW 5506   3.109   4.005   0.126 -0.1204  0.6686  0.0776
 1197WAT      O 5507   0.055   3.106   4.063  0.1608  0.1210  0.3090
 1197WAT     H1 5508   0.017   3.051   4.008 -1.1147  0.7359  0.5390
 1197WAT     H2 5509   0.135   3.071   4.075  0.6463  0.1829 -2.1866
 1197WAT    EPW 5510   0.062   3.092   4.057  0.0441  0.2210 -0.0257
 1198WAT      O 5511   4.686   5.911   5.599 -0.2348  0.5685 -0.2402
 1198WAT     H1 5512   4.711   5.970   5.539  0.4872  0.5398  0.0174
 1198WAT     H2 5513   4.703   5.834   5.561 -1.4238  0.4974 -0.6822
 1198WAT    EPW 5514   4.692   5.908   5.584 -0.3038  0.5538 -0.2675
 1199WAT      O 5515   1.657   3.126   4.526  0.0514 -0.3963  0.3139
 1199WAT     H1 5516   1.709   3.072   4.570 -1.5989 -1.4949  1.0043
 1199WAT     H2 5517   1.593   3.075   4.497 -0.4869  0.8363 -0.8092
 1199WAT    EPW 5518   1.655   3.111   4.528 -0.2719 -0.3765  0.2500
 1200WAT      O 5519   6.314   4.085   4.592 -0.6461  0.3418  0.2081
 1200WAT     H1 5520   6.286   4.025   4.649 -1.5190 -0.1520 -0.7178
 1200WAT     H2 5521   6.392   4.055   4.566 -0.0775  0.7476  1.3704
 1200WAT    EPW 5522   6.322   4.072   4.597 -0.6910  0.3288  0.2430
 1201WAT      O 5523   4.889   0.559   0.176 -0.4094  0.3463 -0.1904
 1201WAT     H1 5524   4.961   0.512   0.184 -1.6239 -1.8772 -1.2987
 1201WAT     H2 5525   4.913   0.626   0.126  0.8663 -0.3167 -0.4961
 1201WAT    EPW 5526   4.903   0.562   0.170 -0.4004 -0.0801 -0.3993
 1202WAT      O 5527   1.102   5.776   7.301 -0.6073  0.3765 -0.6106
 1202WAT     H1 5528   1.138   5.828   7.240 -2.7351  1.6676 -0.8514
 1202WAT     H2 5529   1.145   5.797   7.374  0.7635  0.0934 -1.3010
 1202WAT    EPW 5530   1.114   5.786   7.303 -0.7192  0.5254 -0.7482
 1203WAT      O 5531   4.729   3.484   7.019 -0.0086  0.2524 -0.0810
 1203WAT     H1 5532   4.686   3.410   7.002 -2.2559  1.1230  1.3697
 1203WAT     H2 5533   4.703   3.504   7.100  1.9438  1.7291  0.2561
 1203WAT    EPW 5534   4.719   3.476   7.029 -0.0522  0.5992  0.1831
 1204WAT      O 5535   0.340   4.792   4.253 -0.4533 -0.6054  0.2999
 1204WAT     H1 5536   0.416   4.819   4.220 -1.5550  0.7495 -1.2773
 1204WAT     H2 5537   0.339   4.827   4.333  0.0034  0.5256 -0.1661
 1204WAT    EPW 5538   0.351   4.801   4.260 -0.5486 -0.2382 -0.0019
 1205WAT      O 5539   3.970   4.345   2.287  0.2667 -0.0279 -0.0639
 1205WAT     H1 5540   3.892   4.325   2.255  0.4637 -1.1719  0.1353
 1205WAT     H2 5541   3.952   4.387   2.361 -0.1825  1.9929 -1.2536
 1205WAT    EPW 5542   3.956   4.348   2.293  0.2294  0.1016 -0.2102
 1206WAT      O 5543   4.377   4.386   3.311  0.4652 -0.1936  0.0315
 1206WAT     H1 5544   4.398   4.433   3.381 -1.3614  0.8466 -0.0306
 1206WAT     H2 5545   4.374   4.304   3.340 -1.0237  0.3023  1.4378
 1206WAT    EPW 5546   4.379   4.381   3.325 -0.0246  0.0333  0.2301
 1207WAT      O 5547   6.483   3.773   3.918 -0.5139  0.0711  0.5035
 1207WAT     H1 5548   6.456   3.853   3.897 -2.9867 -0.7646  0.1197
 1207WAT     H2 5549   6.438   3.754   3.990 -0.9898 -1.4149 -0.1355
 1207WAT    EPW 5550   6.472   3.782   3.925 -0.9495 -0.2719  0.3524
 1208WAT      O 5551   0.411   2.513   3.988  0.2396  0.4476 -0.0829
 1208WAT     H1 5552   0.454   2.586   4.010  2.3056 -0.0167 -2.2147
 1208WAT     H2 5553   0.340   2.543   3.947  0.6246  1.2377 -0.1955
 1208WAT    EPW 5554   0.407   2.528   3.985  0.6017  0.4957 -0.4144
 1209WAT      O 5555   2.716   3.121   4.167 -0.0272 -0.2764 -0.4002
 1209WAT     H1 5556   2.771   3.184   4.142  0.3679 -0.7891 -0.8471
 1209WAT     H2 5557   2.692   3.145   4.247  0.3270  0.3021 -0.4623
 1209WAT    EPW 5558   2.721   3.134   4.175  0.0835 -0.2667 -0.4754
 1210WAT      O 5559   1.638   1.809   7.407 -0.0743  0.0362 -0.3376
 1210WAT     H1 5560   1.598   1.819   7.484  1.0314  2.4708  0.0445
 1210WAT     H2 5561   1.665   1.727   7.408  0.5426  0.1825  2.2426
 1210WAT    EPW 5562   1.636   1.799   7.418  0.1802  0.4174  0.1000
 1211WAT      O 5563   1.346   6.796   3.490 -0.2168 -0.5525  0.2924
 1211WAT     H1 5564   1.323   6.829   3.412 -0.7174 -0.3145  0.5331
 1211WAT     H2 5565   1.318   6.714   3.487 -0.3425 -0.5085  0.2671
 1211WAT    EPW 5566   1.338   6.789   3.478 -0.3093 -0.5108  0.3242
 1212WAT      O 5567   1.884   3.802   2.310  0.0580  0.1622 -0.3335
 1212WAT     H1 5568   1.844   3.736   2.270 -0.4981  0.9429 -1.1228
 1212WAT     H2 5569   1.968   3.787   2.295 -0.1676  1.2084 -3.2042
 1212WAT    EPW 5570   1.890   3.790   2.302 -0.0575  0.4321 -0.8741
 1213WAT      O 5571   6.562   3.023   6.454  0.0905  0.2307 -0.7661
 1213WAT     H1 5572   6.529   3.058   6.526 -1.5465 -0.8185 -0.9536
 1213WAT     H2 5573   6.633   3.071   6.438 -0.3390  1.4160  0.6938
 1213WAT    EPW 5574   6.568   3.035   6.462 -0.2147  0.2508 -0.5781
 1214WAT      O 5575   0.507   6.384   0.294 -0.1619 -0.2166 -0.3415
 1214WAT     H1 5576   0.453   6.442   0.330  0.1038 -0.4640  0.4556
 1214WAT     H2 5577   0.531   6.423   0.219  0.4563  0.9464  0.4418
 1214WAT    EPW 5578   0.502   6.398   0.288 -0.0313 -0.0813 -0.1081
 1215WAT      O 5579   1.911   4.713   0.883  0.2958 -0.7707 -0.0920
 1215WAT     H1 5580   1.996   4.712   0.865  0.3416 -0.9613  0.1405
 1215WAT     H2 5581   1.882   4.637   0.852  0.2862 -0.8866  0.1996
 1215WAT    EPW 5582   1.919   4.702   0.876  0.3012 -0.8160 -0.0146
 1216WAT      O 5583   2.313   0.448   1.957  0.2687  0.3441  0.2408
 1216WAT     H1 5584   2.246   0.503   1.962  0.2361  0.4366 -0.8814
 1216WAT     H2 5585   2.296   0.389   2.018 -0.3626  0.8647  0.5860
 1216WAT    EPW 5586   2.301   0.448   1.967  0.1706  0.4347  0.1260
 1217WAT      O 5587   6.044   0.341   4.849 -0.0402 -0.3971 -0.7108
 1217WAT     H1 5588   6.019   0.359   4.931 -1.9633  0.1121 -1.3569
 1217WAT     H2 5589   6.048   0.419   4.811  0.3427 -0.6763 -1.2606
 1217WAT    EPW 5590   6.041   0.355   4.856 -0.2677 -0.3632 -0.8874
 1218WAT      O 5591   6.284   4.225   6.419  0.3182  0.2339  0.4424
 1218WAT     H1 5592   6.302   4.141   6.434 -1.9831 -0.0388  2.2223
 1218WAT     H2 5593   6.356   4.266   6.449  2.1296 -1.0518 -1.8317
 1218WAT    EPW 5594   6.297   4.219   6.426  0.2459  0.0037  0.3694
 1219WAT      O 5595   2.881   0.789   6.420  0.1964 -0.2744  0.2590
 1219WAT     H1 5596   2.938   0.725   6.437  0.3549 -0.1529  0.1815
 1219WAT     H2 5597   2.900   0.813   6.339  0.7791  0.5299  0.6234
 1219WAT    EPW 5598   2.892   0.783   6.411  0.3059 -0.1377  0.3014
 1220WAT      O 5599   0.446   1.683   0.627  0.7506  0.6630  0.5164
 1220WAT     H1 5600   0.527   1.669   0.657  0.7227  1.5779  1.0531
 1220WAT     H2 5601   0.459   1.721   0.549  0.8215 -0.8739 -0.2556
 1220WAT    EPW 5602   0.460   1.686   0.620  0.7569  0.5711  0.4817
 1221WAT      O 5603   6.710   3.928   5.272  0.2626 -0.1680  1.3339
 1221WAT     H1 5604   6.651   3.872   5.242  0.6991 -1.1300  2.2157
 1221WAT     H2 5605   6.671   3.964   5.341  0.7437 -0.9455  2.0350
 1221WAT    EPW 5606   6.695   3.925   5.278  0.3982 -0.4250  1.5678
 1222WAT      O 5607   2.444   1.901   5.336 -0.3948 -0.0332  0.0344
 1222WAT     H1 5608   2.391   1.883   5.403  0.5757  0.1477  0.8571
 1222WAT     H2 5609   2.473   1.981   5.353  0.4883 -0.3006 -0.1883
 1222WAT    EPW 5610   2.440   1.910   5.348 -0.1210 -0.0460  0.1231
 1223WAT      O 5611   6.426   7.182   6.581 -0.5948 -0.2015  0.2322
 1223WAT     H1 5612   6.439   7.197   6.496 -1.4547  0.5154  0.2171
 1223WAT     H2 5613   6.450   7.257   6.619 -1.3807 -0.0792  0.5075
 1223WAT    EPW 5614   6.432   7.195   6.574 -0.8379 -0.0775  0.2707
 1224WAT      O 5615   1.752   1.211   6.628 -0.3721 -0.5124 -0.5389
 1224WAT     H1 5616   1.819   1.154   6.626  0.6779  0.5103  1.6536
 1224WAT     H2 5617   1.687   1.164   6.661  0.2574 -0.6786  0.5071
 1224WAT    EPW 5618   1.752   1.195   6.632 -0.1240 -0.3859 -0.0605
 1225WAT      O 5619   6.370   4.853   1.240  0.4713 -0.3173  0.0306
 1225WAT     H1 5620   6.355   4.819   1.319 -1.6576  2.0191  0.7921
 1225WAT     H2 5621   6.425   4.919   1.257 -0.0549  0.2415 -0.3934
 1225WAT    EPW 5622   6.376   4.858   1.254  0.0791  0.1104  0.0804
 1226WAT      O 5623   0.806   4.580   3.806 -0.7911 -0.2617  0.3195
 1226WAT     H1 5624   0.822   4.497   3.783  2.3902 -0.3806  2.2970
 1226WAT     H2 5625   0.739   4.574   3.861 -0.7238 -1.5202  0.2892
 1226WAT    EPW 5626   0.799   4.567   3.811 -0.3112 -0.4652  0.6071
 1227WAT      O 5627   5.403   6.470   7.252 -0.1010  0.3308 -0.4987
 1227WAT     H1 5628   5.319   6.459   7.274 -0.0787  0.7383 -0.2129
 1227WAT     H2 5629   5.437   6.390   7.265  0.1919  0.8116  2.1976
 1227WAT    EPW 5630   5.395   6.456   7.257 -0.0544  0.4620 -0.0582
 1228WAT      O 5631   2.088   2.542   4.937 -0.0752 -0.1358 -0.2752
 1228WAT     H1 5632   2.118   2.623   4.931 -0.0678 -0.1601 -0.5672
 1228WAT     H2 5633   2.096   2.510   4.856 -1.8716  0.1970 -0.6259
 1228WAT    EPW 5634   2.094   2.549   4.924 -0.3395 -0.0902 -0.3701
 1229WAT      O 5635   1.224   0.702   0.871  0.1534 -0.1673 -0.5426
 1229WAT     H1 5636   1.309   0.681   0.870  0.2800  0.2161  0.4348
 1229WAT     H2 5637   1.187   0.634   0.911  0.3317  0.6184  1.0656
 1229WAT    EPW 5638   1.231   0.689   0.877  0.1985  0.0054 -0.1607
 1230WAT      O 5639   6.186   1.694   3.721 -0.2989  0.0435  0.4044
 1230WAT     H1 5640   6.146   1.618   3.707  0.7844 -0.3720 -0.5905
 1230WAT     H2 5641   6.254   1.673   3.771 -0.5404  0.5199  0.9405
 1230WAT    EPW 5642   6.190   1.680   3.726 -0.1745  0.0525  0.3366
 1231WAT      O 5643   4.847   2.488   0.211 -0.3135  0.3380  0.4646
 1231WAT     H1 5644   4.895   2.553   0.177 -0.6229  0.5610  0.4506
 1231WAT     H2 5645   4.767   2.522   0.215 -0.3402  0.2151  1.1390
 1231WAT    EPW 5646   4.842   2.503   0.207 -0.3631  0.3528  0.5621
 1232WAT      O 5647   4.460   6.818   3.015 -0.3675 -0.7174  0.3196
 1232WAT     H1 5648   4.389   6.790   2.972 -0.0672 -0.3665 -0.4036
 1232WAT     H2 5649   4.430   6.832   3.096 -1.7754  1.9463 -0.5542
 1232WAT    EPW 5650   4.445   6.816   3.021 -0.5311 -0.2721  0.0837
 1233WAT      O 5651   0.368   3.152   0.888  0.1289  0.0677 -0.1430
 1233WAT     H1 5652   0.321   3.225   0.887 -0.6780 -0.4450 -1.3616
 1233WAT     H2 5653   0.317   3.094   0.929 -0.8715 -0.7941 -2.4304
 1233WAT    EPW 5654   0.354   3.154   0.894 -0.1381 -0.1354 -0.6609
 1234WAT      O 5655   0.283   6.810   0.669 -0.0845 -0.2817 -0.2545
 1234WAT     H1 5656   0.345   6.785   0.614 -0.4025 -3.5071  0.6472
 1234WAT     H2 5657   0.324   6.816   0.745 -0.0962  1.9461 -0.3589
 1234WAT    EPW 5658   0.298   6.807   0.672 -0.1332 -0.4291 -0.1367
 1235WAT      O 5659   3.718   1.406   6.926  0.2501  0.2308  0.1300
 1235WAT     H1 5660   3.662   1.399   6.860 -0.6163 -1.4860  0.9645
 1235WAT     H2 5661   3.750   1.486   6.918 -0.8705  0.5545 -1.5397
 1235WAT    EPW 5662   3.714   1.416   6.915 -0.0434  0.0250  0.0066
 1236WAT      O 5663   1.549   2.783   3.368 -0.5583 -0.3556  0.0468
 1236WAT     H1 5664   1.512   2.720   3.415 -1.4376 -0.2179 -0.4233
 1236WAT     H2 5665   1.620   2.745   3.334  0.3147 -0.3438  1.7504
 1236WAT    EPW 5666   1.554   2.768   3.370 -0.5592 -0.3335  0.2290
 1237WAT      O 5667   1.778   4.174   1.617 -0.6140 -0.8320  0.4153
 1237WAT     H1 5668   1.702   4.151   1.581 -0.7443 -1.4378  1.0510
 1237WAT     H2 5669   1.801   4.103   1.662  0.3158 -0.6432  0.2540
 1237WAT    EPW 5670   1.770   4.160   1.618 -0.4959 -0.8936  0.4854
 1238WAT      O 5671   4.690   4.931   5.608 -0.3599  0.8234  0.6099
 1238WAT     H1 5672   4.720   4.881   5.543 -0.0864  3.1988 -1.2263
 1238WAT     H2 5673   4.612   4.897   5.625 -0.0537 -0.4347 -0.2764
 1238WAT    EPW 5674   4.683   4.918   5.601 -0.2743  0.9884  0.2077
 1239WAT      O 5675   6.860   5.591   4.020  0.3109  0.8121  0.6015
 1239WAT     H1 5676   6.835   5.516   4.056 -0.9840  0.1581 -1.4857
 1239WAT     H2 5677   6.837   5.651   4.079 -1.2500 -0.2462  1.1224
 1239WAT    EPW 5678   6.853   5.589   4.034 -0.1110  0.5592  0.3701
 1240WAT      O 5679   3.422   0.562   0.208  0.2189 -0.3751  0.0649
 1240WAT     H1 5680   3.387   0.485   0.187  0.1453 -0.3433  0.0670
 1240WAT     H2 5681   3.402   0.571   0.292 -1.6497  0.5985 -0.4105
 1240WAT    EPW 5682   3.414   0.552   0.217 -0.0680 -0.2266 -0.0050
 1241WAT      O 5683   1.746   6.792   0.178 -0.1645  0.1291 -0.2446
 1241WAT     H1 5684   1.704   6.807   0.103 -1.2075  0.1349  0.3069
 1241WAT     H2 5685   1.685   6.753   0.227  1.0203 -1.4856  0.0094
 1241WAT    EPW 5686   1.731   6.789   0.174 -0.1436 -0.1086 -0.1256
 1242WAT      O 5687   5.819   3.043   0.744 -0.2507 -0.5466 -0.3892
 1242WAT     H1 5688   5.769   3.094   0.794 -0.1600 -0.9441  0.1216
 1242WAT     H2 5689   5.858   3.098   0.689  3.0943  0.6051  2.7552
 1242WAT    EPW 5690   5.817   3.058   0.743  0.2568 -0.4352  0.1507
 1243WAT      O 5691   2.361   6.929   2.024 -0.0028 -0.1840  0.0404
 1243WAT     H1 5692   2.411   6.932   2.095 -1.5325 -0.6972  1.2016
 1243WAT     H2 5693   2.289   6.888   2.051 -1.5083  1.4052 -1.2703
 1243WAT    EPW 5694   2.358   6.923   2.038 -0.4511 -0.0250  0.0183
 1244WAT      O 5695   0.054   5.122   0.900 -0.2504  0.2235  0.7624
 1244WAT     H1 5696   0.009   5.047   0.897 -1.5618  1.0001 -1.0620
 1244WAT     H2 5697   0.066   5.142   0.816  2.4931  0.7268  1.1751
 1244WAT    EPW 5698   0.049   5.114   0.887 -0.0388  0.4126  0.5539
 1245WAT      O 5699   5.532   1.775   5.700 -0.1737  0.4041 -0.2119
 1245WAT     H1 5700   5.490   1.734   5.636 -0.1539  1.4328 -0.9018
 1245WAT     H2 5701   5.510   1.859   5.689  2.1502  1.0226 -0.7223
 1245WAT    EPW 5702   5.523   1.781   5.689  0.1725  0.6475 -0.3892
 1246WAT      O 5703   4.690   4.511   5.327 -0.5634 -0.1852  0.3707
 1246WAT     H1 5704   4.704   4.516   5.241 -0.0906 -1.5058  0.3588
 1246WAT     H2 5705   4.689   4.595   5.352  1.8256  0.1775 -0.5247
 1246WAT    EPW 5706   4.692   4.524   5.318 -0.1407 -0.3267  0.2367
 1247WAT      O 5707   6.626   0.069   4.080  0.2345 -0.1473  0.2842
 1247WAT     H1 5708   6.617   0.147   4.041  1.6726 -0.0743  0.0273
 1247WAT     H2 5709   6.709   0.069   4.106 -0.6509 -0.1512  3.5586
 1247WAT    EPW 5710   6.637   0.080   4.078  0.3161 -0.1371  0.7300
 1248WAT      O 5711   2.940   1.608   3.474  0.3082 -0.5755 -0.4469
 1248WAT     H1 5712   2.991   1.625   3.405  0.8818 -2.0932 -0.4418
 1248WAT     H2 5713   2.925   1.686   3.508  0.9610  0.0983 -1.6362
 1248WAT    EPW 5714   2.945   1.622   3.469  0.4894 -0.7001 -0.6218
 1249WAT      O 5715   6.501   6.509   1.874 -0.0873  0.1176 -0.1604
 1249WAT     H1 5716   6.470   6.561   1.811 -1.1093 -0.2323  0.0256
 1249WAT     H2 5717   6.584   6.534   1.883 -0.1044  0.5879 -1.2149
 1249WAT    EPW 5718   6.508   6.521   1.866 -0.2408  0.1354 -0.2887
 1250WAT      O 5719   4.608   0.886   4.998  0.1345 -0.2159  0.0958
 1250WAT     H1 5720   4.693   0.906   4.991  0.1651  0.3400  1.5768
 1250WAT     H2 5721   4.568   0.961   4.980 -0.0921 -0.5981 -1.0815
 1250WAT    EPW 5722   4.615   0.900   4.994  0.1055 -0.1902  0.1407
 1251WAT      O 5723   5.807   4.574   6.480  0.3800  0.1258  0.2319
 1251WAT     H1 5724   5.797   4.531   6.556  1.5728  0.2631  0.4827
 1251WAT     H2 5725   5.888   4.555   6.456 -0.0314 -0.0402 -1.1119
 1251WAT    EPW 5726   5.817   4.565   6.488  0.4954  0.1215  0.0705
 1252WAT      O 5727   5.561   1.942   5.230 -0.1466  0.0910 -0.4754
 1252WAT     H1 5728   5.493   1.953   5.177 -2.2955 -0.8411  1.8626
 1252WAT     H2 5729   5.620   1.999   5.202 -2.0304  1.1808 -2.4190
 1252WAT    EPW 5730   5.560   1.952   5.218 -0.7424  0.1143 -0.4171
 1253WAT      O 5731   0.018   5.663   1.777 -0.0723 -0.1963  0.1387
 1253WAT     H1 5732   0.036   5.581   1.802 -0.9795 -0.2586  0.6377
 1253WAT     H2 5733  -0.069   5.664   1.772 -0.4436  1.6828  3.7223
 1253WAT    EPW 5734   0.008   5.651   1.780 -0.2612  0.0721  0.7418
 1254WAT      O 5735  -0.001   1.078   3.663  0.1953  0.5254  0.3317
 1254WAT     H1 5736   0.075   1.094   3.703  0.0387 -0.8243  1.2579
 1254WAT     H2 5737  -0.039   1.156   3.659  1.0249  0.9916  1.1674
 1254WAT    EPW 5738   0.005   1.092   3.669  0.2947  0.3949  0.5920
 1255WAT      O 5739   7.130   4.488   5.908 -0.3051  0.3369 -0.0072
 1255WAT     H1 5740   7.065   4.449   5.864 -1.1593  0.5875  0.9942
 1255WAT     H2 5741   7.171   4.535   5.846 -0.6168 -0.3966 -0.7955
 1255WAT    EPW 5742   7.126   4.489   5.892 -0.4773  0.2656  0.0242
 1256WAT      O 5743   2.378   2.544   0.977  0.0151 -0.1242 -0.5481
 1256WAT     H1 5744   2.421   2.537   1.052  0.0356 -2.6703 -0.7296
 1256WAT     H2 5745   2.423   2.605   0.933  1.7065 -0.6484  0.3931
 1256WAT    EPW 5746   2.391   2.552   0.981  0.2680 -0.5777 -0.4359
 1257WAT      O 5747   0.009   4.295   1.165 -0.0171 -0.2970  0.5746
 1257WAT     H1 5748  -0.001   4.378   1.141 -1.0915 -0.7162 -0.5047
 1257WAT     H2 5749  -0.026   4.292   1.245  0.6934  0.4274  0.9232
 1257WAT    EPW 5750   0.002   4.307   1.173 -0.0708 -0.2519  0.4666
 1258WAT      O 5751   4.335   0.048   5.629 -0.2323  0.0388  0.0142
 1258WAT     H1 5752   4.286   0.035   5.699 -0.0709  0.7569  0.2677
 1258WAT     H2 5753   4.387   0.115   5.652 -0.2547  0.3538 -0.8233
 1258WAT    EPW 5754   4.336   0.056   5.643 -0.2117  0.1914 -0.0720
 1259WAT      O 5755   4.241   6.408   1.969 -0.1135  0.0226 -0.1399
 1259WAT     H1 5756   4.322   6.412   1.935 -0.1966  0.8189 -0.2707
 1259WAT     H2 5757   4.254   6.385   2.052  0.1260 -1.5497 -0.5879
 1259WAT    EPW 5758   4.255   6.405   1.976 -0.0904 -0.0920 -0.2254
 1260WAT      O 5759   3.008   0.638   5.095  0.0848  0.3769  0.2841
 1260WAT     H1 5760   3.094   0.644   5.108  0.0554 -2.1889  2.8613
 1260WAT     H2 5761   2.994   0.687   5.025  3.3268  2.4456  0.8595
 1260WAT    EPW 5762   3.018   0.646   5.087  0.5594  0.3035  0.7498
 1261WAT      O 5763   0.492   5.786   4.545 -0.1874  0.5337  0.2276
 1261WAT     H1 5764   0.457   5.707   4.559  1.4978 -0.4101 -0.5009
 1261WAT     H2 5765   0.460   5.835   4.609  0.6981 -1.4057  2.2808
 1261WAT    EPW 5766   0.482   5.782   4.556  0.1923  0.1078  0.4233
 1262WAT      O 5767   0.091   3.939   7.365  0.0598  0.4670  0.1289
 1262WAT     H1 5768   0.043   3.934   7.292  0.1853 -0.0300  0.0740
 1262WAT     H2 5769   0.053   4.003   7.410  0.5492  1.4156 -0.7850
 1262WAT    EPW 5770   0.078   3.948   7.360  0.1506  0.5337 -0.0142
 1263WAT      O 5771   4.600   2.624   2.262 -0.4801  0.0698 -0.1025
 1263WAT     H1 5772   4.586   2.567   2.326  0.2829  0.1821  0.1805
 1263WAT     H2 5773   4.612   2.574   2.192  0.4917 -0.1518  0.2036
 1263WAT    EPW 5774   4.600   2.608   2.261 -0.2239  0.0536 -0.0155
 1264WAT      O 5775   5.134   2.478   4.020  0.6462 -0.4671  0.4630
 1264WAT     H1 5776   5.061   2.477   4.067  0.5807 -0.2436  0.3672
 1264WAT     H2 5777   5.169   2.556   4.039  1.4085 -1.0075  1.3562
 1264WAT    EPW 5778   5.129   2.489   4.030  0.7492 -0.5139  0.5808
 1265WAT      O 5779   1.944   4.969   0.534 -0.1612  0.1871  0.2954
 1265WAT     H1 5780   2.017   4.992   0.493  0.4258  0.0187  1.2287
 1265WAT     H2 5781   1.881   5.002   0.484  0.4884 -0.8402 -1.2753
 1265WAT    EPW 5782   1.945   4.977   0.521  0.0215  0.0105  0.2012
 1266WAT      O 5783   6.137   1.770   4.145 -0.0104 -0.2995 -0.3754
 1266WAT     H1 5784   6.172   1.725   4.211  0.3771  1.6443  0.8285
 1266WAT     H2 5785   6.053   1.749   4.148  0.6012 -3.9113 -2.3790
 1266WAT    EPW 5786   6.130   1.760   4.155  0.1372 -0.5459 -0.4935
 1267WAT      O 5787   5.818   4.859   6.808 -0.5567 -0.0393  0.0826
 1267WAT     H1 5788   5.745   4.905   6.796 -2.0333 -2.1548  0.2408
 1267WAT     H2 5789   5.801   4.784   6.767  1.4796 -0.6652  0.2921
 1267WAT    EPW 5790   5.804   4.854   6.800 -0.4741 -0.4443  0.1369
 1268WAT      O 5791   6.523   6.734   2.329  0.7542 -0.2357 -0.4014
 1268WAT     H1 5792   6.536   6.812   2.365  0.0637  0.3264 -1.3081
 1268WAT     H2 5793   6.437   6.730   2.318  0.7920 -1.0699 -0.4873
 1268WAT    EPW 5794   6.513   6.745   2.333  0.6578 -0.2759 -0.5480
 1269WAT      O 5795   1.287   2.497   2.731  0.0322 -0.5398 -0.1850
 1269WAT     H1 5796   1.224   2.438   2.743 -0.4582 -0.0143 -0.0991
 1269WAT     H2 5797   1.250   2.554   2.675 -0.4281  0.9859  1.5710
 1269WAT    EPW 5798   1.272   2.497   2.724 -0.1082 -0.2368  0.0871
 1270WAT      O 5799   6.616   6.353   1.675 -0.0551 -0.2228  0.3493
 1270WAT     H1 5800   6.655   6.294   1.726  2.4764  1.5156  0.6285
 1270WAT     H2 5801   6.551   6.383   1.725  1.6910  0.6640  2.2515
 1270WAT    EPW 5802   6.612   6.349   1.690  0.5768  0.1650  0.6715
 1271WAT      O 5803   1.191   3.242   0.616 -0.2924  0.2472  0.2445
 1271WAT     H1 5804   1.254   3.259   0.557 -0.7959  0.0125 -0.3761
 1271WAT     H2 5805   1.125   3.292   0.589 -0.5580  0.0652  0.5589
 1271WAT    EPW 5806   1.190   3.252   0.603 -0.4060  0.1857  0.1993
 1272WAT      O 5807   1.318   4.920   5.207 -0.6591 -0.6464 -0.1428
 1272WAT     H1 5808   1.320   5.007   5.208 -0.2378 -0.6376 -0.8628
 1272WAT     H2 5809   1.386   4.898   5.157 -0.5832 -1.4024  0.2666
 1272WAT    EPW 5810   1.328   4.929   5.200 -0.5856 -0.7568 -0.1887
 1273WAT      O 5811   0.306   0.598   1.730 -0.2739 -0.4792 -0.3431
 1273WAT     H1 5812   0.334   0.655   1.670  1.0468 -0.1074  0.5953
 1273WAT     H2 5813   0.286   0.527   1.683 -2.7688  0.9303 -1.6621
 1273WAT    EPW 5814   0.307   0.596   1.714 -0.4473 -0.2161 -0.3993
 1274WAT      O 5815   6.881   3.719   7.300  1.0301  0.5291  0.1805
 1274WAT     H1 5816   6.888   3.748   7.382 -1.3477 -0.7517  0.9349
 1274WAT     H2 5817   6.940   3.655   7.296  0.0801 -0.4951  1.5025
 1274WAT    EPW 5818   6.890   3.714   7.311  0.5385  0.1886  0.4872
 1275WAT      O 5819   1.643   2.027   6.927  0.5588 -0.3822  0.0216
 1275WAT     H1 5820   1.591   1.958   6.938 -0.4585  0.5888  1.8930
 1275WAT     H2 5821   1.683   2.035   7.005  1.1358  0.7512 -0.3617
 1275WAT    EPW 5822   1.641   2.018   6.940  0.4938 -0.0713  0.2414
 1276WAT      O 5823   2.196   2.633   4.064 -0.4276 -0.6055  0.1928
 1276WAT     H1 5824   2.144   2.693   4.100  1.0698  0.2660  1.0325
 1276WAT     H2 5825   2.199   2.657   3.980 -1.1080 -0.4692  0.2044
 1276WAT    EPW 5826   2.189   2.646   4.057 -0.3069 -0.4566  0.3186
 1277WAT      O 5827   6.373   3.857   1.326  0.2406 -0.2029  0.6416
 1277WAT     H1 5828   6.447   3.811   1.333  1.2299  1.4518  1.8640
 1277WAT     H2 5829   6.367   3.874   1.241  2.4978  1.3913  0.7004
 1277WAT    EPW 5830   6.383   3.853   1.315  0.7202  0.2770  0.8308
 1278WAT      O 5831   0.408   2.304   5.486 -0.0194  0.0384 -0.0752
 1278WAT     H1 5832   0.353   2.236   5.497 -0.5546  0.8235  2.8475
 1278WAT     H2 5833   0.426   2.301   5.401 -0.5741 -3.3392 -0.2305
 1278WAT    EPW 5834   0.402   2.293   5.475 -0.1804 -0.3446  0.3336
 1279WAT      O 5835   2.837   3.407   1.588  0.0701  0.2208  0.0490
 1279WAT     H1 5836   2.835   3.378   1.670  0.6692 -1.9545 -0.6625
 1279WAT     H2 5837   2.922   3.416   1.571 -0.0230 -0.0739 -0.5881
 1279WAT    EPW 5838   2.849   3.404   1.598  0.1448 -0.1441 -0.1502
 1280WAT      O 5839   0.492   3.508   0.874 -0.2213  0.1431  0.0624
 1280WAT     H1 5840   0.505   3.524   0.789 -1.0917 -1.3473 -0.3976
 1280WAT     H2 5841   0.474   3.586   0.908  0.6472  0.8434 -1.0140
 1280WAT    EPW 5842   0.492   3.522   0.866 -0.2216  0.0264 -0.1645
 1281WAT      O 5843   2.890   3.258   1.150 -0.3547  0.2224  0.2959
 1281WAT     H1 5844   2.846   3.239   1.223 -1.7894  2.3782  0.0776
 1281WAT     H2 5845   2.850   3.210   1.089 -1.0545  0.5587  0.4744
 1281WAT    EPW 5846   2.877   3.248   1.152 -0.6700  0.5905  0.2901
 1282WAT      O 5847   4.711   3.022   2.603  0.7612  0.2589 -0.0400
 1282WAT     H1 5848   4.681   3.086   2.551 -1.3222 -0.0838  0.6220
 1282WAT     H2 5849   4.740   3.064   2.673  0.3553  0.5412 -0.0402
 1282WAT    EPW 5850   4.711   3.038   2.606  0.3935  0.2499  0.0578
 1283WAT      O 5851   2.753   6.218   1.319 -0.1808 -0.4251  0.3687
 1283WAT     H1 5852   2.729   6.177   1.246 -0.2012  1.4079 -0.7287
 1283WAT     H2 5853   2.838   6.234   1.306 -0.0837 -0.4693  0.9443
 1283WAT    EPW 5854   2.762   6.215   1.306 -0.1695 -0.1609  0.2916
 1284WAT      O 5855   5.250   2.659   3.485  0.3506 -0.1461 -0.5194
 1284WAT     H1 5856   5.299   2.716   3.440  1.9482 -0.9438  0.1383
 1284WAT     H2 5857   5.172   2.699   3.490  0.7827  0.9831 -1.9599
 1284WAT    EPW 5858   5.245   2.673   3.479  0.6505 -0.0971 -0.6351
 1285WAT      O 5859   2.680   6.097   7.006 -0.1044  0.1422 -0.3363
 1285WAT     H1 5860   2.751   6.130   6.967 -0.6260  0.2393 -1.2281
 1285WAT     H2 5861   2.622   6.090   6.941  0.3045 -3.5785 -0.5024
 1285WAT    EPW 5862   2.682   6.101   6.991 -0.1211 -0.3931 -0.4926
 1286WAT      O 5863   5.162   2.299   5.999  0.1571 -0.0091  0.6845
 1286WAT     H1 5864   5.195   2.248   5.935 -0.3932 -2.1740  2.0186
 1286WAT     H2 5865   5.092   2.335   5.962 -0.9723 -2.3136  0.3659
 1286WAT    EPW 5866   5.157   2.297   5.984 -0.0910 -0.6693  0.8345
 1287WAT      O 5867   0.243   7.057   4.804  0.1288  0.3732  0.5949
 1287WAT     H1 5868   0.164   7.049   4.767  0.5930  1.2318 -0.6509
 1287WAT     H2 5869   0.295   7.012   4.750  0.9964  2.5488 -0.5057
 1287WAT    EPW 5870   0.239   7.049   4.790  0.3255  0.8214  0.2483
 1288WAT      O 5871   0.047   5.369   6.127 -0.2592 -0.3312 -0.5669
 1288WAT     H1 5872  -0.021   5.424   6.125 -1.0513 -1.2980 -0.9643
 1288WAT     H2 5873   0.089   5.391   6.200 -0.8506  0.4626 -0.4561
 1288WAT    EPW 5874   0.043   5.380   6.137 -0.4636 -0.3567 -0.6093
 1289WAT      O 5875   6.984   6.365   5.673 -0.0647 -0.1047  0.2239
 1289WAT     H1 5876   6.914   6.314   5.683 -1.6220  1.6945 -0.7294
 1289WAT     H2 5877   6.994   6.366   5.586  1.9925 -1.3252  0.3930
 1289WAT    EPW 5878   6.975   6.357   5.661  0.0092 -0.0192  0.1081
 1290WAT      O 5879   0.506   3.607   2.535  0.0109  0.0547 -0.2098
 1290WAT     H1 5880   0.459   3.586   2.606  1.3038 -0.1158  0.6347
 1290WAT     H2 5881   0.455   3.582   2.469  0.2077 -3.2236  0.6784
 1290WAT    EPW 5882   0.492   3.600   2.536  0.2309 -0.4548  0.0461
 1291WAT      O 5883   1.606   7.154   0.252 -0.7076 -0.3269 -0.4176
 1291WAT     H1 5884   1.671   7.211   0.247  1.4708 -2.5040  0.8055
 1291WAT     H2 5885   1.564   7.176   0.325  2.2937 -2.1607  2.1208
 1291WAT    EPW 5886   1.609   7.166   0.262  0.0576 -0.9194  0.1380
 1292WAT      O 5887   4.853   2.077   3.197 -0.1608 -0.2314 -0.2199
 1292WAT     H1 5888   4.891   2.150   3.168  0.4020  0.3461  1.7935
 1292WAT     H2 5889   4.919   2.019   3.198  0.6018  0.5585  2.5358
 1292WAT    EPW 5890   4.869   2.079   3.193  0.0350 -0.0294  0.4846
 1293WAT      O 5891   4.708   5.011   0.811 -0.3616  0.4389 -0.1974
 1293WAT     H1 5892   4.655   4.985   0.747  0.1849 -0.8308 -0.1621
 1293WAT     H2 5893   4.778   4.960   0.802 -0.3684  0.0630  1.5461
 1293WAT    EPW 5894   4.710   4.999   0.800 -0.2819  0.1958  0.0654
 1294WAT      O 5895   6.116   5.709   3.835  0.4846 -0.5978 -0.3064
 1294WAT     H1 5896   6.094   5.782   3.792 -0.5240 -1.4220 -1.2622
 1294WAT     H2 5897   6.062   5.649   3.802  0.3710 -1.5038  1.4093
 1294WAT    EPW 5898   6.105   5.711   3.824  0.3188 -0.8534 -0.1941
 1295WAT      O 5899   2.652   6.356   1.806 -0.1053  0.4957  0.0891
 1295WAT     H1 5900   2.732   6.377   1.780  0.5991 -2.7638 -0.8252
 1295WAT     H2 5901   2.619   6.312   1.738 -3.1607  2.6103  0.0059
 1295WAT    EPW 5902   2.659   6.353   1.792 -0.4526  0.3266 -0.0582
 1296WAT      O 5903   6.754   2.569   2.547 -0.1411  0.2688  0.4646
 1296WAT     H1 5904   6.813   2.629   2.522 -0.3106 -0.2895 -1.3992
 1296WAT     H2 5905   6.713   2.607   2.614  2.7437  0.4337  2.3054
 1296WAT    EPW 5906   6.757   2.584   2.554  0.2600  0.2107  0.4612
 1297WAT      O 5907   0.845   6.952   2.645 -0.1015  0.4511 -0.2259
 1297WAT     H1 5908   0.766   6.933   2.677  0.6516 -0.3609  1.2492
 1297WAT     H2 5909   0.863   6.885   2.593 -0.4048  0.6679 -0.6129
 1297WAT    EPW 5910   0.836   6.939   2.642 -0.0350  0.3632 -0.0652
 1298WAT      O 5911   4.504   4.501   3.553 -0.1048  0.1656  0.0722
 1298WAT     H1 5912   4.587   4.476   3.567 -0.3986 -1.4416 -0.7095
 1298WAT     H2 5913   4.512   4.573   3.505  0.8311  0.8182  1.1687
 1298WAT    EPW 5914   4.517   4.508   3.548 -0.0100  0.0246  0.1187
 1299WAT      O 5915   6.266   3.271   0.369 -0.0777  0.0127 -0.2063
 1299WAT     H1 5916   6.353   3.270   0.360 -0.0126  0.7938  0.2647
 1299WAT     H2 5917   6.243   3.349   0.337 -0.7833 -0.7883 -1.7580
 1299WAT    EPW 5918   6.275   3.283   0.363 -0.1723  0.0098 -0.3660
 1300WAT      O 5919   5.428   5.094   5.095 -0.0886  0.1089  0.5068
 1300WAT     H1 5920   5.430   5.166   5.045  1.7719  0.0209  0.3848
 1300WAT     H2 5921   5.357   5.106   5.145 -0.1745  1.7345  0.0737
 1300WAT    EPW 5922   5.418   5.107   5.095  0.1735  0.3360  0.4248
 1301WAT      O 5923   5.116   4.292   3.428  0.0604 -0.0120 -0.0978
 1301WAT     H1 5924   5.203   4.298   3.430  0.1336 -1.0796  0.6579
 1301WAT     H2 5925   5.091   4.337   3.498 -0.0015  0.3647 -0.3619
 1301WAT    EPW 5926   5.126   4.299   3.439  0.0621 -0.1141 -0.0251
 1302WAT      O 5927   4.069   3.914   0.016 -0.1352 -0.1819 -0.0272
 1302WAT     H1 5928   3.999   3.862   0.024 -0.4403  0.2886  0.4316
 1302WAT     H2 5929   4.115   3.877  -0.047 -0.0957 -1.3086  0.6340
 1302WAT    EPW 5930   4.065   3.901   0.008 -0.1745 -0.2788  0.1382
 1303WAT      O 5931   4.560   0.373   2.258  0.5944 -0.0979 -0.2675
 1303WAT     H1 5932   4.544   0.421   2.187  0.9298 -3.3297 -2.7635
 1303WAT     H2 5933   4.645   0.388   2.274  0.3406  1.2059 -0.0316
 1303WAT    EPW 5934   4.570   0.382   2.250  0.6064 -0.3827 -0.6014
 1304WAT      O 5935   3.150   7.015   5.556  0.0500 -0.3464 -0.1995
 1304WAT     H1 5936   3.072   7.008   5.516  0.8664 -0.9322 -1.7937
 1304WAT     H2 5937   3.140   7.085   5.607 -2.0206 -1.3481  0.9207
 1304WAT    EPW 5938   3.137   7.024   5.557 -0.1353 -0.5809 -0.2695
 1305WAT      O 5939   1.069   1.596   0.734  0.2195  1.1311  0.8363
 1305WAT     H1 5940   1.075   1.666   0.787 -0.9866  1.0066  1.1706
 1305WAT     H2 5941   1.054   1.530   0.789  1.3777  0.5769  0.5232
 1305WAT    EPW 5942   1.067   1.597   0.750  0.2124  1.0309  0.8394
 1306WAT      O 5943   2.598   5.588   4.174 -0.3268 -0.2728  0.4052
 1306WAT     H1 5944   2.525   5.596   4.128 -0.2442  0.9921  0.4548
 1306WAT     H2 5945   2.571   5.582   4.256 -0.3693  2.0315  0.6203
 1306WAT    EPW 5946   2.583   5.588   4.179 -0.3209  0.2545  0.4443
 1307WAT      O 5947   5.178   3.280   5.604 -0.0723  0.0594 -0.4573
 1307WAT     H1 5948   5.127   3.343   5.571 -0.3459  0.2588  0.3222
 1307WAT     H2 5949   5.122   3.217   5.626  0.0022  0.2919  0.4311
 1307WAT    EPW 5950   5.162   3.280   5.602 -0.1017  0.1232 -0.2110
 1308WAT      O 5951   6.882   6.515   6.514 -0.0357  0.3645  0.5425
 1308WAT     H1 5952   6.825   6.558   6.463  0.4489  0.6408  0.2251
 1308WAT     H2 5953   6.918   6.457   6.460  0.4627  0.6409  0.5700
 1308WAT    EPW 5954   6.879   6.513   6.499  0.1095  0.4462  0.4997
 1309WAT      O 5955   2.770   1.609   1.517  0.3494  0.2055 -0.6926
 1309WAT     H1 5956   2.709   1.668   1.498 -0.0550  0.5364  1.4335
 1309WAT     H2 5957   2.788   1.624   1.601  0.4110 -2.5218 -0.1295
 1309WAT    EPW 5958   2.764   1.620   1.526  0.2987 -0.1485 -0.2953
 1310WAT      O 5959   0.127   5.116   0.225 -0.2244 -0.2712 -0.9325
 1310WAT     H1 5960   0.084   5.056   0.271 -0.8931  0.9038  0.0415
 1310WAT     H2 5961   0.065   5.174   0.203  0.8731  1.8119  1.0591
 1310WAT    EPW 5962   0.111   5.116   0.228 -0.1610  0.2101 -0.4944
 1311WAT      O 5963   2.825   4.588   1.141  0.4394  0.3864 -0.2847
 1311WAT     H1 5964   2.837   4.666   1.105  1.2458 -0.2671 -1.4899
 1311WAT     H2 5965   2.817   4.534   1.073  0.8130 -0.7120  0.4969
 1311WAT    EPW 5966   2.826   4.592   1.126  0.6137  0.1276 -0.3473
 1312WAT      O 5967   5.138   0.873   5.071 -0.9279 -0.0184  0.1812
 1312WAT     H1 5968   5.186   0.919   5.128 -1.7762  0.3176  0.6392
 1312WAT     H2 5969   5.176   0.794   5.072  1.0166  0.8003 -1.1735
 1312WAT    EPW 5970   5.151   0.868   5.080 -0.7660  0.1522  0.0487
 1313WAT      O 5971   0.142   1.544   2.165  0.1452  0.5924 -0.1280
 1313WAT     H1 5972   0.181   1.553   2.243 -1.2910  0.4114  0.6369
 1313WAT     H2 5973   0.207   1.560   2.109  1.6046 -0.6781  1.0583
 1313WAT    EPW 5974   0.158   1.547   2.169  0.1486  0.3780  0.1602
 1314WAT      O 5975   7.132   5.076   7.188  0.5728  0.1400 -0.2973
 1314WAT     H1 5976   7.155   5.153   7.221  1.1472  0.1939 -0.7938
 1314WAT     H2 5977   7.164   5.079   7.107  1.5634 -1.0449  0.0257
 1314WAT    EPW 5978   7.140   5.088   7.181  0.8040 -0.0271 -0.3230
 1315WAT      O 5979   5.089   2.629   6.314  0.4111 -0.0455 -0.5493
 1315WAT     H1 5980   5.087   2.696   6.369  1.4655 -0.7137  0.3395
 1315WAT     H2 5981   5.121   2.664   6.241 -1.8582  1.0465 -1.1041
 1315WAT    EPW 5982   5.093   2.644   6.311  0.2317  0.0171 -0.4999
 1316WAT      O 5983   2.848   5.701   4.122  0.5548 -0.5517  0.3151
 1316WAT     H1 5984   2.862   5.738   4.044  0.1647 -0.6709  0.1869
 1316WAT     H2 5985   2.776   5.655   4.110  0.2514 -0.2356  0.8675
 1316WAT    EPW 5986   2.840   5.700   4.109  0.4524 -0.5226  0.3777
 1317WAT      O 5987   1.598   4.194   6.770  0.5992 -0.1567 -0.1026
 1317WAT     H1 5988   1.540   4.218   6.709  0.3019  0.8490  0.5674
 1317WAT     H2 5989   1.550   4.149   6.827  0.9670 -1.5319 -0.8242
 1317WAT    EPW 5990   1.582   4.191   6.769  0.6096 -0.2113 -0.1102
 1318WAT      O 5991   1.260   3.530   4.503  0.3517 -0.1950  0.4435
 1318WAT     H1 5992   1.338   3.534   4.463  1.0604  0.4427  1.8429
 1318WAT     H2 5993   1.227   3.454   4.475  1.2362 -0.2204 -0.5893
 1318WAT    EPW 5994   1.267   3.519   4.493  0.5870 -0.1045  0.4977
 1319WAT      O 5995   0.456   2.792   5.947  0.3861  0.1626  0.3644
 1319WAT     H1 5996   0.398   2.753   5.895 -2.7405  1.4828  2.5581
 1319WAT     H2 5997   0.449   2.877   5.926 -0.3162  0.6168  2.2207
 1319WAT    EPW 5998   0.446   2.799   5.937 -0.1795  0.4247  0.9627
 1320WAT      O 5999   5.702   0.309   3.991  0.6172  0.5420  0.0607
 1320WAT     H1 6000   5.622   0.307   3.956  0.9561 -0.3266 -0.6955
 1320WAT     H2 6001   5.704   0.385   4.034  0.4489  2.0740 -2.4483
 1320WAT    EPW 6002   5.690   0.320   3.992  0.6424  0.6400 -0.4217
 1321WAT      O 6003   0.497   3.868   4.230 -0.1946 -0.6428  0.4811
 1321WAT     H1 6004   0.534   3.904   4.300 -1.1876 -1.9798  1.7627
 1321WAT     H2 6005   0.546   3.797   4.215 -1.3461 -1.6813  1.3624
 1321WAT    EPW 6006   0.510   3.862   4.238 -0.5114 -0.9937  0.8006
 1322WAT      O 6007   5.273   6.428   2.829 -0.6153 -0.3386 -0.6660
 1322WAT     H1 6008   5.290   6.513   2.843 -0.3282 -0.3190 -1.1442
 1322WAT     H2 6009   5.189   6.428   2.804 -0.2262 -0.0434 -2.0441
 1322WAT    EPW 6010   5.263   6.441   2.828 -0.5154 -0.2921 -0.9402
 1323WAT      O 6011   4.592   1.057   5.661  0.1317  0.2444  0.4661
 1323WAT     H1 6012   4.583   0.983   5.616 -1.3427  0.6990 -0.0563
 1323WAT     H2 6013   4.659   1.096   5.622 -0.5161  0.1932 -0.7520
 1323WAT    EPW 6014   4.600   1.052   5.649 -0.1818  0.3040  0.2090
 1324WAT      O 6015   0.472   2.937   6.686  0.1613  0.5355  0.4221
 1324WAT     H1 6016   0.471   2.915   6.771 -0.1232 -0.4186  0.1792
 1324WAT     H2 6017   0.536   2.888   6.654 -0.0221  0.5759 -0.0036
 1324WAT    EPW 6018   0.482   2.927   6.694  0.0922  0.4005  0.3233
 1325WAT      O 6019   3.877   1.566   3.101  0.1562 -0.0202 -0.3506
 1325WAT     H1 6020   3.927   1.498   3.076  0.6334 -0.0932  0.7661
 1325WAT     H2 6021   3.876   1.617   3.030  1.0839 -0.4575 -0.7024
 1325WAT    EPW 6022   3.884   1.563   3.087  0.3637 -0.0956 -0.2376
 1326WAT      O 6023   6.645   3.460   5.825  0.5821 -0.4726 -0.3781
 1326WAT     H1 6024   6.564   3.465   5.793  0.5242  0.3948 -0.1260
 1326WAT     H2 6025   6.680   3.537   5.803  1.1039 -0.5603  0.1252
 1326WAT    EPW 6026   6.638   3.472   5.817  0.6506 -0.3574 -0.2665
 1327WAT      O 6027   5.709   2.088   4.061  0.6105  0.2416  0.1533
 1327WAT     H1 6028   5.723   2.042   4.134  0.7416 -0.4219 -0.2834
 1327WAT     H2 6029   5.680   2.165   4.090  2.6363  0.7600  1.0012
 1327WAT    EPW 6030   5.707   2.093   4.076  0.9291  0.2201  0.2140
 1328WAT      O 6031   2.736   3.673   2.032  0.1225 -0.1363 -0.0599
 1328WAT     H1 6032   2.671   3.630   1.993 -0.1260  1.4062 -1.4587
 1328WAT     H2 6033   2.719   3.757   2.015  2.0829  0.3550  0.1291
 1328WAT    EPW 6034   2.724   3.679   2.023  0.3754  0.1641 -0.2386
 1329WAT      O 6035   2.967   6.653   5.302 -0.2719  0.2551 -0.1424
 1329WAT     H1 6036   2.926   6.711   5.353 -0.9029  1.3493 -1.7944
 1329WAT     H2 6037   2.954   6.684   5.221  0.3029 -1.6337 -1.0228
 1329WAT    EPW 6038   2.959   6.667   5.298 -0.2802  0.1377 -0.5165
 1330WAT      O 6039   6.958   2.337   6.683  0.2241  0.1045  0.0302
 1330WAT     H1 6040   6.924   2.259   6.705  0.0871  0.3391  0.6779
 1330WAT     H2 6041   6.926   2.391   6.743  1.2345  0.4507  0.2758
 1330WAT    EPW 6042   6.949   2.333   6.695  0.3531  0.1903  0.1622
 1331WAT      O 6043   5.852   3.660   1.188 -0.2335  0.4613 -0.3271
 1331WAT     H1 6044   5.875   3.733   1.145 -0.9615  0.2066 -1.1862
 1331WAT     H2 6045   5.894   3.667   1.264  2.1754  0.3193 -1.5278
 1331WAT    EPW 6046   5.862   3.672   1.193  0.0148  0.4027 -0.6314
 1332WAT      O 6047   3.243   5.383   7.005 -0.1377  0.8375 -0.9928
 1332WAT     H1 6048   3.320   5.391   6.965  0.0893 -0.2925 -0.8106
 1332WAT     H2 6049   3.214   5.305   6.980 -1.0031  1.0428 -0.6715
 1332WAT    EPW 6050   3.250   5.373   6.996 -0.2320  0.7009 -0.9184
 1333WAT      O 6051   3.720   5.855   3.454 -0.3672  0.2296  0.1847
 1333WAT     H1 6052   3.768   5.782   3.452  1.1505  1.1527  1.0285
 1333WAT     H2 6053   3.641   5.829   3.427 -0.1474 -1.9377  1.4402
 1333WAT    EPW 6054   3.715   5.841   3.450 -0.1105  0.0458  0.4948
 1334WAT      O 6055   5.731   1.457   0.206  0.1680 -0.2698  0.4835
 1334WAT     H1 6056   5.646   1.474   0.213  0.2014  0.0027  0.2572
 1334WAT     H2 6057   5.750   1.417   0.281  0.3833  1.9542  1.7160
 1334WAT    EPW 6058   5.721   1.454   0.218  0.2048  0.0990  0.6322
 1335WAT      O 6059   1.063   4.928   4.250 -0.5806  0.0228  0.0015
 1335WAT     H1 6060   1.082   4.872   4.314  0.4369  0.7465  0.3549
 1335WAT     H2 6061   0.978   4.915   4.236 -0.7061 -0.4817  1.1629
 1335WAT    EPW 6062   1.053   4.917   4.257 -0.4488  0.0552  0.2252
 1336WAT      O 6063   0.316   7.032   5.086  0.1509 -0.3063  0.7103
 1336WAT     H1 6064   0.269   7.034   5.013 -0.1942  0.4768  0.9476
 1336WAT     H2 6065   0.380   7.090   5.071  0.0641 -0.1237  1.0404
 1336WAT    EPW 6066   0.319   7.041   5.073  0.0871 -0.1636  0.7941
 1337WAT      O 6067   3.032   1.170   4.605 -0.3173  0.4881 -0.3160
 1337WAT     H1 6068   3.036   1.223   4.535  1.5472 -0.3621 -0.9320
 1337WAT     H2 6069   3.050   1.223   4.672 -3.2940  1.5642 -0.2458
 1337WAT    EPW 6070   3.036   1.186   4.604 -0.4816  0.5215 -0.3966
 1338WAT      O 6071   5.952   4.021   5.713  0.0926  0.4024 -0.3535
 1338WAT     H1 6072   5.982   4.079   5.655  1.1439 -0.4276 -0.6830
 1338WAT     H2 6073   6.024   3.996   5.756 -0.3136 -0.7861 -0.3386
 1338WAT    EPW 6074   5.967   4.026   5.711  0.1879  0.1042 -0.4000
 1339WAT      O 6075   3.746   1.539   6.081 -0.0966  0.2780  0.0076
 1339WAT     H1 6076   3.758   1.602   6.140 -0.1357  0.6024 -0.3187
 1339WAT     H2 6077   3.678   1.494   6.112 -0.3199  0.6375  0.0526
 1339WAT    EPW 6078   3.738   1.542   6.094 -0.1354  0.3790 -0.0340
 1340WAT      O 6079   4.666   4.805   0.178 -0.1029  0.2945 -0.5225
 1340WAT     H1 6080   4.599   4.849   0.213 -1.4344 -1.5584 -0.6127
 1340WAT     H2 6081   4.628   4.748   0.125  1.5567 -0.8456 -0.5565
 1340WAT    EPW 6082   4.651   4.803   0.175 -0.0544 -0.1477 -0.5408
 1341WAT      O 6083   5.498   1.111   6.622  0.6137 -0.3193  0.2677
 1341WAT     H1 6084   5.416   1.080   6.619  0.4522  0.0770  0.5321
 1341WAT     H2 6085   5.510   1.129   6.706  1.1424 -0.8194  0.3007
 1341WAT    EPW 6086   5.488   1.109   6.634  0.6680 -0.3346  0.3116
 1342WAT      O 6087   4.558   3.441   5.220 -0.3327 -0.0325  0.1527
 1342WAT     H1 6088   4.541   3.452   5.135 -3.2086  0.0635  0.6266
 1342WAT     H2 6089   4.531   3.517   5.256 -0.9041 -0.7535  1.3106
 1342WAT    EPW 6090   4.552   3.454   5.213 -0.8419 -0.1248  0.3938
 1343WAT      O 6091   5.713   0.195   4.882  0.9201  0.0167  0.2916
 1343WAT     H1 6092   5.723   0.272   4.842  1.2753  0.5130  1.3009
 1343WAT     H2 6093   5.643   0.161   4.843 -0.3198  1.6320  0.9705
 1343WAT    EPW 6094   5.704   0.202   4.871  0.7894  0.3286  0.5409
 1344WAT      O 6095   5.645   5.554   5.940 -0.1614 -0.5901  0.1095
 1344WAT     H1 6096   5.648   5.581   5.857 -1.4990 -1.2989 -0.1886
 1344WAT     H2 6097   5.637   5.468   5.933  0.7177 -0.7669  1.0117
 1344WAT    EPW 6098   5.644   5.546   5.927 -0.2291 -0.7209  0.1987
 1345WAT      O 6099   3.947   1.621   3.680  0.0794 -0.4774  0.1230
 1345WAT     H1 6100   3.862   1.615   3.659  0.3691 -1.6697 -0.8479
 1345WAT     H2 6101   3.958   1.706   3.698 -1.6816 -0.5767  2.0195
 1345WAT    EPW 6102   3.936   1.633   3.679 -0.1379 -0.6682  0.2598
 1346WAT      O 6103   5.104   3.097   4.987  0.0963  0.1236  0.1533
 1346WAT     H1 6104   5.021   3.124   4.982 -0.4350 -1.5695 -1.5996
 1346WAT     H2 6105   5.147   3.152   4.935 -0.3752 -0.3711 -0.7815
 1346WAT    EPW 6106   5.098   3.109   4.979 -0.0518 -0.1996 -0.2437
 1347WAT      O 6107   4.738   5.194   5.546  0.1676  0.4169  0.0166
 1347WAT     H1 6108   4.698   5.244   5.606 -0.1406 -0.0304  0.1810
 1347WAT     H2 6109   4.728   5.113   5.576 -0.4081  0.1443 -0.8857
 1347WAT    EPW 6110   4.731   5.190   5.559  0.0371  0.3106 -0.0924
 1348WAT      O 6111   5.405   2.623   2.444  0.4156 -0.1339  0.0930
 1348WAT     H1 6112   5.442   2.550   2.473 -0.6966  0.6827  4.1137
 1348WAT     H2 6113   5.326   2.598   2.418  0.8653 -0.6482 -0.8422
 1348WAT    EPW 6114   5.399   2.609   2.444  0.3177 -0.0892  0.5488
 1349WAT      O 6115   2.279   5.097   5.374 -0.3694 -0.0870  0.2313
 1349WAT     H1 6116   2.358   5.134   5.381 -1.4223  2.6967 -1.2335
 1349WAT     H2 6117   2.242   5.112   5.452 -0.0902  0.2158  0.3065
 1349WAT    EPW 6118   2.285   5.104   5.387 -0.4837  0.3689  0.0261
 1350WAT      O 6119   3.253   0.857   6.521 -0.0810 -0.2053  0.3480
 1350WAT     H1 6120   3.190   0.916   6.535 -0.2565 -0.7235  1.9780
 1350WAT     H2 6121   3.321   0.904   6.495 -0.6678  0.5428  0.1374
 1350WAT    EPW 6122   3.253   0.873   6.519 -0.1936 -0.1713  0.5577
 1351WAT      O 6123   3.733   0.400   3.476 -0.5483  0.3312 -0.6526
 1351WAT     H1 6124   3.749   0.486   3.467  1.0218  0.0575 -0.8801
 1351WAT     H2 6125   3.813   0.365   3.479 -1.1545 -1.0502  0.3605
 1351WAT    EPW 6126   3.747   0.408   3.475 -0.4059  0.0867 -0.5365
 1352WAT      O 6127   5.654   0.523   4.230 -0.3663  0.8096  0.3708
 1352WAT     H1 6128   5.691   0.588   4.187  0.4424 -0.6194 -1.2190
 1352WAT     H2 6129   5.573   0.551   4.246 -0.2431  1.9287 -0.8804
 1352WAT    EPW 6130   5.647   0.537   4.226 -0.2286  0.7638 -0.0489
 1353WAT      O 6131   3.636   3.811   6.998 -0.0283  0.2833  0.5028
 1353WAT     H1 6132   3.581   3.743   7.004  1.9962 -1.4872  0.2353
 1353WAT     H2 6133   3.590   3.877   7.031 -1.7453 -1.4461  1.8136
 1353WAT    EPW 6134   3.621   3.810   7.004  0.0171 -0.2337  0.6569
 1354WAT      O 6135   4.065   2.211   7.054  0.1602 -0.4267  0.3673
 1354WAT     H1 6136   4.150   2.192   7.063 -0.2342 -2.9042 -0.3539
 1354WAT     H2 6137   4.042   2.241   7.133  1.4228 -0.9542  0.9703
 1354WAT    EPW 6138   4.074   2.213   7.067  0.2884 -0.8706  0.3498
 1355WAT      O 6139   0.517   6.165   2.254 -0.7082 -0.2440  0.0138
 1355WAT     H1 6140   0.486   6.211   2.187  0.2862  1.8370  0.9003
 1355WAT     H2 6141   0.445   6.133   2.292 -1.3822 -0.0194 -1.0323
 1355WAT    EPW 6142   0.502   6.167   2.250 -0.6609  0.0966 -0.0098
 1356WAT      O 6143   4.160   5.014   6.905 -0.2902 -0.3015 -0.4310
 1356WAT     H1 6144   4.224   5.058   6.866 -0.6604 -0.4939 -1.3011
 1356WAT     H2 6145   4.155   4.940   6.858 -2.1800  0.3808 -1.4489
 1356WAT    EPW 6146   4.169   5.009   6.892 -0.6241 -0.2292 -0.7099
 1357WAT      O 6147   3.338   6.481   4.470 -0.3488 -0.0561  0.0145
 1357WAT     H1 6148   3.366   6.448   4.394 -0.6862 -1.5584  0.5014
 1357WAT     H2 6149   3.275   6.426   4.493 -0.9254  0.9549  0.9136
 1357WAT    EPW 6150   3.333   6.468   4.462 -0.4838 -0.1287  0.2192
 1358WAT      O 6151   1.609   0.314   0.391  0.3463  0.2398  0.2132
 1358WAT     H1 6152   1.681   0.271   0.367  0.1037  0.6124 -1.2664
 1358WAT     H2 6153   1.550   0.250   0.402  0.4723  0.0544 -0.1644
 1358WAT    EPW 6154   1.611   0.298   0.389  0.3291  0.2675 -0.0612
 1359WAT      O 6155   0.223   7.004   5.856  0.5402  0.0049 -0.1282
 1359WAT     H1 6156   0.310   7.002   5.860  0.5124 -2.0378  1.0832
 1359WAT     H2 6157   0.198   7.000   5.940 -0.7025 -0.4000 -0.4853
 1359WAT    EPW 6158   0.232   7.003   5.869  0.3526 -0.3567 -0.0020
 1360WAT      O 6159   7.037   5.172   6.047  0.0347 -0.3044 -0.3421
 1360WAT     H1 6160   7.064   5.231   6.105 -2.7350  2.3008 -1.4379
 1360WAT     H2 6161   7.056   5.208   5.970  0.4934 -2.0673 -1.1091
 1360WAT    EPW 6162   7.044   5.186   6.044 -0.3067 -0.1800 -0.6172
 1361WAT      O 6163   7.260   2.235   5.242 -0.2156 -0.0550  0.0424
 1361WAT     H1 6164   7.315   2.303   5.242  1.7097 -1.5116  0.3543
 1361WAT     H2 6165   7.293   2.183   5.305 -2.0711 -0.9422  0.3365
 1361WAT    EPW 6166   7.273   2.237   5.252 -0.2053 -0.4012  0.1319
 1362WAT      O 6167   2.254   2.365   6.843 -0.2416  0.0243  0.5814
 1362WAT     H1 6168   2.293   2.374   6.921  2.3269  1.6188 -0.7660
 1362WAT     H2 6169   2.264   2.280   6.825  0.1818 -0.1230  1.4620
 1362WAT    EPW 6170   2.261   2.353   6.852  0.2004  0.2381  0.5124
 1363WAT      O 6171   5.789   3.187   2.746  0.2265  0.5050 -0.7314
 1363WAT     H1 6172   5.795   3.112   2.701 -4.2400 -0.4052 -0.2324
 1363WAT     H2 6173   5.813   3.164   2.827 -0.4035 -0.1865 -0.7367
 1363WAT    EPW 6174   5.794   3.172   2.751 -0.5263  0.2684 -0.6585
 1364WAT      O 6175   0.972   1.800   2.022 -0.5561 -0.3512 -0.0631
 1364WAT     H1 6176   0.899   1.807   2.070  0.0544  0.3491  0.8069
 1364WAT     H2 6177   1.035   1.825   2.077  0.2848 -0.4451 -0.9538
 1364WAT    EPW 6178   0.970   1.805   2.037 -0.3417 -0.2616 -0.0662
 1365WAT      O 6179   3.974   1.925   6.504 -0.3220 -0.1652 -0.3640
 1365WAT     H1 6180   4.048   1.960   6.534 -0.3954  0.7835 -1.2200
 1365WAT     H2 6181   3.961   1.856   6.556  0.5890  0.2691  0.4756
 1365WAT    EPW 6182   3.983   1.920   6.516 -0.1983  0.0391 -0.3665
 1366WAT      O 6183   2.729   4.384   0.430  0.2405 -0.1437 -0.0963
 1366WAT     H1 6184   2.769   4.374   0.353 -1.0425  0.9240 -0.9401
 1366WAT     H2 6185   2.790   4.420   0.481  1.2178 -1.2066 -0.4775
 1366WAT    EPW 6186   2.744   4.388   0.426  0.1953 -0.1430 -0.2772
 1367WAT      O 6187   1.989   4.499   3.369  0.3059 -0.0609 -0.4873
 1367WAT     H1 6188   2.034   4.558   3.322 -0.0101 -0.7124 -1.6635
 1367WAT     H2 6189   2.015   4.514   3.451  1.7861  0.3461 -0.9893
 1367WAT    EPW 6190   2.000   4.510   3.374  0.4779 -0.0970 -0.7352
 1368WAT      O 6191   0.966   4.142   1.641 -0.3578 -0.2400  0.8399
 1368WAT     H1 6192   0.880   4.136   1.655 -0.7544 -1.4122 -1.5975
 1368WAT     H2 6193   0.974   4.215   1.594  0.0533  0.0276  1.3089
 1368WAT    EPW 6194   0.955   4.152   1.636 -0.3557 -0.3736  0.5491
 1369WAT      O 6195   3.597   5.603   3.059 -0.2898  0.2353 -0.1235
 1369WAT     H1 6196   3.595   5.522   3.090  3.0994  0.8820  2.4160
 1369WAT     H2 6197   3.669   5.605   3.010 -1.1252  1.3754 -1.3696
 1369WAT    EPW 6198   3.608   5.592   3.056  0.0875  0.4993  0.0676
 1370WAT      O 6199   5.009   5.522   5.599  0.4347 -0.6372 -0.0906
 1370WAT     H1 6200   5.076   5.515   5.655  2.4048  0.1999 -2.1569
 1370WAT     H2 6201   4.942   5.547   5.649  1.5010 -2.0077  2.1699
 1370WAT    EPW 6202   5.009   5.525   5.614  0.8832 -0.7160 -0.0619
 1371WAT      O 6203   4.094   0.664   1.971 -1.1109 -0.0040 -0.3464
 1371WAT     H1 6204   4.070   0.582   1.959  0.6549 -0.4393 -1.2035
 1371WAT     H2 6205   4.117   0.667   2.056  1.9592 -1.3481 -1.0106
 1371WAT    EPW 6206   4.094   0.653   1.982 -0.3965 -0.2669 -0.5711
 1372WAT      O 6207   7.255   4.648   4.782  0.0268 -0.2012  0.2278
 1372WAT     H1 6208   7.180   4.613   4.755  1.3251 -0.5759 -3.5851
 1372WAT     H2 6209   7.243   4.734   4.772 -0.0659 -0.2388  0.0077
 1372WAT    EPW 6210   7.242   4.656   4.776  0.2049 -0.2621 -0.3680
 1373WAT      O 6211   3.581   5.361   3.188 -0.1957 -0.1231 -0.1728
 1373WAT     H1 6212   3.644   5.305   3.165  1.4211  1.7174 -0.3870
 1373WAT     H2 6213   3.566   5.342   3.272  0.4124 -0.7784 -0.2102
 1373WAT    EPW 6214   3.588   5.350   3.197  0.1330  0.0520 -0.2100
 1374WAT      O 6215   5.410   5.558   2.911 -0.6168  0.0685 -0.0933
 1374WAT     H1 6216   5.367   5.622   2.872  0.5017  2.2091  1.9081
 1374WAT     H2 6217   5.388   5.566   2.995  4.9197  2.8936  1.6279
 1374WAT    EPW 6218   5.401   5.569   2.918  0.3663  0.8020  0.4566
 1375WAT      O 6219   3.832   0.473   1.062  0.3227 -0.1807 -0.2541
 1375WAT     H1 6220   3.852   0.393   1.089 -0.0156 -0.7467 -1.6381
 1375WAT     H2 6221   3.861   0.524   1.127  0.1318 -1.4402  0.8547
 1375WAT    EPW 6222   3.839   0.469   1.076  0.2445 -0.4504 -0.2948
 1376WAT      O 6223   5.264   0.818   1.282 -0.3863 -0.1668  0.5230
 1376WAT     H1 6224   5.344   0.830   1.249 -0.1974  0.1596  1.0826
 1376WAT     H2 6225   5.212   0.857   1.225 -0.1667 -0.5351  0.0597
 1376WAT    EPW 6226   5.268   0.825   1.269 -0.3260 -0.1730  0.5372
 1377WAT      O 6227   3.412   1.718   6.442  0.3690  0.7637  0.0740
 1377WAT     H1 6228   3.426   1.632   6.449 -0.8075  0.5011 -0.5649
 1377WAT     H2 6229   3.447   1.750   6.515 -0.4328 -0.4311  1.0370
 1377WAT    EPW 6230   3.419   1.710   6.454  0.0767  0.5484  0.1219
 1378WAT      O 6231   5.098   5.014   4.977  0.1652  0.2210  0.1350
 1378WAT     H1 6232   5.037   4.985   5.033  0.5311  1.4610  1.2372
 1378WAT     H2 6233   5.128   5.086   5.016  0.7623  0.8763 -1.4708
 1378WAT    EPW 6234   5.093   5.021   4.991  0.3075  0.5010  0.0606
 1379WAT      O 6235   1.754   3.612   6.019  0.1448  0.9233  0.6921
 1379WAT     H1 6236   1.712   3.688   6.006  1.6084  2.0116  1.9149
 1379WAT     H2 6237   1.693   3.561   6.056 -0.5251  1.9665  1.0776
 1379WAT    EPW 6238   1.738   3.616   6.023  0.2620  1.2382  0.9297
 1380WAT      O 6239   0.347   1.982   6.929 -0.2079  0.0199  0.2859
 1380WAT     H1 6240   0.356   1.895   6.920 -0.3993  0.0872 -0.6418
 1380WAT     H2 6241   0.429   2.011   6.929 -0.1663 -0.0605 -0.6371
 1380WAT    EPW 6242   0.360   1.973   6.927 -0.2300  0.0180  0.0125
 1381WAT      O 6243   1.944   6.723   0.901 -0.3614 -0.3816  0.5918
 1381WAT     H1 6244   2.003   6.710   0.838 -0.9766  0.6974 -0.2410
 1381WAT     H2 6245   1.874   6.679   0.873 -0.8220  0.5543  0.2043
 1381WAT    EPW 6246   1.942   6.715   0.888 -0.5203 -0.0840  0.4115
 1382WAT      O 6247   0.299   5.335   0.351  0.3488 -0.2542 -0.4553
 1382WAT     H1 6248   0.340   5.333   0.427 -1.6721  1.0594  0.7613
 1382WAT     H2 6249   0.286   5.250   0.332  1.2852 -0.5951  0.4022
 1382WAT    EPW 6250   0.303   5.322   0.359  0.1886 -0.1105 -0.1489
 1383WAT      O 6251   5.151   5.275   1.646  0.0596  0.0030  0.4900
 1383WAT     H1 6252   5.118   5.237   1.718  0.5478  1.3692  1.4834
 1383WAT     H2 6253   5.160   5.209   1.590  0.5797 -1.3046  2.0310
 1383WAT    EPW 6254   5.147   5.260   1.648  0.2086  0.0117  0.8644
 1384WAT      O 6255   2.651   7.214   0.650 -0.3216 -0.0091  0.0726
 1384WAT     H1 6256   2.726   7.175   0.670 -0.5611  0.2233  1.5554
 1384WAT     H2 6257   2.604   7.150   0.614 -0.0049 -0.5859  0.6615
 1384WAT    EPW 6258   2.655   7.199   0.648 -0.3102 -0.0600  0.3786
 1385WAT      O 6259   0.117   0.069   5.098 -0.4953  0.7310  0.5186
 1385WAT     H1 6260   0.109  -0.017   5.083  1.0730  0.8395 -1.3227
 1385WAT     H2 6261   0.036   0.100   5.087 -0.6896 -0.2340 -1.1824
 1385WAT    EPW 6262   0.104   0.061   5.094 -0.2923  0.6045 -0.0047
 1386WAT      O 6263   5.731   3.623   0.443  0.1279 -0.0900 -0.0793
 1386WAT     H1 6264   5.729   3.540   0.416 -1.1213 -0.7591  1.9142
 1386WAT     H2 6265   5.686   3.665   0.382 -2.9184 -1.6054  0.9493
 1386WAT    EPW 6266   5.724   3.617   0.430 -0.5067 -0.4127  0.3672
 1387WAT      O 6267   2.898   6.835   6.864 -0.2757 -0.7250 -0.2688
 1387WAT     H1 6268   2.869   6.843   6.782 -0.3736  0.0882 -0.1597
 1387WAT     H2 6269   2.974   6.793   6.854  0.1685  0.1905 -0.8746
 1387WAT    EPW 6270   2.905   6.830   6.850 -0.2246 -0.4697 -0.3422
 1388WAT      O 6271   0.249   2.848   6.566  0.5723 -0.6128  0.6167
 1388WAT     H1 6272   0.313   2.899   6.596 -0.8261  1.3640  0.4417
 1388WAT     H2 6273   0.188   2.853   6.628 -0.3944 -0.4489 -0.3196
 1388WAT    EPW 6274   0.250   2.856   6.580  0.2229 -0.2966  0.4525
 1389WAT      O 6275   4.810   0.400   1.303  0.8641 -0.2896  0.6482
 1389WAT     H1 6276   4.730   0.428   1.320  1.3307  0.3080  2.0905
 1389WAT     H2 6277   4.802   0.313   1.303 -0.4233 -0.3126 -2.9448
 1389WAT    EPW 6278   4.797   0.391   1.306  0.7429 -0.2047  0.3305
 1390WAT      O 6279   4.616   2.694   7.376  0.2251  0.1595 -0.3873
 1390WAT     H1 6280   4.573   2.721   7.305 -0.3756 -2.3012 -1.0765
 1390WAT     H2 6281   4.696   2.726   7.366 -0.5213  2.0381 -0.7912
 1390WAT    EPW 6282   4.622   2.703   7.364  0.0261  0.0735 -0.5488
 1391WAT      O 6283   5.871   2.213   1.689  0.0457  0.1819  0.0949
 1391WAT     H1 6284   5.846   2.291   1.659  0.6806  0.8247  1.1985
 1391WAT     H2 6285   5.839   2.210   1.770 -0.6098 -1.0247 -0.1812
 1391WAT    EPW 6286   5.863   2.224   1.696  0.0426  0.0986  0.2172
 1392WAT      O 6287   2.087   4.028   1.626  0.3428  0.6337  0.0324
 1392WAT     H1 6288   2.041   3.954   1.618  1.3881 -0.0354  0.0552
 1392WAT     H2 6289   2.095   4.056   1.544 -2.3828  2.2377  0.1957
 1392WAT    EPW 6290   2.081   4.021   1.613  0.0946  0.7718  0.0599
 1393WAT      O 6291   1.211   4.531   5.409 -0.1879 -0.6020  0.3127
 1393WAT     H1 6292   1.248   4.480   5.349 -1.0852 -1.5475  0.5225
 1393WAT     H2 6293   1.263   4.600   5.413  1.7984 -2.0346  0.8983
 1393WAT    EPW 6294   1.224   4.534   5.401 -0.0271 -0.9533  0.4302
 1394WAT      O 6295   3.045   6.986   6.180  0.5739 -0.1747 -0.0144
 1394WAT     H1 6296   2.968   7.023   6.158 -0.1217  0.1843  2.7024
 1394WAT     H2 6297   3.103   7.041   6.146 -0.3941  0.6165 -0.4659
 1394WAT    EPW 6298   3.042   7.000   6.171  0.3281 -0.0048  0.3202
 1395WAT      O 6299   5.914   5.839   4.564 -0.1681  0.0776 -0.3697
 1395WAT     H1 6300   5.935   5.771   4.614 -1.0451 -0.7861 -1.1199
 1395WAT     H2 6301   5.961   5.826   4.491 -2.1091 -1.1518 -1.5217
 1395WAT    EPW 6302   5.924   5.827   4.560 -0.5844 -0.2316 -0.6507
 1396WAT      O 6303   0.386   3.546   0.162  0.1658 -0.0436  0.0701
 1396WAT     H1 6304   0.357   3.602   0.102 -1.5275 -1.5261 -0.6102
 1396WAT     H2 6305   0.467   3.529   0.136 -0.4985 -0.5874 -1.8201
 1396WAT    EPW 6306   0.393   3.552   0.149 -0.1824 -0.3429 -0.3096
 1397WAT      O 6307   2.995   1.576   5.835 -0.4031 -0.7276  0.6646
 1397WAT     H1 6308   2.911   1.589   5.856 -0.5900  1.5576 -1.0366
 1397WAT     H2 6309   3.003   1.617   5.758  2.3811 -0.5447  0.9576
 1397WAT    EPW 6310   2.984   1.584   5.826 -0.0195 -0.3630  0.4566
 1398WAT      O 6311   5.210   4.584   1.719  0.2593 -0.6121  0.6285
 1398WAT     H1 6312   5.273   4.562   1.663 -0.0421  1.0224 -0.4182
 1398WAT     H2 6313   5.205   4.670   1.711  0.8349 -0.1462  3.8974
 1398WAT    EPW 6314   5.219   4.593   1.710  0.2998 -0.3019  0.9568
 1399WAT      O 6315   4.452   1.132   2.492  0.1569  0.1854  0.0168
 1399WAT     H1 6316   4.389   1.164   2.544  1.2249  0.4889  1.1625
 1399WAT     H2 6317   4.420   1.054   2.468 -2.0366  1.5542 -2.0016
 1399WAT    EPW 6318   4.438   1.125   2.496 -0.0094  0.4324 -0.1121
 1400WAT      O 6319   6.592   3.297   0.898 -0.3796 -0.0632 -0.6162
 1400WAT     H1 6320   6.660   3.294   0.844 -0.3675 -1.8750 -0.5604
 1400WAT     H2 6321   6.626   3.273   0.975 -0.8271  0.3130 -0.2924
 1400WAT    EPW 6322   6.607   3.293   0.902 -0.4439 -0.2753 -0.5602
 1401WAT      O 6323   0.234   0.475   5.372 -0.4529 -0.3739  0.1891
 1401WAT     H1 6324   0.313   0.457   5.341  0.3488  2.2811  0.3787
 1401WAT     H2 6325   0.195   0.397   5.377  1.1345 -1.4760 -2.5444
 1401WAT    EPW 6326   0.240   0.461   5.368 -0.1000 -0.1445 -0.1867
 1402WAT      O 6327   2.389   7.031   6.558 -0.4648 -0.2115 -0.1719
 1402WAT     H1 6328   2.352   7.018   6.480  1.8258 -1.1648 -1.1797
 1402WAT     H2 6329   2.420   7.113   6.553 -2.6656  0.7816  0.8621
 1402WAT    EPW 6330   2.388   7.041   6.546 -0.4515 -0.2056 -0.1680
 1403WAT      O 6331   5.989   0.247   3.192  0.1651  0.5400  0.7287
 1403WAT     H1 6332   6.031   0.244   3.269  2.1034 -0.6340 -0.2948
 1403WAT     H2 6333   5.973   0.163   3.174  0.3188  0.7487 -0.4480
 1403WAT    EPW 6334   5.993   0.234   3.201  0.4741  0.3974  0.4037
 1404WAT      O 6335   5.524   3.778   5.913 -0.3145  0.4126 -0.7288
 1404WAT     H1 6336   5.580   3.753   5.976 -0.5331  0.1177 -0.6547
 1404WAT     H2 6337   5.448   3.746   5.939 -0.4549  0.5132 -1.0167
 1404WAT    EPW 6338   5.521   3.770   5.926 -0.3675  0.3839 -0.7604
 1405WAT      O 6339   5.650   0.946   6.450  0.0663 -0.0173  0.0044
 1405WAT     H1 6340   5.698   1.019   6.455  1.1364 -0.5511 -1.6052
 1405WAT     H2 6341   5.582   0.963   6.502  0.1822  2.2006 -0.4460
 1405WAT    EPW 6342   5.647   0.959   6.459  0.2415  0.2315 -0.2999
 1406WAT      O 6343   3.390   2.140   4.621 -0.4388 -0.0825 -0.7534
 1406WAT     H1 6344   3.437   2.071   4.594 -0.0304 -0.3974  0.6494
 1406WAT     H2 6345   3.401   2.199   4.558 -0.9706 -1.3566 -2.1044
 1406WAT    EPW 6346   3.399   2.138   4.608 -0.4570 -0.3173 -0.7457
 1407WAT      O 6347   7.087   2.947   3.095 -0.3532 -0.3455 -0.2715
 1407WAT     H1 6348   7.127   3.004   3.044  2.0764 -2.8401 -1.4100
 1407WAT     H2 6349   7.102   2.976   3.176  1.9557 -0.0143 -0.7726
 1407WAT    EPW 6350   7.095   2.959   3.100  0.3468 -0.6651 -0.5137
 1408WAT      O 6351   2.999   0.819   5.936 -0.6476 -0.3683  0.4520
 1408WAT     H1 6352   3.027   0.897   5.965 -0.0151 -0.6520  0.6098
 1408WAT     H2 6353   2.941   0.795   5.997 -2.1557  0.7412 -0.4542
 1408WAT    EPW 6354   2.994   0.827   5.949 -0.7770 -0.2463  0.3414
 1409WAT      O 6355   4.943   4.496   1.218 -0.2884 -0.8680  0.2314
 1409WAT     H1 6356   4.870   4.526   1.255  0.1307  2.5974 -1.3643
 1409WAT     H2 6357   4.914   4.437   1.160 -1.7584 -0.1094  0.1557
 1409WAT    EPW 6358   4.928   4.491   1.215 -0.4436 -0.2440 -0.0155
 1410WAT      O 6359   1.651   5.335   4.194 -0.3406 -0.2614 -0.4417
 1410WAT     H1 6360   1.711   5.321   4.132  0.3434 -0.3731  0.2351
 1410WAT     H2 6361   1.587   5.279   4.172  0.0120 -0.5008 -0.8932
 1410WAT    EPW 6362   1.650   5.324   4.181 -0.1875 -0.3133 -0.4084
 1411WAT      O 6363   1.462   5.403   3.353 -0.0259  0.4628  0.9150
 1411WAT     H1 6364   1.534   5.359   3.330 -0.0544  1.7448 -2.0506
 1411WAT     H2 6365   1.486   5.443   3.427  2.6237  1.4167 -0.3186
 1411WAT    EPW 6366   1.477   5.402   3.360  0.3613  0.7930  0.2947
 1412WAT      O 6367   0.356   6.596   0.408 -0.2609  0.1882 -0.3027
 1412WAT     H1 6368   0.270   6.587   0.399 -0.2976  1.0820 -0.9387
 1412WAT     H2 6369   0.369   6.681   0.397  0.3537  0.6443  2.9404
 1412WAT    EPW 6370   0.345   6.607   0.405 -0.1755  0.3876  0.0824
 1413WAT      O 6371   5.616   2.811   2.770  0.7345  0.0337 -0.6721
 1413WAT     H1 6372   5.568   2.808   2.697 -0.6037  0.5339  0.1486
 1413WAT     H2 6373   5.601   2.734   2.807  0.2930  0.2993 -0.2750
 1413WAT    EPW 6374   5.606   2.799   2.765  0.4716  0.1468 -0.4922
 1414WAT      O 6375   0.399   5.148   2.694 -0.0699  0.6153  0.3482
 1414WAT     H1 6376   0.405   5.128   2.779 -0.0058  0.3446  0.2800
 1414WAT     H2 6377   0.347   5.217   2.693  0.2104  0.8368  0.6431
 1414WAT    EPW 6378   0.392   5.155   2.706 -0.0190  0.6080  0.3817
 1415WAT      O 6379   2.580   6.669   4.751 -0.4633  0.3246 -0.2630
 1415WAT     H1 6380   2.630   6.667   4.823 -1.1150 -1.4727  0.1921
 1415WAT     H2 6381   2.507   6.708   4.778 -1.0213 -1.0485  0.3212
 1415WAT    EPW 6382   2.577   6.675   4.765 -0.6420 -0.1437 -0.1095
 1416WAT      O 6383   5.435   1.980   2.981  0.1034 -0.5758  0.2480
 1416WAT     H1 6384   5.442   1.942   2.903  0.7699  0.9844 -0.4884
 1416WAT     H2 6385   5.496   2.042   2.980 -0.2584 -0.1442  1.7880
 1416WAT    EPW 6386   5.445   1.984   2.970  0.1484 -0.2816  0.3667
 1417WAT      O 6387   4.061   0.767   4.133 -0.2634  0.1349  0.1668
 1417WAT     H1 6388   4.010   0.813   4.187 -0.6498 -0.3355  0.2068
 1417WAT     H2 6389   4.110   0.718   4.186  0.2486  0.5985  0.1283
 1417WAT    EPW 6390   4.060   0.767   4.149 -0.2448  0.1339  0.1670
 1418WAT      O 6391   2.380   6.259   6.710  0.3695  0.3249  0.1497
 1418WAT     H1 6392   2.335   6.321   6.752  0.0934  0.2096  0.0216
 1418WAT     H2 6393   2.322   6.224   6.656  0.7274  0.4888 -0.3521
 1418WAT    EPW 6394   2.365   6.263   6.709  0.3816  0.3321  0.0567
 1419WAT      O 6395   7.312   1.709   5.983 -0.6634  0.0371  0.1285
 1419WAT     H1 6396   7.365   1.664   6.036  0.3132  1.4893  0.4355
 1419WAT     H2 6397   7.328   1.673   5.905 -1.1239 -1.2257  0.5833
 1419WAT    EPW 6398   7.322   1.697   5.979 -0.5872  0.0651  0.2411
 1420WAT      O 6399   3.149   2.194   6.607 -0.1806  0.1439 -0.6445
 1420WAT     H1 6400   3.139   2.258   6.548 -0.6394 -0.2422 -0.9954
 1420WAT     H2 6401   3.235   2.183   6.612 -0.1426  0.0600 -1.3813
 1420WAT    EPW 6402   3.160   2.202   6.599 -0.2428  0.0744 -0.8052
 1421WAT      O 6403   5.918   0.110   6.521  0.1512 -0.4994 -0.2583
 1421WAT     H1 6404   5.867   0.077   6.457 -0.0564 -1.1218  0.2127
 1421WAT     H2 6405   5.860   0.136   6.581  0.3218  0.6711 -0.5854
 1421WAT    EPW 6406   5.902   0.109   6.520  0.1457 -0.4184 -0.2371
 1422WAT      O 6407   3.413   3.827   6.612  0.1999 -0.0873  0.5235
 1422WAT     H1 6408   3.335   3.801   6.641  0.1113  0.5553  0.8919
 1422WAT     H2 6409   3.460   3.754   6.609 -0.6177 -0.5941 -0.3655
 1422WAT    EPW 6410   3.409   3.812   6.616  0.0661 -0.0672  0.4466
 1423WAT      O 6411   0.600   5.004   5.609  0.5549 -0.3464  0.0951
 1423WAT     H1 6412   0.568   4.932   5.571  0.2530 -0.0598 -0.2062
 1423WAT     H2 6413   0.528   5.045   5.637  0.8118 -0.9539  1.7234
 1423WAT    EPW 6414   0.584   4.999   5.608  0.5483 -0.3938  0.2912
 1424WAT      O 6415   6.045   6.321   0.534 -0.5292  0.7948  0.3359
 1424WAT     H1 6416   6.108   6.272   0.498 -2.9322 -1.0228 -1.7346
 1424WAT     H2 6417   6.053   6.304   0.619  0.8308 -0.6217 -0.0176
 1424WAT    EPW 6418   6.056   6.311   0.541 -0.6833  0.3171 -0.0222
 1425WAT      O 6419   5.671   2.030   0.831  0.5620 -0.1222  0.3698
 1425WAT     H1 6420   5.610   2.004   0.773  1.3199 -0.8785 -0.1126
 1425WAT     H2 6421   5.654   2.115   0.841 -0.0927 -0.1490 -0.3534
 1425WAT    EPW 6422   5.659   2.039   0.824  0.5773 -0.2379  0.1917
 1426WAT      O 6423   0.421   5.536   2.778  0.3366 -0.7146  0.2500
 1426WAT     H1 6424   0.398   5.615   2.805  1.7559 -1.2351  3.4263
 1426WAT     H2 6425   0.393   5.533   2.695 -1.4038  2.3652  0.5973
 1426WAT    EPW 6426   0.413   5.547   2.770  0.2892 -0.3365  0.7705
 1427WAT      O 6427   5.100   5.067   2.170 -0.0366 -0.0400  0.4707
 1427WAT     H1 6428   5.180   5.091   2.145 -0.5103  0.2641 -0.8274
 1427WAT     H2 6429   5.049   5.092   2.103 -1.1363 -0.7464  1.0173
 1427WAT    EPW 6430   5.104   5.074   2.156 -0.2690 -0.0994  0.3597
 1428WAT      O 6431   2.126   7.034   0.391  0.1151 -0.1525  0.2238
 1428WAT     H1 6432   2.149   6.954   0.365 -3.2663 -0.7340 -1.5012
 1428WAT     H2 6433   2.122   7.080   0.317 -0.5697  0.8443  0.8468
 1428WAT    EPW 6434   2.129   7.029   0.376 -0.4856 -0.0911  0.0610
 1429WAT      O 6435   3.288   5.095   0.466 -0.5448 -0.0879  0.6782
 1429WAT     H1 6436   3.356   5.128   0.424 -0.8511  0.6518  0.7515
 1429WAT     H2 6437   3.227   5.087   0.405 -1.0512  1.1649  1.0011
 1429WAT    EPW 6438   3.289   5.099   0.451 -0.6649  0.2065  0.7367
 1430WAT      O 6439   4.251   2.653   4.754 -0.2394 -0.2062  0.2171
 1430WAT     H1 6440   4.215   2.618   4.682  1.3534 -1.6458  0.0762
 1430WAT     H2 6441   4.324   2.607   4.765 -0.4203  0.0121  2.7697
 1430WAT    EPW 6442   4.256   2.641   4.745 -0.0309 -0.3866  0.5734
 1431WAT      O 6443   5.121   0.641   6.225  0.2016 -0.1012  0.0092
 1431WAT     H1 6444   5.175   0.612   6.163  1.2802 -2.0857  1.7480
 1431WAT     H2 6445   5.069   0.572   6.240  0.1896  0.2142  1.5116
 1431WAT    EPW 6446   5.121   0.626   6.218  0.3591 -0.3478  0.4880
 1432WAT      O 6447   6.866   4.485   4.274  0.1549  0.3305 -0.2520
 1432WAT     H1 6448   6.802   4.525   4.229 -0.1663 -2.6230 -2.6821
 1432WAT     H2 6449   6.823   4.439   4.334  0.3020  0.9720  0.3636
 1432WAT    EPW 6450   6.850   4.484   4.276  0.1292 -0.0110 -0.5201
 1433WAT      O 6451   3.769   4.471   6.859 -0.1747  0.1417  0.2791
 1433WAT     H1 6452   3.696   4.513   6.882 -0.0734  0.1021  0.6803
 1433WAT     H2 6453   3.757   4.455   6.774 -0.6281  0.1500  0.3366
 1433WAT    EPW 6454   3.756   4.474   6.850 -0.2267  0.1371  0.3468
 1434WAT      O 6455   5.326   2.209   5.498 -0.2021  0.0473  0.1437
 1434WAT     H1 6456   5.315   2.290   5.529  0.3153  0.9343 -1.8698
 1434WAT     H2 6457   5.270   2.204   5.432 -0.8573 -1.5915  0.7652
 1434WAT    EPW 6458   5.316   2.220   5.493 -0.2225 -0.0638 -0.0619
 1435WAT      O 6459   6.108   3.980   6.384  0.3568 -0.1564 -0.3022
 1435WAT     H1 6460   6.085   3.916   6.330  0.7653 -0.1649 -0.4668
 1435WAT     H2 6461   6.068   4.050   6.350  0.8010 -0.1147 -0.7585
 1435WAT    EPW 6462   6.099   3.981   6.371  0.4828 -0.1515 -0.3939
 1436WAT      O 6463   1.351   5.097   1.942 -0.4040 -0.2522 -0.2561
 1436WAT     H1 6464   1.326   5.171   1.980  1.6211  0.1401  0.4734
 1436WAT     H2 6465   1.364   5.042   2.009 -1.8880 -1.3306 -0.7810
 1436WAT    EPW 6466   1.350   5.100   1.957 -0.3240 -0.3535 -0.2259
 1437WAT      O 6467   2.656   2.718   7.407 -0.6088 -0.1352 -0.2820
 1437WAT     H1 6468   2.667   2.733   7.322  2.2331  0.6032  0.0932
 1437WAT     H2 6469   2.674   2.796   7.444  1.4548 -1.1684  1.0870
 1437WAT    EPW 6470   2.660   2.732   7.400  0.1158 -0.1788 -0.0244
 1438WAT      O 6471   0.114   2.307   0.027 -0.4860  0.1165  0.0510
 1438WAT     H1 6472   0.140   2.381  -0.013 -0.2000 -0.6105 -1.1420
 1438WAT     H2 6473   0.027   2.312   0.026 -0.4684  0.4467 -0.0029
 1438WAT    EPW 6474   0.105   2.319   0.021 -0.4412  0.0579 -0.1332
 1439WAT      O 6475   5.662   2.112   4.766 -0.2641 -0.1271 -0.4407
 1439WAT     H1 6476   5.625   2.191   4.773 -0.5667 -0.3266  0.3824
 1439WAT     H2 6477   5.732   2.118   4.818 -1.1791 -0.8792  0.9606
 1439WAT    EPW 6478   5.667   2.125   4.775 -0.4440 -0.2677 -0.1121
 1440WAT      O 6479   4.993   2.618   1.594 -0.7571 -0.2533 -0.7397
 1440WAT     H1 6480   4.967   2.553   1.646  0.5981 -0.7173 -0.5922
 1440WAT     H2 6481   4.919   2.654   1.566 -1.5992  0.9056  2.5592
 1440WAT    EPW 6482   4.978   2.614   1.598 -0.6813 -0.1507 -0.2306
 1441WAT      O 6483   0.307   2.082   5.808 -0.0182  0.6313  0.1350
 1441WAT     H1 6484   0.260   2.016   5.841 -0.4041  0.4157 -0.8090
 1441WAT     H2 6485   0.389   2.051   5.811 -0.1085  0.4094  0.3988
 1441WAT    EPW 6486   0.313   2.068   5.813 -0.0885  0.5666  0.0345
 1442WAT      O 6487   5.286   1.279   5.997 -0.7085 -0.4244  0.0690
 1442WAT     H1 6488   5.280   1.345   6.054  0.1203 -0.5774  0.3449
 1442WAT     H2 6489   5.369   1.284   5.969 -0.9496 -0.6980 -0.7081
 1442WAT    EPW 6490   5.297   1.290   6.002 -0.6217 -0.4874 -0.0050
 1443WAT      O 6491   5.928   4.421   4.514  0.0216  0.0130 -0.4005
 1443WAT     H1 6492   6.014   4.429   4.504 -0.0775  0.4985 -0.8607
 1443WAT     H2 6493   5.902   4.383   4.440 -0.4600  1.9453 -1.2660
 1443WAT    EPW 6494   5.937   4.416   4.502 -0.0641  0.3702 -0.5963
 1444WAT      O 6495   4.942   5.291   4.989  0.1774 -0.4477  0.6154
 1444WAT     H1 6496   4.988   5.358   4.958 -0.2596 -0.6319 -0.4766
 1444WAT     H2 6497   4.872   5.328   5.024 -0.6373 -0.3581 -1.0084
 1444WAT    EPW 6498   4.939   5.306   4.989 -0.0075 -0.4617  0.2142
 1445WAT      O 6499   7.175   6.624   2.825  0.2345 -0.0237 -0.4661
 1445WAT     H1 6500   7.249   6.626   2.871 -0.2457 -0.9796  0.3712
 1445WAT     H2 6501   7.143   6.704   2.835  0.2030 -0.1729  0.7666
 1445WAT    EPW 6502   7.181   6.636   2.833  0.1589 -0.1869 -0.1603
 1446WAT      O 6503   7.287   3.946   0.616  0.4843  0.1038 -0.7446
 1446WAT     H1 6504   7.256   3.923   0.538  2.6355 -1.0057 -1.3385
 1446WAT     H2 6505   7.330   4.020   0.600 -0.5045  0.8384 -0.2033
 1446WAT    EPW 6506   7.288   3.954   0.602  0.6560  0.0484 -0.7524
 1447WAT      O 6507   5.112   3.379   2.731  0.5921 -0.1673 -0.0115
 1447WAT     H1 6508   5.111   3.464   2.709  2.6799  0.3534  1.5059
 1447WAT     H2 6509   5.192   3.353   2.708  0.0527 -1.7093 -0.2645
 1447WAT    EPW 6510   5.124   3.388   2.725  0.8208 -0.3182  0.1753
 1448WAT      O 6511   0.828   6.981   1.322 -0.1122 -0.2111 -0.2443
 1448WAT     H1 6512   0.742   6.999   1.320  0.0727  0.6374 -1.2942
 1448WAT     H2 6513   0.856   7.009   1.245  1.0291 -0.9701 -0.1152
 1448WAT    EPW 6514   0.819   6.988   1.310  0.0837 -0.1979 -0.3803
 1449WAT      O 6515   4.535   6.746   7.106 -0.4061  0.1541  0.0400
 1449WAT     H1 6516   4.584   6.677   7.125 -1.0408 -1.0430 -2.2968
 1449WAT     H2 6517   4.496   6.765   7.182  1.2913 -0.7558  1.2096
 1449WAT    EPW 6518   4.536   6.739   7.120 -0.2491 -0.1571 -0.1324
 1450WAT      O 6519   3.140   5.178   1.619  0.4799 -0.0179  0.1044
 1450WAT     H1 6520   3.121   5.263   1.615 -0.8259 -0.3320 -1.2108
 1450WAT     H2 6521   3.100   5.152   1.692 -0.5406  0.1865 -0.3685
 1450WAT    EPW 6522   3.132   5.187   1.629  0.1363 -0.0341 -0.1597
 1451WAT      O 6523   1.122   6.316   2.299  0.0034 -0.1438 -0.6690
 1451WAT     H1 6524   1.067   6.252   2.275 -0.6947  0.0278  0.3791
 1451WAT     H2 6525   1.168   6.279   2.363 -0.3969  0.3935 -0.0668
 1451WAT    EPW 6526   1.121   6.301   2.305 -0.1589 -0.0391 -0.4252
 1452WAT      O 6527   0.572   6.222   5.475  0.5175 -0.2140  0.5097
 1452WAT     H1 6528   0.513   6.286   5.478  1.0796  0.3518 -0.1954
 1452WAT     H2 6529   0.631   6.251   5.418  1.5813 -0.6905  1.3506
 1452WAT    EPW 6530   0.572   6.235   5.467  0.7577 -0.2008  0.5297
 1453WAT      O 6531   0.050   0.608   5.604  0.2859 -0.1325  0.2557
 1453WAT     H1 6532   0.054   0.596   5.518 -0.8354 -0.6558  0.2657
 1453WAT     H2 6533   0.132   0.630   5.625  0.9900 -1.7163 -0.6876
 1453WAT    EPW 6534   0.063   0.610   5.595  0.2243 -0.4437  0.1178
 1454WAT      O 6535   6.499   1.440   1.717  0.2693 -0.5213 -0.7039
 1454WAT     H1 6536   6.460   1.458   1.641  0.1279  0.3922 -0.4315
 1454WAT     H2 6537   6.584   1.449   1.699  0.1894  0.8533 -0.4943
 1454WAT    EPW 6538   6.506   1.444   1.703  0.2366 -0.1833 -0.6327
 1455WAT      O 6539   6.225   2.377   0.054 -0.1777  0.1786 -0.7504
 1455WAT     H1 6540   6.279   2.322   0.094 -2.4680 -1.0734  0.8669
 1455WAT     H2 6541   6.156   2.327   0.033 -0.9034  1.7362 -2.3934
 1455WAT    EPW 6542   6.223   2.362   0.057 -0.6232  0.2238 -0.7542
 1456WAT      O 6543   2.115   6.101   5.890 -0.2213 -0.2836  0.4391
 1456WAT     H1 6544   2.095   6.032   5.939 -0.2746 -0.2630  0.4466
 1456WAT     H2 6545   2.077   6.082   5.813 -1.5688  0.4261  0.8872
 1456WAT    EPW 6546   2.106   6.088   5.886 -0.4282 -0.1757  0.5064
 1457WAT      O 6547   6.352   4.458   1.128 -0.1002  0.0158  0.2106
 1457WAT     H1 6548   6.402   4.475   1.197  0.1560 -2.5056  0.7147
 1457WAT     H2 6549   6.407   4.463   1.061  0.6318 -1.6710  0.6542
 1457WAT    EPW 6550   6.367   4.462   1.128  0.0457 -0.6059  0.3506
 1458WAT      O 6551   0.223   4.873   2.956 -0.4060 -0.2050 -0.0454
 1458WAT     H1 6552   0.176   4.849   2.886 -0.4308 -1.1315  0.2776
 1458WAT     H2 6553   0.302   4.841   2.939 -0.3809 -0.3265  0.2985
 1458WAT    EPW 6554   0.228   4.865   2.943 -0.4060 -0.3598  0.0531
 1459WAT      O 6555   4.747   0.610   7.013 -0.1256  0.4705  0.3792
 1459WAT     H1 6556   4.793   0.579   7.081  1.9497 -0.6411 -1.4082
 1459WAT     H2 6557   4.705   0.540   6.984 -0.3566  0.7487  0.0403
 1459WAT    EPW 6558   4.748   0.595   7.019  0.1469  0.3474  0.0651
 1460WAT      O 6559   3.325   2.606   1.334 -0.1167 -0.1440  0.3618
 1460WAT     H1 6560   3.272   2.572   1.394 -0.0970 -1.5584 -0.3929
 1460WAT     H2 6561   3.405   2.587   1.365 -0.0452  0.8995  0.8723
 1460WAT    EPW 6562   3.329   2.598   1.347 -0.1032 -0.1988  0.3258
 1461WAT      O 6563   2.077   1.858   0.059  0.2520 -0.2073  0.2581
 1461WAT     H1 6564   2.123   1.849  -0.015  0.2561 -0.4908  0.2958
 1461WAT     H2 6565   2.019   1.920   0.039  0.3595 -0.1666  0.0680
 1461WAT    EPW 6566   2.075   1.866   0.045  0.2685 -0.2432  0.2356
 1462WAT      O 6567   4.313   1.292   5.944  0.2607 -0.6148 -0.1149
 1462WAT     H1 6568   4.299   1.335   5.869 -0.9925  0.3466  0.6255
 1462WAT     H2 6569   4.360   1.349   5.991 -1.0957 -0.1451  0.7374
 1462WAT    EPW 6570   4.318   1.307   5.940 -0.1248 -0.4034  0.1204
 1463WAT      O 6571   6.616   3.438   7.034  0.1905  0.1602  1.3146
 1463WAT     H1 6572   6.537   3.403   7.046  0.4492 -0.3665  1.5041
 1463WAT     H2 6573   6.667   3.368   7.021  0.1498  0.5657 -1.7498
 1463WAT    EPW 6574   6.612   3.422   7.034  0.2227  0.1423  0.8899
 1464WAT      O 6575   3.762   5.043   2.468  0.4089 -0.3408  0.0053
 1464WAT     H1 6576   3.767   4.959   2.492  1.6989 -0.0065  1.0192
 1464WAT     H2 6577   3.773   5.086   2.543 -0.1491  0.7352 -0.5193
 1464WAT    EPW 6578   3.765   5.037   2.482  0.5170 -0.1325  0.0776
 1465WAT      O 6579   0.325   4.853   5.643  0.3529  0.5591 -0.7376
 1465WAT     H1 6580   0.242   4.878   5.645 -0.6597 -2.1401  3.3352
 1465WAT     H2 6581   0.361   4.896   5.711  1.3561 -0.7962 -0.3667
 1465WAT    EPW 6582   0.318   4.863   5.653  0.3515 -0.0398 -0.0812
 1466WAT      O 6583   1.637   6.037   0.649  0.0591 -0.0735  0.3699
 1466WAT     H1 6584   1.648   6.059   0.565  0.8975  1.1126  0.7687
 1466WAT     H2 6585   1.693   6.088   0.691 -0.8039 -0.2002  1.7250
 1466WAT    EPW 6586   1.647   6.047   0.642  0.0555  0.0830  0.6290
 1467WAT      O 6587   0.135   1.916   0.133  0.4048 -0.0861 -0.2860
 1467WAT     H1 6588   0.139   1.900   0.218 -0.0714  0.3888 -0.1706
 1467WAT     H2 6589   0.131   1.837   0.097  1.3509 -0.3099  0.0856
 1467WAT    EPW 6590   0.135   1.902   0.140  0.4742 -0.0490 -0.2141
 1468WAT      O 6591   0.045   6.703   0.616 -0.3890 -0.2672  0.3888
 1468WAT     H1 6592   0.029   6.682   0.533 -1.6073  1.2914  0.1759
 1468WAT     H2 6593   0.121   6.744   0.613  0.4931 -1.8342  0.3624
 1468WAT    EPW 6594   0.054   6.706   0.604 -0.4386 -0.2685  0.3535
 1469WAT      O 6595   6.240   4.262   0.585  0.0314 -0.6767  0.3487
 1469WAT     H1 6596   6.315   4.223   0.565  0.6786  0.5915  0.1639
 1469WAT     H2 6597   6.192   4.250   0.513  0.4525 -0.6008  0.0474
 1469WAT    EPW 6598   6.244   4.255   0.571  0.1892 -0.4781  0.2769
 1470WAT      O 6599   2.104   2.527   2.566 -0.0278  0.7510  0.7135
 1470WAT     H1 6600   2.175   2.530   2.515 -0.3378  0.9546  0.2904
 1470WAT     H2 6601   2.062   2.455   2.538  0.4042  0.1722  1.5005
 1470WAT    EPW 6602   2.108   2.517   2.555 -0.0097  0.6956  0.7673
 1471WAT      O 6603   1.886   3.076   6.323  0.0411 -0.1703  0.3490
 1471WAT     H1 6604   1.841   3.116   6.386  0.7897  0.1899  0.6700
 1471WAT     H2 6605   1.828   3.069   6.258 -1.0089 -1.3355  1.3667
 1471WAT    EPW 6606   1.871   3.081   6.323 -0.0034 -0.2892  0.5468
 1472WAT      O 6607   6.438   3.490   4.465 -0.1577 -0.4212 -0.0244
 1472WAT     H1 6608   6.368   3.542   4.461  1.0915  1.4351  1.2684
 1472WAT     H2 6609   6.472   3.496   4.385 -0.2982  0.3743 -0.0327
 1472WAT    EPW 6610   6.433   3.498   4.452  0.0061 -0.0295  0.1654
 1473WAT      O 6611   4.051   5.163   2.804  0.1659 -0.6623 -0.1708
 1473WAT     H1 6612   4.058   5.246   2.776  0.5580 -0.2414  1.1294
 1473WAT     H2 6613   3.982   5.133   2.761 -1.2322  0.9815  0.8292
 1473WAT    EPW 6614   4.042   5.171   2.793  0.0173 -0.3573  0.1690
 1474WAT      O 6615   5.741   2.900   5.764 -0.3239  0.0852 -0.2889
 1474WAT     H1 6616   5.762   2.841   5.824 -0.2338  1.5747  1.2225
 1474WAT     H2 6617   5.816   2.941   5.749 -0.8283  1.3130  0.4261
 1474WAT    EPW 6618   5.755   2.897   5.770 -0.3851  0.4866  0.0400
 1475WAT      O 6619   1.106   0.106   1.076 -0.4005  0.0597  0.8153
 1475WAT     H1 6620   1.039   0.104   1.020  0.2478 -1.7627  0.0236
 1475WAT     H2 6621   1.079   0.054   1.141 -0.4530  0.7741  1.3753
 1475WAT    EPW 6622   1.092   0.098   1.077 -0.3125 -0.1040  0.7811
 1476WAT      O 6623   1.039   5.986   1.638  0.1754 -0.0724 -0.1992
 1476WAT     H1 6624   1.099   6.017   1.583  0.2429 -0.8239 -0.5559
 1476WAT     H2 6625   1.035   6.047   1.701  1.4806 -0.1370 -0.0365
 1476WAT    EPW 6626   1.047   6.000   1.639  0.3782 -0.1929 -0.2279
 1477WAT      O 6627   1.587   1.521   2.431  0.1676 -0.1778 -0.0489
 1477WAT     H1 6628   1.653   1.483   2.473 -0.4049  0.5965  1.6305
 1477WAT     H2 6629   1.535   1.455   2.409 -0.2183 -0.5172  1.7704
 1477WAT    EPW 6630   1.589   1.506   2.434  0.0260 -0.1136  0.4679
 1478WAT      O 6631   4.439   2.797   5.512 -0.6280 -0.0506 -0.2489
 1478WAT     H1 6632   4.455   2.837   5.588  0.6247 -2.1566  0.6945
 1478WAT     H2 6633   4.357   2.821   5.493 -0.7606  1.0050  1.4569
 1478WAT    EPW 6634   4.429   2.806   5.521 -0.4625 -0.2057  0.1425
 1479WAT      O 6635   1.092   3.628   2.428 -0.6599  0.5250  0.0470
 1479WAT     H1 6636   1.021   3.587   2.397  0.4216 -2.7568  1.4538
 1479WAT     H2 6637   1.136   3.649   2.356 -1.9532  0.5596 -0.7759
 1479WAT    EPW 6638   1.088   3.625   2.413 -0.6912  0.0453  0.1333
 1480WAT      O 6639   5.759   1.604   1.594 -0.5494 -0.6113 -0.3994
 1480WAT     H1 6640   5.719   1.571   1.525  1.0979 -0.6578 -1.3950
 1480WAT     H2 6641   5.822   1.545   1.612  0.1865  0.2621 -0.0036
 1480WAT    EPW 6642   5.763   1.590   1.587 -0.1973 -0.4892 -0.4880
 1481WAT      O 6643   5.492   3.150   1.065  0.1760  0.0740 -0.2204
 1481WAT     H1 6644   5.424   3.174   1.113  0.3513  1.6510 -0.7113
 1481WAT     H2 6645   5.552   3.128   1.125 -0.0547  0.7080  0.2558
 1481WAT    EPW 6646   5.491   3.150   1.081  0.1678  0.4006 -0.2226
 1482WAT      O 6647   0.441   3.740   0.343  0.4856  0.0910 -0.1692
 1482WAT     H1 6648   0.373   3.794   0.330 -0.4578 -1.1198 -0.5086
 1482WAT     H2 6649   0.417   3.667   0.300  1.5111 -0.7503  0.6387
 1482WAT    EPW 6650   0.427   3.737   0.335  0.4977 -0.2121 -0.1000
 1483WAT      O 6651   1.782   5.397   5.099  0.1413  0.0907  0.2333
 1483WAT     H1 6652   1.868   5.412   5.105  0.1238 -0.1107  1.0550
 1483WAT     H2 6653   1.756   5.390   5.182 -0.5692 -0.4200 -0.0166
 1483WAT    EPW 6654   1.791   5.398   5.112  0.0337 -0.0145  0.3177
 1484WAT      O 6655   4.709   2.299   2.648  0.1963 -0.2869  0.0810
 1484WAT     H1 6656   4.773   2.325   2.702 -1.2718  0.6313  1.4745
 1484WAT     H2 6657   4.705   2.362   2.589  0.0664  0.0533  0.4494
 1484WAT    EPW 6658   4.718   2.312   2.647 -0.0398 -0.1010  0.3413
 1485WAT      O 6659   4.503   5.294   5.745 -0.2017  0.4974 -0.3116
 1485WAT     H1 6660   4.469   5.254   5.675 -1.0547 -0.1440  0.4285
 1485WAT     H2 6661   4.520   5.228   5.800  1.1432  0.9243 -0.1784
 1485WAT    EPW 6662   4.500   5.278   5.743 -0.1291  0.4657 -0.1826
 1486WAT      O 6663   2.156   0.846   4.584 -0.1088  0.3855  0.3890
 1486WAT     H1 6664   2.130   0.765   4.604 -0.8169  0.8012  1.2366
 1486WAT     H2 6665   2.098   0.896   4.626  0.9980  1.3418  0.8070
 1486WAT    EPW 6666   2.144   0.841   4.593 -0.0499  0.5882  0.5759
 1487WAT      O 6667   7.182   2.032   0.419  0.3293 -0.1547  0.2469
 1487WAT     H1 6668   7.188   2.110   0.381  1.3470 -0.1724  0.3456
 1487WAT     H2 6669   7.187   2.049   0.504 -0.0658 -0.2847  0.3022
 1487WAT    EPW 6670   7.183   2.046   0.426  0.4213 -0.1765  0.2696
 1488WAT      O 6671   5.897   1.176   5.200  0.0819  0.3515 -0.0667
 1488WAT     H1 6672   5.870   1.232   5.138  0.6453  1.4385  0.6453
 1488WAT     H2 6673   5.982   1.195   5.209  0.7381 -1.7856 -0.9956
 1488WAT    EPW 6674   5.906   1.187   5.192  0.2620  0.1963 -0.0987
 1489WAT      O 6675   4.524   1.809   6.392 -0.0146 -0.4932  0.0183
 1489WAT     H1 6676   4.443   1.789   6.417  0.4502 -0.6230  1.5348
 1489WAT     H2 6677   4.570   1.804   6.466  1.2156  0.4746 -0.6448
 1489WAT    EPW 6678   4.519   1.805   6.407  0.2358 -0.3694  0.1444
 1490WAT      O 6679   5.180   3.623   2.605 -0.0357 -0.2840  0.4096
 1490WAT     H1 6680   5.221   3.667   2.669 -1.2022 -0.7828  1.5330
 1490WAT     H2 6681   5.134   3.685   2.564  0.0912 -0.0914  0.5581
 1490WAT    EPW 6682   5.179   3.639   2.608 -0.1893 -0.3292  0.5975
 1491WAT      O 6683   0.608   4.376   3.550 -0.3612  0.4756 -0.2027
 1491WAT     H1 6684   0.533   4.420   3.542 -0.9235 -0.3208  0.4042
 1491WAT     H2 6685   0.669   4.433   3.525 -1.3838  0.0129 -4.4643
 1491WAT    EPW 6686   0.606   4.391   3.545 -0.5953  0.2896 -0.7426
 1492WAT      O 6687   4.981   6.116   5.251  0.2072 -0.0534  0.2284
 1492WAT     H1 6688   5.052   6.161   5.275  0.4684 -0.7863  0.8495
 1492WAT     H2 6689   4.929   6.120   5.321  0.0934 -0.4388  0.1668
 1492WAT    EPW 6690   4.984   6.124   5.265  0.2290 -0.2186  0.3111
 1493WAT      O 6691   0.477   6.226   1.795 -0.2170  0.2624  0.1870
 1493WAT     H1 6692   0.402   6.183   1.788  0.3945 -0.9163  0.5634
 1493WAT     H2 6693   0.470   6.269   1.870 -1.1650  1.5320 -0.5881
 1493WAT    EPW 6694   0.465   6.226   1.805 -0.2667  0.2758  0.1281
 1494WAT      O 6695   0.416   0.904   5.806  0.1316 -0.0935  0.5593
 1494WAT     H1 6696   0.439   0.897   5.890 -0.2056  0.3384  0.6895
 1494WAT     H2 6697   0.492   0.895   5.764  0.4162  0.4225  0.9457
 1494WAT    EPW 6698   0.431   0.901   5.812  0.1238  0.0465  0.6356
 1495WAT      O 6699   4.826   3.628   4.121 -0.5625  0.2854 -0.4112
 1495WAT     H1 6700   4.830   3.570   4.187 -1.9329 -0.0938 -0.6388
 1495WAT     H2 6701   4.745   3.660   4.126  0.0997  2.1205 -0.3792
 1495WAT    EPW 6702   4.815   3.624   4.132 -0.6671  0.5005 -0.4401
 1496WAT      O 6703   6.485   3.643   2.687 -0.6507  0.2552  0.1825
 1496WAT     H1 6704   6.492   3.729   2.675 -0.5297  0.4414  1.4429
 1496WAT     H2 6705   6.433   3.637   2.757 -1.9436 -0.7426 -0.8121
 1496WAT    EPW 6706   6.478   3.655   2.695 -0.8238  0.1353  0.2218
 1497WAT      O 6707   1.394   2.357   1.052  0.3187 -0.3285 -0.4868
 1497WAT     H1 6708   1.388   2.272   1.072 -1.3047  0.1291  1.2338
 1497WAT     H2 6709   1.445   2.389   1.115 -2.8864  0.7050  1.8422
 1497WAT    EPW 6710   1.401   2.349   1.064 -0.3945 -0.1082  0.1114
 1498WAT      O 6711   2.825   6.356   6.332  0.0758  0.1393  0.1111
 1498WAT     H1 6712   2.820   6.393   6.411  0.1702 -1.9228  1.1348
 1498WAT     H2 6713   2.855   6.276   6.348 -0.9029 -0.7099 -1.9100
 1498WAT    EPW 6714   2.829   6.350   6.346 -0.0548 -0.2908 -0.0362
 1499WAT      O 6715   5.411   2.379   2.584  0.4427 -0.3650 -0.3413
 1499WAT     H1 6716   5.351   2.318   2.598 -0.0499  0.2858  0.5096
 1499WAT     H2 6717   5.455   2.382   2.659  0.6363  0.1179 -0.4689
 1499WAT    EPW 6718   5.408   2.371   2.597  0.3985 -0.1975 -0.2345
 1500WAT      O 6719   1.952   5.245   4.786 -0.3355 -0.4266 -0.6646
 1500WAT     H1 6720   1.883   5.274   4.831  1.3018  0.5881  1.4125
 1500WAT     H2 6721   1.960   5.162   4.812  2.0728  0.7538  3.3564
 1500WAT    EPW 6722   1.943   5.237   4.797  0.2621 -0.1024  0.2362
 1501WAT      O 6723   1.563   1.303   3.374  0.3189 -0.0657 -0.1914
 1501WAT     H1 6724   1.507   1.243   3.404  0.3247 -0.1541 -0.3555
 1501WAT     H2 6725   1.577   1.279   3.291  1.2321 -0.5234  0.0807
 1501WAT    EPW 6726   1.557   1.291   3.366  0.4546 -0.1464 -0.1755
 1502WAT      O 6727   1.435   0.015   7.354 -0.3024  0.0266 -0.0500
 1502WAT     H1 6728   1.414   0.043   7.434 -2.6644 -2.1481  0.2111
 1502WAT     H2 6729   1.468  -0.064   7.368 -1.1431 -0.5674 -1.2240
 1502WAT    EPW 6730   1.437   0.007   7.368 -0.7755 -0.3824 -0.1849
 1503WAT      O 6731   0.468   5.131   3.476 -0.0083  0.8197 -0.7109
 1503WAT     H1 6732   0.480   5.218   3.476 -0.4140  1.0836  3.1095
 1503WAT     H2 6733   0.543   5.100   3.509 -0.8493  0.0497  0.5539
 1503WAT    EPW 6734   0.481   5.140   3.481 -0.1925  0.7449  0.0403
 1504WAT      O 6735   1.686   5.867   6.004  0.2833 -0.6252  0.0084
 1504WAT     H1 6736   1.646   5.814   6.060 -2.8224  0.2884 -1.1411
 1504WAT     H2 6737   1.701   5.939   6.051  0.8047 -1.0619  0.5152
 1504WAT    EPW 6738   1.683   5.870   6.019 -0.0984 -0.5547 -0.0865
 1505WAT      O 6739   5.857   1.344   1.363 -0.4056  0.7189  0.0090
 1505WAT     H1 6740   5.921   1.372   1.311 -1.2673  0.4071 -1.2459
 1505WAT     H2 6741   5.886   1.363   1.443 -0.4540  4.3421 -0.6461
 1505WAT    EPW 6742   5.870   1.351   1.367 -0.5400  1.2081 -0.2731
 1506WAT      O 6743   4.687   6.351   4.477 -0.8100 -0.0152 -0.0243
 1506WAT     H1 6744   4.663   6.348   4.393  0.6664 -0.0086 -0.4630
 1506WAT     H2 6745   4.660   6.430   4.503 -0.1141  0.5215 -0.8754
 1506WAT    EPW 6746   4.679   6.363   4.469 -0.4891  0.0651 -0.2148
 1507WAT      O 6747   0.256   3.900   0.288 -0.5924  1.0689  0.5031
 1507WAT     H1 6748   0.287   3.966   0.336 -1.2763  1.1355  0.8665
 1507WAT     H2 6749   0.297   3.910   0.212  0.0345  1.3399  0.8626
 1507WAT    EPW 6750   0.267   3.912   0.284 -0.6008  1.1188  0.6099
 1508WAT      O 6751   3.883   4.016   6.236  0.1390 -0.5470 -0.3567
 1508WAT     H1 6752   3.934   4.083   6.258 -1.1964  0.8406 -1.2780
 1508WAT     H2 6753   3.887   4.014   6.148 -1.5959 -0.1922 -0.4766
 1508WAT    EPW 6754   3.891   4.025   6.226 -0.3146 -0.2897 -0.5105
 1509WAT      O 6755   4.306   4.200   3.884  0.3812 -0.1989  0.1191
 1509WAT     H1 6756   4.264   4.127   3.909 -1.0672 -0.2583 -2.1506
 1509WAT     H2 6757   4.276   4.261   3.939 -1.1916 -0.6590 -0.1849
 1509WAT    EPW 6758   4.295   4.198   3.896 -0.0651 -0.2756 -0.2611
 1510WAT      O 6759   3.630   0.173   7.097 -0.5266  0.0801 -0.0632
 1510WAT     H1 6760   3.643   0.111   7.157 -0.2944 -0.3617 -0.5669
 1510WAT     H2 6761   3.627   0.246   7.145 -1.3823 -0.3642  0.5962
 1510WAT    EPW 6762   3.632   0.175   7.113 -0.6187 -0.0508 -0.0402
 1511WAT      O 6763   6.197   0.049   0.178 -0.1846  0.1856  0.1997
 1511WAT     H1 6764   6.251   0.024   0.241 -1.1788 -0.0504  0.9851
 1511WAT     H2 6765   6.163   0.124   0.209  0.6777  1.0713 -0.8857
 1511WAT    EPW 6766   6.200   0.057   0.192 -0.2041  0.2816  0.1554
 1512WAT      O 6767   5.218   4.063   5.018 -0.0164  0.2452  0.0439
 1512WAT     H1 6768   5.227   3.995   4.963 -1.4598 -0.7001  0.8830
 1512WAT     H2 6769   5.153   4.109   4.983 -1.1247 -0.5026  1.0237
 1512WAT    EPW 6770   5.209   4.060   5.005 -0.3933 -0.0049  0.3126
 1513WAT      O 6771   1.404   2.813   7.361 -0.4849 -0.6466  0.2229
 1513WAT     H1 6772   1.485   2.792   7.339 -0.3440 -1.2717  1.2903
 1513WAT     H2 6773   1.357   2.743   7.338 -0.0113 -2.3473  3.7990
 1513WAT    EPW 6774   1.409   2.800   7.355 -0.3941 -0.9902  0.9088
 1514WAT      O 6775   1.774   5.304   1.829 -0.7485  0.1663 -0.2572
 1514WAT     H1 6776   1.715   5.240   1.820 -1.3756  0.7328 -0.2626
 1514WAT     H2 6777   1.824   5.277   1.896 -0.1820 -0.9341 -1.0912
 1514WAT    EPW 6778   1.773   5.291   1.838 -0.7575  0.0875 -0.3812
 1515WAT      O 6779   3.728   5.841   3.728  0.3826 -0.0859 -0.1887
 1515WAT     H1 6780   3.740   5.844   3.642 -1.1360  1.2473 -0.3989
 1515WAT     H2 6781   3.799   5.881   3.760  0.5261  0.2093 -0.8687
 1515WAT    EPW 6782   3.740   5.847   3.720  0.1795  0.1546 -0.3202
 1516WAT      O 6783   2.187   6.677   6.972  0.0257  0.3090  0.0406
 1516WAT     H1 6784   2.149   6.749   7.004 -0.7630 -0.3289  0.6020
 1516WAT     H2 6785   2.120   6.622   6.962  0.9449 -1.6365  3.1009
 1516WAT    EPW 6786   2.171   6.679   6.976  0.0450 -0.0726  0.5756
 1517WAT      O 6787   0.524   3.158   3.894  0.4609  0.7179  0.3285
 1517WAT     H1 6788   0.541   3.088   3.844  0.3147  0.7556  0.2235
 1517WAT     H2 6789   0.603   3.192   3.910  0.4476  1.3299 -0.7820
 1517WAT    EPW 6790   0.538   3.153   3.889  0.4373  0.8139  0.1490
 1518WAT      O 6791   6.623   1.177   3.108 -0.9076 -0.4524  0.4239
 1518WAT     H1 6792   6.604   1.134   3.035 -0.3890  0.1075 -0.0471
 1518WAT     H2 6793   6.667   1.118   3.155 -0.0590 -0.3978 -0.2841
 1518WAT    EPW 6794   6.627   1.162   3.104 -0.7057 -0.3616  0.2497
 1519WAT      O 6795   5.416   6.808   4.737  0.4856  0.0569  0.1351
 1519WAT     H1 6796   5.474   6.792   4.800  0.3953 -0.5144  0.0819
 1519WAT     H2 6797   5.465   6.828   4.668  0.5885  0.5580  0.3562
 1519WAT    EPW 6798   5.432   6.808   4.736  0.4875  0.0465  0.1599
 1520WAT      O 6799   7.321   5.077   1.351  0.1625  0.4705 -0.2689
 1520WAT     H1 6800   7.307   5.157   1.319  0.0533 -0.0542 -1.6016
 1520WAT     H2 6801   7.260   5.069   1.414 -0.3210  1.1551 -0.6349
 1520WAT    EPW 6802   7.310   5.088   1.356  0.0749  0.4941 -0.5198
 1521WAT      O 6803   4.559   2.468   1.533 -0.2078 -0.6316 -0.3267
 1521WAT     H1 6804   4.527   2.528   1.479  3.3272  1.0483 -0.8461
 1521WAT     H2 6805   4.561   2.396   1.485 -1.6355 -0.4159 -0.7511
 1521WAT    EPW 6806   4.554   2.467   1.518  0.1035 -0.3516 -0.4661
 1522WAT      O 6807   4.387   2.021   2.293  0.4979 -0.3450 -0.1719
 1522WAT     H1 6808   4.457   2.044   2.340 -0.0827  3.3573 -0.8557
 1522WAT     H2 6809   4.397   2.066   2.219 -2.1427 -0.4484 -0.6712
 1522WAT    EPW 6810   4.399   2.031   2.289  0.0221  0.1867 -0.3466
 1523WAT      O 6811   2.537   4.655   7.154  0.3976  0.1347 -0.0544
 1523WAT     H1 6812   2.462   4.652   7.199  0.0743 -1.5595 -0.6161
 1523WAT     H2 6813   2.533   4.584   7.103  3.0157 -0.8565  0.9138
 1523WAT    EPW 6814   2.525   4.644   7.153  0.7366 -0.2620  0.0057
 1524WAT      O 6815   1.683   5.043   5.362 -0.0041 -0.1059  0.4068
 1524WAT     H1 6816   1.608   5.012   5.396 -2.4917  1.2597 -3.2051
 1524WAT     H2 6817   1.665   5.126   5.344  1.7471 -0.1643 -2.1398
 1524WAT    EPW 6818   1.669   5.051   5.364 -0.1128  0.0872 -0.5029
 1525WAT      O 6819   6.808   1.308   3.392 -0.2987 -0.1079 -0.0952
 1525WAT     H1 6820   6.784   1.287   3.474 -0.2233 -1.0801 -0.3071
 1525WAT     H2 6821   6.798   1.394   3.389 -0.9826 -0.1423  0.7280
 1525WAT    EPW 6822   6.803   1.317   3.404 -0.3886 -0.2566 -0.0049
 1526WAT      O 6823   5.928   4.225   3.587 -0.4027  0.2431 -0.1853
 1526WAT     H1 6824   5.860   4.202   3.537  0.4147  0.6078 -1.5258
 1526WAT     H2 6825   5.937   4.310   3.571  0.8133  0.0507 -0.6219
 1526WAT    EPW 6826   5.919   4.234   3.577 -0.1023  0.2686 -0.4478
 1527WAT      O 6827   6.709   5.394   0.904 -0.1061 -0.7481  0.1598
 1527WAT     H1 6828   6.658   5.463   0.889  2.9676  1.9945  1.0634
 1527WAT     H2 6829   6.739   5.373   0.825  1.1665  0.9720  0.1276
 1527WAT    EPW 6830   6.706   5.401   0.890  0.5359 -0.0889  0.2885
 1528WAT      O 6831   1.141   6.882   4.155  0.3876  0.2668  0.4281
 1528WAT     H1 6832   1.138   6.801   4.121  1.1789  0.1877  0.5282
 1528WAT     H2 6833   1.102   6.873   4.232  1.3633 -0.2484  0.8692
 1528WAT    EPW 6834   1.135   6.868   4.161  0.6486  0.1790  0.5081
 1529WAT      O 6835   0.630   4.574   3.199  0.2461  0.2414 -0.6255
 1529WAT     H1 6836   0.610   4.659   3.206  1.3039  0.4833 -0.4091
 1529WAT     H2 6837   0.552   4.536   3.190 -0.2172  1.2926 -1.3608
 1529WAT    EPW 6838   0.615   4.581   3.199  0.3339  0.4324 -0.7021
 1530WAT      O 6839   4.636   5.482   5.616 -0.2535  0.3133  0.3159
 1530WAT     H1 6840   4.586   5.427   5.662  1.4960 -2.1845 -0.5583
 1530WAT     H2 6841   4.611   5.469   5.534  0.8924 -0.0319 -0.0019
 1530WAT    EPW 6842   4.625   5.472   5.611  0.1742 -0.1066  0.1398
 1531WAT      O 6843   5.378   2.596   4.652 -0.3446  0.2335  0.0035
 1531WAT     H1 6844   5.416   2.616   4.728  0.5157  0.1269 -0.3949
 1531WAT     H2 6845   5.397   2.664   4.601 -0.5764  0.1107 -0.2468
 1531WAT    EPW 6846   5.386   2.609   4.656 -0.2517  0.1996 -0.0924
 1532WAT      O 6847   6.105   2.452   0.366  0.2550  0.1001 -0.0435
 1532WAT     H1 6848   6.099   2.516   0.307  0.4794 -0.2342 -0.4446
 1532WAT     H2 6849   6.166   2.480   0.421 -0.1092  0.5116  0.1512
 1532WAT    EPW 6850   6.113   2.465   0.365  0.2343  0.1115 -0.0740
 1533WAT      O 6851   3.872   4.508   1.145  0.0525  0.0313 -0.1703
 1533WAT     H1 6852   3.914   4.434   1.125 -1.8984 -1.0326 -0.6095
 1533WAT     H2 6853   3.894   4.561   1.080 -0.2313 -0.9244 -1.0861
 1533WAT    EPW 6854   3.881   4.505   1.132 -0.2776 -0.2671 -0.3704
 1534WAT      O 6855   1.334   7.217   5.822  0.3175 -0.3982  0.1925
 1534WAT     H1 6856   1.253   7.243   5.843  0.5111  1.8295 -1.4132
 1534WAT     H2 6857   1.335   7.133   5.846 -2.2519 -0.3444  0.8584
 1534WAT    EPW 6858   1.322   7.208   5.829 -0.0335 -0.0612  0.0537
 1535WAT      O 6859   2.977   1.655   2.529  0.3906 -0.1112  0.8275
 1535WAT     H1 6860   2.905   1.691   2.494  2.2689  1.3247 -1.8903
 1535WAT     H2 6861   2.987   1.581   2.484  2.5200  1.4831 -1.5755
 1535WAT    EPW 6862   2.968   1.650   2.517  0.9826  0.3364  0.0711
 1536WAT      O 6863   6.410   2.412   0.997 -0.6032 -0.4990  0.2857
 1536WAT     H1 6864   6.338   2.410   0.948  0.4738  0.0570 -1.4373
 1536WAT     H2 6865   6.475   2.414   0.938  0.7582  1.0812  1.7083
 1536WAT    EPW 6866   6.409   2.412   0.981 -0.2430 -0.1834  0.2413
 1537WAT      O 6867   5.543   5.999   6.787 -0.3077 -0.6853  0.1384
 1537WAT     H1 6868   5.496   5.932   6.756 -0.8350  0.4880 -1.7557
 1537WAT     H2 6869   5.530   5.996   6.873 -1.8238 -1.8773 -0.0979
 1537WAT    EPW 6870   5.534   5.988   6.795 -0.6096 -0.6881 -0.1763
 1538WAT      O 6871   0.791   1.217   2.582  0.0185 -0.1323 -0.7874
 1538WAT     H1 6872   0.811   1.222   2.497  1.1597  0.7884 -0.4806
 1538WAT     H2 6873   0.856   1.170   2.616 -1.3582 -2.0924 -0.6669
 1538WAT    EPW 6874   0.803   1.211   2.574 -0.0163 -0.2859 -0.7243
 1539WAT      O 6875   4.192   2.656   0.223  0.2656 -0.0822 -0.6745
 1539WAT     H1 6876   4.214   2.739   0.238 -0.9307  0.4435 -1.6970
 1539WAT     H2 6877   4.156   2.631   0.299  1.3189  0.0684 -0.1018
 1539WAT    EPW 6878   4.190   2.665   0.237  0.2445  0.0177 -0.7409
 1540WAT      O 6879   5.641   4.934   5.143 -0.0487 -0.3086 -0.0039
 1540WAT     H1 6880   5.569   4.979   5.124 -0.4805 -0.3128  1.5025
 1540WAT     H2 6881   5.695   4.954   5.078 -0.5725  1.5974  0.0764
 1540WAT    EPW 6882   5.638   4.944   5.131 -0.1898 -0.0277  0.2305
 1541WAT      O 6883   6.234   3.448   4.253  0.1449  0.1386  0.4235
 1541WAT     H1 6884   6.282   3.381   4.227  1.8671  1.7712 -0.8693
 1541WAT     H2 6885   6.153   3.427   4.227  0.4548 -1.7728  0.8691
 1541WAT    EPW 6886   6.229   3.435   4.246  0.4451  0.0974  0.2983
 1542WAT      O 6887   0.570   4.661   4.716 -0.5175 -0.2697  0.1970
 1542WAT     H1 6888   0.638   4.661   4.660 -0.1239  1.4991  0.5936
 1542WAT     H2 6889   0.600   4.618   4.785 -0.5311 -1.2825 -0.4107
 1542WAT    EPW 6890   0.585   4.655   4.718 -0.4614 -0.1580  0.1658
 1543WAT      O 6891   7.144   2.839   2.707 -0.5612  0.2123  0.7024
 1543WAT     H1 6892   7.074   2.791   2.728 -0.0258 -1.5490 -1.1699
 1543WAT     H2 6893   7.142   2.905   2.763 -3.1400 -0.3412  1.3689
 1543WAT    EPW 6894   7.134   2.841   2.718 -0.8631 -0.1297  0.5243
 1544WAT      O 6895   1.446   7.198   5.233  0.0578 -0.0561 -0.4808
 1544WAT     H1 6896   1.411   7.125   5.202 -1.0015  1.0517 -2.0655
 1544WAT     H2 6897   1.414   7.204   5.314 -2.2268  0.0655 -1.3140
 1544WAT    EPW 6898   1.436   7.188   5.241 -0.4362  0.1255 -0.8380
 1545WAT      O 6899   1.603   5.566   1.037 -0.1892 -0.0668  0.6868
 1545WAT     H1 6900   1.528   5.535   1.069 -0.2685 -0.9814 -0.3588
 1545WAT     H2 6901   1.588   5.573   0.952  1.0053 -0.4996  0.4294
 1545WAT    EPW 6902   1.590   5.563   1.029 -0.0245 -0.2658  0.4943
 1546WAT      O 6903   6.971   6.847   6.462  0.4744 -0.1643 -0.0118
 1546WAT     H1 6904   7.019   6.787   6.422  1.5781  0.5766  0.1784
 1546WAT     H2 6905   6.975   6.824   6.546 -1.4716 -1.4561 -0.2001
 1546WAT    EPW 6906   6.978   6.834   6.469  0.3500 -0.2457 -0.0115
 1547WAT      O 6907   7.259   3.425   0.431  0.7908  0.2370  0.4607
 1547WAT     H1 6908   7.281   3.507   0.414  1.4770 -0.2766 -1.3458
 1547WAT     H2 6909   7.326   3.378   0.398 -0.4670 -1.1223 -0.2671
 1547WAT    EPW 6910   7.272   3.430   0.424  0.7063 -0.0397  0.0863
 1548WAT      O 6911   1.075   4.936   5.897  0.4837 -0.4069  0.1178
 1548WAT     H1 6912   1.118   4.878   5.946  0.5323 -1.7129 -1.3863
 1548WAT     H2 6913   1.112   4.928   5.818 -1.0512 -0.0163 -0.6870
 1548WAT    EPW 6914   1.087   4.926   5.892  0.2642 -0.5421 -0.2233
 1549WAT      O 6915   3.824   0.871   7.271 -0.4066 -0.6969 -0.5701
 1549WAT     H1 6916   3.867   0.824   7.330 -0.9063 -1.1684 -0.5690
 1549WAT     H2 6917   3.749   0.890   7.310 -0.7523 -1.0353 -1.0489
 1549WAT    EPW 6918   3.819   0.867   7.285 -0.5315 -0.8166 -0.6406
 1550WAT      O 6919   6.372   1.193   5.095 -0.0622  0.3352  0.0760
 1550WAT     H1 6920   6.415   1.256   5.052  0.5135 -0.3463 -0.3755
 1550WAT     H2 6921   6.359   1.132   5.034 -1.3582  0.3543  0.3040
 1550WAT    EPW 6922   6.377   1.194   5.080 -0.1686  0.2374  0.0430
 1551WAT      O 6923   3.129   0.420   5.820  0.7258 -0.0225  0.0555
 1551WAT     H1 6924   3.110   0.499   5.851  0.9082 -0.3256  0.9737
 1551WAT     H2 6925   3.069   0.406   5.758 -0.6575 -0.0341  1.3344
 1551WAT    EPW 6926   3.117   0.429   5.816  0.5484 -0.0690  0.3801
 1552WAT      O 6927   3.909   0.112   0.780 -0.0973 -0.1231  0.3749
 1552WAT     H1 6928   3.991   0.142   0.773  0.0893 -0.9884 -1.5662
 1552WAT     H2 6929   3.900   0.097   0.865  1.4588  0.7868  0.7359
 1552WAT    EPW 6930   3.920   0.114   0.792  0.1601 -0.1165  0.1415
 1553WAT      O 6931   7.230   3.265   4.769 -0.2953 -0.1431  0.1594
 1553WAT     H1 6932   7.312   3.237   4.755 -0.6570 -0.2516 -2.2149
 1553WAT     H2 6933   7.192   3.256   4.691 -3.1186 -1.7311  1.5604
 1553WAT    EPW 6934   7.236   3.260   4.756 -0.7658 -0.3937  0.0156
 1554WAT      O 6935   4.021   1.435   0.314 -0.0953  0.1774 -0.0536
 1554WAT     H1 6936   4.001   1.441   0.229  0.1024 -0.4907 -0.1563
 1554WAT     H2 6937   4.010   1.516   0.343  0.5775  0.5908 -0.8872
 1554WAT    EPW 6938   4.017   1.448   0.306  0.0333  0.1398 -0.1919
 1555WAT      O 6939   5.777   6.927   1.127  0.4322  0.0212  0.1263
 1555WAT     H1 6940   5.784   7.000   1.172 -0.4618 -0.6582  1.4277
 1555WAT     H2 6941   5.816   6.945   1.051  1.9094  1.2127  1.1331
 1555WAT    EPW 6942   5.784   6.940   1.122  0.5183  0.0969  0.4673
 1556WAT      O 6943   6.303   4.092   1.451  0.1971 -0.3248 -0.2821
 1556WAT     H1 6944   6.227   4.063   1.484  0.3621  0.3682  0.7349
 1556WAT     H2 6945   6.330   4.025   1.402 -0.4058 -1.1088  0.4140
 1556WAT    EPW 6946   6.296   4.078   1.449  0.1324 -0.3382 -0.0291
 1557WAT      O 6947   6.213   4.271   2.931 -0.1609 -0.0685 -0.4632
 1557WAT     H1 6948   6.159   4.271   3.000  0.7074 -0.5752  0.2389
 1557WAT     H2 6949   6.226   4.356   2.915  1.6467  0.1508  1.6566
 1557WAT    EPW 6950   6.207   4.283   2.939  0.2344 -0.1110 -0.0464
 1558WAT      O 6951   2.283   2.916   7.211  0.2810 -0.1762  0.3635
 1558WAT     H1 6952   2.196   2.923   7.205  0.4894  3.1507 -0.4809
 1558WAT     H2 6953   2.301   2.849   7.158 -1.6973 -0.5498  0.0787
 1558WAT    EPW 6954   2.273   2.907   7.202  0.0196  0.2601  0.1966
 1559WAT      O 6955   3.168   1.904   3.384  0.4160 -0.1024  0.5312
 1559WAT     H1 6956   3.222   1.960   3.343  0.6430  0.0601  1.0425
 1559WAT     H2 6957   3.138   1.951   3.451  0.2754 -0.4636  0.7190
 1559WAT    EPW 6958   3.172   1.919   3.388  0.4288 -0.1317  0.6345
 1560WAT      O 6959   5.372   5.642   4.723  0.1287 -0.5060 -0.1387
 1560WAT     H1 6960   5.296   5.608   4.749 -0.7282  0.5232 -1.1624
 1560WAT     H2 6961   5.357   5.728   4.726  1.0361 -0.3091 -0.9927
 1560WAT    EPW 6962   5.358   5.650   4.727  0.1362 -0.3249 -0.4161
 1561WAT      O 6963   1.549   3.512   3.671  0.1735 -0.6641 -0.3241
 1561WAT     H1 6964   1.529   3.445   3.722  1.5882 -0.0951  1.0373
 1561WAT     H2 6965   1.473   3.530   3.632 -1.5303 -0.0354  2.8863
 1561WAT    EPW 6966   1.535   3.505   3.673  0.1308 -0.4872  0.3513
 1562WAT      O 6967   6.344   4.759   5.538  0.2202 -0.6867 -0.2281
 1562WAT     H1 6968   6.316   4.689   5.493  1.1395 -1.9382  1.0275
 1562WAT     H2 6969   6.372   4.724   5.613 -2.5289  1.3914  1.9868
 1562WAT    EPW 6970   6.344   4.743   5.542 -0.0501 -0.5646  0.2845
 1563WAT      O 6971   4.555   4.752   3.463 -0.0026  0.6762  0.1491
 1563WAT     H1 6972   4.576   4.802   3.394  0.7657  3.7312  2.3755
 1563WAT     H2 6973   4.498   4.801   3.507  0.0672 -0.8496  2.0561
 1563WAT    EPW 6974   4.550   4.767   3.459  0.1212  0.9021  0.7597
 1564WAT      O 6975   4.129   6.822   6.532  0.2921  0.2466 -0.2974
 1564WAT     H1 6976   4.082   6.842   6.602  0.6732 -0.1332  0.0745
 1564WAT     H2 6977   4.114   6.736   6.521 -1.3845  0.6824 -1.9085
 1564WAT    EPW 6978   4.120   6.812   6.541  0.1007  0.2549 -0.4804
 1565WAT      O 6979   6.612   6.044   3.716  0.5939 -0.2505 -0.4017
 1565WAT     H1 6980   6.601   6.002   3.792 -0.0576 -0.0464 -0.3774
 1565WAT     H2 6981   6.592   5.983   3.657  0.6201 -0.2636 -0.3972
 1565WAT    EPW 6982   6.607   6.028   3.719  0.5015 -0.2223 -0.3975
 1566WAT      O 6983   1.067   2.193   2.541 -0.2819 -0.4177  0.1896
 1566WAT     H1 6984   1.072   2.210   2.455  0.2600 -0.5165  0.2011
 1566WAT     H2 6985   1.096   2.111   2.548  0.8463 -0.0046  0.6060
 1566WAT    EPW 6986   1.072   2.183   2.529 -0.0352 -0.3713  0.2528
 1567WAT      O 6987   7.053   4.762   6.053  0.0136  0.5872  0.3926
 1567WAT     H1 6988   7.130   4.801   6.051 -0.4578  1.6571 -2.7201
 1567WAT     H2 6989   7.063   4.694   5.999 -1.6753  1.9041 -1.7260
 1567WAT    EPW 6990   7.066   4.758   6.045 -0.3055  0.9398 -0.3802
 1568WAT      O 6991   4.949   7.219   6.303  0.0994 -0.2895 -0.2012
 1568WAT     H1 6992   4.976   7.251   6.226 -0.7667 -0.4156 -0.5695
 1568WAT     H2 6993   4.944   7.290   6.354  0.3419 -0.1563 -0.3599
 1568WAT    EPW 6994   4.953   7.234   6.299  0.0073 -0.2884 -0.2790
 1569WAT      O 6995   3.395   5.087   1.770 -0.5278 -0.5064  0.0010
 1569WAT     H1 6996   3.403   5.022   1.712  1.2938 -0.3131 -0.0432
 1569WAT     H2 6997   3.328   5.133   1.741 -0.3653 -1.0563 -1.3144
 1569WAT    EPW 6998   3.386   5.084   1.757 -0.2347 -0.5591 -0.1998
 1570WAT      O 6999   0.521   6.939   6.636 -0.5001  0.0611  0.3285
 1570WAT     H1 7000   0.607   6.957   6.639 -0.1552 -1.4607  1.1429
 1570WAT     H2 7001   0.486   7.008   6.596  1.1057  0.7328  0.0102
 1570WAT    EPW 7002   0.529   6.952   6.631 -0.2120 -0.0644  0.4018
 1571WAT      O 7003   3.449   1.167   5.646  0.3949  0.0433  0.2606
 1571WAT     H1 7004   3.525   1.158   5.687  0.1720  0.0196  0.6687
 1571WAT     H2 7005   3.445   1.097   5.595  0.0796 -0.6084  1.1549
 1571WAT    EPW 7006   3.460   1.156   5.644  0.3154 -0.0565  0.4530
 1572WAT      O 7007   5.677   6.382   0.751 -0.3980  0.7486 -0.1427
 1572WAT     H1 7008   5.698   6.465   0.732  0.0566  0.5817 -0.3747
 1572WAT     H2 7009   5.701   6.338   0.680  0.0783  0.3108  0.2857
 1572WAT    EPW 7010   5.684   6.388   0.738 -0.2605  0.6592 -0.1136
 1573WAT      O 7011   4.635   4.532   5.728 -0.3864  0.5732  0.1888
 1573WAT     H1 7012   4.624   4.509   5.812 -0.3244  0.4885  0.1752
 1573WAT     H2 7013   4.599   4.466   5.684  0.1650  0.2911  0.1466
 1573WAT    EPW 7014   4.628   4.519   5.734 -0.2958  0.5190  0.1806
 1574WAT      O 7015   2.111   3.785   6.696  0.4352 -0.4892 -0.3486
 1574WAT     H1 7016   2.035   3.794   6.737  1.1825  3.0599  0.5934
 1574WAT     H2 7017   2.169   3.784   6.760  1.3332 -0.3873 -1.1425
 1574WAT    EPW 7018   2.108   3.786   6.711  0.6783  0.0501 -0.3267
 1575WAT      O 7019   3.146   6.629   2.142 -0.1137 -0.3153  0.8691
 1575WAT     H1 7020   3.228   6.652   2.122 -0.1126 -0.7431  0.3642
 1575WAT     H2 7021   3.109   6.615   2.064 -0.7451  0.1233  1.0807
 1575WAT    EPW 7022   3.153   6.631   2.127 -0.2068 -0.3137  0.8258
 1576WAT      O 7023   2.009   2.863   1.408  0.4749  0.7903 -0.6011
 1576WAT     H1 7024   1.979   2.892   1.485 -0.4366  0.2598 -0.7434
 1576WAT     H2 7025   2.094   2.848   1.424 -0.1111 -1.4136  0.9838
 1576WAT    EPW 7026   2.017   2.865   1.422  0.2537  0.3864 -0.3880
 1577WAT      O 7027   2.755   2.740   2.924  0.5827 -0.5433 -0.2081
 1577WAT     H1 7028   2.753   2.809   2.871  1.6407  0.3667  0.8826
 1577WAT     H2 7029   2.708   2.680   2.881 -2.2139  1.4708 -0.2782
 1577WAT    EPW 7030   2.748   2.741   2.909  0.3259 -0.1113 -0.0574
 1578WAT      O 7031   0.577   1.198   2.075 -0.5968 -0.2615 -0.0391
 1578WAT     H1 7032   0.633   1.200   2.009 -0.9091  0.0556 -0.3010
 1578WAT     H2 7033   0.575   1.281   2.103 -1.1219 -0.2143 -0.1981
 1578WAT    EPW 7034   0.585   1.211   2.069 -0.7205 -0.2077 -0.1013
 1579WAT      O 7035   0.626   0.917   5.604 -0.2370 -0.1145 -0.0047
 1579WAT     H1 7036   0.582   0.872   5.543 -1.7970 -0.9379  1.6615
 1579WAT     H2 7037   0.692   0.864   5.625 -0.9873 -0.8273  0.6023
 1579WAT    EPW 7038   0.629   0.903   5.598 -0.5783 -0.3414  0.3311
 1580WAT      O 7039   0.190   0.387   2.097 -0.3959  0.2437 -0.5637
 1580WAT     H1 7040   0.247   0.448   2.072  0.8088 -0.4866  0.2696
 1580WAT     H2 7041   0.125   0.434   2.133  0.9658  1.0641  1.0113
 1580WAT    EPW 7042   0.189   0.403   2.099 -0.0168  0.2570 -0.2079
 1581WAT      O 7043   6.798   2.336   2.728  0.6656  0.3302 -0.0120
 1581WAT     H1 7044   6.790   2.413   2.687 -0.5038 -0.0195 -0.4921
 1581WAT     H2 7045   6.879   2.311   2.709  0.0890  0.0595 -2.4044
 1581WAT    EPW 7046   6.809   2.344   2.719  0.4077  0.2386 -0.4363
 1582WAT      O 7047   0.284   4.832   0.633  0.0393  0.9873 -0.5056
 1582WAT     H1 7048   0.349   4.861   0.683 -1.0287  2.4348  0.1218
 1582WAT     H2 7049   0.274   4.894   0.573  1.5732 -0.9079 -2.9116
 1582WAT    EPW 7050   0.292   4.845   0.632  0.1081  0.9211 -0.7683
 1583WAT      O 7051   4.875   5.573   6.255 -0.4033 -1.0492 -0.0043
 1583WAT     H1 7052   4.796   5.541   6.272 -1.5277  0.3436 -2.1671
 1583WAT     H2 7053   4.893   5.542   6.175 -0.0864  0.9617 -0.7721
 1583WAT    EPW 7054   4.866   5.564   6.246 -0.5226 -0.5464 -0.4372
 1584WAT      O 7055   3.828   7.016   5.486  0.0905  0.5842 -0.1979
 1584WAT     H1 7056   3.814   6.952   5.544 -0.7927  2.0992  1.3597
 1584WAT     H2 7057   3.773   6.998   5.421  0.0374 -0.3684  0.0955
 1584WAT    EPW 7058   3.818   7.003   5.485 -0.0478  0.6673  0.0755
 1585WAT      O 7059   3.082   6.038   2.427 -0.0595  0.0530  0.9679
 1585WAT     H1 7060   3.096   6.056   2.511 -1.0143 -0.6838  1.3094
 1585WAT     H2 7061   2.995   6.036   2.421 -0.0117  1.0310 -0.2571
 1585WAT    EPW 7062   3.071   6.040   2.439 -0.1935  0.0886  0.8374
 1586WAT      O 7063   2.678   4.018   0.953 -0.1072 -0.1965  0.4753
 1586WAT     H1 7064   2.634   3.951   0.987 -0.5683 -0.1513 -0.0226
 1586WAT     H2 7065   2.649   4.086   0.999 -1.5961  0.0427 -0.7083
 1586WAT    EPW 7066   2.667   4.018   0.965 -0.3953 -0.1545  0.2269
 1587WAT      O 7067   0.008   0.128   6.248 -0.1971  0.2839 -0.6099
 1587WAT     H1 7068  -0.026   0.153   6.324 -1.2831  0.1063 -1.0189
 1587WAT     H2 7069   0.094   0.123   6.264 -0.1946  2.0422  0.0920
 1587WAT    EPW 7070   0.016   0.131   6.262 -0.3571  0.5174 -0.5666
 1588WAT      O 7071   6.468   0.463   0.504 -0.1409 -0.2709  0.0370
 1588WAT     H1 7072   6.522   0.434   0.441  1.4700  1.0900  0.7076
 1588WAT     H2 7073   6.485   0.548   0.508 -1.2154 -0.0875  1.3893
 1588WAT    EPW 7074   6.479   0.471   0.495 -0.0617 -0.0428  0.3359
 1589WAT      O 7075   0.054   3.847   3.750 -0.3500  0.0725 -0.4850
 1589WAT     H1 7076   0.141   3.846   3.749 -0.3463 -0.3574  0.1323
 1589WAT     H2 7077   0.032   3.822   3.669  0.0935  0.0121 -0.5871
 1589WAT    EPW 7078   0.063   3.843   3.738 -0.2839  0.0001 -0.4089
 1590WAT      O 7079   2.615   5.482   1.662  0.1159  0.4118 -0.1508
 1590WAT     H1 7080   2.640   5.543   1.605 -0.3105 -0.4628 -1.3170
 1590WAT     H2 7081   2.640   5.408   1.623 -0.2652 -0.2100  0.7720
 1590WAT    EPW 7082   2.623   5.480   1.648 -0.0034  0.1908 -0.1868
 1591WAT      O 7083   6.482   3.382   2.981  0.3752 -0.4786 -0.3672
 1591WAT     H1 7084   6.421   3.376   2.918  1.1812 -2.1824 -1.0708
 1591WAT     H2 7085   6.508   3.465   2.977 -1.4379  0.1244 -0.4642
 1591WAT    EPW 7086   6.476   3.393   2.971  0.2264 -0.6412 -0.4854
 1592WAT      O 7087   5.642   4.132   6.238 -0.4037 -0.3042  0.2461
 1592WAT     H1 7088   5.617   4.153   6.157 -2.6599  0.2178  1.0006
 1592WAT     H2 7089   5.590   4.180   6.288  0.6519 -0.9358  2.0340
 1592WAT    EPW 7090   5.631   4.142   6.233 -0.5811 -0.3204  0.6217
 1593WAT      O 7091   6.583   3.724   0.051  0.4613  0.0581  0.4972
 1593WAT     H1 7092   6.498   3.728   0.070  0.4102 -0.5598  0.4403
 1593WAT     H2 7093   6.588   3.654  -0.001  1.1773 -0.6212  1.4544
 1593WAT    EPW 7094   6.571   3.714   0.046  0.5595 -0.1336  0.6302
 1594WAT      O 7095   1.256   0.368   3.612 -0.1102  0.2325 -0.4749
 1594WAT     H1 7096   1.298   0.437   3.581  0.4677 -0.6231 -1.6779
 1594WAT     H2 7097   1.232   0.325   3.540  0.8190 -1.5688  0.2298
 1594WAT    EPW 7098   1.258   0.372   3.597  0.1125 -0.1600 -0.5485
 1595WAT      O 7099   0.584   3.336   3.537  0.0540 -0.6865 -0.2577
 1595WAT     H1 7100   0.611   3.315   3.457 -1.1734  1.3586 -1.2981
 1595WAT     H2 7101   0.610   3.419   3.547  0.8866 -1.1302  1.8329
 1595WAT    EPW 7102   0.592   3.345   3.527 -0.0043 -0.4500 -0.1026
 1596WAT      O 7103   6.368   2.912   3.169  0.9664  0.0072  0.2757
 1596WAT     H1 7104   6.395   2.899   3.251 -1.2833  2.5505  1.5405
 1596WAT     H2 7105   6.393   2.993   3.152 -2.9323  1.4675  0.4840
 1596WAT    EPW 7106   6.376   2.922   3.179  0.0581  0.5986  0.4933
 1597WAT      O 7107   2.598   6.660   6.931  0.6290  0.1761 -0.0622
 1597WAT     H1 7108   2.611   6.652   6.845  0.5288 -1.7589  0.0590
 1597WAT     H2 7109   2.676   6.640   6.966  0.5595  0.5420  0.3130
 1597WAT    EPW 7110   2.612   6.655   6.924  0.6039 -0.0557  0.0112
 1598WAT      O 7111   1.644   3.078   7.319  0.1872 -0.0526  0.4718
 1598WAT     H1 7112   1.683   3.017   7.269 -0.3093 -2.3903  2.7000
 1598WAT     H2 7113   1.569   3.093   7.278  0.7404 -0.2057 -0.6384
 1598WAT    EPW 7114   1.639   3.071   7.305  0.1956 -0.4205  0.6369
 1599WAT      O 7115   2.184   4.762   5.590  0.7709 -0.3626  0.4469
 1599WAT     H1 7116   2.222   4.687   5.611 -1.3630 -1.8833 -0.7498
 1599WAT     H2 7117   2.245   4.804   5.544  2.4641 -0.7103  2.2175
 1599WAT    EPW 7118   2.199   4.757   5.586  0.7058 -0.6386  0.5317
 1600WAT      O 7119   5.200   0.070   3.409  0.2327 -0.1294  0.1794
 1600WAT     H1 7120   5.127   0.021   3.411 -0.8237  1.3837  0.4363
 1600WAT     H2 7121   5.239   0.051   3.485 -0.6982  0.1797  0.7537
 1600WAT    EPW 7122   5.195   0.060   3.420 -0.0609  0.1398  0.3022
 1601WAT      O 7123   0.911   3.968   5.518 -0.2045  0.1558 -0.3125
 1601WAT     H1 7124   0.913   3.971   5.605  2.3218 -0.2058 -0.2860
 1601WAT     H2 7125   0.893   3.885   5.500  0.9097 -0.1632 -0.0655
 1601WAT    EPW 7126   0.909   3.956   5.528  0.3332  0.0552 -0.2721
 1602WAT      O 7127   1.410   0.981   6.366  0.3200 -0.2301 -0.1938
 1602WAT     H1 7128   1.447   0.957   6.291 -0.2226 -1.2125 -0.1615
 1602WAT     H2 7129   1.438   0.922   6.423 -0.3148 -0.2702  0.0902
 1602WAT    EPW 7130   1.419   0.969   6.363  0.1461 -0.3812 -0.1471
 1603WAT      O 7131   4.230   3.501   5.230 -0.2294 -0.1131 -0.1645
 1603WAT     H1 7132   4.293   3.441   5.243  1.0314  1.2498  0.3855
 1603WAT     H2 7133   4.166   3.456   5.191  0.4838 -1.9010  0.6046
 1603WAT    EPW 7134   4.230   3.485   5.226  0.0622 -0.1759  0.0303
 1604WAT      O 7135   0.297   2.482   5.022  0.5835  0.0361  0.3541
 1604WAT     H1 7136   0.323   2.552   5.067  0.2537  0.3811  0.0190
 1604WAT     H2 7137   0.217   2.466   5.054  0.4368  0.1489  0.0512
 1604WAT    EPW 7138   0.289   2.490   5.033  0.5131  0.1037  0.2599
 1605WAT      O 7139   5.793   6.126   3.740  0.3860 -0.4113 -0.2403
 1605WAT     H1 7140   5.735   6.062   3.749 -0.1168  0.0761  0.0016
 1605WAT     H2 7141   5.753   6.196   3.773  1.4812 -0.2697  0.8615
 1605WAT    EPW 7142   5.779   6.127   3.746  0.4735 -0.3184 -0.0418
 1606WAT      O 7143   6.007   2.268   4.463 -0.2734 -0.4928  0.5393
 1606WAT     H1 7144   6.011   2.228   4.541  2.4915  0.1061  0.8052
 1606WAT     H2 7145   6.059   2.338   4.473  0.3819 -0.5442 -1.8998
 1606WAT    EPW 7146   6.015   2.272   4.476  0.2319 -0.4119  0.2183
 1607WAT      O 7147   6.810   5.133   5.159 -0.0914 -0.2002 -0.2746
 1607WAT     H1 7148   6.822   5.218   5.176 -1.2257 -0.1328  0.2930
 1607WAT     H2 7149   6.723   5.126   5.152 -0.4074 -1.9308  3.2258
 1607WAT    EPW 7150   6.799   5.144   5.160 -0.3056 -0.4459  0.3263
 1608WAT      O 7151   2.672   1.817   5.674 -0.0998  0.0926 -0.0238
 1608WAT     H1 7152   2.631   1.894   5.678 -0.2827 -0.0444  1.4804
 1608WAT     H2 7153   2.752   1.838   5.645 -0.2251  0.8234  0.1386
 1608WAT    EPW 7154   2.678   1.831   5.670 -0.1453  0.1803  0.2224
 1609WAT      O 7155   2.483   0.679   1.523 -0.3871  0.2173  0.0140
 1609WAT     H1 7156   2.474   0.592   1.524  0.9331  0.0537  1.5385
 1609WAT     H2 7157   2.411   0.706   1.482 -0.6422 -1.6021 -0.8643
 1609WAT    EPW 7158   2.471   0.670   1.517 -0.2298 -0.0756  0.1094
 1610WAT      O 7159   0.637   2.755   5.551  0.1412  0.1192 -0.5357
 1610WAT     H1 7160   0.639   2.680   5.508 -1.2638  0.0849 -0.5877
 1610WAT     H2 7161   0.631   2.731   5.634 -4.8987 -0.0404 -0.6845
 1610WAT    EPW 7162   0.637   2.741   5.557 -0.8109  0.0905 -0.5654
 1611WAT      O 7163   5.536   3.175   1.366 -0.3050 -0.0505  0.1807
 1611WAT     H1 7164   5.596   3.238   1.367  0.6442 -0.9318  0.2219
 1611WAT     H2 7165   5.469   3.210   1.410 -0.0074  1.1132 -0.2519
 1611WAT    EPW 7166   5.535   3.190   1.372 -0.1208 -0.0088  0.1229
 1612WAT      O 7167   6.800   6.372   3.315  0.0704  0.1075  0.7642
 1612WAT     H1 7168   6.726   6.365   3.270  0.5243  0.8864 -0.1418
 1612WAT     H2 7169   6.862   6.355   3.256  0.7585  2.4644  0.6902
 1612WAT    EPW 7170   6.798   6.368   3.300  0.2391  0.5707  0.6194
 1613WAT      O 7171   0.980   1.790   6.200 -0.0257 -0.0136  0.1177
 1613WAT     H1 7172   1.063   1.771   6.179  0.1477  0.0009  0.7636
 1613WAT     H2 7173   0.968   1.748   6.276 -0.6110 -0.0181  0.0283
 1613WAT    EPW 7174   0.990   1.781   6.208 -0.0865 -0.0121  0.1999
 1614WAT      O 7175   6.493   4.821   3.208  0.0870  0.1498 -0.1548
 1614WAT     H1 7176   6.407   4.817   3.217  0.2432  0.8688  2.4591
 1614WAT     H2 7177   6.509   4.774   3.136 -2.4394 -0.0810 -0.6300
 1614WAT    EPW 7178   6.483   4.814   3.199 -0.2631  0.2219  0.1611
 1615WAT      O 7179   1.133   4.822   3.987 -0.3175 -0.9667  0.1271
 1615WAT     H1 7180   1.051   4.846   3.969 -0.7856 -1.5385  1.3555
 1615WAT     H2 7181   1.153   4.867   4.059  1.1787  0.6109 -1.1874
 1615WAT    EPW 7182   1.124   4.832   3.995 -0.1656 -0.8181  0.1144
 1616WAT      O 7183   0.460   5.482   6.310  0.2422  0.0734 -0.2881
 1616WAT     H1 7184   0.515   5.470   6.376 -1.3351 -0.8600  0.9176
 1616WAT     H2 7185   0.469   5.408   6.263 -1.2487 -0.9035  0.9055
 1616WAT    EPW 7186   0.470   5.469   6.313 -0.2111 -0.2088  0.0663
 1617WAT      O 7187   5.373   5.564   0.759  0.3728  0.3261 -0.0379
 1617WAT     H1 7188   5.383   5.639   0.715  2.3626  0.3847  0.3989
 1617WAT     H2 7189   5.442   5.517   0.734  0.0057 -0.7458  0.8896
 1617WAT    EPW 7190   5.385   5.569   0.749  0.6125  0.1764  0.1637
 1618WAT      O 7191   0.695   0.225   2.951 -0.2154  0.0471 -0.3644
 1618WAT     H1 7192   0.714   0.184   2.876 -0.2686  0.5706 -0.6648
 1618WAT     H2 7193   0.681   0.159   3.006  2.9213 -0.4279  0.0418
 1618WAT    EPW 7194   0.696   0.209   2.948  0.2401  0.0543 -0.3488
 1619WAT      O 7195   0.308   2.637   5.773  0.0451 -0.1278  1.1073
 1619WAT     H1 7196   0.228   2.607   5.787 -0.5187  0.2692 -0.9128
 1619WAT     H2 7197   0.317   2.631   5.686  1.8157  0.7742  1.1865
 1619WAT    EPW 7198   0.298   2.632   5.762  0.2234  0.0641  0.8206
 1620WAT      O 7199   2.100   1.591   5.932  0.4080  0.3330  0.2188
 1620WAT     H1 7200   2.135   1.523   5.972 -0.7131 -0.4580 -0.1006
 1620WAT     H2 7201   2.054   1.631   5.994  0.4572  0.3681  0.2324
 1620WAT    EPW 7202   2.098   1.587   5.947  0.2497  0.2214  0.1736
 1621WAT      O 7203   3.165   1.236   6.405  0.3211 -0.0933  0.1704
 1621WAT     H1 7204   3.137   1.171   6.456 -0.8286  0.6185  0.4879
 1621WAT     H2 7205   3.092   1.281   6.387  1.1015  1.2206  0.1172
 1621WAT    EPW 7206   3.150   1.233   6.410  0.2665  0.2060  0.2094
 1622WAT      O 7207   0.014   1.563   4.198  0.1156  0.6619  0.1575
 1622WAT     H1 7208   0.052   1.526   4.129  2.1781  0.7342  1.1673
 1622WAT     H2 7209  -0.011   1.495   4.247  1.0535  0.5722  0.5382
 1622WAT    EPW 7210   0.016   1.547   4.195  0.5588  0.6594  0.3629
 1623WAT      O 7211   1.628   3.854   5.938 -0.1477  0.4049  0.4180
 1623WAT     H1 7212   1.565   3.831   5.882 -0.7245  1.7592  0.4747
 1623WAT     H2 7213   1.631   3.941   5.930 -0.3507  0.6507  2.5957
 1623WAT    EPW 7214   1.619   3.864   5.928 -0.2629  0.6413  0.7481
 1624WAT      O 7215   4.183   2.889   6.859  0.5754 -0.0970  0.5207
 1624WAT     H1 7216   4.251   2.836   6.848  0.2332 -0.2603 -1.1321
 1624WAT     H2 7217   4.119   2.851   6.813  0.1698  1.4367 -0.2867
 1624WAT    EPW 7218   4.183   2.876   6.850  0.4649  0.1054  0.1573
 1625WAT      O 7219   0.409   3.872   2.936 -0.0123 -0.8560  0.4456
 1625WAT     H1 7220   0.474   3.918   2.973  0.2692 -0.0011 -1.0459
 1625WAT     H2 7221   0.341   3.886   2.989 -0.4867  2.9297 -0.8444
 1625WAT    EPW 7222   0.409   3.881   2.949 -0.0408 -0.1705  0.0347
 1626WAT      O 7223   2.309   4.337   4.674 -0.0597 -0.2014  0.4271
 1626WAT     H1 7224   2.225   4.359   4.665  0.3227  1.0634 -0.2955
 1626WAT     H2 7225   2.335   4.318   4.593 -0.3410 -3.4958  0.9883
 1626WAT    EPW 7226   2.300   4.338   4.661 -0.0448 -0.5012  0.4033
 1627WAT      O 7227   1.348   6.126   2.908  0.1011  0.2105  0.0648
 1627WAT     H1 7228   1.306   6.203   2.909  0.3694  0.3583  0.0430
 1627WAT     H2 7229   1.389   6.125   2.985 -1.2734 -0.6783  0.8211
 1627WAT    EPW 7230   1.348   6.138   2.919 -0.0623  0.1010  0.1733
 1628WAT      O 7231   5.603   1.700   5.413 -0.0645  0.0093 -0.0915
 1628WAT     H1 7232   5.608   1.762   5.474 -2.3350 -1.0131  1.2767
 1628WAT     H2 7233   5.561   1.740   5.347 -0.9237  0.1401  0.5164
 1628WAT    EPW 7234   5.597   1.715   5.412 -0.5268 -0.1224  0.2004
 1629WAT      O 7235   1.842   3.476   5.143 -0.2260  0.0923  0.0688
 1629WAT     H1 7236   1.815   3.394   5.132 -0.2355  0.2282 -1.0220
 1629WAT     H2 7237   1.791   3.522   5.089 -0.5124  0.8853  0.9779
 1629WAT    EPW 7238   1.830   3.471   5.134 -0.2697  0.2295  0.0420
 1630WAT      O 7239   6.575   0.198   4.805 -0.1141  0.2268 -0.0168
 1630WAT     H1 7240   6.618   0.255   4.855  0.3850  0.0253 -0.2159
 1630WAT     H2 7241   6.493   0.203   4.835  0.1659  0.1524  0.7923
 1630WAT    EPW 7242   6.569   0.207   4.817  0.0010  0.1861  0.0733
 1631WAT      O 7243   5.242   6.267   4.529 -0.5009 -0.1691  0.1421
 1631WAT     H1 7244   5.270   6.233   4.453 -0.7845 -0.2408  0.0682
 1631WAT     H2 7245   5.251   6.353   4.517  2.0924 -0.2245  1.0354
 1631WAT    EPW 7246   5.248   6.274   4.516 -0.1597 -0.1879  0.2631
 1632WAT      O 7247   1.310   4.182   5.827 -0.0803 -0.1774  0.1010
 1632WAT     H1 7248   1.325   4.234   5.759 -0.0563 -1.0677 -0.6069
 1632WAT     H2 7249   1.388   4.172   5.864 -0.1251  0.4561  0.3751
 1632WAT    EPW 7250   1.324   4.188   5.823 -0.0833 -0.2153  0.0370
 1633WAT      O 7251   0.708   5.534   2.812  0.1292  0.8632  0.2345
 1633WAT     H1 7252   0.627   5.532   2.778 -0.2225 -1.0394  1.0445
 1633WAT     H2 7253   0.693   5.538   2.898  0.8491 -0.2176  0.4331
 1633WAT    EPW 7254   0.694   5.534   2.819  0.1836  0.4225  0.3835
 1634WAT      O 7255   4.013   3.368   5.121  0.7268 -0.6893  0.3876
 1634WAT     H1 7256   4.000   3.336   5.041 -0.1984 -1.4517  0.8265
 1634WAT     H2 7257   3.970   3.443   5.121 -1.7288 -2.0001  1.0191
 1634WAT    EPW 7258   4.005   3.374   5.109  0.2274 -0.9955  0.5458
 1635WAT      O 7259   4.032   4.533   5.999  0.0447 -0.3645 -0.3956
 1635WAT     H1 7260   4.044   4.486   6.071  0.1125 -0.5955 -0.5569
 1635WAT     H2 7261   4.079   4.491   5.938  0.0416 -0.1361 -0.5595
 1635WAT    EPW 7262   4.041   4.520   6.000  0.0543 -0.3649 -0.4437
 1636WAT      O 7263   4.923   2.743   1.864 -0.1151 -0.2291 -0.3423
 1636WAT     H1 7264   4.979   2.775   1.923 -0.2860 -0.4380 -0.0633
 1636WAT     H2 7265   4.927   2.801   1.799 -1.3161  1.0408  0.6625
 1636WAT    EPW 7266   4.932   2.756   1.863 -0.3178 -0.0724 -0.1526
 1637WAT      O 7267   5.548   4.584   4.033  0.7225  0.3060 -0.1900
 1637WAT     H1 7268   5.519   4.658   3.995 -0.6632 -0.5360 -0.8414
 1637WAT     H2 7269   5.483   4.562   4.086  1.3779 -0.1698  0.4351
 1637WAT    EPW 7270   5.534   4.592   4.035  0.6146  0.1114 -0.1939
 1638WAT      O 7271   5.882   2.181   6.847  0.0883 -0.5907  0.5286
 1638WAT     H1 7272   5.923   2.193   6.771 -1.5139  1.8276 -0.1024
 1638WAT     H2 7273   5.835   2.108   6.835  2.9380 -2.6129  0.7950
 1638WAT    EPW 7274   5.881   2.172   6.834  0.2726 -0.5322  0.4748
 1639WAT      O 7275   5.726   6.190   0.566  0.4490 -0.2696 -0.9605
 1639WAT     H1 7276   5.771   6.128   0.607  1.1050 -0.3655 -1.7881
 1639WAT     H2 7277   5.763   6.193   0.487  0.9229  1.6972 -0.7090
 1639WAT    EPW 7278   5.738   6.182   0.560  0.6159  0.0067 -1.0456
 1640WAT      O 7279   6.814   4.587   2.168 -0.7404 -0.2716  0.2936
 1640WAT     H1 7280   6.814   4.509   2.207 -2.5629 -0.5701 -0.1874
 1640WAT     H2 7281   6.784   4.570   2.088 -3.4779  1.1479  0.8928
 1640WAT    EPW 7282   6.809   4.573   2.162 -1.4140 -0.1060  0.3111
 1641WAT      O 7283   1.978   1.748   2.028 -0.4750 -0.1095 -0.0200
 1641WAT     H1 7284   2.031   1.794   1.977 -0.1310 -0.8123 -0.3169
 1641WAT     H2 7285   1.904   1.743   1.981 -0.2466 -0.5315 -0.3411
 1641WAT    EPW 7286   1.975   1.754   2.013 -0.3905 -0.2757 -0.1113
 1642WAT      O 7287   5.564   2.414   3.841 -1.0547 -0.2213  0.3096
 1642WAT     H1 7288   5.570   2.408   3.928 -1.5220 -0.3821  0.3380
 1642WAT     H2 7289   5.479   2.429   3.828 -0.6513  2.3738  0.0115
 1642WAT    EPW 7290   5.552   2.415   3.852 -1.0641  0.1383  0.2698
 1643WAT      O 7291   3.591   1.156   4.648 -0.0841 -0.0395 -0.5147
 1643WAT     H1 7292   3.595   1.097   4.713 -1.3857 -0.2497 -0.5971
 1643WAT     H2 7293   3.621   1.112   4.579  0.0765 -0.2322 -0.3269
 1643WAT    EPW 7294   3.596   1.140   4.648 -0.2527 -0.0990 -0.4991
 1644WAT      O 7295   3.745   0.299   1.920 -0.5087  0.3046 -0.4001
 1644WAT     H1 7296   3.683   0.352   1.952  1.0010  2.1073 -0.2420
 1644WAT     H2 7297   3.746   0.232   1.975 -1.0191  1.1818  0.7063
 1644WAT    EPW 7298   3.736   0.297   1.933 -0.3611  0.7004 -0.2133
 1645WAT      O 7299   0.062   7.179   0.488  0.4536  0.2758  0.1676
 1645WAT     H1 7300   0.089   7.116   0.435 -1.6217  1.1759 -2.1605
 1645WAT     H2 7301   0.012   7.138   0.545 -0.1109 -0.3297 -0.7388
 1645WAT    EPW 7302   0.059   7.164   0.488  0.0636  0.3193 -0.3102
 1646WAT      O 7303   4.139   2.407   7.287  0.8768  0.4830  0.2357
 1646WAT     H1 7304   4.148   2.474   7.232  0.3363 -0.2341 -0.7530
 1646WAT     H2 7305   4.057   2.414   7.316  0.3316 -0.5484 -0.9811
 1646WAT    EPW 7306   4.128   2.418   7.283  0.7164  0.2247 -0.0901
 1647WAT      O 7307   0.343   4.524   4.457 -0.0806 -0.2784 -0.3633
 1647WAT     H1 7308   0.331   4.602   4.420  0.1133  0.2078  0.5640
 1647WAT     H2 7309   0.268   4.509   4.499  0.0533 -0.3608 -0.1482
 1647WAT    EPW 7310   0.330   4.533   4.458 -0.0322 -0.2188 -0.1945
 1648WAT      O 7311   2.238   4.493   3.761  0.2280  0.1133  0.5089
 1648WAT     H1 7312   2.311   4.541   3.756  0.1869  0.1241 -0.0703
 1648WAT     H2 7313   2.268   4.412   3.772  0.3574  0.0142 -0.4952
 1648WAT    EPW 7314   2.253   4.488   3.762  0.2411  0.1002  0.2750
 1649WAT      O 7315   6.828   1.400   3.955  0.0261 -0.6852  0.2237
 1649WAT     H1 7316   6.743   1.405   3.936 -0.4037 -0.3544  2.0161
 1649WAT     H2 7317   6.862   1.472   3.920 -0.9374  0.4984  1.5981
 1649WAT    EPW 7318   6.821   1.411   3.947 -0.1797 -0.4615  0.6915
 1650WAT      O 7319   4.641   4.451   7.094 -0.7357  0.2069  0.2513
 1650WAT     H1 7320   4.568   4.490   7.068 -1.3340 -1.3907 -0.6202
 1650WAT     H2 7321   4.697   4.466   7.029 -0.8052  0.0805  0.1603
 1650WAT    EPW 7322   4.639   4.459   7.080 -0.8344 -0.0478  0.1091
 1651WAT      O 7323   1.838   5.451   2.397  0.3214  0.1900  0.1335
 1651WAT     H1 7324   1.864   5.506   2.460 -0.7437 -0.7620  1.4538
 1651WAT     H2 7325   1.905   5.395   2.391  1.3394  1.4741 -1.0996
 1651WAT    EPW 7326   1.852   5.451   2.406  0.3145  0.2390  0.1464
 1652WAT      O 7327   2.433   6.634   1.456 -0.1940  0.3339 -0.3331
 1652WAT     H1 7328   2.500   6.581   1.472 -0.1587  0.1533 -1.0190
 1652WAT     H2 7329   2.364   6.591   1.487 -0.2817 -0.5164 -1.6335
 1652WAT    EPW 7330   2.433   6.620   1.463 -0.2017  0.1816 -0.6265
 1653WAT      O 7331   0.154   4.499   3.991  0.5701 -0.2899  0.3760
 1653WAT     H1 7332   0.157   4.452   4.065  0.3413 -0.4766  0.2658
 1653WAT     H2 7333   0.133   4.579   4.019 -1.9451 -0.8438  0.3064
 1653WAT    EPW 7334   0.151   4.504   4.006  0.1647 -0.3993  0.3494
 1654WAT      O 7335   2.330   2.682   7.056 -0.1480  0.0969  0.0205
 1654WAT     H1 7336   2.413   2.704   7.072 -0.7032  1.4996  1.2184
 1654WAT     H2 7337   2.319   2.609   7.103  0.2210  0.3149  0.4573
 1654WAT    EPW 7338   2.340   2.674   7.065 -0.1755  0.3363  0.2620
 1655WAT      O 7339   5.302   3.620   6.883 -0.4496  0.0679  0.6896
 1655WAT     H1 7340   5.333   3.614   6.801 -0.6460 -0.2497  0.6327
 1655WAT     H2 7341   5.295   3.536   6.908 -4.0959 -0.1441 -0.3975
 1655WAT    EPW 7342   5.306   3.607   6.874 -1.0172 -0.0103  0.5206
 1656WAT      O 7343   4.264   6.576   4.537  0.2055  0.5095 -0.3718
 1656WAT     H1 7344   4.265   6.573   4.449  1.8403 -1.1655 -0.3516
 1656WAT     H2 7345   4.336   6.533   4.560  0.4557  1.9257  1.8200
 1656WAT    EPW 7346   4.275   6.569   4.527  0.4839  0.4713 -0.0450
 1657WAT      O 7347   1.123   2.744   1.027 -0.0562 -0.0727  0.1522
 1657WAT     H1 7348   1.183   2.687   1.000 -1.2267 -0.9397 -0.7043
 1657WAT     H2 7349   1.171   2.814   1.049  1.3454 -1.0791  0.4798
 1657WAT    EPW 7350   1.139   2.746   1.026 -0.0221 -0.3494  0.0741
 1658WAT      O 7351   4.672   5.369   5.119 -0.0317  0.1795 -0.0813
 1658WAT     H1 7352   4.686   5.455   5.114 -1.0932  0.3929  0.2149
 1658WAT     H2 7353   4.623   5.352   5.049 -0.3414 -0.0626  0.1892
 1658WAT    EPW 7354   4.667   5.379   5.108 -0.2343  0.1753  0.0024
 1659WAT      O 7355   1.817   3.837   4.060  0.4570 -0.5199 -0.2795
 1659WAT     H1 7356   1.828   3.800   3.982 -2.3674 -1.8134 -0.1881
 1659WAT     H2 7357   1.792   3.918   4.041  1.0581 -0.4171 -0.6571
 1659WAT    EPW 7358   1.815   3.844   4.046  0.1285 -0.6958 -0.3218
 1660WAT      O 7359   1.402   7.232   1.375  0.4842  0.6066 -0.2727
 1660WAT     H1 7360   1.348   7.165   1.363  0.8739 -0.1783  1.9772
 1660WAT     H2 7361   1.445   7.211   1.448  1.9630  2.4302 -0.5598
 1660WAT    EPW 7362   1.400   7.219   1.384  0.7602  0.7601  0.0173
 1661WAT      O 7363   0.237   4.655   3.243  0.2158 -0.0349 -0.1221
 1661WAT     H1 7364   0.183   4.685   3.304  1.8672 -0.2726  1.5412
 1661WAT     H2 7365   0.187   4.651   3.171 -2.2542 -1.1937  1.5153
 1661WAT    EPW 7366   0.221   4.659   3.241  0.0949 -0.2412  0.3655
 1662WAT      O 7367   7.272   5.044   2.042 -0.0308  0.5372 -0.0020
 1662WAT     H1 7368   7.261   5.072   1.961 -1.4309 -1.8672 -0.7338
 1662WAT     H2 7369   7.331   4.980   2.034 -0.4914 -0.0057  0.7939
 1662WAT    EPW 7370   7.279   5.039   2.029 -0.3056  0.1018  0.0075
 1663WAT      O 7371   1.519   1.565   3.185  0.0626 -0.3145 -0.1243
 1663WAT     H1 7372   1.505   1.550   3.270 -1.0711  1.2144  0.0013
 1663WAT     H2 7373   1.475   1.501   3.145  3.3085 -3.1133  0.3626
 1663WAT    EPW 7374   1.511   1.554   3.192  0.3746 -0.5021 -0.0338
 1664WAT      O 7375   3.739   6.086   6.173  1.0458  0.3296  0.4882
 1664WAT     H1 7376   3.808   6.066   6.123  1.4351  3.2172 -0.3374
 1664WAT     H2 7377   3.672   6.081   6.119  0.9428 -0.0599  0.6477
 1664WAT    EPW 7378   3.739   6.083   6.158  1.0881  0.6986  0.3898
 1665WAT      O 7379   1.385   4.794   3.805 -0.0357  0.2055 -0.0792
 1665WAT     H1 7380   1.334   4.807   3.875 -1.1087 -0.2883 -0.7417
 1665WAT     H2 7381   1.397   4.874   3.773  0.6487  0.4614  0.7851
 1665WAT    EPW 7382   1.379   4.808   3.811 -0.0931  0.1704 -0.0494
 1666WAT      O 7383   6.799   3.267   6.647 -0.6092  0.1446 -0.1056
 1666WAT     H1 7384   6.852   3.310   6.701 -1.3330  1.4994 -0.4195
 1666WAT     H2 7385   6.719   3.283   6.680 -1.0765  1.1087 -1.5876
 1666WAT    EPW 7386   6.795   3.276   6.660 -0.7852  0.4871 -0.3709
 1667WAT      O 7387   6.143   4.534   4.873 -0.1367 -0.0466 -0.0324
 1667WAT     H1 7388   6.061   4.545   4.902  0.1557 -0.8847  1.2110
 1667WAT     H2 7389   6.163   4.454   4.901  0.4032 -0.7117 -2.1332
 1667WAT    EPW 7390   6.134   4.524   4.881 -0.0137 -0.2686 -0.1591
 1668WAT      O 7391   0.659   1.357   4.108  0.3532  0.4983 -0.1068
 1668WAT     H1 7392   0.689   1.378   4.029 -1.4302  3.2418 -0.1986
 1668WAT     H2 7393   0.659   1.433   4.151 -3.4493  0.2021  0.7911
 1668WAT    EPW 7394   0.663   1.371   4.103 -0.4720  0.8598  0.0123
 1669WAT      O 7395   4.775   3.127   3.833 -0.0789 -0.0241 -0.3006
 1669WAT     H1 7396   4.852   3.089   3.851 -0.9744 -2.2690 -0.9067
 1669WAT     H2 7397   4.717   3.066   3.855 -1.8201  2.1326  1.4969
 1669WAT    EPW 7398   4.778   3.112   3.839 -0.4684 -0.0371 -0.1246
 1670WAT      O 7399   4.089   5.584   2.658  0.1404  0.1243  0.8111
 1670WAT     H1 7400   4.121   5.563   2.580  0.2710  0.0508  0.8838
 1670WAT     H2 7401   4.132   5.531   2.713 -0.2585 -0.1262  0.8865
 1670WAT    EPW 7402   4.100   5.573   2.655  0.1007  0.0764  0.8330
 1671WAT      O 7403   0.450   6.638   3.070 -0.0624  0.3988  0.5543
 1671WAT     H1 7404   0.444   6.556   3.099  1.3670  0.3402  0.7449
 1671WAT     H2 7405   0.507   6.633   3.004 -2.0031  0.8139 -1.2747
 1671WAT    EPW 7406   0.458   6.625   3.064 -0.1379  0.4515  0.3123
 1672WAT      O 7407   5.514   1.239   3.851  0.4628 -0.1814  0.2422
 1672WAT     H1 7408   5.562   1.280   3.911 -0.0761  1.6145 -0.4688
 1672WAT     H2 7409   5.562   1.246   3.778  0.2855 -0.6778  0.0772
 1672WAT    EPW 7410   5.528   1.246   3.849  0.3570  0.0106  0.1128
 1673WAT      O 7411   3.851   4.191   3.641  0.2489 -0.5955 -0.6278
 1673WAT     H1 7412   3.898   4.232   3.702 -1.0541 -0.5492  0.3941
 1673WAT     H2 7413   3.869   4.234   3.568  2.0831 -0.8366 -0.3625
 1673WAT    EPW 7414   3.861   4.203   3.639  0.3274 -0.6243 -0.4376
 1674WAT      O 7415   3.288   0.518   2.223  0.5966 -0.1138 -0.0094
 1674WAT     H1 7416   3.306   0.444   2.265  0.9030 -0.5119 -0.8215
 1674WAT     H2 7417   3.240   0.563   2.281  2.9722  0.3918  1.6975
 1674WAT    EPW 7418   3.283   0.514   2.238  0.9928 -0.0979  0.1228
 1675WAT      O 7419   0.197   5.087   1.563  0.2811 -0.3256  0.2883
 1675WAT     H1 7420   0.152   5.083   1.488 -0.2363 -0.1619  0.5880
 1675WAT     H2 7421   0.280   5.089   1.536  0.0789  0.5709 -0.3214
 1675WAT    EPW 7422   0.203   5.087   1.548  0.1748 -0.1690  0.2425
 1676WAT      O 7423   2.999   2.953   5.357 -0.2539 -0.0497  0.6468
 1676WAT     H1 7424   3.016   2.929   5.275  0.3975 -0.3021  0.8447
 1676WAT     H2 7425   2.919   2.923   5.372  0.7023 -2.6322  1.0652
 1676WAT    EPW 7426   2.990   2.945   5.347 -0.0164 -0.4685  0.7378
 1677WAT      O 7427   6.063   2.788   0.976  0.0346 -0.0874  0.3090
 1677WAT     H1 7428   6.081   2.805   1.060  2.2197 -1.2232  0.1202
 1677WAT     H2 7429   5.977   2.776   0.976 -0.1074  0.5789  2.2608
 1677WAT    EPW 7430   6.053   2.789   0.989  0.3364 -0.1568  0.5694
 1678WAT      O 7431   2.473   4.417   5.453 -0.3113  0.7462  0.1672
 1678WAT     H1 7432   2.440   4.433   5.532 -1.4497 -1.3497  0.1793
 1678WAT     H2 7433   2.530   4.352   5.467 -0.1686  0.6829 -0.6662
 1678WAT    EPW 7434   2.477   4.410   5.467 -0.4584  0.4272  0.0459
 1679WAT      O 7435   6.062   5.222   2.052 -0.3174  1.1641  0.2577
 1679WAT     H1 7436   6.116   5.278   2.092 -0.0142  0.5402  0.7322
 1679WAT     H2 7437   5.983   5.246   2.081 -0.0959  0.6745  1.3090
 1679WAT    EPW 7438   6.059   5.234   2.062 -0.2399  0.9996  0.4831
 1680WAT      O 7439   4.240   6.533   6.807 -0.6007  0.5472  0.1017
 1680WAT     H1 7440   4.216   6.538   6.723 -0.8712 -0.4279  0.1143
 1680WAT     H2 7441   4.182   6.583   6.848  0.4430  2.3064 -0.4430
 1680WAT    EPW 7442   4.228   6.542   6.800 -0.4865  0.6631  0.0231
 1681WAT      O 7443   1.385   5.448   5.216  0.1679  0.1451  0.3863
 1681WAT     H1 7444   1.389   5.498   5.145  1.2353  0.9286  0.9705
 1681WAT     H2 7445   1.337   5.496   5.271  0.4763  0.1605  0.6469
 1681WAT    EPW 7446   1.379   5.463   5.214  0.3712  0.2631  0.5111
 1682WAT      O 7447   0.842   3.702   4.086  0.1596 -0.2270  0.7473
 1682WAT     H1 7448   0.845   3.789   4.074 -1.6369 -0.3240 -0.9518
 1682WAT     H2 7449   0.925   3.681   4.105  0.8761  1.7022  0.0055
 1682WAT    EPW 7450   0.855   3.712   4.087  0.0001  0.0436  0.3867
 1683WAT      O 7451   4.003   6.536   1.499 -0.8218 -0.0966 -0.1722
 1683WAT     H1 7452   4.006   6.553   1.584 -0.4441  0.0290 -0.2086
 1683WAT     H2 7453   4.029   6.611   1.463  1.4273 -0.8687 -0.3298
 1683WAT    EPW 7454   4.007   6.550   1.506 -0.4338 -0.1921 -0.2009
 1684WAT      O 7455   2.475   4.722   1.981  0.3111 -0.1105  0.9220
 1684WAT     H1 7456   2.501   4.742   1.901  0.5886 -0.9446  0.7844
 1684WAT     H2 7457   2.512   4.643   1.995 -3.3533 -2.1768  0.1371
 1684WAT    EPW 7458   2.485   4.713   1.971 -0.1892 -0.5390  0.7857
 1685WAT      O 7459   4.904   1.204   1.018 -0.2117 -1.0712  0.2754
 1685WAT     H1 7460   4.841   1.262   1.001 -0.0621 -0.6489  1.0961
 1685WAT     H2 7461   4.866   1.148   1.072 -0.4545 -1.9529 -0.7770
 1685WAT    EPW 7462   4.889   1.205   1.023 -0.2255 -1.1391  0.2412
 1686WAT      O 7463   0.417   6.523   6.387  0.0070  0.6898 -0.1012
 1686WAT     H1 7464   0.341   6.484   6.372 -0.1717  0.6318  0.8685
 1686WAT     H2 7465   0.401   6.572   6.458  1.4702 -1.1528  1.6169
 1686WAT    EPW 7466   0.403   6.525   6.395  0.1968  0.4090  0.2958
 1687WAT      O 7467   3.841   0.920   0.231 -0.1330 -0.1637  0.1748
 1687WAT     H1 7468   3.805   1.000   0.234  0.5745  0.1928 -0.5546
 1687WAT     H2 7469   3.927   0.936   0.230  0.0105 -0.8823 -1.0173
 1687WAT    EPW 7470   3.848   0.934   0.231 -0.0073 -0.2172 -0.1090
 1688WAT      O 7471   6.406   5.906   6.143 -0.1393  0.2245  0.0342
 1688WAT     H1 7472   6.325   5.894   6.112  0.1767  0.4844 -0.8985
 1688WAT     H2 7473   6.408   5.990   6.164 -0.3440  0.0557  0.7605
 1688WAT    EPW 7474   6.394   5.917   6.142 -0.1229  0.2380  0.0037
 1689WAT      O 7475   4.959   5.516   0.522 -0.0009 -0.3456  0.3878
 1689WAT     H1 7476   4.952   5.487   0.439  1.8988 -0.1912  0.1419
 1689WAT     H2 7477   4.991   5.447   0.564  1.5682  0.3891  0.4383
 1689WAT    EPW 7478   4.962   5.501   0.516  0.5115 -0.2143  0.3589
 1690WAT      O 7479   0.207   5.393   3.807 -0.0626 -0.3536 -0.2164
 1690WAT     H1 7480   0.201   5.480   3.804 -0.6951 -0.4031 -0.6219
 1690WAT     H2 7481   0.159   5.367   3.738 -1.1720 -1.0694  0.7911
 1690WAT    EPW 7482   0.199   5.402   3.796 -0.3199 -0.4667 -0.1275
 1691WAT      O 7483   6.936   5.377   0.345  0.2617  0.0643  0.1025
 1691WAT     H1 7484   6.923   5.448   0.395 -2.0046 -1.2064  1.5207
 1691WAT     H2 7485   6.914   5.404   0.265  2.6509  1.7808 -0.0957
 1691WAT    EPW 7486   6.931   5.392   0.341  0.2798  0.1301  0.2827
 1692WAT      O 7487   4.752   4.788   3.203 -0.2239  0.1308 -0.1949
 1692WAT     H1 7488   4.754   4.783   3.116  2.5437  1.4433 -0.3054
 1692WAT     H2 7489   4.786   4.711   3.229  1.5044  0.7578 -0.4409
 1692WAT    EPW 7490   4.758   4.776   3.194  0.4403  0.4173 -0.2476
 1693WAT      O 7491   4.230   1.015   1.646  0.4056  0.3326  0.1952
 1693WAT     H1 7492   4.168   0.971   1.604 -0.1540  0.1692  1.1735
 1693WAT     H2 7493   4.298   1.012   1.590  0.4774 -1.9844  0.3048
 1693WAT    EPW 7494   4.231   1.008   1.631  0.3335 -0.0338  0.3559
 1694WAT      O 7495   6.384   3.953   3.590 -0.2091  0.1187 -0.0653
 1694WAT     H1 7496   6.317   3.933   3.538  1.2688 -1.0334 -1.6294
 1694WAT     H2 7497   6.435   4.001   3.539  0.1351  1.0589  1.1362
 1694WAT    EPW 7498   6.382   3.957   3.575  0.0601  0.0874 -0.1188
 1695WAT      O 7499   6.367   3.070   2.409  0.1583 -0.0378 -0.4823
 1695WAT     H1 7500   6.412   3.138   2.441  0.2292  0.8379 -2.3277
 1695WAT     H2 7501   6.362   3.016   2.477 -3.2185  3.2982  2.3574
 1695WAT    EPW 7502   6.373   3.072   2.424 -0.3300  0.5844 -0.3354
 1696WAT      O 7503   1.334   4.189   2.771  0.1398 -0.4497  0.3743
 1696WAT     H1 7504   1.283   4.143   2.716 -0.1088 -1.0954  1.1229
 1696WAT     H2 7505   1.406   4.203   2.725  0.3434 -1.8692  0.1984
 1696WAT    EPW 7506   1.337   4.184   2.756  0.1332 -0.7548  0.4589
 1697WAT      O 7507   7.067   7.166   0.259  0.0841 -0.0833  0.1285
 1697WAT     H1 7508   7.070   7.108   0.324 -0.0607 -0.6064 -0.3344
 1697WAT     H2 7509   7.141   7.152   0.216  0.7757  1.0814  0.8681
 1697WAT    EPW 7510   7.078   7.156   0.262  0.1649  0.0114  0.1694
 1698WAT      O 7511   0.068   5.714   6.030 -0.6593 -0.6099  0.3704
 1698WAT     H1 7512   0.148   5.745   6.015 -0.7297 -0.8808 -0.5858
 1698WAT     H2 7513   0.016   5.783   6.017 -0.5743 -0.3334  1.3585
 1698WAT    EPW 7514   0.072   5.729   6.026 -0.6571 -0.6090  0.3751
 1699WAT      O 7515   6.708   0.377   4.974 -0.2670  0.3543  0.2476
 1699WAT     H1 7516   6.734   0.352   5.054  2.8358 -2.7647 -1.4431
 1699WAT     H2 7517   6.763   0.441   4.953 -0.3561  0.4124  0.1899
 1699WAT    EPW 7518   6.720   0.383   4.983  0.1782 -0.0979 -0.0107
 1700WAT      O 7519   1.632   3.579   1.662  0.3614  0.7434  0.2378
 1700WAT     H1 7520   1.683   3.524   1.707  0.2166  1.0102  0.7462
 1700WAT     H2 7521   1.689   3.634   1.626  0.5761 -0.2791 -1.0614
 1700WAT    EPW 7522   1.648   3.579   1.664  0.3717  0.6318  0.1210
 1701WAT      O 7523   4.329   2.043   2.875  0.0226  0.5794 -0.0262
 1701WAT     H1 7524   4.284   2.056   2.949 -0.1651  0.2343 -0.0766
 1701WAT     H2 7525   4.412   2.054   2.899 -0.0648  0.8807  0.1448
 1701WAT    EPW 7526   4.335   2.047   2.889 -0.0180  0.5730 -0.0084
 1702WAT      O 7527   2.700   5.386   2.573 -0.4713  0.2787  0.1442
 1702WAT     H1 7528   2.727   5.436   2.639 -0.0315  0.8602 -0.4452
 1702WAT     H2 7529   2.660   5.319   2.611  0.7482  0.0326  1.0199
 1702WAT    EPW 7530   2.698   5.384   2.588 -0.2262  0.3283  0.1865
 1703WAT      O 7531   4.706   4.079   3.254 -0.1531  0.4126  0.3614
 1703WAT     H1 7532   4.639   4.060   3.306 -1.8960  1.4538 -1.3851
 1703WAT     H2 7533   4.720   4.005   3.210 -0.6657  0.4070  0.2045
 1703WAT    EPW 7534   4.698   4.065   3.256 -0.4863  0.5656  0.0802
 1704WAT      O 7535   5.724   5.139   4.155 -0.4291 -0.6546 -0.4221
 1704WAT     H1 7536   5.647   5.113   4.124 -1.3399 -0.4055  1.4865
 1704WAT     H2 7537   5.708   5.219   4.185  0.0884 -1.2471  1.5626
 1704WAT    EPW 7538   5.710   5.147   4.155 -0.4872 -0.7053  0.1530
 1705WAT      O 7539   2.421   5.599   5.274 -0.3787 -0.6253  0.1573
 1705WAT     H1 7540   2.476   5.578   5.338  0.1961 -0.9310 -0.4179
 1705WAT     H2 7541   2.449   5.678   5.248 -1.9161  0.4681  1.6550
 1705WAT    EPW 7542   2.433   5.607   5.279 -0.5209 -0.5089  0.2935
 1706WAT      O 7543   5.686   0.226   2.995  0.3014  0.6409  0.1104
 1706WAT     H1 7544   5.734   0.293   2.965  0.5727 -0.0027 -0.9077
 1706WAT     H2 7545   5.685   0.240   3.081  0.1770  2.0750 -0.0987
 1706WAT    EPW 7546   5.693   0.238   3.003  0.3231  0.7577 -0.0709
 1707WAT      O 7547   1.771   4.682   5.984  0.2054  0.4246 -0.4104
 1707WAT     H1 7548   1.772   4.767   6.007  0.6233  0.4060 -0.3586
 1707WAT     H2 7549   1.702   4.676   5.932 -0.0133  0.7345 -0.1618
 1707WAT    EPW 7550   1.761   4.694   5.980  0.2348  0.4676 -0.3660
 1708WAT      O 7551   5.973   2.505   0.766 -0.0601 -0.7652 -0.1790
 1708WAT     H1 7552   6.034   2.457   0.807  1.8533  2.0217  0.5486
 1708WAT     H2 7553   6.016   2.538   0.697 -1.8080 -1.4076 -1.6552
 1708WAT    EPW 7554   5.988   2.503   0.762 -0.0357 -0.4484 -0.2896
 1709WAT      O 7555   2.938   5.206   4.954  0.1734  0.1890 -0.0727
 1709WAT     H1 7556   3.010   5.165   4.927 -0.5489  0.1600 -2.1799
 1709WAT     H2 7557   2.907   5.156   5.018 -0.6768 -2.7166 -2.5331
 1709WAT    EPW 7558   2.944   5.193   4.959 -0.0589 -0.2445 -0.7474
 1710WAT      O 7559   4.795   2.048   1.696 -0.1773 -0.1213 -0.1369
 1710WAT     H1 7560   4.845   1.988   1.734 -0.2574  0.2418  0.5535
 1710WAT     H2 7561   4.839   2.066   1.622  1.0568  0.6201  0.7325
 1710WAT    EPW 7562   4.809   2.042   1.690 -0.0069  0.0418  0.0935
 1711WAT      O 7563   6.937   6.769   2.349  0.6283  0.0411 -0.5468
 1711WAT     H1 7564   6.857   6.751   2.318  0.1192  1.6867 -0.2756
 1711WAT     H2 7565   6.990   6.722   2.298 -0.4289 -0.0876 -1.5660
 1711WAT    EPW 7566   6.933   6.759   2.337  0.3969  0.2652 -0.6573
 1712WAT      O 7567   5.437   0.504   1.836  0.0173 -0.3547  0.0584
 1712WAT     H1 7568   5.380   0.440   1.824  0.8095 -0.8956 -1.0461
 1712WAT     H2 7569   5.513   0.463   1.846  1.0881  0.3264 -3.6526
 1712WAT    EPW 7570   5.440   0.489   1.835  0.2925 -0.3340 -0.6530
 1713WAT      O 7571   0.242   3.947   5.065 -0.2033  0.2794 -1.0369
 1713WAT     H1 7572   0.287   3.934   4.992  0.0232 -1.9969 -0.5564
 1713WAT     H2 7573   0.161   3.920   5.044 -0.2651  0.1319 -0.6221
 1713WAT    EPW 7574   0.236   3.941   5.051 -0.1790 -0.0787 -0.9047
 1714WAT      O 7575   2.905   5.611   2.143  0.6956 -0.1282 -0.2669
 1714WAT     H1 7576   2.957   5.541   2.142 -0.2018 -0.8463 -2.0190
 1714WAT     H2 7577   2.841   5.589   2.087 -0.8558  1.1774  0.9150
 1714WAT    EPW 7578   2.903   5.597   2.134  0.3339 -0.0414 -0.3511
 1715WAT      O 7579   3.814   2.837   1.864 -0.3149  0.0196  0.2837
 1715WAT     H1 7580   3.737   2.800   1.845 -0.5359  1.9618 -3.5708
 1715WAT     H2 7581   3.795   2.922   1.864  1.4983  0.4648  1.3770
 1715WAT    EPW 7582   3.800   2.844   1.861 -0.0797  0.3723 -0.1242
 1716WAT      O 7583   5.472   1.816   2.780  0.2440 -0.6746  0.2463
 1716WAT     H1 7584   5.470   1.820   2.693  0.4733 -2.0720  0.1585
 1716WAT     H2 7585   5.418   1.750   2.799 -0.6391  0.2889  1.2397
 1716WAT    EPW 7586   5.464   1.807   2.770  0.1474 -0.7387  0.3801
 1717WAT      O 7587   1.475   2.864   5.960 -0.0366  0.4593  0.0060
 1717WAT     H1 7588   1.518   2.883   6.033  0.9510  2.0161 -0.9321
 1717WAT     H2 7589   1.409   2.921   5.959  0.4963  1.0714 -0.7740
 1717WAT    EPW 7590   1.471   2.875   5.970  0.1880  0.7797 -0.2478
 1718WAT      O 7591   6.431   4.597   6.246  0.4406 -0.5687 -0.5948
 1718WAT     H1 7592   6.455   4.519   6.276  1.5089 -0.6557 -1.5926
 1718WAT     H2 7593   6.356   4.581   6.204 -1.8391 -0.2211  2.9359
 1718WAT    EPW 7594   6.424   4.583   6.244  0.2616 -0.5302 -0.2206
 1719WAT      O 7595   1.211   5.312   3.382 -0.2623 -0.6406  0.2273
 1719WAT     H1 7596   1.292   5.340   3.366 -0.2518 -0.4410  0.6181
 1719WAT     H2 7597   1.222   5.226   3.394 -0.1125 -0.6208  0.2424
 1719WAT    EPW 7598   1.225   5.303   3.381 -0.2386 -0.6082  0.2873
 1720WAT      O 7599   5.441   4.190   5.127  0.1317 -0.0578  0.4265
 1720WAT     H1 7600   5.502   4.223   5.073  0.4701 -1.5474 -0.1379
 1720WAT     H2 7601   5.371   4.181   5.076 -0.2535  0.6421  0.8153
 1720WAT    EPW 7602   5.440   4.194   5.111  0.1248 -0.1745  0.4006
 1721WAT      O 7603   3.483   5.961   6.100  0.1017 -0.1451  0.0346
 1721WAT     H1 7604   3.444   5.941   6.025 -0.7350 -0.9053  0.6428
 1721WAT     H2 7605   3.544   5.898   6.109  0.2981  0.0280 -0.0708
 1721WAT    EPW 7606   3.487   5.949   6.091  0.0071 -0.2319  0.1089
 1722WAT      O 7607   5.682   0.805   2.158  0.0991 -0.3090  0.0843
 1722WAT     H1 7608   5.709   0.878   2.198  0.3963 -0.8486  0.9037
 1722WAT     H2 7609   5.646   0.834   2.084  2.4805  0.4981 -0.8511
 1722WAT    EPW 7610   5.681   0.820   2.153  0.4948 -0.2695  0.0672
 1723WAT      O 7611   4.906   2.412   0.834 -0.0913 -0.1447 -0.3429
 1723WAT     H1 7612   4.865   2.478   0.875 -0.1450 -0.2190 -0.2776
 1723WAT     H2 7613   4.843   2.354   0.821 -0.0368 -0.1962 -0.3739
 1723WAT    EPW 7614   4.890   2.413   0.838 -0.0912 -0.1633 -0.3378
 1724WAT      O 7615   4.882   6.196   6.033  0.0054 -0.0583  0.1252
 1724WAT     H1 7616   4.843   6.270   6.056  0.5521 -0.0435  1.0810
 1724WAT     H2 7617   4.957   6.222   5.997 -1.3529 -0.0205 -3.0057
 1724WAT    EPW 7618   4.888   6.211   6.031 -0.1145 -0.0506 -0.1961
 1725WAT      O 7619   4.352   6.783   1.335  0.0765 -0.0406 -1.0886
 1725WAT     H1 7620   4.397   6.856   1.320 -0.5248  0.2877 -1.3171
 1725WAT     H2 7621   4.352   6.742   1.258  0.5296 -0.3566 -0.9277
 1725WAT    EPW 7622   4.359   6.788   1.322  0.0546 -0.0388 -1.0986
 1726WAT      O 7623   1.259   4.742   3.384 -0.5521  0.0422 -0.5056
 1726WAT     H1 7624   1.319   4.746   3.321  0.3016  1.4915  0.3231
 1726WAT     H2 7625   1.294   4.687   3.442  0.6458  1.7489  0.5218
 1726WAT    EPW 7626   1.273   4.735   3.383 -0.2490  0.5084 -0.2314
 1727WAT      O 7627   6.148   3.988   2.579 -0.5134 -0.2447 -0.1905
 1727WAT     H1 7628   6.082   3.964   2.631 -1.4792  0.3369 -1.1199
 1727WAT     H2 7629   6.177   3.913   2.546 -1.8417 -0.3901 -1.0982
 1727WAT    EPW 7630   6.143   3.973   2.582 -0.8523 -0.1803 -0.4619
 1728WAT      O 7631   6.814   4.522   2.667  0.4207 -0.1538 -0.1527
 1728WAT     H1 7632   6.883   4.539   2.718  0.9633 -0.8699 -0.6296
 1728WAT     H2 7633   6.807   4.595   2.619 -0.0303  0.4813  0.8576
 1728WAT    EPW 7634   6.823   4.536   2.667  0.4342 -0.1658 -0.0739
 1729WAT      O 7635   5.448   2.592   5.438  0.0479  0.1864  0.2350
 1729WAT     H1 7636   5.408   2.624   5.367 -0.6248 -1.1944 -0.0546
 1729WAT     H2 7637   5.510   2.541   5.405 -2.9986 -4.1355  0.2758
 1729WAT    EPW 7638   5.451   2.589   5.423 -0.5015 -0.6560  0.1983
 1730WAT      O 7639   4.551   3.180   2.404  1.1262  0.2586  0.1601
 1730WAT     H1 7640   4.601   3.193   2.334  0.4004  1.4779 -0.1599
 1730WAT     H2 7641   4.499   3.115   2.381  1.6845 -0.1423  0.0178
 1730WAT    EPW 7642   4.551   3.173   2.390  1.1015  0.3795  0.0918
 1731WAT      O 7643   5.498   2.858   1.742 -0.2288  0.4096 -0.5461
 1731WAT     H1 7644   5.557   2.902   1.694  0.9776 -0.0485  0.4578
 1731WAT     H2 7645   5.497   2.901   1.818 -2.2473  1.2234 -0.9677
 1731WAT    EPW 7646   5.507   2.871   1.746 -0.3488  0.4622 -0.4601
 1732WAT      O 7647   2.527   0.868   0.429  0.2753 -0.2099 -0.1554
 1732WAT     H1 7648   2.611   0.853   0.408 -0.0110  0.8194 -2.3746
 1732WAT     H2 7649   2.503   0.930   0.372 -2.2769 -1.1502 -0.2109
 1732WAT    EPW 7650   2.536   0.875   0.417 -0.1440 -0.1967 -0.4914
 1733WAT      O 7651   0.959   2.012   7.423  0.0844  0.1533  0.5103
 1733WAT     H1 7652   1.044   1.994   7.436 -0.1340 -1.1625  0.3378
 1733WAT     H2 7653   0.959   2.096   7.400  1.3673  0.1321  0.3397
 1733WAT    EPW 7654   0.972   2.021   7.421  0.2416 -0.0442  0.4596
 1734WAT      O 7655   4.724   6.548   4.805 -0.2408 -0.0135  0.4051
 1734WAT     H1 7656   4.661   6.538   4.865  0.1018  1.6723  1.1144
 1734WAT     H2 7657   4.770   6.616   4.836  0.7517  0.0286 -1.0947
 1734WAT    EPW 7658   4.722   6.557   4.818 -0.0436  0.2418  0.2883
 1735WAT      O 7659   1.765   1.794   3.941 -0.3157 -0.5147  0.0648
 1735WAT     H1 7660   1.775   1.755   4.018 -3.6274 -3.3138 -0.6976
 1735WAT     H2 7661   1.817   1.749   3.888  2.0654  1.4941  0.5026
 1735WAT    EPW 7662   1.774   1.782   3.945 -0.4532 -0.6315  0.0169
 1736WAT      O 7663   2.877   6.187   4.151 -0.0356  0.1635 -0.1776
 1736WAT     H1 7664   2.806   6.164   4.196  0.2070 -0.1977  0.0328
 1736WAT     H2 7665   2.928   6.116   4.157  0.8944  0.8793  0.7894
 1736WAT    EPW 7666   2.874   6.173   4.158  0.1376  0.2159 -0.0037
 1737WAT      O 7667   3.260   1.425   5.707 -0.2193  0.3462  0.0753
 1737WAT     H1 7668   3.190   1.389   5.669 -0.5636  0.6695  0.3875
 1737WAT     H2 7669   3.225   1.485   5.759  0.3495  1.0808 -0.3857
 1737WAT    EPW 7670   3.244   1.428   5.709 -0.1862  0.5025  0.0533
 1738WAT      O 7671   5.189   6.803   5.143  0.3368 -0.0697  0.2345
 1738WAT     H1 7672   5.179   6.730   5.191  3.0271  0.5645  1.9715
 1738WAT     H2 7673   5.153   6.865   5.193 -2.6460 -0.1217 -1.5723
 1738WAT    EPW 7674   5.182   6.801   5.157  0.2936  0.0163  0.2242
 1739WAT      O 7675   0.406   2.869   4.539 -0.0529  0.2959 -0.1949
 1739WAT     H1 7676   0.451   2.802   4.573  0.0040  0.0803 -0.6838
 1739WAT     H2 7677   0.323   2.844   4.544 -0.0039 -0.0055 -0.7739
 1739WAT    EPW 7678   0.401   2.855   4.544 -0.0373  0.2196 -0.3527
 1740WAT      O 7679   5.281   7.140   3.931  0.4241  0.0845  0.1880
 1740WAT     H1 7680   5.326   7.174   3.997  1.0670 -1.0724  0.3743
 1740WAT     H2 7681   5.319   7.062   3.918  0.8708  0.6175 -2.0869
 1740WAT    EPW 7682   5.293   7.133   3.939  0.5850 -0.0077 -0.1205
 1741WAT      O 7683   2.455  -0.005   2.374  0.1501  0.6252  0.3353
 1741WAT     H1 7684   2.531   0.026   2.346  0.2341  2.2544  2.1385
 1741WAT     H2 7685   2.414   0.066   2.404 -1.8354 -0.2977 -0.0266
 1741WAT    EPW 7686   2.460   0.010   2.374 -0.1308  0.7295  0.5482
 1742WAT      O 7687   0.998   4.345   3.082  0.6573 -0.0020 -0.1636
 1742WAT     H1 7688   1.069   4.395   3.086  0.4384  0.2590  0.5861
 1742WAT     H2 7689   0.932   4.402   3.090  0.4208 -0.4532  1.4827
 1742WAT    EPW 7690   0.998   4.361   3.084  0.5900 -0.0301  0.1903
 1743WAT      O 7691   2.106   0.207   5.432  0.2576 -0.0482  0.2957
 1743WAT     H1 7692   2.163   0.263   5.468  0.7244  0.9335 -1.8123
 1743WAT     H2 7693   2.157   0.155   5.385 -0.4134 -0.6565  0.2315
 1743WAT    EPW 7694   2.122   0.208   5.431  0.2274  0.0070 -0.0252
 1744WAT      O 7695   4.948   1.772   7.253 -0.4641  0.1797 -0.3168
 1744WAT     H1 7696   4.945   1.698   7.207  0.0883  0.6690 -1.1773
 1744WAT     H2 7697   5.034   1.785   7.266 -0.5282 -1.9372  4.2535
 1744WAT    EPW 7698   4.960   1.763   7.248 -0.3920 -0.0607  0.2312
 1745WAT      O 7699   3.667   0.302   2.647 -0.6259  0.3614 -0.0760
 1745WAT     H1 7700   3.674   0.323   2.563 -2.3615 -1.4164 -0.7223
 1745WAT     H2 7701   3.750   0.300   2.674 -0.1102  2.8177 -1.1943
 1745WAT    EPW 7702   3.680   0.305   2.639 -0.8061  0.4616 -0.3367
 1746WAT      O 7703   0.261   3.692   7.392 -0.6539 -0.5657  0.5012
 1746WAT     H1 7704   0.213   3.763   7.379  1.6308  1.0805  0.5473
 1746WAT     H2 7705   0.249   3.645   7.319 -0.7068  0.7856 -0.3812
 1746WAT    EPW 7706   0.252   3.695   7.379 -0.3242 -0.1229  0.3776
 1747WAT      O 7707   2.914   2.784   1.781 -0.4264 -0.0053  0.3105
 1747WAT     H1 7708   2.961   2.829   1.722 -0.2812  0.8063  1.0182
 1747WAT     H2 7709   2.877   2.847   1.829 -0.2062 -0.6431  1.3495
 1747WAT    EPW 7710   2.915   2.800   1.779 -0.3725  0.0203  0.5685
 1748WAT      O 7711   6.438   6.077   4.398 -0.2109  0.3102  0.0916
 1748WAT     H1 7712   6.492   6.052   4.462 -0.4531  2.1019  1.0648
 1748WAT     H2 7713   6.381   6.129   4.438  0.0798  2.1398 -1.6869
 1748WAT    EPW 7714   6.438   6.081   4.413 -0.2037  0.8451 -0.0274
 1749WAT      O 7715   2.675   6.009   4.989  0.0217  0.8886 -0.0793
 1749WAT     H1 7716   2.678   6.047   5.068 -1.7175 -2.2137  1.6478
 1749WAT     H2 7717   2.616   6.057   4.946 -1.5000  0.7141  1.7062
 1749WAT    EPW 7718   2.667   6.022   4.995 -0.4600  0.4045  0.4396
 1750WAT      O 7719   0.131   1.305   2.671 -0.3716 -0.4528 -0.1348
 1750WAT     H1 7720   0.205   1.344   2.648  1.2049 -1.2041  3.0632
 1750WAT     H2 7721   0.077   1.372   2.686  0.0265  0.1526 -1.2850
 1750WAT    EPW 7722   0.134   1.321   2.670 -0.0799 -0.4744  0.1677
 1751WAT      O 7723   4.683   1.284   2.834  0.3908  0.1973  0.0961
 1751WAT     H1 7724   4.724   1.348   2.790  0.7208 -0.2248 -0.2161
 1751WAT     H2 7725   4.601   1.314   2.840  0.9249  1.5025  1.5861
 1751WAT    EPW 7726   4.677   1.298   2.828  0.5184  0.3278  0.2701
 1752WAT      O 7727   0.475   6.777   4.129 -0.6780 -0.5080  0.1639
 1752WAT     H1 7728   0.560   6.786   4.111 -0.6409 -0.1402  0.4955
 1752WAT     H2 7729   0.440   6.754   4.052 -0.6495  1.8126 -0.6270
 1752WAT    EPW 7730   0.482   6.775   4.115 -0.6683 -0.1108  0.0961
 1753WAT      O 7731   2.372   3.946   5.331 -0.5392  0.3173 -0.7460
 1753WAT     H1 7732   2.405   3.952   5.251  0.3754 -0.3527 -0.4329
 1753WAT     H2 7733   2.432   3.984   5.381 -0.2536 -0.8233 -0.1838
 1753WAT    EPW 7734   2.386   3.953   5.327 -0.3619  0.0498 -0.6167
 1754WAT      O 7735   3.736   3.769   1.733  0.0524  0.3618 -0.0235
 1754WAT     H1 7736   3.807   3.731   1.765  0.6471  0.3926 -1.2577
 1754WAT     H2 7737   3.754   3.854   1.738  0.2933  0.3545 -0.7643
 1754WAT    EPW 7738   3.749   3.776   1.739  0.1758  0.3652 -0.3153
 1755WAT      O 7739   3.204   4.981   5.675 -0.0710 -0.3814 -0.1499
 1755WAT     H1 7740   3.121   4.991   5.698  0.0099  0.3437 -0.1462
 1755WAT     H2 7741   3.235   5.062   5.673  1.1067 -0.7454  1.5305
 1755WAT    EPW 7742   3.197   4.994   5.678  0.1149 -0.3281  0.0989
 1756WAT      O 7743   3.890   0.900   4.784 -0.2163  0.2510 -0.0804
 1756WAT     H1 7744   3.805   0.885   4.771 -0.0668 -0.2711 -0.4735
 1756WAT     H2 7745   3.894   0.924   4.868 -0.6591 -0.4346  0.1449
 1756WAT    EPW 7746   3.878   0.901   4.794 -0.2596  0.0726 -0.1052
 1757WAT      O 7747   3.726   1.124   4.417  0.1814 -0.2086 -0.4392
 1757WAT     H1 7748   3.733   1.207   4.393  1.5973 -0.0378  0.4426
 1757WAT     H2 7749   3.806   1.104   4.446 -0.8156 -1.0269  2.0056
 1757WAT    EPW 7750   3.739   1.133   4.418  0.2433 -0.3042  0.0522
 1758WAT      O 7751   2.689   1.742   0.478 -0.1865  0.2292 -0.2915
 1758WAT     H1 7752   2.659   1.777   0.552  1.1091  0.8370 -0.0252
 1758WAT     H2 7753   2.685   1.656   0.492 -0.2859  0.3358  0.3416
 1758WAT    EPW 7754   2.684   1.734   0.491 -0.0098  0.3347 -0.1586
 1759WAT      O 7755   3.117   1.077   0.233 -0.6289 -0.4481  0.4074
 1759WAT     H1 7756   3.131   1.009   0.180 -2.2275 -1.5787  1.3720
 1759WAT     H2 7757   3.133   1.044   0.312  2.6942  1.4675  0.7017
 1759WAT    EPW 7758   3.122   1.062   0.236 -0.3742 -0.3322  0.5934
 1760WAT      O 7759   4.190   0.209   7.289  0.5582 -0.2960  0.3950
 1760WAT     H1 7760   4.111   0.232   7.318  0.5944 -0.3174  0.5097
 1760WAT     H2 7761   4.192   0.122   7.301  0.0079 -0.5293 -1.0272
 1760WAT    EPW 7762   4.179   0.199   7.295  0.4823 -0.3336  0.2019
 1761WAT      O 7763   4.986   3.640   5.952  0.3937  0.4834  0.4006
 1761WAT     H1 7764   5.013   3.723   5.942  0.8347  0.4070  0.8898
 1761WAT     H2 7765   4.905   3.649   5.983 -0.8118  0.7215 -2.5308
 1761WAT    EPW 7766   4.978   3.654   5.955  0.2807  0.5073  0.0398
 1762WAT      O 7767   3.251   2.464   0.067 -0.6278  0.5313 -0.6199
 1762WAT     H1 7768   3.228   2.431   0.145 -1.7247  0.9041 -0.7596
 1762WAT     H2 7769   3.188   2.522   0.051  1.1812  2.6821 -0.4105
 1762WAT    EPW 7770   3.238   2.468   0.076 -0.5226  0.9041 -0.6096
 1763WAT      O 7771   3.554   5.842   5.461  0.1698  0.3353 -0.5974
 1763WAT     H1 7772   3.594   5.795   5.400  1.2502 -0.8401  0.9492
 1763WAT     H2 7773   3.584   5.810   5.536 -0.3280  2.3922  0.5820
 1763WAT    EPW 7774   3.564   5.830   5.463  0.2559  0.4655 -0.1947
 1764WAT      O 7775   4.329   1.880   5.991  0.2055 -0.1305  0.0215
 1764WAT     H1 7776   4.394   1.926   6.027 -0.7741  2.7373 -1.5417
 1764WAT     H2 7777   4.369   1.832   5.930  0.8994  1.7166 -1.0345
 1764WAT    EPW 7778   4.345   1.880   5.987  0.1633  0.5660 -0.3654
 1765WAT      O 7779   0.118   0.347   0.980 -0.4546  0.6111  0.1512
 1765WAT     H1 7780   0.187   0.390   0.948  2.2302 -1.5663  2.4641
 1765WAT     H2 7781   0.098   0.389   1.053  0.2117 -0.2204  0.8415
 1765WAT    EPW 7782   0.125   0.359   0.986  0.0404  0.1666  0.5949
 1766WAT      O 7783   5.223   0.902   4.810  0.0624  0.4774  0.4180
 1766WAT     H1 7784   5.174   0.830   4.805 -0.4264  0.7992  0.4290
 1766WAT     H2 7785   5.220   0.922   4.895 -0.7507  1.1340  0.2552
 1766WAT    EPW 7786   5.215   0.894   4.822 -0.1300  0.6219  0.3956
 1767WAT      O 7787   6.077   5.235   5.600  0.0996 -0.5372  0.4455
 1767WAT     H1 7788   6.017   5.214   5.541 -0.0089  0.0928  0.3246
 1767WAT     H2 7789   6.123   5.161   5.610  0.0004 -0.7062 -0.2798
 1767WAT    EPW 7790   6.075   5.221   5.593  0.0689 -0.4691  0.3205
 1768WAT      O 7791   4.694   5.097   4.415 -0.2274 -1.1857 -0.2860
 1768WAT     H1 7792   4.670   5.123   4.335 -0.7744  0.8323  0.4707
 1768WAT     H2 7793   4.781   5.103   4.412 -0.3193  1.3157 -0.0557
 1768WAT    EPW 7794   4.703   5.102   4.403 -0.3218 -0.5181 -0.1402
 1769WAT      O 7795   5.401   4.658   2.277  0.4395 -0.3675 -0.4066
 1769WAT     H1 7796   5.447   4.607   2.331 -0.1377  0.6534  1.1000
 1769WAT     H2 7797   5.329   4.611   2.262  0.8864 -0.9374 -0.8616
 1769WAT    EPW 7798   5.397   4.643   2.283  0.4202 -0.3009 -0.2512
 1770WAT      O 7799   6.572   6.545   5.202  0.9632 -0.3118 -0.2492
 1770WAT     H1 7800   6.638   6.571   5.252  1.4272  0.3047 -1.1418
 1770WAT     H2 7801   6.507   6.601   5.221  1.0248 -0.3014 -0.0787
 1770WAT    EPW 7802   6.572   6.557   5.212  1.0408 -0.2192 -0.3559
 1771WAT      O 7803   1.427   1.061   0.005 -0.0949 -0.6043 -0.4547
 1771WAT     H1 7804   1.472   1.051   0.079  0.3531 -0.6428 -0.7246
 1771WAT     H2 7805   1.368   1.122   0.025  1.3333  0.9365 -0.6141
 1771WAT    EPW 7806   1.425   1.069   0.019  0.1822 -0.3824 -0.5181
 1772WAT      O 7807   3.332   3.170   1.810  0.3170 -0.0139 -0.0597
 1772WAT     H1 7808   3.399   3.114   1.804  0.1053 -0.5839  2.0606
 1772WAT     H2 7809   3.296   3.151   1.888 -0.8010  1.9366 -0.0340
 1772WAT    EPW 7810   3.337   3.159   1.821  0.1206  0.1900  0.2573
 1773WAT      O 7811   5.722   1.598   7.022  0.0804 -0.1063 -0.6118
 1773WAT     H1 7812   5.665   1.554   7.071  0.0619  0.7994  0.2032
 1773WAT     H2 7813   5.775   1.636   7.080 -0.2968  1.4799 -1.2439
 1773WAT    EPW 7814   5.722   1.597   7.038  0.0220  0.2618 -0.5848
 1774WAT      O 7815   3.865   1.436   2.079  0.3179  0.0607  0.2180
 1774WAT     H1 7816   3.943   1.408   2.053 -0.0445 -0.2153 -0.6019
 1774WAT     H2 7817   3.811   1.372   2.053 -0.4047  1.0767 -0.8678
 1774WAT    EPW 7818   3.868   1.422   2.072  0.1576  0.1700 -0.0635
 1775WAT      O 7819   1.120   3.888   0.311 -0.3121  0.4998  0.0134
 1775WAT     H1 7820   1.065   3.950   0.286 -1.3950 -0.6131 -0.4946
 1775WAT     H2 7821   1.148   3.853   0.237  0.7926  0.7770  0.2779
 1775WAT    EPW 7822   1.116   3.892   0.297 -0.3089  0.3763 -0.0226
 1776WAT      O 7823   5.460   4.868   1.554  0.0048 -0.0072  0.6897
 1776WAT     H1 7824   5.500   4.796   1.581 -2.5215 -1.4165  0.9376
 1776WAT     H2 7825   5.474   4.868   1.468 -0.3152 -1.0437  0.6298
 1776WAT    EPW 7826   5.468   4.858   1.545 -0.4157 -0.3685  0.7175
 1777WAT      O 7827   1.297   3.529   6.123  0.0514 -0.0425  0.8364
 1777WAT     H1 7828   1.379   3.504   6.107 -0.8122 -2.6233 -0.1306
 1777WAT     H2 7829   1.294   3.611   6.094  1.9829 -0.2949 -0.2346
 1777WAT    EPW 7830   1.308   3.537   6.116  0.2091 -0.4610  0.5354
 1778WAT      O 7831   3.716   5.277   6.244 -0.0563 -0.3924  0.1226
 1778WAT     H1 7832   3.749   5.266   6.164  1.9004  0.5455  0.7456
 1778WAT     H2 7833   3.662   5.345   6.235  1.4467  0.8193 -0.0956
 1778WAT    EPW 7834   3.713   5.285   6.231  0.4548 -0.0749  0.1824
 1779WAT      O 7835   0.379   1.347   6.712 -0.0961  0.1319  0.1282
 1779WAT     H1 7836   0.375   1.337   6.799  0.1967 -3.4769 -0.1312
 1779WAT     H2 7837   0.329   1.416   6.697 -0.4676  0.6440  3.1327
 1779WAT    EPW 7838   0.371   1.356   6.723 -0.1077 -0.3255  0.5337
 1780WAT      O 7839   0.563   7.076   1.849  0.0611  0.0982  0.1407
 1780WAT     H1 7840   0.631   7.125   1.828  0.4133  0.0848  1.2006
 1780WAT     H2 7841   0.495   7.118   1.813  0.8111 -1.0041 -2.7486
 1780WAT    EPW 7842   0.563   7.089   1.841  0.2240 -0.0666 -0.1295
 1781WAT      O 7843   5.676   2.203   7.162 -0.6408 -0.2124  0.4179
 1781WAT     H1 7844   5.622   2.227   7.097 -0.1092 -0.1383 -0.0090
 1781WAT     H2 7845   5.752   2.237   7.138 -0.6295  0.6491  1.5782
 1781WAT    EPW 7846   5.679   2.212   7.149 -0.5606 -0.0742  0.5262
 1782WAT      O 7847   1.600   6.530   6.123  0.5182  0.2109  0.2318
 1782WAT     H1 7848   1.649   6.602   6.111 -0.5983  0.9540 -0.0533
 1782WAT     H2 7849   1.550   6.528   6.052  0.2772 -0.6416  0.4221
 1782WAT    EPW 7850   1.600   6.541   6.111  0.3177  0.1947  0.2178
 1783WAT      O 7851   1.855   6.593   5.874  0.0950 -0.3622 -0.5736
 1783WAT     H1 7852   1.835   6.532   5.815 -0.3187  0.6521 -1.5095
 1783WAT     H2 7853   1.909   6.646   5.831  0.5445 -0.1238  0.2649
 1783WAT    EPW 7854   1.860   6.592   5.859  0.1003 -0.1771 -0.5880
 1784WAT      O 7855   4.553   6.830   7.389 -0.3930 -0.2624 -0.2917
 1784WAT     H1 7856   4.640   6.826   7.395 -0.3621 -1.3640 -1.1207
 1784WAT     H2 7857   4.526   6.812   7.470  0.1414 -0.5015 -0.1602
 1784WAT    EPW 7858   4.562   6.827   7.402 -0.3095 -0.4605 -0.3947
 1785WAT      O 7859   2.804   1.404   3.885 -0.0415  0.3445  0.5332
 1785WAT     H1 7860   2.751   1.335   3.894  2.8770 -2.0104  1.2237
 1785WAT     H2 7861   2.821   1.406   3.799  1.5104 -1.2477  0.7540
 1785WAT    EPW 7862   2.799   1.394   3.873  0.6188 -0.2386  0.6678
 1786WAT      O 7863   4.935   6.361   2.332  0.5499  0.1532 -0.3067
 1786WAT     H1 7864   4.918   6.404   2.406  0.7803  0.2409 -0.3054
 1786WAT     H2 7865   4.899   6.282   2.346  2.3139 -0.5477  0.7104
 1786WAT    EPW 7866   4.927   6.355   2.345  0.8446  0.0626 -0.1562
 1787WAT      O 7867   3.488   5.954   2.521  0.0421  0.1113 -0.2789
 1787WAT     H1 7868   3.491   5.879   2.477 -0.3918  0.0523 -0.2111
 1787WAT     H2 7869   3.451   6.009   2.464  0.4996  0.3184 -0.3846
 1787WAT    EPW 7870   3.483   5.951   2.506  0.0456  0.1332 -0.2845
 1788WAT      O 7871   3.512   5.444   3.654 -0.1132 -0.3342  0.0518
 1788WAT     H1 7872   3.569   5.435   3.720  1.1593  0.1295 -0.9489
 1788WAT     H2 7873   3.434   5.447   3.695  0.6437  0.0584  1.5471
 1788WAT    EPW 7874   3.509   5.443   3.670  0.1866 -0.2078  0.1249
 1789WAT      O 7875   3.393   2.193   5.733  0.1887  0.0075 -0.0977
 1789WAT     H1 7876   3.384   2.270   5.773 -1.6148 -0.2884  0.1840
 1789WAT     H2 7877   3.479   2.182   5.726  0.4788  2.2260 -0.5239
 1789WAT    EPW 7878   3.404   2.203   5.738 -0.0349  0.2915 -0.1190
 1790WAT      O 7879   4.186   0.668   0.987 -0.0338 -0.0700 -0.2085
 1790WAT     H1 7880   4.184   0.731   0.927  0.1313  0.6805  0.5518
 1790WAT     H2 7881   4.135   0.698   1.050 -0.3271 -0.9172 -0.0302
 1790WAT    EPW 7882   4.178   0.682   0.987 -0.0528 -0.0843 -0.0698
 1791WAT      O 7883   0.244   2.286   6.981 -0.5139  0.3886  0.1524
 1791WAT     H1 7884   0.261   2.214   6.935  0.4760  0.1818  0.8167
 1791WAT     H2 7885   0.224   2.256   7.060 -0.5541  0.8199  0.3110
 1791WAT    EPW 7886   0.244   2.271   6.986 -0.3736  0.4218  0.2740
 1792WAT      O 7887   5.938   2.776   4.768 -0.2620 -0.0244  0.1918
 1792WAT     H1 7888   5.997   2.838   4.752 -0.2317  0.0836  0.7018
 1792WAT     H2 7889   5.883   2.782   4.700 -1.6871  2.2425  1.4092
 1792WAT    EPW 7890   5.938   2.786   4.756 -0.4681  0.3264  0.4470
 1793WAT      O 7891   0.571   1.480   2.957 -0.5886 -0.7644 -0.4886
 1793WAT     H1 7892   0.582   1.448   3.038 -2.2573  0.7905  0.4250
 1793WAT     H2 7893   0.624   1.550   2.956 -2.8018  1.0795  0.4974
 1793WAT    EPW 7894   0.580   1.486   2.969 -1.1620 -0.2624 -0.2080
 1794WAT      O 7895   1.013   6.645   5.077 -0.0038  0.1256  0.3023
 1794WAT     H1 7896   1.082   6.599   5.048  0.6508  1.2617  0.0082
 1794WAT     H2 7897   0.959   6.647   5.009 -0.4647 -0.9790  0.6105
 1794WAT    EPW 7898   1.016   6.638   5.063  0.0248  0.1302  0.3044
 1795WAT      O 7899   6.482   0.242   5.730 -0.1550  0.2998  0.2236
 1795WAT     H1 7900   6.568   0.253   5.716 -0.2624  1.1981  0.2171
 1795WAT     H2 7901   6.479   0.215   5.813  0.1507 -0.1751  0.0926
 1795WAT    EPW 7902   6.494   0.239   5.741 -0.1257  0.3624  0.2033
 1796WAT      O 7903   6.124   0.175   0.721 -0.2950  0.1979  0.1134
 1796WAT     H1 7904   6.207   0.156   0.699 -0.2691 -0.7058  0.9277
 1796WAT     H2 7905   6.082   0.100   0.709 -0.9481  0.5848 -0.0454
 1796WAT    EPW 7906   6.130   0.161   0.716 -0.3876  0.1215  0.2102
 1797WAT      O 7907   6.366   1.407   0.577  0.3440  0.4157 -0.3635
 1797WAT     H1 7908   6.369   1.433   0.494 -0.4742  0.8774 -0.2701
 1797WAT     H2 7909   6.297   1.354   0.580 -0.6978  1.7195  0.3297
 1797WAT    EPW 7910   6.356   1.403   0.565  0.0692  0.6765 -0.2473
 1798WAT      O 7911   1.463   6.288   1.096  0.2052  0.3286 -0.2058
 1798WAT     H1 7912   1.510   6.358   1.074 -0.2761  1.1520  1.2610
 1798WAT     H2 7913   1.437   6.256   1.019  2.2127  0.4893 -0.9937
 1798WAT    EPW 7914   1.466   6.294   1.081  0.4307  0.4740 -0.1055
 1799WAT      O 7915   4.214   1.281   5.192 -0.2799 -0.5560  0.9032
 1799WAT     H1 7916   4.213   1.320   5.114 -1.1175 -0.8279  0.7636
 1799WAT     H2 7917   4.224   1.347   5.249  0.6850 -0.3920  0.5608
 1799WAT    EPW 7918   4.215   1.296   5.189 -0.2611 -0.5719  0.8320
 1800WAT      O 7919   5.864   1.850   2.764  0.0026 -0.4583 -0.2383
 1800WAT     H1 7920   5.795   1.812   2.727  1.4755 -0.9878 -2.6197
 1800WAT     H2 7921   5.852   1.935   2.747 -1.6619 -0.0911  2.2901
 1800WAT    EPW 7922   5.852   1.857   2.756 -0.0257 -0.4823 -0.2166
 1801WAT      O 7923   2.691   1.928   1.965 -0.4935 -0.1112  0.0137
 1801WAT     H1 7924   2.609   1.916   1.936 -0.8733  0.4972  0.8004
 1801WAT     H2 7925   2.687   1.904   2.048  0.0070  0.4077  0.1916
 1801WAT    EPW 7926   2.678   1.923   1.973 -0.4757  0.0553  0.1562
 1802WAT      O 7927   2.080   0.660   2.239  0.1007  0.5615 -0.4478
 1802WAT     H1 7928   2.011   0.704   2.270 -0.2691  0.4043 -1.0255
 1802WAT     H2 7929   2.106   0.612   2.306 -0.8989 -0.0413 -0.4751
 1802WAT    EPW 7930   2.073   0.660   2.253 -0.1016  0.4492 -0.5372
 1803WAT      O 7931   3.758   6.778   5.622  0.3584  0.1235 -0.5264
 1803WAT     H1 7932   3.752   6.697   5.591 -0.1945 -0.4934  1.0557
 1803WAT     H2 7933   3.784   6.766   5.705 -1.8014  1.3721  0.4273
 1803WAT    EPW 7934   3.761   6.764   5.630 -0.0423  0.2168 -0.1518
 1804WAT      O 7935   5.862   6.444   0.402  0.3392 -0.1296 -0.0593
 1804WAT     H1 7936   5.913   6.494   0.350  0.1622 -1.7224 -1.8848
 1804WAT     H2 7937   5.919   6.395   0.446  0.4470 -0.2027 -0.2792
 1804WAT    EPW 7938   5.878   6.444   0.400  0.3290 -0.3757 -0.3614
 1805WAT      O 7939   5.798   2.431   6.652 -0.1372 -0.1932 -0.6211
 1805WAT     H1 7940   5.875   2.390   6.656  0.5377  0.8340 -2.2688
 1805WAT     H2 7941   5.805   2.495   6.710  0.7744  0.6796 -1.6563
 1805WAT    EPW 7942   5.810   2.434   6.661  0.0972  0.0874 -1.0174
 1806WAT      O 7943   2.990   2.090   5.795  0.4201 -0.0969 -0.5750
 1806WAT     H1 7944   3.023   2.016   5.825 -0.5790 -0.3951 -0.1577
 1806WAT     H2 7945   2.921   2.104   5.847 -0.4287  0.2003 -1.7476
 1806WAT    EPW 7946   2.985   2.081   5.807  0.1471 -0.0971 -0.6865
 1807WAT      O 7947   5.168   0.719   3.960  0.0385  0.0772  0.2624
 1807WAT     H1 7948   5.160   0.775   4.027  0.7189 -1.4462  1.6728
 1807WAT     H2 7949   5.248   0.737   3.928  0.4821 -0.4566  1.0628
 1807WAT    EPW 7950   5.179   0.730   3.965  0.2046 -0.2267  0.5890
 1808WAT      O 7951   6.767   5.647   2.954 -0.3159  0.1314 -0.2138
 1808WAT     H1 7952   6.802   5.677   3.029  0.3729 -2.0602  0.4178
 1808WAT     H2 7953   6.760   5.562   2.968 -0.1258 -0.3633 -2.6886
 1808WAT    EPW 7954   6.771   5.639   2.967 -0.1861 -0.2654 -0.4861
 1809WAT      O 7955   0.517   7.018   2.326 -0.0464  0.4533 -0.3373
 1809WAT     H1 7956   0.529   7.074   2.260 -1.0351  1.2671  0.1500
 1809WAT     H2 7957   0.448   7.051   2.369 -0.3674 -0.8874  0.2292
 1809WAT    EPW 7958   0.508   7.031   2.322 -0.2399  0.3754 -0.1817
 1810WAT      O 7959   3.709   4.540   6.301 -0.9069 -0.2209 -0.1574
 1810WAT     H1 7960   3.719   4.487   6.232  0.2591 -0.7917  0.4015
 1810WAT     H2 7961   3.716   4.620   6.267  1.1944 -0.5021 -0.5685
 1810WAT    EPW 7962   3.712   4.544   6.286 -0.4243 -0.3468 -0.1356
 1811WAT      O 7963   1.673   3.621   4.154  0.7411 -0.4481  0.4396
 1811WAT     H1 7964   1.720   3.694   4.144 -0.1625  0.4904  2.3258
 1811WAT     H2 7965   1.727   3.568   4.198  0.8496 -0.2654  0.5293
 1811WAT    EPW 7966   1.688   3.624   4.159  0.6237 -0.2825  0.7315
 1812WAT      O 7967   3.009   6.706   4.015  0.1044 -0.1472 -0.1881
 1812WAT     H1 7968   3.056   6.655   4.068 -1.1191 -0.8157  0.3162
 1812WAT     H2 7969   2.928   6.696   4.045 -0.8257 -1.4390 -2.8342
 1812WAT    EPW 7970   3.004   6.697   4.027 -0.2138 -0.4367 -0.5045
 1813WAT      O 7971   6.748   0.396   3.829 -0.3208  0.2541  0.5139
 1813WAT     H1 7972   6.697   0.411   3.898  0.3410 -0.1079  1.0989
 1813WAT     H2 7973   6.733   0.312   3.810  0.0169  0.1539  0.6688
 1813WAT    EPW 7974   6.738   0.386   3.836 -0.1732  0.1858  0.6232
 1814WAT      O 7975   6.176   5.012   1.921 -0.7266 -0.3992  0.2309
 1814WAT     H1 7976   6.261   5.030   1.927 -0.2784 -2.0645 -0.4093
 1814WAT     H2 7977   6.137   5.086   1.945  0.8967  0.2480  1.0147
 1814WAT    EPW 7978   6.182   5.026   1.925 -0.4206 -0.5496  0.2521
 1815WAT      O 7979   5.070   2.172   3.908  0.4162  0.5261  0.1715
 1815WAT     H1 7980   5.052   2.239   3.854  0.3093 -0.0109 -0.4694
 1815WAT     H2 7981   5.050   2.102   3.860  0.2842  0.0403  0.9318
 1815WAT    EPW 7982   5.064   2.172   3.893  0.3809  0.3750  0.1891
 1816WAT      O 7983   4.652   3.787   3.554  0.0970  0.4360 -0.2545
 1816WAT     H1 7984   4.680   3.784   3.637 -1.2863 -0.7274  0.2115
 1816WAT     H2 7985   4.677   3.711   3.521 -1.0223  0.0696 -0.3099
 1816WAT    EPW 7986   4.660   3.776   3.562 -0.2726  0.2100 -0.1938
 1817WAT      O 7987   5.811   5.402   1.832  0.1946 -0.4639 -0.1325
 1817WAT     H1 7988   5.802   5.388   1.918  1.0146  2.4704  0.5590
 1817WAT     H2 7989   5.784   5.328   1.796 -0.8301 -1.5697  2.6313
 1817WAT    EPW 7990   5.806   5.389   1.840  0.1644 -0.1938  0.3779
 1818WAT      O 7991   0.213   4.006   0.968 -0.5264 -0.4217 -0.2778
 1818WAT     H1 7992   0.148   3.959   1.003 -0.2300 -1.6059 -1.2713
 1818WAT     H2 7993   0.282   3.985   1.017 -0.7175  0.2666  0.3081
 1818WAT    EPW 7994   0.214   3.996   0.981 -0.5109 -0.4949 -0.3380
 1819WAT      O 7995   2.662   2.982   6.059  0.6719 -0.1169 -0.3895
 1819WAT     H1 7996   2.738   2.954   6.028  1.7372 -1.6559  3.0340
 1819WAT     H2 7997   2.632   2.914   6.105 -1.2255  1.4411  0.8779
 1819WAT    EPW 7998   2.669   2.968   6.061  0.5490 -0.1141  0.3035
 1820WAT      O 7999   2.785   4.808   4.391 -0.6034  0.3095 -0.6777
 1820WAT     H1 8000   2.775   4.784   4.308  1.1240 -1.3280 -0.4758
 1820WAT     H2 8001   2.744   4.745   4.436  0.5786 -0.1915 -0.2551
 1820WAT    EPW 8002   2.777   4.795   4.385 -0.1736 -0.0064 -0.5855
 1821WAT      O 8003   6.343   3.182   3.646 -0.4333 -0.3833 -0.2824
 1821WAT     H1 8004   6.429   3.186   3.652 -0.4550  0.3064 -0.3534
 1821WAT     H2 8005   6.328   3.104   3.608  0.0935 -0.9599  0.6724
 1821WAT    EPW 8006   6.353   3.171   3.641 -0.3587 -0.3666 -0.1519
 1822WAT      O 8007   5.264   6.971   4.876  0.0264  0.6338 -0.3306
 1822WAT     H1 8008   5.249   6.913   4.940 -0.9641 -1.0485 -1.9917
 1822WAT     H2 8009   5.321   6.930   4.824 -0.8719  1.0198 -1.6688
 1822WAT    EPW 8010   5.270   6.957   4.878 -0.2526  0.4423 -0.7737
 1823WAT      O 8011   4.212   4.665   1.167 -0.8240  0.4969 -0.0952
 1823WAT     H1 8012   4.268   4.684   1.103 -0.8300  0.6620 -0.0524
 1823WAT     H2 8013   4.157   4.732   1.167 -1.8961 -0.3474 -1.0820
 1823WAT    EPW 8014   4.212   4.678   1.158 -0.9833  0.3966 -0.2346
 1824WAT      O 8015   1.720   5.953   2.967  0.1410  0.0345  0.0860
 1824WAT     H1 8016   1.679   6.024   2.997  1.1723  0.0299  1.6181
 1824WAT     H2 8017   1.679   5.936   2.892 -0.8384  1.6071  0.2172
 1824WAT    EPW 8018   1.708   5.961   2.961  0.1487  0.2661  0.3317
 1825WAT      O 8019   1.403   4.652   4.095  0.4232  0.1637  0.8819
 1825WAT     H1 8020   1.357   4.639   4.168  0.9349  2.8938  1.8156
 1825WAT     H2 8021   1.410   4.739   4.091  1.1008  0.0675 -2.0283
 1825WAT    EPW 8022   1.397   4.663   4.105  0.5989  0.5528  0.5899
 1826WAT      O 8023   6.384   6.809   2.020  0.4851  0.0498  0.3201
 1826WAT     H1 8024   6.470   6.822   2.011  0.6592 -0.2636  1.4478
 1826WAT     H2 8025   6.379   6.730   2.056 -0.2575  0.3144  0.7982
 1826WAT    EPW 8026   6.396   6.799   2.024  0.4011  0.0426  0.5573
 1827WAT      O 8027   3.918   0.722   6.289 -0.5349  0.0427 -0.5086
 1827WAT     H1 8028   3.924   0.802   6.322 -0.1934 -0.3208  0.3337
 1827WAT     H2 8029   3.948   0.731   6.208 -0.1422  0.6940 -0.2974
 1827WAT    EPW 8030   3.924   0.735   6.282 -0.4265  0.0852 -0.3530
 1828WAT      O 8031   0.295   4.601   0.455  0.1169  0.3054 -0.8946
 1828WAT     H1 8032   0.373   4.566   0.474  0.1415  0.0438 -1.4615
 1828WAT     H2 8033   0.292   4.672   0.505  0.3164 -0.1926 -0.1547
 1828WAT    EPW 8034   0.306   4.606   0.465  0.1500  0.1932 -0.8691
 1829WAT      O 8035   7.025   6.276   4.369  0.4628 -0.1089  0.2324
 1829WAT     H1 8036   6.989   6.350   4.398  1.5913  0.6496 -0.2086
 1829WAT     H2 8037   7.052   6.296   4.289  1.1364 -0.8695  0.2510
 1829WAT    EPW 8038   7.024   6.290   4.361  0.7290 -0.1092  0.1700
 1830WAT      O 8039   0.592   1.109   0.784 -0.4034  0.4069 -0.3494
 1830WAT     H1 8040   0.645   1.116   0.715  0.9862  2.0504  0.8045
 1830WAT     H2 8041   0.592   1.024   0.801  1.4115  0.2651 -0.7932
 1830WAT    EPW 8042   0.600   1.098   0.776  0.0700  0.6288 -0.2445
 1831WAT      O 8043   3.216   0.959   4.946 -0.7798  0.2044 -0.1894
 1831WAT     H1 8044   3.245   1.028   4.903 -1.0255  0.5328  0.1681
 1831WAT     H2 8045   3.203   0.899   4.883 -0.0240  0.2850 -0.4294
 1831WAT    EPW 8046   3.218   0.960   4.930 -0.7045  0.2648 -0.1721
 1832WAT      O 8047   5.824   0.890   1.700 -0.1241 -0.5451 -0.4358
 1832WAT     H1 8048   5.904   0.909   1.671 -0.2335 -0.1307 -0.4730
 1832WAT     H2 8049   5.777   0.960   1.676  0.2815  1.0722  2.9892
 1832WAT    EPW 8050   5.829   0.903   1.692 -0.0803 -0.2450  0.0647
 1833WAT      O 8051   7.214   3.137   1.292 -0.4146  0.0983  0.7645
 1833WAT     H1 8052   7.272   3.196   1.317 -1.3387  0.6462  1.7000
 1833WAT     H2 8053   7.202   3.154   1.207  1.4037 -0.5983  0.3250
 1833WAT    EPW 8054   7.221   3.148   1.283 -0.2825  0.0763  0.8377
 1834WAT      O 8055   0.958   2.439   3.663  0.1269  0.4314 -0.6212
 1834WAT     H1 8056   0.999   2.373   3.624 -0.4956 -0.7855  0.7320
 1834WAT     H2 8057   0.903   2.468   3.601 -0.3840 -1.0500 -0.8915
 1834WAT    EPW 8058   0.956   2.434   3.648 -0.0405  0.0328 -0.4613
 1835WAT      O 8059   4.025   5.388   5.401  0.2797 -0.2209  0.0709
 1835WAT     H1 8060   3.994   5.392   5.320 -1.8411 -0.1590  0.8232
 1835WAT     H2 8061   3.963   5.427   5.449  0.5849 -1.8510  1.9278
 1835WAT    EPW 8062   4.011   5.394   5.396  0.0115 -0.4525  0.4564
 1836WAT      O 8063   1.909   4.419   1.700 -0.3930 -0.0439  0.2997
 1836WAT     H1 8064   1.879   4.337   1.689 -1.1407  0.2980 -0.3335
 1836WAT     H2 8065   1.942   4.438   1.621  2.5050 -0.7662  1.2223
 1836WAT    EPW 8066   1.910   4.410   1.687 -0.0753 -0.1001  0.3425
 1837WAT      O 8067   4.876   6.670   1.303 -0.2606 -0.7675 -0.4352
 1837WAT     H1 8068   4.919   6.739   1.272 -0.9363 -0.9135 -1.7823
 1837WAT     H2 8069   4.938   6.624   1.343  0.6352 -0.4215 -1.3621
 1837WAT    EPW 8070   4.892   6.674   1.304 -0.2281 -0.7379 -0.7711
 1838WAT      O 8071   4.539   6.218   2.633 -0.2324 -0.5563  0.1833
 1838WAT     H1 8072   4.480   6.158   2.611 -2.2119  1.1995  0.3701
 1838WAT     H2 8073   4.559   6.257   2.558 -1.7125  0.8464  0.4503
 1838WAT    EPW 8074   4.534   6.215   2.619 -0.7434 -0.0897  0.2503
 1839WAT      O 8075   3.467   5.734   1.255 -0.0575 -0.2869 -0.0153
 1839WAT     H1 8076   3.406   5.780   1.297 -1.1751  0.1699 -2.0219
 1839WAT     H2 8077   3.443   5.651   1.268 -0.8857 -0.1223 -0.4449
 1839WAT    EPW 8078   3.455   5.728   1.263 -0.3450 -0.1951 -0.3752
 1840WAT      O 8079   1.123   4.619   7.041 -0.2051  0.0201  0.0507
 1840WAT     H1 8080   1.089   4.646   6.965 -0.6475 -0.3597  0.1104
 1840WAT     H2 8081   1.069   4.652   7.101 -1.6471 -2.1839  0.0762
 1840WAT    EPW 8082   1.110   4.628   7.039 -0.4835 -0.3616  0.0633
 1841WAT      O 8083   4.571   5.783   4.628 -0.0309 -0.0117 -0.1540
 1841WAT     H1 8084   4.646   5.825   4.615  1.9560 -3.3792 -0.7240
 1841WAT     H2 8085   4.572   5.765   4.714  1.6496 -2.8130 -0.6103
 1841WAT    EPW 8086   4.582   5.786   4.639  0.5109 -0.9230 -0.3056
 1842WAT      O 8087   6.897   2.777   2.422  0.2355  0.6729  0.0958
 1842WAT     H1 8088   6.833   2.796   2.366 -0.7201 -0.9312  0.5952
 1842WAT     H2 8089   6.956   2.735   2.373  0.1666  0.7169 -0.0244
 1842WAT    EPW 8090   6.897   2.774   2.407  0.0842  0.4425  0.1518
 1843WAT      O 8091   5.781   3.583   7.141 -0.4245  0.3924  0.4450
 1843WAT     H1 8092   5.741   3.641   7.089 -1.8940 -1.9393 -1.2312
 1843WAT     H2 8093   5.857   3.622   7.159 -0.3492  1.9211 -2.4580
 1843WAT    EPW 8094   5.786   3.597   7.136 -0.6305  0.2738 -0.2314
 1844WAT      O 8095   3.616   1.630   2.367  0.3300 -0.6530  0.7078
 1844WAT     H1 8096   3.616   1.696   2.424 -1.2890 -1.2926  1.5333
 1844WAT     H2 8097   3.606   1.670   2.290 -0.6238  0.0840  1.1890
 1844WAT    EPW 8098   3.614   1.646   2.364 -0.0501 -0.6386  0.9008
 1845WAT      O 8099   4.612   1.274   1.438  0.2041 -0.1703  0.0105
 1845WAT     H1 8100   4.666   1.320   1.489  0.9502 -1.1677  0.1422
 1845WAT     H2 8101   4.615   1.316   1.362  0.7328  0.0996  0.1751
 1845WAT    EPW 8102   4.620   1.287   1.434  0.3924 -0.2777  0.0543
 1846WAT      O 8103   0.318   1.156   0.428 -0.0217 -0.7914 -0.1538
 1846WAT     H1 8104   0.332   1.147   0.513 -0.9378 -1.0341 -0.0213
 1846WAT     H2 8105   0.260   1.094   0.409 -0.2762 -0.3617 -0.8384
 1846WAT    EPW 8106   0.311   1.146   0.438 -0.1946 -0.7637 -0.2354
 1847WAT      O 8107   1.391   5.379   0.411 -0.1294 -0.4849  0.1081
 1847WAT     H1 8108   1.399   5.428   0.340  0.9789 -1.2929 -0.3474
 1847WAT     H2 8109   1.430   5.305   0.390 -1.2993 -1.3850  0.9790
 1847WAT    EPW 8110   1.398   5.376   0.398 -0.1385 -0.7372  0.1695
 1848WAT      O 8111   0.661   6.672   2.888  0.1728 -0.6672 -0.2060
 1848WAT     H1 8112   0.676   6.588   2.870 -0.6944 -1.4468  2.3118
 1848WAT     H2 8113   0.734   6.698   2.928 -0.0126 -0.5515  0.0595
 1848WAT    EPW 8114   0.674   6.664   2.891  0.0173 -0.7653  0.2051
 1849WAT      O 8115   6.162   6.894   4.266  0.4199  0.6735 -0.3045
 1849WAT     H1 8116   6.175   6.815   4.231 -0.9390  0.8787 -1.3992
 1849WAT     H2 8117   6.154   6.878   4.351 -1.5371 -0.6620 -0.6647
 1849WAT    EPW 8118   6.163   6.880   4.273 -0.0699  0.5065 -0.5194
 1850WAT      O 8119   5.010   0.648   5.644  0.5197  0.4491  0.3110
 1850WAT     H1 8120   5.047   0.573   5.670  0.1345  0.4192  0.7960
 1850WAT     H2 8121   5.016   0.699   5.715  0.5982  0.8081  0.0477
 1850WAT    EPW 8122   5.017   0.644   5.658  0.4744  0.4977  0.3438
 1851WAT      O 8123   5.832   1.238   6.180  0.2015 -0.0915  0.6506
 1851WAT     H1 8124   5.846   1.287   6.109  0.5705 -1.0336  0.0551
 1851WAT     H2 8125   5.746   1.223   6.177  0.0898  0.4794  0.8203
 1851WAT    EPW 8126   5.821   1.243   6.169  0.2395 -0.1463  0.5877
 1852WAT      O 8127   0.012   6.421   0.667 -0.0966  0.0128 -0.4526
 1852WAT     H1 8128   0.070   6.363   0.638 -0.5220 -0.2082 -0.8801
 1852WAT     H2 8129   0.050   6.498   0.652  0.3484 -0.1426 -0.1416
 1852WAT    EPW 8130   0.026   6.424   0.661 -0.0937 -0.0428 -0.4698
 1853WAT      O 8131   5.668   6.890   5.384  0.0966 -0.6461 -0.4623
 1853WAT     H1 8132   5.674   6.960   5.332 -0.7249  0.6134  1.0545
 1853WAT     H2 8133   5.619   6.835   5.338 -0.9405  0.5952 -0.9104
 1853WAT    EPW 8134   5.661   6.892   5.370 -0.1780 -0.2767 -0.3044
 1854WAT      O 8135   5.471   6.348   2.411  0.1624  0.3172 -0.2669
 1854WAT     H1 8136   5.456   6.290   2.348 -1.5736  0.0357  0.3754
 1854WAT     H2 8137   5.420   6.322   2.477 -1.0217  2.7670 -0.0958
 1854WAT    EPW 8138   5.462   6.336   2.411 -0.2689  0.6375 -0.1467
 1855WAT      O 8139   0.234   6.749   5.641  0.2818  0.0860  0.6570
 1855WAT     H1 8140   0.259   6.832   5.629  1.5637  0.1060  2.9152
 1855WAT     H2 8141   0.169   6.739   5.584  1.4270  1.9841 -1.1462
 1855WAT    EPW 8142   0.228   6.760   5.631  0.6403  0.3693  0.7242
 1856WAT      O 8143   6.118   1.115   6.354  0.4502  0.2635  0.1567
 1856WAT     H1 8144   6.202   1.093   6.347  0.1397 -1.9001  2.2279
 1856WAT     H2 8145   6.121   1.191   6.397  1.3397 -0.0753  0.7222
 1856WAT    EPW 8146   6.131   1.123   6.359  0.5357 -0.1061  0.5462
 1857WAT      O 8147   3.430   3.618   1.351  0.1119  0.2758  0.0658
 1857WAT     H1 8148   3.415   3.554   1.408  0.8969 -0.4954 -0.5805
 1857WAT     H2 8149   3.385   3.685   1.384 -0.3217 -0.4597  1.0135
 1857WAT    EPW 8150   3.421   3.619   1.365  0.1638  0.0533  0.1103
 1858WAT      O 8151   3.028   6.306   1.337  0.3109  0.0724 -0.2966
 1858WAT     H1 8152   3.061   6.345   1.266  2.1568  0.8118  0.8896
 1858WAT     H2 8153   3.051   6.223   1.328  1.2125  0.3079 -0.2179
 1858WAT    EPW 8154   3.036   6.300   1.325  0.7168  0.2164 -0.1097
 1859WAT      O 8155   0.998   3.062   4.894 -0.3353  0.0051  0.2126
 1859WAT     H1 8156   0.939   3.027   4.948 -0.3638 -0.1514  0.0792
 1859WAT     H2 8157   1.014   3.141   4.929 -2.7374  1.2729 -1.3317
 1859WAT    EPW 8158   0.992   3.069   4.907 -0.6944  0.1693 -0.0352
 1860WAT      O 8159   6.766   2.344   3.825  0.2175 -0.1898 -0.2164
 1860WAT     H1 8160   6.773   2.413   3.878  0.5413  0.4496 -1.0747
 1860WAT     H2 8161   6.756   2.277   3.880  0.6053  0.4491  0.6534
 1860WAT    EPW 8162   6.765   2.345   3.841  0.3226 -0.0009 -0.2147
 1861WAT      O 8163   0.031   0.980   7.330 -0.1720 -0.1849  0.3345
 1861WAT     H1 8164  -0.018   0.922   7.288 -1.0969  0.9280 -0.1885
 1861WAT     H2 8165  -0.023   1.015   7.389  0.0345  0.8792 -0.0664
 1861WAT    EPW 8166   0.016   0.977   7.333 -0.2781  0.1367  0.1980
 1862WAT      O 8167   1.471   6.717   1.643  0.1719  0.1898 -0.4111
 1862WAT     H1 8168   1.456   6.645   1.690  1.7246  0.2488  0.2308
 1862WAT     H2 8169   1.416   6.709   1.575 -0.1310 -1.2764 -0.0315
 1862WAT    EPW 8170   1.461   6.705   1.640  0.3565 -0.0181 -0.2602
 1863WAT      O 8171   0.701   6.071   1.861  0.0670  0.0473  0.2371
 1863WAT     H1 8172   0.737   6.045   1.786 -0.7243 -0.5187  0.0420
 1863WAT     H2 8173   0.622   6.100   1.837 -0.2873 -0.3693  0.8758
 1863WAT    EPW 8174   0.694   6.071   1.846 -0.1022 -0.0979  0.3026
 1864WAT      O 8175   0.255   5.663   3.431  0.0920 -0.1040  0.7176
 1864WAT     H1 8176   0.221   5.680   3.510  0.8958 -0.7516  1.2253
 1864WAT     H2 8177   0.298   5.735   3.411 -0.1207  0.0656  0.8646
 1864WAT    EPW 8178   0.256   5.676   3.440  0.1793 -0.1746  0.8143
 1865WAT      O 8179   6.627   5.137   4.713  0.1482 -0.1053  0.1282
 1865WAT     H1 8180   6.661   5.059   4.689 -0.9783 -0.5668 -0.0019
 1865WAT     H2 8181   6.541   5.123   4.711 -0.0770  1.2561 -0.2328
 1865WAT    EPW 8182   6.620   5.123   4.709 -0.0515  0.0276  0.0557
 1866WAT      O 8183   2.990   5.648   1.053 -0.3999 -0.7805 -0.1168
 1866WAT     H1 8184   3.041   5.663   0.983  0.5863 -0.9061  0.5617
 1866WAT     H2 8185   2.956   5.570   1.036  0.6095 -1.2579 -0.0134
 1866WAT    EPW 8186   2.993   5.639   1.040 -0.1051 -0.8696 -0.0013
 1867WAT      O 8187   4.519   5.678   0.479  0.0161  0.0636 -0.1831
 1867WAT     H1 8188   4.506   5.760   0.455 -2.6639 -0.0020  0.7209
 1867WAT     H2 8189   4.544   5.684   0.562  0.2999 -0.0272 -0.2604
 1867WAT    EPW 8190   4.521   5.691   0.488 -0.3379  0.0405 -0.0610
 1868WAT      O 8191   5.607   4.997   5.424  0.5381 -0.4518  0.0550
 1868WAT     H1 8192   5.604   4.916   5.455  3.3071 -0.3610  0.8464
 1868WAT     H2 8193   5.617   4.986   5.338 -4.0034 -0.7440 -0.6667
 1868WAT    EPW 8194   5.608   4.984   5.416  0.2763 -0.4815  0.0653
 1869WAT      O 8195   0.403   6.817   0.918 -0.4982 -0.3587  0.4889
 1869WAT     H1 8196   0.469   6.767   0.946 -0.9598 -0.7097  0.9700
 1869WAT     H2 8197   0.376   6.857   0.991  0.0111  0.7906  0.0776
 1869WAT    EPW 8198   0.409   6.815   0.933 -0.4911 -0.2407  0.4992
 1870WAT      O 8199   2.141   4.976   4.504 -0.0114 -0.2851 -0.3555
 1870WAT     H1 8200   2.185   4.916   4.551  0.5324 -0.2805 -0.8451
 1870WAT     H2 8201   2.181   4.974   4.426 -0.4123  0.2492 -0.5796
 1870WAT    EPW 8202   2.154   4.967   4.500  0.0097 -0.2055 -0.4609
 1871WAT      O 8203   1.825   1.042   5.793 -0.1903  0.0205  0.1168
 1871WAT     H1 8204   1.783   1.112   5.825 -1.1175 -0.4710 -0.0048
 1871WAT     H2 8205   1.798   1.038   5.710  0.9099  0.3027 -0.2743
 1871WAT    EPW 8206   1.815   1.052   5.785 -0.1647 -0.0104  0.0411
 1872WAT      O 8207   2.971   5.001   5.813  0.5827 -0.0091  0.3907
 1872WAT     H1 8208   2.935   4.922   5.813  0.5120 -0.0879 -2.3803
 1872WAT     H2 8209   2.905   5.053   5.836  0.3538 -0.6421  1.2158
 1872WAT    EPW 8210   2.956   4.997   5.816  0.5384 -0.1143  0.1033
 1873WAT      O 8211   4.427   5.115   6.791 -0.5965  0.0505  0.0476
 1873WAT     H1 8212   4.463   5.082   6.719 -1.7979  3.0172 -2.0909
 1873WAT     H2 8213   4.493   5.116   6.848  1.1257 -0.0904 -1.8416
 1873WAT    EPW 8214   4.442   5.110   6.789 -0.5196  0.4679 -0.5474
 1874WAT      O 8215   4.518   7.170   5.433  0.7173 -0.1970 -0.7416
 1874WAT     H1 8216   4.518   7.243   5.385  0.2953 -0.3939 -1.0439
 1874WAT     H2 8217   4.439   7.169   5.469  1.5156  0.7361  1.1924
 1874WAT    EPW 8218   4.506   7.180   5.431  0.7729 -0.0882 -0.5005
 1875WAT      O 8219   3.464   5.457   6.265 -0.0451  0.4538 -0.5418
 1875WAT     H1 8220   3.449   5.485   6.184 -0.6958 -0.1774 -0.6429
 1875WAT     H2 8221   3.436   5.524   6.314  0.5319  0.9176 -0.8355
 1875WAT    EPW 8222   3.457   5.471   6.260 -0.0560  0.4291 -0.6001
 1876WAT      O 8223   0.264   4.087   1.391 -0.2889 -0.2964  0.0887
 1876WAT     H1 8224   0.254   4.154   1.447  3.5135 -0.1968  0.8938
 1876WAT     H2 8225   0.245   4.017   1.439 -1.8731  0.0105 -0.0373
 1876WAT    EPW 8226   0.260   4.087   1.407  0.0388 -0.2364  0.1890
 1877WAT      O 8227   3.478   6.446   3.978  0.9659  0.2137  0.3540
 1877WAT     H1 8228   3.509   6.527   3.989  0.1930  0.3573  1.7265
 1877WAT     H2 8229   3.530   6.412   3.917 -0.0400  2.4719 -1.9624
 1877WAT    EPW 8230   3.490   6.453   3.971  0.7031  0.5685  0.2146
 1878WAT      O 8231   5.295   3.924   6.776 -0.7646  0.6933  0.3704
 1878WAT     H1 8232   5.310   3.872   6.844  0.0487  1.7331  1.0171
 1878WAT     H2 8233   5.259   3.871   6.717  2.0522 -1.1713  0.1356
 1878WAT    EPW 8234   5.292   3.909   6.777 -0.2283  0.5715  0.4312
 1879WAT      O 8235   6.230   4.757   4.499 -0.0915  0.4310  0.7117
 1879WAT     H1 8236   6.206   4.679   4.529  0.1482 -0.1946 -0.6372
 1879WAT     H2 8237   6.211   4.812   4.565  0.5663 -0.8678  2.0500
 1879WAT    EPW 8238   6.224   4.754   4.513  0.0411  0.1467  0.7101
 1880WAT      O 8239   3.524   0.555   3.218 -0.1149  0.3233  0.5823
 1880WAT     H1 8240   3.478   0.530   3.288 -2.1246 -0.3087 -0.8723
 1880WAT     H2 8241   3.489   0.509   3.153  0.0339  2.6108 -1.2548
 1880WAT    EPW 8242   3.512   0.545   3.219 -0.3898  0.5679  0.0960
 1881WAT      O 8243   0.782   6.353   6.115  0.6109 -0.2107  0.1341
 1881WAT     H1 8244   0.778   6.289   6.174  0.3963  0.5304  0.9514
 1881WAT     H2 8245   0.767   6.425   6.162  0.1520  0.3786 -0.8742
 1881WAT    EPW 8246   0.779   6.354   6.131  0.5114 -0.0142  0.1059
 1882WAT      O 8247   2.671   6.793   3.850  0.0199 -0.2419  0.1517
 1882WAT     H1 8248   2.648   6.859   3.903 -1.0382 -1.6591  1.5641
 1882WAT     H2 8249   2.673   6.724   3.904  1.9133 -1.2455 -1.1063
 1882WAT    EPW 8250   2.668   6.792   3.866  0.1433 -0.5995  0.1745
 1883WAT      O 8251   6.465   2.935   5.938 -0.2097  0.2381 -0.5082
 1883WAT     H1 8252   6.499   2.886   5.874 -1.3762  0.7222 -1.5531
 1883WAT     H2 8253   6.380   2.912   5.937 -0.5223  1.3541 -0.1597
 1883WAT    EPW 8254   6.457   2.924   5.928 -0.4282  0.4745 -0.6111
 1884WAT      O 8255   7.182   2.538   1.907 -0.0665 -0.1622 -0.2645
 1884WAT     H1 8256   7.151   2.586   1.841  0.6612 -0.4731 -0.8472
 1884WAT     H2 8257   7.189   2.458   1.873 -1.1527 -0.6726  0.6602
 1884WAT    EPW 8258   7.179   2.533   1.892 -0.1195 -0.2835 -0.2140
 1885WAT      O 8259   5.934   4.774   0.488 -0.1753  0.0793  0.1437
 1885WAT     H1 8260   5.937   4.761   0.574  0.3499 -2.7245 -0.2089
 1885WAT     H2 8261   6.004   4.824   0.472 -1.3340  2.2801  1.4986
 1885WAT    EPW 8262   5.945   4.780   0.498 -0.2689 -0.0098  0.2918
 1886WAT      O 8263   1.326   5.936   4.292 -1.1054 -0.1981  0.0147
 1886WAT     H1 8264   1.273   5.994   4.255 -1.6596 -0.2796  0.6538
 1886WAT     H2 8265   1.383   5.916   4.229 -3.1874 -1.8305 -1.4721
 1886WAT    EPW 8266   1.327   5.941   4.277 -1.4948 -0.4513 -0.1105
 1887WAT      O 8267   7.111   0.546   7.251  0.2439  0.0968  0.2453
 1887WAT     H1 8268   7.046   0.531   7.194 -0.5927  0.1917  1.1492
 1887WAT     H2 8269   7.133   0.629   7.234 -1.2506  0.7512  1.2309
 1887WAT    EPW 8270   7.104   0.556   7.240 -0.1004  0.2075  0.5244
 1888WAT      O 8271   7.256   3.477   1.725  0.0903  0.1086 -0.3146
 1888WAT     H1 8272   7.202   3.499   1.790  0.0623  0.2713 -0.3919
 1888WAT     H2 8273   7.212   3.414   1.683  0.2563 -0.2385  0.0239
 1888WAT    EPW 8274   7.241   3.471   1.728  0.1107  0.0814 -0.2760
 1889WAT      O 8275   2.134   6.077   1.929  0.0484  0.0930  0.0444
 1889WAT     H1 8276   2.179   6.014   1.968 -0.3773  0.2900  0.8713
 1889WAT     H2 8277   2.187   6.147   1.935 -0.4604  0.3940  1.2660
 1889WAT    EPW 8278   2.149   6.078   1.936 -0.0897  0.1666  0.3470
 1890WAT      O 8279   1.392   3.269   4.345 -0.2543 -0.3288  0.0073
 1890WAT     H1 8280   1.351   3.260   4.269 -1.1598  1.9640  0.1479
 1890WAT     H2 8281   1.400   3.186   4.374  0.8745 -1.3447 -2.8833
 1890WAT    EPW 8282   1.387   3.255   4.338 -0.2213 -0.1402 -0.3989
 1891WAT      O 8283   1.299   5.371   2.008 -0.6974 -0.5000 -0.5797
 1891WAT     H1 8284   1.214   5.391   2.009 -0.3294  1.3648  0.6711
 1891WAT     H2 8285   1.330   5.416   1.940 -0.4311  0.4221  0.1283
 1891WAT    EPW 8286   1.291   5.381   1.998 -0.6037 -0.0883 -0.2904
 1892WAT      O 8287   1.586   6.426   2.368 -0.0773 -0.4945 -0.1981
 1892WAT     H1 8288   1.590   6.345   2.335  0.4086 -0.2306 -0.8063
 1892WAT     H2 8289   1.641   6.471   2.318  0.3190  0.0258  0.6838
 1892WAT    EPW 8290   1.595   6.421   2.356  0.0530 -0.3786 -0.1577
 1893WAT      O 8291   5.421   0.837   4.496 -0.0468  0.2295  0.0413
 1893WAT     H1 8292   5.440   0.918   4.523  1.7263  0.0961 -0.7141
 1893WAT     H2 8293   5.339   0.826   4.523  0.7199  1.0388  3.1080
 1893WAT    EPW 8294   5.412   0.847   4.504  0.3284  0.3293  0.3827
 1894WAT      O 8295   3.781   2.730   2.454 -0.2041  0.3894  0.2201
 1894WAT     H1 8296   3.820   2.771   2.520  1.9273  1.0972 -1.3698
 1894WAT     H2 8297   3.755   2.796   2.402  0.5363 -0.1714 -0.9028
 1894WAT    EPW 8298   3.783   2.746   2.456  0.2201  0.4111 -0.1806
 1895WAT      O 8299   5.706   0.234   1.129 -0.0790 -0.0867 -0.2805
 1895WAT     H1 8300   5.679   0.314   1.107 -1.0669 -0.5733 -0.8985
 1895WAT     H2 8301   5.748   0.247   1.205  0.3408  1.0968 -0.6864
 1895WAT    EPW 8302   5.708   0.248   1.137 -0.1629  0.0163 -0.4317
 1896WAT      O 8303   6.719   3.806   3.408  0.0825  0.1332  0.7331
 1896WAT     H1 8304   6.729   3.870   3.466  0.2845  1.3218 -0.5793
 1896WAT     H2 8305   6.785   3.818   3.352  0.9379 -2.0392  1.1720
 1896WAT    EPW 8306   6.731   3.817   3.408  0.2387 -0.0121  0.6041
 1897WAT      O 8307   5.205   2.007   1.862 -0.4117 -0.5381 -0.3572
 1897WAT     H1 8308   5.238   1.939   1.907  1.3161 -0.2383 -1.1210
 1897WAT     H2 8309   5.185   1.972   1.785 -0.9524 -0.4865 -0.2465
 1897WAT    EPW 8310   5.207   1.991   1.857 -0.2364 -0.4862 -0.4537
 1898WAT      O 8311   6.993   7.150   3.627  0.1633 -0.2798 -0.1354
 1898WAT     H1 8312   7.054   7.186   3.678 -0.1808 -0.3620  0.3364
 1898WAT     H2 8313   7.038   7.092   3.579  0.8154  1.0462 -1.2133
 1898WAT    EPW 8314   7.009   7.147   3.627  0.2088 -0.0961 -0.2249
 1899WAT      O 8315   0.988   6.704   0.861  0.3325 -0.5009 -0.0771
 1899WAT     H1 8316   1.019   6.781   0.887  1.0582 -0.6844 -0.3748
 1899WAT     H2 8317   1.039   6.646   0.903 -0.6172 -0.8450  0.6595
 1899WAT    EPW 8318   1.000   6.707   0.871  0.2994 -0.5788 -0.0122
 1900WAT      O 8319   6.974   3.363   4.297  0.1607 -0.1506  0.2088
 1900WAT     H1 8320   6.982   3.405   4.221  1.3063  0.1015  0.4370
 1900WAT     H2 8321   6.925   3.416   4.345  0.9505  0.5802  0.2348
 1900WAT    EPW 8322   6.968   3.377   4.293  0.4466 -0.0054  0.2464
 1901WAT      O 8323   3.244   6.926   0.800 -0.1296 -0.0114 -0.3327
 1901WAT     H1 8324   3.244   6.840   0.786  0.0209  0.0694 -0.8581
 1901WAT     H2 8325   3.194   6.957   0.736 -1.2766  0.1827  0.6299
 1901WAT    EPW 8326   3.237   6.918   0.789 -0.2768  0.0292 -0.2681
 1902WAT      O 8327   0.553   4.928   6.734  0.2965 -0.3727  0.2239
 1902WAT     H1 8328   0.605   4.982   6.690 -0.2288  1.3355  1.5750
 1902WAT     H2 8329   0.511   4.884   6.672  1.6627 -0.1261 -0.9045
 1902WAT    EPW 8330   0.554   4.930   6.718  0.4207 -0.0839  0.2568
 1903WAT      O 8331   1.700   2.103   1.296  0.3803 -0.0095  0.2898
 1903WAT     H1 8332   1.653   2.091   1.224  0.2552 -0.3652  0.4289
 1903WAT     H2 8333   1.710   2.190   1.300  0.9431 -0.0303 -0.5009
 1903WAT    EPW 8334   1.694   2.114   1.286  0.4449 -0.0651  0.1935
 1904WAT      O 8335   7.250   1.790   1.102 -0.1202  0.2923 -0.1622
 1904WAT     H1 8336   7.250   1.703   1.102  0.4028  0.2830  0.4313
 1904WAT     H2 8337   7.239   1.811   1.018  1.6991 -0.3707 -0.6139
 1904WAT    EPW 8338   7.248   1.780   1.090  0.2258  0.1930 -0.1412
 1905WAT      O 8339   6.244   6.679   5.071 -0.1286  0.2617 -0.6196
 1905WAT     H1 8340   6.230   6.684   5.157 -1.0562  1.4698 -0.8057
 1905WAT     H2 8341   6.319   6.722   5.059  0.8186 -1.2225 -0.2704
 1905WAT    EPW 8342   6.253   6.686   5.082 -0.1257  0.2209 -0.5955
 1906WAT      O 8343   1.615   2.768   0.399  0.4606  0.3969  0.3374
 1906WAT     H1 8344   1.542   2.814   0.410 -1.6927 -2.3134 -1.3194
 1906WAT     H2 8345   1.616   2.713   0.467  0.3022 -0.3012 -0.2083
 1906WAT    EPW 8346   1.604   2.767   0.410  0.1191 -0.1066  0.0121
 1907WAT      O 8347   1.290   2.682   2.535 -0.4156  0.2251 -0.0515
 1907WAT     H1 8348   1.222   2.728   2.504  0.5117  1.0302 -0.9666
 1907WAT     H2 8349   1.329   2.738   2.590 -0.3473 -0.1489  0.2880
 1907WAT    EPW 8350   1.286   2.697   2.539 -0.2685  0.2888 -0.1365
 1908WAT      O 8351   3.540   7.008   7.100  0.2820 -0.0065 -0.3815
 1908WAT     H1 8352   3.486   7.004   7.168  0.3911 -0.2275 -0.3069
 1908WAT     H2 8353   3.604   7.061   7.128 -0.3310  0.9578 -0.7809
 1908WAT    EPW 8354   3.542   7.015   7.114  0.2076  0.1033 -0.4295
 1909WAT      O 8355   6.702   6.764   1.542  0.3060 -0.5411 -0.1693
 1909WAT     H1 8356   6.752   6.835   1.550 -0.9182  0.4731 -1.1269
 1909WAT     H2 8357   6.760   6.699   1.535  1.4627  0.1408  2.1560
 1909WAT    EPW 8358   6.718   6.765   1.542  0.2960 -0.2906  0.0327
 1910WAT      O 8359   6.180   5.344   3.660 -0.4989 -0.8229 -0.3376
 1910WAT     H1 8360   6.127   5.315   3.723  2.1346  1.1427  3.2030
 1910WAT     H2 8361   6.152   5.425   3.645 -0.4318 -0.8971 -0.8672
 1910WAT    EPW 8362   6.168   5.352   3.667 -0.1000 -0.5435  0.1072
 1911WAT      O 8363   0.855   0.641   1.970 -0.5350  0.1480 -0.5659
 1911WAT     H1 8364   0.884   0.633   2.052 -1.4333  2.2369  0.0278
 1911WAT     H2 8365   0.928   0.645   1.922  0.0259  0.0472  0.2595
 1911WAT    EPW 8366   0.870   0.641   1.975 -0.5849  0.4417 -0.3563
 1912WAT      O 8367   6.079   3.219   5.532 -0.2349  0.0149  0.5036
 1912WAT     H1 8368   6.065   3.206   5.447  0.1591 -0.2630  0.4803
 1912WAT     H2 8369   6.161   3.192   5.544 -0.9887 -2.0223  1.4061
 1912WAT    EPW 8370   6.089   3.213   5.521 -0.2881 -0.3271  0.6334
 1913WAT      O 8371   7.261   4.410   3.484 -0.2366  0.3003 -0.5821
 1913WAT     H1 8372   7.230   4.468   3.426  1.8622  0.3286 -1.7569
 1913WAT     H2 8373   7.195   4.353   3.492 -0.3049 -0.3101 -3.9046
 1913WAT    EPW 8374   7.246   4.410   3.476  0.0633  0.2143 -1.2465
 1914WAT      O 8375   4.818   3.395   2.120 -0.1514  0.2448 -0.2616
 1914WAT     H1 8376   4.787   3.458   2.171  0.7463  0.5989 -0.1371
 1914WAT     H2 8377   4.780   3.411   2.043 -1.6792 -0.4217  0.3068
 1914WAT    EPW 8378   4.808   3.407   2.116 -0.2445  0.1987 -0.1593
 1915WAT      O 8379   1.022   3.610   5.402  0.2771  0.1670 -0.0360
 1915WAT     H1 8380   0.938   3.634   5.399  0.1784 -0.2382 -0.7884
 1915WAT     H2 8381   1.019   3.534   5.445  0.4974  1.0460  1.6278
 1915WAT    EPW 8382   1.009   3.602   5.408  0.2951  0.2370  0.0986
 1916WAT      O 8383   6.262   6.058   0.090 -0.8261 -0.1700 -0.4225
 1916WAT     H1 8384   6.201   6.097   0.139  0.8534  1.9667  0.1110
 1916WAT     H2 8385   6.324   6.037   0.147  0.0962  0.1260 -1.2955
 1916WAT    EPW 8386   6.262   6.061   0.106 -0.4417  0.1893 -0.4726
 1917WAT      O 8387   5.577   4.216   1.551  0.2762  0.2700  0.4684
 1917WAT     H1 8388   5.663   4.229   1.539  0.4309  0.1019  1.3564
 1917WAT     H2 8389   5.558   4.154   1.493  0.4866  1.1708 -0.5988
 1917WAT    EPW 8390   5.587   4.208   1.541  0.3301  0.3782  0.4419
 1918WAT      O 8391   7.144   5.832   3.009 -0.0126  0.5617 -0.1801
 1918WAT     H1 8392   7.093   5.860   2.944 -1.8709  0.5837  1.2073
 1918WAT     H2 8393   7.166   5.906   3.051 -0.4868  0.4072  0.3591
 1918WAT    EPW 8394   7.140   5.847   3.006 -0.3572  0.5421  0.1045
 1919WAT      O 8395   2.397   5.968   3.980  0.0275 -0.1298 -0.1541
 1919WAT     H1 8396   2.472   5.969   3.936 -0.9693  2.6291 -1.9891
 1919WAT     H2 8397   2.406   6.033   4.037 -0.6665 -0.3619  0.2309
 1919WAT    EPW 8398   2.410   5.978   3.982 -0.2223  0.2434 -0.3683
 1920WAT      O 8399   5.182   3.118   0.172  0.0388  0.0384  0.1307
 1920WAT     H1 8400   5.209   3.197   0.199 -1.9006  0.7508  0.1560
 1920WAT     H2 8401   5.125   3.137   0.109 -1.8384 -1.2239  1.3491
 1920WAT    EPW 8402   5.178   3.133   0.167 -0.5250 -0.0428  0.3144
 1921WAT      O 8403   3.058   5.542   2.462 -0.1531  0.0863 -0.0090
 1921WAT     H1 8404   3.077   5.550   2.547 -1.4856  2.3946  0.1395
 1921WAT     H2 8405   3.082   5.618   2.428 -2.4225  0.3796 -1.1101
 1921WAT    EPW 8406   3.064   5.554   2.469 -0.6852  0.4706 -0.1497
 1922WAT      O 8407   4.046   5.429   6.202 -0.1712 -0.5257 -0.5768
 1922WAT     H1 8408   4.036   5.426   6.289  0.0493  0.1844 -0.5196
 1922WAT     H2 8409   4.117   5.380   6.188  1.9147  2.0415  0.0468
 1922WAT    EPW 8410   4.055   5.421   6.213  0.1695 -0.0416 -0.4762
 1923WAT      O 8411   3.812   6.515   4.488 -0.2516  0.3015 -0.5597
 1923WAT     H1 8412   3.881   6.502   4.541  0.8856 -2.1271 -2.4151
 1923WAT     H2 8413   3.749   6.539   4.543  1.8328  1.8462  1.3439
 1923WAT    EPW 8414   3.813   6.516   4.504  0.2243  0.1709 -0.5526
 1924WAT      O 8415   2.089   4.706   6.984  0.9959 -0.1777  0.4344
 1924WAT     H1 8416   2.144   4.643   6.959  1.4472  0.0243  0.8983
 1924WAT     H2 8417   2.023   4.700   6.927 -0.2013 -2.7173  1.8932
 1924WAT    EPW 8418   2.087   4.696   6.972  0.8857 -0.5230  0.7184
 1925WAT      O 8419   6.127   6.547   2.155  0.3006 -0.1484  0.2389
 1925WAT     H1 8420   6.092   6.494   2.095  0.4365  1.5367 -1.4250
 1925WAT     H2 8421   6.210   6.555   2.129  0.6788 -0.2339  1.3318
 1925WAT    EPW 8422   6.134   6.540   2.142  0.3765  0.0879  0.1546
 1926WAT      O 8423   2.306   6.573   1.882  0.1307 -0.0464 -0.0580
 1926WAT     H1 8424   2.265   6.650   1.884  0.4555  0.1274 -0.0137
 1926WAT     H2 8425   2.382   6.592   1.844 -0.6791 -0.7880 -2.1982
 1926WAT    EPW 8426   2.311   6.587   1.877  0.0590 -0.1303 -0.3676
 1927WAT      O 8427   4.367   0.828   5.763 -0.3087 -0.2640 -0.0057
 1927WAT     H1 8428   4.415   0.879   5.814 -1.8544  1.4455 -0.1456
 1927WAT     H2 8429   4.401   0.749   5.775 -0.4794  0.0455  3.5941
 1927WAT    EPW 8430   4.379   0.824   5.773 -0.5622  0.0342  0.5054
 1928WAT      O 8431   7.144   4.148   5.094 -0.3800 -0.2503  0.5927
 1928WAT     H1 8432   7.195   4.214   5.118 -0.9052  0.6581 -0.6899
 1928WAT     H2 8433   7.141   4.154   5.007 -1.7876 -0.9275  0.5603
 1928WAT    EPW 8434   7.151   4.158   5.084 -0.6655 -0.2161  0.3985
 1929WAT      O 8435   0.309   3.979   5.675  0.4160 -0.1649 -0.1312
 1929WAT     H1 8436   0.335   3.995   5.594 -1.1129  0.3139 -0.5678
 1929WAT     H2 8437   0.283   4.057   5.704 -0.1295 -0.5318  0.3917
 1929WAT    EPW 8438   0.309   3.993   5.668  0.1096 -0.1484 -0.1184
 1930WAT      O 8439   3.711   1.543   1.620 -0.0976  0.7863  0.5013
 1930WAT     H1 8440   3.788   1.503   1.606  0.8574  2.5361  0.4407
 1930WAT     H2 8441   3.719   1.575   1.701 -1.1494  0.2122  0.8469
 1930WAT    EPW 8442   3.724   1.542   1.630 -0.1119  0.9600  0.5434
 1931WAT      O 8443   2.049   0.398   0.337 -0.0027  0.4060  0.5389
 1931WAT     H1 8444   1.993   0.389   0.403 -0.3886 -0.4266  0.1033
 1931WAT     H2 8445   2.125   0.413   0.377 -0.0142 -1.1670  1.2295
 1931WAT    EPW 8446   2.052   0.399   0.352 -0.0614  0.0506  0.5766
 1932WAT      O 8447   6.901   6.181   3.609  0.4565  0.4400 -1.0807
 1932WAT     H1 8448   6.944   6.254   3.629 -0.3951  0.8955 -0.8531
 1932WAT     H2 8449   6.818   6.207   3.606 -0.0017 -0.7908  0.2598
 1932WAT    EPW 8450   6.895   6.196   3.611  0.2630  0.3255 -0.8491
 1933WAT      O 8451   5.296   5.821   6.893  0.2789  0.0078  0.0317
 1933WAT     H1 8452   5.251   5.776   6.954  0.8896  0.1957  0.6276
 1933WAT     H2 8453   5.249   5.893   6.882  0.2807  0.0765  0.4507
 1933WAT    EPW 8454   5.282   5.825   6.900  0.3694  0.0457  0.1816
 1934WAT      O 8455   6.548   2.530   7.188  0.1367  0.0737 -0.9245
 1934WAT     H1 8456   6.520   2.571   7.117  1.9841 -0.0605 -1.7899
 1934WAT     H2 8457   6.568   2.595   7.243 -2.2816  0.1688 -0.0379
 1934WAT    EPW 8458   6.547   2.546   7.186  0.0524  0.0679 -0.9214
 1935WAT      O 8459   4.778   7.086   2.764  0.3158  0.1636 -0.2279
 1935WAT     H1 8460   4.693   7.083   2.779  0.3899 -0.0216  0.1563
 1935WAT     H2 8461   4.784   7.122   2.684 -0.0598  1.7576  0.4199
 1935WAT    EPW 8462   4.767   7.091   2.754  0.2713  0.3717 -0.0754
 1936WAT      O 8463   6.957   4.691   1.024 -0.4016  0.1950  0.2554
 1936WAT     H1 8464   6.999   4.677   0.948 -0.5092 -0.3262  0.2883
 1936WAT     H2 8465   6.978   4.773   1.043  1.4119 -0.3243  0.7664
 1936WAT    EPW 8466   6.967   4.701   1.015 -0.1496  0.0413  0.3357
 1937WAT      O 8467   5.245   4.763   2.769 -0.5660 -0.4876  0.1554
 1937WAT     H1 8468   5.160   4.780   2.763 -0.5762 -0.7080 -0.3932
 1937WAT     H2 8469   5.250   4.676   2.765 -0.6663 -0.9727  4.8466
 1937WAT    EPW 8470   5.233   4.753   2.768 -0.5824 -0.5918  0.7673
 1938WAT      O 8471   3.800   4.221   6.940 -0.2696 -0.5478 -0.4724
 1938WAT     H1 8472   3.795   4.194   6.858  0.3052 -0.3923 -0.5684
 1938WAT     H2 8473   3.799   4.308   6.933  0.8923 -0.5088 -0.4211
 1938WAT    EPW 8474   3.799   4.230   6.927 -0.0131 -0.5190 -0.4790
 1939WAT      O 8475   6.035   1.621   1.769  0.2472 -0.8782  0.2334
 1939WAT     H1 8476   5.972   1.656   1.819 -0.3446  0.8278 -1.5626
 1939WAT     H2 8477   6.097   1.601   1.826 -0.9843 -0.4520  1.8139
 1939WAT    EPW 8478   6.035   1.623   1.785 -0.0222 -0.5632  0.2016
 1940WAT      O 8479   1.686   4.967   4.818  0.2871 -0.6730 -0.6483
 1940WAT     H1 8480   1.631   4.943   4.881  1.2478  0.5128  0.7337
 1940WAT     H2 8481   1.637   5.015   4.764 -0.6018 -1.8951 -0.9514
 1940WAT    EPW 8482   1.671   4.971   4.820  0.2977 -0.6784 -0.4889
 1941WAT      O 8483   5.914   5.418   6.638  0.1676  0.0907 -0.1828
 1941WAT     H1 8484   5.928   5.441   6.721 -1.4298 -0.4757  0.2846
 1941WAT     H2 8485   5.957   5.343   6.630  1.0516  0.5734 -0.1582
 1941WAT    EPW 8486   5.923   5.410   6.649  0.0622  0.0783 -0.1101
 1942WAT      O 8487   2.475   4.958   4.105  0.5192  0.9461  0.4818
 1942WAT     H1 8488   2.437   4.888   4.069  0.2992  1.5892 -0.5742
 1942WAT     H2 8489   2.554   4.929   4.128  0.2037  0.1892  0.6382
 1942WAT    EPW 8490   2.481   4.944   4.103  0.4401  0.9293  0.3489
 1943WAT      O 8491   3.589   6.950   6.256  0.4716 -0.3725 -0.7950
 1943WAT     H1 8492   3.556   6.961   6.176  0.5938 -0.1299 -0.8152
 1943WAT     H2 8493   3.546   6.880   6.287  0.0064 -0.1231 -0.8553
 1943WAT    EPW 8494   3.577   6.942   6.249  0.4209 -0.2999 -0.8069
 1944WAT      O 8495   0.708   1.544   5.810 -0.3269  0.4925 -0.0256
 1944WAT     H1 8496   0.694   1.630   5.817 -1.6012  0.3113 -0.0913
 1944WAT     H2 8497   0.673   1.512   5.883  0.2203  0.0320  0.0405
 1944WAT    EPW 8498   0.700   1.552   5.822 -0.4343  0.3977 -0.0256
 1945WAT      O 8499   4.948   5.292   3.619 -0.1352  0.0481 -0.9188
 1945WAT     H1 8500   4.991   5.368   3.615  1.0723 -0.6684 -2.6062
 1945WAT     H2 8501   4.904   5.289   3.545 -2.3718  0.2658  0.3216
 1945WAT    EPW 8502   4.948   5.303   3.608 -0.2872 -0.0256 -0.9848
 1946WAT      O 8503   6.245   1.276   0.869  0.2590  0.1730 -0.0770
 1946WAT     H1 8504   6.231   1.361   0.856  1.0158  0.2579 -0.4160
 1946WAT     H2 8505   6.235   1.241   0.790  1.7513  0.2303 -0.3258
 1946WAT    EPW 8506   6.242   1.284   0.856  0.5913  0.1940 -0.1639
 1947WAT      O 8507   3.008   1.687   4.662  0.4249  0.1708 -0.1040
 1947WAT     H1 8508   2.958   1.733   4.717  0.1952  0.9005 -0.8979
 1947WAT     H2 8509   3.035   1.746   4.604  1.3394 -0.4242 -0.3046
 1947WAT    EPW 8510   3.005   1.703   4.661  0.5260  0.1907 -0.2509
 1948WAT      O 8511   2.482   6.959   1.317  0.0418  0.2222 -0.3596
 1948WAT     H1 8512   2.557   6.933   1.280  0.4447  1.6778 -0.6439
 1948WAT     H2 8513   2.429   6.891   1.307  1.3150 -0.8402 -0.1694
 1948WAT    EPW 8514   2.486   6.945   1.310  0.2894  0.2803 -0.3735
 1949WAT      O 8515   1.772   1.907   0.632 -0.4137  0.1037 -0.2799
 1949WAT     H1 8516   1.760   1.821   0.646  2.2526 -0.3850 -0.4152
 1949WAT     H2 8517   1.705   1.929   0.580 -1.0631 -1.9311 -0.4131
 1949WAT    EPW 8518   1.760   1.898   0.627 -0.1158 -0.2691 -0.3196
 1950WAT      O 8519   4.063   2.578   0.460 -0.0763 -0.1711  0.2251
 1950WAT     H1 8520   4.006   2.604   0.521  0.1209  0.4944  0.1283
 1950WAT     H2 8521   4.116   2.523   0.503 -0.4327 -0.3367  0.4537
 1950WAT    EPW 8522   4.062   2.573   0.475 -0.0998 -0.0972  0.2446
 1951WAT      O 8523   5.523   1.865   1.548  0.4664 -0.0521  0.0973
 1951WAT     H1 8524   5.609   1.871   1.559  0.4749 -0.0012 -0.0011
 1951WAT     H2 8525   5.491   1.925   1.602  0.4634 -0.4878  0.5862
 1951WAT    EPW 8526   5.531   1.875   1.558  0.4672 -0.1089  0.1550
 1952WAT      O 8527   5.328   0.858   0.714  0.1652 -0.1272  0.4691
 1952WAT     H1 8528   5.337   0.915   0.780  2.7402 -1.6762  1.5795
 1952WAT     H2 8529   5.407   0.856   0.678 -0.9626  0.0373 -2.2435
 1952WAT    EPW 8530   5.341   0.866   0.718  0.3790 -0.3317  0.2324
 1953WAT      O 8531   4.677   2.167   5.499  0.0694  0.0353  0.4721
 1953WAT     H1 8532   4.669   2.120   5.427 -1.8150 -1.1666  1.4044
 1953WAT     H2 8533   4.675   2.108   5.563 -3.2199  1.3051  1.7494
 1953WAT    EPW 8534   4.676   2.151   5.498 -0.6949  0.0453  0.7985
 1954WAT      O 8535   1.579   6.025   3.412 -0.2467 -0.4571  0.4430
 1954WAT     H1 8536   1.526   6.079   3.455  0.7220  0.5713  0.3886
 1954WAT     H2 8537   1.654   6.069   3.408  0.6207 -1.8720  0.5288
 1954WAT    EPW 8538   1.582   6.039   3.418  0.0246 -0.5142  0.4477
 1955WAT      O 8539   4.471   5.662   5.943  0.0791  0.2495 -0.6063
 1955WAT     H1 8540   4.447   5.711   6.012  0.0819 -2.4427  1.4756
 1955WAT     H2 8541   4.416   5.686   5.880 -0.6209  2.0936  0.6163
 1955WAT    EPW 8542   4.459   5.673   5.944 -0.0239  0.1242 -0.1181
 1956WAT      O 8543   6.182   3.200   1.582  0.5000  0.3559  0.1122
 1956WAT     H1 8544   6.237   3.138   1.556 -0.9279 -1.3598  1.0273
 1956WAT     H2 8545   6.151   3.232   1.507  0.4870 -0.7779 -0.3867
 1956WAT    EPW 8546   6.185   3.196   1.567  0.2872 -0.0650  0.1737
 1957WAT      O 8547   6.571   1.956   2.262  0.5084  0.0197 -0.2563
 1957WAT     H1 8548   6.552   1.997   2.187 -0.5830  0.9108  0.4853
 1957WAT     H2 8549   6.613   2.016   2.309  0.6830 -0.3515  0.0697
 1957WAT    EPW 8550   6.575   1.971   2.258  0.3730  0.0965 -0.0986
 1958WAT      O 8551   2.791   6.343   5.660 -0.6259 -0.7379  0.5129
 1958WAT     H1 8552   2.777   6.410   5.713 -0.4125  1.8233 -2.3897
 1958WAT     H2 8553   2.872   6.357   5.629 -0.1516 -2.9368  0.5391
 1958WAT    EPW 8554   2.801   6.355   5.663 -0.5243 -0.6843  0.0880
 1959WAT      O 8555   3.069   1.548   1.348 -0.9135  0.2057 -0.5221
 1959WAT     H1 8556   3.084   1.550   1.435 -0.1712 -0.8850 -0.6008
 1959WAT     H2 8557   2.994   1.592   1.339 -1.1812  0.0470  0.7127
 1959WAT    EPW 8558   3.060   1.555   1.360 -0.8434  0.0212 -0.3513
 1960WAT      O 8559   2.960   0.372   3.659  0.0907 -1.2598 -0.6644
 1960WAT     H1 8560   3.002   0.442   3.691  0.9291 -1.3182 -1.5787
 1960WAT     H2 8561   3.023   0.328   3.617 -0.8539 -1.4113 -2.0060
 1960WAT    EPW 8562   2.976   0.376   3.657  0.0750 -1.2908 -0.9977
 1961WAT      O 8563   6.372   4.712   4.814  0.0716  0.4186  0.1720
 1961WAT     H1 8564   6.324   4.644   4.841  1.6158 -0.5321  0.7112
 1961WAT     H2 8565   6.337   4.780   4.855 -0.8894 -0.2172  0.4318
 1961WAT    EPW 8566   6.360   4.712   4.824  0.1577  0.1843  0.2900
 1962WAT      O 8567   5.776   6.618   0.618  0.4232  0.7490 -0.2410
 1962WAT     H1 8568   5.708   6.661   0.586 -0.6046 -1.4545 -1.2215
 1962WAT     H2 8569   5.806   6.573   0.549  0.8965 -0.7201  0.8728
 1962WAT    EPW 8570   5.770   6.617   0.603  0.3413  0.2065 -0.2213
 1963WAT      O 8571   4.431   6.198   5.572 -0.2255 -0.1292 -0.0576
 1963WAT     H1 8572   4.472   6.264   5.612 -2.1440  0.6015  0.8356
 1963WAT     H2 8573   4.419   6.227   5.491 -2.5195  1.4380  0.7409
 1963WAT    EPW 8574   4.436   6.212   5.566 -0.8477  0.2103  0.1923
 1964WAT      O 8575   1.867   5.027   4.453  0.0048  0.2690  0.1783
 1964WAT     H1 8576   1.947   5.021   4.488 -0.4883 -1.2573  1.1571
 1964WAT     H2 8577   1.840   5.106   4.479 -0.1169 -0.5509  2.9092
 1964WAT    EPW 8578   1.875   5.038   4.462 -0.0860 -0.0776  0.7263
 1965WAT      O 8579   5.516   6.646   1.981  0.4224 -0.3445  0.1054
 1965WAT     H1 8580   5.461   6.666   2.046  0.1358 -0.3007 -0.1527
 1965WAT     H2 8581   5.545   6.724   1.955 -0.3640 -0.2808 -0.6097
 1965WAT    EPW 8582   5.512   6.660   1.987  0.2639 -0.3287 -0.0384
 1966WAT      O 8583   0.329   0.817   4.637  0.0596 -0.2594 -0.2945
 1966WAT     H1 8584   0.410   0.822   4.668  0.3123 -0.5193 -0.8955
 1966WAT     H2 8585   0.341   0.812   4.550 -0.6009 -0.1552 -0.3934
 1966WAT    EPW 8586   0.343   0.817   4.628 -0.0007 -0.2824 -0.3979
 1967WAT      O 8587   5.749   5.303   2.796  0.7069 -0.1911 -0.6673
 1967WAT     H1 8588   5.812   5.267   2.845  0.4841 -0.1984 -0.3822
 1967WAT     H2 8589   5.706   5.353   2.853  0.7985  0.2501 -0.9826
 1967WAT    EPW 8590   5.752   5.305   2.812  0.6875 -0.1270 -0.6718
 1968WAT      O 8591   0.588   7.245   7.193  0.0187  0.4499  0.3778
 1968WAT     H1 8592   0.563   7.267   7.274 -1.2172  0.6894 -0.0564
 1968WAT     H2 8593   0.528   7.187   7.168  0.5832  0.1255 -0.2510
 1968WAT    EPW 8594   0.576   7.240   7.202 -0.0805  0.4373  0.2208
 1969WAT      O 8595   6.651   4.469   3.110  0.2712  0.4513 -0.0687
 1969WAT     H1 8596   6.715   4.422   3.145 -1.2838 -1.9202 -0.1224
 1969WAT     H2 8597   6.589   4.409   3.093 -1.9306  2.5562 -0.0705
 1969WAT    EPW 8598   6.651   4.453   3.113 -0.2838  0.4120 -0.0769
 1970WAT      O 8599   2.570   1.661   4.354 -0.2538 -0.2806 -0.7574
 1970WAT     H1 8600   2.532   1.691   4.426  0.6247  0.7872 -0.7302
 1970WAT     H2 8601   2.650   1.639   4.380 -0.3937 -1.2863 -1.1057
 1970WAT    EPW 8602   2.576   1.662   4.368 -0.1447 -0.2714 -0.8048
 1971WAT      O 8603   2.099   1.358   1.911  0.0061  0.0986  0.3332
 1971WAT     H1 8604   2.101   1.411   1.842 -2.7628 -0.5790 -0.3662
 1971WAT     H2 8605   2.064   1.407   1.974 -1.1792 -0.4216  0.1017
 1971WAT    EPW 8606   2.094   1.373   1.910 -0.5780 -0.0784  0.1957
 1972WAT      O 8607   0.010   2.533   2.516 -0.1133  0.2024  0.7503
 1972WAT     H1 8608  -0.053   2.572   2.470  0.2365 -0.1742 -0.0856
 1972WAT     H2 8609   0.052   2.485   2.456  1.5677  1.1681  1.0975
 1972WAT    EPW 8610   0.007   2.531   2.500  0.1867  0.2894  0.6781
 1973WAT      O 8611   2.274   5.500   4.756  0.5273 -0.1202  0.2649
 1973WAT     H1 8612   2.240   5.551   4.817 -0.7925 -1.4679  0.7190
 1973WAT     H2 8613   2.314   5.437   4.801 -0.5510 -1.1868 -0.2343
 1973WAT    EPW 8614   2.275   5.498   4.771  0.1731 -0.4768  0.2582
 1974WAT      O 8615   4.225   3.199   4.530 -0.1883 -0.1917  0.1868
 1974WAT     H1 8616   4.279   3.259   4.497 -2.4666  2.9442  1.7308
 1974WAT     H2 8617   4.206   3.149   4.461  1.2481  1.2680 -1.3576
 1974WAT    EPW 8618   4.230   3.200   4.515 -0.3127  0.4872  0.1868
 1975WAT      O 8619   6.416   0.217   1.424 -0.1917 -0.6695  0.2132
 1975WAT     H1 8620   6.397   0.267   1.493  0.2599 -1.3810  0.8517
 1975WAT     H2 8621   6.503   0.215   1.422 -0.2013 -1.8677  0.5107
 1975WAT    EPW 8622   6.426   0.224   1.434 -0.1264 -0.9516  0.3515
 1976WAT      O 8623   4.584   3.162   6.268  0.5284  0.1831  0.4918
 1976WAT     H1 8624   4.598   3.077   6.253 -0.5388  0.1246 -0.3293
 1976WAT     H2 8625   4.637   3.202   6.211 -0.2683  0.0208 -0.3919
 1976WAT    EPW 8626   4.594   3.155   6.257  0.2530  0.1505  0.2400
 1977WAT      O 8627   1.781   3.401   1.815 -0.1583  0.0486  0.4876
 1977WAT     H1 8628   1.834   3.335   1.795  0.3920  0.5421  0.2629
 1977WAT     H2 8629   1.773   3.396   1.902  0.3787  0.0508  0.5404
 1977WAT    EPW 8630   1.787   3.391   1.825  0.0023  0.1218  0.4622
 1978WAT      O 8631   4.666   3.010   4.163 -0.5738  0.0884  1.1357
 1978WAT     H1 8632   4.650   3.003   4.078  2.0168 -0.0654  0.5657
 1978WAT     H2 8633   4.610   3.071   4.190 -1.1417  0.4742 -0.7653
 1978WAT    EPW 8634   4.655   3.018   4.154 -0.2750  0.1227  0.7707
 1979WAT      O 8635   6.070   4.498   6.420  0.0312 -0.3878  0.0719
 1979WAT     H1 8636   6.113   4.520   6.492 -2.1534 -0.5779  1.5371
 1979WAT     H2 8637   6.099   4.417   6.403  0.2798 -0.5092  1.0021
 1979WAT    EPW 8638   6.081   4.489   6.428 -0.2548 -0.4338  0.4258
 1980WAT      O 8639   3.516   4.603   7.026  0.1821 -0.4176 -0.1602
 1980WAT     H1 8640   3.545   4.683   7.008  0.4952 -0.4651  0.1194
 1980WAT     H2 8641   3.455   4.588   6.965 -0.9316  0.6145  0.6601
 1980WAT    EPW 8642   3.512   4.612   7.014  0.0638 -0.2721  0.0023
 1981WAT      O 8643   3.712   6.883   1.906  0.0771  0.2368 -0.3186
 1981WAT     H1 8644   3.695   6.821   1.847  0.0317 -1.0079  0.9814
 1981WAT     H2 8645   3.794   6.866   1.931 -0.3750 -0.1239  0.9893
 1981WAT    EPW 8646   3.721   6.872   1.901  0.0036 -0.0004  0.0666
 1982WAT      O 8647   5.607   2.962   3.003 -0.1541 -0.6207  0.3445
 1982WAT     H1 8648   5.611   2.910   2.933  0.5123 -1.0117  0.6613
 1982WAT     H2 8649   5.685   3.001   3.005 -0.0918 -0.7564  0.9639
 1982WAT    EPW 8650   5.619   2.960   2.993 -0.0464 -0.6985  0.4828
 1983WAT      O 8651   6.433   4.254   4.117  0.0216 -0.1920 -0.0332
 1983WAT     H1 8652   6.460   4.323   4.070 -0.0559 -0.0366  0.1518
 1983WAT     H2 8653   6.346   4.262   4.117 -0.0445 -0.8142 -0.8148
 1983WAT    EPW 8654   6.424   4.265   4.110  0.0004 -0.2610 -0.1213
 1984WAT      O 8655   5.091   2.006   0.097  0.2414  0.0629  0.0881
 1984WAT     H1 8656   5.132   2.082   0.112 -0.0689  0.2596 -0.0509
 1984WAT     H2 8657   5.007   2.025   0.111  0.3197 -0.6667  1.6544
 1984WAT    EPW 8658   5.084   2.020   0.101  0.2071 -0.0159  0.2990
 1985WAT      O 8659   0.189   4.395   4.271 -0.0796 -0.0922  0.1001
 1985WAT     H1 8660   0.235   4.457   4.312 -1.2180  1.5490 -0.9736
 1985WAT     H2 8661   0.221   4.321   4.304  2.5162  0.9779  0.2299
 1985WAT    EPW 8662   0.201   4.394   4.282  0.1357  0.3083 -0.0393
 1986WAT      O 8663   3.165   4.345   6.850  0.0004 -0.1130 -0.3478
 1986WAT     H1 8664   3.171   4.260   6.866 -1.1215  0.0341  1.0008
 1986WAT     H2 8665   3.124   4.349   6.773  0.4309 -0.7713 -0.6223
 1986WAT    EPW 8666   3.160   4.333   6.841 -0.1018 -0.1885 -0.1892
 1987WAT      O 8667   0.739   2.528   5.402 -0.1878  0.1325  0.2552
 1987WAT     H1 8668   0.807   2.509   5.452  0.2414  0.3233 -0.2489
 1987WAT     H2 8669   0.719   2.451   5.365  1.2013  0.4836 -1.3544
 1987WAT    EPW 8670   0.746   2.514   5.404  0.0808  0.2125 -0.0571
 1988WAT      O 8671   4.386   6.599   3.633 -0.1784 -0.2946  0.5456
 1988WAT     H1 8672   4.347   6.539   3.583 -0.0957  0.1102 -0.0228
 1988WAT     H2 8673   4.427   6.650   3.575  0.8135 -0.4330  1.0969
 1988WAT    EPW 8674   4.387   6.598   3.617 -0.0197 -0.2553  0.5431
 1989WAT      O 8675   5.911   6.781   3.322 -0.1278  0.0504  0.1667
 1989WAT     H1 8676   5.883   6.863   3.332 -1.6676 -0.4605  0.1899
 1989WAT     H2 8677   5.877   6.756   3.246  1.7566 -0.0424 -0.7233
 1989WAT    EPW 8678   5.902   6.789   3.313 -0.0769 -0.0388  0.0386
 1990WAT      O 8679   2.058   3.284   6.333 -0.2760 -0.5743  0.2743
 1990WAT     H1 8680   2.111   3.250   6.394  0.3634 -0.8921 -0.4351
 1990WAT     H2 8681   1.989   3.232   6.334 -0.7427  0.0257  1.4356
 1990WAT    EPW 8682   2.056   3.271   6.342 -0.2505 -0.5326  0.3410
 1991WAT      O 8683   6.636   1.618   5.487 -0.0751 -0.2662  1.1018
 1991WAT     H1 8684   6.574   1.610   5.426 -0.2458  1.1209  1.0609
 1991WAT     H2 8685   6.663   1.536   5.500 -2.4308 -1.0364  1.6371
 1991WAT    EPW 8686   6.631   1.605   5.480 -0.4483 -0.1750  1.1749
 1992WAT      O 8687   4.901   3.545   4.849 -0.1519  0.0028  0.1942
 1992WAT     H1 8688   4.908   3.557   4.763  2.1062 -1.0866  0.1418
 1992WAT     H2 8689   4.984   3.551   4.877 -0.7664 -0.1945  2.2213
 1992WAT    EPW 8690   4.914   3.548   4.841  0.0909 -0.1873  0.4859
 1993WAT      O 8691   4.711   4.219   5.343 -0.1790  0.1692 -0.4377
 1993WAT     H1 8692   4.794   4.231   5.320 -0.2347 -1.8124 -1.9568
 1993WAT     H2 8693   4.683   4.299   5.359  1.2409  1.2820 -2.8471
 1993WAT    EPW 8694   4.719   4.232   5.342  0.0225  0.0409 -1.0181
 1994WAT      O 8695   1.836   1.476   6.582  0.1816  0.5681 -1.4408
 1994WAT     H1 8696   1.807   1.395   6.592  0.0923  0.9394  2.8590
 1994WAT     H2 8697   1.922   1.470   6.597  0.0562  1.3026 -0.2810
 1994WAT    EPW 8698   1.844   1.463   6.585  0.1499  0.7315 -0.6343
 1995WAT      O 8699   1.752   5.969   6.878  0.0312  0.4347  0.3115
 1995WAT     H1 8700   1.730   5.963   6.962  0.2558 -0.0932  0.3351
 1995WAT     H2 8701   1.837   5.952   6.877  0.2568  1.4667  0.0960
 1995WAT    EPW 8702   1.761   5.966   6.890  0.0977  0.5092  0.2832
 1996WAT      O 8703   4.511   1.004   4.522 -0.1598 -0.1760  0.2476
 1996WAT     H1 8704   4.427   0.998   4.544  0.0768 -0.4885  1.1140
 1996WAT     H2 8705   4.552   0.962   4.586  0.5893 -0.9431 -0.6967
 1996WAT    EPW 8706   4.505   0.997   4.535 -0.0142 -0.3355  0.2361
 1997WAT      O 8707   0.539   2.921   2.794 -0.3781  0.1136  0.1362
 1997WAT     H1 8708   0.458   2.952   2.783 -0.6224 -0.6307 -0.2234
 1997WAT     H2 8709   0.538   2.888   2.875 -0.6608 -0.5440 -0.1299
 1997WAT    EPW 8710   0.527   2.920   2.804 -0.4559 -0.0935  0.0437
 1998WAT      O 8711   5.463   3.783   1.643 -0.0701 -0.6251  0.0214
 1998WAT     H1 8712   5.396   3.821   1.602 -0.9533 -0.8572  1.1944
 1998WAT     H2 8713   5.447   3.698   1.633  0.7029 -0.7024 -0.6911
 1998WAT    EPW 8714   5.451   3.776   1.635 -0.0864 -0.6708  0.0894
 1999WAT      O 8715   5.414   4.444   1.533  0.1737  0.0492 -0.4953
 1999WAT     H1 8716   5.386   4.451   1.451 -1.3952 -2.0511 -0.2417
 1999WAT     H2 8717   5.466   4.374   1.531  0.4968  0.2533  0.2200
 1999WAT    EPW 8718   5.418   4.434   1.521 -0.0103 -0.2309 -0.3522
 2000WAT      O 8719   6.302   1.561   4.701  0.1511 -0.3218  0.7626
 2000WAT     H1 8720   6.285   1.476   4.692  0.8287 -0.2251 -3.2503
 2000WAT     H2 8721   6.228   1.594   4.732 -0.1480 -2.2666  2.3475
 2000WAT    EPW 8722   6.289   1.554   4.704  0.2070 -0.5948  0.4039
 2001WAT      O 8723   6.691   5.878   4.880 -0.0739 -0.8585 -0.1137
 2001WAT     H1 8724   6.759   5.826   4.897 -0.2563 -0.3091  2.8081
 2001WAT     H2 8725   6.626   5.842   4.927 -0.6119  1.0596  0.6960
 2001WAT    EPW 8726   6.691   5.865   4.890 -0.1803 -0.4940  0.4375
 2002WAT      O 8727   3.591   3.617   0.405 -0.3128 -0.6158 -0.0518
 2002WAT     H1 8728   3.570   3.681   0.460  0.0255 -0.4546 -0.1087
 2002WAT     H2 8729   3.669   3.590   0.433 -0.7705 -1.4864  0.4088
 2002WAT    EPW 8730   3.599   3.622   0.417 -0.3304 -0.7206  0.0079
 2003WAT      O 8731   4.282   3.537   4.917 -0.1475 -0.3991 -0.1451
 2003WAT     H1 8732   4.233   3.539   4.845  0.2677  0.0191 -0.4251
 2003WAT     H2 8733   4.280   3.454   4.942  0.2585 -0.6828 -1.0342
 2003WAT    EPW 8734   4.275   3.525   4.910 -0.0262 -0.3792 -0.3178
 2004WAT      O 8735   4.984   4.097   1.475  0.4748  0.1346 -0.0246
 2004WAT     H1 8736   5.029   4.157   1.432  2.0644  0.5281  2.0474
 2004WAT     H2 8737   4.998   4.024   1.429  1.2838  0.7016 -0.7069
 2004WAT    EPW 8738   4.993   4.095   1.462  0.8291  0.2765  0.1807
 2005WAT      O 8739   1.669   1.259   5.883 -0.0093 -0.0257  0.1773
 2005WAT     H1 8740   1.618   1.264   5.812  0.6549  0.8747 -0.2483
 2005WAT     H2 8741   1.692   1.342   5.898  1.1609 -0.3963  0.4918
 2005WAT    EPW 8742   1.665   1.272   5.875  0.2617  0.0526  0.1609
 2006WAT      O 8743   7.079   1.588   2.105 -0.6366 -0.6850 -0.1127
 2006WAT     H1 8744   7.013   1.608   2.051  0.9367  0.3033 -1.8018
 2006WAT     H2 8745   7.104   1.508   2.078  0.0419 -0.2607 -0.7967
 2006WAT    EPW 8746   7.073   1.579   2.093 -0.3039 -0.4763 -0.4633
 2007WAT      O 8747   2.939   1.400   6.333 -0.1876  0.0273 -0.6965
 2007WAT     H1 8748   2.932   1.469   6.281  1.0214 -0.2124 -1.2112
 2007WAT     H2 8749   2.878   1.414   6.394  0.5116  1.9178 -0.3695
 2007WAT    EPW 8750   2.929   1.412   6.335  0.0943  0.2712 -0.7242
 2008WAT      O 8751   5.062   5.492   6.728  0.4567  0.3653  0.3273
 2008WAT     H1 8752   5.023   5.439   6.671 -0.1248  0.7919  0.3164
 2008WAT     H2 8753   5.147   5.473   6.719  0.1722 -1.6636  1.4528
 2008WAT    EPW 8754   5.069   5.482   6.718  0.3288  0.1286  0.4919
 2009WAT      O 8755   3.291   0.311   4.509  0.2663  0.2795 -0.0181
 2009WAT     H1 8756   3.305   0.321   4.423  1.2831 -0.2481  0.0776
 2009WAT     H2 8757   3.213   0.273   4.512 -0.3540  1.4247 -0.6511
 2009WAT    EPW 8758   3.282   0.307   4.496  0.3249  0.3707 -0.0975
 2010WAT      O 8759   5.931   4.181   6.349 -0.0735  0.4324 -0.2339
 2010WAT     H1 8760   5.926   4.210   6.431  1.1465 -0.6310  0.2573
 2010WAT     H2 8761   5.848   4.164   6.328 -0.5448  1.9873  0.2818
 2010WAT    EPW 8762   5.918   4.183   6.358  0.0371  0.5050 -0.0852
 2011WAT      O 8763   3.549   2.123   6.999 -0.3492 -0.3379 -0.0908
 2011WAT     H1 8764   3.504   2.053   7.022 -0.2678 -0.2750  0.2673
 2011WAT     H2 8765   3.598   2.141   7.070 -1.0588  0.6288  0.1786
 2011WAT    EPW 8766   3.550   2.115   7.013 -0.4420 -0.1858  0.0019
 2012WAT      O 8767   0.511   4.783   3.561  0.2310 -0.0796 -0.0806
 2012WAT     H1 8768   0.567   4.842   3.591  0.4651  0.2862 -1.1788
 2012WAT     H2 8769   0.505   4.802   3.476 -2.3960  0.5727  0.1753
 2012WAT    EPW 8770   0.519   4.794   3.553 -0.1225  0.0708 -0.2050
 2013WAT      O 8771   0.145   5.231   1.850  0.2419  0.3004 -0.0718
 2013WAT     H1 8772   0.076   5.265   1.808 -0.1302  0.4800  0.6557
 2013WAT     H2 8773   0.188   5.188   1.788  0.0455  1.0658 -0.7565
 2013WAT    EPW 8774   0.141   5.230   1.835  0.1579  0.4400 -0.0655
 2014WAT      O 8775   0.063   0.769   0.812  0.7152 -0.2961 -0.0800
 2014WAT     H1 8776   0.087   0.726   0.740 -0.3101 -2.4045  0.7600
 2014WAT     H2 8777   0.093   0.850   0.798  3.3956 -1.3885 -1.4553
 2014WAT    EPW 8778   0.071   0.775   0.799  0.9597 -0.7689 -0.1591
 2015WAT      O 8779   4.927   2.877   2.975  0.2887 -0.5078 -0.0805
 2015WAT     H1 8780   4.973   2.935   2.929 -1.0407  0.5135 -0.1886
 2015WAT     H2 8781   4.858   2.861   2.925  0.0889 -1.3650  0.4441
 2015WAT    EPW 8782   4.924   2.883   2.961  0.0628 -0.4836 -0.0190
 2016WAT      O 8783   7.305   1.801   0.816 -0.4273  0.3070 -0.5124
 2016WAT     H1 8784   7.270   1.740   0.764  0.6357  1.0841 -2.2300
 2016WAT     H2 8785   7.388   1.805   0.789  0.0758  1.0015  1.0381
 2016WAT    EPW 8786   7.312   1.793   0.804 -0.1959  0.5244 -0.5371
 2017WAT      O 8787   3.128   0.873   0.730 -0.1201  0.5962  0.2293
 2017WAT     H1 8788   3.192   0.820   0.758 -0.6313 -0.8201 -1.1552
 2017WAT     H2 8789   3.070   0.818   0.695 -0.8135  2.0563 -1.0088
 2017WAT    EPW 8790   3.129   0.857   0.729 -0.2980  0.6027 -0.1581
 2018WAT      O 8791   0.974   3.741   5.984 -0.0305 -0.4234  0.7299
 2018WAT     H1 8792   0.911   3.709   6.035 -2.9047  0.0769 -2.2021
 2018WAT     H2 8793   0.997   3.672   5.935 -1.4928  0.3340 -1.1158
 2018WAT    EPW 8794   0.968   3.726   5.985 -0.6711 -0.2376  0.0242
 2019WAT      O 8795   6.742   2.683   0.566 -0.1450  0.0447  0.3938
 2019WAT     H1 8796   6.695   2.677   0.639 -0.6477 -1.3620 -0.0168
 2019WAT     H2 8797   6.699   2.632   0.509  1.5806 -0.8849 -0.1547
 2019WAT    EPW 8798   6.729   2.675   0.568  0.0356 -0.3004  0.2521
 2020WAT      O 8799   6.573   0.877   6.399  0.0784  0.7062 -0.2225
 2020WAT     H1 8800   6.621   0.922   6.455  1.3152 -0.9710  0.1291
 2020WAT     H2 8801   6.523   0.827   6.450 -1.9491  2.2377 -0.5845
 2020WAT    EPW 8802   6.572   0.876   6.415 -0.0384  0.6847 -0.2241
 2021WAT      O 8803   3.223   6.799   4.322 -0.6819 -0.3921 -0.2538
 2021WAT     H1 8804   3.223   6.719   4.288 -0.3356 -1.1248  1.3709
 2021WAT     H2 8805   3.238   6.786   4.407  2.2818  1.5377 -0.2969
 2021WAT    EPW 8806   3.225   6.785   4.329 -0.1930 -0.2153 -0.0202
 2022WAT      O 8807   4.996   2.717   0.093 -0.6277 -0.3874 -0.0424
 2022WAT     H1 8808   4.986   2.780   0.152 -1.1216 -1.6793  1.2974
 2022WAT     H2 8809   5.077   2.689   0.105 -0.4308 -0.0808 -0.5929
 2022WAT    EPW 8810   5.007   2.722   0.103 -0.6715 -0.5329  0.0742
 2023WAT      O 8811   7.230   5.157   2.947  0.3047  0.4268 -0.0166
 2023WAT     H1 8812   7.289   5.210   2.911 -1.1155  2.5872  0.6098
 2023WAT     H2 8813   7.267   5.131   3.021  0.5847  1.5702  0.2655
 2023WAT    EPW 8814   7.244   5.161   2.952  0.1362  0.9148  0.1176
 2024WAT      O 8815   3.648   0.493   3.935  0.0246 -0.1092  0.7307
 2024WAT     H1 8816   3.720   0.538   3.915 -0.8845  0.4546 -1.5402
 2024WAT     H2 8817   3.644   0.431   3.874 -0.4710 -1.3088  1.9182
 2024WAT    EPW 8818   3.658   0.490   3.923 -0.1829 -0.2032  0.5707
 2025WAT      O 8819   6.029   3.798   6.597  0.2008  0.1520 -0.2776
 2025WAT     H1 8820   6.049   3.750   6.527 -3.2552  0.5640 -1.7535
 2025WAT     H2 8821   6.014   3.878   6.565 -2.5807  0.1007  0.5831
 2025WAT    EPW 8822   6.030   3.803   6.582 -0.7206  0.2053 -0.3685
 2026WAT      O 8823   1.141   0.053   6.148  1.0873 -0.1721  0.1513
 2026WAT     H1 8824   1.220   0.074   6.119  1.2736 -1.9824 -0.7838
 2026WAT     H2 8825   1.096   0.033   6.076  0.4738 -1.3173  0.8138
 2026WAT    EPW 8826   1.146   0.053   6.133  1.0242 -0.6087  0.1110
 2027WAT      O 8827   0.628   2.323   4.133 -0.0666  0.1479  0.2041
 2027WAT     H1 8828   0.575   2.352   4.195 -1.0608 -1.6970  0.3024
 2027WAT     H2 8829   0.644   2.393   4.085 -4.1712  0.5627 -0.9501
 2027WAT    EPW 8830   0.623   2.337   4.135 -0.8198 -0.0634  0.0481
 2028WAT      O 8831   5.862   5.466   4.475 -0.2862 -0.5052 -0.2069
 2028WAT     H1 8832   5.873   5.542   4.433 -1.8671 -1.2614 -2.1195
 2028WAT     H2 8833   5.792   5.481   4.526 -0.1804 -0.4828 -0.0674
 2028WAT    EPW 8834   5.853   5.480   4.476 -0.5041 -0.6136 -0.4688
 2029WAT      O 8835   5.784   2.891   2.349 -0.0301 -0.3569  0.4108
 2029WAT     H1 8836   5.806   2.826   2.295  2.9502  0.0638  0.9116
 2029WAT     H2 8837   5.852   2.945   2.345 -0.9931  1.1557  2.3869
 2029WAT    EPW 8838   5.797   2.889   2.341  0.2679 -0.0713  0.7767
 2030WAT      O 8839   4.761   1.807   0.631  0.2739  0.3090 -0.2526
 2030WAT     H1 8840   4.698   1.791   0.572 -1.6668  0.5319  1.6391
 2030WAT     H2 8841   4.751   1.743   0.689  0.2602  1.6555  1.2883
 2030WAT    EPW 8842   4.750   1.795   0.631 -0.0148  0.5408  0.2544
 2031WAT      O 8843   6.153   1.245   5.244  0.2631  0.3116  0.1937
 2031WAT     H1 8844   6.215   1.214   5.191  0.1524 -0.4057  0.4871
 2031WAT     H2 8845   6.196   1.270   5.315  0.4289  1.3927 -0.2644
 2031WAT    EPW 8846   6.168   1.244   5.246  0.2712  0.3654  0.1694
 2032WAT      O 8847   4.113   1.230   4.406 -0.0462 -0.2754  0.6266
 2032WAT     H1 8848   4.063   1.268   4.346  0.7364  1.7935  1.2229
 2032WAT     H2 8849   4.055   1.198   4.464 -0.7293  0.8404  0.5804
 2032WAT    EPW 8850   4.097   1.231   4.406 -0.0315  0.1950  0.7078
 2033WAT      O 8851   0.530   6.597   2.022 -0.0304  0.3605 -0.0941
 2033WAT     H1 8852   0.521   6.664   1.967 -1.4917 -0.9634 -1.5895
 2033WAT     H2 8853   0.522   6.634   2.100  1.4133  2.2187 -0.7611
 2033WAT    EPW 8854   0.527   6.612   2.025 -0.0330  0.4394 -0.4135
 2034WAT      O 8855   0.121   3.155   2.946  0.6924 -0.0740 -0.5548
 2034WAT     H1 8856   0.145   3.239   2.939  1.6968 -0.3216 -0.2934
 2034WAT     H2 8857   0.109   3.145   3.032 -0.0236 -0.0521 -0.6461
 2034WAT    EPW 8858   0.123   3.166   2.958  0.7350 -0.1074 -0.5297
 2035WAT      O 8859   3.070   0.411   4.920  0.5080  0.4294 -0.2537
 2035WAT     H1 8860   3.072   0.452   4.843  0.4568 -0.0581 -0.5231
 2035WAT     H2 8861   3.056   0.475   4.978 -0.1469  0.7115 -0.7150
 2035WAT    EPW 8862   3.068   0.426   4.917  0.4037  0.3990 -0.3617
 2036WAT      O 8863   4.551   5.367   4.859 -0.0610 -0.5847  0.0608
 2036WAT     H1 8864   4.566   5.326   4.783  0.0263 -0.5893  0.0805
 2036WAT     H2 8865   4.476   5.409   4.845  0.6723  0.5880 -0.5242
 2036WAT    EPW 8866   4.542   5.367   4.846  0.0602 -0.4122 -0.0227
 2037WAT      O 8867   6.386   4.582   6.862 -0.6827  0.0854  0.4481
 2037WAT     H1 8868   6.332   4.611   6.800 -1.3344 -0.5771  0.6812
 2037WAT     H2 8869   6.342   4.597   6.936 -0.4617 -0.2632  0.6534
 2037WAT    EPW 8870   6.371   4.588   6.864 -0.7463 -0.0640  0.5129
 2038WAT      O 8871   1.596   1.634   4.599 -0.5112 -0.2508 -0.3395
 2038WAT     H1 8872   1.630   1.560   4.631 -0.9620  0.2469  1.4118
 2038WAT     H2 8873   1.656   1.694   4.618 -0.4105 -0.0608 -1.2249
 2038WAT    EPW 8874   1.610   1.632   4.607 -0.5629 -0.1492 -0.2116
 2039WAT      O 8875   3.104   1.599   4.329 -0.7555 -0.1976 -0.2533
 2039WAT     H1 8876   3.186   1.591   4.358 -0.4613 -0.0644 -1.0114
 2039WAT     H2 8877   3.114   1.629   4.247 -1.5726  0.1616 -0.2357
 2039WAT    EPW 8878   3.117   1.602   4.321 -0.8327 -0.1248 -0.3627
 2040WAT      O 8879   1.381   3.637   0.545  0.1193 -0.6008 -1.0474
 2040WAT     H1 8880   1.430   3.703   0.514  0.0728 -0.3096 -0.5114
 2040WAT     H2 8881   1.299   3.663   0.530  0.1125 -0.8401 -1.4405
 2040WAT    EPW 8882   1.376   3.650   0.538  0.1114 -0.5931 -1.0263
 2041WAT      O 8883   6.556   1.399   5.029  0.4436  0.0834 -0.0593
 2041WAT     H1 8884   6.575   1.432   4.951 -1.3428 -0.3132 -0.7131
 2041WAT     H2 8885   6.628   1.353   5.050  1.0193  0.3515 -1.3613
 2041WAT    EPW 8886   6.570   1.397   5.021  0.2648  0.0645 -0.3482
 2042WAT      O 8887   7.293   3.467   0.006 -0.2004 -0.1373 -0.0954
 2042WAT     H1 8888   7.257   3.430   0.076 -0.1670 -1.2044 -0.6163
 2042WAT     H2 8889   7.350   3.524   0.039 -0.0561 -0.7561  0.7470
 2042WAT    EPW 8890   7.296   3.470   0.021 -0.1741 -0.3864 -0.0479
 2043WAT      O 8891   0.641   2.357   6.835  0.5994  0.2021 -0.2567
 2043WAT     H1 8892   0.576   2.400   6.795 -0.1607  1.9592  2.5288
 2043WAT     H2 8893   0.682   2.316   6.770 -2.6822 -0.2242 -2.3004
 2043WAT    EPW 8894   0.638   2.358   6.820  0.0024  0.3987 -0.1471
 2044WAT      O 8895   5.819   6.336   6.858  0.0818 -0.5328  0.6000
 2044WAT     H1 8896   5.826   6.383   6.785  1.4482 -1.0995  0.3406
 2044WAT     H2 8897   5.868   6.265   6.842 -0.4162 -1.1519  1.6895
 2044WAT    EPW 8898   5.827   6.332   6.845  0.2101 -0.7079  0.7226
 2045WAT      O 8899   6.458   2.100   5.761 -0.5897 -0.1395 -0.1557
 2045WAT     H1 8900   6.519   2.038   5.756  0.8815  1.3719 -2.7219
 2045WAT     H2 8901   6.403   2.080   5.697 -1.2311  0.1047  0.3095
 2045WAT    EPW 8902   6.459   2.088   5.751 -0.4671  0.1198 -0.4661
 2046WAT      O 8903   4.949   1.436   4.396 -0.4454 -0.6894 -0.7523
 2046WAT     H1 8904   4.873   1.430   4.354 -0.0929  1.0930 -1.7566
 2046WAT     H2 8905   4.966   1.522   4.397  0.3482 -0.7758  1.6926
 2046WAT    EPW 8906   4.940   1.448   4.390 -0.2761 -0.4389 -0.5395
 2047WAT      O 8907   4.506   3.796   3.959 -0.7416 -0.1492 -0.1701
 2047WAT     H1 8908   4.420   3.803   3.967 -0.5578  1.5279  0.9156
 2047WAT     H2 8909   4.533   3.780   4.041 -0.0914 -2.0490 -0.7005
 2047WAT    EPW 8910   4.498   3.795   3.973 -0.6184 -0.1821 -0.0881
 2048WAT      O 8911   0.783   5.415   1.783 -0.2911  0.3565  0.2224
 2048WAT     H1 8912   0.797   5.495   1.751  2.7834 -0.7638 -1.6749
 2048WAT     H2 8913   0.762   5.430   1.867  0.1491  3.1207 -0.0546
 2048WAT    EPW 8914   0.782   5.429   1.791  0.2281  0.5993 -0.0988
 2049WAT      O 8915   3.854   1.642   3.979  0.0093 -0.0486 -0.5879
 2049WAT     H1 8916   3.881   1.633   3.896  1.7604 -0.6909  0.0050
 2049WAT     H2 8917   3.914   1.694   4.015 -0.1137 -0.6448  0.5369
 2049WAT    EPW 8918   3.867   1.649   3.972  0.2498 -0.2315 -0.3342
 2050WAT      O 8919   3.034   5.591   4.697 -0.1195 -0.4309  0.0055
 2050WAT     H1 8920   3.058   5.529   4.641  1.2192 -0.2004  0.3049
 2050WAT     H2 8921   3.105   5.642   4.703 -0.5227 -0.0023  1.2922
 2050WAT    EPW 8922   3.048   5.590   4.689  0.0187 -0.3335  0.2398
 2051WAT      O 8923   1.959   0.600   7.123 -0.0004  0.6739  0.0360
 2051WAT     H1 8924   1.936   0.532   7.175  0.0134 -0.7205 -1.6905
 2051WAT     H2 8925   2.001   0.562   7.057 -0.1221  2.3719 -1.0800
 2051WAT    EPW 8926   1.962   0.584   7.121 -0.0163  0.7187 -0.3839
 2052WAT      O 8927   5.697   0.553   6.501 -0.5864 -0.3315  0.6496
 2052WAT     H1 8928   5.703   0.635   6.472  1.0866 -0.8695 -0.6334
 2052WAT     H2 8929   5.739   0.556   6.578 -1.8351  0.2956  1.3470
 2052WAT    EPW 8930   5.704   0.566   6.508 -0.5238 -0.3183  0.5631
 2053WAT      O 8931   2.867   6.823   5.092 -0.4353 -0.1244 -0.1830
 2053WAT     H1 8932   2.885   6.901   5.124  0.0867 -0.0480 -0.6444
 2053WAT     H2 8933   2.781   6.827   5.076 -0.4708  0.2391  0.0906
 2053WAT    EPW 8934   2.857   6.835   5.094 -0.3634 -0.0594 -0.2107
 2054WAT      O 8935   5.644   4.261   0.968 -0.0358  0.2136 -0.1784
 2054WAT     H1 8936   5.646   4.348   0.966 -0.6350  0.2471  0.3864
 2054WAT     H2 8937   5.720   4.238   0.932  1.2885  1.0147  1.8849
 2054WAT    EPW 8938   5.655   4.271   0.963  0.0713  0.3368  0.2098
 2055WAT      O 8939   4.108   4.527   0.374  0.5848 -0.2128 -0.2425
 2055WAT     H1 8940   4.050   4.548   0.312 -0.1029 -0.4236  0.3275
 2055WAT     H2 8941   4.183   4.525   0.330  0.1646  0.0146 -1.0018
 2055WAT    EPW 8942   4.110   4.530   0.358  0.4211 -0.2104 -0.2704
 2056WAT      O 8943   5.600   3.517   0.093 -0.1476 -0.3957  0.1510
 2056WAT     H1 8944   5.535   3.461   0.111  0.6503 -1.2026  0.6133
 2056WAT     H2 8945   5.593   3.531   0.007  0.2651 -2.0283 -0.1716
 2056WAT    EPW 8946   5.589   3.511   0.083  0.0312 -0.7561  0.1716
 2057WAT      O 8947   1.282   6.404   4.042  0.1184  0.4187 -0.0254
 2057WAT     H1 8948   1.261   6.329   4.082 -1.6190  1.7016  1.6627
 2057WAT     H2 8949   1.217   6.458   4.064  0.9215  2.2368 -1.7965
 2057WAT    EPW 8950   1.269   6.401   4.051 -0.0196  0.8768 -0.0376
 2058WAT      O 8951   2.611   3.956   6.226  0.1838  0.6521 -0.3137
 2058WAT     H1 8952   2.644   3.935   6.304  1.2297  2.3897 -0.2415
 2058WAT     H2 8953   2.667   3.920   6.169 -0.1124  0.0971 -0.2566
 2058WAT    EPW 8954   2.624   3.948   6.229  0.2945  0.8268 -0.2946
 2059WAT      O 8955   5.454   3.813   7.349 -0.2135  0.1027 -0.3439
 2059WAT     H1 8956   5.432   3.850   7.273  0.5216 -0.2932 -0.7552
 2059WAT     H2 8957   5.510   3.870   7.385  0.2007 -0.1697 -0.5535
 2059WAT    EPW 8958   5.459   3.827   7.343 -0.0437  0.0040 -0.4356
 2060WAT      O 8959   0.013   5.513   5.827 -0.2925 -0.4214  0.3283
 2060WAT     H1 8960   0.034   5.567   5.892 -0.9290 -0.3774  0.5016
 2060WAT     H2 8961   0.076   5.527   5.768  0.2040 -0.3471  0.8636
 2060WAT    EPW 8962   0.026   5.523   5.828 -0.3131 -0.4039  0.4330
 2061WAT      O 8963   0.258   4.053   6.316 -0.1309 -0.5326  0.2294
 2061WAT     H1 8964   0.293   3.974   6.328 -0.9604 -0.8116  0.9546
 2061WAT     H2 8965   0.227   4.050   6.234  1.4034 -0.3166 -0.3776
 2061WAT    EPW 8966   0.258   4.041   6.306 -0.0268 -0.5419  0.2468
 2062WAT      O 8967   6.901   7.173   2.783 -0.3373  0.3475  0.4723
 2062WAT     H1 8968   6.968   7.119   2.795 -0.8701 -0.8073 -1.3543
 2062WAT     H2 8969   6.930   7.230   2.724  0.6156  2.9289  3.1887
 2062WAT    EPW 8970   6.915   7.173   2.776 -0.2753  0.5582  0.6038
 2063WAT      O 8971   3.511   4.332   1.515 -0.0622 -0.1998 -0.3446
 2063WAT     H1 8972   3.532   4.330   1.430 -0.1538 -3.5883 -0.4278
 2063WAT     H2 8973   3.426   4.311   1.515 -0.0065 -0.4525  0.5698
 2063WAT    EPW 8974   3.502   4.329   1.502 -0.0675 -0.7377 -0.2218
 2064WAT      O 8975   6.713   6.262   0.255 -0.3686 -0.0220  0.0510
 2064WAT     H1 8976   6.692   6.218   0.328 -0.1696  0.4392  0.3932
 2064WAT     H2 8977   6.723   6.199   0.196  1.0988 -0.5643  0.8171
 2064WAT    EPW 8978   6.711   6.246   0.257 -0.1225 -0.0340  0.2147
 2065WAT      O 8979   5.003   3.796   0.086 -0.5846 -0.6937 -0.2901
 2065WAT     H1 8980   5.030   3.875   0.111  0.0974 -1.5042  1.7148
 2065WAT     H2 8981   5.064   3.770   0.029  0.7042 -0.8238  1.0870
 2065WAT    EPW 8982   5.016   3.804   0.081 -0.2935 -0.8326  0.2095
 2066WAT      O 8983   3.246   0.621   1.711  0.2410  0.2000 -0.0832
 2066WAT     H1 8984   3.316   0.637   1.662  0.2063  0.8986  0.0826
 2066WAT     H2 8985   3.280   0.588   1.785  0.4619  1.1513  0.2606
 2066WAT    EPW 8986   3.262   0.619   1.715  0.2685  0.4437 -0.0079
 2067WAT      O 8987   2.896   4.446   0.633  0.2430  0.5907 -0.5523
 2067WAT     H1 8988   2.982   4.443   0.615  0.1917  0.7300 -0.8173
 2067WAT     H2 8989   2.894   4.431   0.719  0.3467 -1.9163 -0.9179
 2067WAT    EPW 8990   2.909   4.444   0.643  0.2507  0.2409 -0.6455
 2068WAT      O 8991   4.333   0.686   0.610  0.3032  0.5316 -0.1001
 2068WAT     H1 8992   4.402   0.739   0.611  1.0429 -0.3082 -1.9725
 2068WAT     H2 8993   4.361   0.614   0.650 -0.4837  1.1989  1.8046
 2068WAT    EPW 8994   4.347   0.684   0.616  0.2962  0.5061 -0.0953
 2069WAT      O 8995   1.077   6.007   0.175  0.0077  0.3649  0.1260
 2069WAT     H1 8996   1.018   5.977   0.232  0.7881 -1.4599  0.0600
 2069WAT     H2 8997   1.134   6.049   0.226 -0.5023  0.7373  0.3985
 2069WAT    EPW 8998   1.077   6.009   0.191  0.0477  0.1504  0.1565
 2070WAT      O 8999   7.047   0.925   6.754  0.0402  0.0022  0.4102
 2070WAT     H1 9000   7.103   0.896   6.815 -0.4740  0.5467  1.1612
 2070WAT     H2 9001   6.970   0.896   6.782 -0.0361 -1.0819 -0.8290
 2070WAT    EPW 9002   7.044   0.917   6.767 -0.0470 -0.0775  0.3381
 2071WAT      O 9003   5.358   2.787   6.056  0.2191 -0.0154  0.4916
 2071WAT     H1 9004   5.279   2.823   6.051  1.0281  2.0132  1.1613
 2071WAT     H2 9005   5.344   2.702   6.038 -1.9140  0.4729 -0.4285
 2071WAT    EPW 9006   5.345   2.780   6.052  0.0235  0.3564  0.4546
 2072WAT      O 9007   5.610   0.680   4.628 -0.6356  0.1732  0.3495
 2072WAT     H1 9008   5.538   0.705   4.584 -1.8897 -1.0143  1.6308
 2072WAT     H2 9009   5.589   0.693   4.712 -0.0851 -1.9158  0.8724
 2072WAT    EPW 9010   5.596   0.686   4.634 -0.7395 -0.3108  0.6160
 2073WAT      O 9011   5.131   4.608   0.536 -0.2535  0.5038  0.1111
 2073WAT     H1 9012   5.151   4.596   0.452 -0.2237  0.6698  0.0949
 2073WAT     H2 9013   5.059   4.559   0.547  1.5407 -2.2162  0.8161
 2073WAT    EPW 9014   5.123   4.599   0.525  0.0160  0.1266  0.2129
 2074WAT      O 9015   0.372   4.373   1.017 -0.0921  0.0735  0.0604
 2074WAT     H1 9016   0.293   4.388   0.983 -0.4170 -0.0539  0.7459
 2074WAT     H2 9017   0.372   4.418   1.092  0.0876 -0.7665  0.5900
 2074WAT    EPW 9018   0.361   4.382   1.023 -0.1135 -0.0694  0.2399
 2075WAT      O 9019   1.544   7.021   7.117 -0.1316 -0.2846 -0.3430
 2075WAT     H1 9020   1.565   7.024   7.032 -1.0591 -0.1881 -0.5776
 2075WAT     H2 9021   1.507   7.099   7.131 -1.3065 -0.8415 -0.2186
 2075WAT    EPW 9022   1.542   7.033   7.107 -0.4422 -0.3526 -0.3593
 2076WAT      O 9023   7.000   5.358   2.276  0.1573 -0.7056 -0.6880
 2076WAT     H1 9024   6.973   5.368   2.193 -0.6158 -2.2912 -0.6607
 2076WAT     H2 9025   6.955   5.419   2.319  0.0702 -0.2972 -1.3429
 2076WAT    EPW 9026   6.989   5.369   2.270  0.0302 -0.8795 -0.7807
 2077WAT      O 9027   6.701   5.735   1.944 -0.4459  0.7485  0.7250
 2077WAT     H1 9028   6.777   5.723   1.903 -1.0869 -1.4949  0.0052
 2077WAT     H2 9029   6.657   5.787   1.890 -0.5322 -0.5316 -0.5011
 2077WAT    EPW 9030   6.706   5.741   1.930 -0.5534  0.2280  0.4376
 2078WAT      O 9031   5.314   5.551   5.003  0.5168 -0.0444  0.3657
 2078WAT     H1 9032   5.266   5.574   5.072 -1.3725 -1.0928 -0.4942
 2078WAT     H2 9033   5.350   5.626   4.977 -1.5903  1.0760  0.4309
 2078WAT    EPW 9034   5.312   5.565   5.009 -0.0735 -0.0337  0.2483
 2079WAT      O 9035   0.234   3.512   2.030  0.1318  0.6656  0.7871
 2079WAT     H1 9036   0.282   3.502   1.957  0.6452  1.9013  0.9370
 2079WAT     H2 9037   0.180   3.444   2.028 -0.0208  0.7968 -0.8759
 2079WAT    EPW 9038   0.233   3.500   2.019  0.1851  0.8675  0.5636
 2080WAT      O 9039   0.036   3.975   4.279 -0.1961 -0.6446  0.2761
 2080WAT     H1 9040   0.030   3.984   4.193 -1.0180 -0.3709  0.3576
 2080WAT     H2 9041   0.090   3.907   4.289  0.0418 -0.5639 -0.4478
 2080WAT    EPW 9042   0.043   3.966   4.268 -0.2824 -0.5922  0.1812
 2081WAT      O 9043   4.409   6.028   3.809 -0.4422  0.2325  0.5368
 2081WAT     H1 9044   4.419   6.110   3.835 -0.2856 -0.0755  1.5018
 2081WAT     H2 9045   4.341   6.032   3.754  0.3637  1.1879 -0.4439
 2081WAT    EPW 9046   4.400   6.040   3.805 -0.3000  0.3282  0.5345
 2082WAT      O 9047   1.201   3.337   1.130  0.1281  0.4713  0.2032
 2082WAT     H1 9048   1.195   3.297   1.207 -1.4255  0.7824  0.2654
 2082WAT     H2 9049   1.251   3.283   1.083 -0.5194 -0.6953  0.8170
 2082WAT    EPW 9050   1.207   3.323   1.135 -0.1970  0.3450  0.3031
 2083WAT      O 9051   3.164   6.345   3.088 -0.1154  0.0688 -0.7738
 2083WAT     H1 9052   3.173   6.264   3.117 -0.8591 -0.0363 -0.8072
 2083WAT     H2 9053   3.183   6.338   3.003 -0.6511 -0.1736 -0.8793
 2083WAT    EPW 9054   3.168   6.332   3.079 -0.3044  0.0174 -0.7943
 2084WAT      O 9055   5.065   5.767   7.399 -0.3089  0.6924  0.3484
 2084WAT     H1 9056   5.006   5.801   7.345 -0.7228 -0.0479  0.3185
 2084WAT     H2 9057   5.109   5.710   7.349 -1.4030 -0.8025  0.9996
 2084WAT    EPW 9058   5.063   5.764   7.384 -0.5317  0.3622  0.4402
 2085WAT      O 9059   6.261   2.319   6.731  0.0702  0.9285  0.0157
 2085WAT     H1 9060   6.312   2.326   6.801  0.5938  0.8396 -0.3574
 2085WAT     H2 9061   6.314   2.333   6.664 -0.8047  3.0092 -0.3242
 2085WAT    EPW 9062   6.276   2.322   6.732  0.0183  1.2227 -0.0897
 2086WAT      O 9063   2.065   0.616   6.692 -0.3263  0.3231  0.6207
 2086WAT     H1 9064   2.135   0.665   6.674  0.3111  0.0428  2.1642
 2086WAT     H2 9065   1.998   0.665   6.666  0.4153  0.6611 -0.7628
 2086WAT    EPW 9066   2.066   0.630   6.686 -0.1226  0.3316  0.6444
 2087WAT      O 9067   5.993   2.262   5.872  0.2532 -0.7720  0.4778
 2087WAT     H1 9068   6.052   2.290   5.930 -1.5055 -1.2932  2.6351
 2087WAT     H2 9069   5.959   2.336   5.840  0.8897 -0.4838  0.4402
 2087WAT    EPW 9070   5.997   2.277   5.876  0.0874 -0.8064  0.7910
 2088WAT      O 9071   3.127   0.851   1.215 -0.4361 -0.2251  0.4316
 2088WAT     H1 9072   3.132   0.901   1.287  1.5737 -0.5991  0.6079
 2088WAT     H2 9073   3.074   0.787   1.238 -1.4499  0.7493  0.8827
 2088WAT    EPW 9074   3.120   0.849   1.229 -0.2890 -0.1364  0.5243
 2089WAT      O 9075   4.790   5.487   4.581 -0.1047  0.1071  0.1506
 2089WAT     H1 9076   4.828   5.546   4.529  1.8330 -1.8462 -0.8006
 2089WAT     H2 9077   4.714   5.469   4.540  0.4433  0.1199 -0.9097
 2089WAT    EPW 9078   4.784   5.493   4.567  0.2625 -0.1796 -0.1465
 2090WAT      O 9079   0.997   2.830   6.300 -0.8128  0.8135 -0.3033
 2090WAT     H1 9080   0.943   2.899   6.295  0.0921  1.5055 -0.8743
 2090WAT     H2 9081   0.998   2.811   6.385 -0.9747  1.5963 -0.1193
 2090WAT    EPW 9082   0.989   2.838   6.312 -0.7030  1.0314 -0.3604
 2091WAT      O 9083   7.071   5.278   1.519  0.2724  0.2265 -0.0043
 2091WAT     H1 9084   7.085   5.343   1.463 -0.2072  1.6129  1.4011
 2091WAT     H2 9085   6.985   5.282   1.535  0.3506 -0.3053  0.6076
 2091WAT    EPW 9086   7.060   5.288   1.513  0.2131  0.3528  0.2937
 2092WAT      O 9087   6.963   1.916   2.262 -0.4475 -0.8287 -0.1958
 2092WAT     H1 9088   6.970   1.983   2.318 -2.6318 -0.2281 -0.5245
 2092WAT     H2 9089   6.959   1.846   2.314 -0.1145 -0.5141  0.2646
 2092WAT    EPW 9090   6.963   1.916   2.278 -0.7210 -0.6935 -0.1764
 2093WAT      O 9091   4.109   1.367   1.968  0.2443 -0.0499  0.0840
 2093WAT     H1 9092   4.139   1.448   1.953  0.9868 -0.4646 -0.7248
 2093WAT     H2 9093   4.135   1.351   2.050  0.2846  0.4398  0.1707
 2093WAT    EPW 9094   4.117   1.377   1.978  0.3599 -0.0388 -0.0226
 2094WAT      O 9095   4.825   6.259   5.047 -0.1368 -0.1952 -0.0866
 2094WAT     H1 9096   4.895   6.253   4.995 -1.6552 -4.0233 -2.0708
 2094WAT     H2 9097   4.843   6.204   5.112 -1.1383 -0.9755 -0.4518
 2094WAT    EPW 9098   4.838   6.250   5.049 -0.5090 -0.8760 -0.4337
 2095WAT      O 9099   6.989   3.625   5.743  0.5808  0.1427  0.4046
 2095WAT     H1 9100   7.043   3.668   5.797 -0.6419  0.8072  1.1272
 2095WAT     H2 9101   6.911   3.659   5.760 -0.4845 -2.3773  1.0884
 2095WAT    EPW 9102   6.986   3.636   5.754  0.2428 -0.1314  0.6124
 2096WAT      O 9103   3.590   2.291   3.041 -0.2618  0.0030 -0.1753
 2096WAT     H1 9104   3.624   2.306   2.962  0.4076  1.0633  0.2851
 2096WAT     H2 9105   3.509   2.323   3.035 -1.1289 -2.1996 -1.1705
 2096WAT    EPW 9106   3.583   2.298   3.028 -0.2910 -0.1658 -0.2543
 2097WAT      O 9107   0.754   2.450   7.378  0.0406  0.7890 -0.4221
 2097WAT     H1 9108   0.687   2.394   7.381 -0.2621  1.0858 -1.3195
 2097WAT     H2 9109   0.774   2.452   7.293  1.5318  0.3136 -0.1011
 2097WAT    EPW 9110   0.747   2.442   7.366  0.2162  0.7626 -0.5073
 2098WAT      O 9111   6.507   7.163   5.815  0.5916 -0.3741  0.1699
 2098WAT     H1 9112   6.442   7.148   5.758  1.0921 -0.7126 -0.3295
 2098WAT     H2 9113   6.465   7.182   5.889 -0.0792 -0.1572 -0.2510
 2098WAT    EPW 9114   6.491   7.164   5.817  0.5664 -0.3921  0.0339
 2099WAT      O 9115   1.629   7.004   6.854 -0.4280 -0.7894 -0.9170
 2099WAT     H1 9116   1.697   6.951   6.869 -0.8241 -1.5534 -1.7463
 2099WAT     H2 9117   1.666   7.080   6.832  0.1464 -0.8479 -0.1953
 2099WAT    EPW 9118   1.644   7.007   6.853 -0.4016 -0.9109 -0.9329
 2100WAT      O 9119   4.878   3.141   4.289  0.6559 -0.0828 -0.5317
 2100WAT     H1 9120   4.832   3.087   4.239 -1.1549  0.1411  0.8067
 2100WAT     H2 9121   4.862   3.114   4.370 -2.3066  3.7125  0.4256
 2100WAT    EPW 9122   4.869   3.129   4.294 -0.0492  0.5109 -0.1925
 2101WAT      O 9123   2.961   3.864   6.993 -0.4011  0.5183  0.0292
 2101WAT     H1 9124   2.902   3.927   6.994 -0.1325  0.8134 -1.1598
 2101WAT     H2 9125   2.925   3.803   6.941 -0.2361  0.1094  0.3840
 2101WAT    EPW 9126   2.947   3.864   6.985 -0.3371  0.5015 -0.0940
 2102WAT      O 9127   4.157   3.612   5.676 -0.2002  0.3481  0.3949
 2102WAT     H1 9128   4.179   3.546   5.728  0.6426  0.2812 -0.0290
 2102WAT     H2 9129   4.083   3.585   5.637  0.3257 -0.4917 -0.0370
 2102WAT    EPW 9130   4.149   3.598   5.678  0.0020  0.2141  0.2685
 2103WAT      O 9131   2.607   5.092   1.248 -0.1345  0.3262  0.2117
 2103WAT     H1 9132   2.635   5.026   1.298 -0.4105 -0.8828 -1.1624
 2103WAT     H2 9133   2.546   5.055   1.199 -1.2026  1.9374  0.2742
 2103WAT    EPW 9134   2.602   5.077   1.248 -0.3330  0.3856  0.0179
 2104WAT      O 9135   4.431   2.153   0.648 -0.0352 -0.0395 -0.5434
 2104WAT     H1 9136   4.411   2.168   0.564 -2.0046  0.8812  0.0429
 2104WAT     H2 9137   4.489   2.216   0.666  0.2671 -0.1325 -1.1637
 2104WAT    EPW 9138   4.437   2.165   0.638 -0.2815  0.0828 -0.5484
 2105WAT      O 9139   2.367   5.203   2.605 -0.2735 -0.2759 -0.4681
 2105WAT     H1 9140   2.399   5.174   2.530 -1.8142 -1.1579 -0.8347
 2105WAT     H2 9141   2.369   5.290   2.598  1.6124 -0.3099 -0.6087
 2105WAT    EPW 9142   2.372   5.211   2.593 -0.2225 -0.4112 -0.5430
 2106WAT      O 9143   0.509   6.293   2.721  0.2329  0.2143 -0.1407
 2106WAT     H1 9144   0.541   6.312   2.642 -1.4511 -1.3839 -1.3204
 2106WAT     H2 9145   0.568   6.325   2.776  1.3969  1.5360 -2.0382
 2106WAT    EPW 9146   0.522   6.300   2.718  0.1561  0.1735 -0.5953
 2107WAT      O 9147   1.006   5.832   5.464 -0.1716  0.7762  0.0981
 2107WAT     H1 9148   0.985   5.880   5.534  1.5393  0.8553  0.5948
 2107WAT     H2 9149   1.023   5.892   5.403 -4.7147  0.7853 -1.5516
 2107WAT    EPW 9150   1.005   5.848   5.465 -0.5899  0.7892 -0.0722
 2108WAT      O 9151   6.500   0.542   6.335 -0.0525  0.1852 -0.0175
 2108WAT     H1 9152   6.569   0.594   6.348  0.6056 -0.5939 -0.3089
 2108WAT     H2 9153   6.450   0.557   6.405  1.2115 -0.4438  1.0862
 2108WAT    EPW 9154   6.503   0.552   6.347  0.2314 -0.0228  0.1025
 2109WAT      O 9155   0.134   2.970   5.753 -0.3775 -0.5170  0.4500
 2109WAT     H1 9156   0.136   2.890   5.787  4.0165 -0.5884  0.5897
 2109WAT     H2 9157   0.156   3.022   5.820 -1.9908  0.7024  0.0848
 2109WAT    EPW 9158   0.138   2.966   5.768  0.0333 -0.3474  0.4167
 2110WAT      O 9159   2.849   7.025   2.858  0.6404  0.1411 -0.1433
 2110WAT     H1 9160   2.836   6.983   2.783  0.1741 -1.5007  0.8026
 2110WAT     H2 9161   2.910   7.084   2.838  1.6082 -1.2115 -1.4922
 2110WAT    EPW 9162   2.856   7.027   2.844  0.7145 -0.3012 -0.2029
 2111WAT      O 9163   2.502   3.810   2.632 -0.5896  0.1817  0.3605
 2111WAT     H1 9164   2.536   3.835   2.709  2.6372  3.1513 -1.7380
 2111WAT     H2 9165   2.530   3.728   2.623  1.0536  0.5771  1.3878
 2111WAT    EPW 9166   2.511   3.801   2.642  0.1298  0.6788  0.2023
 2112WAT      O 9167   5.421   4.475   6.941  0.4158 -0.0028  0.1201
 2112WAT     H1 9168   5.416   4.531   7.008  0.3969  0.0050  0.1120
 2112WAT     H2 9169   5.470   4.410   6.973 -0.2339 -0.3705  0.4112
 2112WAT    EPW 9170   5.427   4.474   6.956  0.3171 -0.0560  0.1619
 2113WAT      O 9171   7.219   2.477   7.284  0.7156 -0.4413 -0.1308
 2113WAT     H1 9172   7.200   2.399   7.318  1.3707 -0.7286 -0.4070
 2113WAT     H2 9173   7.142   2.518   7.283  0.3313 -1.1436 -0.1455
 2113WAT    EPW 9174   7.205   2.471   7.289  0.7556 -0.5875 -0.1738
 2114WAT      O 9175   6.015   5.152   1.396  0.6562  0.0522 -0.0937
 2114WAT     H1 9176   6.073   5.196   1.348  0.5967  0.6151  0.3457
 2114WAT     H2 9177   6.055   5.143   1.474 -0.3444  1.6080  0.6433
 2114WAT    EPW 9178   6.029   5.157   1.401  0.4996  0.3652  0.0800
 2115WAT      O 9179   4.914   1.514   6.212  0.3853  0.4441  0.4693
 2115WAT     H1 9180   4.922   1.513   6.125 -1.2240 -0.4448  0.2821
 2115WAT     H2 9181   4.836   1.551   6.225  0.5115  0.3711  1.5176
 2115WAT    EPW 9182   4.904   1.519   6.201  0.1662  0.3020  0.5965
 2116WAT      O 9183   6.109   3.193   5.259  0.6220 -0.5674 -0.0267
 2116WAT     H1 9184   6.184   3.151   5.246  0.1155 -0.9779 -2.0169
 2116WAT     H2 9185   6.120   3.270   5.218 -0.4972 -1.2239 -1.6844
 2116WAT    EPW 9186   6.121   3.198   5.251  0.3818 -0.7250 -0.5656
 2117WAT      O 9187   0.363   1.341   7.179  0.2903  0.5488  0.2678
 2117WAT     H1 9188   0.407   1.357   7.105  0.9255  1.2021  0.7712
 2117WAT     H2 9189   0.376   1.413   7.227  0.3206 -0.0660  1.2211
 2117WAT    EPW 9190   0.371   1.354   7.175  0.3886  0.5545  0.4830
 2118WAT      O 9191   0.343   0.514   0.280  0.0275 -0.4270 -0.7188
 2118WAT     H1 9192   0.320   0.512   0.196 -0.5079  2.4418 -0.7585
 2118WAT     H2 9193   0.321   0.435   0.310  0.1050 -1.4782 -3.2116
 2118WAT    EPW 9194   0.336   0.502   0.272 -0.0401 -0.1585 -1.0929
 2119WAT      O 9195   4.587   1.155   4.880 -0.1947  0.0171 -0.3855
 2119WAT     H1 9196   4.655   1.192   4.839  0.7626 -2.8357 -1.5675
 2119WAT     H2 9197   4.519   1.202   4.851  1.0605  2.2187 -0.0675
 2119WAT    EPW 9198   4.587   1.168   4.870  0.1321 -0.0791 -0.5131
 2120WAT      O 9199   4.724   0.924   4.698 -0.2675  0.3774  0.0742
 2120WAT     H1 9200   4.683   0.955   4.768  0.6295  1.6383  0.0683
 2120WAT     H2 9201   4.755   0.995   4.658  0.9553 -0.4444 -0.5184
 2120WAT    EPW 9202   4.723   0.939   4.702  0.0457  0.4423 -0.0142
 2121WAT      O 9203   5.223   3.186   0.625 -0.2820 -0.2969 -0.1730
 2121WAT     H1 9204   5.308   3.175   0.609  0.4903 -1.0649  3.4274
 2121WAT     H2 9205   5.222   3.227   0.702 -3.2009  0.0447 -0.2815
 2121WAT    EPW 9206   5.235   3.190   0.634 -0.5991 -0.3599  0.3428
 2122WAT      O 9207   0.026   4.092   2.341 -0.2622  0.0512  0.2475
 2122WAT     H1 9208   0.070   4.159   2.376 -0.1590 -0.0804  0.3739
 2122WAT     H2 9209  -0.014   4.056   2.409  1.4548 -1.3575  0.5748
 2122WAT    EPW 9210   0.027   4.097   2.356  0.0066 -0.1763  0.3145
 2123WAT      O 9211   1.881   5.292   6.459  0.4383  0.2938  0.3467
 2123WAT     H1 9212   1.891   5.378   6.444  2.4229 -0.0518 -0.7041
 2123WAT     H2 9213   1.959   5.268   6.491 -0.2402 -1.0410  1.0622
 2123WAT    EPW 9214   1.894   5.301   6.461  0.6313  0.0456  0.2972
 2124WAT      O 9215   6.003   1.146   0.521  0.1251  0.2677  0.5764
 2124WAT     H1 9216   6.078   1.122   0.558  0.1088 -2.0652 -0.6985
 2124WAT     H2 9217   5.946   1.147   0.587  0.5598 -1.5446  1.0335
 2124WAT    EPW 9218   6.006   1.143   0.536  0.1869 -0.3446  0.4556
 2125WAT      O 9219   2.709   0.621   4.653  0.6248  0.2673  0.5639
 2125WAT     H1 9220   2.675   0.557   4.701  1.3708 -0.5452  0.0488
 2125WAT     H2 9221   2.643   0.677   4.642 -0.5239 -1.2147 -0.3676
 2125WAT    EPW 9222   2.694   0.620   4.658  0.5653 -0.0717  0.3502
 2126WAT      O 9223   6.275   2.175   6.363  0.2338  0.2984  0.4152
 2126WAT     H1 9224   6.235   2.120   6.309  2.3812  0.6927 -1.7199
 2126WAT     H2 9225   6.313   2.122   6.422 -0.7875 -0.2320  0.6205
 2126WAT    EPW 9226   6.275   2.159   6.364  0.4002  0.2783  0.1301
 2127WAT      O 9227   3.233   2.737   5.454  0.4666 -0.4283  0.9745
 2127WAT     H1 9228   3.146   2.742   5.461  0.2743 -2.8963  1.4465
 2127WAT     H2 9229   3.261   2.810   5.491 -1.4066  0.7073  0.2733
 2127WAT    EPW 9230   3.224   2.748   5.461  0.1615 -0.6252  0.9406
 2128WAT      O 9231   4.028   0.653   4.756  0.2710 -0.4256  0.5020
 2128WAT     H1 9232   3.975   0.719   4.773  0.1547 -1.0331  2.7945
 2128WAT     H2 9233   3.974   0.586   4.741  0.3226  0.1690 -3.4477
 2128WAT    EPW 9234   4.012   0.653   4.756  0.2614 -0.4275  0.2572
 2129WAT      O 9235   0.354   2.685   4.279  0.2875 -0.2421 -0.2261
 2129WAT     H1 9236   0.395   2.723   4.212  1.2017 -0.9574 -0.0819
 2129WAT     H2 9237   0.418   2.657   4.330 -0.3743 -1.1645  0.1314
 2129WAT    EPW 9238   0.369   2.686   4.277  0.3248 -0.4840 -0.1520
 2130WAT      O 9239   4.329   5.189   4.327 -0.9393 -0.2042 -0.3334
 2130WAT     H1 9240   4.288   5.263   4.303  1.2574  0.4393 -2.5340
 2130WAT     H2 9241   4.276   5.126   4.297 -2.6219  0.4126  1.1721
 2130WAT    EPW 9242   4.315   5.191   4.319 -0.8633 -0.0180 -0.4361
 2131WAT      O 9243   3.358   7.037   2.973 -0.1415 -0.2345  0.0533
 2131WAT     H1 9244   3.427   7.090   2.976 -0.7563  0.5665  1.3140
 2131WAT     H2 9245   3.294   7.089   2.946 -0.1340 -1.1563 -1.8551
 2131WAT    EPW 9246   3.359   7.053   2.970 -0.2312 -0.2524 -0.0424
 2132WAT      O 9247   2.449   3.791   1.309  0.0433 -0.2009  0.2815
 2132WAT     H1 9248   2.520   3.747   1.286 -0.9555 -0.6153 -2.3025
 2132WAT     H2 9249   2.443   3.777   1.395  1.3356 -2.7730  0.0293
 2132WAT    EPW 9250   2.459   3.783   1.318  0.0866 -0.6421 -0.1375
 2133WAT      O 9251   5.627   3.086   3.465 -0.7981  0.1980 -0.5467
 2133WAT     H1 9252   5.615   3.038   3.537 -1.0426 -1.2092 -1.4955
 2133WAT     H2 9253   5.698   3.133   3.483  0.9536 -2.3018 -0.4768
 2133WAT    EPW 9254   5.636   3.086   3.478 -0.5754 -0.3792 -0.6766
 2134WAT      O 9255   7.302   2.332   6.917  0.1871 -0.0084  0.0577
 2134WAT     H1 9256   7.290   2.378   6.845 -1.5614  0.3228  0.5259
 2134WAT     H2 9257   7.389   2.334   6.928  0.3690  1.0203 -1.2997
 2134WAT    EPW 9258   7.313   2.339   6.908 -0.0443  0.1925 -0.0737
 2135WAT      O 9259   6.573   4.846   0.525 -0.4352  0.3306 -0.2067
 2135WAT     H1 9260   6.487   4.845   0.508 -0.3923 -0.5468 -0.3896
 2135WAT     H2 9261   6.578   4.830   0.610 -0.4108 -0.8490 -0.4156
 2135WAT    EPW 9262   6.561   4.844   0.535 -0.4252  0.0267 -0.2646
 2136WAT      O 9263   2.365   1.146   5.116 -0.2625 -0.4140 -0.6928
 2136WAT     H1 9264   2.380   1.102   5.190  0.4710  0.6436 -0.1843
 2136WAT     H2 9265   2.283   1.125   5.095 -0.5909 -0.4866  0.6086
 2136WAT    EPW 9266   2.355   1.137   5.124 -0.2027 -0.2685 -0.4254
 2137WAT      O 9267   5.046   3.112   7.144 -0.4171 -0.0107  0.3144
 2137WAT     H1 9268   5.016   3.180   7.098  0.9771  0.1435 -0.4446
 2137WAT     H2 9269   4.997   3.112   7.216 -1.3538  0.9585 -0.2976
 2137WAT    EPW 9270   5.035   3.122   7.148 -0.3495  0.1552  0.1119
 2138WAT      O 9271   3.998   1.897   4.800  0.1215  1.0533  0.7694
 2138WAT     H1 9272   3.995   1.880   4.715 -2.7137  3.1846  0.2953
 2138WAT     H2 9273   3.957   1.830   4.837  0.4920  0.6018  0.3642
 2138WAT    EPW 9274   3.992   1.885   4.793 -0.2426  1.3014  0.6395
 2139WAT      O 9275   4.263   3.030   3.899  0.0786  0.2115 -0.6803
 2139WAT     H1 9276   4.264   2.943   3.893  2.2312 -0.0488  1.6219
 2139WAT     H2 9277   4.218   3.044   3.973  0.6486  0.9706 -0.4742
 2139WAT    EPW 9278   4.256   3.019   3.909  0.4808  0.2852 -0.3098
 2140WAT      O 9279   0.808   6.923   6.535 -0.4015 -0.2490  0.0861
 2140WAT     H1 9280   0.813   6.958   6.455 -1.6693 -0.1649  0.0215
 2140WAT     H2 9281   0.824   6.839   6.521 -0.9226 -0.2848 -0.3037
 2140WAT    EPW 9282   0.811   6.916   6.521 -0.6658 -0.2418  0.0190
 2141WAT      O 9283   4.245   0.546   3.157 -0.2325  0.3080  0.1476
 2141WAT     H1 9284   4.241   0.507   3.235 -0.0981 -0.5648 -0.2727
 2141WAT     H2 9285   4.324   0.582   3.157 -0.2209  0.2903  0.4018
 2141WAT    EPW 9286   4.256   0.546   3.169 -0.2109  0.1764  0.1231
 2142WAT      O 9287   7.006   2.547   3.037 -0.4214 -0.2359 -0.4309
 2142WAT     H1 9288   6.960   2.603   3.086  0.3460 -0.2458  0.3368
 2142WAT     H2 9289   6.955   2.477   3.031 -1.5856  0.6798 -1.7620
 2142WAT    EPW 9290   6.992   2.545   3.043 -0.4800 -0.1021 -0.5141
 2143WAT      O 9291   7.318   7.059   3.244 -0.5425  0.0937  0.4220
 2143WAT     H1 9292   7.252   7.043   3.299  0.3119 -1.9687  0.9083
 2143WAT     H2 9293   7.375   6.995   3.259  0.6613  0.6204 -1.4497
 2143WAT    EPW 9294   7.317   7.047   3.254 -0.2385 -0.1332  0.2173
 2144WAT      O 9295   2.434   3.896   7.084  0.1508 -0.6029  0.0889
 2144WAT     H1 9296   2.458   3.942   7.014 -0.5128  1.0291  0.8794
 2144WAT     H2 9297   2.495   3.833   7.090 -0.2621 -1.3336 -2.4168
 2144WAT    EPW 9298   2.447   3.893   7.075 -0.0082 -0.4698 -0.1645
 2145WAT      O 9299   7.224   6.443   6.400 -0.2781  0.1107 -0.0478
 2145WAT     H1 9300   7.223   6.481   6.478 -0.3652  0.4984 -0.2387
 2145WAT     H2 9301   7.171   6.492   6.352  0.8611  0.7045 -0.7451
 2145WAT    EPW 9302   7.216   6.456   6.405 -0.1227  0.2557 -0.1790
 2146WAT      O 9303   0.386   5.211   1.231  0.3379 -0.3987  0.1947
 2146WAT     H1 9304   0.324   5.163   1.192  0.0492  0.9302 -1.0699
 2146WAT     H2 9305   0.457   5.194   1.184  0.1930  0.5153 -0.3774
 2146WAT    EPW 9306   0.387   5.201   1.218  0.2739 -0.0674 -0.0766
 2147WAT      O 9307   2.061   3.047   5.046 -0.1355 -0.2044  0.3576
 2147WAT     H1 9308   2.093   3.106   5.102  1.6070 -0.6865 -0.0461
 2147WAT     H2 9309   2.005   3.092   4.998 -0.1386  0.6984  1.1819
 2147WAT    EPW 9310   2.058   3.062   5.047  0.1214 -0.1423  0.4197
 2148WAT      O 9311   2.765   7.032   6.162 -0.1229  0.3109 -0.7962
 2148WAT     H1 9312   2.745   6.954   6.128  0.7874 -1.0531  1.5487
 2148WAT     H2 9313   2.706   7.086   6.125  0.5436 -0.9792 -4.1043
 2148WAT    EPW 9314   2.753   7.028   6.152  0.1100 -0.0812 -0.9385
 2149WAT      O 9315   1.668   6.071   6.209 -0.4292 -0.6314 -0.0155
 2149WAT     H1 9316   1.699   6.139   6.164 -0.2064 -1.1170 -0.6141
 2149WAT     H2 9317   1.584   6.093   6.223  0.6801  2.0622  4.1881
 2149WAT    EPW 9318   1.660   6.085   6.205 -0.2324 -0.3052  0.5170
 2150WAT      O 9319   6.390   1.198   0.169  0.2879 -0.1147  0.1193
 2150WAT     H1 9320   6.317   1.196   0.121  0.7995  0.2546 -0.7064
 2150WAT     H2 9321   6.388   1.276   0.208  0.2004 -0.1403  0.1656
 2150WAT    EPW 9322   6.379   1.209   0.167  0.3505 -0.0639  0.0042
 2151WAT      O 9323   1.224   6.333   0.138  0.1857  0.1411 -0.2531
 2151WAT     H1 9324   1.165   6.376   0.091 -0.9020 -0.4202  0.5653
 2151WAT     H2 9325   1.244   6.388   0.202 -0.9239 -0.3784  0.5765
 2151WAT    EPW 9326   1.219   6.347   0.141 -0.1389 -0.0186 -0.0097
 2152WAT      O 9327   6.933   4.245   5.837 -0.2706  0.1647 -0.3342
 2152WAT     H1 9328   6.898   4.269   5.913  2.4145  0.3059  0.9998
 2152WAT     H2 9329   6.984   4.177   5.858 -0.0468 -0.2977 -2.1626
 2152WAT    EPW 9330   6.935   4.238   5.852  0.1591  0.1173 -0.4072
 2153WAT      O 9331   0.844   2.371   7.131 -0.0457 -0.3896  0.3192
 2153WAT     H1 9332   0.832   2.413   7.055  2.3448  0.2021  0.1838
 2153WAT     H2 9333   0.858   2.289   7.107 -2.3605 -0.8679  0.4092
 2153WAT    EPW 9334   0.844   2.365   7.116 -0.0345 -0.3728  0.3125
 2154WAT      O 9335   5.477   3.848   1.913  0.0836 -0.2989 -0.6141
 2154WAT     H1 9336   5.432   3.923   1.913 -3.1778 -1.9701  2.3694
 2154WAT     H2 9337   5.466   3.817   1.832 -1.8210  0.6943 -0.7831
 2154WAT    EPW 9338   5.469   3.855   1.901 -0.6795 -0.3991 -0.1983
 2155WAT      O 9339   0.255   4.759   1.091  0.7959 -0.1293  0.5777
 2155WAT     H1 9340   0.293   4.825   1.048  2.4285 -2.3730 -1.6928
 2155WAT     H2 9341   0.172   4.784   1.096  1.3003  2.0247 -0.2954
 2155WAT    EPW 9342   0.249   4.773   1.085  1.1116 -0.1425  0.1133
 2156WAT      O 9343   0.342   1.039   6.721 -0.0458 -0.2066 -0.0367
 2156WAT     H1 9344   0.387   1.112   6.709  1.1396 -1.1939 -2.1846
 2156WAT     H2 9345   0.398   0.987   6.765 -0.8595  0.0948  1.4339
 2156WAT    EPW 9346   0.357   1.042   6.726  0.0091 -0.3079 -0.1368
 2157WAT      O 9347   3.570   1.635   3.959  0.4448 -0.1113  0.2727
 2157WAT     H1 9348   3.554   1.711   4.000  0.9537  0.2446 -0.1771
 2157WAT     H2 9349   3.656   1.636   3.946  0.4207 -0.6586  0.0442
 2157WAT    EPW 9350   3.580   1.647   3.963  0.5164 -0.1396  0.1725
 2158WAT      O 9351   0.223   0.454   6.446  0.0015  0.0389 -0.8819
 2158WAT     H1 9352   0.257   0.522   6.404 -0.1317  1.6496  1.4399
 2158WAT     H2 9353   0.138   0.458   6.426 -0.3611  1.7925  0.6321
 2158WAT    EPW 9354   0.215   0.465   6.437 -0.0717  0.5359 -0.3153
 2159WAT      O 9355   5.759   3.510   0.920  0.0775  0.4269 -0.2764
 2159WAT     H1 9356   5.713   3.566   0.871 -0.7473  0.0079  0.0057
 2159WAT     H2 9357   5.739   3.533   1.001 -0.7735 -0.6838 -0.1615
 2159WAT    EPW 9358   5.750   3.522   0.924 -0.1701  0.2010 -0.2178
 2160WAT      O 9359   5.536   0.143   3.634  0.2376  0.1356 -0.0432
 2160WAT     H1 9360   5.540   0.127   3.548  0.4967  0.5985 -0.1215
 2160WAT     H2 9361   5.584   0.079   3.669 -0.3683 -0.4147 -0.1909
 2160WAT    EPW 9362   5.544   0.131   3.626  0.1864  0.1227 -0.0765
 2161WAT      O 9363   2.419   6.343   1.106 -0.1949  0.5663 -0.3770
 2161WAT     H1 9364   2.350   6.380   1.068 -1.5223 -0.1523  1.1922
 2161WAT     H2 9365   2.394   6.333   1.189  0.5501 -2.5390 -0.3813
 2161WAT    EPW 9366   2.405   6.347   1.113 -0.2810  0.0014 -0.1458
 2162WAT      O 9367   5.717   3.397   1.407  0.1160  0.0764  0.7036
 2162WAT     H1 9368   5.774   3.406   1.341 -0.3167 -1.0858  0.1597
 2162WAT     H2 9369   5.764   3.358   1.469 -0.3081 -1.7825 -0.0958
 2162WAT    EPW 9370   5.733   3.393   1.407 -0.0106 -0.3699  0.5052
 2163WAT      O 9371   6.332   0.334   6.721 -0.4146 -0.0320 -0.0519
 2163WAT     H1 9372   6.400   0.279   6.717 -0.5901 -0.2885  0.4491
 2163WAT     H2 9373   6.321   0.359   6.638  1.3586  1.3104  0.0504
 2163WAT    EPW 9374   6.341   0.330   6.708 -0.1786  0.1284  0.0373
 2164WAT      O 9375   0.754   4.467   6.452 -0.3607  0.2355  0.4767
 2164WAT     H1 9376   0.698   4.483   6.388 -0.6236  0.7882  0.8376
 2164WAT     H2 9377   0.815   4.528   6.442 -1.1459  1.2561  1.6015
 2164WAT    EPW 9378   0.755   4.478   6.441 -0.5155  0.4679  0.6962
 2165WAT      O 9379   6.065   0.292   2.923  0.1606 -0.1085 -0.0371
 2165WAT     H1 9380   5.997   0.237   2.912  0.3260 -0.3682  0.2475
 2165WAT     H2 9381   6.067   0.305   3.009  1.9856 -2.0496  0.2803
 2165WAT    EPW 9382   6.055   0.286   2.934  0.4546 -0.4336  0.0519
 2166WAT      O 9383   6.983   4.873   6.763 -0.0635  0.0518  0.2624
 2166WAT     H1 9384   7.048   4.887   6.707  1.4342  0.1398  1.9277
 2166WAT     H2 9385   6.980   4.786   6.769 -1.4436 -0.0541 -1.2320
 2166WAT    EPW 9386   6.992   4.862   6.756 -0.0461  0.0492  0.2877
 2167WAT      O 9387   0.503   4.813   0.383 -0.2571  0.9138  0.6997
 2167WAT     H1 9388   0.555   4.769   0.328  0.1117  1.0067  0.9712
 2167WAT     H2 9389   0.530   4.787   0.462 -0.6756  0.9058  0.8455
 2167WAT    EPW 9390   0.514   4.802   0.387 -0.2644  0.9263  0.7613
 2168WAT      O 9391   3.981   5.295   2.074 -0.0487 -0.2122 -0.4776
 2168WAT     H1 9392   3.967   5.325   2.154 -2.2885  0.8845 -1.2061
 2168WAT     H2 9393   3.989   5.209   2.085  2.0479  0.1141  1.1341
 2168WAT    EPW 9394   3.980   5.287   2.087 -0.0698 -0.0020 -0.3471
 2169WAT      O 9395   6.732   6.058   6.509  0.1537  0.4306  0.7345
 2169WAT     H1 9396   6.774   5.982   6.503  0.2554  0.3291  2.2185
 2169WAT     H2 9397   6.660   6.038   6.554  0.0655  1.1710  0.9332
 2169WAT    EPW 9398   6.727   6.044   6.515  0.1557  0.5250  0.9831
 2170WAT      O 9399   1.739   6.533   6.870 -0.0452 -0.0430  0.2793
 2170WAT     H1 9400   1.816   6.525   6.830  0.1586  0.5483  0.5455
 2170WAT     H2 9401   1.681   6.528   6.804  0.2796  0.7187 -0.0773
 2170WAT    EPW 9402   1.742   6.531   6.854  0.0329  0.1569  0.2660
 2171WAT      O 9403   5.155   1.379   2.983  0.2383  0.5743  0.1966
 2171WAT     H1 9404   5.107   1.339   3.044 -0.0166  0.1949 -0.2512
 2171WAT     H2 9405   5.231   1.394   3.024 -0.0827  0.7291  0.7496
 2171WAT    EPW 9406   5.159   1.375   2.998  0.1532  0.5411  0.2121
 2172WAT      O 9407   6.853   4.344   1.511  0.3987  0.2934 -0.1733
 2172WAT     H1 9408   6.837   4.417   1.555 -0.1214  0.1827 -0.1713
 2172WAT     H2 9409   6.777   4.325   1.474  0.6971  0.1058 -0.7095
 2172WAT    EPW 9410   6.840   4.352   1.512  0.3659  0.2493 -0.2522
 2173WAT      O 9411   6.832   1.935   0.063  0.0173  0.3516  0.3487
 2173WAT     H1 9412   6.890   1.893   0.013 -1.1589 -1.0562  0.1151
 2173WAT     H2 9413   6.866   1.928   0.143 -0.2829 -1.3710  0.3683
 2173WAT    EPW 9414   6.846   1.928   0.067 -0.2008 -0.1108  0.3171
 2174WAT      O 9415   4.325   2.224   6.579  0.6862 -0.1945 -0.4780
 2174WAT     H1 9416   4.275   2.295   6.590  0.3088  0.2559 -4.0219
 2174WAT     H2 9417   4.290   2.166   6.634  0.4550  2.0160  1.9125
 2174WAT    EPW 9418   4.313   2.226   6.589  0.5963  0.1985 -0.6484
 2175WAT      O 9419   4.292   6.217   0.338  0.0007  0.7395 -0.1912
 2175WAT     H1 9420   4.319   6.203   0.256  0.9334 -1.0321  0.3584
 2175WAT     H2 9421   4.357   6.263   0.373 -0.1290  0.9800 -0.2578
 2175WAT    EPW 9422   4.305   6.222   0.331  0.1193  0.5133 -0.1199
 2176WAT      O 9423   0.749   2.852   0.372  0.2468  0.1050 -0.6988
 2176WAT     H1 9424   0.721   2.772   0.393  1.5841  0.2172  1.8122
 2176WAT     H2 9425   0.809   2.838   0.311 -1.2540 -0.5337 -2.1178
 2176WAT    EPW 9426   0.753   2.838   0.366  0.2226  0.0272 -0.5375
 2177WAT      O 9427   6.907   3.471   6.026  0.2199 -0.0818  0.3695
 2177WAT     H1 9428   6.823   3.471   6.047 -0.9320 -0.4905 -3.3834
 2177WAT     H2 9429   6.919   3.550   5.989  1.9650  0.5387  2.0444
 2177WAT    EPW 9430   6.896   3.483   6.023  0.3075 -0.0505  0.0625
 2178WAT      O 9431   5.040   1.239   3.182  0.2378 -0.1818  0.6182
 2178WAT     H1 9432   4.964   1.209   3.152  0.9190 -1.1616 -0.1869
 2178WAT     H2 9433   5.084   1.167   3.201  0.9213  0.3831  1.2189
 2178WAT    EPW 9434   5.035   1.224   3.180  0.4394 -0.2431  0.5880
 2179WAT      O 9435   0.406   6.882   0.409  0.3502  0.4658 -0.2049
 2179WAT     H1 9436   0.475   6.936   0.405  0.5079  0.2250 -0.7504
 2179WAT     H2 9437   0.339   6.933   0.386  0.7305  0.0269 -2.4652
 2179WAT    EPW 9438   0.406   6.898   0.405  0.4297  0.3654 -0.6194
 2180WAT      O 9439   3.616   0.412   7.236  0.3883  0.1937  0.1667
 2180WAT     H1 9440   3.580   0.490   7.248  0.6442  0.6440 -1.7186
 2180WAT     H2 9441   3.702   0.428   7.247  0.3694 -0.0497  0.7285
 2180WAT    EPW 9442   3.624   0.426   7.240  0.4233  0.2243 -0.0288
 2181WAT      O 9443   4.136   3.413   6.942 -0.4455 -0.1387 -0.5877
 2181WAT     H1 9444   4.135   3.336   6.902 -1.3394 -0.7054  0.4617
 2181WAT     H2 9445   4.221   3.428   6.957 -0.3448 -2.0429  1.2145
 2181WAT    EPW 9446   4.148   3.404   6.939 -0.5627 -0.5037 -0.1664
 2182WAT      O 9447   2.190   4.031   6.581  0.2285 -0.3693  0.3537
 2182WAT     H1 9448   2.172   3.949   6.603  1.5780 -1.2047 -1.4456
 2182WAT     H2 9449   2.166   4.036   6.497  0.7401  0.8883  0.2554
 2182WAT    EPW 9450   2.184   4.020   6.572  0.5035 -0.3070  0.0734
 2183WAT      O 9451   6.770   0.963   3.319  0.5498  0.5732  0.3543
 2183WAT     H1 9452   6.724   0.989   3.388 -0.1622  0.8333 -0.2027
 2183WAT     H2 9453   6.729   0.889   3.295 -0.2828  1.3806 -0.8012
 2183WAT    EPW 9454   6.757   0.956   3.326  0.3216  0.7309  0.1014
 2184WAT      O 9455   1.823   1.268   6.899  0.2199  0.5827 -0.3843
 2184WAT     H1 9456   1.796   1.263   6.816 -1.2978  1.4254  0.0330
 2184WAT     H2 9457   1.889   1.325   6.895 -0.8162  1.8042 -0.8298
 2184WAT    EPW 9458   1.829   1.276   6.886 -0.1574  0.8877 -0.3885
 2185WAT      O 9459   1.060   5.053   3.090  0.4563  0.5098 -0.4159
 2185WAT     H1 9460   1.031   5.135   3.096  0.1946  0.4861 -1.3188
 2185WAT     H2 9461   1.115   5.055   3.022  0.4132 -0.0740 -0.4725
 2185WAT    EPW 9462   1.064   5.065   3.081  0.4113  0.4200 -0.5576
 2186WAT      O 9463   5.915   3.784   2.443  0.0245 -0.4519  0.1361
 2186WAT     H1 9464   5.902   3.761   2.360  0.6713  1.7425 -0.6482
 2186WAT     H2 9465   5.895   3.869   2.444 -1.2733 -0.6824  2.5599
 2186WAT    EPW 9466   5.910   3.794   2.431 -0.0717 -0.1618  0.3783
 2187WAT      O 9467   3.356   0.797   6.854  0.4931 -0.1451 -0.0631
 2187WAT     H1 9468   3.383   0.740   6.793  1.1085 -0.7172  0.7135
 2187WAT     H2 9469   3.271   0.805   6.838  0.6632 -0.1748 -1.0799
 2187WAT    EPW 9470   3.348   0.790   6.842  0.6091 -0.2340 -0.0986
 2188WAT      O 9471   4.196   3.438   5.909  0.2096 -0.1704 -0.0893
 2188WAT     H1 9472   4.131   3.383   5.928 -0.5753  1.0472  0.9356
 2188WAT     H2 9473   4.238   3.447   5.985  0.7028  0.1495 -0.3961
 2188WAT    EPW 9474   4.193   3.431   5.923  0.1665  0.0567  0.0168
 2189WAT      O 9475   0.187   6.398   3.366 -0.2856  0.0242 -0.3979
 2189WAT     H1 9476   0.149   6.464   3.323 -0.9612 -0.1560 -0.0963
 2189WAT     H2 9477   0.260   6.384   3.321 -0.3221  0.7203 -0.6960
 2189WAT    EPW 9478   0.192   6.406   3.353 -0.3908  0.1004 -0.3974
 2190WAT      O 9479   5.202   6.131   1.606 -0.4577  0.5351  0.8284
 2190WAT     H1 9480   5.183   6.048   1.626  0.6960  0.2308  0.7662
 2190WAT     H2 9481   5.193   6.133   1.519 -2.1904  0.9612  0.9874
 2190WAT    EPW 9482   5.198   6.119   1.596 -0.5432  0.5531  0.8427
 2191WAT      O 9483   0.721   0.374   5.832  0.0091 -0.1981 -0.0387
 2191WAT     H1 9484   0.634   0.387   5.829  0.0881  0.3292 -0.2649
 2191WAT     H2 9485   0.749   0.411   5.758  0.2084 -2.1708 -0.9951
 2191WAT    EPW 9486   0.712   0.381   5.820  0.0502 -0.4116 -0.2134
 2192WAT      O 9487   4.401   6.992   6.287  0.3727  0.3220  0.2634
 2192WAT     H1 9488   4.347   7.016   6.350  0.4340  0.7388  0.1606
 2192WAT     H2 9489   4.409   6.906   6.298  0.5444  0.4219  0.9472
 2192WAT    EPW 9490   4.394   6.983   6.298  0.4072  0.3983  0.3492
 2193WAT      O 9491   5.394   2.934   0.652  0.3763 -0.1011  0.1313
 2193WAT     H1 9492   5.386   2.946   0.738 -0.5703  0.6179 -0.0462
 2193WAT     H2 9493   5.435   2.857   0.646 -1.8303 -1.4368  1.2066
 2193WAT    EPW 9494   5.399   2.924   0.664 -0.0895 -0.1922  0.2639
 2194WAT      O 9495   6.320   2.834   6.709  0.4133 -0.5487  0.3305
 2194WAT     H1 9496   6.267   2.797   6.650 -0.2879 -0.8757  1.1415
 2194WAT     H2 9497   6.385   2.776   6.718  0.2837 -0.7098  0.2177
 2194WAT    EPW 9498   6.322   2.820   6.702  0.2906 -0.6208  0.4337
 2195WAT      O 9499   5.531   1.593   3.794  0.2252 -0.6832 -0.2031
 2195WAT     H1 9500   5.611   1.619   3.771 -0.2649 -0.2445 -1.4959
 2195WAT     H2 9501   5.542   1.560   3.874  1.2830  1.5265  0.6546
 2195WAT    EPW 9502   5.544   1.592   3.802  0.3091 -0.2920 -0.2674
 2196WAT      O 9503   6.146   3.805   0.778 -0.1155 -0.4256  0.4510
 2196WAT     H1 9504   6.148   3.889   0.752  1.8084 -1.1052 -1.9468
 2196WAT     H2 9505   6.063   3.794   0.804 -0.8706  1.8060 -0.7002
 2196WAT    EPW 9506   6.134   3.816   0.778  0.0571 -0.1964 -0.0733
 2197WAT      O 9507   5.329   0.499   2.900 -0.2203 -0.2266  0.4291
 2197WAT     H1 9508   5.375   0.497   2.974 -1.2540 -0.4254  1.0814
 2197WAT     H2 9509   5.350   0.424   2.861  0.3599 -0.1043  0.4846
 2197WAT    EPW 9510   5.339   0.488   2.905 -0.2873 -0.2379  0.5337
 2198WAT      O 9511   3.705   2.440   0.550 -0.3658  0.2095 -0.1797
 2198WAT     H1 9512   3.726   2.452   0.466  0.4323 -1.3799 -0.2486
 2198WAT     H2 9513   3.763   2.490   0.592 -1.0176  1.3240 -0.5535
 2198WAT    EPW 9514   3.717   2.449   0.544 -0.3442  0.1393 -0.2451
 2199WAT      O 9515   4.628   3.916   1.301 -0.3931  0.4060  0.1761
 2199WAT     H1 9516   4.711   3.888   1.293  0.0356  1.8717 -0.9170
 2199WAT     H2 9517   4.634   4.002   1.287 -2.2893  0.3500 -1.3468
 2199WAT    EPW 9518   4.641   3.924   1.298 -0.6099  0.6142 -0.2104
 2200WAT      O 9519   2.288   5.220   3.752  0.0101 -0.3357 -0.1209
 2200WAT     H1 9520   2.226   5.193   3.697  1.9349 -1.3722 -1.9468
 2200WAT     H2 9521   2.320   5.291   3.713 -0.1990  0.3591  0.9448
 2200WAT    EPW 9522   2.284   5.226   3.738  0.2636 -0.3862 -0.2332
 2201WAT      O 9523   5.239   2.902   5.642  0.1043  0.0090 -0.6375
 2201WAT     H1 9524   5.322   2.885   5.666  0.2520  0.9248 -0.4818
 2201WAT     H2 9525   5.243   2.907   5.555  0.1676 -0.1850 -0.6461
 2201WAT    EPW 9526   5.252   2.900   5.633  0.1354  0.1157 -0.6157
 2202WAT      O 9527   0.467   6.063   3.177  0.1491  0.0818  0.0001
 2202WAT     H1 9528   0.532   6.014   3.210  0.3535  0.5351  0.2720
 2202WAT     H2 9529   0.433   6.011   3.115  0.9854 -0.0331 -0.3886
 2202WAT    EPW 9530   0.472   6.048   3.173  0.3028  0.1318 -0.0172
 2203WAT      O 9531   5.283   4.677   3.045 -0.1429 -0.6301  0.5263
 2203WAT     H1 9532   5.253   4.723   2.977 -1.2397 -0.7827  0.8863
 2203WAT     H2 9533   5.218   4.621   3.062  0.8335 -1.7829  0.6032
 2203WAT    EPW 9534   5.269   4.675   3.037 -0.1607 -0.8230  0.5909
 2204WAT      O 9535   2.705   0.309   0.130  0.1813  0.0625 -0.3863
 2204WAT     H1 9536   2.672   0.292   0.209  0.4383 -0.0583 -0.3032
 2204WAT     H2 9537   2.660   0.255   0.078  2.1441 -2.2436  0.0958
 2204WAT    EPW 9538   2.694   0.298   0.134  0.5092 -0.2960 -0.3028
 2205WAT      O 9539   4.437   1.678   4.114 -0.3671  0.2678  0.2422
 2205WAT     H1 9540   4.362   1.711   4.084 -0.1580 -0.8850 -1.6424
 2205WAT     H2 9541   4.498   1.721   4.068  0.2099  1.2447  1.8000
 2205WAT    EPW 9542   4.435   1.689   4.103 -0.2510  0.2418  0.1939
 2206WAT      O 9543   0.577   5.627   4.927  0.4685  0.4958 -0.4122
 2206WAT     H1 9544   0.654   5.588   4.940  0.2311 -0.3731 -1.4945
 2206WAT     H2 9545   0.585   5.702   4.972  1.3614 -0.2509  0.7352
 2206WAT    EPW 9546   0.590   5.633   4.935  0.5654  0.2572 -0.4026
 2207WAT      O 9547   0.021   2.615   0.081 -0.2385  0.5356  0.3538
 2207WAT     H1 9548  -0.006   2.586   0.004  2.3498  0.2174 -0.5288
 2207WAT     H2 9549   0.005   2.701   0.078 -2.5860  0.1839  0.6342
 2207WAT    EPW 9550   0.015   2.624   0.069 -0.2030  0.4367  0.2648
 2208WAT      O 9551   4.957   4.495   4.833  0.6281  0.1089  0.2760
 2208WAT     H1 9552   4.964   4.581   4.846  0.3562  0.2178 -0.2644
 2208WAT     H2 9553   4.917   4.489   4.755 -0.2236 -0.4951  0.7370
 2208WAT    EPW 9554   4.952   4.507   4.823  0.4621  0.0358  0.2643
 2209WAT      O 9555   7.190   0.899   4.669  0.3671  0.1888 -0.2575
 2209WAT     H1 9556   7.247   0.834   4.661 -0.9734 -1.6221  2.9845
 2209WAT     H2 9557   7.115   0.865   4.640  0.1868  1.3220 -1.1868
 2209WAT    EPW 9558   7.187   0.885   4.664  0.1424  0.0887  0.0841
 2210WAT      O 9559   6.527   3.156   6.168 -0.1238 -0.3531  0.0782
 2210WAT     H1 9560   6.595   3.110   6.139 -0.0888 -0.1669 -0.1406
 2210WAT     H2 9561   6.497   3.109   6.235 -0.6142 -1.1265 -0.6824
 2210WAT    EPW 9562   6.533   3.142   6.174 -0.1911 -0.4399 -0.0665
 2211WAT      O 9563   2.591   2.827   2.116 -0.4561  0.0695 -0.2802
 2211WAT     H1 9564   2.624   2.838   2.196  0.7619  0.4496 -0.7962
 2211WAT     H2 9565   2.581   2.741   2.110  0.4995 -0.0762 -0.0836
 2211WAT    EPW 9566   2.595   2.816   2.127 -0.1350  0.1041 -0.3274
 2212WAT      O 9567   6.759   0.190   1.055 -0.0194  0.9054  0.2416
 2212WAT     H1 9568   6.682   0.231   1.057 -1.0150 -0.8916  0.7740
 2212WAT     H2 9569   6.776   0.172   1.138  0.8026  0.9337  0.0940
 2212WAT    EPW 9570   6.750   0.194   1.067 -0.0450  0.6441  0.2984
 2213WAT      O 9571   6.860   6.988   1.515  0.7140  0.5513 -0.1297
 2213WAT     H1 9572   6.913   7.016   1.451  1.6725 -0.0543  0.3748
 2213WAT     H2 9573   6.908   6.997   1.587  0.3990 -0.7055  0.2563
 2213WAT    EPW 9574   6.875   6.994   1.516  0.8091  0.2762  0.0018
 2214WAT      O 9575   5.170   6.074   6.827  1.1022 -0.3146 -0.1667
 2214WAT     H1 9576   5.194   6.125   6.894 -0.0458 -0.6081  0.4942
 2214WAT     H2 9577   5.086   6.094   6.816  0.5455 -2.2203  0.2762
 2214WAT    EPW 9578   5.161   6.084   6.835  0.8504 -0.6395 -0.0036
 2215WAT      O 9579   4.555   6.111   1.692 -0.1321  0.1770  0.7064
 2215WAT     H1 9580   4.640   6.092   1.687  0.0668  0.6690  1.9075
 2215WAT     H2 9581   4.527   6.066   1.761 -0.9364 -0.2249  0.1409
 2215WAT    EPW 9582   4.563   6.102   1.701 -0.2215  0.1903  0.8003
 2216WAT      O 9583   3.242   3.540   5.976  0.2559 -0.2830 -0.3403
 2216WAT     H1 9584   3.291   3.602   6.013  2.0184 -0.4007 -2.2747
 2216WAT     H2 9585   3.239   3.477   6.035  0.2521  0.7610  0.8121
 2216WAT    EPW 9586   3.249   3.540   5.990  0.5157 -0.1462 -0.4558
 2217WAT      O 9587   0.454   0.234   6.749  0.0031  0.1106  0.1312
 2217WAT     H1 9588   0.528   0.189   6.739  1.2377  1.4340  2.3450
 2217WAT     H2 9589   0.392   0.173   6.740  1.4276 -1.4101 -0.0079
 2217WAT    EPW 9590   0.456   0.218   6.746  0.3959  0.0815  0.4377
 2218WAT      O 9591   2.854   5.602   0.397 -0.1201  0.2817  0.1070
 2218WAT     H1 9592   2.789   5.660   0.406  0.8253  1.5179 -0.7105
 2218WAT     H2 9593   2.906   5.619   0.465 -1.2566 -1.6106  1.5349
 2218WAT    EPW 9594   2.852   5.613   0.408 -0.1483  0.1848  0.1972
 2219WAT      O 9595   1.313   5.423   6.551  0.3880 -0.2565 -0.0063
 2219WAT     H1 9596   1.347   5.369   6.610  2.3794 -0.0490 -0.8925
 2219WAT     H2 9597   1.306   5.373   6.479 -1.8645 -0.4651  0.2930
 2219WAT    EPW 9598   1.317   5.408   6.549  0.3495 -0.2566 -0.0930
 2220WAT      O 9599   0.513   0.810   5.376  0.1174  0.0812 -0.5732
 2220WAT     H1 9600   0.564   0.744   5.350 -0.1158 -0.1553 -0.4407
 2220WAT     H2 9601   0.523   0.869   5.313 -0.4143 -0.4747 -1.1971
 2220WAT    EPW 9602   0.522   0.809   5.363  0.0044 -0.0359 -0.6458
 2221WAT      O 9603   2.117   4.133   5.961 -0.0846 -0.4141 -0.0825
 2221WAT     H1 9604   2.131   4.108   6.044  2.7792 -2.1248 -0.9289
 2221WAT     H2 9605   2.193   4.115   5.922 -0.7719  1.9195 -2.7651
 2221WAT    EPW 9606   2.130   4.126   5.968  0.2369 -0.3221 -0.6038
 2222WAT      O 9607   3.441   0.147   3.101  0.4670  0.0929 -0.0550
 2222WAT     H1 9608   3.506   0.205   3.099  2.1237 -1.6560  0.1550
 2222WAT     H2 9609   3.473   0.079   3.056 -1.6554 -0.4389 -0.8752
 2222WAT    EPW 9610   3.456   0.145   3.094  0.3982 -0.2440 -0.1451
 2223WAT      O 9611   2.139   2.087   2.551  0.2695 -0.3521 -0.0922
 2223WAT     H1 9612   2.100   2.016   2.583  0.8190  0.4094  2.4641
 2223WAT     H2 9613   2.203   2.103   2.607  0.5851  1.8125 -0.9518
 2223WAT    EPW 9614   2.143   2.079   2.564  0.3973  0.0801  0.1584
 2224WAT      O 9615   7.047   4.401   3.089 -0.1520  0.7300  0.4907
 2224WAT     H1 9616   6.983   4.360   3.132 -0.5662 -1.8883 -2.2865
 2224WAT     H2 9617   7.115   4.346   3.097  0.7571  1.8249  0.5544
 2224WAT    EPW 9618   7.048   4.387   3.097 -0.0789  0.5050  0.0899
 2225WAT      O 9619   0.433   3.639   4.690  0.1207 -0.1514  0.0119
 2225WAT     H1 9620   0.348   3.630   4.678 -0.4907  2.5879  1.4719
 2225WAT     H2 9621   0.444   3.623   4.776  1.0483 -0.3345 -0.1225
 2225WAT    EPW 9622   0.422   3.635   4.701  0.1674  0.2262  0.2077
 2226WAT      O 9623   6.546   3.313   1.291 -0.1893  0.1488 -0.2625
 2226WAT     H1 9624   6.578   3.306   1.371  0.2621 -2.9345 -0.5880
 2226WAT     H2 9625   6.611   3.352   1.246  0.7581 -0.7152  0.3108
 2226WAT    EPW 9626   6.561   3.317   1.296  0.0173 -0.4343 -0.2259
 2227WAT      O 9627   4.342   0.887   5.496 -0.3352  0.4317 -0.4488
 2227WAT     H1 9628   4.319   0.864   5.576  1.7342 -0.2372  0.0173
 2227WAT     H2 9629   4.421   0.850   5.485  0.4544  2.3309 -1.9358
 2227WAT    EPW 9630   4.351   0.878   5.506  0.0871  0.6135 -0.5996
 2228WAT      O 9631   1.823   0.758   4.894  0.2980  0.0187 -0.0010
 2228WAT     H1 9632   1.783   0.714   4.957  1.0005 -1.6806 -0.6875
 2228WAT     H2 9633   1.817   0.706   4.825  0.9704  1.1090 -0.9210
 2228WAT    EPW 9634   1.816   0.744   4.893  0.5011 -0.0713 -0.2383
 2229WAT      O 9635   5.568   4.890   1.275  0.4534  0.4067  0.0362
 2229WAT     H1 9636   5.563   4.840   1.203 -0.1659  0.0761  0.2953
 2229WAT     H2 9637   5.653   4.908   1.282  0.8613 -1.4884  0.5116
 2229WAT    EPW 9638   5.580   4.885   1.266  0.4221  0.0779  0.1447
 2230WAT      O 9639   2.493   1.535   0.773  0.1704 -0.2319  0.0260
 2230WAT     H1 9640   2.506   1.469   0.717 -0.6460  0.9317 -1.5923
 2230WAT     H2 9641   2.560   1.588   0.758 -0.7683  0.7434 -0.8828
 2230WAT    EPW 9642   2.505   1.533   0.763 -0.0889  0.0841 -0.3473
 2231WAT      O 9643   0.359   6.476   1.208  0.1620 -0.3661  0.6298
 2231WAT     H1 9644   0.310   6.548   1.201 -0.1079 -0.5459  0.6704
 2231WAT     H2 9645   0.400   6.472   1.132 -0.8266 -0.9025  0.1104
 2231WAT    EPW 9646   0.358   6.486   1.196 -0.0239 -0.4719  0.5591
 2232WAT      O 9647   6.953   4.356   2.408  0.2154 -0.1649 -0.0305
 2232WAT     H1 9648   6.869   4.374   2.394 -0.0137 -0.6182  0.6886
 2232WAT     H2 9649   6.980   4.421   2.459 -0.3945 -1.3244  1.8750
 2232WAT    EPW 9650   6.945   4.368   2.414  0.0915 -0.4031  0.3572
 2233WAT      O 9651   4.325   3.880   2.267 -0.4164 -0.5838  0.0932
 2233WAT     H1 9652   4.335   3.849   2.348 -1.6321 -2.4006 -0.3907
 2233WAT     H2 9653   4.281   3.954   2.278  1.0174  0.1550  1.1805
 2233WAT    EPW 9654   4.320   3.886   2.281 -0.3842 -0.7430  0.1823
 2234WAT      O 9655   0.853   5.283   5.642  0.7253  0.1285  0.1563
 2234WAT     H1 9656   0.828   5.332   5.573  1.3296  1.5515  0.8987
 2234WAT     H2 9657   0.939   5.298   5.647  0.8588 -0.7423  0.6424
 2234WAT    EPW 9658   0.862   5.293   5.632  0.8343  0.2101  0.3377
 2235WAT      O 9659   5.395   5.815   6.604 -0.0977 -0.3590 -0.0406
 2235WAT     H1 9660   5.357   5.843   6.530  0.6348 -3.7090 -1.8777
 2235WAT     H2 9661   5.327   5.793   6.654 -0.6019  2.0025  0.4737
 2235WAT    EPW 9662   5.379   5.816   6.600 -0.0640 -0.5050 -0.2360
 2236WAT      O 9663   4.861   6.491   6.104  0.0814  0.1565 -0.4934
 2236WAT     H1 9664   4.803   6.546   6.069 -1.4392 -0.5180  0.8319
 2236WAT     H2 9665   4.879   6.527   6.182  2.2646  0.8614 -1.2470
 2236WAT    EPW 9666   4.855   6.505   6.110  0.1793  0.1610 -0.4090
 2237WAT      O 9667   3.244   5.018   6.668  0.2169 -0.0354  0.3710
 2237WAT     H1 9668   3.201   5.000   6.594  0.6014 -2.0449  0.5659
 2237WAT     H2 9669   3.180   5.039   6.724 -0.1467  0.6861 -0.2858
 2237WAT    EPW 9670   3.228   5.018   6.665  0.2200 -0.2257  0.3028
 2238WAT      O 9671   3.515   5.626   1.657 -0.4678  0.7127  0.3748
 2238WAT     H1 9672   3.544   5.629   1.575  0.6672  1.7306  0.7804
 2238WAT     H2 9673   3.471   5.701   1.665 -0.7502  0.5214  0.6403
 2238WAT    EPW 9674   3.513   5.638   1.646 -0.3418  0.8348  0.4740
 2239WAT      O 9675   2.738   2.044   4.570  0.1406  0.0684 -0.5346
 2239WAT     H1 9676   2.751   2.070   4.487  0.0768 -0.5975 -0.7604
 2239WAT     H2 9677   2.777   2.105   4.617  0.7397  0.1195 -1.0847
 2239WAT    EPW 9678   2.746   2.057   4.564  0.2197 -0.0224 -0.6492
 2240WAT      O 9679   6.404   6.551   2.121  0.8050 -0.6153  0.2115
 2240WAT     H1 9680   6.423   6.484   2.174  0.2623 -1.6276 -0.8203
 2240WAT     H2 9681   6.438   6.526   2.044  2.6803  1.3839  0.3150
 2240WAT    EPW 9682   6.412   6.537   2.118  1.0018 -0.4695  0.0744
 2241WAT      O 9683   5.902   0.136   3.887 -0.3223 -0.8759 -0.0863
 2241WAT     H1 9684   5.966   0.152   3.945  1.4641  2.1406 -2.6116
 2241WAT     H2 9685   5.846   0.201   3.899 -0.2683 -0.5896 -1.2788
 2241WAT    EPW 9686   5.903   0.148   3.897 -0.0504 -0.3880 -0.6355
 2242WAT      O 9687   0.535   4.084   6.537 -0.4106  0.3360 -0.0876
 2242WAT     H1 9688   0.578   4.112   6.607  0.5439 -1.2564 -0.0010
 2242WAT     H2 9689   0.461   4.051   6.570 -0.6643  0.9754 -0.0025
 2242WAT    EPW 9690   0.530   4.084   6.552 -0.3071  0.1952 -0.0622
 2243WAT      O 9691   2.661   0.230   5.839  0.5996 -0.8087 -0.4317
 2243WAT     H1 9692   2.687   0.309   5.813 -1.7490  0.7721  1.5321
 2243WAT     H2 9693   2.637   0.191   5.765 -1.2386  1.6141 -1.2914
 2243WAT    EPW 9694   2.661   0.236   5.824 -0.0189 -0.2173 -0.2686
 2244WAT      O 9695   6.571   4.980   5.017  0.0847  0.6759  0.7398
 2244WAT     H1 9696   6.486   4.971   5.003  0.3633  0.2736 -0.8848
 2244WAT     H2 9697   6.584   5.066   5.010 -0.1127  0.6838  0.4773
 2244WAT    EPW 9698   6.561   4.992   5.014  0.0967  0.6176  0.4610
 2245WAT      O 9699   6.302   6.671   6.856  0.0599  0.1074 -0.3258
 2245WAT     H1 9700   6.300   6.640   6.938 -2.6467  0.9925  0.0644
 2245WAT     H2 9701   6.277   6.602   6.808  0.6026 -0.1178 -0.2935
 2245WAT    EPW 9702   6.298   6.656   6.861 -0.2598  0.2049 -0.2634
 2246WAT      O 9703   5.900   2.796   7.416  0.8236  0.0576  0.1882
 2246WAT     H1 9704   5.854   2.781   7.343  0.8024 -3.8218  0.8244
 2246WAT     H2 9705   5.968   2.843   7.387  1.2833 -2.0459 -2.6009
 2246WAT    EPW 9706   5.903   2.801   7.401  0.8884 -0.8262 -0.1298
 2247WAT      O 9707   6.615   4.301   5.074 -0.0543 -0.7220  0.0814
 2247WAT     H1 9708   6.603   4.292   4.988 -2.1813 -3.4243  0.5094
 2247WAT     H2 9709   6.564   4.369   5.095  0.8115  0.2314 -0.7960
 2247WAT    EPW 9710   6.606   4.310   5.064 -0.2406 -0.9804  0.0150
 2248WAT      O 9711   1.810   4.280   3.376 -0.0651  0.0883  0.3233
 2248WAT     H1 9712   1.825   4.278   3.462 -0.0179 -0.0171  0.3133
 2248WAT     H2 9713   1.872   4.332   3.345  0.5746 -0.7088  0.2260
 2248WAT    EPW 9714   1.821   4.287   3.384  0.0364 -0.0450  0.3074
 2249WAT      O 9715   5.842   2.715   2.156 -0.9749 -0.7143 -0.1161
 2249WAT     H1 9716   5.850   2.719   2.069 -1.2682 -0.0336 -0.1189
 2249WAT     H2 9717   5.907   2.663   2.180  0.2842  0.5619 -0.5850
 2249WAT    EPW 9718   5.853   2.708   2.146 -0.8322 -0.4252 -0.1858
 2250WAT      O 9719   6.466   3.204   5.736 -0.0438  0.1285  0.2895
 2250WAT     H1 9720   6.495   3.127   5.764  0.2078 -0.6653 -1.9907
 2250WAT     H2 9721   6.435   3.187   5.656 -1.6417  2.0492  0.4292
 2250WAT    EPW 9722   6.466   3.190   5.728 -0.2427  0.2950 -0.0267
 2251WAT      O 9723   2.733   2.887   5.390 -0.0183 -0.2163 -0.1730
 2251WAT     H1 9724   2.712   2.864   5.472  3.2255 -1.1632  0.5715
 2251WAT     H2 9725   2.752   2.811   5.352 -1.8488  0.1680 -2.0340
 2251WAT    EPW 9726   2.733   2.872   5.397  0.1905 -0.2994 -0.3379
 2252WAT      O 9727   3.534   5.790   3.260 -0.2075 -0.3125 -0.4929
 2252WAT     H1 9728   3.460   5.752   3.288 -0.9678  0.2911 -1.5969
 2252WAT     H2 9729   3.562   5.736   3.197 -0.6834  0.3489 -1.2924
 2252WAT    EPW 9730   3.527   5.776   3.255 -0.3901 -0.1256 -0.7741
 2253WAT      O 9731   3.016   6.742   0.019 -0.7385  0.9255  0.1668
 2253WAT     H1 9732   3.050   6.720  -0.058 -0.7582  0.3872  0.3096
 2253WAT     H2 9733   2.933   6.759   0.001 -0.8989  0.1813  0.1678
 2253WAT    EPW 9734   3.009   6.741   0.005 -0.7651  0.7361  0.1881
 2254WAT      O 9735   3.048   6.049   5.219  0.6417  0.1976  0.0263
 2254WAT     H1 9736   3.037   5.968   5.186 -0.0148  0.8515 -1.4722
 2254WAT     H2 9737   3.070   6.034   5.302  0.7675 -1.5318 -0.2655
 2254WAT    EPW 9738   3.050   6.035   5.226  0.5633  0.0387 -0.2382
 2255WAT      O 9739   3.582   0.698   6.262 -0.3560  0.2325  0.2878
 2255WAT     H1 9740   3.635   0.752   6.219  0.6329 -0.8994  0.0276
 2255WAT     H2 9741   3.628   0.679   6.335 -0.6357 -0.3266  0.3234
 2255WAT    EPW 9742   3.597   0.703   6.267 -0.2512 -0.0173  0.2546
 2256WAT      O 9743   0.347   2.575   3.256  0.0871  0.2533  0.7786
 2256WAT     H1 9744   0.280   2.628   3.238  0.3368  0.4548  0.4537
 2256WAT     H2 9745   0.416   2.627   3.256  0.1781  0.1454  1.6863
 2256WAT    EPW 9746   0.347   2.591   3.253  0.1374  0.2671  0.8647
 2257WAT      O 9747   1.325   6.298   1.513 -0.3765  0.4803 -0.7173
 2257WAT     H1 9748   1.283   6.223   1.500  0.6689 -0.4850  1.1573
 2257WAT     H2 9749   1.398   6.275   1.554 -0.8988  2.6436  1.7222
 2257WAT    EPW 9750   1.330   6.284   1.517 -0.2992  0.6572 -0.0800
 2258WAT      O 9751   6.178   4.187   4.207 -0.1448 -0.6025  0.3719
 2258WAT     H1 9752   6.100   4.163   4.175  1.2206 -0.8860 -3.2334
 2258WAT     H2 9753   6.221   4.111   4.214  0.6061 -0.2487 -0.2513
 2258WAT    EPW 9754   6.172   4.172   4.203  0.1678 -0.5921 -0.2527
 2259WAT      O 9755   7.281   1.779   2.181  0.2398  0.4097  0.4360
 2259WAT     H1 9756   7.211   1.729   2.169 -0.3211  1.3211 -0.1220
 2259WAT     H2 9757   7.347   1.721   2.181 -0.2628 -0.2170 -1.4965
 2259WAT    EPW 9758   7.281   1.763   2.179  0.0827  0.4518  0.0681
 2260WAT      O 9759   5.351   3.376   4.047  0.1145  0.4436  0.0887
 2260WAT     H1 9760   5.329   3.368   3.964  1.4724  2.8174 -0.5876
 2260WAT     H2 9761   5.301   3.317   4.088 -2.2792  0.8189 -2.0910
 2260WAT    EPW 9762   5.340   3.366   4.041 -0.0385  0.8497 -0.3332
 2261WAT      O 9763   5.513   1.370   1.830  0.0108 -0.2341  0.1912
 2261WAT     H1 9764   5.506   1.455   1.848 -1.0662  0.0444 -1.3890
 2261WAT     H2 9765   5.471   1.332   1.897 -1.1029  0.5826 -0.0196
 2261WAT    EPW 9766   5.506   1.377   1.843 -0.3128 -0.0723 -0.0734
 2262WAT      O 9767   4.402   0.119   0.623 -0.0155 -0.3618 -0.3550
 2262WAT     H1 9768   4.431   0.044   0.655  0.4642  0.6190  1.7098
 2262WAT     H2 9769   4.472   0.155   0.587  0.0117 -0.4374 -0.3779
 2262WAT    EPW 9770   4.417   0.113   0.623  0.0594 -0.2281 -0.0534
 2263WAT      O 9771   5.361   5.952   5.521 -0.3302  0.0219 -0.8781
 2263WAT     H1 9772   5.407   6.025   5.512  0.2428 -0.5203 -2.6281
 2263WAT     H2 9773   5.335   5.954   5.605  1.2248  1.2929 -0.3870
 2263WAT    EPW 9774   5.364   5.963   5.532 -0.0158  0.1295 -1.0641
 2264WAT      O 9775   6.199   1.311   4.737  0.2147 -0.3371 -0.2442
 2264WAT     H1 9776   6.134   1.265   4.772 -0.3549  0.9370  0.4598
 2264WAT     H2 9777   6.252   1.250   4.704 -0.4510 -1.4826  0.7074
 2264WAT    EPW 9778   6.197   1.295   4.737  0.0322 -0.3181  0.0004
 2265WAT      O 9779   2.992   7.060   5.214 -0.3667  0.3634 -0.1641
 2265WAT     H1 9780   2.941   7.035   5.280  0.3302 -0.3943  0.1016
 2265WAT     H2 9781   3.033   7.130   5.245 -0.9026  0.7001 -0.2141
 2265WAT    EPW 9782   2.990   7.067   5.228 -0.3429  0.3012 -0.1322
 2266WAT      O 9783   7.086   3.268   4.547  0.3701  0.1002  0.7857
 2266WAT     H1 9784   7.096   3.316   4.475  3.0140  0.8102  1.5126
 2266WAT     H2 9785   7.019   3.215   4.528  0.2571  1.0473 -1.7285
 2266WAT    EPW 9786   7.077   3.267   4.534  0.7440  0.3450  0.5217
 2267WAT      O 9787   1.338   3.676   1.023  0.7544 -0.1008 -0.3283
 2267WAT     H1 9788   1.401   3.725   1.058  0.8634 -1.4780  1.5632
 2267WAT     H2 9789   1.377   3.636   0.957  1.7444 -0.5060  0.4696
 2267WAT    EPW 9790   1.353   3.677   1.019  0.9167 -0.3641  0.0690
 2268WAT      O 9791   1.290   0.026   4.233 -0.5596  0.1264  0.1856
 2268WAT     H1 9792   1.319  -0.039   4.182 -0.5664  0.0859  0.2321
 2268WAT     H2 9793   1.223   0.060   4.189  0.2048  0.8894 -0.3948
 2268WAT    EPW 9794   1.284   0.021   4.219 -0.4477  0.2331  0.1067
 2269WAT      O 9795   6.360   1.889   5.384  0.2211  0.4281 -0.4429
 2269WAT     H1 9796   6.297   1.898   5.325  0.5187  0.6454 -0.7376
 2269WAT     H2 9797   6.431   1.872   5.335  0.1250 -1.2977 -0.0470
 2269WAT    EPW 9798   6.361   1.888   5.368  0.2508  0.2053 -0.4279
 2270WAT      O 9799   7.229   3.785   6.865  0.5266  0.0283 -0.1965
 2270WAT     H1 9800   7.298   3.834   6.883  0.1945  1.5304 -2.5033
 2270WAT     H2 9801   7.161   3.836   6.884  0.0163 -1.0629  1.1123
 2270WAT    EPW 9802   7.229   3.799   6.870  0.4022  0.0890 -0.3440
 2271WAT      O 9803   3.169   4.071   0.369 -0.1742 -0.0244  0.6386
 2271WAT     H1 9804   3.180   4.156   0.352  0.7163 -0.2687 -0.0848
 2271WAT     H2 9805   3.136   4.071   0.450 -0.6037  1.0216  0.4908
 2271WAT    EPW 9806   3.166   4.084   0.378 -0.1061  0.0940  0.5099
 2272WAT      O 9807   1.068   6.269   7.212  0.0361  0.0498 -0.5890
 2272WAT     H1 9808   1.057   6.231   7.134  1.4710 -0.3471 -0.6273
 2272WAT     H2 9809   1.151   6.295   7.210 -0.1079  0.6344  0.5585
 2272WAT    EPW 9810   1.079   6.267   7.200  0.2268  0.0775 -0.4252
 2273WAT      O 9811   0.758   7.063   5.430 -0.4396 -0.3233  0.6461
 2273WAT     H1 9812   0.743   7.005   5.493  0.1930 -0.8609  0.3101
 2273WAT     H2 9813   0.845   7.072   5.430 -0.3338 -1.0142 -0.7254
 2273WAT    EPW 9814   0.769   7.056   5.439 -0.3305 -0.5047  0.3939
 2274WAT      O 9815   3.012   4.809   2.237 -0.1030 -0.3078  0.0529
 2274WAT     H1 9816   3.022   4.790   2.322  2.8673  0.0272 -0.1378
 2274WAT     H2 9817   2.990   4.893   2.237  0.7173 -0.0857  0.4854
 2274WAT    EPW 9818   3.010   4.818   2.250  0.4570 -0.2255  0.0886
 2275WAT      O 9819   5.564   2.354   4.894 -0.4454 -0.3288  0.1807
 2275WAT     H1 9820   5.491   2.306   4.898 -0.2057 -0.8792 -1.2840
 2275WAT     H2 9821   5.535   2.436   4.890 -0.9731 -0.5269 -0.1237
 2275WAT    EPW 9822   5.549   2.359   4.894 -0.4880 -0.4394 -0.0806
 2276WAT      O 9823   1.006   0.219   4.466 -0.3549  0.0471  0.1318
 2276WAT     H1 9824   0.943   0.278   4.452 -0.6406 -0.4562 -0.7858
 2276WAT     H2 9825   1.079   0.264   4.451 -0.5600  0.2249 -0.3551
 2276WAT    EPW 9826   1.007   0.234   4.462 -0.4274 -0.0010 -0.0756
 2277WAT      O 9827   5.476   6.372   4.009  0.0681 -0.8305  0.1362
 2277WAT     H1 9828   5.424   6.424   3.963  0.2073 -1.2785 -0.5292
 2277WAT     H2 9829   5.511   6.426   4.069  0.6680 -0.0252 -0.9170
 2277WAT    EPW 9830   5.473   6.388   4.011  0.1773 -0.7777 -0.1177
 2278WAT      O 9831   6.294   6.201   3.901  0.1720 -0.1314 -0.1720
 2278WAT     H1 9832   6.319   6.282   3.920  1.6162 -0.1984 -1.5700
 2278WAT     H2 9833   6.316   6.192   3.817  1.7765 -2.5496  0.3972
 2278WAT    EPW 9834   6.301   6.211   3.891  0.6224 -0.4985 -0.2944
 2279WAT      O 9835   5.876   3.661   3.824  0.1664 -0.0502 -0.4506
 2279WAT     H1 9836   5.838   3.601   3.873  2.0301  0.6000  1.9889
 2279WAT     H2 9837   5.960   3.638   3.823  0.6116  1.4132 -1.1177
 2279WAT    EPW 9838   5.883   3.649   3.831  0.5075  0.2620 -0.1888
 2280WAT      O 9839   6.952   6.240   6.894  0.2445  0.3791 -1.0220
 2280WAT     H1 9840   6.905   6.302   6.934  0.1897 -0.6520  0.6153
 2280WAT     H2 9841   6.915   6.234   6.815 -1.8535  0.2336 -0.1131
 2280WAT    EPW 9842   6.939   6.248   6.888 -0.0735  0.2053 -0.6458
 2281WAT      O 9843   1.035   1.653   2.410 -0.0699 -0.0092  0.6796
 2281WAT     H1 9844   1.035   1.740   2.418 -0.4847  0.2993 -1.9139
 2281WAT     H2 9845   0.977   1.627   2.470 -0.2530  1.5200  1.2072
 2281WAT    EPW 9846   1.027   1.662   2.420 -0.1583  0.2623  0.3744
 2282WAT      O 9847   6.501   3.810   3.245 -0.1522  0.2674 -0.0160
 2282WAT     H1 9848   6.519   3.758   3.177  0.5942 -0.6960  0.8952
 2282WAT     H2 9849   6.574   3.809   3.292 -0.3159  1.7235  0.3125
 2282WAT    EPW 9850   6.515   3.802   3.242 -0.0661  0.3402  0.1671
 2283WAT      O 9851   1.569   0.499   1.426  0.0374 -0.2859 -0.0768
 2283WAT     H1 9852   1.640   0.464   1.388  1.8122  2.5667  0.2854
 2283WAT     H2 9853   1.509   0.498   1.363  0.0009 -3.5494 -0.1552
 2283WAT    EPW 9854   1.571   0.494   1.411  0.2942 -0.3466 -0.0348
 2284WAT      O 9855   7.173   0.199   1.530 -0.1462  0.2974  0.3730
 2284WAT     H1 9856   7.213   0.153   1.592  0.0526  1.4855  1.1506
 2284WAT     H2 9857   7.228   0.265   1.514 -0.7254  0.6475 -0.2398
 2284WAT    EPW 9858   7.187   0.202   1.537 -0.2024  0.5246  0.3974
 2285WAT      O 9859   2.980   3.548   1.943 -0.4818  0.0912  0.6243
 2285WAT     H1 9860   2.907   3.580   1.977 -1.0455 -0.3412 -0.1709
 2285WAT     H2 9861   3.015   3.503   2.009 -1.4753 -0.5853  0.7102
 2285WAT    EPW 9862   2.975   3.546   1.958 -0.7118 -0.0726  0.5196
 2286WAT      O 9863   2.087   3.315   2.044 -0.2725  0.1046  0.5700
 2286WAT     H1 9864   2.119   3.372   2.102 -0.2878 -0.3639  1.0381
 2286WAT     H2 9865   2.114   3.238   2.074 -1.3148 -0.2488  0.6233
 2286WAT    EPW 9866   2.096   3.312   2.057 -0.4287 -0.0168  0.6470
 2287WAT      O 9867   1.408   4.078   1.172  0.9302  0.0228 -0.3219
 2287WAT     H1 9868   1.428   3.997   1.146  1.9746  0.3114 -0.4589
 2287WAT     H2 9869   1.367   4.112   1.103 -0.5046 -0.7305  0.1273
 2287WAT    EPW 9870   1.405   4.071   1.158  0.8725 -0.0459 -0.2758
 2288WAT      O 9871   4.834   3.866   1.733  0.1899 -0.1220  0.4735
 2288WAT     H1 9872   4.795   3.800   1.690 -0.5663  1.5452 -1.5631
 2288WAT     H2 9873   4.781   3.880   1.801 -0.9335 -0.1293 -0.3700
 2288WAT    EPW 9874   4.821   3.858   1.737 -0.0878  0.1232  0.0481
 2289WAT      O 9875   6.138   2.553   4.742  0.1019 -0.1455  0.2509
 2289WAT     H1 9876   6.081   2.487   4.745  1.1844 -1.1026  0.6261
 2289WAT     H2 9877   6.089   2.622   4.722 -0.8392 -1.3451 -1.9620
 2289WAT    EPW 9878   6.122   2.554   4.739  0.1228 -0.4641 -0.0206
 2290WAT      O 9879   3.924   1.097   7.189 -0.0942  0.0348  0.0444
 2290WAT     H1 9880   3.902   1.014   7.204  1.4598  0.0403  3.0214
 2290WAT     H2 9881   3.852   1.141   7.210 -1.3456 -0.4864 -2.6861
 2290WAT    EPW 9882   3.910   1.091   7.194 -0.0495 -0.0414  0.0808
 2291WAT      O 9883   2.517   6.991   2.244 -0.0708 -0.2252 -0.1477
 2291WAT     H1 9884   2.449   6.948   2.276 -1.1661  0.7334 -1.1032
 2291WAT     H2 9885   2.515   7.068   2.286 -0.6773  0.4946 -1.4348
 2291WAT    EPW 9886   2.507   6.996   2.255 -0.3222  0.0227 -0.4790
 2292WAT      O 9887   3.011   3.232   5.364 -0.1103 -0.1619  0.3240
 2292WAT     H1 9888   3.015   3.145   5.357 -0.4596 -0.2670  1.3644
 2292WAT     H2 9889   2.952   3.255   5.304 -0.1070 -0.6535  0.1331
 2292WAT    EPW 9890   3.003   3.223   5.354 -0.1614 -0.2500  0.4495
 2293WAT      O 9891   1.039   5.997   2.455  0.3132  0.3630  0.5084
 2293WAT     H1 9892   1.007   6.040   2.386 -0.2646  0.5562  0.8903
 2293WAT     H2 9893   1.069   5.923   2.421  1.3734  1.0800 -0.1766
 2293WAT    EPW 9894   1.039   5.993   2.439  0.3844  0.4975  0.4636
 2294WAT      O 9895   2.264   7.049   1.134  0.1283 -0.2988  0.2344
 2294WAT     H1 9896   2.317   6.982   1.150  0.5575  0.1590  0.7723
 2294WAT     H2 9897   2.301   7.089   1.066 -0.0804 -0.5537 -0.0306
 2294WAT    EPW 9898   2.277   7.045   1.126  0.1609 -0.2688  0.2747
 2295WAT      O 9899   5.323   4.894   6.364  0.5880  0.1573  0.0073
 2295WAT     H1 9900   5.404   4.890   6.332  0.1102  0.9158 -1.3462
 2295WAT     H2 9901   5.282   4.947   6.309 -0.7309  0.1134  0.9188
 2295WAT    EPW 9902   5.329   4.901   6.351  0.3226  0.2629 -0.0580
 2296WAT      O 9903   5.776   3.327   7.255 -0.4215  0.5386  0.0212
 2296WAT     H1 9904   5.803   3.407   7.233 -2.1617  0.7876 -1.4713
 2296WAT     H2 9905   5.790   3.280   7.182  0.5167 -0.5297  0.8581
 2296WAT    EPW 9906   5.782   3.332   7.241 -0.5400  0.4176 -0.0757
 2297WAT      O 9907   4.770   0.631   0.710  0.0641  0.3581  0.0544
 2297WAT     H1 9908   4.770   0.634   0.623  0.9616 -1.0451 -0.0208
 2297WAT     H2 9909   4.806   0.708   0.733  2.1941 -0.2635 -0.9257
 2297WAT    EPW 9910   4.776   0.643   0.701  0.5113  0.0590 -0.1015
 2298WAT      O 9911   3.290   7.072   3.252 -0.4924 -0.6138  0.4961
 2298WAT     H1 9912   3.204   7.086   3.241 -0.0527  1.3766 -1.2752
 2298WAT     H2 9913   3.319   7.059   3.171  0.8405 -1.6946  1.1088
 2298WAT    EPW 9914   3.282   7.072   3.238 -0.2305 -0.4794  0.3249
 2299WAT      O 9915   1.194   2.067   6.261  0.1190  0.2259 -0.1036
 2299WAT     H1 9916   1.182   2.129   6.201  3.3782  0.5991 -0.5650
 2299WAT     H2 9917   1.133   2.008   6.241 -0.8398  1.6947 -1.8628
 2299WAT    EPW 9918   1.183   2.067   6.249  0.4589  0.4980 -0.4317
 2300WAT      O 9919   4.892   1.359   5.252  0.6324 -0.5009 -0.3619
 2300WAT     H1 9920   4.806   1.368   5.262  0.2680 -1.3441 -2.3043
 2300WAT     H2 9921   4.907   1.276   5.273  0.6579 -0.8487 -1.6762
 2300WAT    EPW 9922   4.881   1.348   5.257  0.5824 -0.6768 -0.8430
 2301WAT      O 9923   4.509   4.164   1.679 -0.1170 -0.3776 -0.1067
 2301WAT     H1 9924   4.441   4.148   1.626  0.7240  0.1533 -1.3870
 2301WAT     H2 9925   4.475   4.217   1.739 -0.9052 -0.3174 -0.5873
 2301WAT    EPW 9926   4.494   4.170   1.680 -0.1092 -0.2903 -0.3668
 2302WAT      O 9927   7.037   3.485   4.769  0.2289 -0.1987 -0.1123
 2302WAT     H1 9928   7.065   3.535   4.835  0.4229  0.9156 -0.9963
 2302WAT     H2 9929   7.090   3.416   4.771  0.8857  0.3042  0.2810
 2302WAT    EPW 9930   7.049   3.482   4.779  0.3546  0.0402 -0.1848
 2303WAT      O 9931   1.408   2.703   1.308 -0.1006 -0.0617 -0.2402
 2303WAT     H1 9932   1.402   2.695   1.395  0.8478 -0.2969 -0.1870
 2303WAT     H2 9933   1.332   2.739   1.286 -0.4506 -0.2194  0.6630
 2303WAT    EPW 9934   1.396   2.707   1.318 -0.0122 -0.1198 -0.0989
 2304WAT      O 9935   2.778   6.889   7.118 -0.4139 -0.2306  0.2900
 2304WAT     H1 9936   2.817   6.842   7.056 -1.0259 -1.6275  0.9187
 2304WAT     H2 9937   2.694   6.870   7.109 -0.4307 -1.2604  2.1414
 2304WAT    EPW 9938   2.772   6.879   7.108 -0.5067 -0.5890  0.6564
 2305WAT      O 9939   0.761   3.402   3.901 -0.1300  0.0652 -0.0674
 2305WAT     H1 9940   0.774   3.342   3.840 -0.4493  0.2858 -0.3587
 2305WAT     H2 9941   0.779   3.477   3.861  0.0760  0.1820  0.2362
 2305WAT    EPW 9942   0.765   3.404   3.886 -0.1467  0.1151 -0.0656
 2306WAT      O 9943   4.047   4.875   6.550  0.0131 -0.3196 -0.2419
 2306WAT     H1 9944   4.066   4.824   6.482 -1.0792 -0.1360 -0.7048
 2306WAT     H2 9945   3.962   4.895   6.538  0.4313  1.7323 -0.1693
 2306WAT    EPW 9946   4.037   4.870   6.538 -0.0865  0.0106 -0.2996
 2307WAT      O 9947   0.876   2.078   7.055  0.5314 -0.2132  0.9557
 2307WAT     H1 9948   0.893   2.061   6.971 -0.5004  1.0535  0.4523
 2307WAT     H2 9949   0.871   2.000   7.091  0.2555 -0.8128 -0.3210
 2307WAT    EPW 9950   0.878   2.064   7.048  0.3383 -0.1146  0.6928
 2308WAT      O 9951   1.836   5.622   4.902 -0.3625  0.3912  0.1039
 2308WAT     H1 9952   1.818   5.560   4.961  1.1238  1.4889  1.8061
 2308WAT     H2 9953   1.762   5.670   4.900 -0.6663 -0.0490  0.5857
 2308WAT    EPW 9954   1.822   5.620   4.910 -0.1878  0.4883  0.4265
 2309WAT      O 9955   3.802   2.113   4.539  0.3736 -0.2355 -0.1812
 2309WAT     H1 9956   3.867   2.126   4.595 -0.4079  0.6064  0.5699
 2309WAT     H2 9957   3.781   2.030   4.551 -0.3556  0.1401  1.4584
 2309WAT    EPW 9958   3.809   2.103   4.549  0.1505 -0.0556  0.1719
 2310WAT      O 9959   5.188   6.017   0.735 -0.1555 -0.4006  0.0049
 2310WAT     H1 9960   5.111   6.004   0.697  0.3475 -2.0564 -0.5044
 2310WAT     H2 9961   5.173   5.997   0.819 -0.0330 -1.8908 -0.3009
 2310WAT    EPW 9962   5.175   6.012   0.742 -0.0631 -0.8653 -0.1155
 2311WAT      O 9963   4.373   0.394   4.946  0.8252  0.1261  0.4817
 2311WAT     H1 9964   4.412   0.471   4.956  1.1881 -0.0545  0.4726
 2311WAT     H2 9965   4.341   0.397   4.865 -0.4941  0.8620  0.9961
 2311WAT    EPW 9966   4.374   0.406   4.936  0.6839  0.2081  0.5563
 2312WAT      O 9967   5.058   1.113   0.127 -0.2576 -0.2614 -0.6348
 2312WAT     H1 9968   5.119   1.131   0.067  0.1261  1.5659  0.2436
 2312WAT     H2 9969   5.102   1.112   0.202 -1.2120  0.5094 -0.0434
 2312WAT    EPW 9970   5.073   1.115   0.129 -0.3419  0.1224 -0.4177
 2313WAT      O 9971   5.989   2.163   1.352 -0.1368  0.2951 -0.6156
 2313WAT     H1 9972   5.939   2.128   1.414  1.5153 -0.5415  0.3227
 2313WAT     H2 9973   5.959   2.127   1.279  0.0577 -1.3995  0.0849
 2313WAT    EPW 9974   5.977   2.152   1.350  0.1360 -0.0788 -0.3735
 2314WAT      O 9975   4.838   2.175   1.164  0.1003 -0.4942 -0.2910
 2314WAT     H1 9976   4.848   2.131   1.238 -2.5958 -0.9595 -0.0915
 2314WAT     H2 9977   4.830   2.258   1.190  1.6169 -0.3032 -0.3427
 2314WAT    EPW 9978   4.838   2.181   1.178 -0.0739 -0.5347 -0.2692
 2315WAT      O 9979   3.335   4.058   1.726  0.3812 -0.1245 -0.5081
 2315WAT     H1 9980   3.362   3.993   1.675  2.2447  0.7563 -0.7410
 2315WAT     H2 9981   3.299   4.115   1.671  0.2450 -0.2247 -0.5225
 2315WAT    EPW 9982   3.334   4.057   1.711  0.6363 -0.0092 -0.5446
 2316WAT      O 9983   6.924   1.489   5.760  0.2366 -0.3213  0.1896
 2316WAT     H1 9984   6.852   1.440   5.749  0.8190 -0.9242 -1.2422
 2316WAT     H2 9985   6.985   1.431   5.784  0.5955 -0.0850 -0.1299
 2316WAT    EPW 9986   6.922   1.473   5.762  0.3756 -0.3754 -0.0691
 2317WAT      O 9987   6.571   1.803   1.442  0.3719 -0.1152 -0.1803
 2317WAT     H1 9988   6.575   1.850   1.369  0.4449  0.0343 -0.0808
 2317WAT     H2 9989   6.491   1.770   1.441  0.6360 -0.7891 -0.7488
 2317WAT    EPW 9990   6.560   1.805   1.431  0.4217 -0.1927 -0.2496
 2318WAT      O 9991   1.139   4.392   2.809  0.7987 -0.4126 -0.8199
 2318WAT     H1 9992   1.094   4.343   2.865  3.4589 -1.0683  0.9192
 2318WAT     H2 9993   1.206   4.341   2.787  2.0812  1.3742 -1.2902
 2318WAT    EPW 9994   1.142   4.377   2.814  1.3811 -0.2455 -0.6325
 2319WAT      O 9995   6.488   0.646   1.151  0.2077  0.0992  0.4638
 2319WAT     H1 9996   6.516   0.676   1.229  0.0915  1.1069  0.1389
 2319WAT     H2 9997   6.401   0.649   1.159  0.1830  0.9573  0.0449
 2319WAT    EPW 9998   6.479   0.651   1.164  0.1869  0.3748  0.3539
 2320WAT      O 9999   5.365   5.370   2.689 -0.2840 -0.3504 -0.1556
 2320WAT     H110000   5.428   5.372   2.630  0.1668  0.3982  0.3389
 2320WAT     H210001   5.389   5.430   2.748 -1.1068 -0.5301  0.3893
 2320WAT    EPW10002   5.378   5.379   2.689 -0.3390 -0.2664 -0.0020
 2321WAT      O10003   5.180   2.305   0.075 -0.4177  0.7597  0.2664
 2321WAT     H110004   5.099   2.298   0.042 -1.0028  1.2910  1.5207
 2321WAT     H210005   5.222   2.356   0.018 -1.3461  1.5144  0.2381
 2321WAT    EPW10006   5.174   2.311   0.062 -0.6413  0.9497  0.4475
 2322WAT      O10007   0.757   1.089   3.284  0.1750  0.2784  0.1399
 2322WAT     H110008   0.807   1.093   3.355  2.0666  0.7690 -1.1571
 2322WAT     H210009   0.713   1.164   3.285  1.1844  0.8969  0.1394
 2322WAT    EPW10010   0.758   1.100   3.294  0.6035  0.4422 -0.0518
 2323WAT      O10011   1.714   1.781   6.090  0.5083  0.2644  0.4320
 2323WAT     H110012   1.693   1.785   6.175 -0.2829 -0.2049  0.2614
 2323WAT     H210013   1.672   1.849   6.055 -0.5339 -0.5015  0.1433
 2323WAT    EPW10014   1.705   1.792   6.098  0.2374  0.0819  0.3641
 2324WAT      O10015   1.074   1.426   6.144 -0.4810  0.2963  0.0680
 2324WAT     H110016   1.034   1.459   6.073 -1.5956 -1.1391 -0.0228
 2324WAT     H210017   1.043   1.344   6.148  1.1911 -0.3254  1.0073
 2324WAT    EPW10018   1.064   1.419   6.134 -0.3986 -0.0076  0.1933
 2325WAT      O10019   5.181   4.612   4.016  0.2002  0.3702 -0.1861
 2325WAT     H110020   5.137   4.664   3.961 -2.8121 -2.3156 -0.6943
 2325WAT     H210021   5.128   4.605   4.085  1.7231  0.0013  1.0058
 2325WAT    EPW10022   5.167   4.618   4.018 -0.0198 -0.0811 -0.0851
 2326WAT      O10023   5.957   2.600   6.230  0.0777  0.2494 -0.2379
 2326WAT     H110024   5.880   2.559   6.228  0.0665 -0.0300  2.6541
 2326WAT     H210025   5.935   2.684   6.230 -0.0967  0.2227 -1.3850
 2326WAT    EPW10026   5.942   2.606   6.230  0.0503  0.2042  0.0199
 2327WAT      O10027   4.166   1.824   5.347  0.0388  0.3207  0.1304
 2327WAT     H110028   4.148   1.909   5.337  1.1423  0.3448 -2.3547
 2327WAT     H210029   4.120   1.785   5.284  0.4742 -0.7851  0.4784
 2327WAT    EPW10030   4.157   1.831   5.336  0.2661  0.1609 -0.1853
 2328WAT      O10031   0.802   6.661   4.503  0.2694 -0.1075 -0.2605
 2328WAT     H110032   0.812   6.588   4.548 -1.3781 -0.3094 -0.1723
 2328WAT     H210033   0.884   6.685   4.484  0.8588 -1.5419  0.3639
 2328WAT    EPW10034   0.816   6.654   4.507  0.1131 -0.3492 -0.1553
 2329WAT      O10035   3.513   3.236   1.599 -0.0204 -0.1954 -0.2847
 2329WAT     H110036   3.440   3.233   1.645  1.1761 -0.2237  1.7371
 2329WAT     H210037   3.541   3.318   1.611  0.1190 -0.0644 -1.3575
 2329WAT    EPW10038   3.507   3.248   1.607  0.1769 -0.1803 -0.1445
 2330WAT      O10039   4.359   5.584   7.098 -0.2649 -0.2596 -0.1767
 2330WAT     H110040   4.332   5.501   7.092  0.8338 -0.5675 -1.2470
 2330WAT     H210041   4.284   5.630   7.094 -0.8617 -1.1831  0.0818
 2330WAT    EPW10042   4.344   5.579   7.096 -0.1908 -0.4415 -0.2966
 2331WAT      O10043   0.896   6.878   0.067  0.5831  0.2779 -0.2431
 2331WAT     H110044   0.907   6.871  -0.020 -0.8934 -0.7850 -0.3963
 2331WAT     H210045   0.863   6.800   0.089 -3.1851  1.8982  0.5335
 2331WAT    EPW10046   0.893   6.865   0.057 -0.1916  0.3602 -0.1510
 2332WAT      O10047   2.228   1.589   4.824 -0.2762 -0.4459 -0.2628
 2332WAT     H110048   2.154   1.546   4.806  0.5731 -1.4616 -1.5704
 2332WAT     H210049   2.225   1.600   4.910 -2.0284 -0.2805 -0.3098
 2332WAT    EPW10050   2.217   1.584   4.834 -0.4096 -0.5715 -0.4629
 2333WAT      O10051   1.848   2.456   1.046  0.2712 -0.1601 -0.3170
 2333WAT     H110052   1.932   2.464   1.027 -0.3549  2.2526 -2.6266
 2333WAT     H210053   1.836   2.514   1.110  0.2463 -0.1553 -0.3261
 2333WAT    EPW10054   1.858   2.465   1.053  0.1751  0.1970 -0.6595
 2334WAT      O10055   3.130   7.192   2.899  0.2379 -0.1509 -0.1122
 2334WAT     H110056   3.101   7.252   2.955 -2.2187 -1.4200  0.1428
 2334WAT     H210057   3.138   7.235   2.824  0.5027  0.9184  0.5159
 2334WAT    EPW10058   3.127   7.207   2.896 -0.0859 -0.1804  0.0182
 2335WAT      O10059   4.421   2.003   0.002 -0.2897  0.1173  0.2715
 2335WAT     H110060   4.385   2.082   0.003 -3.1305 -0.9368  3.4277
 2335WAT     H210061   4.505   2.019  -0.015 -0.9202  3.6356 -0.3625
 2335WAT    EPW10062   4.428   2.017   0.000 -0.8025  0.4813  0.6441
 2336WAT      O10063   5.048   0.631   2.971 -0.0212  0.2084  0.3230
 2336WAT     H110064   5.041   0.549   3.001 -0.0545  0.2560  0.4424
 2336WAT     H210065   5.126   0.631   2.931 -0.5325 -0.2212 -0.7035
 2336WAT    EPW10066   5.059   0.619   2.969 -0.1017  0.1519  0.1890
 2337WAT      O10067   2.387   6.451   2.960 -0.5630  0.4566 -0.0660
 2337WAT     H110068   2.405   6.365   2.962  0.2635  0.6228  0.1904
 2337WAT     H210069   2.363   6.465   2.878 -0.2995  0.0476 -0.2198
 2337WAT    EPW10070   2.386   6.440   2.948 -0.4020  0.4208 -0.0509
 2338WAT      O10071   2.426   2.761   3.537  0.0415 -0.1894  0.5350
 2338WAT     H110072   2.512   2.758   3.552  0.0941  0.1290  0.3039
 2338WAT     H210073   2.407   2.678   3.518  0.8135  0.1477 -2.1255
 2338WAT    EPW10074   2.436   2.748   3.536  0.1633 -0.0926  0.1078
 2339WAT      O10075   4.596   0.477   3.762  0.2812 -0.3065 -0.0748
 2339WAT     H110076   4.554   0.543   3.801  0.9485 -0.3225  0.7108
 2339WAT     H210077   4.600   0.501   3.679  1.3693  1.1315  0.3475
 2339WAT    EPW10078   4.591   0.491   3.756  0.5405 -0.0965  0.1037
 2340WAT      O10079   5.298   4.993   5.394  0.4273 -0.1484 -0.4150
 2340WAT     H110080   5.271   5.071   5.423 -0.7827  0.0696 -1.9919
 2340WAT     H210081   5.384   5.005   5.381  0.3031  0.8509 -0.4081
 2340WAT    EPW10082   5.307   5.007   5.396  0.2302  0.0314 -0.6469
 2341WAT      O10083   3.867   5.232   6.471 -0.6169  0.0028  0.2337
 2341WAT     H110084   3.817   5.249   6.400 -2.4697 -1.4833  1.1061
 2341WAT     H210085   3.815   5.185   6.522  0.9320  0.3961  2.3046
 2341WAT    EPW10086   3.852   5.228   6.468 -0.6618 -0.1587  0.6685
 2342WAT      O10087   5.782   6.561   1.641  0.4329 -0.2128 -0.2582
 2342WAT     H110088   5.856   6.599   1.615  0.7333 -0.5031  0.1571
 2342WAT     H210089   5.783   6.484   1.600  0.6097 -0.4242  0.1449
 2342WAT    EPW10090   5.793   6.555   1.631  0.5034 -0.2869 -0.1373
 2343WAT      O10091   4.921   2.904   4.803 -1.0458  0.3442 -0.4599
 2343WAT     H110092   4.857   2.854   4.836  0.2607 -0.4407  1.0327
 2343WAT     H210093   4.958   2.938   4.874  1.1968 -0.4938 -1.1451
 2343WAT    EPW10094   4.917   2.902   4.819 -0.5215  0.1045 -0.3407
 2344WAT      O10095   3.898   0.612   3.857  0.3536 -0.0253 -0.5054
 2344WAT     H110096   3.929   0.662   3.793  0.3547  0.9530  0.2352
 2344WAT     H210097   3.917   0.657   3.930 -1.7581  0.0692  0.0621
 2344WAT    EPW10098   3.905   0.626   3.859  0.0418  0.1331 -0.3122
 2345WAT      O10099   4.455   5.699   4.133 -0.4710  0.8771 -0.3581
 2345WAT     H110100   4.406   5.728   4.199 -1.5656  1.2585 -1.3032
 2345WAT     H210101   4.496   5.771   4.104 -0.0124  0.7150 -0.1268
 2345WAT    EPW10102   4.454   5.714   4.139 -0.5649  0.9095 -0.4635
 2346WAT      O10103   2.052   2.826   4.352  0.2126 -0.0374 -0.3769
 2346WAT     H110104   2.100   2.897   4.339 -0.9320  0.6389 -1.1567
 2346WAT     H210105   2.015   2.812   4.274 -0.8251 -0.5321  0.1777
 2346WAT    EPW10106   2.053   2.834   4.339 -0.1098 -0.0106 -0.4102
 2347WAT      O10107   4.211   0.785   6.118 -0.1315 -0.4403  0.1311
 2347WAT     H110108   4.132   0.764   6.088  0.0605  0.4679 -1.1128
 2347WAT     H210109   4.217   0.871   6.101  1.3901 -0.6370 -0.5015
 2347WAT    EPW10110   4.200   0.795   6.111  0.1216 -0.3352 -0.1461
 2348WAT      O10111   1.843   1.990   7.364 -0.1226  0.1558 -0.1517
 2348WAT     H110112   1.875   1.956   7.291  1.5990  0.4172  0.4422
 2348WAT     H210113   1.770   1.944   7.379  1.0902 -1.9298 -0.4107
 2348WAT    EPW10114   1.837   1.978   7.356  0.3109 -0.1137 -0.1022
 2349WAT      O10115   5.586   1.099   6.179 -0.0622  0.2760 -0.9448
 2349WAT     H110116   5.591   1.070   6.096  0.0854 -2.0567 -0.1853
 2349WAT     H210117   5.563   1.028   6.224  0.2119  1.4169  1.0909
 2349WAT    EPW10118   5.583   1.084   6.173  0.0001  0.0999 -0.5319
 2350WAT      O10119   1.185   5.898   0.520 -0.1524  0.0411 -0.3123
 2350WAT     H110120   1.152   5.847   0.583  0.6545 -1.5875 -1.1280
 2350WAT     H210121   1.122   5.897   0.459 -0.8558  1.4678  0.3419
 2350WAT    EPW10122   1.171   5.890   0.520 -0.1371  0.0112 -0.3362
 2351WAT      O10123   3.810   1.014   3.734  0.1381  0.2454  0.8617
 2351WAT     H110124   3.863   0.946   3.720 -0.5122 -0.2502  0.7789
 2351WAT     H210125   3.734   0.977   3.756 -0.0846  0.9536  1.3254
 2351WAT    EPW10126   3.807   0.999   3.735  0.0091  0.2768  0.9180
 2352WAT      O10127   5.239   0.038   3.696 -0.0342  0.1681  0.2744
 2352WAT     H110128   5.320   0.069   3.689  0.5571 -1.3897 -0.2442
 2352WAT     H210129   5.241  -0.010   3.768 -0.9138  1.2263  1.0371
 2352WAT    EPW10130   5.251   0.036   3.705 -0.0768  0.0943  0.3104
 2353WAT      O10131   1.579   1.681   1.426 -0.0637  0.2176 -0.4291
 2353WAT     H110132   1.509   1.732   1.416  0.8644  1.2688 -2.1881
 2353WAT     H210133   1.635   1.731   1.472  0.0723 -0.0510 -0.2970
 2353WAT    EPW10134   1.577   1.696   1.431  0.0935  0.3332 -0.6694
 2354WAT      O10135   3.647   1.583   5.401 -0.1207  0.8171 -0.4550
 2354WAT     H110136   3.580   1.580   5.345 -0.9900 -2.3161  0.5232
 2354WAT     H210137   3.622   1.641   5.461 -1.2153  0.8852 -0.9653
 2354WAT    EPW10138   3.633   1.591   5.402 -0.4108  0.3643 -0.3859
 2355WAT      O10139   3.901   5.634   3.499  0.1896 -0.5834  0.0397
 2355WAT     H110140   3.947   5.684   3.554  1.2633 -1.4727 -0.0217
 2355WAT     H210141   3.948   5.636   3.426 -0.4919 -0.5603 -0.4049
 2355WAT    EPW10142   3.914   5.642   3.497  0.2475 -0.7114 -0.0350
 2356WAT      O10143   1.749   3.608   0.715 -0.3029  0.1232  0.4425
 2356WAT     H110144   1.796   3.594   0.643 -1.2448  0.0520 -0.1712
 2356WAT     H210145   1.806   3.592   0.779 -0.0299 -2.0238 -0.2431
 2356WAT    EPW10146   1.765   3.603   0.714 -0.4017 -0.2045  0.2505
 2357WAT      O10147   6.511   4.900   5.870  0.3305  0.2983 -0.0214
 2357WAT     H110148   6.578   4.887   5.925 -0.3563 -1.5172  0.4747
 2357WAT     H210149   6.445   4.920   5.923  0.5101  2.5863 -0.5396
 2357WAT    EPW10150   6.511   4.901   5.886  0.2556  0.3681 -0.0247
 2358WAT      O10151   5.890   1.693   0.160  0.5157  0.2066 -0.1663
 2358WAT     H110152   5.821   1.640   0.167 -0.6452  1.6095 -0.4419
 2358WAT     H210153   5.906   1.716   0.242  0.5392  0.0197 -0.1177
 2358WAT    EPW10154   5.882   1.688   0.173  0.3477  0.3862 -0.1998
 2359WAT      O10155   1.923   4.926   0.192  0.4842 -0.1760 -0.2319
 2359WAT     H110156   1.985   4.896   0.246 -1.1691 -1.8144  0.8828
 2359WAT     H210157   1.953   5.005   0.168  2.5025 -0.4865  1.0257
 2359WAT    EPW10158   1.936   4.933   0.196  0.5381 -0.4639  0.1185
 2360WAT      O10159   2.404   4.948   1.147 -0.1895 -0.2683  0.5060
 2360WAT     H110160   2.339   5.001   1.122  0.2230  0.7087  1.4633
 2360WAT     H210161   2.371   4.908   1.217 -0.4696 -1.2535 -0.1645
 2360WAT    EPW10162   2.389   4.950   1.153 -0.1700 -0.2695  0.5484
 2361WAT      O10163   1.914   1.372   1.362  0.3811 -0.2919  0.0231
 2361WAT     H110164   1.982   1.424   1.345  0.1661  0.5916  1.5816
 2361WAT     H210165   1.859   1.387   1.296  0.2851  1.5961  0.4727
 2361WAT    EPW10166   1.916   1.382   1.350  0.3351  0.1175  0.3197
 2362WAT      O10167   6.505   5.427   4.665 -0.2387  0.6310  0.6562
 2362WAT     H110168   6.569   5.368   4.676 -2.1279 -1.3249  1.8739
 2362WAT     H210169   6.487   5.421   4.580  0.7449  0.7377  0.4295
 2362WAT    EPW10170   6.512   5.417   4.654 -0.3725  0.3578  0.8026
 2363WAT      O10171   4.850   0.965   1.998  0.1703 -0.5329 -0.0484
 2363WAT     H110172   4.917   0.916   1.973  0.6822 -1.0121  2.1117
 2363WAT     H210173   4.885   1.024   2.051 -0.7269  1.0480 -1.1164
 2363WAT    EPW10174   4.865   0.966   2.002  0.1134 -0.3702  0.1130
 2364WAT      O10175   6.177   0.237   5.697  0.1216  0.1557 -0.4261
 2364WAT     H110176   6.139   0.167   5.731 -0.1112  0.6269  0.3155
 2364WAT     H210177   6.262   0.221   5.706  0.0691 -0.0599 -0.3075
 2364WAT    EPW10178   6.184   0.224   5.704  0.0795  0.1935 -0.2991
 2365WAT      O10179   6.854   3.680   3.107 -0.0476 -0.0888  0.1528
 2365WAT     H110180   6.906   3.612   3.094 -0.0895  0.0753 -0.9510
 2365WAT     H210181   6.909   3.745   3.126  0.1176 -0.0505 -0.4403
 2365WAT    EPW10182   6.870   3.680   3.108 -0.0294 -0.0589 -0.0979
 2366WAT      O10183   5.684   3.015   4.133  0.4060  0.0643  0.4507
 2366WAT     H110184   5.703   2.960   4.068  2.9701  0.8563  0.4223
 2366WAT     H210185   5.651   3.084   4.091 -0.6559 -0.5232  0.2851
 2366WAT    EPW10186   5.682   3.017   4.117  0.6279  0.0945  0.4221
 2367WAT      O10187   0.757   1.547   5.086 -0.1192 -0.3077  0.3308
 2367WAT     H110188   0.781   1.626   5.114 -0.3774 -0.3286  0.6153
 2367WAT     H210189   0.670   1.550   5.090 -0.1222 -1.2776  2.2401
 2367WAT    EPW10190   0.748   1.560   5.091 -0.1578 -0.4541  0.6549
 2368WAT      O10191   0.546   5.844   0.716  0.1223 -0.7403 -0.0220
 2368WAT     H110192   0.523   5.923   0.746  1.5070  0.0229 -0.9106
 2368WAT     H210193   0.523   5.846   0.632  1.6854 -0.6344 -0.4735
 2368WAT    EPW10194   0.539   5.856   0.708  0.5577 -0.6119 -0.2199
 2369WAT      O10195   2.936   2.808   1.144  0.3206 -0.1694 -0.2107
 2369WAT     H110196   3.009   2.828   1.100  1.2986  0.4663  1.5805
 2369WAT     H210197   2.962   2.745   1.198 -1.3597 -2.4251 -1.8694
 2369WAT    EPW10198   2.951   2.802   1.146  0.2169 -0.4087 -0.1911
 2370WAT      O10199   0.223   1.666   3.605 -0.1829  0.4637 -0.0386
 2370WAT     H110200   0.137   1.674   3.594 -0.3732  0.4714  1.3232
 2370WAT     H210201   0.251   1.749   3.609  0.3041  0.5643 -3.0021
 2370WAT    EPW10202   0.214   1.679   3.604 -0.1391  0.4797 -0.2752
 2371WAT      O10203   5.836   3.379   2.420  0.1842 -0.4907 -0.7612
 2371WAT     H110204   5.888   3.449   2.427 -0.0342 -0.2413 -1.4806
 2371WAT     H210205   5.847   3.337   2.496  0.4890  0.2072 -0.4075
 2371WAT    EPW10206   5.845   3.383   2.432  0.1970 -0.3507 -0.8152
 2372WAT      O10207   6.316   5.486   0.952 -0.6136  0.2148 -0.4987
 2372WAT     H110208   6.337   5.440   1.023 -0.6435 -2.1693 -1.9168
 2372WAT     H210209   6.302   5.566   0.982  2.1216 -0.0275  1.7687
 2372WAT    EPW10210   6.317   5.491   0.967 -0.2140 -0.1732 -0.3732
 2373WAT      O10211   0.509   3.626   3.003  0.2769  0.4834  0.0004
 2373WAT     H110212   0.454   3.693   2.994  1.9044  1.7502 -1.1545
 2373WAT     H210213   0.582   3.654   2.965  0.7298 -2.3654 -1.5623
 2373WAT    EPW10214   0.512   3.640   2.996  0.5842  0.2497 -0.4011
 2374WAT      O10215   0.514   2.415   2.061  0.2991  0.4826 -0.1107
 2374WAT     H110216   0.491   2.480   2.114  0.1185  0.2995  0.0371
 2374WAT     H210217   0.537   2.351   2.117 -1.2530 -0.2100 -0.2302
 2374WAT    EPW10218   0.514   2.415   2.077  0.0431  0.3533 -0.1065
 2375WAT      O10219   3.120   0.380   6.229 -0.6223 -0.5886 -0.0555
 2375WAT     H110220   3.164   0.305   6.238 -0.7505 -0.5162  1.4787
 2375WAT     H210221   3.183   0.438   6.215 -0.0603 -0.4129  2.5731
 2375WAT    EPW10222   3.136   0.377   6.228 -0.5582 -0.5519  0.5594
 2376WAT      O10223   0.384   5.005   5.887 -0.3317  0.4003 -0.4471
 2376WAT     H110224   0.465   5.013   5.918 -0.1559 -1.2628 -0.3932
 2376WAT     H210225   0.340   4.970   5.954 -0.6278 -0.4771 -1.0742
 2376WAT    EPW10226   0.389   5.001   5.902 -0.3495  0.0250 -0.5318
 2377WAT      O10227   5.106   0.869   3.697 -0.8984 -0.9553  0.1575
 2377WAT     H110228   5.122   0.828   3.772 -1.6695  0.1563  0.9528
 2377WAT     H210229   5.020   0.859   3.686 -0.9101 -0.5040 -0.2038
 2377WAT    EPW10230   5.095   0.862   3.706 -1.0141 -0.7244  0.2216
 2378WAT      O10231   4.163   2.115   4.472  0.1385 -0.1102 -0.1704
 2378WAT     H110232   4.244   2.112   4.503  0.1019  1.3255  0.1239
 2378WAT     H210233   4.126   2.044   4.506  0.5490  0.5665  1.8475
 2378WAT    EPW10234   4.169   2.104   4.482  0.1938  0.2018  0.1712
 2379WAT      O10235   5.582   3.378   4.323 -0.5703  0.2166  0.3185
 2379WAT     H110236   5.586   3.336   4.246 -1.9096 -0.1798  0.4377
 2379WAT     H210237   5.666   3.392   4.343 -0.1958  0.7450 -1.4300
 2379WAT    EPW10238   5.595   3.374   4.315 -0.7128  0.2361  0.0778
 2380WAT      O10239   6.562   2.853   7.095 -0.3042 -0.0853  0.1724
 2380WAT     H110240   6.576   2.931   7.057 -2.5346  0.8257  1.0900
 2380WAT     H210241   6.565   2.871   7.180 -1.1047 -0.9688  0.3966
 2380WAT    EPW10242   6.565   2.868   7.102 -0.7519 -0.0812  0.3411
 2381WAT      O10243   5.063   5.076   0.670 -0.6321 -0.5132  0.1617
 2381WAT     H110244   5.119   5.111   0.613  0.8843 -1.9606  0.6623
 2381WAT     H210245   5.021   5.015   0.622 -0.0809 -1.0349  0.3320
 2381WAT    EPW10246   5.065   5.072   0.654 -0.3267 -0.8041  0.2608
 2382WAT      O10247   4.615   5.972   3.594  0.0834  0.0083 -0.0575
 2382WAT     H110248   4.654   5.894   3.590  0.5746  0.2703 -0.4280
 2382WAT     H210249   4.536   5.954   3.626 -1.0614 -1.0834 -3.2073
 2382WAT    EPW10250   4.609   5.958   3.598 -0.0131 -0.1143 -0.5775
 2383WAT      O10251   4.322   4.851   2.520  0.3485 -0.4654 -0.0614
 2383WAT     H110252   4.295   4.877   2.599  0.7394  0.3445 -0.1905
 2383WAT     H210253   4.324   4.924   2.473 -0.0177 -0.9577 -0.8797
 2383WAT    EPW10254   4.318   4.865   2.525  0.3521 -0.4185 -0.2014
 2384WAT      O10255   4.436   0.957   7.298 -0.2984  0.1239 -0.6075
 2384WAT     H110256   4.396   0.891   7.257  0.6429 -1.0597  0.2770
 2384WAT     H210257   4.519   0.931   7.303 -0.0112  1.1221  0.2669
 2384WAT    EPW10258   4.442   0.943   7.293 -0.1169  0.0966 -0.3477
 2385WAT      O10259   5.876   1.837   3.449 -0.3433  0.1525 -0.5289
 2385WAT     H110260   5.798   1.870   3.430 -1.6365 -2.2722  0.1639
 2385WAT     H210261   5.895   1.786   3.380  0.1344 -0.0808 -0.2363
 2385WAT    EPW10262   5.868   1.834   3.436 -0.4638 -0.2402 -0.3833
 2386WAT      O10263   2.972   6.647   1.922 -0.2899 -0.8166 -0.5967
 2386WAT     H110264   2.960   6.570   1.883 -0.3802 -1.7910  1.2110
 2386WAT     H210265   2.895   6.687   1.914 -0.3266 -1.0224 -1.3061
 2386WAT    EPW10266   2.959   6.642   1.915 -0.3087 -0.9909 -0.4345
 2387WAT      O10267   1.076   6.127   6.373  0.0115  0.1097 -0.2193
 2387WAT     H110268   1.022   6.061   6.389 -0.0528 -0.1720 -1.4988
 2387WAT     H210269   1.155   6.090   6.370  0.2397  0.4385  1.1292
 2387WAT    EPW10270   1.080   6.112   6.375  0.0357  0.1167 -0.2091
 2388WAT      O10271   2.741   0.780   3.128 -0.5301 -0.5572  0.2124
 2388WAT     H110272   2.820   0.760   3.160  0.0838  1.4724  0.0957
 2388WAT     H210273   2.734   0.865   3.142 -2.4242 -0.5545 -0.4421
 2388WAT    EPW10274   2.752   0.789   3.135 -0.7192 -0.2570  0.0985
 2389WAT      O10275   4.967   2.292   3.075  0.0030  0.6810  0.2046
 2389WAT     H110276   4.962   2.352   3.138 -1.1800 -0.5468  1.3820
 2389WAT     H210277   5.052   2.272   3.072  0.5352  2.8522 -0.7167
 2389WAT    EPW10278   4.979   2.298   3.084 -0.0932  0.8204  0.2424
 2390WAT      O10279   5.170   0.036   4.524  0.6004 -0.2034  0.6906
 2390WAT     H110280   5.174   0.103   4.468  0.1524 -0.7852 -0.0557
 2390WAT     H210281   5.222   0.061   4.590 -0.4263  1.3668  0.9629
 2390WAT    EPW10282   5.178   0.050   4.526  0.3825 -0.0574  0.6206
 2391WAT      O10283   1.044   3.613   1.412 -0.4254 -0.1966  0.2762
 2391WAT     H110284   0.998   3.541   1.432 -2.9074  1.0297 -0.6624
 2391WAT     H210285   0.995   3.653   1.353  1.1318  2.0545  0.3876
 2391WAT    EPW10286   1.030   3.608   1.407 -0.5620  0.3171  0.1540
 2392WAT      O10287   0.457   4.777   7.377  0.2035  0.9517  0.1918
 2392WAT     H110288   0.446   4.759   7.462  0.2158 -1.2060 -0.1975
 2392WAT     H210289   0.518   4.838   7.377 -0.4979  1.7222  1.7660
 2392WAT    EPW10290   0.464   4.783   7.390  0.1017  0.7468  0.3668
 2393WAT      O10291   2.996   5.374   3.340  0.0113  0.2254  0.5277
 2393WAT     H110292   3.064   5.383   3.394 -0.3119  0.1769  0.9541
 2393WAT     H210293   2.959   5.300   3.367  0.0125  0.0515  0.0469
 2393WAT    EPW10294   3.000   5.365   3.352 -0.0363  0.1925  0.5197
 2394WAT      O10295   1.669   5.453   5.714  0.1218  0.5027 -0.1607
 2394WAT     H110296   1.735   5.509   5.721 -0.6889  1.5312 -0.4247
 2394WAT     H210297   1.707   5.375   5.719  1.1125  1.0514  1.8222
 2394WAT    EPW10298   1.684   5.450   5.716  0.1484  0.7357  0.0932
 2395WAT      O10299   1.195   4.416   1.915 -0.7372  1.2825  0.1474
 2395WAT     H110300   1.236   4.492   1.907  0.5109  0.5402 -0.7387
 2395WAT     H210301   1.222   4.386   1.992 -0.3716  1.2508  0.0094
 2395WAT    EPW10302   1.205   4.422   1.925 -0.4988  1.1681 -0.0039
 2396WAT      O10303   2.137   2.448   4.687  0.3495  0.0676 -0.1670
 2396WAT     H110304   2.177   2.375   4.661  1.0309  0.8869 -1.5193
 2396WAT     H210305   2.135   2.497   4.615  1.2963  1.9923  1.0363
 2396WAT    EPW10306   2.143   2.444   4.673  0.5900  0.4730 -0.1890
 2397WAT      O10307   5.764   0.042   2.145  0.6439 -0.4659 -0.4177
 2397WAT     H110308   5.752   0.074   2.225  0.5761 -2.1415  0.2961
 2397WAT     H210309   5.815  -0.028   2.158 -0.9066 -1.9154 -1.5327
 2397WAT    EPW10310   5.770   0.036   2.159  0.4049 -0.9276 -0.4769
 2398WAT      O10311   4.807   5.960   4.591 -0.2711 -0.7515 -0.4909
 2398WAT     H110312   4.887   5.993   4.597 -0.0061 -1.3502 -0.6706
 2398WAT     H210313   4.760   6.010   4.645  0.6095 -1.5890  1.1184
 2398WAT    EPW10314   4.812   5.973   4.599 -0.1019 -0.9637 -0.2797
 2399WAT      O10315   5.543   4.263   5.386  0.0726 -0.2076  0.4418
 2399WAT     H110316   5.477   4.246   5.441  0.1970  0.4982  0.8274
 2399WAT     H210317   5.506   4.257   5.307 -0.3080 -0.4185  0.6347
 2399WAT    EPW10318   5.528   4.260   5.382  0.0347 -0.1345  0.5272
 2400WAT      O10319   5.049   0.294   3.360  0.0754 -0.0330  0.3278
 2400WAT     H110320   5.076   0.217   3.391  0.6879 -0.1838 -0.5695
 2400WAT     H210321   5.079   0.351   3.420  1.6179 -0.2854 -0.1518
 2400WAT    EPW10322   5.058   0.291   3.374  0.3938 -0.0926  0.1244
 2401WAT      O10323   0.271   0.696   4.131  0.1070 -0.2246 -0.3195
 2401WAT     H110324   0.265   0.621   4.176 -0.6760 -1.6148 -2.5439
 2401WAT     H210325   0.191   0.707   4.099  0.3391  1.3489 -0.4326
 2401WAT    EPW10326   0.258   0.686   4.133  0.0256 -0.1975 -0.6648
 2402WAT      O10327   7.151   0.299   4.367 -0.1177  0.5391  0.1175
 2402WAT     H110328   7.102   0.317   4.297 -0.9387 -0.4935  0.4046
 2402WAT     H210329   7.212   0.245   4.336 -0.2068  0.4421  0.1127
 2402WAT    EPW10330   7.152   0.294   4.352 -0.2521  0.3722  0.1592
 2403WAT      O10331   5.336   3.533   6.367  0.0777  0.7156 -0.5675
 2403WAT     H110332   5.250   3.522   6.358  0.1713  0.8285 -1.7889
 2403WAT     H210333   5.370   3.473   6.314  0.6750  2.4561 -2.3238
 2403WAT    EPW10334   5.328   3.523   6.358  0.1798  0.9894 -1.0073
 2404WAT      O10335   1.868   5.674   2.595  0.1639  0.3828  0.0113
 2404WAT     H110336   1.938   5.634   2.628  1.1779  0.7448 -1.5851
 2404WAT     H210337   1.903   5.734   2.541 -1.3708  1.2127 -0.1025
 2404WAT    EPW10338   1.884   5.677   2.592  0.0870  0.5589 -0.2413
 2405WAT      O10339   0.415   5.680   3.872 -0.0139  0.2229 -0.2558
 2405WAT     H110340   0.499   5.659   3.882 -0.3182 -1.0207 -0.1616
 2405WAT     H210341   0.377   5.649   3.944 -0.8827 -1.1477 -1.2703
 2405WAT    EPW10342   0.422   5.673   3.884 -0.1872 -0.1633 -0.3917
 2406WAT      O10343   3.646   1.306   6.452 -0.5712  0.3949  0.2913
 2406WAT     H110344   3.582   1.319   6.395  0.1428 -2.7819 -1.4734
 2406WAT     H210345   3.709   1.360   6.426 -0.9915  0.4243 -0.6716
 2406WAT    EPW10346   3.646   1.316   6.440 -0.5278 -0.0700 -0.1116
 2407WAT      O10347   3.803   6.568   0.151 -0.3817  0.1521  0.3054
 2407WAT     H110348   3.801   6.603   0.230  1.5463  0.0195  0.4718
 2407WAT     H210349   3.839   6.489   0.164 -0.4680 -0.0636 -0.6352
 2407WAT    EPW10350   3.808   6.561   0.165 -0.1097  0.1006  0.1910
 2408WAT      O10351   6.013   4.089   4.890  0.4670 -0.6602 -0.5219
 2408WAT     H110352   5.955   4.138   4.847 -0.1424 -2.3347 -1.7053
 2408WAT     H210353   6.049   4.041   4.827  0.1423 -2.6379  0.7256
 2408WAT    EPW10354   6.010   4.089   4.874  0.3290 -1.1997 -0.5125
 2409WAT      O10355   4.436   3.209   4.213 -0.2227  0.8023  0.7022
 2409WAT     H110356   4.439   3.267   4.278 -2.5027  0.0510  1.5710
 2409WAT     H210357   4.365   3.161   4.231  0.8519 -1.4773 -0.6318
 2409WAT    EPW10358   4.426   3.211   4.226 -0.4007  0.3546  0.6335
 2410WAT      O10359   2.945   5.005   7.412  0.1764 -0.4612 -0.3145
 2410WAT     H110360   3.031   5.018   7.417  0.3248 -1.6853  1.1112
 2410WAT     H210361   2.911   5.069   7.460  0.2471  0.2530 -1.1967
 2410WAT    EPW10362   2.953   5.016   7.420  0.2087 -0.5365 -0.2342
 2411WAT      O10363   6.081   5.168   2.671  0.7261  0.0896 -0.0158
 2411WAT     H110364   6.087   5.254   2.683 -0.2216  0.3704 -1.3158
 2411WAT     H210365   6.015   5.144   2.722  1.8843 -0.1420  1.4378
 2411WAT    EPW10366   6.072   5.177   2.680  0.7572  0.0969  0.0069
 2412WAT      O10367   2.823   1.189   3.334  0.3263  0.1067 -0.6059
 2412WAT     H110368   2.878   1.256   3.327  2.4087 -1.5337 -0.6842
 2412WAT     H210369   2.791   1.197   3.415  3.0511 -0.5791  0.6272
 2412WAT    EPW10370   2.826   1.200   3.345  1.0364 -0.2369 -0.4353
 2413WAT      O10371   5.285   4.932   1.098  0.8736  0.6881  0.3477
 2413WAT     H110372   5.245   4.980   1.037 -1.3710  0.2330  1.3617
 2413WAT     H210373   5.253   4.962   1.173 -0.3848 -2.0893  1.0519
 2413WAT    EPW10374   5.275   4.944   1.100  0.3562  0.2106  0.6015
 2414WAT      O10375   1.273   1.323   1.008  0.0386  0.4704  0.6285
 2414WAT     H110376   1.356   1.325   0.983  0.6628 -0.7900  2.3679
 2414WAT     H210377   1.278   1.310   1.095 -1.9642  1.1846  0.9025
 2414WAT    EPW10378   1.286   1.321   1.017 -0.1651  0.3897  0.9259
 2415WAT      O10379   5.587   2.791   5.178 -0.3411 -0.2273 -0.7331
 2415WAT     H110380   5.604   2.871   5.209  0.5005 -0.9813  0.8194
 2415WAT     H210381   5.502   2.781   5.193 -0.0203 -0.4577  1.1675
 2415WAT    EPW10382   5.577   2.802   5.185 -0.1694 -0.3728 -0.2230
 2416WAT      O10383   1.791   1.348   2.503  0.0091  0.4479 -0.1787
 2416WAT     H110384   1.755   1.330   2.581 -1.6597 -0.3437 -1.0612
 2416WAT     H210385   1.875   1.359   2.521  0.1065 -2.0117  1.4641
 2416WAT    EPW10386   1.798   1.347   2.518 -0.2230 -0.0324 -0.0664
 2417WAT      O10387   2.093   4.598   2.947  0.2637 -0.4861  0.1603
 2417WAT     H110388   2.166   4.643   2.933  0.4427 -0.9225 -0.3649
 2417WAT     H210389   2.076   4.610   3.031  0.9709 -0.4237  0.2945
 2417WAT    EPW10390   2.101   4.607   2.957  0.3946 -0.5413  0.1025
 2418WAT      O10391   5.702   6.066   5.897  0.1193 -0.4652 -0.1114
 2418WAT     H110392   5.666   6.019   5.961  0.6007 -0.2610  0.3166
 2418WAT     H210393   5.661   6.143   5.902  1.3317  0.1320  1.0708
 2418WAT    EPW10394   5.690   6.070   5.907  0.3695 -0.3468  0.1264
 2419WAT      O10395   5.680   3.023   4.635  0.2018 -0.7002  0.5226
 2419WAT     H110396   5.663   3.021   4.720  0.4106 -0.5624  0.5678
 2419WAT     H210397   5.627   3.086   4.606  0.4328 -0.4586  0.6198
 2419WAT    EPW10398   5.670   3.032   4.643  0.2668 -0.6441  0.5436
 2420WAT      O10399   1.231   2.813   6.151 -0.0194  0.1852 -0.5348
 2420WAT     H110400   1.280   2.741   6.160 -0.2582 -0.1338 -1.6332
 2420WAT     H210401   1.156   2.793   6.191  0.7469  0.7069  1.2295
 2420WAT    EPW10402   1.227   2.800   6.158  0.0585  0.2151 -0.4365
 2421WAT      O10403   3.701   6.209   6.444  0.0088  0.6099  0.1204
 2421WAT     H110404   3.769   6.237   6.491 -1.0153  0.2881  1.8849
 2421WAT     H210405   3.735   6.198   6.364  1.9462  0.7496  0.8590
 2421WAT    EPW10406   3.716   6.211   6.439  0.1437  0.5830  0.4902
 2422WAT      O10407   2.279   3.768   1.556 -0.0281 -0.4246 -0.4026
 2422WAT     H110408   2.207   3.818   1.561  0.3901  0.1609 -0.0752
 2422WAT     H210409   2.287   3.736   1.637  0.2683 -0.2096 -0.3445
 2422WAT    EPW10410   2.270   3.771   1.569  0.0774 -0.3063 -0.3457
 2423WAT      O10411   4.264   0.630   3.907 -0.0948  0.3358 -0.6283
 2423WAT     H110412   4.202   0.684   3.935 -0.6057  0.3546 -1.7308
 2423WAT     H210413   4.337   0.675   3.917 -0.2676  0.3879  0.5131
 2423WAT    EPW10414   4.265   0.644   3.913 -0.1958  0.3463 -0.6226
 2424WAT      O10415   6.848   5.401   5.215 -0.0689  0.0987 -0.0584
 2424WAT     H110416   6.810   5.406   5.136  0.6757 -1.4428 -0.5597
 2424WAT     H210417   6.783   5.420   5.270 -0.9687 -0.1708 -0.9956
 2424WAT    EPW10418   6.833   5.405   5.211 -0.0919 -0.1689 -0.2709
 2425WAT      O10419   4.963   5.949   6.519  0.2363  0.5262 -0.1488
 2425WAT     H110420   4.946   5.864   6.531  0.2386  0.7955  2.5526
 2425WAT     H210421   4.891   5.980   6.482 -0.6735 -0.3064  0.8519
 2425WAT    EPW10422   4.950   5.941   6.516  0.1022  0.4430  0.3981
 2426WAT      O10423   5.631   0.856   2.532 -0.2461  0.2430 -0.0533
 2426WAT     H110424   5.642   0.776   2.498  0.0078  0.5646 -0.7215
 2426WAT     H210425   5.553   0.850   2.572 -0.2177 -0.3438 -0.0763
 2426WAT    EPW10426   5.621   0.843   2.533 -0.2044  0.2038 -0.1554
 2427WAT      O10427   0.094   4.072   3.988 -0.0125  0.0083  0.4815
 2427WAT     H110428   0.062   3.991   3.975  0.1796 -0.0441  0.3330
 2427WAT     H210429   0.176   4.058   4.012 -0.1716  0.1328  1.1397
 2427WAT    EPW10430   0.101   4.058   3.990 -0.0076  0.0189  0.5568
 2428WAT      O10431   4.520   4.125   5.867 -0.0118  0.1288  0.3737
 2428WAT     H110432   4.466   4.181   5.905  1.3197  1.4034  0.4924
 2428WAT     H210433   4.580   4.109   5.929 -0.5253 -1.7205  0.4600
 2428WAT    EPW10434   4.521   4.131   5.882  0.1090  0.0439  0.4040
 2429WAT      O10435   3.669   0.275   3.221 -0.4528  0.4731 -0.4678
 2429WAT     H110436   3.746   0.306   3.196 -0.3445  0.6765  0.0941
 2429WAT     H210437   3.632   0.343   3.262 -1.3758  0.7116 -1.6271
 2429WAT    EPW10438   3.675   0.290   3.223 -0.5731  0.5384 -0.5561
 2430WAT      O10439   3.852   0.764   1.677  0.3420  0.0588  0.4060
 2430WAT     H110440   3.780   0.786   1.632  0.6705  0.0348 -0.1302
 2430WAT     H210441   3.875   0.688   1.643 -0.6888 -1.1006  2.1451
 2430WAT    EPW10442   3.844   0.756   1.666  0.2382 -0.1160  0.5837
 2431WAT      O10443   5.408   0.293   7.253 -0.4610  0.3560 -0.2923
 2431WAT     H110444   5.492   0.317   7.243  0.4056 -1.7044  1.4262
 2431WAT     H210445   5.370   0.366   7.281  1.1449  0.9053  0.5934
 2431WAT    EPW10446   5.415   0.308   7.255 -0.0957  0.1328  0.0924
 2432WAT      O10447   4.206   3.942   3.942  0.1145 -0.0180 -0.6864
 2432WAT     H110448   4.209   3.895   3.869  0.5366 -0.5096 -0.3694
 2432WAT     H210449   4.196   3.881   4.004  0.7018  0.3070 -0.2649
 2432WAT    EPW10450   4.205   3.926   3.941  0.2636 -0.0426 -0.5773
 2433WAT      O10451   0.716   3.448   0.404  0.4360  0.1617 -0.0395
 2433WAT     H110452   0.641   3.428   0.444  2.0325 -0.1786  3.0758
 2433WAT     H210453   0.693   3.511   0.348 -2.0080  0.9122  1.6395
 2433WAT    EPW10454   0.701   3.455   0.402  0.3108  0.2223  0.6687
 2434WAT      O10455   6.971   3.468   1.747 -0.6090 -0.0738 -0.1643
 2434WAT     H110456   7.003   3.389   1.727  1.7297  0.7977 -0.1822
 2434WAT     H210457   6.919   3.452   1.815 -0.0024 -1.5970 -0.0081
 2434WAT    EPW10458   6.968   3.454   1.754 -0.1739 -0.1701 -0.1439
 2435WAT      O10459   3.956   4.664   0.920  0.0120  0.1267 -0.4125
 2435WAT     H110460   3.999   4.740   0.926  0.5876 -0.2706  1.1397
 2435WAT     H210461   4.015   4.610   0.886 -0.0378  0.1388 -0.5165
 2435WAT    EPW10462   3.971   4.668   0.916  0.0896  0.0698 -0.1986
 2436WAT      O10463   6.654   5.334   6.535  0.0248  0.6640  0.6442
 2436WAT     H110464   6.737   5.334   6.508 -0.4850  1.1245 -1.0056
 2436WAT     H210465   6.651   5.400   6.591  0.5515  1.2688 -0.0286
 2436WAT    EPW10466   6.666   5.343   6.540  0.0273  0.8213  0.3011
 2437WAT      O10467   6.794   4.330   0.272 -0.1017 -0.1284  0.0830
 2437WAT     H110468   6.761   4.410   0.265  0.3911 -0.0687 -1.9840
 2437WAT     H210469   6.877   4.344   0.297  0.0016  0.0141 -0.3401
 2437WAT    EPW10470   6.802   4.344   0.275 -0.0137 -0.0985 -0.2848
 2438WAT      O10471   3.606   1.873   3.588 -0.2035  0.6513 -0.6877
 2438WAT     H110472   3.529   1.852   3.622  0.6298  0.5539  1.2533
 2438WAT     H210473   3.616   1.817   3.522 -1.5074  0.2530 -0.5646
 2438WAT    EPW10474   3.596   1.862   3.583 -0.2730  0.5780 -0.3828
 2439WAT      O10475   0.131   5.787   7.140  0.6542  0.0490 -0.0959
 2439WAT     H110476   0.069   5.837   7.174 -0.2660 -1.0792 -0.0465
 2439WAT     H210477   0.093   5.708   7.133  2.4452 -1.0036  1.1117
 2439WAT    EPW10478   0.116   5.783   7.144  0.7829 -0.2732  0.0898
 2440WAT      O10479   0.932   0.820   1.409  0.0505 -0.4662 -0.4859
 2440WAT     H110480   0.984   0.889   1.419  1.3390 -1.5686  0.9412
 2440WAT     H210481   0.871   0.831   1.471  0.4496 -0.7549 -0.0345
 2440WAT    EPW10482   0.930   0.831   1.420  0.2998 -0.6717 -0.2084
 2441WAT      O10483   6.493   4.467   4.343 -0.3203  0.0360 -0.5379
 2441WAT     H110484   6.517   4.527   4.285 -1.5180  1.1563  0.0584
 2441WAT     H210485   6.441   4.413   4.298  1.3260 -1.0295 -1.2512
 2441WAT    EPW10486   6.489   4.468   4.328 -0.2540  0.0441 -0.5552
 2442WAT      O10487   5.259   0.525   7.326 -0.0606  0.4291  0.0642
 2442WAT     H110488   5.218   0.487   7.259 -1.0231  0.1388  0.8035
 2442WAT     H210489   5.302   0.592   7.288  0.6951 -0.6573 -1.0605
 2442WAT    EPW10490   5.260   0.530   7.311 -0.0911  0.2258  0.0073
 2443WAT      O10491   4.706   4.785   5.347  0.2271 -0.8906 -0.2686
 2443WAT     H110492   4.763   4.813   5.288 -0.2720 -1.5522 -1.0891
 2443WAT     H210493   4.629   4.787   5.305 -0.2938 -0.4704  0.6571
 2443WAT    EPW10494   4.703   4.790   5.332  0.0764 -0.9262 -0.2531
 2444WAT      O10495   5.168   0.197   1.201  0.4825 -0.1936  0.3044
 2444WAT     H110496   5.250   0.225   1.195  0.6977 -0.6435  1.0291
 2444WAT     H210497   5.163   0.164   1.282 -1.2055  2.3451  1.3941
 2444WAT    EPW10498   5.179   0.197   1.212  0.2649  0.1150  0.5724
 2445WAT      O10499   1.985   5.782   3.278  0.2554 -0.4678 -0.0100
 2445WAT     H110500   1.924   5.843   3.291  0.0321 -0.4913 -0.8471
 2445WAT     H210501   2.046   5.801   3.337 -0.2515 -0.0267  0.3832
 2445WAT    EPW10502   1.985   5.794   3.288  0.1475 -0.4061 -0.0756
 2446WAT      O10503   4.138   6.963   4.027  0.1208 -0.1058  0.2809
 2446WAT     H110504   4.190   6.951   4.096  1.1251  1.1181 -0.2139
 2446WAT     H210505   4.074   7.014   4.058 -0.6772 -1.3749  0.8169
 2446WAT    EPW10506   4.136   6.969   4.042  0.1513 -0.1125  0.2870
 2447WAT      O10507   6.142   5.980   4.969  0.0907  0.2585 -0.2747
 2447WAT     H110508   6.095   5.911   4.997 -0.8474  1.3445  0.9255
 2447WAT     H210509   6.087   6.047   4.980  0.8027  1.1563 -1.8989
 2447WAT    EPW10510   6.127   5.979   4.975  0.0573  0.5515 -0.3373
 2448WAT      O10511   1.014   7.268   0.028 -0.0317 -0.4840  0.4225
 2448WAT     H110512   1.021   7.225  -0.047  0.9149 -0.5742  0.5548
 2448WAT     H210513   0.929   7.259   0.049 -0.6353  0.6858 -1.2970
 2448WAT    EPW10514   1.002   7.260   0.020  0.0190 -0.3245  0.1881
 2449WAT      O10515   6.707   2.343   5.038 -0.8392 -0.0989 -0.4551
 2449WAT     H110516   6.684   2.380   4.963  1.4624 -0.2735 -1.3249
 2449WAT     H210517   6.672   2.264   5.035  0.9598 -0.9084 -2.4036
 2449WAT    EPW10518   6.698   2.337   5.027 -0.2334 -0.2442 -0.8714
 2450WAT      O10519   6.040   0.582   7.057  0.9561 -0.2247 -0.2179
 2450WAT     H110520   6.000   0.624   6.991  1.3782 -2.0309 -1.7146
 2450WAT     H210521   6.004   0.503   7.055  2.3294 -0.8971  0.4773
 2450WAT    EPW10522   6.029   0.577   7.047  1.2213 -0.5908 -0.3363
 2451WAT      O10523   6.687   1.464   0.067  0.9829  0.4640  0.1177
 2451WAT     H110524   6.643   1.414   0.011 -0.3490  1.1587  0.5007
 2451WAT     H210525   6.687   1.543   0.029  0.7972  0.7538  0.7085
 2451WAT    EPW10526   6.681   1.468   0.053  0.7587  0.6094  0.2615
 2452WAT      O10527   5.935   2.910   3.904 -0.3249 -0.0469 -0.5450
 2452WAT     H110528   5.961   2.832   3.934 -0.6884  0.3011  0.7245
 2452WAT     H210529   5.870   2.889   3.848 -2.7197 -0.6012  2.1895
 2452WAT    EPW10530   5.929   2.895   3.900 -0.7324 -0.0774  0.0464
 2453WAT      O10531   6.514   1.352   2.518  0.6141 -0.2403  0.5476
 2453WAT     H110532   6.500   1.267   2.533  2.4445 -0.3031  2.2116
 2453WAT     H210533   6.436   1.389   2.536 -0.3175 -1.5599 -0.5712
 2453WAT    EPW10534   6.500   1.345   2.523  0.7469 -0.4445  0.6281
 2454WAT      O10535   1.905   1.507   2.823  0.1940 -0.0279 -0.1377
 2454WAT     H110536   1.858   1.440   2.796 -0.1611  0.2372 -0.1802
 2454WAT     H210537   1.859   1.541   2.889 -0.1767  0.8291 -0.8133
 2454WAT    EPW10538   1.891   1.502   2.829  0.0868  0.1379 -0.2437
 2455WAT      O10539   4.415   5.270   2.680 -0.2454  0.2204 -0.1396
 2455WAT     H110540   4.484   5.313   2.710  0.1018  0.6745 -1.5100
 2455WAT     H210541   4.436   5.252   2.598 -2.4262  1.9648 -1.2080
 2455WAT    EPW10542   4.428   5.274   2.672 -0.5163  0.5452 -0.4998
 2456WAT      O10543   1.281   6.880   3.234 -0.2622  0.0893 -0.4901
 2456WAT     H110544   1.357   6.901   3.197 -0.6039  1.7569 -0.3494
 2456WAT     H210545   1.244   6.826   3.177  0.9924 -0.6785 -0.5892
 2456WAT    EPW10546   1.287   6.875   3.220 -0.1274  0.2222 -0.4840
 2457WAT      O10547   2.966   5.992   1.727 -0.1497 -0.2236  0.3701
 2457WAT     H110548   2.957   5.929   1.786 -1.0377  0.2863  0.8082
 2457WAT     H210549   3.017   5.956   1.666 -2.3036 -2.1495 -0.4435
 2457WAT    EPW10550   2.972   5.978   1.726 -0.5991 -0.4328  0.3147
 2458WAT      O10551   5.395   3.239   3.437 -0.6386 -0.2380  0.5654
 2458WAT     H110552   5.463   3.187   3.455 -1.3728 -0.9738  1.3047
 2458WAT     H210553   5.414   3.313   3.480 -0.1436 -0.3193  0.4887
 2458WAT    EPW10554   5.408   3.243   3.446 -0.6739 -0.3587  0.6633
 2459WAT      O10555   4.599   2.568   5.091  0.3926  0.1099 -0.1511
 2459WAT     H110556   4.622   2.490   5.124 -2.2937 -0.8614 -0.2908
 2459WAT     H210557   4.534   2.594   5.143 -0.3207  1.1180 -1.4690
 2459WAT    EPW10558   4.592   2.560   5.103 -0.1096  0.1154 -0.3664
 2460WAT      O10559   6.264   1.578   7.273 -0.1539  0.4165 -0.5522
 2460WAT     H110560   6.223   1.507   7.243  1.3829 -0.9225  0.3164
 2460WAT     H210561   6.349   1.558   7.263  0.3648  1.1879  1.7100
 2460WAT    EPW10562   6.271   1.564   7.268  0.1497  0.3326 -0.0897
 2461WAT      O10563   6.970   6.401   4.915  0.0095 -0.1267 -0.1888
 2461WAT     H110564   6.977   6.330   4.865 -1.0805  0.1765 -0.7995
 2461WAT     H210565   6.884   6.405   4.933  0.3097  0.0426  1.3135
 2461WAT    EPW10566   6.958   6.391   4.910 -0.1072 -0.0569 -0.0571
 2462WAT      O10567   4.490   5.407   6.066  0.0736 -0.0853  0.1380
 2462WAT     H110568   4.502   5.488   6.036  2.3836 -0.4877 -0.2033
 2462WAT     H210569   4.520   5.357   6.001 -0.9129 -1.2190  0.5178
 2462WAT    EPW10570   4.496   5.412   6.052  0.2691 -0.3122  0.1437
 2463WAT      O10571   6.693   1.935   2.832 -0.0448 -0.2800  0.4402
 2463WAT     H110572   6.664   1.858   2.861 -0.0861 -0.4040  0.0697
 2463WAT     H210573   6.716   1.977   2.905  0.5630 -0.8738  0.5994
 2463WAT    EPW10574   6.692   1.930   2.847  0.0389 -0.3861  0.4090
 2464WAT      O10575   5.428   5.008   0.654 -0.0061 -0.1494  0.2197
 2464WAT     H110576   5.360   5.010   0.600  0.3566 -0.3520 -0.2536
 2464WAT     H210577   5.415   5.075   0.708 -0.5129 -0.1167  0.0535
 2464WAT    EPW10578   5.416   5.018   0.654 -0.0274 -0.1745  0.1253
 2465WAT      O10579   5.042   2.764   0.884  0.1710 -0.2749  0.2305
 2465WAT     H110580   5.051   2.808   0.809 -4.1353  2.0309  0.7444
 2465WAT     H210581   5.119   2.723   0.893  2.8409  3.2749 -2.8677
 2465WAT    EPW10582   5.055   2.765   0.874 -0.0707  0.5901 -0.1513
 2466WAT      O10583   1.134   4.396   5.927 -0.0469  0.1700 -0.2441
 2466WAT     H110584   1.187   4.327   5.922 -0.2242 -0.0551  0.7435
 2466WAT     H210585   1.055   4.360   5.938  0.0797  0.4729  2.3797
 2466WAT    EPW10586   1.130   4.380   5.928 -0.0544  0.1815  0.2894
 2467WAT      O10587   7.116   0.393   0.747  0.0133 -0.4209  0.0471
 2467WAT     H110588   7.070   0.429   0.812 -1.1659 -1.6769 -0.0509
 2467WAT     H210589   7.148   0.320   0.782  0.1428 -0.6349 -0.5146
 2467WAT    EPW10590   7.114   0.388   0.762 -0.1417 -0.6381 -0.0503
 2468WAT      O10591   1.434   3.686   4.023  0.2114  0.1777 -0.8081
 2468WAT     H110592   1.506   3.651   4.057 -0.6034 -0.8231 -0.0310
 2468WAT     H210593   1.436   3.769   4.051  0.9436  0.1107 -0.6278
 2468WAT    EPW10594   1.445   3.693   4.032  0.1992  0.0199 -0.6667
 2469WAT      O10595   4.107   1.782   0.188 -0.0517  0.0686 -0.0743
 2469WAT     H110596   4.167   1.728   0.154  0.8928  2.1695 -2.0317
 2469WAT     H210597   4.095   1.750   0.268  2.9713 -1.0694  0.0935
 2469WAT    EPW10598   4.114   1.769   0.195  0.5344  0.2108 -0.3386
 2470WAT      O10599   0.364   2.491   3.550  0.2952 -0.7314 -0.2080
 2470WAT     H110600   0.344   2.499   3.465 -0.2690  0.4413  0.0014
 2470WAT     H210601   0.298   2.444   3.582 -1.2281  1.4595  0.1105
 2470WAT    EPW10602   0.351   2.485   3.542 -0.0131 -0.2346 -0.1300
 2471WAT      O10603   0.513   4.017   0.158 -0.5893 -0.7599  0.3487
 2471WAT     H110604   0.586   4.014   0.204 -1.2714 -0.4336  1.4834
 2471WAT     H210605   0.497   4.103   0.149  1.0094 -0.6349 -2.9793
 2471WAT    EPW10606   0.521   4.029   0.163 -0.4539 -0.6933  0.0247
 2472WAT      O10607   6.355   3.600   0.712  0.1434 -0.4343  0.4115
 2472WAT     H110608   6.294   3.657   0.738  0.4526 -0.7710  1.9956
 2472WAT     H210609   6.355   3.608   0.625 -0.4157  1.3442  0.5383
 2472WAT    EPW10610   6.346   3.609   0.703  0.1065 -0.2213  0.6642
 2473WAT      O10611   1.327   2.514   2.315 -0.0900  0.8904 -0.0904
 2473WAT     H110612   1.354   2.436   2.342  0.4381  1.2604  0.4802
 2473WAT     H210613   1.323   2.561   2.388 -0.9378  1.2527 -0.3461
 2473WAT    EPW10614   1.330   2.509   2.330 -0.1372  0.9986 -0.0439
 2474WAT      O10615   5.211   7.232   4.974 -0.2289 -0.1317 -0.6172
 2474WAT     H110616   5.261   7.221   5.045 -3.0610 -0.0033  1.5961
 2474WAT     H210617   5.209   7.153   4.938  1.9438 -0.0145 -1.1801
 2474WAT    EPW10618   5.218   7.219   4.979 -0.3263 -0.0954 -0.3734
 2475WAT      O10619   5.307   5.843   3.517 -0.1212  0.4055  0.4775
 2475WAT     H110620   5.361   5.788   3.476 -3.0764 -1.3923 -1.4188
 2475WAT     H210621   5.311   5.916   3.469 -2.4122 -1.1798 -2.5134
 2475WAT    EPW10622   5.315   5.845   3.504 -0.8962 -0.0942 -0.2444
 2476WAT      O10623   0.621   1.303   5.431  0.0175  0.3375  0.6672
 2476WAT     H110624   0.662   1.286   5.356 -1.1508 -1.4131  0.3712
 2476WAT     H210625   0.619   1.390   5.434  0.5874  0.4434 -1.0474
 2476WAT    EPW10626   0.627   1.313   5.421 -0.0709  0.0946  0.3702
 2477WAT      O10627   1.814   3.648   2.058  0.1770  0.3133 -0.2999
 2477WAT     H110628   1.869   3.656   1.991  1.3175  1.5241  0.7320
 2477WAT     H210629   1.738   3.677   2.027  0.3312 -0.4244 -1.4388
 2477WAT    EPW10630   1.811   3.653   2.043  0.3683  0.3832 -0.3157
 2478WAT      O10631   6.567   2.531   5.181  0.0988  0.4592  0.7090
 2478WAT     H110632   6.533   2.492   5.252  0.5820  0.2712  0.8469
 2478WAT     H210633   6.616   2.469   5.145  1.7280  1.2038  1.5119
 2478WAT    EPW10634   6.569   2.516   5.187  0.4109  0.5414  0.8480
 2479WAT      O10635   0.879   5.253   6.765  0.3419  0.3027  0.4097
 2479WAT     H110636   0.938   5.289   6.711  0.2753 -0.9916 -0.5791
 2479WAT     H210637   0.823   5.215   6.710  0.3886 -1.2586  1.4024
 2479WAT    EPW10638   0.879   5.253   6.749  0.3389 -0.1191  0.4103
 2480WAT      O10639   1.644   6.995   4.202 -0.4502  0.2934  0.0974
 2480WAT     H110640   1.599   7.066   4.224  0.3263  0.5110  1.0693
 2480WAT     H210641   1.585   6.932   4.203 -0.9537  0.7591  0.2141
 2480WAT    EPW10642   1.629   6.996   4.205 -0.4098  0.3944  0.2582
 2481WAT      O10643   2.490   3.586   4.630  0.3409 -0.4478 -0.0245
 2481WAT     H110644   2.508   3.669   4.647 -0.1716 -0.4425  0.4969
 2481WAT     H210645   2.433   3.590   4.563 -0.4296 -0.3364  0.6244
 2481WAT    EPW10646   2.484   3.599   4.622  0.1514 -0.4306  0.1484
 2482WAT      O10647   1.416   5.919   5.918  0.1954  0.2532 -0.1413
 2482WAT     H110648   1.500   5.904   5.937  0.8286  2.6024 -0.7043
 2482WAT     H210649   1.392   5.976   5.980 -1.2238 -0.8918  0.4128
 2482WAT    EPW10650   1.425   5.925   5.930  0.0793  0.4310 -0.1426
 2483WAT      O10651   2.534   5.948   0.554 -0.4705  0.2792  0.0403
 2483WAT     H110652   2.546   5.999   0.624  1.2428 -1.7676  1.3695
 2483WAT     H210653   2.461   5.904   0.575 -0.8005  0.7102 -0.1779
 2483WAT    EPW10654   2.525   5.949   0.568 -0.2662  0.0405  0.2044
 2484WAT      O10655   6.242   3.066   4.907 -0.4810 -0.0161 -0.0532
 2484WAT     H110656   6.312   3.013   4.907 -1.5040 -1.4332 -0.5476
 2484WAT     H210657   6.198   3.041   4.979 -0.8592  0.3226 -0.1675
 2484WAT    EPW10658   6.246   3.054   4.918 -0.6880 -0.1754 -0.1431
 2485WAT      O10659   6.661   2.691   2.985 -1.1570 -0.0075 -0.7301
 2485WAT     H110660   6.735   2.681   3.030 -0.2244 -0.1390 -2.2167
 2485WAT     H210661   6.603   2.646   3.032  0.3636 -2.4784 -1.0192
 2485WAT    EPW10662   6.664   2.683   2.999 -0.7946 -0.3919 -0.9924
 2486WAT      O10663   0.496   0.529   3.899  0.5247  0.6017 -0.6635
 2486WAT     H110664   0.502   0.468   3.836  1.5361  0.2015 -0.2010
 2486WAT     H210665   0.498   0.604   3.854  3.3115  0.4018 -1.0863
 2486WAT    EPW10666   0.497   0.531   3.883  1.0858  0.5130 -0.6576
 2487WAT      O10667   6.534   6.696   4.305  0.0162 -0.0324 -0.5265
 2487WAT     H110668   6.541   6.622   4.351 -2.8677 -1.9771 -2.8421
 2487WAT     H210669   6.508   6.755   4.364 -2.7587 -2.2030  0.6326
 2487WAT    EPW10670   6.531   6.694   4.320 -0.8197 -0.6403 -0.6973
 2488WAT      O10671   6.861   6.987   0.159  0.0054  0.0074 -0.6427
 2488WAT     H110672   6.923   7.045   0.180 -1.8518  1.4838  1.3003
 2488WAT     H210673   6.902   6.911   0.163  1.6028  0.8620  1.2663
 2488WAT    EPW10674   6.876   6.985   0.163 -0.0330  0.3518 -0.0737
 2489WAT      O10675   7.135   4.006   7.241  0.0198  0.2723  0.4041
 2489WAT     H110676   7.064   3.957   7.229  0.0718 -0.5109  2.7832
 2489WAT     H210677   7.103   4.082   7.271  0.0085  1.4382 -2.2948
 2489WAT    EPW10678   7.120   4.010   7.244  0.0258  0.3288  0.3568
 2490WAT      O10679   3.626   4.222   3.261 -0.5269 -0.8486 -0.6061
 2490WAT     H110680   3.634   4.281   3.197 -1.0320  0.4745  0.4997
 2490WAT     H210681   3.588   4.154   3.221 -2.2057  0.4748 -1.4286
 2490WAT    EPW10682   3.622   4.221   3.245 -0.8495 -0.4576 -0.5643
 2491WAT      O10683   3.466   2.343   1.739  0.0213  0.2078 -0.2344
 2491WAT     H110684   3.422   2.271   1.714  0.7604 -0.1008 -0.6815
 2491WAT     H210685   3.549   2.324   1.718  0.3253  0.9014  0.3212
 2491WAT    EPW10686   3.472   2.329   1.732  0.1754  0.2647 -0.2183
 2492WAT      O10687   5.015   2.435   3.796 -0.4762  0.3155  0.1920
 2492WAT     H110688   5.048   2.461   3.873 -0.4974 -0.4328  0.4596
 2492WAT     H210689   4.931   2.459   3.801 -0.5682 -0.0825  0.5600
 2492WAT    EPW10690   5.008   2.443   3.808 -0.4929  0.1462  0.2859
 2493WAT      O10691   7.273   5.299   3.314  0.1968 -0.1028 -0.1781
 2493WAT     H110692   7.312   5.236   3.268 -1.7595 -1.8057  0.3587
 2493WAT     H210693   7.199   5.314   3.271 -2.0642 -2.2608  2.5431
 2493WAT    EPW10694   7.268   5.292   3.301 -0.4262 -0.6732  0.3032
 2494WAT      O10695   4.234   1.303   2.222  0.5822 -0.0077  0.0180
 2494WAT     H110696   4.206   1.324   2.302 -1.4568 -0.4886 -0.5238
 2494WAT     H210697   4.203   1.222   2.209 -0.9199  0.7906 -1.9895
 2494WAT    EPW10698   4.225   1.294   2.232  0.0591  0.0392 -0.3586
 2495WAT      O10699   6.509   2.935   4.907  0.1168 -0.5060  0.3947
 2495WAT     H110700   6.502   2.854   4.939  2.3322 -0.4616  1.1669
 2495WAT     H210701   6.595   2.949   4.905 -0.1682  1.4543 -0.7317
 2495WAT    EPW10702   6.521   2.925   4.912  0.4020 -0.2099  0.3424
 2496WAT      O10703   4.347   1.693   2.233  0.0361 -0.6640 -0.0040
 2496WAT     H110704   4.263   1.691   2.213 -0.5778 -0.9851  2.2583
 2496WAT     H210705   4.365   1.610   2.253  0.6343 -0.4389  0.4262
 2496WAT    EPW10706   4.337   1.680   2.233  0.0338 -0.6782  0.3937
 2497WAT      O10707   3.476   3.587   6.359 -0.4172  0.4245  0.6888
 2497WAT     H110708   3.543   3.590   6.415  0.0399 -2.5410  0.4586
 2497WAT     H210709   3.506   3.630   6.290  0.8166  0.1553  1.0269
 2497WAT    EPW10710   3.490   3.594   6.357 -0.1674 -0.0533  0.7048
 2498WAT      O10711   2.463   2.355   0.812  0.0157  0.1870 -0.0606
 2498WAT     H110712   2.432   2.402   0.879 -0.5154 -1.6092  1.0258
 2498WAT     H210713   2.532   2.315   0.845  0.4284  0.1249 -0.9543
 2498WAT    EPW10714   2.469   2.356   0.827 -0.0018 -0.0875 -0.0322
 2499WAT      O10715   5.387   1.437   5.625  0.1358 -0.2013 -0.0697
 2499WAT     H110716   5.372   1.358   5.592  0.1767 -0.1745 -0.1527
 2499WAT     H210717   5.346   1.436   5.702  0.4372 -0.4284  0.0891
 2499WAT    EPW10718   5.379   1.425   5.632  0.1864 -0.2309 -0.0585
 2500WAT      O10719   6.784   5.835   5.227 -0.2009 -0.2994  0.1816
 2500WAT     H110720   6.725   5.898   5.244 -0.8131 -0.6639 -0.5172
 2500WAT     H210721   6.782   5.785   5.298  1.8957  1.6251  1.7392
 2500WAT    EPW10722   6.775   5.837   5.240  0.0184 -0.0689  0.3084
 2501WAT      O10723   5.339   1.403   0.058  0.2031 -0.3643 -0.4641
 2501WAT     H110724   5.294   1.414   0.132  1.9620  2.1550  0.3658
 2501WAT     H210725   5.407   1.353   0.082 -0.7244 -2.0639 -1.1522
 2501WAT    EPW10726   5.343   1.397   0.072  0.3260 -0.2432 -0.4431
 2502WAT      O10727   2.239   3.670   0.659 -0.5974 -0.1923  0.0857
 2502WAT     H110728   2.322   3.696   0.651 -0.7740  0.1980 -0.5867
 2502WAT     H210729   2.229   3.660   0.745 -0.8899  3.3273  0.6204
 2502WAT    EPW10730   2.250   3.672   0.671 -0.6667  0.3853  0.0654
 2503WAT      O10731   5.325   5.685   4.400 -0.0318 -0.1382 -0.9642
 2503WAT     H110732   5.352   5.684   4.483  0.7129  0.4754 -1.1809
 2503WAT     H210733   5.355   5.610   4.367  3.7531  1.5095 -1.8566
 2503WAT    EPW10734   5.334   5.674   4.407  0.6373  0.1958 -1.1281
 2504WAT      O10735   6.805   1.572   3.452  0.3456 -0.3817  0.1179
 2504WAT     H110736   6.820   1.644   3.405 -2.4226  0.0092 -0.2828
 2504WAT     H210737   6.789   1.602   3.532 -0.5264 -0.5590  0.0172
 2504WAT    EPW10738   6.805   1.587   3.457 -0.1921 -0.3502  0.0438
 2505WAT      O10739   3.594   6.216   4.688  0.5510  0.2645  0.2395
 2505WAT     H110740   3.647   6.235   4.754  0.2906  0.3823  0.4198
 2505WAT     H210741   3.603   6.130   4.677 -0.8050 -0.1235  1.6915
 2505WAT    EPW10742   3.603   6.206   4.696  0.3122  0.2246  0.4806
 2506WAT      O10743   1.839   2.201   0.954  0.1431 -0.5655  0.1469
 2506WAT     H110744   1.833   2.274   1.001  0.7534 -0.1572 -0.4030
 2506WAT     H210745   1.879   2.226   0.881 -0.7917 -1.1888 -0.6039
 2506WAT    EPW10746   1.844   2.215   0.950  0.0952 -0.5972 -0.0452
 2507WAT      O10747   1.443   2.019   4.630 -0.7012  0.1572 -0.6059
 2507WAT     H110748   1.446   2.104   4.652  1.1168  0.2682 -1.0465
 2507WAT     H210749   1.526   1.993   4.641 -0.9367 -1.2063 -1.7767
 2507WAT    EPW10750   1.456   2.028   4.635 -0.4674 -0.0278 -0.8440
 2508WAT      O10751   3.926   4.584   1.587 -0.5306  0.0283 -0.3848
 2508WAT     H110752   3.870   4.639   1.549 -0.2048  0.9174  0.3997
 2508WAT     H210753   3.981   4.563   1.522 -0.0060  1.4962 -0.4609
 2508WAT    EPW10754   3.926   4.589   1.572 -0.4050  0.3765 -0.2801
 2509WAT      O10755   0.207   5.037   1.111  0.5640 -0.3207 -0.2490
 2509WAT     H110756   0.178   5.075   1.038  1.4233  0.0340 -0.4247
 2509WAT     H210757   0.138   5.039   1.164 -0.4294 -1.6160 -1.4138
 2509WAT    EPW10758   0.192   5.043   1.108  0.5442 -0.4597 -0.4470
 2510WAT      O10759   5.394   3.033   6.905  0.2708 -0.6440 -0.0370
 2510WAT     H110760   5.479   3.017   6.917  0.4341  0.0401 -0.2362
 2510WAT     H210761   5.368   3.060   6.983  0.0772 -1.4858  0.2022
 2510WAT    EPW10762   5.403   3.034   6.918  0.2664 -0.6673 -0.0311
 2511WAT      O10763   5.699   2.157   3.601 -0.4922  0.1262 -0.0425
 2511WAT     H110764   5.690   2.239   3.628  0.3565 -0.2103  1.4163
 2511WAT     H210765   5.667   2.111   3.668  0.0438 -0.7430 -0.3689
 2511WAT    EPW10766   5.693   2.162   3.615 -0.2876 -0.0519  0.1248
 2512WAT      O10767   3.190   2.648   4.948 -0.0745 -0.1339  0.7363
 2512WAT     H110768   3.198   2.694   4.874  0.0835 -1.6370 -0.2397
 2512WAT     H210769   3.272   2.622   4.964 -0.3919 -1.5545  0.2232
 2512WAT    EPW10770   3.204   2.651   4.939 -0.0981 -0.5658  0.5163
 2513WAT      O10771   1.436   6.349   5.524 -1.1456  0.3778  0.2236
 2513WAT     H110772   1.427   6.334   5.610  0.9919 -0.0899  0.4385
 2513WAT     H210773   1.508   6.398   5.520 -2.0092  1.6013 -1.2478
 2513WAT    EPW10774   1.445   6.354   5.536 -0.9574  0.4895  0.0380
 2514WAT      O10775   6.083   0.387   1.552  0.4479 -0.1918 -0.3850
 2514WAT     H110776   6.138   0.373   1.618  0.6420  0.7861 -0.3303
 2514WAT     H210777   6.009   0.412   1.592  0.6459  0.6618 -0.5324
 2514WAT    EPW10778   6.080   0.388   1.568  0.5058  0.0788 -0.3987
 2515WAT      O10779   4.147   3.105   5.566  0.8720  0.3179  0.4219
 2515WAT     H110780   4.088   3.120   5.628  0.7868  1.0905  0.1622
 2515WAT     H210781   4.113   3.142   5.495  0.5178 -1.3772 -0.3518
 2515WAT    EPW10782   4.133   3.113   5.565  0.8071  0.1816  0.2693
 2516WAT      O10783   2.765   2.558   1.834 -0.3276  0.4188  0.5096
 2516WAT     H110784   2.723   2.564   1.910 -1.1871  0.8867  0.0155
 2516WAT     H210785   2.805   2.635   1.826 -1.6270  1.0513 -0.2782
 2516WAT    EPW10786   2.765   2.570   1.844 -0.6465  0.5813  0.3202
 2517WAT      O10787   1.572   0.625   2.399  0.1882  0.7615  0.0534
 2517WAT     H110788   1.514   0.612   2.462  0.4327  0.5112  0.2273
 2517WAT     H210789   1.524   0.652   2.331 -0.2297 -0.2664 -0.0724
 2517WAT    EPW10790   1.557   0.627   2.398  0.1626  0.5727  0.0605
 2518WAT      O10791   1.380   5.642   1.515  0.3706 -0.2045 -0.1704
 2518WAT     H110792   1.322   5.582   1.490 -2.1392  2.4196 -1.2038
 2518WAT     H210793   1.348   5.673   1.590 -0.2000  1.8646 -1.1740
 2518WAT    EPW10794   1.367   5.638   1.522 -0.0844  0.4888 -0.4713
 2519WAT      O10795   5.366   0.346   5.918  0.4466  0.4001  0.1045
 2519WAT     H110796   5.363   0.351   5.831  1.4159  1.6465  0.1145
 2519WAT     H210797   5.449   0.323   5.935 -0.4984 -3.3943  0.6450
 2519WAT    EPW10798   5.378   0.343   5.908  0.4502  0.0237  0.1858
 2520WAT      O10799   1.845   3.810   1.094 -0.0996  0.7542 -0.0153
 2520WAT     H110800   1.878   3.881   1.057  1.2738  0.1516 -0.0048
 2520WAT     H210801   1.889   3.803   1.170  2.8161 -2.2288 -1.7024
 2520WAT    EPW10802   1.857   3.819   1.100  0.5340  0.2245 -0.2630
 2521WAT      O10803   0.899   0.059   2.756 -0.3152  0.4717 -0.6842
 2521WAT     H110804   0.958  -0.005   2.761  1.9045  2.4857  0.5504
 2521WAT     H210805   0.847   0.044   2.824  0.0585 -0.1042 -0.5155
 2521WAT    EPW10806   0.900   0.047   2.767  0.0679  0.6841 -0.4769
 2522WAT      O10807   4.462   3.757   6.648 -0.5047 -0.1537  0.5004
 2522WAT     H110808   4.507   3.831   6.654 -0.3252 -0.3542  2.3286
 2522WAT     H210809   4.450   3.734   6.732 -0.8597 -1.9929 -0.0138
 2522WAT    EPW10810   4.467   3.764   6.662 -0.5306 -0.4550  0.6945
 2523WAT      O10811   5.370   2.885   2.022  0.3249  0.2225 -0.3583
 2523WAT     H110812   5.368   2.929   2.097  1.9715  0.7579 -0.5888
 2523WAT     H210813   5.390   2.803   2.047 -0.4070  0.1128 -0.1214
 2523WAT    EPW10814   5.373   2.879   2.037  0.4600  0.2854 -0.3573
 2524WAT      O10815   2.082   5.448   2.578  0.0124  0.5851 -0.1738
 2524WAT     H110816   2.082   5.398   2.649 -1.6925  1.2036  0.3274
 2524WAT     H210817   2.087   5.390   2.513  1.1014 -0.0240  0.4313
 2524WAT    EPW10818   2.083   5.432   2.579 -0.0786  0.5865 -0.0104
 2525WAT      O10819   6.443   5.443   0.237  0.4290 -0.1225  0.1493
 2525WAT     H110820   6.480   5.478   0.166 -1.0633 -0.6589 -0.9523
 2525WAT     H210821   6.505   5.448   0.298  0.9680  2.5714 -0.4932
 2525WAT    EPW10822   6.457   5.449   0.236  0.2882  0.1962 -0.1083
 2526WAT      O10823   7.061   1.408   1.276  0.0936 -0.7028  0.1809
 2526WAT     H110824   7.059   1.454   1.351 -1.4477 -1.1909  0.4762
 2526WAT     H210825   7.058   1.325   1.304  0.2510 -0.9116 -0.4184
 2526WAT    EPW10826   7.060   1.402   1.291 -0.1108 -0.8057  0.1360
 2527WAT      O10827   4.696   3.634   1.630 -0.2779  0.8071 -0.1041
 2527WAT     H110828   4.714   3.572   1.571 -1.8979 -0.9349  1.1327
 2527WAT     H210829   4.635   3.682   1.590  0.4177  1.1626 -0.7683
 2527WAT    EPW10830   4.690   3.632   1.615 -0.4144  0.6023 -0.0195
 2528WAT      O10831   4.694   2.554   2.546 -0.1873  0.1929 -0.3260
 2528WAT     H110832   4.780   2.562   2.542 -0.1331 -0.6478 -1.1644
 2528WAT     H210833   4.676   2.570   2.630  0.9623 -1.1321  0.2310
 2528WAT    EPW10834   4.704   2.557   2.558 -0.0095 -0.1270 -0.3676
 2529WAT      O10835   3.152   3.766   6.725 -0.6988  0.0659 -0.1488
 2529WAT     H110836   3.109   3.690   6.726 -0.0111 -0.3956 -2.0471
 2529WAT     H210837   3.096   3.820   6.685 -0.2432 -0.0563 -0.9493
 2529WAT    EPW10838   3.137   3.763   6.720 -0.5299 -0.0203 -0.5474
 2530WAT      O10839   4.993   5.108   2.985 -0.3403 -0.4824  0.5320
 2530WAT     H110840   4.949   5.086   2.914  0.0288 -2.5708  0.9014
 2530WAT     H210841   5.077   5.097   2.963 -0.1584  0.0144  0.9311
 2530WAT    EPW10842   4.999   5.103   2.972 -0.2589 -0.7175  0.6455
 2531WAT      O10843   2.491   3.264   5.666  0.3816  0.0411  0.3699
 2531WAT     H110844   2.498   3.348   5.687  0.5224  0.3652 -0.8582
 2531WAT     H210845   2.443   3.230   5.730 -0.7686  1.3221  0.2375
 2531WAT    EPW10846   2.485   3.272   5.678  0.2325  0.2782  0.1689
 2532WAT      O10847   0.670   4.421   1.192 -0.4002 -0.2595 -0.4635
 2532WAT     H110848   0.707   4.364   1.246 -0.3762  0.6999  0.5799
 2532WAT     H210849   0.617   4.467   1.244 -0.4784  0.6012 -1.2753
 2532WAT    EPW10850   0.668   4.420   1.208 -0.4082  0.0094 -0.4293
 2533WAT      O10851   6.732   3.362   4.890 -0.3193  0.3540 -0.0310
 2533WAT     H110852   6.745   3.277   4.902 -1.6276  0.0462 -0.6352
 2533WAT     H210853   6.668   3.365   4.832 -1.0107  1.7439  0.7490
 2533WAT    EPW10854   6.725   3.350   4.883 -0.6147  0.5139 -0.0050
 2534WAT      O10855   6.534   5.988   2.666  0.1053 -0.1888  0.1419
 2534WAT     H110856   6.547   5.947   2.742  0.9080 -0.6082 -0.2119
 2534WAT     H210857   6.612   6.021   2.646 -0.0135 -0.3804 -0.6736
 2534WAT    EPW10858   6.547   5.987   2.675  0.2063 -0.2791 -0.0308
 2535WAT      O10859   2.094   4.693   1.178 -0.1913  0.4061 -0.2008
 2535WAT     H110860   2.153   4.667   1.237  0.8543  2.2880 -0.3303
 2535WAT     H210861   2.037   4.739   1.226 -1.2179 -0.8574 -0.1779
 2535WAT    EPW10862   2.095   4.696   1.194 -0.1885  0.4975 -0.2166
 2536WAT      O10863   6.546   3.479   0.333 -0.3446 -0.2038 -0.4750
 2536WAT     H110864   6.489   3.540   0.358 -0.7370 -1.0525  0.8031
 2536WAT     H210865   6.531   3.472   0.247 -2.3477 -0.5521 -0.1589
 2536WAT    EPW10866   6.535   3.487   0.324 -0.6985 -0.3806 -0.2395
 2537WAT      O10867   5.449   7.190   5.116  0.0985 -0.0802  0.5381
 2537WAT     H110868   5.466   7.275   5.106 -1.1123 -0.0728 -2.9273
 2537WAT     H210869   5.511   7.151   5.069 -0.8449 -0.9136 -0.0669
 2537WAT    EPW10870   5.461   7.196   5.108 -0.2197 -0.2022 -0.0632
 2538WAT      O10871   2.910   6.460   3.112  0.2231  0.1854  0.1680
 2538WAT     H110872   2.845   6.402   3.114 -0.2776  0.7675  1.1495
 2538WAT     H210873   2.979   6.414   3.139 -0.0972 -0.0417  0.5984
 2538WAT    EPW10874   2.911   6.445   3.116  0.1019  0.2378  0.3766
 2539WAT      O10875   1.490   5.855   4.057  0.5566  0.0578 -0.2767
 2539WAT     H110876   1.500   5.774   4.088 -0.5815 -0.0360 -0.1341
 2539WAT     H210877   1.568   5.892   4.073  0.8577 -0.7875  0.3022
 2539WAT    EPW10878   1.503   5.849   4.064  0.4329 -0.0809 -0.1701
 2540WAT      O10879   4.916   0.542   4.998  0.1064  0.2865 -0.1086
 2540WAT     H110880   4.838   0.505   4.986 -0.0309  0.2862  0.7100
 2540WAT     H210881   4.972   0.481   4.971 -0.1844  0.4780 -1.1660
 2540WAT    EPW10882   4.912   0.528   4.992  0.0432  0.3147 -0.1439
 2541WAT      O10883   0.181   1.151   1.786  0.6513  0.3234  0.1627
 2541WAT     H110884   0.153   1.117   1.711 -0.1008  1.1115  0.0617
 2541WAT     H210885   0.107   1.166   1.831  1.0414  0.5303  0.7608
 2541WAT    EPW10886   0.166   1.148   1.782  0.5978  0.4704  0.2361
 2542WAT      O10887   7.226   1.751   0.409 -0.6227  0.3933 -1.0186
 2542WAT     H110888   7.201   1.726   0.329  0.0443  0.6172 -1.3124
 2542WAT     H210889   7.206   1.835   0.411 -0.7342  0.3639 -0.9101
 2542WAT    EPW10890   7.220   1.759   0.397 -0.5407  0.4220 -1.0460
 2543WAT      O10891   3.531   2.992   1.812  0.1084 -0.6038  0.0468
 2543WAT     H110892   3.540   2.966   1.895 -1.8911  1.8791  1.1890
 2543WAT     H210893   3.604   3.036   1.796 -0.7272  1.5267  1.6686
 2543WAT    EPW10894   3.543   2.994   1.822 -0.3104  0.0777  0.4551
 2544WAT      O10895   3.148   7.162   4.524  0.3186 -0.1119 -0.4724
 2544WAT     H110896   3.147   7.220   4.589 -0.6319 -1.2474  0.6005
 2544WAT     H210897   3.150   7.085   4.566 -1.1935 -0.9080 -1.7338
 2544WAT    EPW10898   3.148   7.159   4.540 -0.0452 -0.3972 -0.5002
 2545WAT      O10899   4.492   4.738   5.147 -0.2629  0.1094 -0.7486
 2545WAT     H110900   4.416   4.720   5.109 -0.1182  2.5606 -2.4840
 2545WAT     H210901   4.508   4.821   5.123  0.4965  1.5717  3.7020
 2545WAT    EPW10902   4.483   4.748   5.138 -0.1293  0.6875 -0.3475
 2546WAT      O10903   3.243   1.821   0.276 -0.2951  0.2243  0.8211
 2546WAT     H110904   3.314   1.782   0.242 -1.4639  0.0378 -1.5875
 2546WAT     H210905   3.274   1.860   0.347  2.0838 -0.4654  0.2612
 2546WAT    EPW10906   3.258   1.821   0.282 -0.1163  0.0949  0.3826
 2547WAT      O10907   5.627   1.850   0.341  0.3942  0.2400 -0.0343
 2547WAT     H110908   5.601   1.902   0.406 -1.4241  0.5278 -0.9302
 2547WAT     H210909   5.573   1.870   0.276 -2.0570 -4.3023  0.1846
 2547WAT    EPW10910   5.615   1.861   0.341 -0.2365 -0.3885 -0.1343
 2548WAT      O10911   4.330   1.596   3.081 -0.1233  0.3109  0.5224
 2548WAT     H110912   4.340   1.568   3.163  0.3046  0.5517  0.5541
 2548WAT     H210913   4.248   1.625   3.079 -1.0175 -2.0086  0.1757
 2548WAT    EPW10914   4.320   1.596   3.093 -0.1922  0.0038  0.4759
 2549WAT      O10915   1.024   2.740   2.984  0.1177  0.0190 -0.3601
 2549WAT     H110916   0.952   2.789   2.988  0.6599  0.8124 -0.2124
 2549WAT     H210917   1.072   2.768   3.050 -0.0549 -1.5437  0.4911
 2549WAT    EPW10918   1.020   2.751   2.994  0.1723 -0.0946 -0.2125
 2550WAT      O10919   5.468   0.595   1.078 -0.1806  0.0312 -0.2319
 2550WAT     H110920   5.476   0.681   1.088  0.9661 -0.0995  0.1228
 2550WAT     H210921   5.444   0.568   1.157 -0.7160  0.0401 -0.3896
 2550WAT    EPW10922   5.466   0.604   1.091 -0.0903  0.0132 -0.2028
 2551WAT      O10923   5.407   4.204   3.067 -0.1012 -0.5632 -0.1164
 2551WAT     H110924   5.323   4.189   3.086 -0.2574  0.9603  0.5608
 2551WAT     H210925   5.446   4.205   3.146 -0.1431  2.4382 -0.0164
 2551WAT    EPW10926   5.401   4.202   3.082 -0.1305  0.1052 -0.0016
 2552WAT      O10927   5.830   2.106   2.499 -0.3807  0.1719 -0.0495
 2552WAT     H110928   5.889   2.147   2.449 -1.0726 -0.3582 -1.3599
 2552WAT     H210929   5.754   2.139   2.471 -0.7970 -0.2259  0.5859
 2552WAT    EPW10930   5.827   2.117   2.487 -0.5444  0.0348 -0.1492
 2553WAT      O10931   6.641   4.954   0.199 -0.2694 -0.0679  0.3607
 2553WAT     H110932   6.639   5.013   0.135 -2.9158  0.7432  1.0501
 2553WAT     H210933   6.720   4.963   0.234  0.8332  0.2344 -2.0484
 2553WAT    EPW10934   6.652   4.964   0.195 -0.4974  0.0966  0.1066
 2554WAT      O10935   0.631   1.559   5.549  0.0345 -0.0941 -0.5209
 2554WAT     H110936   0.691   1.614   5.519  1.1599 -0.8427  0.2635
 2554WAT     H210937   0.651   1.552   5.634 -2.2972  1.0441  0.1978
 2554WAT    EPW10938   0.643   1.566   5.557 -0.1437 -0.0365 -0.2989
 2555WAT      O10939   0.865   2.890   2.365  0.1067 -0.7592 -0.1763
 2555WAT     H110940   0.947   2.860   2.363  0.2872 -0.4008  0.9386
 2555WAT     H210941   0.858   2.923   2.446 -0.7372  0.3380 -0.6762
 2555WAT    EPW10942   0.876   2.890   2.377  0.0087 -0.5442 -0.0855
 2556WAT      O10943   4.485   3.000   0.361  0.6200 -0.0706  0.3198
 2556WAT     H110944   4.539   3.061   0.331  1.6160 -1.1408 -0.1330
 2556WAT     H210945   4.527   2.925   0.345  0.0910 -0.8281  2.1329
 2556WAT    EPW10946   4.499   2.998   0.354  0.6890 -0.3406  0.5207
 2557WAT      O10947   7.069   4.306   0.267 -0.4770 -0.3377 -0.0125
 2557WAT     H110948   7.088   4.221   0.254 -0.0170 -0.0654 -1.3020
 2557WAT     H210949   7.125   4.329   0.330  0.3185 -0.6873 -0.5671
 2557WAT    EPW10950   7.080   4.297   0.274 -0.2916 -0.3491 -0.2849
 2558WAT      O10951   0.781   2.090   2.452 -0.8309  0.4839 -0.3895
 2558WAT     H110952   0.797   2.112   2.369  0.3986  0.9027 -0.0735
 2558WAT     H210953   0.727   2.022   2.446  0.4058 -0.4420 -1.5839
 2558WAT    EPW10954   0.776   2.084   2.439 -0.4666  0.4090 -0.5193
 2559WAT      O10955   5.352   2.062   7.166  0.1604 -0.4575  0.3203
 2559WAT     H110956   5.307   2.004   7.213 -0.7069 -0.5967 -0.6326
 2559WAT     H210957   5.435   2.036   7.174  0.0259 -0.5319  1.6630
 2559WAT    EPW10958   5.358   2.050   7.174  0.0124 -0.4891  0.3779
 2560WAT      O10959   3.719   2.037   6.813 -0.3237  0.1152  0.4794
 2560WAT     H110960   3.666   2.066   6.876  0.1443  0.3262  0.7772
 2560WAT     H210961   3.718   2.101   6.754  1.3674  1.1804  1.5128
 2560WAT    EPW10962   3.711   2.050   6.814 -0.0048  0.3037  0.6760
 2561WAT      O10963   5.983   3.587   3.295  0.3528  0.7181 -0.0830
 2561WAT     H110964   5.997   3.589   3.381 -0.3284 -0.3689  0.0731
 2561WAT     H210965   6.063   3.586   3.262  0.6248  0.9682  0.5467
 2561WAT    EPW10966   5.997   3.587   3.303  0.2924  0.5945  0.0330
 2562WAT      O10967   4.620   0.565   0.081 -0.1706 -0.0487 -0.0258
 2562WAT     H110968   4.692   0.577   0.129 -0.9382 -0.1000  1.1883
 2562WAT     H210969   4.561   0.617   0.119 -0.1402  2.0267 -2.5712
 2562WAT    EPW10970   4.622   0.574   0.094 -0.2795  0.2503 -0.2225
 2563WAT      O10971   3.870   3.452   6.459  0.6539 -0.4612  0.1766
 2563WAT     H110972   3.947   3.434   6.497  0.9958  1.2062  0.3633
 2563WAT     H210973   3.863   3.539   6.468 -1.1835 -0.5557  0.0111
 2563WAT    EPW10974   3.881   3.462   6.466  0.4330 -0.2289  0.1798
 2564WAT      O10975   1.619   2.121   5.962  0.2503  0.2165  0.2142
 2564WAT     H110976   1.539   2.123   5.997 -0.4323 -1.5708 -1.0892
 2564WAT     H210977   1.614   2.179   5.896 -0.2471 -0.4186 -0.3272
 2564WAT    EPW10978   1.606   2.130   5.957  0.0760 -0.1413 -0.0583
 2565WAT      O10979   4.275   7.008   0.770 -0.0045 -0.4488  0.0714
 2565WAT     H110980   4.306   7.037   0.846 -1.5577 -1.5065  1.1768
 2565WAT     H210981   4.236   7.077   0.735 -0.2019 -0.2193  0.7461
 2565WAT    EPW10982   4.274   7.022   0.776 -0.2631 -0.5712  0.3344
 2566WAT      O10983   4.473   0.171   4.461  0.1620  0.4027 -0.4445
 2566WAT     H110984   4.474   0.149   4.546  0.0669  1.6273 -0.1074
 2566WAT     H210985   4.472   0.258   4.463 -0.3130  0.4353 -1.7114
 2566WAT    EPW10986   4.473   0.181   4.474  0.0778  0.5884 -0.5818
 2567WAT      O10987   5.674   1.729   5.958  0.1506 -0.5041  0.5723
 2567WAT     H110988   5.630   1.705   5.887  0.0724 -0.3848  0.5812
 2567WAT     H210989   5.756   1.707   5.939  0.6814  2.3218 -0.8257
 2567WAT    EPW10990   5.680   1.722   5.945  0.2174 -0.0690  0.3671
 2568WAT      O10991   0.717   4.375   0.264  0.6474  0.5250  0.2370
 2568WAT     H110992   0.801   4.362   0.286  0.2444 -1.0733  1.0149
 2568WAT     H210993   0.677   4.385   0.341 -0.3606 -2.2902  0.1930
 2568WAT    EPW10994   0.724   4.375   0.279  0.4389 -0.1270  0.3455
 2569WAT      O10995   4.959   3.122   7.416  1.0026  0.6027 -0.0457
 2569WAT     H110996   4.929   3.195   7.454  2.1833  1.5395 -0.8114
 2569WAT     H210997   4.903   3.061   7.440 -0.8978  2.0511 -0.5625
 2569WAT    EPW10998   4.946   3.124   7.425  0.8963  0.9550 -0.2352
 2570WAT      O10999   7.184   5.612   6.168  0.3833 -0.3533  0.2671
 2570WAT     H111000   7.259   5.643   6.137 -0.8938  1.8304 -0.9159
 2570WAT     H211001   7.175   5.652   6.245  0.0768 -0.0045  0.0523
 2570WAT    EPW11002   7.194   5.623   6.175  0.1494  0.0208  0.0606
 2571WAT      O11003   5.323   2.653   1.440  0.3542  0.3377 -0.5736
 2571WAT     H111004   5.272   2.623   1.376 -0.5441 -0.5919  0.5309
 2571WAT     H211005   5.369   2.717   1.402 -0.0249 -0.2992 -2.1683
 2571WAT    EPW11006   5.322   2.658   1.425  0.1655  0.1063 -0.6460
 2572WAT      O11007   5.811   1.986   4.273 -0.0813 -0.1501  0.4804
 2572WAT     H111008   5.895   2.011   4.279 -0.0283 -0.3221  0.4511
 2572WAT     H211009   5.816   1.904   4.245 -0.2699 -0.0049  0.0108
 2572WAT    EPW11010   5.824   1.978   4.270 -0.1013 -0.1541  0.4067
 2573WAT      O11011   0.377   0.030   4.800  0.4697 -0.3573  0.1263
 2573WAT     H111012   0.413   0.012   4.878 -1.6727  0.4962  1.4055
 2573WAT     H211013   0.324  -0.039   4.786 -0.3981  0.2564  0.2827
 2573WAT    EPW11014   0.374   0.017   4.810  0.0250 -0.1406  0.3384
 2574WAT      O11015   2.221   6.025   7.064  0.6567  0.0975  0.1675
 2574WAT     H111016   2.166   5.996   7.125 -0.0450  0.6125 -0.2126
 2574WAT     H211017   2.281   5.961   7.059  0.6490 -0.0138  1.2791
 2574WAT    EPW11018   2.222   6.011   7.072  0.5519  0.1571  0.2755
 2575WAT      O11019   5.689   4.362   3.205  0.1507 -1.4590  0.0429
 2575WAT     H111020   5.657   4.433   3.244 -1.9689 -2.8415  1.0459
 2575WAT     H211021   5.660   4.369   3.123  2.6558  0.3103 -0.8054
 2575WAT    EPW11022   5.680   4.373   3.199  0.2076 -1.4019  0.0658
 2576WAT      O11023   1.101   1.525   4.107  0.3442  0.2119 -0.1565
 2576WAT     H111024   1.047   1.555   4.045  1.1528 -0.6038 -1.3001
 2576WAT     H211025   1.047   1.480   4.159 -0.2765  0.4131 -0.6009
 2576WAT    EPW11026   1.085   1.523   4.105  0.3719  0.1212 -0.3911
 2577WAT      O11027   1.514   4.001   3.270 -0.4466  0.3118  0.4214
 2577WAT     H111028   1.537   3.933   3.220 -0.3763 -1.3309  2.5432
 2577WAT     H211029   1.429   3.989   3.284 -0.5260  0.8931  0.4857
 2577WAT    EPW11030   1.505   3.989   3.265 -0.4479  0.1550  0.7443
 2578WAT      O11031   3.038   3.222   2.608 -0.4938  0.3396  0.0187
 2578WAT     H111032   2.967   3.251   2.649  0.2928  2.9946 -0.2993
 2578WAT     H211033   3.081   3.295   2.587  1.4553 -1.0939 -1.3817
 2578WAT    EPW11034   3.034   3.237   2.611 -0.0897  0.5200 -0.2352
 2579WAT      O11035   7.075   3.592   4.508 -0.2135 -0.3692 -0.3760
 2579WAT     H111036   7.151   3.620   4.477  0.2675 -0.2799  0.8039
 2579WAT     H211037   7.098   3.545   4.579 -1.2439 -0.3769 -0.0308
 2579WAT    EPW11038   7.089   3.589   4.514 -0.2946 -0.3571 -0.1507
 2580WAT      O11039   1.079   5.378   2.784 -0.1632 -0.1070 -0.0633
 2580WAT     H111040   1.143   5.346   2.734  0.3175  2.0103 -0.8898
 2580WAT     H211041   1.079   5.463   2.767 -2.9056  0.0724  0.2646
 2580WAT    EPW11042   1.088   5.386   2.774 -0.4973  0.2323 -0.1369
 2581WAT      O11043   0.662   4.262   2.879  0.3050 -0.4343  0.5574
 2581WAT     H111044   0.588   4.273   2.834 -0.1778  0.5370  1.5499
 2581WAT     H211045   0.715   4.324   2.847  0.7476 -1.1833 -0.2129
 2581WAT    EPW11046   0.659   4.273   2.867  0.2991 -0.4014  0.5902
 2582WAT      O11047   4.210   6.446   0.125 -0.7716  0.4218  0.1473
 2582WAT     H111048   4.203   6.508   0.064  0.5694  0.1892 -0.2844
 2582WAT     H211049   4.262   6.387   0.087 -1.0061 -0.3714  1.0278
 2582WAT    EPW11050   4.216   6.446   0.110 -0.6081  0.2703  0.2136
 2583WAT      O11051   1.629   5.811   3.216  0.3134  0.1601 -0.2316
 2583WAT     H111052   1.636   5.860   3.145 -2.7730 -0.3990 -1.0540
 2583WAT     H211053   1.590   5.863   3.274 -0.7000 -0.4877 -0.2925
 2583WAT    EPW11054   1.624   5.826   3.214 -0.2922 -0.0182 -0.3621
 2584WAT      O11055   2.731   1.323   2.378  0.1249  0.0094 -0.1782
 2584WAT     H111056   2.802   1.372   2.369  0.8134 -0.9197  0.1137
 2584WAT     H211057   2.692   1.329   2.300 -0.2866  1.7224  0.1257
 2584WAT    EPW11058   2.735   1.331   2.365  0.1658  0.1252 -0.0902
 2585WAT      O11059   2.503   1.054   0.685 -0.2443 -0.3266 -0.2633
 2585WAT     H111060   2.442   1.008   0.642  0.7702 -1.6415 -0.3559
 2585WAT     H211061   2.520   1.005   0.755  1.4719 -0.5217 -0.7895
 2585WAT    EPW11062   2.496   1.040   0.689  0.1591 -0.5497 -0.3547
 2586WAT      O11063   3.323   5.099   1.422 -0.4591 -0.8009 -0.3598
 2586WAT     H111064   3.323   5.021   1.461 -1.3673 -1.4643 -1.6045
 2586WAT     H211065   3.251   5.138   1.454  0.9855  0.3578  1.7142
 2586WAT    EPW11066   3.312   5.093   1.432 -0.3798 -0.7277 -0.2373
 2587WAT      O11067   5.822   0.569   3.262 -0.2998  0.4141  0.0676
 2587WAT     H111068   5.904   0.584   3.289 -0.0877  0.3074 -0.5117
 2587WAT     H211069   5.774   0.616   3.318  0.2201  1.4197 -0.3080
 2587WAT    EPW11070   5.827   0.578   3.275 -0.1917  0.5469 -0.0734
 2588WAT      O11071   1.165   6.687   3.063 -0.4608 -0.9072 -0.6107
 2588WAT     H111072   1.218   6.718   3.001  0.8126 -0.8646  0.4667
 2588WAT     H211073   1.207   6.618   3.095 -1.1516 -1.0088  0.1206
 2588WAT    EPW11074   1.179   6.682   3.059 -0.3747 -0.9159 -0.3435
 2589WAT      O11075   3.391   5.958   3.797 -0.2115  0.1615  0.0050
 2589WAT     H111076   3.432   5.915   3.733  0.3665  1.2022 -0.3402
 2589WAT     H211077   3.428   6.036   3.797 -2.3739  1.2737 -0.5288
 2589WAT    EPW11078   3.403   5.963   3.787 -0.4455  0.4795 -0.1249
 2590WAT      O11079   5.351   1.324   1.428 -0.3226  0.4831  0.2187
 2590WAT     H111080   5.415   1.315   1.370 -0.7147  1.1378 -0.3344
 2590WAT     H211081   5.304   1.251   1.419  0.7422 -0.3442  1.1513
 2590WAT    EPW11082   5.353   1.312   1.418 -0.2232  0.4576  0.2748
 2591WAT      O11083   0.175   0.345   3.614 -0.1632  0.3161  0.2472
 2591WAT     H111084   0.168   0.407   3.676 -0.9877 -0.1857  0.6671
 2591WAT     H211085   0.171   0.271   3.658  1.4745 -0.0752 -0.1886
 2591WAT    EPW11086   0.173   0.343   3.629 -0.0431  0.1842  0.2449
 2592WAT      O11087   3.992   6.299   2.175 -0.2894  0.0846  0.7252
 2592WAT     H111088   3.949   6.226   2.196  2.1877 -1.7617 -0.1138
 2592WAT     H211089   3.969   6.313   2.092 -0.5235  0.0649  0.7862
 2592WAT    EPW11090   3.983   6.290   2.166  0.0420 -0.1910  0.6103
 2593WAT      O11091   6.871   3.111   4.521  0.1310 -0.1618 -0.6035
 2593WAT     H111092   6.862   3.092   4.436  1.5043 -1.4000 -0.5090
 2593WAT     H211093   6.874   3.033   4.559  0.4541  0.3600  0.4775
 2593WAT    EPW11094   6.870   3.097   4.514  0.3816 -0.2676 -0.4298
 2594WAT      O11095   3.756   2.297   1.627  0.3558  0.0317  0.2576
 2594WAT     H111096   3.797   2.226   1.658  0.1460  0.4674  1.5611
 2594WAT     H211097   3.805   2.363   1.656 -0.7235  0.5165  1.0296
 2594WAT    EPW11098   3.769   2.296   1.636  0.1654  0.1677  0.5642
 2595WAT      O11099   6.022   5.650   5.796  0.1627  0.5275 -0.2607
 2595WAT     H111100   6.097   5.605   5.790 -0.4720 -0.7315  0.8034
 2595WAT     H211101   5.964   5.590   5.821 -0.8804  1.7867  0.4601
 2595WAT    EPW11102   6.025   5.635   5.799 -0.0852  0.5275  0.0030
 2596WAT      O11103   3.703   6.683   6.537  0.8608  0.0681  0.1353
 2596WAT     H111104   3.624   6.679   6.500  1.1213 -0.4281 -0.3832
 2596WAT     H211105   3.710   6.766   6.563  0.5795  0.3612 -0.7208
 2596WAT    EPW11106   3.692   6.695   6.536  0.8577  0.0381 -0.0678
 2597WAT      O11107   0.334   3.231   5.505  0.2309  0.7835  1.2333
 2597WAT     H111108   0.381   3.210   5.575 -0.2304  0.2640  1.3926
 2597WAT     H211109   0.257   3.254   5.538 -0.4500 -0.7745  0.8489
 2597WAT    EPW11110   0.329   3.231   5.520  0.0621  0.4766  1.2000
 2598WAT      O11111   0.122   2.698   3.572 -0.4217 -0.2118 -0.2733
 2598WAT     H111112   0.106   2.635   3.514  0.4612 -2.8766  2.1481
 2598WAT     H211113   0.202   2.726   3.550  0.4110 -2.0176  0.2195
 2598WAT    EPW11114   0.132   2.693   3.560 -0.1683 -0.8722  0.1572
 2599WAT      O11115   2.631   6.619   2.926  0.1352 -0.5179 -0.0726
 2599WAT     H111116   2.554   6.576   2.921 -0.8162  1.0395  0.4918
 2599WAT     H211117   2.616   6.691   2.880  1.0005  0.1827  0.7248
 2599WAT    EPW11118   2.617   6.623   2.918  0.1225 -0.1844  0.1286
 2600WAT      O11119   4.358   5.173   5.052  0.0548 -0.2882  0.0902
 2600WAT     H111120   4.296   5.135   5.003  0.4629 -1.7233  0.6384
 2600WAT     H211121   4.432   5.137   5.021  0.2563 -2.1771  2.4670
 2600WAT    EPW11122   4.360   5.162   5.040  0.1448 -0.7792  0.5223
 2601WAT      O11123   4.350   1.851   6.787  0.1103  0.5018  0.6090
 2601WAT     H111124   4.361   1.808   6.862  1.1623 -1.1545 -0.4307
 2601WAT     H211125   4.402   1.920   6.795  2.8329 -1.3359  0.2432
 2601WAT    EPW11126   4.359   1.855   6.799  0.6678 -0.0144  0.4014
 2602WAT      O11127   5.075   4.227   0.611 -0.1991  0.1830  0.2166
 2602WAT     H111128   5.069   4.178   0.683 -0.5049  1.0924  0.8191
 2602WAT     H211129   5.160   4.244   0.604  0.3500 -2.6208 -1.5150
 2602WAT    EPW11130   5.086   4.222   0.620 -0.1632 -0.0968  0.0498
 2603WAT      O11131   4.011   3.463   0.133  0.2741  0.6958  0.2745
 2603WAT     H111132   3.996   3.496   0.053 -0.3735  0.9576  0.4954
 2603WAT     H211133   3.979   3.382   0.128 -1.0373  1.1678  0.6670
 2603WAT    EPW11134   4.004   3.456   0.120 -0.0153  0.8042  0.3651
 2604WAT      O11135   3.145   0.705   2.407 -0.1853  0.3930  0.4807
 2604WAT     H111136   3.061   0.706   2.384 -0.0519  0.9279 -0.0118
 2604WAT     H211137   3.142   0.702   2.494 -0.6912 -1.2710  0.4367
 2604WAT    EPW11138   3.132   0.705   2.417 -0.2403  0.2262  0.4014
 2605WAT      O11139   1.627   5.358   2.564 -0.0910 -0.0185  0.2524
 2605WAT     H111140   1.611   5.440   2.589 -0.0742  0.8052 -2.1331
 2605WAT     H211141   1.704   5.364   2.523 -0.6033 -0.9849 -0.9017
 2605WAT    EPW11142   1.636   5.371   2.562 -0.1642 -0.0396 -0.2704
 2606WAT      O11143   6.793   1.843   5.391  0.0847  0.2384  0.1986
 2606WAT     H111144   6.804   1.899   5.456 -0.2474 -0.4951  0.9047
 2606WAT     H211145   6.755   1.774   5.429  1.2520 -0.8197 -0.4656
 2606WAT    EPW11146   6.789   1.841   5.406  0.2080 -0.0263  0.2048
 2607WAT      O11147   5.937   2.622   3.500 -0.5061 -0.4886 -0.1051
 2607WAT     H111148   5.946   2.703   3.531  0.1495 -0.8730  0.7459
 2607WAT     H211149   5.858   2.622   3.464 -1.2079  0.0449  1.3688
 2607WAT    EPW11150   5.927   2.634   3.499 -0.5129 -0.4666  0.2384
 2608WAT      O11151   6.130   6.711   6.015 -0.0436 -0.2305  0.5743
 2608WAT     H111152   6.051   6.705   5.979 -0.4768  0.6480  1.3420
 2608WAT     H211153   6.182   6.669   5.958 -1.0492 -0.7879  0.0541
 2608WAT    EPW11154   6.126   6.704   6.001 -0.2562 -0.1831  0.6109
 2609WAT      O11155   2.777   5.960   6.105 -0.1841 -0.3381 -0.6061
 2609WAT     H111156   2.708   6.009   6.083 -0.4835 -1.4218 -2.2838
 2609WAT     H211157   2.741   5.893   6.147 -0.0441 -0.3467 -0.5019
 2609WAT    EPW11158   2.762   5.958   6.108 -0.2076 -0.4994 -0.8385
 2610WAT      O11159   5.913   0.556   6.688 -0.5958  0.0503  0.2285
 2610WAT     H111160   5.974   0.565   6.627 -0.3540 -1.9025  0.1243
 2610WAT     H211161   5.926   0.625   6.740  1.7253 -0.3011  0.2276
 2610WAT    EPW11162   5.924   0.568   6.687 -0.2172 -0.2901  0.2130
 2611WAT      O11163   1.921   0.980   6.338  0.2333 -0.3424  0.3959
 2611WAT     H111164   1.879   0.905   6.323 -0.5631  0.1052  0.3301
 2611WAT     H211165   1.985   0.980   6.279 -0.5355 -0.3887 -0.4586
 2611WAT    EPW11166   1.924   0.969   6.328  0.0021 -0.2831  0.2600
 2612WAT      O11167   1.784   2.846   7.098  0.1377 -0.4089  0.7475
 2612WAT     H111168   1.843   2.901   7.131 -0.0197 -0.8614  1.8266
 2612WAT     H211169   1.763   2.796   7.166  0.1911 -1.7248 -0.1699
 2612WAT    EPW11170   1.790   2.847   7.112  0.1224 -0.6701  0.7714
 2613WAT      O11171   6.230   3.926   7.397 -0.2402 -0.0052 -0.0825
 2613WAT     H111172   6.145   3.926   7.417  0.3619  0.6270  3.0019
 2613WAT     H211173   6.236   3.985   7.334 -2.0300  0.3253 -0.0029
 2613WAT    EPW11174   6.218   3.935   7.391 -0.4156  0.1370  0.3849
 2614WAT      O11175   2.315   3.844   7.349  0.5825 -0.1924  0.2003
 2614WAT     H111176   2.342   3.765   7.377  0.3296  0.2745  1.8889
 2614WAT     H211177   2.343   3.847   7.266  1.5724 -1.6139  0.4402
 2614WAT    EPW11178   2.323   3.833   7.341  0.6913 -0.3334  0.4852
 2615WAT      O11179   0.911   5.560   7.347  0.4237 -0.2395  0.2574
 2615WAT     H111180   0.969   5.624   7.335  0.4082 -0.1135  0.8221
 2615WAT     H211181   0.865   5.560   7.272  1.2525 -0.4553 -0.2581
 2615WAT    EPW11182   0.913   5.570   7.334  0.5438 -0.2528  0.2647
 2616WAT      O11183   7.300   0.731   2.289 -0.1520 -0.1278 -0.3251
 2616WAT     H111184   7.358   0.758   2.229  0.0928  0.2332  0.0579
 2616WAT     H211185   7.275   0.806   2.327  0.9528 -0.4572  1.1446
 2616WAT    EPW11186   7.305   0.746   2.286  0.0474 -0.1231 -0.0514
 2617WAT      O11187   5.434   0.654   3.841 -0.5200 -0.1980 -0.3160
 2617WAT     H111188   5.408   0.571   3.836 -1.5791  0.1810 -1.8972
 2617WAT     H211189   5.443   0.678   3.757 -0.7029  1.4226  0.0901
 2617WAT    EPW11190   5.432   0.646   3.827 -0.7035  0.0974 -0.4896
 2618WAT      O11191   4.091   2.932   4.807  0.1052  0.3362 -0.0271
 2618WAT     H111192   4.096   2.851   4.839 -0.7133 -0.0917 -0.9007
 2618WAT     H211193   4.146   2.978   4.857 -0.7072 -0.3859  1.6321
 2618WAT    EPW11194   4.100   2.927   4.819 -0.1357  0.1663  0.0890
 2619WAT      O11195   5.731   1.103   7.330  0.1904 -0.3426  0.2516
 2619WAT     H111196   5.772   1.175   7.357 -0.4067  0.1199 -0.0334
 2619WAT     H211197   5.654   1.133   7.301  1.0853 -0.6335 -2.8400
 2619WAT    EPW11198   5.725   1.118   7.329  0.2344 -0.3173 -0.2472
 2620WAT      O11199   0.477   2.354   3.168 -0.7083 -0.4424 -0.3153
 2620WAT     H111200   0.432   2.423   3.196 -1.1185 -0.6011 -0.5810
 2620WAT     H211201   0.529   2.388   3.106 -0.2709 -0.2140  0.1676
 2620WAT    EPW11202   0.478   2.369   3.163 -0.7043 -0.4321 -0.2832
 2621WAT      O11203   6.745   4.259   2.783 -0.2639  0.6864  0.5334
 2621WAT     H111204   6.763   4.234   2.701 -1.0467 -1.8996  1.0481
 2621WAT     H211205   6.766   4.343   2.784  0.1477  0.7096 -2.2155
 2621WAT    EPW11206   6.750   4.267   2.771 -0.3187  0.3078  0.2034
 2622WAT      O11207   6.103   6.075   1.971 -0.0386 -0.3517  0.5647
 2622WAT     H111208   6.078   6.132   2.033 -0.6659 -1.1954  1.1047
 2622WAT     H211209   6.139   6.010   2.016 -1.1138 -1.2876  0.1119
 2622WAT    EPW11210   6.105   6.074   1.987 -0.2901 -0.6146  0.5776
 2623WAT      O11211   1.348   5.861   1.325  0.0331  0.6691 -0.3148
 2623WAT     H111212   1.364   5.798   1.384 -0.1329 -0.5929 -1.5701
 2623WAT     H211213   1.373   5.825   1.250 -0.6195  1.9119 -1.1540
 2623WAT    EPW11214   1.354   5.847   1.323 -0.0878  0.6662 -0.6242
 2624WAT      O11215   1.557   1.614   6.931 -0.4290  0.4028  0.6716
 2624WAT     H111216   1.587   1.535   6.950 -0.0831 -0.1000 -1.6344
 2624WAT     H211217   1.474   1.612   6.959 -0.3491 -0.7050  0.8614
 2624WAT    EPW11218   1.549   1.602   6.938 -0.3661  0.1649  0.3590
 2625WAT      O11219   4.491   1.485   2.562  0.1469  0.5766  0.1545
 2625WAT     H111220   4.444   1.423   2.602  0.7965 -0.2958 -0.3938
 2625WAT     H211221   4.471   1.557   2.606  1.5300 -0.4709  2.7120
 2625WAT    EPW11222   4.481   1.486   2.575  0.4472  0.2930  0.4513
 2626WAT      O11223   6.111   0.147   4.070 -0.1197  0.3972 -0.2767
 2626WAT     H111224   6.095   0.224   4.107 -0.1039  0.3460 -0.1601
 2626WAT     H211225   6.111   0.092   4.138  2.3789  0.6339  0.0281
 2626WAT    EPW11226   6.109   0.150   4.086  0.2517  0.4246 -0.2144
 2627WAT      O11227   0.057   5.918   2.803  0.1978 -0.5363 -0.3861
 2627WAT     H111228   0.058   6.005   2.800  1.9609 -0.4718  0.6630
 2627WAT     H211229   0.011   5.901   2.875 -0.0845 -0.4692 -0.5505
 2627WAT    EPW11230   0.050   5.928   2.813  0.4165 -0.5169 -0.2554
 2628WAT      O11231   5.410   5.458   5.560 -0.1985 -0.4636 -0.3306
 2628WAT     H111232   5.431   5.530   5.514 -2.0239  0.7850  0.6506
 2628WAT     H211233   5.480   5.445   5.610 -0.7659  2.4153  1.4971
 2628WAT    EPW11234   5.423   5.467   5.561 -0.5520  0.1461  0.0844
 2629WAT      O11235   0.526   3.168   2.996  0.4842 -0.3102  0.5589
 2629WAT     H111236   0.444   3.146   3.017  0.4406 -1.1655 -0.4222
 2629WAT     H211237   0.541   3.123   2.923  2.1848 -0.9608  1.2654
 2629WAT    EPW11238   0.516   3.158   2.988  0.7289 -0.5326  0.5184
 2630WAT      O11239   0.797   0.984   2.107  0.0093 -0.2060 -0.1158
 2630WAT     H111240   0.810   1.050   2.161 -2.6122  0.2074  0.1295
 2630WAT     H211241   0.843   0.919   2.142  1.4857  1.0758  0.4174
 2630WAT    EPW11242   0.806   0.984   2.120 -0.1598  0.0444 -0.0008
 2631WAT      O11243   0.416   3.751   5.182  0.0564  0.2052  0.0497
 2631WAT     H111244   0.370   3.712   5.245 -0.8782  1.4529  0.1773
 2631WAT     H211245   0.359   3.806   5.146  1.2265  1.2243 -0.3147
 2631WAT    EPW11246   0.401   3.753   5.186  0.0912  0.5400  0.0147
 2632WAT      O11247   5.124   5.477   2.662 -0.0520  0.0651 -0.5763
 2632WAT     H111248   5.197   5.431   2.667 -0.6546 -0.9341 -0.7379
 2632WAT     H211249   5.142   5.538   2.602  0.1072 -1.2074 -1.8834
 2632WAT    EPW11250   5.137   5.479   2.654 -0.1175 -0.2705 -0.7933
 2633WAT      O11251   5.908   4.774   0.771 -0.0902  0.2880  0.1338
 2633WAT     H111252   5.871   4.722   0.830 -0.2170 -0.3060 -0.4614
 2633WAT     H211253   5.840   4.814   0.732 -0.2462 -1.6552 -1.7532
 2633WAT    EPW11254   5.892   4.772   0.774 -0.1320 -0.0868 -0.2329
 2634WAT      O11255   2.511   0.371   3.781  0.6712  0.0496  0.0919
 2634WAT     H111256   2.428   0.344   3.772  0.0344  1.9478 -0.2170
 2634WAT     H211257   2.556   0.317   3.730 -0.6354  0.1237 -1.2081
 2634WAT    EPW11258   2.505   0.359   3.772  0.3841  0.3410 -0.1458
 2635WAT      O11259   3.514   0.746   2.217 -0.5468 -0.2922 -0.0309
 2635WAT     H111260   3.547   0.708   2.289  1.0738 -1.3925 -1.2576
 2635WAT     H211261   3.438   0.704   2.205 -0.2989 -0.8981  0.4305
 2635WAT    EPW11262   3.508   0.734   2.226 -0.2708 -0.5442 -0.1440
 2636WAT      O11263   6.408   2.289   3.000  0.0361 -0.0015 -0.9018
 2636WAT     H111264   6.388   2.237   3.067 -0.4516  0.1063 -0.9591
 2636WAT     H211265   6.463   2.241   2.953  0.8872  0.1534 -0.1012
 2636WAT    EPW11266   6.413   2.274   3.003  0.0898  0.0373 -0.7920
 2637WAT      O11267   1.537   0.059   1.153  0.4046 -0.0971 -0.1963
 2637WAT     H111268   1.493   0.040   1.225  0.3703  1.1941  0.1479
 2637WAT     H211269   1.606   0.006   1.156  0.7186  0.3459  1.1068
 2637WAT    EPW11270   1.540   0.049   1.164  0.4459  0.1591  0.0471
 2638WAT      O11271   4.728   0.875   5.265  0.4807  0.3844 -0.4081
 2638WAT     H111272   4.776   0.804   5.248 -0.1116 -0.4661  1.2412
 2638WAT     H211273   4.658   0.866   5.215  0.2334 -0.4210  0.0661
 2638WAT    EPW11274   4.725   0.863   5.255  0.3567  0.1398 -0.0945
 2639WAT      O11275   1.416   2.630   3.837 -0.1130 -0.2195  0.3460
 2639WAT     H111276   1.333   2.657   3.837 -0.3480 -0.8748 -0.8895
 2639WAT     H211277   1.416   2.567   3.897 -0.6454 -0.5911 -0.0310
 2639WAT    EPW11278   1.403   2.625   3.846 -0.2263 -0.3712  0.1078
 2640WAT      O11279   6.953   5.749   3.713  0.0474 -0.2842  0.0908
 2640WAT     H111280   6.939   5.736   3.798  0.4819 -0.4230  0.1442
 2640WAT     H211281   6.966   5.835   3.706 -3.5624  0.3754 -0.3627
 2640WAT    EPW11282   6.953   5.759   3.724 -0.4216 -0.2073  0.0317
 2641WAT      O11283   3.797   6.196   6.763 -0.2060  0.0483 -0.1577
 2641WAT     H111284   3.781   6.111   6.748  0.4501  0.2584 -2.5596
 2641WAT     H211285   3.722   6.227   6.793 -0.2834 -1.4835  1.3552
 2641WAT    EPW11286   3.784   6.188   6.765 -0.1205 -0.1469 -0.2890
 2642WAT      O11287   6.250   3.587   6.975 -0.2225  0.1472 -0.3366
 2642WAT     H111288   6.299   3.600   6.904 -0.1541  0.2936 -0.2623
 2642WAT     H211289   6.231   3.668   7.002  3.7449  0.3651  2.6334
 2642WAT    EPW11290   6.254   3.601   6.968  0.3737  0.2010  0.1131
 2643WAT      O11291   0.156   4.488   0.882  0.2502 -0.2285 -0.1083
 2643WAT     H111292   0.130   4.539   0.948  2.1197 -0.3808  0.8192
 2643WAT     H211293   0.093   4.427   0.877 -1.3245  1.3452 -0.3451
 2643WAT    EPW11294   0.143   4.486   0.891  0.2937 -0.0185 -0.0063
 2644WAT      O11295   5.114   2.100   5.084 -0.2044  0.1554 -0.1639
 2644WAT     H111296   5.195   2.066   5.086  0.0992  0.8148 -0.5626
 2644WAT     H211297   5.074   2.054   5.021  0.2023  0.5092 -0.6991
 2644WAT    EPW11298   5.120   2.088   5.075 -0.0995  0.3050 -0.3019
 2645WAT      O11299   5.198   5.925   0.996 -0.4811 -0.3712  0.4669
 2645WAT     H111300   5.134   5.875   1.027 -0.6351 -0.3425  0.1924
 2645WAT     H211301   5.269   5.892   1.035 -0.7876  0.3738  1.7433
 2645WAT    EPW11302   5.199   5.913   1.007 -0.5491 -0.2569  0.6149
 2646WAT      O11303   5.079   7.011   6.928 -0.5402  0.5391 -0.4359
 2646WAT     H111304   5.090   6.987   7.012  0.2256 -1.2631 -0.9941
 2646WAT     H211305   5.080   7.098   6.931  0.1309  0.5103  1.3533
 2646WAT    EPW11306   5.081   7.020   6.941 -0.3279  0.2686 -0.2541
 2647WAT      O11307   5.825   4.301   1.466 -0.2176 -0.2979 -0.3008
 2647WAT     H111308   5.877   4.323   1.533 -0.0598  0.6169 -0.7059
 2647WAT     H211309   5.823   4.373   1.418 -1.3070 -0.5569 -0.6675
 2647WAT    EPW11310   5.833   4.315   1.469 -0.3552 -0.2010 -0.4148
 2648WAT      O11311   5.866   4.713   7.223 -0.2416 -0.1311 -0.6021
 2648WAT     H111312   5.925   4.721   7.287 -1.4169 -1.6407  0.7389
 2648WAT     H211313   5.837   4.795   7.212 -0.6882  0.0383  1.4784
 2648WAT    EPW11314   5.871   4.726   7.231 -0.4812 -0.3291 -0.0967
 2649WAT      O11315   0.964   2.627   4.713 -0.5043 -0.4137  0.5194
 2649WAT     H111316   0.922   2.648   4.787 -1.6735  1.0401 -0.4864
 2649WAT     H211317   0.986   2.705   4.680 -1.3989 -0.9467 -1.4384
 2649WAT    EPW11318   0.961   2.642   4.719 -0.8092 -0.2777  0.0816
 2650WAT      O11319   0.906   6.716   1.210 -0.4857  0.0046  0.0953
 2650WAT     H111320   0.905   6.788   1.260 -1.7018 -0.3406  0.6076
 2650WAT     H211321   0.832   6.675   1.232 -1.2739  0.0218 -2.2857
 2650WAT    EPW11322   0.895   6.721   1.221 -0.7818 -0.0439 -0.1807
 2651WAT      O11323   5.410   1.977   0.160 -0.2126 -0.1466 -0.6471
 2651WAT     H111324   5.394   2.053   0.199  1.5388 -0.9770  1.9870
 2651WAT     H211325   5.464   1.998   0.094 -0.7230  1.0003 -0.7080
 2651WAT    EPW11326   5.416   1.991   0.156 -0.0293 -0.0998 -0.2670
 2652WAT      O11327   7.175   2.070   3.521 -0.4726  0.3036  0.2371
 2652WAT     H111328   7.164   1.993   3.482  1.5683  0.4549 -0.7772
 2652WAT     H211329   7.249   2.060   3.566  0.7926  2.1109 -1.2582
 2652WAT    EPW11330   7.184   2.057   3.522  0.0158  0.5929 -0.1336
 2653WAT      O11331   2.192   3.500   6.690  0.9099 -0.0428 -0.6122
 2653WAT     H111332   2.193   3.587   6.685  0.8737 -0.1083 -2.1140
 2653WAT     H211333   2.110   3.482   6.715  1.5390  0.4024  2.0749
 2653WAT    EPW11334   2.180   3.510   6.693  0.9975  0.0133 -0.4371
 2654WAT      O11335   3.621   1.851   2.886  0.0199 -0.1313  0.4952
 2654WAT     H111336   3.633   1.910   2.948  2.2067 -1.9425  1.9270
 2654WAT     H211337   3.564   1.795   2.922  0.0503 -0.3490  0.2089
 2654WAT    EPW11338   3.614   1.851   2.900  0.3474 -0.4310  0.6644
 2655WAT      O11339   2.634   4.238   1.104 -0.1269 -0.7084 -0.0585
 2655WAT     H111340   2.594   4.306   1.143  0.1057 -0.4216 -0.3173
 2655WAT     H211341   2.704   4.224   1.154 -1.3324 -2.2339  1.3360
 2655WAT    EPW11342   2.638   4.246   1.117 -0.2706 -0.8914  0.1092
 2656WAT      O11343   7.001   2.130   4.189 -0.1944 -0.5384 -0.0892
 2656WAT     H111344   6.999   2.071   4.253 -1.9307 -0.9526 -0.4703
 2656WAT     H211345   7.029   2.085   4.120 -0.5415 -0.6647 -0.1475
 2656WAT    EPW11346   7.005   2.115   4.188 -0.5022 -0.6183 -0.1541
 2657WAT      O11347   2.419   4.064   1.206 -0.6394  0.0533 -0.4287
 2657WAT     H111348   2.493   4.109   1.202 -0.8470  0.4329 -0.0574
 2657WAT     H211349   2.446   3.982   1.222 -0.3304  0.3346  0.5771
 2657WAT    EPW11350   2.434   4.058   1.208 -0.6244  0.1509 -0.2253
 2658WAT      O11351   5.703   4.030   3.719  0.3258  0.0894  0.7313
 2658WAT     H111352   5.692   3.947   3.744 -0.5347  0.2710  0.9767
 2658WAT     H211353   5.777   4.027   3.673  1.3615 -0.4558  2.3340
 2658WAT    EPW11354   5.713   4.017   3.716  0.3517  0.0357  1.0043
 2659WAT      O11355   6.938   4.648   3.854  0.4355 -0.3622 -0.0446
 2659WAT     H111356   6.933   4.620   3.772  0.4867 -1.0269  0.1748
 2659WAT     H211357   6.937   4.575   3.901  1.5103 -0.0408  0.5063
 2659WAT    EPW11358   6.937   4.633   3.849  0.6019 -0.4129  0.0692
 2660WAT      O11359   6.577   6.215   7.263  0.7192  0.4001 -0.3575
 2660WAT     H111360   6.552   6.245   7.185  0.2964  0.6887 -0.1202
 2660WAT     H211361   6.566   6.129   7.257  3.0505  0.1139 -1.4454
 2660WAT    EPW11362   6.572   6.207   7.251  1.0011  0.4004 -0.4831
 2661WAT      O11363   5.715   2.815   7.200 -0.7835  0.2318 -0.4876
 2661WAT     H111364   5.660   2.766   7.154 -0.6168 -0.0037 -0.4387
 2661WAT     H211365   5.664   2.877   7.235 -0.7053  1.3088 -2.1693
 2661WAT    EPW11366   5.699   2.817   7.198 -0.7473  0.3561 -0.7288
 2662WAT      O11367   0.187   1.938   2.501  0.0640  0.2209 -0.4133
 2662WAT     H111368   0.191   1.857   2.534 -0.3791 -0.4107 -1.8241
 2662WAT     H211369   0.170   1.988   2.571 -2.4623 -1.2154  0.1296
 2662WAT    EPW11370   0.185   1.934   2.516 -0.3747 -0.0845 -0.5415
 2663WAT      O11371   1.268   5.451   3.834  0.6496 -0.8021 -0.4104
 2663WAT     H111372   1.240   5.458   3.752  0.6007 -0.6084 -0.3763
 2663WAT     H211373   1.230   5.518   3.875  0.8623 -0.7614 -0.2811
 2663WAT    EPW11374   1.258   5.462   3.828  0.6738 -0.7674 -0.3863
 2664WAT      O11375   6.762   0.287   5.764  0.0853  0.0157  0.3289
 2664WAT     H111376   6.724   0.339   5.823 -0.0135 -1.0794  1.2589
 2664WAT     H211377   6.837   0.328   5.747 -1.3768  2.1596 -1.4601
 2664WAT    EPW11378   6.767   0.301   5.770 -0.1453  0.1706  0.2020
 2665WAT      O11379   0.949   1.060   3.828 -0.5570  0.0949 -0.5818
 2665WAT     H111380   0.932   1.111   3.897 -0.9162 -1.7350  0.7578
 2665WAT     H211381   0.950   0.980   3.862  3.9513 -0.6236 -1.7997
 2665WAT    EPW11382   0.946   1.056   3.843  0.0559 -0.2815 -0.5639
 2666WAT      O11383   7.223   3.832   6.125  0.2486 -0.5395  0.4016
 2666WAT     H111384   7.220   3.816   6.211  2.0877 -2.6498  0.1848
 2666WAT     H211385   7.294   3.881   6.116  0.4469 -0.8902  0.0334
 2666WAT    EPW11386   7.233   3.837   6.137  0.5496 -0.9030  0.3152
 2667WAT      O11387   6.316   6.853   1.279 -0.2756  0.2359  0.3401
 2667WAT     H111388   6.358   6.927   1.298 -0.3278  0.0165  1.4010
 2667WAT     H211389   6.304   6.816   1.357  0.5248 -1.3318 -0.2307
 2667WAT    EPW11390   6.320   6.858   1.294 -0.1651 -0.0281  0.4125
 2668WAT      O11391   4.989   1.040   1.561 -0.8853 -0.1402 -0.4911
 2668WAT     H111392   4.946   1.004   1.494 -0.1234 -0.6475 -0.7155
 2668WAT     H211393   5.039   0.975   1.591 -2.4740 -0.4912  1.7041
 2668WAT    EPW11394   4.990   1.025   1.556 -1.0075 -0.2670 -0.2000
 2669WAT      O11395   0.554   0.873   4.822 -0.5496 -0.0247  0.2874
 2669WAT     H111396   0.552   0.959   4.810 -1.8613  0.1929  1.6810
 2669WAT     H211397   0.635   0.857   4.851  0.4075  0.3744 -2.0077
 2669WAT    EPW11398   0.566   0.883   4.825 -0.6020  0.0664  0.1542
 2670WAT      O11399   7.117   1.572   3.272 -0.1427 -0.0603 -0.1762
 2670WAT     H111400   7.079   1.645   3.300  1.1015  0.1899  0.9862
 2670WAT     H211401   7.197   1.576   3.307  0.2964 -1.4826 -0.9379
 2670WAT    EPW11402   7.123   1.583   3.281  0.1059 -0.2335 -0.1170
 2671WAT      O11403   6.529   3.336   4.695  0.4463  0.1124  0.5434
 2671WAT     H111404   6.509   3.393   4.631  0.0712  0.2370  0.7621
 2671WAT     H211405   6.454   3.329   4.739 -0.3510 -2.5958 -1.0080
 2671WAT    EPW11406   6.515   3.344   4.692  0.2731 -0.2692  0.3465
 2672WAT      O11407   5.742   7.115   5.253  0.1367  0.1644 -0.2059
 2672WAT     H111408   5.719   7.114   5.169  0.3007 -0.5097 -0.2435
 2672WAT     H211409   5.707   7.190   5.282 -1.6362 -0.5464 -0.3894
 2672WAT    EPW11410   5.733   7.126   5.245 -0.1010 -0.0402 -0.2386
 2673WAT      O11411   1.065   1.990   3.299  0.6668 -0.7021 -0.2318
 2673WAT     H111412   1.128   1.937   3.325  1.0877 -0.1767 -0.1657
 2673WAT     H211413   1.096   2.024   3.224  1.1019  0.6372  0.5220
 2673WAT    EPW11414   1.079   1.987   3.292  0.7932 -0.4267 -0.1107
 2674WAT      O11415   4.377   5.847   1.217 -0.1902  0.7253 -0.0492
 2674WAT     H111416   4.457   5.813   1.226 -0.7660 -0.7032 -0.0723
 2674WAT     H211417   4.364   5.846   1.131 -1.5458 -2.4049  0.0671
 2674WAT    EPW11418   4.387   5.842   1.206 -0.4755  0.0519 -0.0354
 2675WAT      O11419   6.218   6.416   0.241  0.1755 -0.8576 -0.0603
 2675WAT     H111420   6.270   6.393   0.174  0.3421 -0.6609  0.0010
 2675WAT     H211421   6.274   6.429   0.307  0.1871  0.6710 -0.3370
 2675WAT    EPW11422   6.234   6.414   0.241  0.2018 -0.6027 -0.0921
 2676WAT      O11423   0.764   5.707   0.811 -0.7370  0.5830  0.1312
 2676WAT     H111424   0.694   5.747   0.778  0.1145  0.6327 -1.7225
 2676WAT     H211425   0.776   5.747   0.887 -1.4405  2.0852 -0.5105
 2676WAT    EPW11426   0.756   5.719   0.817 -0.7152  0.8122 -0.2374
 2677WAT      O11427   2.269   0.197   2.115 -0.2712  0.1163  0.0925
 2677WAT     H111428   2.248   0.188   2.200  0.3447  1.5483  0.4377
 2677WAT     H211429   2.293   0.117   2.091  0.5446 -0.1301  1.5732
 2677WAT    EPW11430   2.270   0.184   2.124 -0.0597  0.2914  0.3622
 2678WAT      O11431   5.972   6.422   1.958  0.4140  0.2906  0.5177
 2678WAT     H111432   5.913   6.485   1.948 -2.6718 -2.4688 -0.5737
 2678WAT     H211433   6.013   6.418   1.881 -0.0567  0.3516  0.2638
 2678WAT    EPW11434   5.970   6.431   1.945 -0.1114 -0.1080  0.3190
 2679WAT      O11435   6.328   1.070   4.627 -0.2076 -0.0133 -0.3602
 2679WAT     H111436   6.405   1.085   4.589  0.4858 -2.0157  0.1539
 2679WAT     H211437   6.301   0.995   4.592 -0.4187 -0.9636  1.6656
 2679WAT    EPW11438   6.335   1.061   4.616 -0.1363 -0.4495  0.0150
 2680WAT      O11439   5.535   2.002   0.585  0.3511  0.0839  0.2778
 2680WAT     H111440   5.450   2.005   0.562  0.7069 -1.6666 -1.6355
 2680WAT     H211441   5.566   2.079   0.559 -0.2622 -0.0787 -1.0333
 2680WAT    EPW11442   5.527   2.014   0.578  0.3131 -0.1987 -0.1985
 2681WAT      O11443   5.553   6.237   2.806 -0.3295 -0.1750  0.5070
 2681WAT     H111444   5.624   6.207   2.847  0.4956  0.3252 -0.5255
 2681WAT     H211445   5.549   6.188   2.734  0.5070  1.5176 -0.7480
 2681WAT    EPW11446   5.563   6.225   2.801 -0.0841  0.1489  0.1691
 2682WAT      O11447   5.929   3.195   7.056 -0.0970  0.4644  0.2876
 2682WAT     H111448   5.880   3.138   7.012 -0.0593  0.6495 -0.0001
 2682WAT     H211449   5.960   3.247   6.993  0.5290  0.3006  0.4583
 2682WAT    EPW11450   5.926   3.194   7.040  0.0011  0.4676  0.2703
 2683WAT      O11451   3.104   1.858   5.890 -0.1466  0.2368 -0.4368
 2683WAT     H111452   3.136   1.856   5.972 -0.2162  0.5983 -0.4008
 2683WAT     H211453   3.043   1.796   5.891 -2.2228  2.1464  0.6600
 2683WAT    EPW11454   3.100   1.848   5.902 -0.4636  0.5723 -0.2695
 2684WAT      O11455   0.962   1.509   4.887 -0.3086  0.0770  0.1791
 2684WAT     H111456   0.899   1.497   4.946 -0.8000  0.8614 -0.1583
 2684WAT     H211457   1.034   1.484   4.928 -0.6469  0.5888  1.1115
 2684WAT    EPW11458   0.963   1.504   4.902 -0.4311  0.2685  0.2670
 2685WAT      O11459   4.695   4.732   2.938  0.2733  0.1759  0.5646
 2685WAT     H111460   4.652   4.794   2.895 -0.5809  0.7010  2.0851
 2685WAT     H211461   4.651   4.659   2.920  1.2949 -0.0664 -1.2476
 2685WAT    EPW11462   4.682   4.730   2.929  0.2980  0.2177  0.5215
 2686WAT      O11463   2.613   6.910   6.712  0.2555  0.0513 -0.0569
 2686WAT     H111464   2.553   6.897   6.650 -0.3517  0.0947  0.5054
 2686WAT     H211465   2.580   6.867   6.781  1.0204 -0.1665  0.1768
 2686WAT    EPW11466   2.599   6.902   6.713  0.2788  0.0256  0.0607
 2687WAT      O11467   2.257   2.975   0.860 -0.8441 -0.5854  0.3446
 2687WAT     H111468   2.178   3.014   0.866 -0.5321  0.1588 -0.1711
 2687WAT     H211469   2.243   2.911   0.803 -0.6713  0.7271 -1.2591
 2687WAT    EPW11470   2.243   2.971   0.853 -0.7725 -0.2816  0.0315
 2688WAT      O11471   6.952   5.926   3.392 -0.0347 -0.2930 -0.3390
 2688WAT     H111472   6.962   5.861   3.449 -2.9194  0.0518  0.7349
 2688WAT     H211473   6.946   5.997   3.443  1.1120  0.5891 -1.3698
 2688WAT    EPW11474   6.953   5.927   3.408 -0.2914 -0.1118 -0.3326
 2689WAT      O11475   6.255   4.903   2.961 -0.3058 -0.2994 -0.5234
 2689WAT     H111476   6.234   4.988   2.961 -1.7713 -0.6432 -0.6257
 2689WAT     H211477   6.293   4.892   2.883  2.4881  0.8053  0.5404
 2689WAT    EPW11478   6.258   4.914   2.949 -0.1096 -0.1870 -0.3814
 2690WAT      O11479   4.528   1.432   6.065 -0.0249  0.0019  0.0582
 2690WAT     H111480   4.555   1.444   6.147  0.4465 -0.5008 -0.0154
 2690WAT     H211481   4.575   1.488   6.019 -3.0563  3.2765  0.5214
 2690WAT    EPW11482   4.539   1.442   6.070 -0.4031  0.4113  0.1158
 2691WAT      O11483   5.490   2.830   4.535 -0.6235 -0.1728 -0.6835
 2691WAT     H111484   5.527   2.906   4.556  0.5938 -0.8024 -0.4670
 2691WAT     H211485   5.477   2.836   4.449 -1.9465  0.8466 -0.4610
 2691WAT    EPW11486   5.493   2.842   4.525 -0.6391 -0.1152 -0.6186
 2692WAT      O11487   1.449   6.884   5.051 -0.0246  0.1189  0.6514
 2692WAT     H111488   1.476   6.872   5.134 -1.8751 -0.8701  1.1778
 2692WAT     H211489   1.510   6.842   5.004  0.2944 -0.5725  1.6349
 2692WAT    EPW11490   1.462   6.876   5.056 -0.2508 -0.1293  0.8744
 2693WAT      O11491   0.452   1.531   4.461 -0.7006 -0.2305 -0.2314
 2693WAT     H111492   0.494   1.535   4.537  0.1199 -1.4673 -0.5854
 2693WAT     H211493   0.383   1.584   4.472  0.8558  1.7479  0.4120
 2693WAT    EPW11494   0.448   1.539   4.474 -0.3495 -0.1210 -0.1886
 2694WAT      O11495   4.174   7.215   4.187  0.1927 -0.0695 -0.0556
 2694WAT     H111496   4.092   7.206   4.157  0.4147  0.1717 -0.7602
 2694WAT     H211497   4.222   7.215   4.114  0.6620  1.6900  0.2215
 2694WAT    EPW11498   4.169   7.213   4.172  0.2948  0.2261 -0.1187
 2695WAT      O11499   5.738   4.141   3.387 -0.2666 -0.1609  0.2100
 2695WAT     H111500   5.692   4.192   3.333 -2.4990 -1.5451  0.6814
 2695WAT     H211501   5.677   4.093   3.427  1.5599 -1.5163  1.5369
 2695WAT    EPW11502   5.722   4.141   3.385 -0.3265 -0.5656  0.4757
 2696WAT      O11503   5.944   2.636   4.244  0.1944  0.0164 -0.2952
 2696WAT     H111504   5.987   2.653   4.170  1.1333 -1.4237 -0.1185
 2696WAT     H211505   5.897   2.708   4.257  0.6020  0.6089 -1.8756
 2696WAT    EPW11506   5.944   2.649   4.235  0.3933 -0.1088 -0.5025
 2697WAT      O11507   3.402   1.776   4.772 -0.1995 -0.0879  0.0510
 2697WAT     H111508   3.389   1.803   4.690  1.9319  1.7136  0.1888
 2697WAT     H211509   3.340   1.817   4.818 -1.6006 -1.3501 -0.6397
 2697WAT    EPW11510   3.391   1.786   4.767 -0.0916 -0.0082 -0.0307
 2698WAT      O11511   0.155   1.020   3.933  0.4026 -0.4190  0.3778
 2698WAT     H111512   0.077   1.056   3.947  0.9172  0.7610  0.2856
 2698WAT     H211513   0.189   1.069   3.869  1.6197 -0.2894  1.1096
 2698WAT    EPW11514   0.148   1.032   3.925  0.6584 -0.2256  0.4723
 2699WAT      O11515   0.323   2.018   4.296 -0.1290 -0.1234  0.5112
 2699WAT     H111516   0.278   1.950   4.267  0.4940 -0.3808  0.1148
 2699WAT     H211517   0.308   2.080   4.236  1.4810 -0.7796 -0.6590
 2699WAT    EPW11518   0.314   2.017   4.283  0.2009 -0.2584  0.2798
 2700WAT      O11519   1.870   6.945   3.422  0.3439  0.0437 -0.1596
 2700WAT     H111520   1.899   6.869   3.454  2.0280  0.5197 -0.4667
 2700WAT     H211521   1.941   6.982   3.388 -0.7214  1.1266 -1.3199
 2700WAT    EPW11522   1.885   6.939   3.422  0.4353  0.2740 -0.3764
 2701WAT      O11523   0.867   6.178   2.570  0.3305  0.6449 -0.3723
 2701WAT     H111524   0.925   6.126   2.531 -0.4620 -1.2220  0.7888
 2701WAT     H211525   0.912   6.211   2.637  0.2581 -0.2855  0.1470
 2701WAT    EPW11526   0.882   6.175   2.574  0.2027  0.2317 -0.1241
 2702WAT      O11527   0.064   2.977   7.233 -0.1075 -0.2296 -0.9276
 2702WAT     H111528  -0.002   2.950   7.284 -1.5436  2.3974 -1.2031
 2702WAT     H211529   0.046   2.941   7.156 -0.7651 -0.2515 -0.7755
 2702WAT    EPW11530   0.052   2.968   7.229 -0.4168  0.1552 -0.9458
 2703WAT      O11531   1.652   3.613   6.345  0.6669 -0.5321  0.6329
 2703WAT     H111532   1.738   3.612   6.358  0.7786  1.4098  0.3685
 2703WAT     H211533   1.631   3.697   6.350 -0.9924 -0.7854 -0.7622
 2703WAT    EPW11534   1.661   3.625   6.347  0.4383 -0.2827  0.3878
 2704WAT      O11535   1.443   6.978   1.743 -0.0516 -0.6189 -0.4918
 2704WAT     H111536   1.361   6.989   1.717  0.1924  1.4927 -0.5485
 2704WAT     H211537   1.463   6.898   1.714 -2.1217 -1.2626 -0.2866
 2704WAT    EPW11538   1.434   6.968   1.735 -0.3214 -0.4021 -0.4699
 2705WAT      O11539   5.484   3.132   0.356  0.0099 -0.0720 -0.2849
 2705WAT     H111540   5.530   3.061   0.334 -0.7422 -0.6541 -0.0034
 2705WAT     H211541   5.495   3.138   0.442  0.6135  0.5479 -0.3979
 2705WAT    EPW11542   5.492   3.122   0.365 -0.0120 -0.0664 -0.2600
 2706WAT      O11543   7.099   3.327   0.177 -0.0599 -0.0561  0.1762
 2706WAT     H111544   7.160   3.331   0.239  0.9344 -0.7155 -0.7240
 2706WAT     H211545   7.096   3.242   0.157 -1.2559 -0.0341  0.1657
 2706WAT    EPW11546   7.108   3.315   0.183 -0.0897 -0.1503  0.0416
 2707WAT      O11547   1.936   5.373   0.204  0.1275 -0.5519  0.7352
 2707WAT     H111548   2.003   5.412   0.164  0.1897  0.1111  1.4684
 2707WAT     H211549   1.971   5.341   0.277 -0.9220  2.8032  2.9385
 2707WAT    EPW11550   1.951   5.374   0.209 -0.0183  0.0416  1.1690
 2708WAT      O11551   5.948   4.971   4.042  0.2440 -0.0079 -0.3898
 2708WAT     H111552   5.995   4.940   4.109  1.0094  1.5755 -0.1486
 2708WAT     H211553   5.877   5.004   4.080  0.1652 -0.0754 -0.4786
 2708WAT    EPW11554   5.945   4.972   4.058  0.3454  0.2160 -0.3673
 2709WAT      O11555   4.041   6.554   1.778  0.3325 -0.0149 -0.3537
 2709WAT     H111556   4.124   6.548   1.806  0.0149 -1.0288  0.4141
 2709WAT     H211557   4.006   6.613   1.831  0.2600 -0.4629  0.1040
 2709WAT    EPW11558   4.048   6.562   1.790  0.2748 -0.2309 -0.1727
 2710WAT      O11559   2.951   4.965   6.289 -0.1964  0.0156 -0.9814
 2710WAT     H111560   2.955   5.035   6.340  0.8704 -0.2702 -0.6364
 2710WAT     H211561   3.006   4.984   6.224 -0.5106 -0.1776 -1.3074
 2710WAT    EPW11562   2.960   4.978   6.287 -0.0852 -0.0551 -0.9786
 2711WAT      O11563   0.236   3.808   5.895  0.1411 -0.7107 -0.2010
 2711WAT     H111564   0.280   3.852   5.834  0.2019  0.9811  1.0112
 2711WAT     H211565   0.295   3.793   5.957 -0.3557 -0.7956  0.2562
 2711WAT    EPW11566   0.251   3.813   5.895  0.0767 -0.4733  0.0456
 2712WAT      O11567   6.547   3.327   3.380  0.2098  0.1957  0.4890
 2712WAT     H111568   6.586   3.405   3.382 -0.6114  0.6005  1.0241
 2712WAT     H211569   6.528   3.311   3.463 -0.4288 -0.1679  0.2816
 2712WAT    EPW11570   6.550   3.336   3.392 -0.0059  0.2018  0.5374
 2713WAT      O11571   2.976   3.248   0.644  0.4040 -0.0888 -0.5748
 2713WAT     H111572   2.935   3.173   0.625 -0.5885  0.6043 -1.2586
 2713WAT     H211573   2.924   3.309   0.610  0.7991  0.9667  0.6480
 2713WAT    EPW11574   2.962   3.246   0.636  0.3158  0.1695 -0.4952
 2714WAT      O11575   1.972   3.794   4.724 -0.0291 -0.0041  0.0765
 2714WAT     H111576   1.967   3.707   4.726  1.6962 -0.1338  1.3915
 2714WAT     H211577   2.029   3.810   4.660  0.0212  0.1249  0.1525
 2714WAT    EPW11578   1.980   3.784   4.715  0.2332 -0.0042  0.2820
 2715WAT      O11579   5.545   6.715   1.321 -0.3594  0.7741 -0.1156
 2715WAT     H111580   5.460   6.714   1.301 -0.0469 -0.5489 -1.5505
 2715WAT     H211581   5.548   6.765   1.393 -2.7408 -1.5092  1.7807
 2715WAT    EPW11582   5.533   6.722   1.328 -0.6651  0.2414 -0.0474
 2716WAT      O11583   5.678   4.917   0.748 -0.4049 -0.1470  0.1009
 2716WAT     H111584   5.722   4.983   0.786 -0.7600 -0.5391  1.2348
 2716WAT     H211585   5.618   4.958   0.699 -0.1685  0.3727  0.2405
 2716WAT    EPW11586   5.676   4.933   0.746 -0.4224 -0.1282  0.2890
 2717WAT      O11587   0.466   2.113   7.251  0.0494 -0.0357  0.1726
 2717WAT     H111588   0.386   2.104   7.218 -0.0432  1.1112  0.0560
 2717WAT     H211589   0.512   2.146   7.184  0.3625  0.3228  0.5651
 2717WAT    EPW11590   0.461   2.117   7.236  0.0820  0.1867  0.2134
 2718WAT      O11591   1.885   5.748   1.867  0.3049  0.2307 -0.1879
 2718WAT     H111592   1.857   5.815   1.819 -1.0193  1.0740  1.6350
 2718WAT     H211593   1.819   5.734   1.923  1.6523 -0.8096  1.2365
 2718WAT    EPW11594   1.871   5.756   1.869  0.3083  0.2016  0.2918
 2719WAT      O11595   3.646   1.491   0.468  0.6576  0.8426  0.0542
 2719WAT     H111596   3.642   1.406   0.487 -0.5694  0.2288 -2.4809
 2719WAT     H211597   3.604   1.529   0.535  0.4192 -0.6325  0.7779
 2719WAT    EPW11598   3.639   1.484   0.481  0.4411  0.5340 -0.2134
 2720WAT      O11599   0.328   2.482   7.362 -0.3734 -0.0105 -0.2883
 2720WAT     H111600   0.385   2.423   7.390 -1.2819 -0.6736  0.2246
 2720WAT     H211601   0.361   2.558   7.389  0.9130 -0.2371 -1.1298
 2720WAT    EPW11602   0.341   2.484   7.370 -0.3176 -0.1419 -0.3369
 2721WAT      O11603   3.358   7.099   7.297 -0.2514 -0.2651  0.2688
 2721WAT     H111604   3.309   7.056   7.239  0.5057  0.1904 -0.7321
 2721WAT     H211605   3.340   7.183   7.282 -2.0924 -0.1493  2.5460
 2721WAT    EPW11606   3.348   7.105   7.287 -0.4115 -0.1807  0.4573
 2722WAT      O11607   4.828   0.548   7.297  0.0953  0.3669  0.4265
 2722WAT     H111608   4.770   0.541   7.362 -1.1934  2.1266 -0.4146
 2722WAT     H211609   4.869   0.472   7.297 -0.4031  0.0185  2.7727
 2722WAT    EPW11610   4.825   0.536   7.306 -0.1687  0.5754  0.6488
 2723WAT      O11611   1.332   3.054   3.769  0.2887 -0.4770  0.4756
 2723WAT     H111612   1.322   3.046   3.856  0.0922  0.5648  0.5596
 2723WAT     H211613   1.265   3.009   3.736 -1.9349  2.1759  0.9475
 2723WAT    EPW11614   1.321   3.046   3.777 -0.0688  0.0688  0.5577
 2724WAT      O11615   0.519   2.772   4.047 -0.2197  0.0867  0.3385
 2724WAT     H111616   0.590   2.765   4.098  0.1922  1.1150 -0.0667
 2724WAT     H211617   0.494   2.855   4.059 -1.2817 -0.2298  0.3633
 2724WAT    EPW11618   0.526   2.783   4.057 -0.3157  0.1919  0.2823
 2725WAT      O11619   4.400   0.156   2.220  0.1322  0.5495 -0.0396
 2725WAT     H111620   4.351   0.194   2.159  0.6397  3.8098  1.3773
 2725WAT     H211621   4.463   0.214   2.236  0.0814 -0.1164  3.4469
 2725WAT    EPW11622   4.402   0.170   2.214  0.1997  0.9327  0.6848
 2726WAT      O11623   6.413   1.651   3.880 -0.4806  0.2897  0.4946
 2726WAT     H111624   6.422   1.570   3.850 -2.3455 -0.0571  0.7101
 2726WAT     H211625   6.418   1.642   3.966  1.5142  0.7797  0.4755
 2726WAT    EPW11626   6.415   1.638   3.888 -0.4614  0.3109  0.5236
 2727WAT      O11627   6.171   2.917   1.913  0.5944 -0.0625  0.5090
 2727WAT     H111628   6.087   2.928   1.932  0.4201  1.0143 -0.7383
 2727WAT     H211629   6.170   2.883   1.832  1.3510 -1.0264  0.8792
 2727WAT    EPW11630   6.158   2.913   1.904  0.6804 -0.0458  0.3795
 2728WAT      O11631   4.105   2.026   2.109 -0.1776  0.5806  0.5246
 2728WAT     H111632   4.040   2.041   2.052 -1.0099  2.2914  1.8310
 2728WAT     H211633   4.177   2.044   2.063 -0.7315  0.5683 -0.3863
 2728WAT    EPW11634   4.106   2.031   2.094 -0.3824  0.8315  0.5830
 2729WAT      O11635   1.107   0.603   0.625  0.2473 -0.1173 -0.0958
 2729WAT     H111636   1.138   0.636   0.699 -1.0075 -2.1085  1.4189
 2729WAT     H211637   1.027   0.639   0.618  0.0646 -0.5163 -0.0713
 2729WAT    EPW11638   1.100   0.614   0.635  0.0350 -0.4704  0.1316
 2730WAT      O11639   6.953   0.381   2.762 -0.8595  0.7495 -0.0489
 2730WAT     H111640   6.879   0.420   2.786 -0.0266  2.4044 -0.0865
 2730WAT     H211641   6.998   0.375   2.836 -0.8023  0.2120 -0.1198
 2730WAT    EPW11642   6.949   0.386   2.776 -0.7280  0.9146 -0.0649
 2731WAT      O11643   7.044   4.804   7.072 -0.2714  0.3259  0.0950
 2731WAT     H111644   7.049   4.886   7.100 -0.7844  0.5307 -0.3990
 2731WAT     H211645   6.968   4.802   7.028 -1.1994 -0.8689  1.6441
 2731WAT    EPW11646   7.034   4.816   7.070 -0.4843  0.1796  0.2508
 2732WAT      O11647   3.729   2.594   6.344 -0.0494 -0.0398 -0.1808
 2732WAT     H111648   3.801   2.556   6.377 -0.5730 -1.4334 -0.6115
 2732WAT     H211649   3.745   2.597   6.258 -0.4842 -0.3374 -0.2769
 2732WAT    EPW11650   3.742   2.589   6.336 -0.1910 -0.2896 -0.2587
 2733WAT      O11651   5.577   0.819   0.297 -0.1025  0.5948 -0.5086
 2733WAT     H111652   5.519   0.847   0.238 -0.1658  0.8123 -0.3421
 2733WAT     H211653   5.649   0.805   0.249 -0.6749 -1.0555 -0.9864
 2733WAT    EPW11654   5.579   0.821   0.281 -0.1964  0.3831 -0.5546
 2734WAT      O11655   5.098   0.861   2.592  0.0836  0.9259  0.6084
 2734WAT     H111656   5.150   0.920   2.554  0.3258  0.8180  0.7739
 2734WAT     H211657   5.120   0.865   2.676  1.2463 -0.5428  0.4069
 2734WAT    EPW11658   5.109   0.871   2.599  0.2911  0.6930  0.6031
 2735WAT      O11659   1.791   4.541   0.704 -0.6143 -0.0147 -0.2353
 2735WAT     H111660   1.759   4.475   0.751 -1.5060 -0.0112 -0.8009
 2735WAT     H211661   1.724   4.563   0.652  0.5450 -0.5132 -2.0480
 2735WAT    EPW11662   1.776   4.535   0.703 -0.5747 -0.0878 -0.5866
 2736WAT      O11663   6.418   2.817   3.433 -0.9727 -0.3950  0.1782
 2736WAT     H111664   6.483   2.783   3.480 -1.3144  0.0819  1.0094
 2736WAT     H211665   6.376   2.747   3.402 -0.5069 -0.7074  0.2526
 2736WAT    EPW11666   6.421   2.801   3.435 -0.9543 -0.3707  0.3120
 2737WAT      O11667   7.135   0.765   0.951  0.1125  0.1221  0.2195
 2737WAT     H111668   7.117   0.680   0.954  0.0121  0.1562  2.8029
 2737WAT     H211669   7.215   0.768   0.915  0.0126 -1.0282 -0.1301
 2737WAT    EPW11670   7.144   0.753   0.946  0.0829 -0.0428  0.5495
 2738WAT      O11671   6.706   1.588   1.536  0.1247  0.0117  0.0098
 2738WAT     H111672   6.762   1.615   1.597 -1.1681  0.6016  0.9946
 2738WAT     H211673   6.683   1.661   1.495  0.9101 -0.3717 -1.1573
 2738WAT    EPW11674   6.711   1.602   1.539  0.0497  0.0422 -0.0171
 2739WAT      O11675   0.368   4.660   1.640 -0.5193  0.4480 -0.4602
 2739WAT     H111676   0.311   4.623   1.585  1.6223 -0.5789 -2.1830
 2739WAT     H211677   0.358   4.616   1.714 -0.6461 -1.0928 -1.3416
 2739WAT    EPW11678   0.358   4.648   1.643 -0.2217  0.0687 -0.8449
 2740WAT      O11679   3.819   1.652   6.852 -0.5532  0.6430 -0.1440
 2740WAT     H111680   3.842   1.654   6.768  0.2374 -1.2093 -0.0145
 2740WAT     H211681   3.894   1.636   6.894 -1.0647  0.7746  0.8616
 2740WAT    EPW11682   3.833   1.650   6.846 -0.5120  0.3888  0.0236
 2741WAT      O11683   2.121   5.621   4.526 -0.0838  0.1847  0.2438
 2741WAT     H111684   2.153   5.602   4.605  0.8661 -1.9546 -0.5892
 2741WAT     H211685   2.035   5.627   4.540  0.1849  1.3747  1.6781
 2741WAT    EPW11686   2.113   5.619   4.540  0.0962  0.0444  0.3326
 2742WAT      O11687   0.570   2.075   0.439 -0.4328  0.3110 -0.0837
 2742WAT     H111688   0.650   2.051   0.415 -0.6595 -0.0963 -0.4518
 2742WAT     H211689   0.519   2.010   0.409 -0.9141  0.6344  0.0200
 2742WAT    EPW11690   0.574   2.061   0.431 -0.5374  0.2986 -0.1227
 2743WAT      O11691   2.350   1.310   4.465 -0.2930 -0.4645  0.2516
 2743WAT     H111692   2.349   1.378   4.411 -0.5286  0.0501  0.8816
 2743WAT     H211693   2.429   1.314   4.502  0.6859 -2.0449 -1.5341
 2743WAT    EPW11694   2.361   1.321   4.462 -0.1832 -0.6220  0.0809
 2744WAT      O11695   0.807   5.452   0.297  0.0901  0.2231  0.3191
 2744WAT     H111696   0.817   5.400   0.227  3.8580  0.9552  0.0942
 2744WAT     H211697   0.829   5.402   0.364 -1.2336  0.1875  0.7583
 2744WAT    EPW11698   0.812   5.437   0.296  0.4512  0.3260  0.3508
 2745WAT      O11699   1.527   5.771   7.273  0.1977  0.0320  0.1663
 2745WAT     H111700   1.580   5.760   7.341 -0.1498 -0.0164  0.4331
 2745WAT     H211701   1.452   5.796   7.310  0.4789  1.6523 -0.3070
 2745WAT    EPW11702   1.524   5.773   7.289  0.1879  0.2642  0.1358
 2746WAT      O11703   2.680   1.318   1.176 -0.0215  0.5766 -0.7834
 2746WAT     H111704   2.659   1.257   1.118  0.3507 -1.0825  0.7214
 2746WAT     H211705   2.759   1.294   1.204 -0.6300  0.6484  1.1756
 2746WAT    EPW11706   2.689   1.305   1.172 -0.0564  0.3421 -0.2717
 2747WAT      O11707   4.846   4.829   7.159  0.1316  0.3041  0.4095
 2747WAT     H111708   4.829   4.808   7.076 -0.9033  1.1739  0.3862
 2747WAT     H211709   4.769   4.855   7.190  0.3559 -0.6733  1.8644
 2747WAT    EPW11710   4.833   4.829   7.151  0.0119  0.2882  0.6210
 2748WAT      O11711   3.145   1.648   0.676  0.0638 -0.4813  0.2736
 2748WAT     H111712   3.088   1.659   0.741  0.5390 -2.9657  1.2141
 2748WAT     H211713   3.095   1.628   0.607 -0.3414  0.5509  0.2490
 2748WAT    EPW11714   3.129   1.647   0.675  0.0741 -0.6958  0.4089
 2749WAT      O11715   3.141   1.461   0.318  0.7834 -0.3606  0.0122
 2749WAT     H111716   3.107   1.532   0.355 -0.6666 -1.2664  0.5085
 2749WAT     H211717   3.152   1.406   0.385 -0.5901 -1.5248 -0.6497
 2749WAT    EPW11718   3.138   1.463   0.334  0.3664 -0.6664 -0.0122
 2750WAT      O11719   0.320   1.092   4.302  0.3193  0.8940  0.2015
 2750WAT     H111720   0.309   1.090   4.216 -1.3941 -0.1629  0.3837
 2750WAT     H211721   0.345   1.010   4.322 -0.4262  0.7922  0.7954
 2750WAT    EPW11722   0.322   1.079   4.292 -0.0439  0.7229  0.3161
 2751WAT      O11723   1.025   6.123   6.947  0.1664 -0.0931 -0.4961
 2751WAT     H111724   0.941   6.100   6.940 -0.4515  1.1128  1.9611
 2751WAT     H211725   1.067   6.054   6.915 -1.7369 -1.2171 -0.7522
 2751WAT    EPW11726   1.019   6.109   6.941 -0.2060 -0.0810 -0.1709
 2752WAT      O11727   2.616   6.401   4.285 -0.1734 -0.0041  0.0779
 2752WAT     H111728   2.633   6.316   4.293  2.4614  0.2720 -1.4790
 2752WAT     H211729   2.678   6.440   4.333 -0.5127  1.0423 -0.2929
 2752WAT    EPW11730   2.628   6.394   4.293  0.1657  0.1913 -0.2069
 2753WAT      O11731   1.683   4.200   1.243 -0.0634 -0.2661  0.7784
 2753WAT     H111732   1.609   4.163   1.217  0.7796 -1.9477  0.6139
 2753WAT     H211733   1.682   4.191   1.330 -0.3373  0.3188  0.8425
 2753WAT    EPW11734   1.672   4.193   1.252  0.0206 -0.4281  0.7636
 2754WAT      O11735   6.808   4.574   0.616  0.0601  0.5874 -0.4720
 2754WAT     H111736   6.849   4.603   0.545  0.3439 -0.0139 -0.5592
 2754WAT     H211737   6.772   4.646   0.650  1.8281  1.2825  0.0408
 2754WAT    EPW11738   6.809   4.589   0.611  0.3632  0.6013 -0.4091
 2755WAT      O11739   4.525   0.660   5.215 -0.4851 -0.3342 -0.3007
 2755WAT     H111740   4.502   0.648   5.132 -0.3043  0.0934 -0.4182
 2755WAT     H211741   4.452   0.691   5.253 -0.3166  0.3469 -0.5127
 2755WAT    EPW11742   4.511   0.663   5.209 -0.4335 -0.1704 -0.3494
 2756WAT      O11743   0.407   5.199   6.820 -0.2248  0.3070  0.2981
 2756WAT     H111744   0.455   5.126   6.817  0.1822  0.6013 -1.0403
 2756WAT     H211745   0.457   5.255   6.865 -0.3336 -0.0690  0.9097
 2756WAT    EPW11746   0.421   5.197   6.826 -0.1808  0.2949  0.1907
 2757WAT      O11747   5.552   0.571   0.420  0.1593 -0.6663 -0.1590
 2757WAT     H111748   5.630   0.537   0.399  0.2993 -0.2647 -0.2929
 2757WAT     H211749   5.552   0.649   0.381 -0.9336 -1.2748 -1.4548
 2757WAT    EPW11750   5.564   0.577   0.411  0.0185 -0.6968 -0.3702
 2758WAT      O11751   6.120   6.146   0.821 -0.0386 -0.7071 -0.0591
 2758WAT     H111752   6.174   6.201   0.862 -0.1362 -0.8112  0.2133
 2758WAT     H211753   6.043   6.162   0.859 -0.0750 -1.0046 -0.0068
 2758WAT    EPW11754   6.117   6.157   0.833 -0.0584 -0.7665 -0.0111
 2759WAT      O11755   6.120   6.758   4.851  0.4496 -0.0206  0.1729
 2759WAT     H111756   6.149   6.737   4.931 -0.6513 -0.8123  0.3837
 2759WAT     H211757   6.166   6.829   4.831  0.4700  0.4225  1.6758
 2759WAT    EPW11758   6.131   6.765   4.860  0.2900 -0.0721  0.4260
 2760WAT      O11759   1.254   4.654   1.502 -0.4681  0.8362  0.4572
 2760WAT     H111760   1.187   4.638   1.555 -0.1647  1.2450  0.9734
 2760WAT     H211761   1.323   4.652   1.555 -0.0491  0.2845 -0.0913
 2760WAT    EPW11762   1.254   4.651   1.518 -0.3614  0.8151  0.4524
 2761WAT      O11763   4.082   1.207   0.449 -0.2750 -0.6827  0.6503
 2761WAT     H111764   4.098   1.279   0.403  1.3194 -0.8416  0.8936
 2761WAT     H211765   4.115   1.143   0.398  0.6512 -0.9567  1.5746
 2761WAT    EPW11766   4.089   1.208   0.434  0.0973 -0.7466  0.8228
 2762WAT      O11767   3.255   0.739   5.143 -0.4088  0.5577 -0.4990
 2762WAT     H111768   3.271   0.779   5.068  0.1094  0.5373 -0.3979
 2762WAT     H211769   3.209   0.798   5.189 -0.9073  0.4946 -0.9023
 2762WAT    EPW11770   3.250   0.753   5.139 -0.4059  0.5454 -0.5436
 2763WAT      O11771   5.077   1.635   1.857  0.1149  0.0841  0.8009
 2763WAT     H111772   5.043   1.554   1.856  0.2094  0.0099  2.2607
 2763WAT     H211773   5.156   1.624   1.822 -0.3649 -0.1971 -0.2500
 2763WAT    EPW11774   5.084   1.621   1.852  0.0580  0.0316  0.8613
 2764WAT      O11775   6.558   2.194   2.786 -0.5401  0.8379  0.3837
 2764WAT     H111776   6.579   2.110   2.790 -0.7399  0.8481  2.5264
 2764WAT     H211777   6.630   2.232   2.756 -0.3614 -0.0259 -0.3487
 2764WAT    EPW11778   6.571   2.187   2.782 -0.5432  0.7118  0.5920
 2765WAT      O11779   1.300   0.488   5.888  0.8368 -0.1888 -0.5032
 2765WAT     H111780   1.286   0.475   5.803  0.0928 -0.5628 -0.3364
 2765WAT     H211781   1.221   0.507   5.919  1.0398 -0.3865  0.1601
 2765WAT    EPW11782   1.286   0.489   5.880  0.7568 -0.2733 -0.3806
 2766WAT      O11783   7.015   6.330   0.061  0.3106  0.2116 -0.3206
 2766WAT     H111784   6.997   6.382   0.129 -0.0928  1.4193 -1.3125
 2766WAT     H211785   6.962   6.360  -0.002  0.7926 -0.7703 -1.2184
 2766WAT    EPW11786   7.004   6.342   0.062  0.3222  0.2450 -0.5998
 2767WAT      O11787   0.102   6.599   1.827 -0.2338  0.1695  0.5314
 2767WAT     H111788   0.135   6.680   1.823 -0.6556  0.3716  0.9610
 2767WAT     H211789   0.140   6.566   1.898 -0.8772  0.3784  0.9878
 2767WAT    EPW11790   0.112   6.606   1.837 -0.3911  0.2302  0.6623
 2768WAT      O11791   2.101   5.941   6.399  0.1300  0.5335 -0.0538
 2768WAT     H111792   2.113   5.934   6.313  0.1495 -1.4519  0.0739
 2768WAT     H211793   2.014   5.943   6.407  0.0414 -1.3244 -0.0528
 2768WAT    EPW11794   2.090   5.940   6.387  0.1198 -0.0343 -0.0348
 2769WAT      O11795   3.656   1.209   2.334 -0.0203  0.3871 -0.1400
 2769WAT     H111796   3.700   1.179   2.265 -0.1748  1.2495 -0.6341
 2769WAT     H211797   3.590   1.153   2.343  2.1473 -2.0983  1.8100
 2769WAT    EPW11798   3.653   1.197   2.325  0.2771  0.1474  0.0750
 2770WAT      O11799   0.036   2.774   4.806  0.3140  0.2269 -0.1606
 2770WAT     H111800   0.018   2.828   4.872  1.1919  1.8139 -1.1409
 2770WAT     H211801  -0.021   2.797   4.744  0.9526  0.3124 -0.7300
 2770WAT    EPW11802   0.025   2.785   4.807  0.5381  0.4740 -0.3895
 2771WAT      O11803   1.588   1.841   2.898 -0.2993  0.2509  0.1727
 2771WAT     H111804   1.564   1.855   2.981 -2.8380  0.6791 -0.5580
 2771WAT     H211805   1.573   1.756   2.887 -0.9064  0.3887 -0.1038
 2771WAT    EPW11806   1.583   1.831   2.909 -0.7640  0.3345  0.0239
 2772WAT      O11807   4.318   4.718   5.373  0.0465  0.2243  0.2704
 2772WAT     H111808   4.249   4.771   5.374 -2.0361 -2.2949 -0.2260
 2772WAT     H211809   4.377   4.762   5.326 -1.2809  2.3508  0.4678
 2772WAT    EPW11810   4.317   4.732   5.367 -0.4572  0.1663  0.2263
 2773WAT      O11811   5.140   6.764   2.874  0.1341 -0.4562  0.2421
 2773WAT     H111812   5.218   6.730   2.854 -0.1307 -0.3721 -1.0327
 2773WAT     H211813   5.141   6.841   2.833 -0.3914 -0.1945  0.7203
 2773WAT    EPW11814   5.152   6.770   2.865  0.0174 -0.4051  0.1244
 2774WAT      O11815   2.895   3.055   3.052 -0.1225  0.1921 -0.1687
 2774WAT     H111816   2.928   3.135   3.049 -0.6095  0.4393  0.8082
 2774WAT     H211817   2.877   3.038   2.968  0.5836  0.8328 -0.4651
 2774WAT    EPW11818   2.897   3.064   3.039 -0.0901  0.3232 -0.0682
 2775WAT      O11819   4.472   5.911   1.892 -0.1914  0.0918 -0.1894
 2775WAT     H111820   4.489   5.899   1.977  3.4416 -0.7486 -0.8583
 2775WAT     H211821   4.388   5.888   1.885  0.2527 -3.4438  2.6324
 2775WAT    EPW11822   4.462   5.906   1.903  0.4109 -0.5546  0.1286
 2776WAT      O11823   0.134   6.949   4.181 -0.3181 -0.1792  0.3749
 2776WAT     H111824   0.086   7.021   4.189 -0.5649 -0.2789 -0.2119
 2776WAT     H211825   0.210   6.979   4.151 -0.8470 -0.2958 -1.1392
 2776WAT    EPW11826   0.138   6.964   4.178 -0.4327 -0.2112  0.0645
 2777WAT      O11827   1.208   5.547   0.535 -0.0173 -0.3219  0.3267
 2777WAT     H111828   1.277   5.600   0.534 -0.2094 -0.0510  0.7103
 2777WAT     H211829   1.235   5.476   0.494  1.1133 -0.9884  2.0878
 2777WAT    EPW11830   1.222   5.544   0.529  0.1214 -0.3804  0.6435
 2778WAT      O11831   5.075   2.008   4.351  0.5750  0.6024  0.2625
 2778WAT     H111832   5.055   2.039   4.272  1.3110 -0.0462 -0.1898
 2778WAT     H211833   5.140   2.060   4.378 -0.1565  1.2785  0.7609
 2778WAT    EPW11834   5.081   2.020   4.343  0.5757  0.6065  0.2693
 2779WAT      O11835   6.581   4.957   5.615  0.2086  0.0797 -0.4617
 2779WAT     H111836   6.550   4.926   5.690 -1.0451 -1.0175 -1.3934
 2779WAT     H211837   6.523   4.930   5.555  0.7835  1.5100 -1.7513
 2779WAT    EPW11838   6.567   4.949   5.617  0.1083  0.1289 -0.7899
 2780WAT      O11839   6.426   6.316   5.163 -0.6826 -0.2961  0.2038
 2780WAT     H111840   6.476   6.293   5.095 -0.2605  1.9983 -0.3644
 2780WAT     H211841   6.466   6.387   5.195 -1.1209 -1.0410  2.6087
 2780WAT    EPW11842   6.439   6.323   5.158 -0.6850 -0.0672  0.4751
 2781WAT      O11843   7.306   1.715   1.530  0.0752  0.5254  0.0024
 2781WAT     H111844   7.357   1.666   1.582 -1.8484 -1.2518  0.3654
 2781WAT     H211845   7.352   1.721   1.456  0.4842 -1.7965 -0.0129
 2781WAT    EPW11846   7.321   1.708   1.527 -0.1485 -0.0801  0.0538
 2782WAT      O11847   3.449   3.964   7.407 -0.1720  0.1194  0.2247
 2782WAT     H111848   3.514   4.002   7.362  0.2848 -0.5944  0.2667
 2782WAT     H211849   3.391   3.943   7.345 -1.1846  2.2701  0.3514
 2782WAT    EPW11850   3.450   3.966   7.391 -0.2541  0.3317  0.2496
 2783WAT      O11851   6.311   0.975   1.226 -0.2329  0.2597  0.3399
 2783WAT     H111852   6.317   1.021   1.300  0.2872  0.4254  0.2045
 2783WAT     H211853   6.388   0.989   1.187 -1.1102  1.5222 -1.0427
 2783WAT    EPW11854   6.324   0.984   1.231 -0.2857  0.4706  0.1156
 2784WAT      O11855   4.204   4.156   5.025  0.1804 -0.1579 -0.2264
 2784WAT     H111856   4.179   4.238   5.007 -1.0716 -0.3797  0.4319
 2784WAT     H211857   4.277   4.167   5.071  0.6125  0.5457 -1.0475
 2784WAT    EPW11858   4.211   4.170   5.029  0.0593 -0.0867 -0.2505
 2785WAT      O11859   4.920   5.450   0.255 -0.1934  0.3447  0.5416
 2785WAT     H111860   4.964   5.383   0.221 -1.6429  0.1223 -1.0293
 2785WAT     H211861   4.972   5.519   0.239 -0.1351  0.0179 -0.7757
 2785WAT    EPW11862   4.934   5.451   0.248 -0.3990  0.2636  0.1150
 2786WAT      O11863   4.254   5.400   5.178  0.7904  0.1817  0.2416
 2786WAT     H111864   4.308   5.400   5.247  1.7782 -0.3862 -0.5086
 2786WAT     H211865   4.282   5.333   5.130 -1.7142 -1.2908  0.6630
 2786WAT    EPW11866   4.266   5.390   5.181  0.5663 -0.1197  0.1931
 2787WAT      O11867   2.993   1.618   7.277  0.0368 -0.1751 -0.1247
 2787WAT     H111868   3.014   1.666   7.348  0.7857  0.5401 -0.7982
 2787WAT     H211869   3.068   1.577   7.258  0.0191  0.1299 -0.8660
 2787WAT    EPW11870   3.007   1.619   7.285  0.1449 -0.0244 -0.3337
 2788WAT      O11871   6.684   1.215   6.843 -0.4418  0.2982  0.2942
 2788WAT     H111872   6.685   1.218   6.930 -2.1942  1.0097  0.3308
 2788WAT     H211873   6.768   1.206   6.822 -0.0094 -0.1584  2.0557
 2788WAT    EPW11874   6.697   1.214   6.853 -0.6368  0.3359  0.5598
 2789WAT      O11875   4.715   6.072   3.849  0.0495  0.1419 -0.0061
 2789WAT     H111876   4.710   6.044   3.932 -0.1380 -0.3403 -0.1756
 2789WAT     H211877   4.671   6.011   3.804 -0.0216  0.5065 -0.4370
 2789WAT    EPW11878   4.708   6.059   3.855  0.0113  0.1245 -0.0948
 2790WAT      O11879   4.662   1.237   7.294 -0.3755 -0.5357 -0.0976
 2790WAT     H111880   4.677   1.153   7.309 -1.1769 -0.8299 -0.8216
 2790WAT     H211881   4.690   1.277   7.366 -0.5250 -1.4828  0.4956
 2790WAT    EPW11882   4.668   1.231   7.307 -0.5159 -0.7191 -0.1169
 2791WAT      O11883   6.964   5.151   0.489  0.3484  0.1191 -0.1858
 2791WAT     H111884   7.048   5.134   0.501  0.2510  0.4305  1.0343
 2791WAT     H211885   6.964   5.210   0.425  0.9300 -1.1408 -1.4030
 2791WAT    EPW11886   6.976   5.157   0.481  0.4199 -0.0210 -0.1854
 2792WAT      O11887   3.866   2.604   0.695 -0.1651 -0.5295  0.7926
 2792WAT     H111888   3.894   2.603   0.777 -1.3178 -0.7299  1.2061
 2792WAT     H211889   3.845   2.688   0.681  0.2833 -0.4458  0.6061
 2792WAT    EPW11890   3.867   2.616   0.705 -0.2691 -0.5467  0.8261
 2793WAT      O11891   3.155   6.453   1.081  0.1489  0.3817 -0.8170
 2793WAT     H111892   3.236   6.437   1.108 -0.0861  1.4326  0.6279
 2793WAT     H211893   3.159   6.535   1.049 -0.2256  0.2357 -1.2583
 2793WAT    EPW11894   3.167   6.463   1.080  0.0589  0.5154 -0.6687
 2794WAT      O11895   1.562   4.141   5.925 -0.6800 -0.2241 -0.2322
 2794WAT     H111896   1.573   4.176   6.004 -0.6444 -0.1424 -0.2733
 2794WAT     H211897   1.636   4.160   5.883 -1.0713  0.5814 -0.6026
 2794WAT    EPW11898   1.574   4.149   5.930 -0.7326 -0.0931 -0.2930
 2795WAT      O11899   5.772   4.142   6.853  0.4166 -0.3066 -0.2208
 2795WAT     H111900   5.696   4.133   6.812 -0.1973 -1.3422  1.0663
 2795WAT     H211901   5.822   4.182   6.794 -1.4422  1.4980 -0.7022
 2795WAT    EPW11902   5.768   4.147   6.838  0.0513 -0.1930 -0.1018
 2796WAT      O11903   6.571   4.043   4.464 -0.5484 -0.5946  0.2416
 2796WAT     H111904   6.622   3.977   4.490 -2.2195 -0.8903  3.2552
 2796WAT     H211905   6.627   4.106   4.443  1.0736 -1.5949  1.3658
 2796WAT    EPW11906   6.587   4.042   4.465 -0.5556 -0.7860  0.8528
 2797WAT      O11907   0.113   6.155   7.271  0.6772  0.3694  0.2098
 2797WAT     H111908   0.178   6.097   7.279 -0.8586 -1.6757 -1.0277
 2797WAT     H211909   0.127   6.191   7.193 -0.1266 -0.7598 -0.4856
 2797WAT    EPW11910   0.125   6.151   7.261  0.3316 -0.0996 -0.0757
 2798WAT      O11911   4.005   0.621   5.310 -0.3847  0.3613 -0.4731
 2798WAT     H111912   4.073   0.671   5.288  0.5877 -0.9312 -0.5420
 2798WAT     H211913   4.035   0.540   5.299 -2.7540 -0.3160 -3.0338
 2798WAT    EPW11914   4.020   0.617   5.305 -0.5911  0.0703 -0.8615
 2799WAT      O11915   1.328   2.355   5.638  0.1682 -0.0361  0.6849
 2799WAT     H111916   1.325   2.370   5.552  1.0170 -1.2616  0.3988
 2799WAT     H211917   1.297   2.428   5.674  3.0648  2.0119 -0.5399
 2799WAT    EPW11918   1.323   2.368   5.631  0.7215  0.0854  0.4617
 2800WAT      O11919   6.493   4.262   3.016 -0.1332  0.1932 -0.7830
 2800WAT     H111920   6.409   4.277   3.033 -0.2841 -0.4814 -0.8683
 2800WAT     H211921   6.501   4.176   3.031  0.5541  0.2697 -0.7130
 2800WAT    EPW11922   6.481   4.251   3.020 -0.0540  0.1048 -0.7853
 2801WAT      O11923   4.681   6.993   7.131  0.2406  0.1464  0.5682
 2801WAT     H111924   4.611   6.941   7.130  0.7178 -0.5068  0.5934
 2801WAT     H211925   4.704   6.996   7.215 -0.3005  1.1181  0.6983
 2801WAT    EPW11926   4.674   6.986   7.143  0.2311  0.1934  0.5911
 2802WAT      O11927   0.135   4.207   5.692 -0.3247  0.1266 -0.3792
 2802WAT     H111928   0.087   4.197   5.765 -1.9512  0.6376 -1.3331
 2802WAT     H211929   0.098   4.151   5.636 -1.3163  2.1059 -1.8361
 2802WAT    EPW11930   0.122   4.197   5.695 -0.7114  0.4945 -0.7353
 2803WAT      O11931   3.295   3.459   6.574  0.2273  0.1618  0.0261
 2803WAT     H111932   3.367   3.464   6.623  0.9165 -1.7434 -0.7099
 2803WAT     H211933   3.321   3.485   6.495  0.0524 -0.2533 -0.1735
 2803WAT    EPW11934   3.309   3.464   6.570  0.3033 -0.1810 -0.1121
 2804WAT      O11935   4.869   0.863   0.827  0.5561 -0.2484  0.6840
 2804WAT     H111936   4.882   0.912   0.756 -0.1161 -0.1822  0.5959
 2804WAT     H211937   4.933   0.886   0.881  0.0706  0.9567  0.7715
 2804WAT    EPW11938   4.880   0.873   0.824  0.3851 -0.0606  0.6839
 2805WAT      O11939   1.846   4.960   0.789 -0.5656 -0.4816  0.4467
 2805WAT     H111940   1.849   4.877   0.814  0.4548 -0.6752 -0.2293
 2805WAT     H211941   1.893   4.961   0.716 -0.0019  0.8025  0.7922
 2805WAT    EPW11942   1.854   4.948   0.782 -0.3316 -0.3205  0.3979
 2806WAT      O11943   4.505   2.841   3.692  0.3045  0.5699 -0.4697
 2806WAT     H111944   4.419   2.851   3.687 -0.4374 -3.5980  0.6957
 2806WAT     H211945   4.526   2.801   3.618  0.7411 -0.7005  0.3103
 2806WAT    EPW11946   4.496   2.837   3.680  0.2594 -0.2335 -0.1824
 2807WAT      O11947   6.706   1.095   1.697  0.2087 -0.1470  0.0444
 2807WAT     H111948   6.672   1.077   1.618 -0.6544  0.4611  0.2619
 2807WAT     H211949   6.745   1.020   1.720  0.9929 -0.1515 -1.2065
 2807WAT    EPW11950   6.707   1.081   1.688  0.1970 -0.0578 -0.1082
 2808WAT      O11951   0.362   1.875   6.243  0.7344  0.1040  0.7934
 2808WAT     H111952   0.419   1.837   6.298  1.2941  0.2378  0.3177
 2808WAT     H211953   0.351   1.816   6.181 -0.8729 -0.5645  1.6504
 2808WAT    EPW11954   0.369   1.861   6.242  0.5797  0.0250  0.8497
 2809WAT      O11955   6.202   2.449   5.090  0.4585 -0.1018  0.1273
 2809WAT     H111956   6.124   2.451   5.052  0.5480 -0.2531 -0.0701
 2809WAT     H211957   6.235   2.528   5.075 -0.0767  0.3214  1.1176
 2809WAT    EPW11958   6.196   2.461   5.082  0.3926 -0.0616  0.2444
 2810WAT      O11959   4.421   3.436   7.002 -0.1649  0.0913 -0.2383
 2810WAT     H111960   4.455   3.409   6.926 -0.0917  0.6439 -0.4138
 2810WAT     H211961   4.428   3.523   6.997 -0.8684  0.1768  0.0696
 2810WAT    EPW11962   4.427   3.445   6.990 -0.2580  0.1856 -0.2188
 2811WAT      O11963   0.785   3.773   3.299  0.0560  0.5347  0.2675
 2811WAT     H111964   0.863   3.811   3.300  0.0293  0.6699 -0.9387
 2811WAT     H211965   0.730   3.841   3.297 -0.1861  0.4766  2.6373
 2811WAT    EPW11966   0.788   3.788   3.299  0.0163  0.5461  0.4394
 2812WAT      O11967   5.595   0.894   0.580 -0.4822 -0.4203  0.3068
 2812WAT     H111968   5.579   0.978   0.592  0.5782 -0.1609  0.0309
 2812WAT     H211969   5.574   0.880   0.497  0.2761 -0.1835  0.0678
 2812WAT    EPW11970   5.590   0.904   0.570 -0.2136 -0.3470  0.2307
 2813WAT      O11971   4.057   3.260   0.813  0.5286  0.7487  0.5710
 2813WAT     H111972   4.035   3.270   0.730  2.8261  0.6916 -0.0978
 2813WAT     H211973   4.047   3.339   0.847  2.4899  1.5451 -0.5579
 2813WAT    EPW11974   4.052   3.273   0.806  1.1577  0.8579  0.3055
 2814WAT      O11975   4.858   3.144   3.560 -0.1351  0.1045 -0.1386
 2814WAT     H111976   4.817   3.164   3.634 -0.6730  0.2834 -0.4806
 2814WAT     H211977   4.942   3.161   3.578 -0.3745  1.0858  0.1163
 2814WAT    EPW11978   4.864   3.149   3.574 -0.2499  0.2759 -0.1514
 2815WAT      O11979   5.109   5.607   5.186  0.0738  0.2169  0.0967
 2815WAT     H111980   5.037   5.647   5.156 -0.9060  1.5410  3.6455
 2815WAT     H211981   5.158   5.672   5.216  1.1303 -0.8913  0.8804
 2815WAT    EPW11982   5.105   5.622   5.186  0.0851  0.2488  0.7367
 2816WAT      O11983   6.349   0.352   4.139 -0.7232 -0.8181  0.0221
 2816WAT     H111984   6.322   0.342   4.057  1.0156 -2.2231 -0.4537
 2816WAT     H211985   6.312   0.285   4.181  0.6132 -1.7960 -0.2863
 2816WAT    EPW11986   6.340   0.341   4.133 -0.2690 -1.1701 -0.0938
 2817WAT      O11987   4.971   4.385   2.015 -0.4361  0.4847 -0.4050
 2817WAT     H111988   5.031   4.447   2.024 -0.5423  0.5646 -0.2334
 2817WAT     H211989   4.900   4.420   2.052  0.0395 -0.5248  1.6122
 2817WAT    EPW11990   4.969   4.399   2.022 -0.3815  0.3474 -0.0817
 2818WAT      O11991   0.097   6.596   2.980  0.7111 -0.1807 -0.3744
 2818WAT     H111992   0.142   6.669   2.966  3.4996 -1.6200  0.3504
 2818WAT     H211993   0.152   6.533   2.955 -1.2188 -2.0798 -0.1079
 2818WAT    EPW11994   0.112   6.597   2.974  0.8379 -0.6738 -0.2280
 2819WAT      O11995   5.977   0.649   6.298  0.9378  0.5804  0.2234
 2819WAT     H111996   6.024   0.654   6.225  0.0365  0.0374 -0.4083
 2819WAT     H211997   5.899   0.681   6.275 -0.5290 -2.7942 -0.0971
 2819WAT    EPW11998   5.972   0.655   6.284  0.5880  0.0017  0.0827
 2820WAT      O11999   5.985   5.877   4.050 -0.4138 -0.0307 -0.1899
 2820WAT     H112000   5.991   5.956   4.014  1.4785 -0.2650 -0.4582
 2820WAT     H212001   6.026   5.825   3.993  0.7821 -0.7458  1.2548
 2820WAT    EPW12002   5.992   5.881   4.036  0.0424 -0.1709 -0.0161
 2821WAT      O12003   3.982   5.798   1.983  0.0874 -0.3984  0.3615
 2821WAT     H112004   4.043   5.828   1.928  0.9313  0.0207  1.4956
 2821WAT     H212005   3.954   5.725   1.945 -0.8613  0.9403 -1.6720
 2821WAT    EPW12006   3.987   5.792   1.969  0.0720 -0.1387  0.2286
 2822WAT      O12007   0.893   3.968   4.780  0.0025 -0.1181  0.0484
 2822WAT     H112008   0.941   3.947   4.850 -0.5073  0.0262  0.4499
 2822WAT     H212009   0.900   4.055   4.776 -1.2039  0.0367  0.8487
 2822WAT    EPW12010   0.901   3.977   4.790 -0.2510 -0.0739  0.2259
 2823WAT      O12011   0.127   1.381   5.079 -0.0220  0.6315  0.7154
 2823WAT     H112012   0.160   1.390   5.159 -0.5349  0.0797  0.9954
 2823WAT     H212013   0.089   1.303   5.081  1.1458 -0.0201 -0.4964
 2823WAT    EPW12014   0.126   1.371   5.091  0.0747  0.4538  0.5778
 2824WAT      O12015   4.831   5.113   0.429  0.5852  0.2679  0.1825
 2824WAT     H112016   4.903   5.073   0.458 -0.1967 -0.2101  1.5971
 2824WAT     H212017   4.780   5.115   0.500 -0.7353  0.7166 -0.7510
 2824WAT    EPW12018   4.834   5.107   0.444  0.2747  0.2636  0.2535
 2825WAT      O12019   3.356   4.461   1.126  0.1003  0.1016  0.1685
 2825WAT     H112020   3.397   4.530   1.092 -1.9892  1.3436  0.0257
 2825WAT     H212021   3.361   4.401   1.063  0.8477  0.5410 -0.2015
 2825WAT    EPW12022   3.363   4.462   1.112 -0.0980  0.3500  0.0927
 2826WAT      O12023   6.159   4.090   0.802 -0.3330  0.0665 -0.3475
 2826WAT     H112024   6.097   4.126   0.851  0.2138  0.0749  0.3693
 2826WAT     H212025   6.159   4.137   0.729 -0.5058  0.6763  0.0443
 2826WAT    EPW12026   6.150   4.102   0.798 -0.2778  0.1578 -0.1837
 2827WAT      O12027   3.589   3.620   5.758 -0.1089  0.7144 -0.4791
 2827WAT     H112028   3.569   3.557   5.700  0.6586  0.3864 -0.3882
 2827WAT     H212029   3.583   3.693   5.711  1.4577  0.3857 -1.2489
 2827WAT    EPW12030   3.585   3.621   5.742  0.2359  0.6174 -0.5794
 2828WAT      O12031   2.794   3.181   4.972  0.3703  0.2215  0.1524
 2828WAT     H112032   2.876   3.197   4.997  0.1302 -0.3991  1.4175
 2828WAT     H212033   2.752   3.165   5.047 -0.7163 -0.3328 -0.5462
 2828WAT    EPW12034   2.800   3.181   4.987  0.1743  0.0479  0.2361
 2829WAT      O12035   5.233   5.731   2.824  0.3944  0.6764 -0.0762
 2829WAT     H112036   5.189   5.780   2.766 -0.1390 -0.2535 -0.4875
 2829WAT     H212037   5.171   5.682   2.861  0.9647 -0.0420 -0.0398
 2829WAT    EPW12038   5.217   5.731   2.821  0.3999  0.4329 -0.1316
 2830WAT      O12039   6.419   6.706   0.107  0.3309 -0.2306  0.9216
 2830WAT     H112040   6.504   6.703   0.086 -0.0857 -1.0878 -0.8599
 2830WAT     H212041   6.401   6.791   0.112  1.1917 -0.0386  0.8305
 2830WAT    EPW12042   6.429   6.718   0.104  0.3965 -0.3288  0.6450
 2831WAT      O12043   1.563   2.162   5.471 -0.0741 -0.2103 -0.2523
 2831WAT     H112044   1.554   2.133   5.553 -0.1139  0.4269 -0.0262
 2831WAT     H212045   1.503   2.118   5.427  0.4357 -1.1063 -0.0882
 2831WAT    EPW12046   1.553   2.151   5.477 -0.0047 -0.2485 -0.1947
 2832WAT      O12047   1.376   1.682   6.338 -0.2142 -0.4722  0.3741
 2832WAT     H112048   1.461   1.699   6.343  0.0170  0.6723 -3.7188
 2832WAT     H212049   1.373   1.595   6.337  0.9453 -0.5310  0.3628
 2832WAT    EPW12050   1.388   1.672   6.338 -0.0088 -0.3118 -0.2322
 2833WAT      O12051   5.304   3.171   3.848  0.2289  0.3303  0.7125
 2833WAT     H112052   5.260   3.194   3.776  0.3804 -2.4440 -0.4131
 2833WAT     H212053   5.241   3.152   3.905  0.0296 -0.2281  0.3138
 2833WAT    EPW12054   5.289   3.172   3.846  0.2218 -0.1621  0.4873
 2834WAT      O12055   1.443   0.701   0.586 -0.5515 -0.6195 -0.2540
 2834WAT     H112056   1.380   0.739   0.540  0.2342 -1.0875 -1.7847
 2834WAT     H212057   1.470   0.764   0.640 -0.9328  0.2148 -1.0179
 2834WAT    EPW12058   1.438   0.716   0.587 -0.4918 -0.5654 -0.5929
 2835WAT      O12059   3.862   4.012   5.240 -0.0808  0.4438 -0.1448
 2835WAT     H112060   3.797   4.068   5.258 -0.9243 -0.7593  0.7154
 2835WAT     H212061   3.932   4.052   5.273 -0.2467  2.0152 -1.5538
 2835WAT    EPW12062   3.863   4.027   5.248 -0.2299  0.4982 -0.2258
 2836WAT      O12063   3.016   0.226   4.500 -0.0057 -0.0467 -0.0242
 2836WAT     H112064   2.975   0.191   4.568 -1.0256  1.7133  0.3277
 2836WAT     H212065   2.989   0.309   4.499  2.9612  1.0527 -0.2433
 2836WAT    EPW12066   3.006   0.233   4.510  0.2819  0.3757 -0.0046
 2837WAT      O12067   3.805   1.530   4.422 -0.0445 -0.0580 -0.8193
 2837WAT     H112068   3.877   1.575   4.408  0.4579 -0.5169  0.1567
 2837WAT     H212069   3.787   1.494   4.345  0.2197  0.8180 -1.3012
 2837WAT    EPW12070   3.813   1.531   4.409  0.0688  0.0036 -0.7463
 2838WAT      O12071   5.830   0.939   0.891  0.1671 -0.6428 -0.2298
 2838WAT     H112072   5.908   0.947   0.929  0.0199 -1.4474  0.2587
 2838WAT     H212073   5.782   1.001   0.929  0.1437 -1.1525  0.5979
 2838WAT    EPW12074   5.834   0.949   0.902  0.1419 -0.8370 -0.0354
 2839WAT      O12075   3.348   5.820   6.670 -0.2496  0.5076  0.1385
 2839WAT     H112076   3.333   5.796   6.587  0.9244 -2.3994  0.6666
 2839WAT     H212077   3.380   5.901   6.662 -1.1531  0.7288 -2.1334
 2839WAT    EPW12078   3.350   5.829   6.656 -0.2096  0.1108 -0.1191
 2840WAT      O12079   2.847   4.755   5.857  0.1383  0.7208 -0.2778
 2840WAT     H112080   2.787   4.720   5.805  1.3553 -1.5642 -0.2901
 2840WAT     H212081   2.806   4.762   5.934 -0.1314 -1.0411 -0.2128
 2840WAT    EPW12082   2.832   4.751   5.861  0.2782  0.1230 -0.2700
 2841WAT      O12083   4.937   3.576   1.218  0.0535 -0.4035 -0.1508
 2841WAT     H112084   4.879   3.521   1.183  1.0677 -1.4106 -0.2972
 2841WAT     H212085   4.934   3.557   1.303 -1.7644  1.4310  0.2702
 2841WAT    EPW12086   4.928   3.565   1.225 -0.0653 -0.2813 -0.1102
 2842WAT      O12087   6.493   5.627   6.197 -0.2281  0.1627 -0.7782
 2842WAT     H112088   6.480   5.712   6.187  1.1622  0.4372 -0.4512
 2842WAT     H212089   6.507   5.598   6.115  1.6336  0.7024 -0.7043
 2842WAT    EPW12090   6.494   5.635   6.183  0.2523  0.2829 -0.7190
 2843WAT      O12091   5.597   5.203   6.470 -0.0449  0.7965 -0.0872
 2843WAT     H112092   5.629   5.244   6.540  0.7663  2.3779 -1.3385
 2843WAT     H212093   5.510   5.212   6.480 -0.3874 -3.1001  3.0668
 2843WAT    EPW12094   5.589   5.210   6.482  0.0243  0.4545  0.1939
 2844WAT      O12095   5.208   6.264   3.039  0.7982 -0.0084 -0.1421
 2844WAT     H112096   5.234   6.186   3.011  1.4302  0.7583 -1.7927
 2844WAT     H212097   5.224   6.317   2.972 -0.9065  1.3184  0.4122
 2844WAT    EPW12098   5.214   6.260   3.025  0.6397  0.3008 -0.3040
 2845WAT      O12099   4.762   2.492   7.003  0.2578  0.1402  0.8213
 2845WAT     H112100   4.772   2.553   6.941  1.6189  1.3450  2.1450
 2845WAT     H212101   4.779   2.418   6.961 -0.7038  0.6919 -0.6612
 2845WAT    EPW12102   4.766   2.490   6.988  0.3168  0.3997  0.7978
 2846WAT      O12103   0.475   5.247   6.142  0.4073 -0.3694 -0.4254
 2846WAT     H112104   0.523   5.203   6.084 -2.0459  0.5925 -3.4071
 2846WAT     H212105   0.406   5.274   6.096 -1.0338  1.7293  2.6389
 2846WAT    EPW12106   0.472   5.244   6.127 -0.1680  0.0827 -0.4132
 2847WAT      O12107   4.311   6.843   3.243 -0.1118 -0.7211 -0.6461
 2847WAT     H112108   4.240   6.865   3.290 -0.3581  1.5242 -1.9485
 2847WAT     H212109   4.364   6.807   3.303 -1.9039 -1.5379  0.5677
 2847WAT    EPW12110   4.308   6.841   3.259 -0.4129 -0.5101 -0.6591
 2848WAT      O12111   4.151   0.967   1.915 -0.2578 -0.6061 -0.1741
 2848WAT     H112112   4.126   0.884   1.906  1.8850 -1.2243 -1.0887
 2848WAT     H212113   4.187   0.985   1.837  1.8716  0.2059  0.9212
 2848WAT    EPW12114   4.153   0.957   1.902  0.3733 -0.5775 -0.1474
 2849WAT      O12115   4.686   3.675   0.764 -0.6292 -0.3064  0.4752
 2849WAT     H112116   4.747   3.641   0.712 -0.4322 -2.8515  2.1662
 2849WAT     H212117   4.612   3.643   0.732 -0.8547  0.8023 -0.1402
 2849WAT    EPW12118   4.684   3.665   0.752 -0.6334 -0.5186  0.6341
 2850WAT      O12119   1.586   2.815   0.892  0.3386 -0.0193 -0.2173
 2850WAT     H112120   1.659   2.850   0.860  0.4963 -0.3876 -0.2687
 2850WAT     H212121   1.566   2.752   0.835 -0.6332  0.7863 -0.7979
 2850WAT    EPW12122   1.594   2.811   0.879  0.2183  0.0453 -0.3107
 2851WAT      O12123   1.476   2.005   6.235  0.7507  0.3489  0.3659
 2851WAT     H112124   1.526   2.018   6.304  1.6919 -0.6155 -0.1008
 2851WAT     H212125   1.395   2.000   6.268  1.1299  0.4668  1.3119
 2851WAT    EPW12126   1.471   2.006   6.250  0.9458  0.2239  0.4367
 2852WAT      O12127   5.703   5.894   2.344  0.0848 -0.2113 -0.8017
 2852WAT     H112128   5.681   5.974   2.318 -0.8953 -0.3148 -0.3458
 2852WAT     H212129   5.627   5.852   2.348  0.4131 -0.7259  0.4292
 2852WAT    EPW12130   5.689   5.899   2.341 -0.0115 -0.3026 -0.5525
 2853WAT      O12131   4.492   4.957   1.530  0.0504 -0.5194  0.7101
 2853WAT     H112132   4.558   4.933   1.477  0.7759  1.7545  0.4925
 2853WAT     H212133   4.431   4.897   1.514  1.0921 -1.2090 -1.0354
 2853WAT    EPW12134   4.493   4.944   1.520  0.3115 -0.2854  0.4201
 2854WAT      O12135   1.852   6.258   1.609 -0.1279  0.7372  0.3053
 2854WAT     H112136   1.877   6.334   1.643 -0.1264  1.1345 -0.5610
 2854WAT     H212137   1.916   6.203   1.631 -0.0729  1.0173  0.8367
 2854WAT    EPW12138   1.865   6.261   1.617 -0.1195  0.8372  0.2558
 2855WAT      O12139   5.911   3.013   1.931 -0.3729 -0.0692 -0.1935
 2855WAT     H112140   5.930   3.061   2.001  1.3967 -1.7414  0.5702
 2855WAT     H212141   5.824   3.003   1.935 -0.1611 -2.3294  3.4037
 2855WAT    EPW12142   5.901   3.018   1.942 -0.0802 -0.6501  0.4507
 2856WAT      O12143   2.172   1.827   4.699 -0.3187  0.3990  0.3782
 2856WAT     H112144   2.203   1.758   4.743 -0.0933  0.8888  0.9938
 2856WAT     H212145   2.118   1.866   4.756 -0.0669  1.0068  0.2070
 2856WAT    EPW12146   2.168   1.823   4.714 -0.2482  0.5611  0.4439
 2857WAT      O12147   6.860   0.064   5.384  0.8243 -0.0051  0.0621
 2857WAT     H112148   6.793   0.010   5.368 -0.2036  1.3057 -0.2349
 2857WAT     H212149   6.928   0.024   5.345  0.0119 -0.8517 -0.5480
 2857WAT    EPW12150   6.860   0.050   5.376  0.5524  0.0635 -0.0719
 2858WAT      O12151   1.393   0.567   2.610  0.1181 -0.2310 -0.2779
 2858WAT     H112152   1.415   0.482   2.612 -0.0891 -0.3074 -1.0088
 2858WAT     H212153   1.308   0.566   2.629  0.5332 -0.0019  1.7585
 2858WAT    EPW12154   1.384   0.554   2.613  0.1488 -0.2085 -0.0851
 2859WAT      O12155   3.099   7.010   0.034  0.2676  0.3815  0.1918
 2859WAT     H112156   3.098   7.020  -0.053 -1.8051 -0.0171  0.1095
 2859WAT     H212157   3.069   6.929   0.046 -0.7580  0.8945  1.3056
 2859WAT    EPW12158   3.094   6.999   0.023 -0.1901  0.3984  0.3441
 2860WAT      O12159   1.830   3.188   1.234 -0.2242  0.3440  0.1702
 2860WAT     H112160   1.822   3.111   1.194 -0.9599 -0.3027  1.5045
 2860WAT     H212161   1.749   3.220   1.234 -0.2947  0.2186  1.3222
 2860WAT    EPW12162   1.817   3.182   1.228 -0.3433  0.2299  0.5374
 2861WAT      O12163   6.086   4.806   3.876  0.5449 -0.1648  0.0079
 2861WAT     H112164   6.171   4.828   3.876  0.7384 -0.6866  2.1462
 2861WAT     H212165   6.048   4.871   3.922 -0.5969  1.1108 -2.5418
 2861WAT    EPW12166   6.093   4.819   3.883  0.4048 -0.0535 -0.0529
 2862WAT      O12167   4.759   3.514   2.532  0.0140  0.0523  0.4647
 2862WAT     H112168   4.677   3.485   2.546  1.0884 -3.1897  1.0581
 2862WAT     H212169   4.768   3.578   2.589 -1.1950 -1.6179  2.7093
 2862WAT    EPW12170   4.748   3.519   2.542 -0.0059 -0.6733  0.8840
 2863WAT      O12171   2.349   3.557   7.355  0.0054 -0.3326 -0.0742
 2863WAT     H112172   2.358   3.527   7.273  2.9197 -1.3824  0.4902
 2863WAT     H212173   2.392   3.498   7.403 -1.0023  0.6292  2.1579
 2863WAT    EPW12174   2.357   3.544   7.350  0.2871 -0.3456  0.3389
 2864WAT      O12175   0.581   1.092   1.674 -0.0617  0.5296  0.0059
 2864WAT     H112176   0.527   1.111   1.608 -0.6092  0.8278  0.5189
 2864WAT     H212177   0.539   1.028   1.717 -0.8838  1.9436  1.4048
 2864WAT    EPW12178   0.566   1.085   1.671 -0.2640  0.7825  0.2883
 2865WAT      O12179   0.568   6.255   0.690 -0.5378 -0.1578 -0.1746
 2865WAT     H112180   0.579   6.224   0.609 -1.6560  0.5047 -0.5943
 2865WAT     H212181   0.648   6.251   0.724  0.0991  0.2395 -1.5613
 2865WAT    EPW12182   0.582   6.250   0.683 -0.6089 -0.0013 -0.4415
 2866WAT      O12183   0.892   2.927   1.883  0.6308  0.2992  0.5735
 2866WAT     H112184   0.820   2.890   1.849 -0.6985  2.1681  1.1516
 2866WAT     H212185   0.951   2.920   1.820 -0.6776  0.4858 -0.7186
 2866WAT    EPW12186   0.890   2.920   1.869  0.2411  0.6029  0.4680
 2867WAT      O12187   7.308   4.845   2.423  0.1796 -0.1830 -0.1955
 2867WAT     H112188   7.381   4.892   2.408  1.2021 -1.5555  0.2704
 2867WAT     H212189   7.257   4.900   2.467  0.8072  0.9020 -0.7598
 2867WAT    EPW12190   7.311   4.860   2.427  0.4233 -0.2255 -0.2100
 2868WAT      O12191   3.198   0.053   6.826  0.3692 -0.3549 -0.3561
 2868WAT     H112192   3.257   0.036   6.888  0.4306 -1.1122 -0.6133
 2868WAT     H212193   3.125   0.071   6.871  0.2183 -1.6069 -0.0546
 2868WAT    EPW12194   3.196   0.053   6.842  0.3560 -0.6517 -0.3496
 2869WAT      O12195   6.450   3.079   0.127 -0.3987  0.1376  0.2430
 2869WAT     H112196   6.458   3.074   0.213  1.2470 -0.1242  0.1059
 2869WAT     H212197   6.464   3.163   0.109  0.0986  0.0378  0.1614
 2869WAT    EPW12198   6.453   3.091   0.137 -0.0822  0.0842  0.2107
 2870WAT      O12199   2.355   7.090   4.183 -0.0246  0.5155 -0.4119
 2870WAT     H112200   2.351   7.163   4.135  0.2680  0.4528 -0.5356
 2870WAT     H212201   2.372   7.119   4.263 -1.3488  0.6780 -0.1729
 2870WAT    EPW12202   2.357   7.105   4.188 -0.1770  0.5302 -0.3949
 2871WAT      O12203   1.443   0.819   6.815 -0.2494  0.4257 -0.3049
 2871WAT     H112204   1.367   0.833   6.857  0.6735 -0.0977  1.6386
 2871WAT     H212205   1.458   0.895   6.775 -1.2381  0.9393  0.2495
 2871WAT    EPW12206   1.434   0.833   6.816 -0.2592  0.4243  0.0641
 2872WAT      O12207   2.765   6.317   6.050 -0.0205 -0.1195 -0.1695
 2872WAT     H112208   2.781   6.329   6.135  1.0070  1.3740 -0.5303
 2872WAT     H212209   2.844   6.320   6.013 -0.4776 -0.3246 -1.2174
 2872WAT    EPW12210   2.779   6.319   6.057  0.0638  0.0708 -0.3776
 2873WAT      O12211   0.174   5.664   3.703 -0.1230  0.1224 -0.0872
 2873WAT     H112212   0.232   5.696   3.760  1.2889 -0.5186 -1.1154
 2873WAT     H212213   0.099   5.699   3.730  0.8755  1.8701  0.6493
 2873WAT    EPW12214   0.172   5.674   3.716  0.2330  0.2859 -0.1303
 2874WAT      O12215   6.286   3.291   6.730  0.0871  0.0965 -0.2273
 2874WAT     H112216   6.239   3.286   6.657  0.1714  0.3021 -0.2963
 2874WAT     H212217   6.228   3.276   6.793 -0.5631  2.5235 -0.1550
 2874WAT    EPW12218   6.271   3.288   6.729  0.0035  0.4854 -0.2268
 2875WAT      O12219   5.197   2.146   3.006 -0.2743  0.1242  0.5206
 2875WAT     H112220   5.155   2.088   3.055  2.2005  0.7025  3.6110
 2875WAT     H212221   5.269   2.103   2.980 -1.0247  0.1657 -1.9041
 2875WAT    EPW12222   5.202   2.131   3.009 -0.0196  0.2158  0.6189
 2876WAT      O12223   1.031   1.142   2.698 -0.3059 -0.2985  0.5120
 2876WAT     H112224   1.007   1.210   2.749  0.2646  2.2425 -2.3306
 2876WAT     H212225   1.104   1.170   2.660 -1.3518 -1.4323 -2.6495
 2876WAT    EPW12226   1.038   1.156   2.700 -0.3762 -0.0907 -0.3749
 2877WAT      O12227   6.989   0.747   3.657  0.1415  0.1752  0.2907
 2877WAT     H112228   7.010   0.806   3.597 -0.3522  0.5647  0.4866
 2877WAT     H212229   6.909   0.772   3.683  0.3273  0.0018  1.0747
 2877WAT    EPW12230   6.980   0.759   3.652  0.0960  0.2071  0.4355
 2878WAT      O12231   5.044   3.061   3.946 -0.0135  0.0323 -0.5064
 2878WAT     H112232   5.028   3.111   4.016 -1.1924  0.7967 -1.2782
 2878WAT     H212233   5.046   2.980   3.978  0.1872  0.4257  0.5186
 2878WAT    EPW12234   5.042   3.057   3.961 -0.1580  0.2033 -0.4690
 2879WAT      O12235   4.330   6.652   1.608 -0.2336 -0.4098 -0.1390
 2879WAT     H112236   4.309   6.695   1.535  0.5894  0.6808  0.2393
 2879WAT     H212237   4.395   6.600   1.585  1.5734  1.5558  0.2397
 2879WAT    EPW12238   4.336   6.651   1.594  0.1549  0.0417 -0.0272
 2880WAT      O12239   2.171   3.762   2.711 -0.0188  0.5708 -0.5031
 2880WAT     H112240   2.233   3.701   2.712  0.1632  0.6660 -2.4627
 2880WAT     H212241   2.208   3.829   2.754  0.4185 -0.0780  0.1653
 2880WAT    EPW12242   2.186   3.763   2.717  0.0727  0.4890 -0.6938
 2881WAT      O12243   3.721   2.037   6.405  0.5720  0.4680 -0.5105
 2881WAT     H112244   3.688   1.965   6.370 -1.1739  1.0205 -0.1274
 2881WAT     H212245   3.797   2.012   6.438 -0.2873 -1.3641  0.1959
 2881WAT    EPW12246   3.727   2.023   6.404  0.1872  0.2790 -0.3496
 2882WAT      O12247   0.015   4.037   6.487 -0.0993 -0.3778 -0.1125
 2882WAT     H112248   0.058   3.995   6.550 -0.3809 -0.1886  0.2087
 2882WAT     H212249   0.071   4.038   6.420  0.7622  0.6885  0.6020
 2882WAT    EPW12250   0.029   4.030   6.486 -0.0136 -0.1923  0.0405
 2883WAT      O12251   6.815   3.236   7.070 -0.5098 -0.0428  0.1633
 2883WAT     H112252   6.780   3.165   7.033  0.0884 -0.0686 -0.3745
 2883WAT     H212253   6.878   3.259   7.015 -0.1310  0.4084  0.7681
 2883WAT    EPW12254   6.819   3.229   7.057 -0.3655  0.0200  0.1732
 2884WAT      O12255   0.590   4.348   2.464 -0.3428  0.0679  0.1685
 2884WAT     H112256   0.547   4.273   2.476 -3.2236  1.7019  1.0239
 2884WAT     H212257   0.591   4.357   2.377 -0.4292 -0.6905  0.0801
 2884WAT    EPW12258   0.584   4.338   2.453 -0.7811  0.1973  0.2818
 2885WAT      O12259   6.830   5.202   4.022 -0.0817 -0.2672 -0.4628
 2885WAT     H112260   6.896   5.208   3.966  0.4501 -1.0756  0.0616
 2885WAT     H212261   6.795   5.124   4.005  0.0600 -0.5024  0.2852
 2885WAT    EPW12262   6.834   5.192   4.011  0.0178 -0.4213 -0.2748
 2886WAT      O12263   4.196   0.122   4.414 -0.0297 -0.0996 -0.3969
 2886WAT     H112264   4.208   0.068   4.347  2.0014 -1.5469  1.0331
 2886WAT     H212265   4.276   0.154   4.430 -0.3979  0.0757  1.3860
 2886WAT    EPW12266   4.210   0.119   4.407  0.2159 -0.2875  0.0777
 2887WAT      O12267   3.642   6.832   4.323  0.4261 -0.3885 -0.5384
 2887WAT     H112268   3.610   6.828   4.404  2.0980  0.1739  0.1966
 2887WAT     H212269   3.586   6.885   4.281 -1.0784 -1.5581 -0.1068
 2887WAT    EPW12270   3.629   6.839   4.329  0.4508 -0.4782 -0.3661
 2888WAT      O12271   5.893   0.211   1.937 -0.0947 -0.0560 -0.2093
 2888WAT     H112272   5.893   0.167   2.012  1.0649  0.9911  0.4514
 2888WAT     H212273   5.810   0.236   1.928 -0.4670 -1.0997  0.1550
 2888WAT    EPW12274   5.881   0.208   1.947  0.0216 -0.0555 -0.0579
 2889WAT      O12275   0.789   5.283   2.407  0.2788  0.4260  0.2879
 2889WAT     H112276   0.816   5.310   2.485 -1.4700 -1.1978  1.5446
 2889WAT     H212277   0.713   5.323   2.396  0.5241  0.6652 -0.6157
 2889WAT    EPW12278   0.782   5.293   2.417  0.0567  0.2214  0.3401
 2890WAT      O12279   1.351   0.874   0.368  0.3057 -0.4806  1.0975
 2890WAT     H112280   1.326   0.932   0.428 -0.8604  0.3945 -0.1756
 2890WAT     H212281   1.279   0.828   0.351  0.4587 -0.3730  0.0272
 2890WAT    EPW12282   1.337   0.876   0.374  0.1560 -0.3354  0.7513
 2891WAT      O12283   5.958   4.440   1.724  0.2001  0.0064  0.6634
 2891WAT     H112284   5.972   4.357   1.747 -0.0670 -0.3993 -0.5669
 2891WAT     H212285   5.913   4.473   1.792  1.6920 -0.3742  1.8956
 2891WAT    EPW12286   5.953   4.433   1.738  0.3810 -0.1098  0.6636
 2892WAT      O12287   3.117   3.570   7.118 -0.2997  0.2852 -0.6568
 2892WAT     H112288   3.081   3.517   7.059  0.3185 -0.9320  0.0264
 2892WAT     H212289   3.144   3.638   7.070 -1.4562  0.1771 -1.4900
 2892WAT    EPW12290   3.116   3.573   7.102 -0.3793  0.0894 -0.6790
 2893WAT      O12291   6.836   0.103   3.028  0.0223 -0.1502  0.2580
 2893WAT     H112292   6.826   0.019   3.050  2.1045  0.0459  2.2113
 2893WAT     H212293   6.913   0.105   2.988  0.9832  1.1028  2.0568
 2893WAT    EPW12294   6.846   0.091   3.025  0.4719  0.0639  0.8122
 2894WAT      O12295   1.539   3.339   2.698 -0.4718  0.1139 -0.0745
 2894WAT     H112296   1.470   3.392   2.690 -0.3711  0.3954  0.8268
 2894WAT     H212297   1.553   3.336   2.784  0.3356 -0.3355 -0.2106
 2894WAT    EPW12298   1.531   3.346   2.710 -0.3376  0.0891  0.0385
 2895WAT      O12299   3.082   0.048   0.786  0.0293 -0.0411  0.0068
 2895WAT     H112300   3.028  -0.009   0.749 -2.1509  2.1027 -0.3770
 2895WAT     H212301   3.084   0.024   0.870 -1.2786 -0.3782 -0.0430
 2895WAT    EPW12302   3.075   0.036   0.793 -0.4859  0.2258 -0.0573
 2896WAT      O12303   1.187   7.057   5.222 -0.3140 -0.1552  0.3070
 2896WAT     H112304   1.151   6.986   5.188  0.4491 -1.1888  1.5718
 2896WAT     H212305   1.220   7.029   5.297 -1.1898  1.8441  1.5048
 2896WAT    EPW12306   1.187   7.043   5.228 -0.3306 -0.0126  0.6708
 2897WAT      O12307   0.727   4.044   0.370  0.3945  0.1742  0.4438
 2897WAT     H112308   0.730   3.963   0.402  1.1330 -0.2831 -0.6985
 2897WAT     H212309   0.801   4.050   0.323 -0.3850  0.9489 -0.7459
 2897WAT    EPW12310   0.738   4.033   0.368  0.3885  0.2211  0.0993
 2898WAT      O12311   1.958   6.871   5.322 -0.0256 -0.0471  0.5711
 2898WAT     H112312   2.029   6.821   5.324 -0.3377 -0.5764 -0.8036
 2898WAT     H212313   1.920   6.851   5.246 -1.3888  0.5808  1.0482
 2898WAT    EPW12314   1.963   6.861   5.311 -0.2731 -0.0325  0.4385
 2899WAT      O12315   3.414   0.422   3.423  0.2124 -0.8439 -0.3306
 2899WAT     H112316   3.382   0.447   3.500  1.7782  2.4538 -0.5403
 2899WAT     H212317   3.412   0.335   3.426 -2.1029 -0.8307  2.3683
 2899WAT    EPW12318   3.409   0.413   3.435  0.1017 -0.3548  0.0371
 2900WAT      O12319   2.780   6.319   3.896  0.1068 -0.1768 -0.5911
 2900WAT     H112320   2.834   6.316   3.829 -0.5060 -0.7473 -1.0763
 2900WAT     H212321   2.815   6.264   3.954 -0.4122 -1.2599 -1.2716
 2900WAT    EPW12322   2.793   6.310   3.895 -0.0604 -0.4211 -0.7633
 2901WAT      O12323   3.847   6.203   0.989 -0.7822  0.3350  0.0987
 2901WAT     H112324   3.909   6.241   1.036 -0.4074  0.8449 -0.7755
 2901WAT     H212325   3.891   6.145   0.940 -1.0690  0.2522 -0.0666
 2901WAT    EPW12326   3.862   6.200   0.988 -0.7692  0.3981 -0.0548
 2902WAT      O12327   4.900   4.801   0.779  0.5680  0.0329 -0.0213
 2902WAT     H112328   4.941   4.811   0.856 -1.9594  2.8752  1.1691
 2902WAT     H212329   4.960   4.824   0.721  1.2917  2.3469  1.5007
 2902WAT    EPW12330   4.915   4.806   0.782  0.3016  0.7946  0.3794
 2903WAT      O12331   7.176   3.644   3.105  0.5983 -0.5242  0.2279
 2903WAT     H112332   7.196   3.677   3.027 -2.7725 -0.8275 -0.9255
 2903WAT     H212333   7.170   3.558   3.090 -0.7565 -0.5181  0.5740
 2903WAT    EPW12334   7.178   3.636   3.092 -0.0998 -0.5681  0.1086
 2904WAT      O12335   6.451   4.245   2.720  0.3211 -0.0157  0.6599
 2904WAT     H112336   6.503   4.220   2.786  1.3797  0.9128  0.2204
 2904WAT     H212337   6.497   4.223   2.649 -0.2734  0.0773  0.2387
 2904WAT    EPW12338   6.466   4.238   2.719  0.3896  0.1352  0.5328
 2905WAT      O12339   0.595   3.622   4.165  0.2968 -0.2466  0.3760
 2905WAT     H112340   0.600   3.602   4.250  0.1109  0.1280  0.4784
 2905WAT     H212341   0.676   3.650   4.146 -0.0532  1.1692  0.8281
 2905WAT    EPW12342   0.608   3.623   4.175  0.2176  0.0179  0.4579
 2906WAT      O12343   2.259   0.654   3.992 -0.5486 -0.3754  0.2326
 2906WAT     H112344   2.321   0.714   4.002  0.2701 -0.7360 -2.1894
 2906WAT     H212345   2.275   0.597   4.057  1.2162 -0.1014  0.0846
 2906WAT    EPW12346   2.270   0.654   4.003 -0.1669 -0.3882 -0.1470
 2907WAT      O12347   3.839   1.010   5.036 -0.5216  0.4307 -0.0122
 2907WAT     H112348   3.831   0.933   5.077  0.8359 -0.0559 -0.6036
 2907WAT     H212349   3.860   1.065   5.100  0.6043 -0.1291  0.1281
 2907WAT    EPW12350   3.841   1.006   5.052 -0.1548  0.2761 -0.0788
 2908WAT      O12351   3.043   5.169   6.440  0.5720  0.7817 -0.4996
 2908WAT     H112352   3.124   5.154   6.410  0.2243  1.2008 -1.6833
 2908WAT     H212353   3.029   5.252   6.420 -0.1130  0.7458 -0.1793
 2908WAT    EPW12354   3.053   5.179   6.433  0.4194  0.8383 -0.6271
 2909WAT      O12355   1.407   5.486   0.174 -0.9276 -0.4633 -0.0326
 2909WAT     H112356   1.465   5.507   0.113 -0.3742 -2.9511 -0.4287
 2909WAT     H212357   1.351   5.553   0.172  1.6169  1.9017  0.1137
 2909WAT    EPW12358   1.408   5.499   0.165 -0.4700 -0.4814 -0.0695
 2910WAT      O12359   2.525   1.460   1.903 -0.3231  0.2709  0.2584
 2910WAT     H112360   2.557   1.428   1.829  2.0697 -0.8388  1.6562
 2910WAT     H212361   2.472   1.397   1.931  0.5458 -0.3303  0.5826
 2910WAT    EPW12362   2.522   1.446   1.896  0.1587  0.0181  0.5128
 2911WAT      O12363   3.590   0.983   4.863 -0.2152  0.0579 -0.0899
 2911WAT     H112364   3.649   0.977   4.926 -0.4982  1.5056  0.3390
 2911WAT     H212365   3.522   1.023   4.901  0.2044  2.4775 -1.6673
 2911WAT    EPW12366   3.588   0.988   4.878 -0.1950  0.6292 -0.2595
 2912WAT      O12367   6.455   6.673   1.644 -0.2360  0.1517 -0.0967
 2912WAT     H112368   6.400   6.739   1.631  1.7010  1.7803 -0.5133
 2912WAT     H212369   6.532   6.703   1.614  0.7239 -2.3456 -0.4555
 2912WAT    EPW12370   6.458   6.687   1.637  0.1919  0.0234 -0.2112
 2913WAT      O12371   1.637   4.684   3.721 -0.1572  0.1159 -1.1833
 2913WAT     H112372   1.669   4.681   3.802  0.9649 -0.0878 -1.6198
 2913WAT     H212373   1.558   4.720   3.731 -0.0704  0.0029  0.0040
 2913WAT    EPW12374   1.630   4.689   3.734  0.0214  0.0691 -1.0724
 2914WAT      O12375   5.066   0.821   5.389  0.3862 -0.4820 -0.6925
 2914WAT     H112376   5.049   0.759   5.448 -0.7109 -0.6477 -1.1499
 2914WAT     H212377   5.038   0.786   5.314 -1.6221  1.0531 -0.7633
 2914WAT    EPW12378   5.059   0.807   5.387 -0.0725 -0.2797 -0.7705
 2915WAT      O12379   4.799   2.826   2.237  0.2262 -0.0305  0.0390
 2915WAT     H112380   4.759   2.890   2.192  2.2559  0.1522 -1.7171
 2915WAT     H212381   4.738   2.764   2.244 -1.8277  2.0237  1.8137
 2915WAT    EPW12382   4.784   2.826   2.231  0.2226  0.2999  0.0417
 2916WAT      O12383   5.642   2.967   1.975  0.4619 -0.6573 -0.8240
 2916WAT     H112384   5.616   3.047   1.951 -0.3044 -1.1578 -1.7139
 2916WAT     H212385   5.597   2.951   2.048  2.2654  0.5766  0.6810
 2916WAT    EPW12386   5.632   2.976   1.983  0.6151 -0.5490 -0.7331
 2917WAT      O12387   5.757   3.685   6.265  0.3399  0.2095 -0.0885
 2917WAT     H112388   5.767   3.606   6.302 -1.5912 -0.4787 -0.8821
 2917WAT     H212389   5.687   3.718   6.306  0.4737  1.0519 -0.5172
 2917WAT    EPW12390   5.748   3.678   6.276  0.0744  0.2323 -0.2691
 2918WAT      O12391   3.053   5.983   5.489  0.3375 -0.6105 -0.3043
 2918WAT     H112392   3.116   5.942   5.532  1.9926  0.9629 -1.1298
 2918WAT     H212393   3.016   6.034   5.549  1.9996  0.8417 -0.4430
 2918WAT    EPW12394   3.057   5.985   5.504  0.8275 -0.1636 -0.4467
 2919WAT      O12395   5.140   5.711   7.094 -0.6646 -0.6067  0.4571
 2919WAT     H112396   5.124   5.626   7.079  0.2727 -1.7124  4.4743
 2919WAT     H212397   5.061   5.746   7.103 -1.0601 -1.4710  0.4282
 2919WAT    EPW12398   5.126   5.704   7.093 -0.5846 -0.8978  1.0462
 2920WAT      O12399   3.672   6.931   2.666 -0.9270 -0.7400 -0.1210
 2920WAT     H112400   3.600   6.911   2.710 -0.6683 -1.3251  0.0493
 2920WAT     H212401   3.736   6.900   2.717 -0.6566 -2.4140 -1.3765
 2920WAT    EPW12402   3.671   6.923   2.680 -0.8488 -1.0737 -0.2813
 2921WAT      O12403   0.330   0.850   2.749 -0.2461 -0.1675 -0.2919
 2921WAT     H112404   0.295   0.900   2.686 -0.3900 -1.9022 -1.6629
 2921WAT     H212405   0.341   0.906   2.815 -0.8837  1.5520 -1.5521
 2921WAT    EPW12406   0.326   0.866   2.749 -0.3615 -0.1698 -0.6806
 2922WAT      O12407   5.704   6.187   5.280 -0.1129 -0.7396  0.5029
 2922WAT     H112408   5.697   6.184   5.193 -0.8144 -1.9277  0.5772
 2922WAT     H212409   5.772   6.135   5.297 -1.1462 -2.0491  0.7597
 2922WAT    EPW12410   5.713   6.179   5.269 -0.3692 -1.1086  0.5519
 2923WAT      O12411   3.912   2.873   7.363 -0.3123 -0.1181 -0.6602
 2923WAT     H112412   3.897   2.867   7.277  0.6634  1.1537 -0.9426
 2923WAT     H212413   3.837   2.904   7.395  0.8115  4.6192 -1.8220
 2923WAT    EPW12414   3.899   2.876   7.355 -0.0021  0.7696 -0.8735
 2924WAT      O12415   5.142   7.083   5.328 -0.2498 -0.1208  0.2382
 2924WAT     H112416   5.065   7.093   5.288  0.3241  2.4299 -0.3856
 2924WAT     H212417   5.129   7.013   5.379 -2.7046 -0.2602 -0.4256
 2924WAT    EPW12418   5.129   7.074   5.330 -0.5276  0.2354  0.0480
 2925WAT      O12419   7.095   3.270   6.053  0.1911 -0.0201 -0.1257
 2925WAT     H112420   7.155   3.325   6.083 -0.8032  0.1000  1.8045
 2925WAT     H212421   7.029   3.322   6.028  0.4955 -0.1971 -1.3534
 2925WAT    EPW12422   7.094   3.286   6.054  0.0892 -0.0285 -0.0220
 2926WAT      O12423   5.283   7.225   0.782 -0.1334  0.6709 -0.1210
 2926WAT     H112424   5.197   7.216   0.789 -0.0412  0.8332  1.6238
 2926WAT     H212425   5.303   7.179   0.710 -1.4740 -0.6710  0.3289
 2926WAT    EPW12426   5.274   7.217   0.772 -0.3178  0.4966  0.2032
 2927WAT      O12427   1.546   6.446   4.655 -0.5049 -0.0251  0.0967
 2927WAT     H112428   1.592   6.420   4.724  1.2911  0.1870 -0.9535
 2927WAT     H212429   1.487   6.501   4.689 -0.2851 -0.6452  1.5578
 2927WAT    EPW12430   1.544   6.450   4.670 -0.2071 -0.0854  0.1574
 2928WAT      O12431   7.035   3.597   7.025 -0.2928  0.6752 -0.2679
 2928WAT     H112432   7.112   3.584   6.988 -0.5485 -0.1521 -0.5283
 2928WAT     H212433   7.039   3.550   7.099 -0.2954  1.1873  0.0629
 2928WAT    EPW12434   7.047   3.588   7.031 -0.3309  0.6287 -0.2575
 2929WAT      O12435   6.042   0.917   5.681 -0.3486 -0.7531  0.2713
 2929WAT     H112436   6.067   0.834   5.670  0.2786 -0.8793  2.2207
 2929WAT     H212437   6.028   0.945   5.600 -0.3334 -2.6849 -0.4640
 2929WAT    EPW12438   6.043   0.909   5.668 -0.2537 -1.0571  0.4506
 2930WAT      O12439   4.828   7.034   2.291  0.6428 -0.2529 -0.2169
 2930WAT     H112440   4.811   7.118   2.307  2.9137  0.2252 -0.0025
 2930WAT     H212441   4.831   7.030   2.204 -2.3276 -0.8217 -0.4056
 2930WAT    EPW12442   4.826   7.046   2.281  0.5394 -0.2663 -0.2131
 2931WAT      O12443   6.754   5.390   1.621  0.3072 -0.3884  0.4277
 2931WAT     H112444   6.782   5.464   1.659 -0.8960  0.2592  0.1275
 2931WAT     H212445   6.790   5.327   1.669  1.0290  0.4021  0.9495
 2931WAT    EPW12446   6.763   5.392   1.634  0.2361 -0.1759  0.4605
 2932WAT      O12447   2.424   3.250   3.470 -0.0232  0.3701  0.3023
 2932WAT     H112448   2.352   3.222   3.510  0.1517 -0.3270  0.1513
 2932WAT     H212449   2.449   3.319   3.517 -1.6675  1.6352 -0.5637
 2932WAT    EPW12450   2.417   3.256   3.483 -0.2403  0.4540  0.1521
 2933WAT      O12451   1.265   3.595   3.150 -0.0940 -0.5618  0.2286
 2933WAT     H112452   1.337   3.552   3.177  1.1178  0.8063 -0.6835
 2933WAT     H212453   1.269   3.588   3.064  0.5947  1.9627 -0.0229
 2933WAT    EPW12454   1.276   3.588   3.142  0.1868  0.0132  0.0567
 2934WAT      O12455   1.627   4.209   5.631 -0.2828 -0.3579  0.0791
 2934WAT     H112456   1.709   4.182   5.644 -0.0794  0.7497  1.3796
 2934WAT     H212457   1.582   4.135   5.620  0.7210 -1.0315  0.3978
 2934WAT    EPW12458   1.632   4.194   5.631 -0.1044 -0.2938  0.3183
 2935WAT      O12459   5.615   5.873   4.273 -0.1745 -0.3578 -0.2339
 2935WAT     H112460   5.670   5.805   4.264 -0.3121 -0.4542 -0.3732
 2935WAT     H212461   5.565   5.867   4.202 -0.3099 -0.2204 -0.1498
 2935WAT    EPW12462   5.616   5.862   4.261 -0.2148 -0.3518 -0.2420
 2936WAT      O12463   3.514   0.898   2.631 -0.0548 -0.4387  0.2688
 2936WAT     H112464   3.549   0.957   2.686  1.6439  0.2954 -1.4784
 2936WAT     H212465   3.454   0.858   2.680 -1.1259  2.5428  1.6197
 2936WAT    EPW12466   3.510   0.901   2.646  0.0379  0.1102  0.2103
 2937WAT      O12467   1.182   4.069   5.450  0.4352  0.3969  0.0559
 2937WAT     H112468   1.097   4.056   5.463  0.9593 -2.2739  1.4854
 2937WAT     H212469   1.201   4.137   5.501 -1.0927  2.1625 -1.6042
 2937WAT    EPW12470   1.172   4.077   5.459  0.2869  0.2632  0.0218
 2938WAT      O12471   5.422   5.601   3.992  0.0439  0.3025 -0.8162
 2938WAT     H112472   5.413   5.622   3.908 -0.6180 -1.1232 -1.1381
 2938WAT     H212473   5.342   5.575   4.015  0.4489 -0.2982 -0.0412
 2938WAT    EPW12474   5.409   5.600   3.983  0.0060  0.0031 -0.7492
 2939WAT      O12475   6.293   5.611   4.762 -0.6221 -0.7178 -0.0041
 2939WAT     H112476   6.287   5.529   4.792 -1.6013 -0.8983 -0.6401
 2939WAT     H212477   6.342   5.602   4.690 -0.2282 -0.6409  0.2487
 2939WAT    EPW12478   6.299   5.598   4.756 -0.7086 -0.7331 -0.0607
 2940WAT      O12479   1.453   0.973   7.167 -0.3274 -0.3337 -0.2651
 2940WAT     H112480   1.470   1.020   7.238 -0.4395  0.9091 -1.0325
 2940WAT     H212481   1.530   0.938   7.146 -0.1865 -0.2796  0.1527
 2940WAT    EPW12482   1.467   0.975   7.174 -0.3231 -0.1421 -0.3167
 2941WAT      O12483   0.733   1.007   6.410 -0.0395 -0.2268 -1.1715
 2941WAT     H112484   0.734   1.092   6.392 -2.8115  0.0746 -0.2371
 2941WAT     H212485   0.741   1.003   6.496  0.3765 -0.9558 -1.2303
 2941WAT    EPW12486   0.734   1.019   6.420 -0.3876 -0.2900 -1.0421
 2942WAT      O12487   6.590   1.517   4.764 -0.4352 -0.1661  0.4723
 2942WAT     H112488   6.511   1.544   4.739  0.2442  1.9086  0.3007
 2942WAT     H212489   6.630   1.499   4.688 -0.2742  0.3176  0.4346
 2942WAT    EPW12490   6.584   1.519   4.749 -0.3111  0.2118  0.4414
 2943WAT      O12491   6.845   2.948   0.219  0.1947  0.4681  0.3420
 2943WAT     H112492   6.821   3.023   0.256  0.2837  0.0663  1.2320
 2943WAT     H212493   6.786   2.938   0.155 -0.1150  1.0491  0.5211
 2943WAT    EPW12494   6.833   2.958   0.215  0.1621  0.4945  0.4999
 2944WAT      O12495   0.270   1.278   5.969  0.3394 -0.7648 -0.0118
 2944WAT     H112496   0.357   1.280   5.979  0.1772  0.6994  1.5645
 2944WAT     H212497   0.251   1.359   5.940 -0.4071 -1.4368 -1.4986
 2944WAT    EPW12498   0.280   1.291   5.966  0.2052 -0.6477  0.0014
 2945WAT      O12499   5.999   5.890   5.628  0.3380  0.5435  0.1237
 2945WAT     H112500   5.977   5.829   5.687 -0.3276  1.7405  1.1824
 2945WAT     H212501   6.046   5.947   5.674  2.3614  0.0830 -1.2119
 2945WAT    EPW12502   6.003   5.889   5.644  0.5386  0.6523  0.0828
 2946WAT      O12503   4.192   0.081   5.880 -0.2825 -0.1109  0.3128
 2946WAT     H112504   4.257   0.116   5.927 -0.2280  0.5657 -0.2604
 2946WAT     H212505   4.135   0.147   5.872 -0.0415 -0.0414 -1.0346
 2946WAT    EPW12506   4.193   0.096   5.886 -0.2388 -0.0007  0.0291
 2947WAT      O12507   3.616   6.683   4.029  0.3245  0.0894  0.0936
 2947WAT     H112508   3.644   6.750   3.981 -1.0488  1.0702  0.6058
 2947WAT     H212509   3.639   6.704   4.110  2.6873 -1.5914 -0.0354
 2947WAT    EPW12510   3.623   6.696   4.034  0.4707 -0.0140  0.1502
 2948WAT      O12511   5.079   2.555   1.311  0.1624 -0.2514 -0.2696
 2948WAT     H112512   5.042   2.629   1.281 -3.0238 -1.6605 -0.2536
 2948WAT     H212513   5.072   2.564   1.398 -0.7053 -0.7225 -0.2757
 2948WAT    EPW12514   5.073   2.567   1.320 -0.4364 -0.5291 -0.2682
 2949WAT      O12515   1.590   0.364   6.321  0.3553 -0.4642  0.4376
 2949WAT     H112516   1.559   0.364   6.239  0.7553 -0.6565  0.2864
 2949WAT     H212517   1.569   0.285   6.351  1.4261 -0.9040  0.0565
 2949WAT    EPW12518   1.582   0.352   6.313  0.5726 -0.5576  0.3589
 2950WAT      O12519   6.298   1.026   4.907  0.2948 -0.8312 -0.1168
 2950WAT     H112520   6.318   1.027   4.822  0.0723 -0.8637 -0.1714
 2950WAT     H212521   6.226   1.075   4.911  2.0341  1.9243  0.4971
 2950WAT    EPW12522   6.290   1.034   4.895  0.5189 -0.4290 -0.0342
 2951WAT      O12523   1.699   0.859   0.440 -0.0738 -0.2670  0.3451
 2951WAT     H112524   1.769   0.878   0.488 -0.6147 -0.1230  1.1028
 2951WAT     H212525   1.632   0.876   0.493 -0.6775 -0.9708 -0.1549
 2951WAT    EPW12526   1.700   0.864   0.455 -0.2429 -0.3497  0.3832
 2952WAT      O12527   2.084   4.645   1.774  0.4420 -0.2611  0.2302
 2952WAT     H112528   2.056   4.564   1.756  1.0756 -0.3931 -0.2418
 2952WAT     H212529   2.012   4.693   1.774  0.1495 -0.6828 -0.3869
 2952WAT    EPW12530   2.069   4.640   1.771  0.4924 -0.3429  0.0693
 2953WAT      O12531   5.789   1.308   6.717 -0.3784 -0.3092 -0.3462
 2953WAT     H112532   5.842   1.282   6.653  0.5154  0.8440 -0.1059
 2953WAT     H212533   5.797   1.245   6.777  0.6014 -0.2509 -0.3978
 2953WAT    EPW12534   5.798   1.295   6.717 -0.1016 -0.1302 -0.3183
 2954WAT      O12535   7.032   4.364   0.930  0.1376 -0.6862 -0.0999
 2954WAT     H112536   7.019   4.321   1.005 -0.8276  1.4858  1.0637
 2954WAT     H212537   6.965   4.339   0.880  0.3713 -1.5689  0.0039
 2954WAT    EPW12538   7.020   4.354   0.934  0.0295 -0.4958  0.0873
 2955WAT      O12539   0.249   6.307   4.888 -0.0071 -0.5288  0.6949
 2955WAT     H112540   0.280   6.226   4.898  0.2474 -0.7752 -1.5121
 2955WAT     H212541   0.170   6.294   4.852 -0.2100  0.1865  0.8788
 2955WAT    EPW12542   0.242   6.293   4.884  0.0005 -0.4595  0.3961
 2956WAT      O12543   4.809   0.112   1.287  0.3931 -0.2243  0.0144
 2956WAT     H112544   4.792   0.043   1.237  2.7040 -0.4314 -0.6301
 2956WAT     H212545   4.828   0.078   1.365  0.2979 -0.2108  0.0434
 2956WAT    EPW12546   4.809   0.097   1.291  0.7204 -0.2529 -0.0765
 2957WAT      O12547   2.272   6.879   1.759  0.0494 -0.1091  0.2670
 2957WAT     H112548   2.303   6.919   1.830  0.7734 -2.6199  1.4854
 2957WAT     H212549   2.342   6.872   1.708  0.3236 -1.2230  0.7757
 2957WAT    EPW12550   2.287   6.884   1.762  0.1968 -0.6446  0.5221
 2958WAT      O12551   0.026   4.556   3.719 -0.2964 -0.4559 -0.3914
 2958WAT     H112552   0.056   4.537   3.639  2.5484  1.9314 -0.0607
 2958WAT     H212553   0.036   4.480   3.762  1.0455 -1.0091 -1.5626
 2958WAT    EPW12554   0.032   4.542   3.713  0.3220 -0.1850 -0.5156
 2959WAT      O12555   3.409   4.968   7.030  0.1708  0.3534 -0.4302
 2959WAT     H112556   3.435   4.948   7.110  1.1684 -1.7614 -1.2120
 2959WAT     H212557   3.432   5.052   7.022 -0.5790  0.8201  1.6821
 2959WAT    EPW12558   3.417   4.978   7.040  0.2074  0.1099 -0.2336
 2960WAT      O12559   2.757   2.125   4.304 -0.3104  0.0103  0.1258
 2960WAT     H112560   2.761   2.212   4.314  0.1992  0.0326 -0.2269
 2960WAT     H212561   2.749   2.114   4.218  0.6613 -0.3142  0.0649
 2960WAT    EPW12562   2.756   2.136   4.293 -0.0916 -0.0344  0.0647
 2961WAT      O12563   6.836   2.066   6.745 -0.7804  0.2280 -0.0274
 2961WAT     H112564   6.812   2.020   6.675  0.0903 -0.4204  0.0756
 2961WAT     H212565   6.853   2.005   6.805  0.4086  0.6655  0.1159
 2961WAT    EPW12566   6.835   2.050   6.743 -0.4761  0.1969  0.0090
 2962WAT      O12567   1.413   5.526   1.808 -0.3269 -0.5346 -0.4198
 2962WAT     H112568   1.412   5.613   1.797 -1.6331 -0.3468  0.9381
 2962WAT     H212569   1.490   5.512   1.847 -0.5415  0.1591  0.2834
 2962WAT    EPW12570   1.424   5.537   1.812 -0.5515 -0.4044 -0.1154
 2963WAT      O12571   4.656   5.092   6.987  0.2400  0.2873 -0.2763
 2963WAT     H112572   4.629   5.069   7.067  1.2007  0.3028  0.0609
 2963WAT     H212573   4.705   5.163   7.002  1.1964 -0.2625 -0.7665
 2963WAT    EPW12574   4.659   5.099   7.001  0.5232  0.2084 -0.2989
 2964WAT      O12575   5.046   5.829   3.627 -0.3831 -0.0024  0.0354
 2964WAT     H112576   5.113   5.846   3.574 -0.1166  0.6615  0.5772
 2964WAT     H212577   4.991   5.895   3.612 -0.5743 -0.1323  0.1590
 2964WAT    EPW12578   5.048   5.841   3.617 -0.3720  0.0765  0.1337
 2965WAT      O12579   2.626   2.107  -0.002 -0.4224 -0.2525  0.4768
 2965WAT     H112580   2.697   2.075  -0.042 -0.1224  2.1301 -1.1379
 2965WAT     H212581   2.658   2.146   0.069 -0.0636  0.8055 -0.2410
 2965WAT    EPW12582   2.641   2.108   0.002 -0.3251  0.2557  0.1322
 2966WAT      O12583   7.231   5.335   7.284  0.4157 -0.5090  0.0766
 2966WAT     H112584   7.266   5.365   7.210  1.4785 -3.4293 -0.7506
 2966WAT     H212585   7.291   5.353   7.344  0.6920 -0.3391 -0.2491
 2966WAT    EPW12586   7.245   5.342   7.282  0.6135 -0.9153 -0.0937
 2967WAT      O12587   3.856   0.420   0.523 -0.2694  0.5437  0.5111
 2967WAT     H112588   3.892   0.500   0.521  0.4845  0.2233  0.7281
 2967WAT     H212589   3.849   0.402   0.608 -0.2836  0.3180  0.4636
 2967WAT    EPW12590   3.860   0.429   0.535 -0.1601  0.4630  0.5361
 2968WAT      O12591   0.333   1.625   6.081  0.2855  0.0299 -0.5749
 2968WAT     H112592   0.359   1.654   6.004  2.2317 -0.7070 -0.2461
 2968WAT     H212593   0.405   1.592   6.117 -0.7640 -0.5686  1.1484
 2968WAT    EPW12594   0.347   1.624   6.075  0.4180 -0.1674 -0.2718
 2969WAT      O12595   6.333   2.112   7.353  0.2007  0.1279  0.1935
 2969WAT     H112596   6.255   2.145   7.377 -0.2058 -0.5146 -0.2110
 2969WAT     H212597   6.384   2.182   7.348  0.0885  0.3936  2.1031
 2969WAT    EPW12598   6.329   2.127   7.356  0.1241  0.0722  0.4158
 2970WAT      O12599   0.298   0.698   5.681 -0.3432  0.4276  0.2024
 2970WAT     H112600   0.313   0.780   5.708 -1.9884  0.9034 -0.2197
 2970WAT     H212601   0.282   0.655   5.755 -1.3006  0.9242  0.3004
 2970WAT    EPW12602   0.298   0.704   5.696 -0.7277  0.5712  0.1545
 2971WAT      O12603   0.043   4.236   4.665  0.0273  0.2069 -0.3434
 2971WAT     H112604   0.058   4.205   4.585 -0.9570  0.7882 -0.7631
 2971WAT     H212605   0.075   4.317   4.663  0.2066  0.1464 -0.0712
 2971WAT    EPW12606   0.050   4.243   4.653 -0.0917  0.2838 -0.3652
 2972WAT      O12607   7.129   6.379   5.136 -0.1525  0.6670  0.2611
 2972WAT     H112608   7.216   6.370   5.128 -0.3122 -0.1859 -0.7109
 2972WAT     H212609   7.103   6.398   5.054 -0.8151  1.6203  0.6771
 2972WAT    EPW12610   7.138   6.381   5.122 -0.2740  0.6818  0.1790
 2973WAT      O12611   0.527   1.803   4.818 -0.5680  0.5696 -0.1060
 2973WAT     H112612   0.480   1.774   4.885 -1.9694 -0.7430 -1.5675
 2973WAT     H212613   0.538   1.733   4.768  0.2594  1.5418 -1.3633
 2973WAT    EPW12614   0.522   1.789   4.820 -0.6528  0.5193 -0.5076
 2974WAT      O12615   1.388   0.808   1.469  0.3517  0.2531  0.1690
 2974WAT     H112616   1.311   0.800   1.509 -0.2615 -2.2644 -1.2676
 2974WAT     H212617   1.444   0.772   1.526 -0.4606 -3.0041 -0.8948
 2974WAT    EPW12618   1.385   0.801   1.484  0.1411 -0.6000 -0.2003
 2975WAT      O12619   5.053   3.721   3.313 -0.0576  0.2101  0.7681
 2975WAT     H112620   4.990   3.681   3.269  0.5510 -1.3190  1.2166
 2975WAT     H212621   5.012   3.760   3.378 -0.7732  1.1055 -0.1906
 2975WAT    EPW12622   5.038   3.721   3.316 -0.0734  0.1165  0.6927
 2976WAT      O12623   4.121   1.446   1.156 -0.3919  0.4672 -0.7692
 2976WAT     H112624   4.058   1.506   1.166 -0.1199  0.6312  0.0138
 2976WAT     H212625   4.162   1.446   1.233  0.2178 -0.0396 -1.0843
 2976WAT    EPW12626   4.118   1.455   1.168 -0.2616  0.4165 -0.7001
 2977WAT      O12627   7.193   6.164   6.479  0.6145 -0.4508 -0.3876
 2977WAT     H112628   7.116   6.149   6.516  0.8195 -2.2152 -0.5870
 2977WAT     H212629   7.192   6.250   6.463 -0.9212 -0.2857  0.4281
 2977WAT    EPW12630   7.182   6.174   6.482  0.4179 -0.6871 -0.2966
 2978WAT      O12631   2.259   0.590   3.456 -0.6557 -0.5513  0.2494
 2978WAT     H112632   2.289   0.580   3.537  1.0745 -4.0953 -0.6254
 2978WAT     H212633   2.316   0.544   3.407 -3.5963 -1.6388 -2.5048
 2978WAT    EPW12634   2.272   0.582   3.461 -0.8345 -1.2355 -0.2867
 2979WAT      O12635   4.527   6.521   7.370 -0.2974 -0.2922 -0.2038
 2979WAT     H112636   4.598   6.548   7.327 -1.0105  2.1784  0.0141
 2979WAT     H212637   4.482   6.478   7.310  1.1457 -1.5574 -0.4550
 2979WAT    EPW12638   4.531   6.519   7.355 -0.1896 -0.1142 -0.2087
 2980WAT      O12639   0.983   0.859   4.712 -0.6901  0.4886  0.2059
 2980WAT     H112640   0.912   0.907   4.697 -0.8264  0.2321  0.0205
 2980WAT     H212641   0.955   0.777   4.702  0.4995  0.3351 -4.3113
 2980WAT    EPW12642   0.968   0.854   4.708 -0.5345  0.4281 -0.4887
 2981WAT      O12643   5.871   1.906   7.393 -0.0849 -0.4239 -0.3645
 2981WAT     H112644   5.914   1.876   7.462 -0.9822 -0.8583  0.0222
 2981WAT     H212645   5.887   1.847   7.331  2.2677  0.9078 -1.1561
 2981WAT    EPW12646   5.879   1.893   7.394  0.1301 -0.2914 -0.4243
 2982WAT      O12647   6.945   3.889   3.263  0.3086 -0.0541 -0.0508
 2982WAT     H112648   7.029   3.889   3.284 -0.5389  0.7513  4.3583
 2982WAT     H212649   6.921   3.972   3.273 -0.7046  0.2955 -3.7611
 2982WAT    EPW12650   6.954   3.901   3.267  0.0337  0.1166  0.0524
 2983WAT      O12651   4.777   4.905   3.567 -0.4481  0.1908  0.1150
 2983WAT     H112652   4.780   4.977   3.617 -1.3658  1.0010 -0.9357
 2983WAT     H212653   4.693   4.881   3.570  0.1380 -1.9561  1.8912
 2983WAT    EPW12654   4.765   4.912   3.575 -0.4971 -0.0067  0.2222
 2984WAT      O12655   6.070   6.489   6.679 -0.2974 -0.4383  0.1356
 2984WAT     H112656   6.129   6.444   6.725 -0.3654 -2.2032 -1.3929
 2984WAT     H212657   6.109   6.500   6.602 -0.6283  1.4652  0.2042
 2984WAT    EPW12658   6.084   6.484   6.674 -0.3563 -0.4178 -0.0800
 2985WAT      O12659   4.849   2.249   1.889 -0.2876  0.0554  0.1722
 2985WAT     H112660   4.841   2.201   1.817 -1.0984  1.0747 -0.4446
 2985WAT     H212661   4.920   2.216   1.928  0.8601  0.2053 -1.6746
 2985WAT    EPW12662   4.859   2.237   1.884 -0.2378  0.2281 -0.1917
 2986WAT      O12663   3.583   6.105   4.185  0.5637 -0.3930  0.2718
 2986WAT     H112664   3.545   6.028   4.203  0.1482 -0.2721 -0.0664
 2986WAT     H212665   3.661   6.083   4.153  0.7530 -0.6495  0.8981
 2986WAT    EPW12666   3.589   6.091   4.183  0.5303 -0.4131  0.3144
 2987WAT      O12667   6.676   5.488   4.985  0.1843  0.0885 -0.1520
 2987WAT     H112668   6.611   5.546   4.977  0.1184 -0.0196 -0.4049
 2987WAT     H212669   6.711   5.485   4.906  0.9004  0.6077  0.1438
 2987WAT    EPW12670   6.671   5.496   4.972  0.2803  0.1492 -0.1457
 2988WAT      O12671   7.032   6.104   4.002  0.1731 -0.4908 -0.3510
 2988WAT     H112672   6.958   6.095   4.047 -1.7190 -2.0026 -3.3861
 2988WAT     H212673   7.052   6.188   4.010 -1.0013 -0.3474  1.7474
 2988WAT    EPW12674   7.024   6.115   4.010 -0.2799 -0.6929 -0.4894
 2989WAT      O12675   3.774   0.498   4.198  0.0806  0.8984  0.0358
 2989WAT     H112676   3.716   0.487   4.134  1.1789 -2.7247 -0.5888
 2989WAT     H212677   3.730   0.475   4.270  0.3702 -0.8430 -0.3015
 2989WAT    EPW12678   3.759   0.493   4.199  0.2856  0.1060 -0.1063
 2990WAT      O12679   3.072   2.128   6.931  0.2342 -0.0610 -0.2278
 2990WAT     H112680   3.118   2.160   6.865  0.9530  2.1271  1.2440
 2990WAT     H212681   3.066   2.194   6.987 -1.5141 -1.4021  1.3307
 2990WAT    EPW12682   3.078   2.142   6.929  0.0821  0.0641  0.2199
 2991WAT      O12683   3.096   0.405   6.895  0.5933 -0.3118  0.2790
 2991WAT     H112684   3.172   0.416   6.937  0.3603 -0.6601  0.7870
 2991WAT     H212685   3.080   0.320   6.902  0.6649 -0.4234 -0.7189
 2991WAT    EPW12686   3.105   0.394   6.902  0.5695 -0.3798  0.2066
 2992WAT      O12687   0.466   3.403   7.031  0.2097 -0.3916  0.2358
 2992WAT     H112688   0.405   3.346   7.055 -0.0107 -0.3737 -0.2624
 2992WAT     H212689   0.421   3.461   6.983  0.5403 -0.1475  0.2211
 2992WAT    EPW12690   0.450   3.403   7.027  0.2259 -0.3529  0.1600
 2993WAT      O12691   5.933   7.085   5.974  0.4849  0.6117  0.3958
 2993WAT     H112692   5.860   7.073   5.927  0.5983 -0.0347  0.3649
 2993WAT     H212693   5.923   7.030   6.041  0.2259  1.6801  1.2594
 2993WAT    EPW12694   5.921   7.075   5.977  0.4634  0.6740  0.5188
 2994WAT      O12695   4.742   0.334   5.914 -0.5743  0.0004 -0.0594
 2994WAT     H112696   4.816   0.315   5.872 -0.2312  0.5654  0.2893
 2994WAT     H212697   4.680   0.306   5.859 -0.1404  1.0029 -1.0942
 2994WAT    EPW12698   4.744   0.327   5.900 -0.4595  0.2319 -0.1608
 2995WAT      O12699   1.097   3.642   4.149  0.3624  0.3045  0.4000
 2995WAT     H112700   1.124   3.602   4.077  1.3656  0.6382  0.5681
 2995WAT     H212701   1.091   3.578   4.208  0.8834  0.2314  0.3770
 2995WAT    EPW12702   1.100   3.627   4.147  0.5876  0.3430  0.4214
 2996WAT      O12703   6.534   5.097   6.663  0.1201  0.4428  0.2604
 2996WAT     H112704   6.477   5.080   6.599  0.1902  0.1135  0.2862
 2996WAT     H212705   6.580   5.165   6.631 -0.5599  0.9896  0.4217
 2996WAT    EPW12706   6.533   5.105   6.649  0.0300  0.4749  0.2881
 2997WAT      O12707   1.091   0.785   4.344 -0.7268 -0.1992  0.1677
 2997WAT     H112708   1.024   0.729   4.338 -0.9844  0.1299 -0.0425
 2997WAT     H212709   1.093   0.806   4.428 -1.1503  0.1110  0.1006
 2997WAT    EPW12710   1.082   0.780   4.355 -0.8274 -0.1047  0.1267
 2998WAT      O12711   2.667   2.190   0.875 -0.1678  0.3682  0.0641
 2998WAT     H112712   2.656   2.104   0.867  2.2654 -0.0582  0.5704
 2998WAT     H212713   2.699   2.215   0.798 -2.3621  1.1784 -0.6597
 2998WAT    EPW12714   2.670   2.181   0.863 -0.1325  0.4249  0.0319
 2999WAT      O12715   2.029   2.085   6.943  0.2283 -0.1903  0.1702
 2999WAT     H112716   1.993   2.131   6.878 -1.4667 -0.2927  1.0085
 2999WAT     H212717   2.114   2.083   6.920  0.2511  2.5080 -0.4023
 2999WAT    EPW12718   2.036   2.092   6.930 -0.0187  0.1932  0.2095
 3000WAT      O12719   0.596   3.459   5.341  0.0605  0.2611  0.2252
 3000WAT     H112720   0.599   3.448   5.428  0.6050 -0.2530  0.1498
 3000WAT     H212721   0.662   3.409   5.312 -0.9009 -0.5848 -0.5848
 3000WAT    EPW12722   0.606   3.450   5.350 -0.0011  0.0602  0.0944
 3001WAT      O12723   3.311   0.412   7.100 -0.5355 -0.3813  0.0986
 3001WAT     H112724   3.375   0.379   7.050 -1.2568 -0.3904 -0.8508
 3001WAT     H212725   3.341   0.492   7.119 -0.5865 -0.0735 -1.0290
 3001WAT    EPW12726   3.325   0.419   7.095 -0.6496 -0.3372 -0.2082
 3002WAT      O12727   2.828   1.634   4.174 -0.2993  0.0352 -0.0944
 3002WAT     H112728   2.812   1.570   4.117 -1.9913  0.2812  0.0554
 3002WAT     H212729   2.912   1.654   4.160  0.1062 -1.8172 -0.5239
 3002WAT    EPW12730   2.838   1.627   4.164 -0.4893 -0.2021 -0.1357
 3003WAT      O12731   3.681   3.251   6.491  0.1358  0.3800 -0.0934
 3003WAT     H112732   3.649   3.249   6.410 -0.5277 -0.5435  0.1685
 3003WAT     H212733   3.735   3.319   6.491 -0.0223  0.5151 -1.2483
 3003WAT    EPW12734   3.684   3.261   6.479  0.0144  0.2635 -0.2253
 3004WAT      O12735   5.729   2.052   5.674  0.2691 -0.1501 -0.1028
 3004WAT     H112736   5.669   2.027   5.616 -0.6599 -0.3703  0.9140
 3004WAT     H212737   5.791   2.090   5.626 -0.5950 -0.1026 -1.1959
 3004WAT    EPW12738   5.729   2.054   5.659  0.0042 -0.1756 -0.1141
 3005WAT      O12739   1.482   3.076   1.778  0.3669  0.4107  0.0434
 3005WAT     H112740   1.547   3.038   1.734  0.0912  0.3900 -0.3465
 3005WAT     H212741   1.522   3.141   1.821  0.5493  0.7990 -0.6931
 3005WAT    EPW12742   1.497   3.080   1.778  0.3531  0.4650 -0.1230
 3006WAT      O12743   0.228   0.918   2.434 -0.5096  0.2390  0.1504
 3006WAT     H112744   0.281   0.973   2.392 -0.7209  1.2390  1.1393
 3006WAT     H212745   0.261   0.840   2.415 -0.5534  0.6442 -1.7821
 3006WAT    EPW12746   0.241   0.915   2.425 -0.5472  0.4466  0.0110
 3007WAT      O12747   0.030   5.016   7.400 -0.1790  0.5750 -0.2787
 3007WAT     H112748   0.068   5.025   7.478  1.3700 -1.0164 -0.7914
 3007WAT     H212749  -0.040   5.067   7.406  1.1632  2.3789  1.3064
 3007WAT    EPW12750   0.025   5.025   7.412  0.2481  0.6064 -0.1203
 3008WAT      O12751   4.791   3.421   6.691 -0.3679 -0.5763 -0.3431
 3008WAT     H112752   4.856   3.395   6.743 -0.6980 -1.1640 -0.2149
 3008WAT     H212753   4.807   3.380   6.616 -0.5370 -0.6456 -0.3405
 3008WAT    EPW12754   4.803   3.411   6.688 -0.4417 -0.6734 -0.3238
 3009WAT      O12755   7.236   2.730   3.116 -0.9419 -0.6777 -0.9513
 3009WAT     H112756   7.174   2.788   3.138  0.2231 -0.3223  1.7436
 3009WAT     H212757   7.191   2.669   3.072 -3.3382 -0.6180  1.1481
 3009WAT    EPW12758   7.220   2.730   3.112 -1.1238 -0.6164 -0.2431
 3010WAT      O12759   1.657   2.056   6.437 -0.2189  0.2068  0.2853
 3010WAT     H112760   1.725   2.075   6.387  0.0327  0.9390  0.8841
 3010WAT     H212761   1.692   2.042   6.516 -0.5497 -1.4277  0.1788
 3010WAT    EPW12762   1.672   2.057   6.441 -0.2306  0.0735  0.3580
 3011WAT      O12763   1.329   2.394   0.364 -0.4917 -0.0113  0.3812
 3011WAT     H112764   1.360   2.475   0.351  1.2364 -0.4397  1.4282
 3011WAT     H212765   1.284   2.402   0.438  1.1245 -0.2817  1.4630
 3011WAT    EPW12766   1.327   2.407   0.373  0.0023 -0.1145  0.6957
 3012WAT      O12767   5.548   4.502   0.073  0.0743  0.1604 -0.4568
 3012WAT     H112768   5.566   4.575   0.030  0.2560  1.8100  2.1865
 3012WAT     H212769   5.625   4.478   0.107 -0.7070  1.8959  3.0472
 3012WAT    EPW12770   5.562   4.509   0.072 -0.0143  0.6605  0.4513
 3013WAT      O12771   7.307   1.523   2.780  0.2564 -0.0004  0.3007
 3013WAT     H112772   7.222   1.520   2.799 -0.2066  2.4162 -0.9178
 3013WAT     H212773   7.345   1.532   2.858 -0.8235  0.9774  0.7554
 3013WAT    EPW12774   7.300   1.524   2.794  0.0285  0.5010  0.1878
 3014WAT      O12775   6.605   6.033   5.236 -0.7404  0.5068 -0.1724
 3014WAT     H112776   6.524   6.010   5.214 -0.5060  0.4038 -0.9728
 3014WAT     H212777   6.639   6.063   5.161  1.3883 -3.4790 -1.1067
 3014WAT    EPW12778   6.598   6.034   5.222 -0.3913 -0.0972 -0.4287
 3015WAT      O12779   0.441   3.816   0.935  0.1825 -0.2873  0.6897
 3015WAT     H112780   0.494   3.865   0.886  1.9571 -1.4973  1.2955
 3015WAT     H212781   0.455   3.845   1.016  0.8442 -1.3948  0.9913
 3015WAT    EPW12782   0.451   3.827   0.940  0.5424 -0.6296  0.8237
 3016WAT      O12783   0.473   0.353   6.188  0.1377  0.1513 -0.2307
 3016WAT     H112784   0.533   0.361   6.251  2.0094 -2.5710 -1.4633
 3016WAT     H212785   0.417   0.295   6.222  0.2598 -0.1032 -0.4643
 3016WAT    EPW12786   0.473   0.345   6.203  0.4322 -0.2884 -0.4473
 3017WAT      O12787   2.258   4.902   7.085 -0.6378  0.2633  0.0961
 3017WAT     H112788   2.195   4.850   7.053 -0.5688  0.2150  0.0364
 3017WAT     H212789   2.331   4.867   7.052 -0.5578  0.1538  0.3896
 3017WAT    EPW12790   2.259   4.889   7.075 -0.6158  0.2400  0.1306
 3018WAT      O12791   1.280   2.733   4.933 -0.2823 -0.1775  0.3107
 3018WAT     H112792   1.228   2.767   4.994  0.3661  2.6466 -0.5395
 3018WAT     H212793   1.303   2.803   4.885  1.8371 -1.7641 -1.1758
 3018WAT    EPW12794   1.276   2.748   4.935  0.1265  0.0053 -0.0345
 3019WAT      O12795   0.941   0.594   3.486  0.9376  0.1109 -0.4668
 3019WAT     H112796   0.910   0.620   3.409 -0.4728 -0.2937 -0.0852
 3019WAT     H212797   0.879   0.619   3.542  1.0864 -1.1527  0.2999
 3019WAT    EPW12798   0.927   0.601   3.483  0.7512 -0.1355 -0.2972
 3020WAT      O12799   0.709   4.712   6.876 -0.0771 -0.7822 -0.5655
 3020WAT     H112800   0.638   4.758   6.855 -0.5094 -2.0595 -2.0172
 3020WAT     H212801   0.772   4.749   6.828  0.2331  0.1614  0.5057
 3020WAT    EPW12802   0.708   4.724   6.866 -0.0952 -0.8315 -0.6217
 3021WAT      O12803   1.428   3.999   5.545 -0.4282 -0.0733 -0.3965
 3021WAT     H112804   1.472   3.954   5.485 -2.2227  0.0301 -1.8990
 3021WAT     H212805   1.345   3.987   5.522 -1.1002  1.5170  0.9824
 3021WAT    EPW12806   1.422   3.990   5.533 -0.7925  0.1769 -0.4148
 3022WAT      O12807   3.957   1.973   2.763  0.5390 -0.4834 -0.3215
 3022WAT     H112808   3.948   1.989   2.848 -0.2069 -0.4435 -0.3934
 3022WAT     H212809   4.039   1.945   2.755  0.8054  0.0976  0.3149
 3022WAT    EPW12810   3.968   1.971   2.775  0.4682 -0.3917 -0.2381
 3023WAT      O12811   1.627   6.561   1.349 -0.2953 -0.3830 -0.1045
 3023WAT     H112812   1.674   6.618   1.395  1.6319 -1.9248 -0.0083
 3023WAT     H212813   1.644   6.582   1.266 -3.2726  1.9977 -0.2636
 3023WAT    EPW12814   1.637   6.572   1.343 -0.4504 -0.2591 -0.1138
 3024WAT      O12815   1.814   0.782   3.539 -0.0754  0.4799 -0.1279
 3024WAT     H112816   1.892   0.809   3.511  0.4179 -0.0503  0.7216
 3024WAT     H212817   1.825   0.770   3.624 -0.6538 -1.0502 -0.2359
 3024WAT    EPW12818   1.827   0.784   3.547 -0.0880  0.1755 -0.0184
 3025WAT      O12819   5.825   2.866   6.775  0.5252 -0.0064 -0.1290
 3025WAT     H112820   5.832   2.799   6.830 -0.3897 -1.0176 -1.1907
 3025WAT     H212821   5.745   2.857   6.741  0.9945  0.6573 -1.4994
 3025WAT    EPW12822   5.814   2.855   6.778  0.4593 -0.0577 -0.4883
 3026WAT      O12823   5.969   3.790   5.567 -0.1127  1.0624 -0.0480
 3026WAT     H112824   5.940   3.861   5.610  0.8418  0.1891  2.1795
 3026WAT     H212825   5.993   3.736   5.631  0.1205 -0.9020 -1.7087
 3026WAT    EPW12826   5.968   3.793   5.583  0.0628  0.6432  0.0358
 3027WAT      O12827   6.995   1.534   5.215  0.2936  0.1052 -0.7207
 3027WAT     H112828   7.077   1.541   5.187  1.4596 -2.1831  1.7119
 3027WAT     H212829   6.993   1.585   5.285 -0.9050  1.3470 -1.5951
 3027WAT    EPW12830   7.007   1.542   5.221  0.2888 -0.0494 -0.4906
 3028WAT      O12831   0.355   3.589   1.546  0.3673  0.0977  0.1901
 3028WAT     H112832   0.424   3.543   1.519 -0.4115 -1.2231  0.3418
 3028WAT     H212833   0.354   3.576   1.633 -1.9286 -2.8210 -0.0771
 3028WAT    EPW12834   0.365   3.580   1.555 -0.0869 -0.5286  0.1730
 3029WAT      O12835   1.339   4.659   1.908 -0.1657  0.1242 -0.7332
 3029WAT     H112836   1.392   4.669   1.840 -0.0807 -2.4332 -1.1678
 3029WAT     H212837   1.392   4.672   1.977  0.3248  0.3980 -1.1554
 3029WAT    EPW12838   1.355   4.662   1.908 -0.0807 -0.2131 -0.8597
 3030WAT      O12839   5.727   6.392   2.412  0.1929  0.1197 -0.1046
 3030WAT     H112840   5.641   6.396   2.426  0.0711  0.5456 -0.9048
 3030WAT     H212841   5.734   6.414   2.327  1.1058  0.2960  0.0155
 3030WAT    EPW12842   5.715   6.396   2.401  0.3097  0.2087 -0.2050
 3031WAT      O12843   5.318   5.714   1.146 -0.2820 -0.5437 -0.2524
 3031WAT     H112844   5.361   5.643   1.118 -1.0043 -0.7984 -0.7422
 3031WAT     H212845   5.258   5.682   1.200  0.0247 -0.2056  0.2982
 3031WAT    EPW12846   5.315   5.699   1.150 -0.3434 -0.5314 -0.2434
 3032WAT      O12847   0.831   6.377   4.914 -0.1527 -0.6470 -0.0727
 3032WAT     H112848   0.759   6.406   4.954 -0.3744  0.0111 -0.9405
 3032WAT     H212849   0.807   6.300   4.881 -0.2634 -0.7163  0.1633
 3032WAT    EPW12850   0.817   6.370   4.915 -0.2018 -0.5600 -0.1660
 3033WAT      O12851   5.266   2.293   1.840  0.8908  0.6660 -0.1626
 3033WAT     H112852   5.269   2.208   1.824  0.9150  0.3503  1.3351
 3033WAT     H212853   5.188   2.304   1.878  0.4108  1.5222 -1.3329
 3033WAT    EPW12854   5.254   2.282   1.843  0.8235  0.7459 -0.1142
 3034WAT      O12855   4.252   3.523   0.523 -0.0690  0.3557  0.4646
 3034WAT     H112856   4.286   3.562   0.452 -0.3203  0.8471  0.6078
 3034WAT     H212857   4.182   3.573   0.542 -0.2026  0.0256  0.8510
 3034WAT    EPW12858   4.247   3.536   0.515 -0.1259  0.3796  0.5428
 3035WAT      O12859   1.146   4.135   3.452  0.1369 -0.3497 -0.4331
 3035WAT     H112860   1.192   4.194   3.407  1.7931 -1.4601 -0.2995
 3035WAT     H212861   1.165   4.154   3.535 -0.7538  0.0047 -0.2951
 3035WAT    EPW12862   1.156   4.147   3.457  0.2500 -0.4614 -0.3929
 3036WAT      O12863   5.041   2.619   2.908 -0.0663  0.4926 -0.6028
 3036WAT     H112864   5.099   2.608   2.973  0.3321 -0.7221 -1.1360
 3036WAT     H212865   5.016   2.702   2.917 -0.0031  0.3618  1.0849
 3036WAT    EPW12866   5.046   2.630   2.919  0.0019  0.2938 -0.4322
 3037WAT      O12867   6.364   0.939   1.978  0.2239 -0.0259  0.0964
 3037WAT     H112868   6.277   0.948   1.970  0.1877  0.0063  0.5347
 3037WAT     H212869   6.395   0.997   1.921 -0.0364  0.5752  0.5576
 3037WAT    EPW12870   6.356   0.949   1.968  0.1801  0.0677  0.2293
 3038WAT      O12871   4.283   7.005   2.717 -0.3637 -0.1817  0.1755
 3038WAT     H112872   4.255   7.005   2.800 -2.6716  1.4748 -0.4883
 3038WAT     H212873   4.210   7.022   2.671  1.2740  1.6725 -1.9682
 3038WAT    EPW12874   4.268   7.008   2.723 -0.4627  0.3369 -0.2392
 3039WAT      O12875   5.990   0.968   5.410 -0.2168  0.0745  0.4651
 3039WAT     H112876   6.073   0.996   5.409 -0.8534  2.3215 -2.0556
 3039WAT     H212877   5.950   1.022   5.354 -3.6204 -0.3192  2.2917
 3039WAT    EPW12878   5.996   0.980   5.401 -0.8136  0.3483  0.3625
 3040WAT      O12879   4.874   3.479   1.482  0.4860 -0.1161 -0.0691
 3040WAT     H112880   4.907   3.402   1.457  2.0143  0.2737  0.6003
 3040WAT     H212881   4.928   3.504   1.546  0.2008  1.6423 -0.4730
 3040WAT    EPW12882   4.887   3.471   1.487  0.6696  0.2012 -0.0299
 3041WAT      O12883   0.734   5.145   3.139  0.2389  0.0161  0.0032
 3041WAT     H112884   0.789   5.100   3.191  2.1213  0.8523 -1.1514
 3041WAT     H212885   0.754   5.117   3.059 -0.6942  0.7232 -0.4902
 3041WAT    EPW12886   0.745   5.134   3.135  0.3791  0.2441 -0.2402
 3042WAT      O12887   7.236   6.188   3.592  0.2188  0.0370 -0.2842
 3042WAT     H112888   7.184   6.136   3.639  0.8617 -0.0278  0.3719
 3042WAT     H212889   7.183   6.251   3.565 -0.1385  0.1551  0.6603
 3042WAT    EPW12890   7.221   6.190   3.595  0.2610  0.0449 -0.0478
 3043WAT      O12891   2.601   0.864   1.708 -0.0783  0.0369 -0.1464
 3043WAT     H112892   2.574   0.806   1.648  1.1096 -0.4157 -0.2871
 3043WAT     H212893   2.673   0.898   1.671 -0.7520  1.6346 -0.0698
 3043WAT    EPW12894   2.608   0.860   1.694 -0.0023  0.2060 -0.1559
 3044WAT      O12895   5.545   3.913   6.627  0.2708  0.2194  0.4497
 3044WAT     H112896   5.560   3.998   6.641 -0.3891  0.4806 -0.3990
 3044WAT     H212897   5.464   3.901   6.656  0.2905 -0.0801  0.3858
 3044WAT    EPW12898   5.535   3.924   6.634  0.1762  0.2138  0.3149
 3045WAT      O12899   2.200   3.392   4.280  0.5896  0.2512 -0.0082
 3045WAT     H112900   2.196   3.356   4.200  0.9637 -0.4974  0.3019
 3045WAT     H212901   2.126   3.366   4.318  1.0706 -0.6238  0.3778
 3045WAT    EPW12902   2.189   3.383   4.274  0.7159  0.0114  0.0946
 3046WAT      O12903   1.533   0.258   5.042 -0.1548 -0.0908 -0.0895
 3046WAT     H112904   1.520   0.338   5.010  0.2590 -0.1623 -0.4567
 3046WAT     H212905   1.473   0.250   5.105  1.0338  1.2127  1.2734
 3046WAT    EPW12906   1.522   0.269   5.046  0.0819  0.0912  0.0576
 3047WAT      O12907   5.764   0.422   2.811  0.3122 -0.0233  0.4125
 3047WAT     H112908   5.814   0.486   2.843 -0.4885  1.0150 -0.3654
 3047WAT     H212909   5.695   0.464   2.779 -0.2434 -1.2904 -0.0980
 3047WAT    EPW12910   5.761   0.438   2.811  0.1119 -0.0571  0.2221
 3048WAT      O12911   1.089   2.805   2.069 -0.3853 -0.3570  0.0600
 3048WAT     H112912   1.031   2.848   2.020 -0.7623 -2.4242 -1.4665
 3048WAT     H212913   1.165   2.840   2.046 -0.6161 -0.8819 -1.6286
 3048WAT    EPW12914   1.091   2.816   2.058 -0.4751 -0.7399 -0.4149
 3049WAT      O12915   1.229   2.533   2.064  0.3156 -0.3887  0.1615
 3049WAT     H112916   1.253   2.538   2.148 -0.5741 -0.3149  0.4218
 3049WAT     H212917   1.156   2.581   2.061  0.5125 -0.1453 -0.7212
 3049WAT    EPW12918   1.221   2.541   2.076  0.2132 -0.3418  0.0695
 3050WAT      O12919   5.536   1.406   3.342 -0.0853  0.6553  0.4482
 3050WAT     H112920   5.614   1.369   3.352 -0.3477 -0.6362 -1.5407
 3050WAT     H212921   5.482   1.354   3.387 -0.2968 -0.9403 -1.4773
 3050WAT    EPW12922   5.539   1.393   3.350 -0.1553  0.2288 -0.1301
 3051WAT      O12923   0.193   0.824   1.302 -0.0668 -0.4514  0.2228
 3051WAT     H112924   0.172   0.889   1.248  0.9496 -0.1745  0.1299
 3051WAT     H212925   0.140   0.835   1.370 -0.7701 -0.2851 -0.3421
 3051WAT    EPW12926   0.182   0.835   1.304 -0.0205 -0.3859  0.1256
 3052WAT      O12927   4.913   5.380   2.288 -0.0475 -0.8410  0.1034
 3052WAT     H112928   4.887   5.455   2.253  0.0074 -0.3469  1.0857
 3052WAT     H212929   4.859   5.321   2.254 -1.1186 -0.1212  0.5368
 3052WAT    EPW12930   4.901   5.383   2.278 -0.1976 -0.6617  0.3125
 3053WAT      O12931   2.874   2.525   4.829  0.2374 -0.3454 -0.0878
 3053WAT     H112932   2.834   2.602   4.840  0.4181 -0.2864  0.1314
 3053WAT     H212933   2.940   2.527   4.885  1.1448 -0.0433 -1.1324
 3053WAT    EPW12934   2.878   2.536   4.839  0.3981 -0.2920 -0.2097
 3054WAT      O12935   5.232   1.809   5.318  0.5854  0.1987  0.3138
 3054WAT     H112936   5.299   1.805   5.262  0.4381  0.5799  0.0999
 3054WAT     H212937   5.259   1.763   5.387  0.9779  0.1644  0.1396
 3054WAT    EPW12938   5.246   1.802   5.320  0.6216  0.2500  0.2565
 3055WAT      O12939   1.640   3.131   2.010  0.1046 -0.0564  0.1121
 3055WAT     H112940   1.613   3.169   2.083 -1.1534 -1.3893  0.3636
 3055WAT     H212941   1.632   3.046   2.026  2.3081 -0.4871 -0.6503
 3055WAT    EPW12942   1.635   3.124   2.023  0.2443 -0.3169  0.0367
 3056WAT      O12943   0.759   3.023   4.229 -0.0651  0.0856 -0.2817
 3056WAT     H112944   0.762   2.987   4.150 -1.5408  0.9733 -0.7733
 3056WAT     H212945   0.769   3.108   4.213 -0.5464  0.2899  0.4619
 3056WAT    EPW12946   0.761   3.030   4.215 -0.3542  0.2469 -0.2445
 3057WAT      O12947   6.649   3.771   7.044  0.1173 -0.3538  0.1329
 3057WAT     H112948   6.616   3.693   7.065 -1.0901  0.0526 -0.1774
 3057WAT     H212949   6.606   3.793   6.971  1.3508  0.0424 -0.4913
 3057WAT    EPW12950   6.638   3.763   7.037  0.1211 -0.2353 -0.0052
 3058WAT      O12951   6.013   6.805   3.694  0.0345  0.2004 -0.5402
 3058WAT     H112952   5.967   6.754   3.748 -0.5633  0.5888 -0.6654
 3058WAT     H212953   6.010   6.884   3.732  0.6101  0.2331 -0.5493
 3058WAT    EPW12954   6.006   6.809   3.707  0.0312  0.2626 -0.5601
 3059WAT      O12955   6.930   4.078   2.381 -0.8060 -0.1250  0.1789
 3059WAT     H112956   6.952   4.160   2.401  0.4837  0.1777 -2.1179
 3059WAT     H212957   6.967   4.031   2.445  0.0292  0.9627  0.5222
 3059WAT    EPW12958   6.939   4.083   2.394 -0.4921  0.0804 -0.1097
 3060WAT      O12959   6.796   6.051   4.137  0.3436  0.2802 -0.3264
 3060WAT     H112960   6.736   6.036   4.075  0.7303 -0.3062 -0.5680
 3060WAT     H212961   6.801   5.974   4.179 -0.2496  0.8013  0.7388
 3060WAT    EPW12962   6.788   6.037   4.134  0.3131  0.2705 -0.2047
 3061WAT      O12963   5.155   3.122   6.588  0.2905  0.0924 -0.4555
 3061WAT     H112964   5.080   3.095   6.623  1.2776 -0.6154  1.2199
 3061WAT     H212965   5.142   3.115   6.502 -1.8936  0.9699 -0.2485
 3061WAT    EPW12966   5.142   3.117   6.580  0.1136  0.1175 -0.1774
 3062WAT      O12967   6.446   5.408   2.282 -0.8953  0.1330  0.0836
 3062WAT     H112968   6.500   5.470   2.254  0.7781 -2.1895 -2.3296
 3062WAT     H212969   6.367   5.436   2.257 -0.0366  0.6983 -2.1700
 3062WAT    EPW12970   6.442   5.421   2.274 -0.5212 -0.1266 -0.6058
 3063WAT      O12971   7.041   6.305   1.511  0.4011  0.0553 -0.0023
 3063WAT     H112972   7.118   6.345   1.499 -0.1743  1.0592 -0.5324
 3063WAT     H212973   7.017   6.282   1.431 -0.4030  0.8421 -0.0056
 3063WAT    EPW12974   7.049   6.308   1.498  0.1973  0.3198 -0.0811
 3064WAT      O12975   1.670   3.591   6.781  0.4173  0.2754 -0.3055
 3064WAT     H112976   1.592   3.561   6.754  0.5279 -0.0504 -0.2755
 3064WAT     H212977   1.677   3.559   6.862  0.0988  1.2280  0.1104
 3064WAT    EPW12978   1.660   3.582   6.789  0.3866  0.3680 -0.2397
 3065WAT      O12979   3.751   7.253   4.304 -0.2205 -0.5032 -0.5044
 3065WAT     H112980   3.815   7.276   4.359  0.9269 -1.6042 -1.3250
 3065WAT     H212981   3.700   7.201   4.353  1.0684 -1.8935 -0.5583
 3065WAT    EPW12982   3.752   7.248   4.320  0.1394 -0.8712 -0.6336
 3066WAT      O12983   5.903   3.617   6.798 -0.2496 -0.3811  0.1305
 3066WAT     H112984   5.950   3.678   6.756 -0.2777 -1.2589 -1.2272
 3066WAT     H212985   5.820   3.643   6.786 -0.2503 -0.5423 -0.2088
 3066WAT    EPW12986   5.897   3.630   6.790 -0.2539 -0.5346 -0.1202
 3067WAT      O12987   5.830   4.737   2.290 -0.5883 -0.7000 -0.7855
 3067WAT     H112988   5.887   4.795   2.257  1.6722 -0.6835  2.6917
 3067WAT     H212989   5.772   4.788   2.331 -0.0813 -0.7730  0.0548
 3067WAT    EPW12990   5.830   4.753   2.291 -0.1795 -0.7083 -0.1477
 3068WAT      O12991   3.243   1.345   1.542 -0.1644 -0.0677  0.4028
 3068WAT     H112992   3.171   1.298   1.528  0.5867 -0.9877 -0.5297
 3068WAT     H212993   3.267   1.370   1.462  1.5273 -1.3089  0.4774
 3068WAT    EPW12994   3.236   1.341   1.528  0.1964 -0.3869  0.2761
 3069WAT      O12995   0.527   1.730   3.181 -0.1669 -0.1177  0.1835
 3069WAT     H112996   0.535   1.647   3.207  2.1572 -0.3495 -1.0075
 3069WAT     H212997   0.570   1.732   3.105 -2.0961  1.7143 -0.9720
 3069WAT    EPW12998   0.534   1.718   3.174 -0.1085  0.1187 -0.1631
 3070WAT      O12999   0.235   7.128   6.349 -0.4009 -0.1433  0.1000
 3070WAT     H113000   0.260   7.047   6.371  3.1885  0.9582  0.9072
 3070WAT     H213001   0.213   7.164   6.425 -1.1879 -0.0983 -0.1404
 3070WAT    EPW13002   0.236   7.121   6.363  0.0131  0.0261  0.1838
 3071WAT      O13003   2.510   3.864   3.491  0.3352  0.4314  0.1519
 3071WAT     H113004   2.531   3.942   3.525  0.5004 -0.5820  2.6261
 3071WAT     H213005   2.580   3.815   3.509  0.5701 -0.1520 -2.0912
 3071WAT    EPW13006   2.524   3.868   3.499  0.3943  0.1955  0.1860
 3072WAT      O13007   0.610   6.748   3.675 -0.3789  0.1446  0.2833
 3072WAT     H113008   0.650   6.798   3.734 -1.0859  0.0184  0.8869
 3072WAT     H213009   0.663   6.679   3.668 -0.0353  0.3937  0.3907
 3072WAT    EPW13010   0.624   6.745   3.682 -0.4325  0.1628  0.3883
 3073WAT      O13011   1.785   0.320   3.159 -0.8669 -0.1004 -0.7547
 3073WAT     H113012   1.719   0.367   3.125 -1.3515 -0.3049 -0.1099
 3073WAT     H213013   1.771   0.324   3.245 -1.1573 -1.7437 -0.6844
 3073WAT    EPW13014   1.773   0.328   3.167 -0.9814 -0.3734 -0.6491
 3074WAT      O13015   7.240   2.916   5.027 -0.5205 -0.6340 -0.1045
 3074WAT     H113016   7.206   2.847   5.068  1.0089 -1.8286 -0.7699
 3074WAT     H213017   7.283   2.958   5.090  1.0931 -1.9866 -0.2543
 3074WAT    EPW13018   7.241   2.912   5.043 -0.0562 -1.0103 -0.2249
 3075WAT      O13019   0.637   0.684   6.351 -0.3154 -0.0710  0.0670
 3075WAT     H113020   0.644   0.729   6.276 -0.4475 -0.6492 -0.3030
 3075WAT     H213021   0.572   0.724   6.393  0.6932  1.1248  0.5016
 3075WAT    EPW13022   0.628   0.696   6.346 -0.1859  0.0202  0.0765
 3076WAT      O13023   1.331   0.486   5.256 -0.3602 -0.0446 -0.3482
 3076WAT     H113024   1.260   0.531   5.280 -0.0559  0.7304 -0.8538
 3076WAT     H213025   1.297   0.413   5.221 -0.9143  0.2870 -0.5308
 3076WAT    EPW13026   1.315   0.482   5.254 -0.3971  0.1189 -0.4499
 3077WAT      O13027   6.018   2.123   4.727 -0.0527  0.2605 -0.5125
 3077WAT     H113028   6.001   2.051   4.681 -0.6287  0.5142 -0.7070
 3077WAT     H213029   6.104   2.119   4.741  0.1921  0.3012 -1.8312
 3077WAT    EPW13030   6.028   2.112   4.722 -0.1016  0.3040 -0.7360
 3078WAT      O13031   4.281   5.604   1.384 -0.3003  0.0441 -0.1987
 3078WAT     H113032   4.290   5.654   1.313 -1.3790 -1.3529 -1.3829
 3078WAT     H213033   4.197   5.613   1.405 -0.4148 -0.9180 -0.1925
 3078WAT    EPW13034   4.270   5.613   1.376 -0.4766 -0.3044 -0.3727
 3079WAT      O13035   2.753   5.570   6.111  0.4709 -0.3595  0.2558
 3079WAT     H113036   2.707   5.624   6.162 -0.2974 -0.7336 -0.0165
 3079WAT     H213037   2.835   5.581   6.138  0.1304 -0.2542  1.2932
 3079WAT    EPW13038   2.758   5.580   6.122  0.3071 -0.3992  0.3688
 3080WAT      O13039   5.573   4.335   2.219 -0.4594 -0.1488  0.3279
 3080WAT     H113040   5.539   4.357   2.142 -3.0294 -0.2210  1.3390
 3080WAT     H213041   5.653   4.370   2.217 -0.6310  0.2985 -2.1305
 3080WAT    EPW13042   5.580   4.343   2.207 -0.8644 -0.0934  0.1141
 3081WAT      O13043   1.097   5.061   3.745 -0.2502 -0.2061  0.0662
 3081WAT     H113044   1.132   5.031   3.671  1.7445 -0.8529  1.2173
 3081WAT     H213045   1.039   4.999   3.767 -0.1577 -0.4736 -0.4346
 3081WAT    EPW13046   1.093   5.047   3.737  0.0581 -0.3412  0.1623
 3082WAT      O13047   7.237   1.587   5.081  0.1864  0.4290  0.1200
 3082WAT     H113048   7.301   1.531   5.063  0.0543  0.3297 -0.0530
 3082WAT     H213049   7.275   1.649   5.129  0.2809  0.0667  0.5162
 3082WAT    EPW13050   7.252   1.588   5.085  0.1809  0.3608  0.1530
 3083WAT      O13051   5.478   7.214   0.544 -0.4302  0.1997 -0.1559
 3083WAT     H113052   5.461   7.262   0.473 -2.4354 -0.4000 -0.1511
 3083WAT     H213053   5.479   7.132   0.513 -1.9687 -0.1248  0.5525
 3083WAT    EPW13054   5.476   7.209   0.529 -0.9537  0.0632 -0.0505
 3084WAT      O13055   1.521   4.839   5.021  1.1746 -0.4174 -0.3083
 3084WAT     H113056   1.451   4.849   4.970  2.3189  2.1807 -1.5664
 3084WAT     H213057   1.526   4.753   5.033 -1.5192 -0.7681 -1.1310
 3084WAT    EPW13058   1.512   4.828   5.015  0.9457 -0.0854 -0.6157
 3085WAT      O13059   2.436   5.781   1.488  0.0900 -0.4732  0.2152
 3085WAT     H113060   2.396   5.836   1.541  2.5302  0.2001  1.5022
 3085WAT     H213061   2.442   5.825   1.413  1.0912  0.6262  0.9211
 3085WAT    EPW13062   2.431   5.795   1.485  0.5984 -0.2114  0.5096
 3086WAT      O13063   5.597   5.956   4.762 -0.2197  0.3683  0.1050
 3086WAT     H113064   5.642   5.960   4.687  0.1035 -0.8670  0.2212
 3086WAT     H213065   5.514   5.970   4.737 -0.1749 -0.4854 -0.5502
 3086WAT    EPW13066   5.591   5.959   4.747 -0.1653  0.0597  0.0254
 3087WAT      O13067   6.451   2.211   1.188  0.2474 -0.4303 -0.2060
 3087WAT     H113068   6.389   2.232   1.247  0.4612 -0.6528  0.0996
 3087WAT     H213069   6.437   2.269   1.124 -0.1712 -0.3674 -0.0660
 3087WAT    EPW13070   6.439   2.223   1.187  0.2171 -0.4539 -0.1402
 3088WAT      O13071   7.288   6.234   5.743 -0.5493 -0.2343  0.5152
 3088WAT     H113072   7.314   6.172   5.799  2.6316  1.1736  0.7797
 3088WAT     H213073   7.245   6.290   5.794 -2.9184 -1.7625  0.3744
 3088WAT    EPW13074   7.285   6.233   5.759 -0.4293 -0.2521  0.5334
 3089WAT      O13075   5.113   6.660   6.077  0.0513 -0.1102  0.2428
 3089WAT     H113076   5.067   6.676   6.150  1.2618 -0.0116  1.0189
 3089WAT     H213077   5.124   6.739   6.042 -1.1138 -0.2278 -0.4433
 3089WAT    EPW13078   5.108   6.674   6.083  0.0580 -0.1130  0.2561
 3090WAT      O13079   5.929   1.398   5.707  0.2838  0.1599 -0.1612
 3090WAT     H113080   5.872   1.427   5.648  1.0694 -1.0210 -1.5758
 3090WAT     H213081   5.921   1.311   5.702  0.1543  0.0235  1.7314
 3090WAT    EPW13082   5.919   1.389   5.697  0.3807 -0.0347 -0.0906
 3091WAT      O13083   4.718   0.606   6.050  0.2164  0.1500  0.2296
 3091WAT     H113084   4.796   0.590   6.085 -1.4571 -1.4991  3.7994
 3091WAT     H213085   4.695   0.529   6.015  0.3368  0.7659 -1.2711
 3091WAT    EPW13086   4.726   0.592   6.050 -0.0130 -0.0027  0.5353
 3092WAT      O13087   5.461   4.484   0.792  0.1846 -0.2845 -0.2931
 3092WAT     H113088   5.421   4.560   0.778 -1.3626 -1.2806 -1.5537
 3092WAT     H213089   5.409   4.444   0.850  0.0168 -1.0783 -0.9794
 3092WAT    EPW13090   5.447   4.489   0.798 -0.0687 -0.5489 -0.5807
 3093WAT      O13091   3.348   5.180   3.910 -0.5586  0.7739 -0.1088
 3093WAT     H113092   3.410   5.185   3.970 -1.4215  0.6501  0.8232
 3093WAT     H213093   3.314   5.101   3.923 -0.1037  0.3271 -1.4426
 3093WAT    EPW13094   3.352   5.169   3.921 -0.6189  0.6896 -0.1681
 3094WAT      O13095   0.824   0.852   2.886  0.4131  0.4542  0.0487
 3094WAT     H113096   0.750   0.896   2.894  1.1446  1.8008 -0.3237
 3094WAT     H213097   0.859   0.855   2.966  1.1615  1.9099 -0.2854
 3094WAT    EPW13098   0.818   0.859   2.899  0.6317  0.8682 -0.0557
 3095WAT      O13099   4.721   1.247   3.405 -0.1421  0.3597 -0.1486
 3095WAT     H113100   4.734   1.301   3.337 -0.6784  1.1251  0.3455
 3095WAT     H213101   4.802   1.230   3.432  0.2512 -1.6734 -2.2492
 3095WAT    EPW13102   4.735   1.252   3.399 -0.1632  0.1724 -0.3859
 3096WAT      O13103   4.298   6.275   4.854  0.6123  0.3953  0.1205
 3096WAT     H113104   4.298   6.235   4.776 -0.0937  1.8191 -0.6415
 3096WAT     H213105   4.214   6.270   4.879  0.1938  2.4920 -0.6264
 3096WAT    EPW13106   4.285   6.268   4.846  0.4462  0.9153 -0.1024
 3097WAT      O13107   2.351   6.047   2.277  0.2923 -0.2436  0.8625
 3097WAT     H113108   2.299   5.977   2.281  1.9438 -1.4810  3.1954
 3097WAT     H213109   2.422   6.018   2.236  0.8687  0.1183  1.5784
 3097WAT    EPW13110   2.353   6.032   2.272  0.6214 -0.3729  1.3129
 3098WAT      O13111   5.953   0.030   6.147  0.5224  0.4377 -0.1503
 3098WAT     H113112   5.921  -0.014   6.078 -1.2105  1.2030  0.1080
 3098WAT     H213113   5.882   0.064   6.184  1.5857  1.4457  1.0565
 3098WAT    EPW13114   5.938   0.029   6.142  0.4235  0.6996  0.0661
 3099WAT      O13115   4.412   5.206   7.268 -0.2509  0.3668 -0.1383
 3099WAT     H113116   4.371   5.249   7.332 -1.3668  0.2732 -0.7665
 3099WAT     H213117   4.412   5.263   7.202  1.8099  0.8532  0.2142
 3099WAT    EPW13118   4.406   5.220   7.268 -0.1113  0.4249 -0.1791
 3100WAT      O13119   3.096   5.064   0.279 -0.0377 -0.3651 -0.0431
 3100WAT     H113120   3.131   5.029   0.207 -0.1284 -0.4370 -0.0528
 3100WAT     H213121   3.107   5.150   0.268  0.8288 -0.4217  0.3133
 3100WAT    EPW13122   3.103   5.072   0.266  0.0769 -0.3841  0.0081
 3101WAT      O13123   1.699   5.627   1.453  0.1364  0.4985 -0.3295
 3101WAT     H113124   1.617   5.610   1.480  0.5428 -0.6253  0.2301
 3101WAT     H213125   1.749   5.590   1.514  1.0838  1.0858 -0.7242
 3101WAT    EPW13126   1.694   5.619   1.466  0.3364  0.4193 -0.3051
 3102WAT      O13127   1.269   5.196   1.206  0.3559 -0.4117  0.5837
 3102WAT     H113128   1.183   5.213   1.205  0.7648  1.8912  0.5984
 3102WAT     H213129   1.274   5.124   1.256 -1.5514 -0.6427  0.5319
 3102WAT    EPW13130   1.257   5.188   1.213  0.1346 -0.1057  0.5782
 3103WAT      O13131   2.245   6.317   3.477  0.3476 -0.0274 -0.1001
 3103WAT     H113132   2.182   6.323   3.417  0.3858  1.4597 -0.0220
 3103WAT     H213133   2.312   6.282   3.433 -0.3595 -1.1911 -0.2971
 3103WAT    EPW13134   2.245   6.312   3.461  0.2488  0.0204 -0.1177
 3104WAT      O13135   1.089   0.759   0.337  0.5479  0.9286 -0.2894
 3104WAT     H113136   1.117   0.744   0.418  0.3571  0.1695 -0.3544
 3104WAT     H213137   1.035   0.827   0.346  0.0338  0.4527  0.3242
 3104WAT    EPW13138   1.086   0.767   0.350  0.4438  0.7461 -0.2083
 3105WAT      O13139   0.214   4.219   5.316 -0.3111  0.1550  0.4722
 3105WAT     H113140   0.286   4.216   5.365 -0.4874 -1.4165  0.6692
 3105WAT     H213141   0.168   4.150   5.342 -1.5624  0.7048 -0.1777
 3105WAT    EPW13142   0.218   4.209   5.327 -0.5220  0.0040  0.4053
 3106WAT      O13143   5.287   6.942   0.018 -0.0231  0.0785  0.7887
 3106WAT     H113144   5.245   7.012  -0.013 -0.5862 -0.1271  1.0902
 3106WAT     H213145   5.358   6.937  -0.034 -0.5959  0.1592 -0.0168
 3106WAT    EPW13146   5.291   6.952   0.005 -0.1909  0.0601  0.7143
 3107WAT      O13147   6.436   6.769   0.671  0.3853  0.3504 -0.2984
 3107WAT     H113148   6.395   6.705   0.712 -1.5437  0.9243 -1.2182
 3107WAT     H213149   6.434   6.744   0.587  0.4570  1.1648 -0.5507
 3107WAT    EPW13150   6.430   6.756   0.665  0.1110  0.5555 -0.4715
 3108WAT      O13151   5.529   3.371   4.764 -0.2470 -0.3916  0.1300
 3108WAT     H113152   5.610   3.404   4.761 -0.1910 -0.4298  0.9330
 3108WAT     H213153   5.528   3.314   4.698 -0.3377  1.1599 -1.2879
 3108WAT    EPW13154   5.541   3.368   4.754 -0.2522 -0.1680  0.0392
 3109WAT      O13155   6.031   6.889   5.818 -0.2142  0.1420  0.0495
 3109WAT     H113156   6.094   6.858   5.870 -0.1272 -0.2536 -0.2909
 3109WAT     H213157   6.007   6.963   5.858  0.4678  0.3060  0.1735
 3109WAT    EPW13158   6.037   6.896   5.832 -0.1006  0.1078  0.0175
 3110WAT      O13159   2.990   0.115   4.225 -0.5142  0.0823 -0.3323
 3110WAT     H113160   2.997   0.146   4.307 -1.8223 -0.2989 -0.0479
 3110WAT     H213161   2.907   0.089   4.220 -0.5035  0.2311 -1.8394
 3110WAT    EPW13162   2.979   0.116   4.236 -0.7059  0.0480 -0.5129
 3111WAT      O13163   5.341   6.726   7.005 -0.4579  0.2346  0.3226
 3111WAT     H113164   5.424   6.700   6.996 -0.4402  0.8914 -2.4914
 3111WAT     H213165   5.334   6.790   6.946 -3.9073 -2.3450 -2.4794
 3111WAT    EPW13166   5.353   6.731   6.995 -0.9648 -0.0495 -0.5070
 3112WAT      O13167   0.277   2.164   0.191 -0.1471  0.3386 -0.1849
 3112WAT     H113168   0.263   2.084   0.160  2.0709 -0.0044 -0.4592
 3112WAT     H213169   0.217   2.212   0.150 -0.1639 -0.8377 -1.6332
 3112WAT    EPW13170   0.266   2.159   0.180  0.1780  0.1142 -0.4394
 3113WAT      O13171   2.462   6.309   7.263  0.0101  0.5144  0.4627
 3113WAT     H113172   2.539   6.345   7.285 -0.8651  2.7032  0.2529
 3113WAT     H213173   2.432   6.362   7.201 -1.4797 -0.5641  0.2090
 3113WAT    EPW13174   2.469   6.322   7.257 -0.3393  0.6784  0.3942
 3114WAT      O13175   3.888   4.567   0.220  0.1697  0.1049  0.0824
 3114WAT     H113176   3.840   4.540   0.288  1.2539  0.7251  1.1452
 3114WAT     H213177   3.861   4.649   0.207  1.1969  0.6023  0.9626
 3114WAT    EPW13178   3.877   4.575   0.228  0.4816  0.2700  0.3694
 3115WAT      O13179   3.663   0.427   0.257  0.2132 -0.3084  0.1369
 3115WAT     H113180   3.684   0.450   0.338  1.0109  1.0154 -0.4103
 3115WAT     H213181   3.611   0.492   0.229  2.3670  0.9010 -1.3769
 3115WAT    EPW13182   3.659   0.440   0.265  0.6492  0.0658 -0.1676
 3116WAT      O13183   0.823   3.594   6.167  0.2792  0.2434  0.0372
 3116WAT     H113184   0.874   3.540   6.213 -0.1029 -0.9156 -0.8425
 3116WAT     H213185   0.782   3.640   6.228 -1.0974 -2.0454  0.9772
 3116WAT    EPW13186   0.824   3.593   6.183  0.0194 -0.2659  0.0461
 3117WAT      O13187   0.323   1.068   2.024  0.2475  0.4591  0.1493
 3117WAT     H113188   0.277   1.112   1.964  0.3027 -0.6736 -0.7641
 3117WAT     H213189   0.398   1.114   2.030 -0.6932  1.9560  1.1834
 3117WAT    EPW13190   0.328   1.082   2.016  0.1167  0.5129  0.1671
 3118WAT      O13191   6.285   1.731   1.492  0.8059 -0.8974  0.1511
 3118WAT     H113192   6.247   1.779   1.430  0.5347 -0.1158  0.8925
 3118WAT     H213193   6.266   1.775   1.566  1.9121 -1.2885  0.6874
 3118WAT    EPW13194   6.277   1.745   1.494  0.9293 -0.8397  0.3399
 3119WAT      O13195   5.760   6.216   3.220 -0.7773 -0.0119  0.5037
 3119WAT     H113196   5.833   6.197   3.262 -0.6376 -2.2965 -0.6453
 3119WAT     H213197   5.701   6.224   3.283 -0.0417 -0.6365  1.2797
 3119WAT    EPW13198   5.762   6.215   3.235 -0.6480 -0.4417  0.4486
 3120WAT      O13199   2.753   0.791   0.915 -0.0261 -0.0440  0.1430
 3120WAT     H113200   2.792   0.776   0.838  1.5302 -1.3536  1.1298
 3120WAT     H213201   2.801   0.854   0.950  0.4264 -0.7604  0.8238
 3120WAT    EPW13202   2.766   0.798   0.909  0.2706 -0.3433  0.3894
 3121WAT      O13203   5.403   4.854   4.736  0.0841 -1.0355 -0.1783
 3121WAT     H113204   5.413   4.819   4.815  0.8595 -0.3741  0.0339
 3121WAT     H213205   5.466   4.915   4.733 -0.9961  0.1030 -0.6640
 3121WAT    EPW13206   5.414   4.858   4.747  0.0391 -0.7697 -0.2187
 3122WAT      O13207   4.092   6.461   7.086 -0.5257 -0.2156 -0.4736
 3122WAT     H113208   4.091   6.542   7.053  1.7437 -0.2108 -0.6867
 3122WAT     H213209   4.043   6.467   7.158  0.2375  1.5749 -0.0550
 3122WAT    EPW13210   4.085   6.474   7.092 -0.0777  0.0496 -0.4433
 3123WAT      O13211   2.852   3.593   7.311 -0.3802  0.1391 -0.2336
 3123WAT     H113212   2.909   3.644   7.269  0.4498 -0.0126  0.6785
 3123WAT     H213213   2.900   3.525   7.336 -1.3593 -0.8591 -0.9730
 3123WAT    EPW13214   2.868   3.590   7.308 -0.4023 -0.0308 -0.2081
 3124WAT      O13215   2.319   3.173   5.460  0.2657  0.3620 -0.0856
 3124WAT     H113216   2.385   3.198   5.512 -0.6898 -1.8868  2.4382
 3124WAT     H213217   2.338   3.091   5.440 -0.5851  0.4655 -1.4675
 3124WAT    EPW13218   2.332   3.165   5.465 -0.0012  0.0451  0.0831
 3125WAT      O13219   1.279   5.920   6.368  0.2038 -0.1528  0.2135
 3125WAT     H113220   1.270   5.843   6.408 -0.2588 -0.0854  0.2460
 3125WAT     H213221   1.365   5.934   6.370  0.1102  0.6198  2.6360
 3125WAT    EPW13222   1.290   5.911   6.374  0.1216 -0.0287  0.5762
 3126WAT      O13223   1.848   4.760   6.764 -0.4529 -0.5519 -0.2553
 3126WAT     H113224   1.803   4.706   6.712  1.2681 -2.4544  0.0707
 3126WAT     H213225   1.831   4.839   6.733 -0.8717 -1.4930 -2.6158
 3126WAT    EPW13226   1.839   4.764   6.752 -0.2605 -0.9720 -0.5559
 3127WAT      O13227   4.016   3.468   1.580  0.0066  0.2104  0.5381
 3127WAT     H113228   4.063   3.399   1.553 -1.4529 -0.1881 -1.1047
 3127WAT     H213229   3.941   3.432   1.606 -1.1932  1.2087 -1.3493
 3127WAT    EPW13230   4.012   3.452   1.580 -0.3862  0.2990  0.0166
 3128WAT      O13231   1.256   4.614   4.336  0.0613  0.3816  0.0961
 3128WAT     H113232   1.293   4.686   4.368  2.6713 -0.9589  0.4232
 3128WAT     H213233   1.273   4.554   4.397 -1.2667 -0.7067 -0.5601
 3128WAT    EPW13234   1.264   4.616   4.349  0.2507  0.0228  0.0475
 3129WAT      O13235   1.157   2.990   0.149 -0.2724 -0.4100  0.4103
 3129WAT     H113236   1.117   2.987   0.226  1.7074 -0.3869  1.5115
 3129WAT     H213237   1.228   3.039   0.165 -0.4380  0.6384 -1.7468
 3129WAT    EPW13238   1.162   2.997   0.163 -0.0044 -0.2517  0.2543
 3130WAT      O13239   6.044   1.366   6.502 -0.2470 -0.1620 -0.4090
 3130WAT     H113240   5.966   1.383   6.465 -0.4252  0.8459  0.3763
 3130WAT     H213241   6.087   1.441   6.493 -0.8460  0.7161  2.7385
 3130WAT    EPW13242   6.039   1.380   6.495 -0.3618  0.1166  0.1720
 3131WAT      O13243   0.203   4.116   2.852 -0.2943 -0.2644  0.1114
 3131WAT     H113244   0.223   4.060   2.788 -2.6734 -0.2023 -0.7917
 3131WAT     H213245   0.252   4.186   2.835  0.8481 -1.1379 -0.2304
 3131WAT    EPW13246   0.213   4.118   2.840 -0.4770 -0.3843 -0.0725
 3132WAT      O13247   4.987   2.335   5.006  0.5151 -0.0165  0.2464
 3132WAT     H113248   5.036   2.266   5.026 -0.2911 -0.6557  0.0195
 3132WAT     H213249   4.922   2.333   5.064  0.9285  1.0390  0.7805
 3132WAT    EPW13250   4.985   2.325   5.018  0.4571  0.0450  0.2917
 3133WAT      O13251   0.360   1.242   5.311  0.6281 -0.0921 -0.0994
 3133WAT     H113252   0.431   1.219   5.356 -1.7393 -3.7792  2.3198
 3133WAT     H213253   0.334   1.166   5.275 -1.7300  1.2530 -1.4777
 3133WAT    EPW13254   0.367   1.227   5.312 -0.0700 -0.4381  0.0543
 3134WAT      O13255   5.450   4.152   1.147 -0.6640  0.6560 -0.3203
 3134WAT     H113256   5.524   4.166   1.103  0.0278 -0.1385  0.5328
 3134WAT     H213257   5.411   4.089   1.101 -1.5396  2.0485 -1.5719
 3134WAT    EPW13258   5.455   4.145   1.134 -0.6911  0.7444 -0.3791
 3135WAT      O13259   4.239   1.299   1.659  0.1193  0.3784  0.2674
 3135WAT     H113260   4.251   1.216   1.636  1.5656  0.5568  0.2857
 3135WAT     H213261   4.297   1.343   1.610  1.7097  1.0139  2.5215
 3135WAT    EPW13262   4.250   1.293   1.648  0.5679  0.4986  0.6031
 3136WAT      O13263   4.100   1.481   4.842  0.1522  0.0950  0.0146
 3136WAT     H113264   4.122   1.478   4.758 -0.3322 -1.2132 -0.0882
 3136WAT     H213265   4.072   1.400   4.859  0.2606  0.3257  1.4387
 3136WAT    EPW13266   4.099   1.468   4.832  0.0966 -0.0641  0.2098
 3137WAT      O13267   1.968   4.060   1.001 -0.5694  0.0509 -0.3087
 3137WAT     H113268   1.996   4.131   1.042  1.3541  0.6406 -2.4032
 3137WAT     H213269   1.927   4.091   0.930  0.5517 -0.8511 -1.4151
 3137WAT    EPW13270   1.966   4.075   0.996 -0.1196  0.0048 -0.7815
 3138WAT      O13271   0.285   6.693   4.841  0.5598 -0.3451 -0.6358
 3138WAT     H113272   0.340   6.627   4.852 -0.7658 -1.5715 -1.0859
 3138WAT     H213273   0.243   6.698   4.918  1.6687  1.0053 -0.0613
 3138WAT    EPW13274   0.287   6.684   4.854  0.5278 -0.3268 -0.6174
 3139WAT      O13275   1.167   5.764   2.315  0.1563 -0.1709 -0.1445
 3139WAT     H113276   1.171   5.726   2.236 -1.0672 -1.4953  0.4031
 3139WAT     H213277   1.245   5.746   2.349 -0.0490 -1.3919 -0.2711
 3139WAT    EPW13278   1.179   5.756   2.308 -0.0548 -0.5469 -0.0823
 3140WAT      O13279   6.599   4.268   1.415 -0.6153 -0.1124 -0.3675
 3140WAT     H113280   6.641   4.216   1.359 -0.3649 -1.0467  0.6317
 3140WAT     H213281   6.588   4.217   1.485  1.9658  1.8636  1.7035
 3140WAT    EPW13282   6.604   4.252   1.417 -0.1971  0.0415  0.0860
 3141WAT      O13283   0.901   4.796   2.934  0.4586  0.7960 -0.1495
 3141WAT     H113284   0.819   4.826   2.933 -1.1107 -2.8597 -2.7230
 3141WAT     H213285   0.942   4.847   2.876 -0.6304  1.2231 -0.5688
 3141WAT    EPW13286   0.895   4.808   2.926  0.0659  0.3190 -0.5916
 3142WAT      O13287   7.154   5.009   2.643 -0.2013 -0.0414 -0.5255
 3142WAT     H113288   7.072   4.990   2.621  0.2163 -2.2671 -0.3999
 3142WAT     H213289   7.168   4.961   2.715  0.8710  1.1696  0.1233
 3142WAT    EPW13290   7.144   4.999   2.651  0.0188 -0.1913 -0.4111
 3143WAT      O13291   3.501   3.111   0.835 -0.2018 -0.5002 -0.1951
 3143WAT     H113292   3.428   3.103   0.883  0.8106 -0.6104  1.4125
 3143WAT     H213293   3.504   3.035   0.792 -0.3977 -1.0287  0.6861
 3143WAT    EPW13294   3.490   3.098   0.836 -0.0812 -0.5945  0.1726
 3144WAT      O13295   0.013   1.481   4.686 -0.0606 -0.3632  0.0020
 3144WAT     H113296   0.046   1.551   4.726 -0.4713 -0.0926 -0.1335
 3144WAT     H213297   0.084   1.433   4.667  0.1246 -0.6449  1.3212
 3144WAT    EPW13298   0.029   1.484   4.689 -0.0939 -0.3649  0.1768
 3145WAT      O13299   2.644   1.616   3.386 -0.5115  0.0221 -0.0698
 3145WAT     H113300   2.726   1.620   3.358 -1.0806 -0.9886 -2.1825
 3145WAT     H213301   2.600   1.665   3.328 -1.6150 -1.0635 -0.2098
 3145WAT    EPW13302   2.649   1.624   3.373 -0.7586 -0.2875 -0.4026
 3146WAT      O13303   6.238   0.102   2.330 -0.7416  0.2559 -0.0427
 3146WAT     H113304   6.185   0.166   2.357  1.5580  1.6547  1.6081
 3146WAT     H213305   6.220   0.036   2.384 -0.9941  0.6311  0.3397
 3146WAT    EPW13306   6.228   0.102   2.342 -0.4392  0.5179  0.2577
 3147WAT      O13307   4.035   4.334   3.803 -0.1484  0.3781  0.3915
 3147WAT     H113308   4.054   4.336   3.888  1.6419  0.8558  0.0168
 3147WAT     H213309   3.979   4.401   3.794 -1.4299 -0.5011  1.3775
 3147WAT    EPW13310   4.030   4.344   3.815 -0.0733  0.3188  0.4818
 3148WAT      O13311   1.503   5.036   6.717 -0.2812  0.0191  0.5171
 3148WAT     H113312   1.561   5.033   6.782  0.8657  0.2523 -0.4698
 3148WAT     H213313   1.541   5.088   6.658 -0.8768 -0.9480 -0.7477
 3148WAT    EPW13314   1.517   5.043   6.718 -0.1998 -0.0893  0.1845
 3149WAT      O13315   1.109   0.825   3.509  0.4413  0.5486  0.7107
 3149WAT     H113316   1.190   0.818   3.541  0.9175  2.1401 -0.0123
 3149WAT     H213317   1.068   0.754   3.539  2.4437 -0.9815  0.0248
 3149WAT    EPW13318   1.115   0.814   3.518  0.8074  0.5576  0.5026
 3150WAT      O13319   5.641   4.585   5.697  0.3453  0.1572  0.1940
 3150WAT     H113320   5.671   4.575   5.778  1.0264 -0.7456 -0.1500
 3150WAT     H213321   5.555   4.588   5.707  0.4571  1.0248  1.0381
 3150WAT    EPW13322   5.633   4.584   5.710  0.4624  0.1520  0.2679
 3151WAT      O13323   0.155   0.553   3.839  0.7297 -0.2232 -0.2394
 3151WAT     H113324   0.112   0.601   3.897 -0.0727  0.9014 -1.7041
 3151WAT     H213325   0.222   0.605   3.816  0.0494  0.0890 -1.5823
 3151WAT    EPW13326   0.159   0.568   3.844  0.5106 -0.0109 -0.6542
 3152WAT      O13327   3.268   2.791   6.611  0.1799  0.1883 -0.4210
 3152WAT     H113328   3.241   2.785   6.528  0.3754 -1.0483 -0.4142
 3152WAT     H213329   3.350   2.762   6.609  0.0413 -0.2901  0.2694
 3152WAT    EPW13330   3.276   2.785   6.598  0.1883 -0.0650 -0.3180
 3153WAT      O13331   6.400   5.089   1.566 -0.1275 -0.1544  0.4293
 3153WAT     H113332   6.445   5.041   1.624 -0.1705 -0.3233  0.3228
 3153WAT     H213333   6.385   5.164   1.609  0.8467  0.1719  0.2218
 3153WAT    EPW13334   6.404   5.093   1.581  0.0100 -0.1312  0.3829
 3154WAT      O13335   5.591   0.232   0.069  0.1451 -0.0651  0.3135
 3154WAT     H113336   5.648   0.167   0.061  1.4766  1.1916 -1.2423
 3154WAT     H213337   5.639   0.297   0.101 -0.9377  0.4234  0.9843
 3154WAT    EPW13338   5.607   0.232   0.072  0.1818  0.1927  0.1827
 3155WAT      O13339   1.073   0.946   5.806  0.3449 -0.0244  0.0269
 3155WAT     H113340   1.028   0.898   5.862 -1.4091 -1.2753 -2.2677
 3155WAT     H213341   1.012   0.989   5.761  1.6437  0.9870 -0.8757
 3155WAT    EPW13342   1.057   0.946   5.807  0.2777 -0.0598 -0.4454
 3156WAT      O13343   2.496   1.078   0.237  0.3239  0.1563  0.2625
 3156WAT     H113344   2.571   1.063   0.196  0.0508  0.6913 -0.4626
 3156WAT     H213345   2.437   1.074   0.173 -0.3025 -0.5138  0.8608
 3156WAT    EPW13346   2.498   1.075   0.222  0.1910  0.1363  0.2437
 3157WAT      O13347   1.981   0.035   2.354  0.2377  0.6070 -0.3888
 3157WAT     H113348   1.987  -0.048   2.379  0.9690  1.1677  1.3999
 3157WAT     H213349   1.895   0.046   2.344  0.0877 -0.2200 -0.1479
 3157WAT    EPW13350   1.969   0.024   2.356  0.3236  0.5677 -0.0890
 3158WAT      O13351   3.023   0.408   2.083  0.2468  0.5778 -0.5222
 3158WAT     H113352   3.108   0.429   2.082  0.5753 -0.4532  1.4002
 3158WAT     H213353   2.983   0.484   2.098  1.1407  0.5838  2.3654
 3158WAT    EPW13354   3.030   0.422   2.085  0.4274  0.4264  0.1884
 3159WAT      O13355   2.058   5.270   2.369  0.6019  0.3260 -0.0272
 3159WAT     H113356   2.033   5.188   2.353  1.5675 -0.2443  1.2086
 3159WAT     H213357   2.136   5.276   2.330  0.8842  0.4105  0.5499
 3159WAT    EPW13358   2.066   5.259   2.361  0.7862  0.2542  0.2406
 3160WAT      O13359   4.828   5.050   2.779 -0.1189  0.2056 -0.2557
 3160WAT     H113360   4.824   5.046   2.692 -1.5058 -0.7165 -0.1778
 3160WAT     H213361   4.748   5.025   2.805  0.0435  1.1055  1.2742
 3160WAT    EPW13362   4.815   5.046   2.770 -0.2998  0.2023 -0.0182
 3161WAT      O13363   3.425   2.378   6.781  0.2636 -0.2335 -0.3690
 3161WAT     H113364   3.347   2.416   6.775  0.6685  0.5466 -0.8393
 3161WAT     H213365   3.447   2.389   6.865  1.4410  2.8324 -0.9299
 3161WAT    EPW13366   3.417   2.385   6.792  0.4974  0.3346 -0.5213
 3162WAT      O13367   5.784   5.614   2.126  0.7406 -0.2685 -0.1430
 3162WAT     H113368   5.728   5.675   2.099  0.4935 -0.6971 -0.6133
 3162WAT     H213369   5.732   5.545   2.141  0.7438  0.1315  2.1039
 3162WAT    EPW13370   5.768   5.613   2.124  0.7046 -0.2727  0.1195
 3163WAT      O13371   2.456   5.257   4.450  0.1347  0.1360 -0.0014
 3163WAT     H113372   2.443   5.243   4.535  0.1501  1.5989  0.2676
 3163WAT     H213373   2.524   5.205   4.431  1.0595  0.8413  1.2364
 3163WAT    EPW13374   2.464   5.247   4.460  0.2736  0.4563  0.2212
 3164WAT      O13375   2.240   0.012   5.204 -0.6781 -0.8027 -0.3650
 3164WAT     H113376   2.192   0.045   5.138  1.1553  0.4735 -1.1290
 3164WAT     H213377   2.281  -0.056   5.167  1.7437  0.9701 -1.1799
 3164WAT    EPW13378   2.239   0.007   5.189 -0.0495 -0.3523 -0.5982
 3165WAT      O13379   0.335   3.409   5.253 -0.1997  0.3423  0.4369
 3165WAT     H113380   0.328   3.353   5.320  1.0311  0.2355  0.4928
 3165WAT     H213381   0.418   3.435   5.256 -0.3297  0.9426 -0.5822
 3165WAT    EPW13382   0.346   3.404   5.263 -0.0371  0.4152  0.2946
 3166WAT      O13383   5.054   0.592   4.310 -0.2678 -0.6870  0.3085
 3166WAT     H113384   5.113   0.622   4.366 -1.6510 -0.7592  1.8636
 3166WAT     H213385   5.028   0.516   4.344 -2.1339 -0.0864  0.3772
 3166WAT    EPW13386   5.059   0.585   4.323 -0.7478 -0.6089  0.5484
 3167WAT      O13387   7.250   5.998   1.717  0.3746 -0.0315 -0.2383
 3167WAT     H113388   7.187   5.964   1.668  0.0597 -1.3567  1.0077
 3167WAT     H213389   7.229   5.974   1.798  0.5637  2.5308  0.6916
 3167WAT    EPW13390   7.238   5.990   1.722  0.3561  0.1513  0.0832
 3168WAT      O13391   4.905   3.582   3.103  0.1510 -1.0908 -0.3655
 3168WAT     H113392   4.958   3.521   3.136  0.5860 -1.4311 -1.6315
 3168WAT     H213393   4.939   3.598   3.024 -1.6077 -1.3175 -1.2299
 3168WAT    EPW13394   4.918   3.575   3.096 -0.0445 -1.1746 -0.6802
 3169WAT      O13395   2.555   7.251   2.852  0.2835 -0.4656 -0.4188
 3169WAT     H113396   2.475   7.258   2.885  0.2504 -0.8653 -0.3990
 3169WAT     H213397   2.607   7.274   2.918  0.1820 -0.1107 -0.4631
 3169WAT    EPW13398   2.551   7.255   2.866  0.2636 -0.4722 -0.4225
 3170WAT      O13399   2.494   6.986   5.310 -0.1595  0.1993  0.3882
 3170WAT     H113400   2.429   6.995   5.366  0.1265 -0.9739  0.9336
 3170WAT     H213401   2.566   6.994   5.359  0.0960 -0.2566  0.1064
 3170WAT    EPW13402   2.495   6.988   5.325 -0.0795 -0.0413  0.4271
 3171WAT      O13403   1.329   2.782   4.189 -0.2298  0.0419  0.2490
 3171WAT     H113404   1.315   2.706   4.148 -0.3148  0.3522 -0.3166
 3171WAT     H213405   1.405   2.770   4.229 -0.4290 -0.4739  0.4920
 3171WAT    EPW13406   1.338   2.769   4.189 -0.2718  0.0116  0.2013
 3172WAT      O13407   5.981   3.373   4.147 -0.0372  0.2987  0.3964
 3172WAT     H113408   5.998   3.287   4.140  1.8250  0.5800  0.8104
 3172WAT     H213409   5.924   3.376   4.213  1.4132 -0.5423  1.7928
 3172WAT    EPW13410   5.975   3.361   4.156  0.4521  0.2160  0.6639
 3173WAT      O13411   1.167   4.859   7.230  0.1613  0.4520  1.3147
 3173WAT     H113412   1.138   4.787   7.269 -1.2529  1.4271  2.1705
 3173WAT     H213413   1.164   4.919   7.294  2.7319  0.9745  1.0481
 3173WAT    EPW13414   1.162   4.857   7.245  0.3321  0.6732  1.4017
 3174WAT      O13415   5.511   1.160   0.634  0.1511 -0.6000  0.0005
 3174WAT     H113416   5.460   1.210   0.685 -0.2647 -2.2749  1.3530
 3174WAT     H213417   5.504   1.196   0.555 -4.2031 -1.3843 -0.2226
 3174WAT    EPW13418   5.503   1.173   0.630 -0.5536 -0.9633  0.1674
 3175WAT      O13419   5.430   0.046   4.108 -0.2070 -0.1808  0.0864
 3175WAT     H113420   5.415   0.017   4.189 -1.1424  0.4221  0.1479
 3175WAT     H213421   5.513   0.024   4.092 -0.1889 -0.7867  1.0017
 3175WAT    EPW13422   5.440   0.039   4.117 -0.3425 -0.1812  0.2307
 3176WAT      O13423   5.603   4.688   3.034  0.2415  0.5455 -0.6612
 3176WAT     H113424   5.592   4.679   3.120 -0.2877 -1.7020 -0.9217
 3176WAT     H213425   5.538   4.741   3.010  0.3066  1.0729  0.2813
 3176WAT    EPW13426   5.592   4.695   3.043  0.1730  0.2914 -0.5605
 3177WAT      O13427   0.362   6.890   3.157  0.1378  0.4735 -0.3038
 3177WAT     H113428   0.394   6.812   3.132  0.7826  0.1396  1.3793
 3177WAT     H213429   0.416   6.947   3.121  1.3196 -0.0076  0.6155
 3177WAT    EPW13430   0.375   6.887   3.148  0.4076  0.3531  0.0806
 3178WAT      O13431   4.792   5.679   5.466  0.6463  0.1686 -0.0442
 3178WAT     H113432   4.874   5.706   5.481  2.0207 -2.0098 -2.8125
 3178WAT     H213433   4.784   5.608   5.516  0.3852  0.4513  0.3194
 3178WAT    EPW13434   4.803   5.673   5.475  0.8107 -0.1115 -0.3995
 3179WAT      O13435   2.006   3.562   0.503 -0.1724  0.8808  0.0009
 3179WAT     H113436   1.991   3.481   0.531 -0.0848  0.8762  0.0358
 3179WAT     H213437   2.070   3.590   0.555 -1.3511  1.5824  1.1514
 3179WAT    EPW13438   2.013   3.554   0.515 -0.3336  0.9838  0.1760
 3180WAT      O13439   5.264   0.712   1.923  0.0698  0.1874  0.1616
 3180WAT     H113440   5.186   0.678   1.906 -0.4523  2.2159 -2.0267
 3180WAT     H213441   5.320   0.654   1.891 -0.7335  0.6189 -2.2363
 3180WAT    EPW13442   5.260   0.699   1.916 -0.1260  0.5508 -0.5158
 3181WAT      O13443   4.103   5.851   2.685 -0.5029 -0.2561  0.2405
 3181WAT     H113444   4.113   5.768   2.659 -0.7529  0.3617 -2.0612
 3181WAT     H213445   4.036   5.880   2.637  0.2764  1.5767  0.1670
 3181WAT    EPW13446   4.094   5.843   2.674 -0.4247  0.1059 -0.1104
 3182WAT      O13447   7.270   5.648   4.844 -0.0043 -0.7092  0.6808
 3182WAT     H113448   7.236   5.727   4.830  0.4871 -0.5033  0.6419
 3182WAT     H213449   7.255   5.633   4.928 -0.7300 -0.8831  0.5324
 3182WAT    EPW13450   7.262   5.657   4.854 -0.0389 -0.7045  0.6531
 3183WAT      O13451   1.287   5.966   3.298  0.3593  0.2229 -0.2177
 3183WAT     H113452   1.359   5.958   3.347  0.4452  0.2732 -0.3347
 3183WAT     H213453   1.286   6.051   3.278 -0.6081  0.5583  1.1230
 3183WAT    EPW13454   1.298   5.978   3.303  0.2291  0.2799 -0.0369
 3184WAT      O13455   2.300   1.681   2.576 -0.4511  0.0358 -0.3291
 3184WAT     H113456   2.282   1.756   2.536 -1.4127  0.1841  0.3357
 3184WAT     H213457   2.245   1.681   2.644 -2.1250 -2.2903 -1.5223
 3184WAT    EPW13458   2.289   1.692   2.580 -0.8404 -0.2859 -0.4071
 3185WAT      O13459   0.265   1.689   4.554  0.3067 -0.4968  0.0509
 3185WAT     H113460   0.317   1.759   4.560  1.0349 -0.9963 -0.3840
 3185WAT     H213461   0.251   1.667   4.638  1.0312 -0.5304  0.1663
 3185WAT    EPW13462   0.270   1.696   4.568  0.5213 -0.5755  0.0037
 3186WAT      O13463   5.844   4.746   0.203 -0.0197  0.0145  0.4704
 3186WAT     H113464   5.922   4.751   0.163  1.5445 -4.5747  2.2505
 3186WAT     H213465   5.864   4.751   0.288 -1.6211 -1.1545  0.9569
 3186WAT    EPW13466   5.859   4.747   0.209 -0.0252 -0.8361  0.8052
 3187WAT      O13467   3.919   2.295   3.002 -0.4711  0.0227 -0.7602
 3187WAT     H113468   3.922   2.212   3.030 -0.8257 -0.6277 -2.5542
 3187WAT     H213469   3.975   2.336   3.055 -0.3628 -1.3340  0.2287
 3187WAT    EPW13470   3.927   2.289   3.014 -0.5075 -0.2738 -0.8791
 3188WAT      O13471   4.163   5.285   6.794  0.0728  0.0693 -0.1719
 3188WAT     H113472   4.104   5.346   6.773  0.8861  0.5380 -1.1735
 3188WAT     H213473   4.203   5.268   6.719  0.4310 -1.1032  0.2594
 3188WAT    EPW13474   4.160   5.292   6.780  0.2459 -0.0347 -0.2562
 3189WAT      O13475   6.848   4.055   5.041 -0.0095 -1.0531  0.3150
 3189WAT     H113476   6.886   3.983   5.009  0.4645 -0.2646 -0.9364
 3189WAT     H213477   6.811   4.026   5.115  0.3377 -2.5362 -0.0467
 3189WAT    EPW13478   6.848   4.040   5.047  0.1118 -1.1557  0.0767
 3190WAT      O13479   4.090   0.889   5.747  0.3139  0.4774  0.8453
 3190WAT     H113480   4.057   0.814   5.716 -0.6213  0.5965  1.4971
 3190WAT     H213481   4.170   0.866   5.775  0.1415 -0.2226  0.7874
 3190WAT    EPW13482   4.097   0.875   5.747  0.1503  0.3916  0.9330
 3191WAT      O13483   6.758   5.332   6.099 -0.4260  0.0166  0.0668
 3191WAT     H113484   6.830   5.287   6.075  0.1072  0.1659  1.3186
 3191WAT     H213485   6.708   5.271   6.137 -0.3569  0.1916  0.4352
 3191WAT    EPW13486   6.761   5.316   6.101 -0.3371  0.0645  0.3061
 3192WAT      O13487   0.421   1.177   1.462  0.6203  0.2985 -0.0944
 3192WAT     H113488   0.476   1.143   1.402  0.0578  2.6473 -2.1018
 3192WAT     H213489   0.367   1.111   1.479  2.0292 -1.0707 -0.6189
 3192WAT    EPW13490   0.421   1.162   1.456  0.7453  0.4432 -0.4684
 3193WAT      O13491   1.764   2.952   5.446  0.2640  0.0544 -0.3272
 3193WAT     H113492   1.817   2.952   5.515 -1.1857  1.9085  0.9064
 3193WAT     H213493   1.789   3.022   5.401 -1.3715  1.2773  0.5564
 3193WAT    EPW13494   1.775   2.962   5.450 -0.1917  0.5089 -0.0145
 3194WAT      O13495   4.158   6.186   2.641  0.6941 -0.0732 -0.0282
 3194WAT     H113496   4.129   6.190   2.559 -0.8340  0.7475  0.5133
 3194WAT     H213497   4.217   6.121   2.639 -1.1026 -1.7749 -1.2534
 3194WAT    EPW13498   4.162   6.177   2.628  0.2030 -0.2033 -0.1292
 3195WAT      O13499   7.189   5.756   5.493  0.0484 -0.3434  0.1995
 3195WAT     H113500   7.254   5.732   5.441  2.0032  1.4583  1.6359
 3195WAT     H213501   7.150   5.821   5.449  0.7420  0.1520  0.2923
 3195WAT    EPW13502   7.193   5.762   5.479  0.4396 -0.0041  0.4254
 3196WAT      O13503   6.063   7.139   5.385  0.1448  0.1930 -0.4547
 3196WAT     H113504   5.993   7.109   5.428 -1.9219  2.7466 -1.7628
 3196WAT     H213505   6.068   7.088   5.315 -1.4449  0.9344 -1.1496
 3196WAT    EPW13506   6.054   7.127   5.381 -0.3954  0.6797 -0.7506
 3197WAT      O13507   1.510   1.086   6.688 -0.2976 -0.8933  0.1194
 3197WAT     H113508   1.470   1.139   6.744  1.3153  1.9558 -1.2284
 3197WAT     H213509   1.473   1.106   6.611  1.9299  0.1218 -0.7755
 3197WAT    EPW13510   1.499   1.097   6.685  0.2697 -0.3225 -0.2119
 3198WAT      O13511   4.763   6.328   2.939  0.6097 -0.2863 -0.3651
 3198WAT     H113512   4.811   6.321   3.012  0.5171 -1.5487 -0.3958
 3198WAT     H213513   4.737   6.246   2.924  0.1159  0.0532 -1.4783
 3198WAT    EPW13514   4.766   6.315   2.948  0.5231 -0.4226 -0.5341
 3199WAT      O13515   2.156   1.310   2.594  0.5969  0.1852  0.7841
 3199WAT     H113516   2.192   1.242   2.552  0.8705 -0.4536  2.0108
 3199WAT     H213517   2.213   1.326   2.658  0.1607  1.1155  0.9537
 3199WAT    EPW13518   2.170   1.303   2.597  0.5729  0.2282  0.9903
 3200WAT      O13519   1.295   3.858   3.627  0.6096 -0.0270 -0.2006
 3200WAT     H113520   1.233   3.854   3.567  0.6127 -1.8138 -0.1483
 3200WAT     H213521   1.264   3.808   3.692  1.3484  0.4458  0.5365
 3200WAT    EPW13522   1.281   3.850   3.628  0.7192 -0.2212 -0.0840
 3201WAT      O13523   7.018   6.851   3.621  0.6577  0.6992  0.0263
 3201WAT     H113524   6.941   6.880   3.651  1.3493  2.4703  0.1406
 3201WAT     H213525   7.053   6.810   3.689  0.9194  2.1355  0.7896
 3201WAT    EPW13526   7.011   6.849   3.635  0.7985  1.1730  0.1559
 3202WAT      O13527   3.583   1.217   0.432  0.3673 -0.1978 -0.2458
 3202WAT     H113528   3.526   1.209   0.367 -1.5707  1.2083  1.1736
 3202WAT     H213529   3.661   1.214   0.392 -0.6481 -2.0534 -2.2521
 3202WAT    EPW13530   3.586   1.216   0.417 -0.0690 -0.2642 -0.3325
 3203WAT      O13531   6.089   2.690   3.286 -0.0261  0.1253 -0.4442
 3203WAT     H113532   6.040   2.672   3.356  0.2500 -0.8516 -0.4885
 3203WAT     H213533   6.073   2.775   3.271 -0.8330  0.1021  0.2121
 3203WAT    EPW13534   6.079   2.700   3.294 -0.1045 -0.0224 -0.3538
 3204WAT      O13535   6.125   3.477   5.151  0.1732  0.4574 -0.8532
 3204WAT     H113536   6.133   3.518   5.228  0.2571 -1.1286  0.0169
 3204WAT     H213537   6.193   3.506   5.105  1.8263 -0.7451  0.7256
 3204WAT    EPW13538   6.136   3.487   5.155  0.4298  0.0455 -0.4914
 3205WAT      O13539   0.702   3.723   0.299  0.2566 -0.4212  0.1955
 3205WAT     H113540   0.731   3.773   0.234  0.0482 -0.7319 -0.1367
 3205WAT     H213541   0.617   3.741   0.303  0.4538  0.3723  1.0698
 3205WAT    EPW13542   0.694   3.733   0.290  0.2550 -0.3499  0.2756
 3206WAT      O13543   3.515   4.880   7.279  0.3669  0.3994 -0.2325
 3206WAT     H113544   3.486   4.802   7.306 -1.6494  0.6769 -1.3467
 3206WAT     H213545   3.570   4.860   7.214 -1.4175 -0.1447 -1.6586
 3206WAT    EPW13546   3.519   4.865   7.273 -0.1945  0.3600 -0.6077
 3207WAT      O13547   5.150   6.263   1.343 -0.4464  0.5682  0.3033
 3207WAT     H113548   5.224   6.299   1.315 -0.6072  1.0125  0.4382
 3207WAT     H213549   5.110   6.238   1.270  0.2481 -0.5162  0.2749
 3207WAT    EPW13550   5.155   6.265   1.328 -0.3675  0.4736  0.3190
 3208WAT      O13551   0.399   5.428   0.581 -0.3525 -0.2815  0.4587
 3208WAT     H113552   0.453   5.490   0.550 -0.8363  0.3217  0.8008
 3208WAT     H213553   0.338   5.474   0.623 -1.7477 -0.8672 -0.8356
 3208WAT    EPW13554   0.398   5.444   0.582 -0.6301 -0.2789  0.3181
 3209WAT      O13555   2.550   2.188   4.852 -0.4252  0.0530 -0.0856
 3209WAT     H113556   2.560   2.269   4.820  0.6605  0.0770  0.2617
 3209WAT     H213557   2.464   2.182   4.866 -0.6140  0.8949 -0.7562
 3209WAT    EPW13558   2.539   2.199   4.849 -0.2927  0.1809 -0.1334
 3210WAT      O13559   5.877   6.951   0.866 -0.1883 -0.1022  0.0921
 3210WAT     H113560   5.918   6.881   0.834  0.3232 -1.0488  2.5571
 3210WAT     H213561   5.909   7.017   0.820  1.1248 -1.2568 -0.7085
 3210WAT    EPW13562   5.888   6.950   0.854  0.0812 -0.4126  0.3380
 3211WAT      O13563   7.091   2.733   4.640 -0.0568 -0.2812  0.0986
 3211WAT     H113564   7.096   2.760   4.558  1.5496  0.5667  0.4252
 3211WAT     H213565   7.075   2.648   4.633  1.2423 -0.4658 -1.1433
 3211WAT    EPW13566   7.089   2.725   4.627  0.3724 -0.1832 -0.0366
 3212WAT      O13567   4.193   0.872   0.785  0.1296 -0.2635 -0.3019
 3212WAT     H113568   4.263   0.917   0.811 -0.3101  0.5303 -0.4644
 3212WAT     H213569   4.220   0.832   0.713  0.8834 -1.2239  0.4924
 3212WAT    EPW13570   4.207   0.873   0.779  0.1760 -0.2881 -0.2086
 3213WAT      O13571   6.003   5.683   1.746 -0.8264  0.3888 -0.7937
 3213WAT     H113572   5.988   5.628   1.681 -2.0557  1.8615 -1.8380
 3213WAT     H213573   5.948   5.749   1.730  0.0413  1.5741  0.7947
 3213WAT    EPW13574   5.993   5.685   1.734 -0.8798  0.7814 -0.7133
 3214WAT      O13575   5.640   6.734   2.308 -0.1393 -0.0665 -0.0254
 3214WAT     H113576   5.612   6.728   2.390  0.5367  0.6729  0.2842
 3214WAT     H213577   5.570   6.761   2.264 -0.1722  0.9107  0.5764
 3214WAT    EPW13578   5.626   6.737   2.314 -0.0443  0.1871  0.1093
 3215WAT      O13579   5.477   4.004   1.396  0.2317 -0.3131  0.5746
 3215WAT     H113580   5.461   4.030   1.314  0.4102 -1.5715  0.1203
 3215WAT     H213581   5.533   3.938   1.386  0.0751 -0.6385  1.7089
 3215WAT    EPW13582   5.483   3.998   1.382  0.2349 -0.5471  0.6751
 3216WAT      O13583   6.770   3.751   5.881 -0.3241  0.2877  0.0475
 3216WAT     H113584   6.730   3.776   5.808 -0.0880  0.2308 -0.1011
 3216WAT     H213585   6.734   3.803   5.942 -0.3233  0.5238 -0.1505
 3216WAT    EPW13586   6.758   3.762   5.880 -0.2891  0.3142 -0.0037
 3217WAT      O13587   2.093   1.156   1.666 -0.4079  0.4010  0.5604
 3217WAT     H113588   2.085   1.151   1.579 -0.2548 -0.1513  0.5726
 3217WAT     H213589   2.163   1.207   1.677 -1.4720  1.9519  0.3996
 3217WAT    EPW13590   2.102   1.162   1.655 -0.5424  0.5485  0.5385
 3218WAT      O13591   6.268   0.168   4.787 -0.2398  0.1982 -0.6881
 3218WAT     H113592   6.236   0.103   4.738  0.7027  0.6037 -1.8834
 3218WAT     H213593   6.211   0.233   4.773  0.4284  0.5555 -1.9023
 3218WAT    EPW13594   6.255   0.168   4.777 -0.0019  0.3108 -1.0440
 3219WAT      O13595   5.945   4.111   1.283  0.3424  0.0832  0.1451
 3219WAT     H113596   6.004   4.170   1.259 -0.0505  1.5193  2.3811
 3219WAT     H213597   5.892   4.155   1.336 -2.8108 -1.1142 -1.6936
 3219WAT    EPW13598   5.946   4.126   1.287 -0.1814  0.1185  0.2038
 3220WAT      O13599   4.666   1.194   2.321 -0.2131 -0.0458 -0.4508
 3220WAT     H113600   4.639   1.226   2.245  0.6922  0.4421 -0.5850
 3220WAT     H213601   4.593   1.189   2.368 -0.5591  1.1921 -0.8126
 3220WAT    EPW13602   4.651   1.198   2.317 -0.1305  0.2091 -0.5241
 3221WAT      O13603   0.928   4.606   5.441  0.3131 -0.0560 -0.0068
 3221WAT     H113604   1.009   4.575   5.432  0.3834 -0.4475  1.5256
 3221WAT     H213605   0.923   4.623   5.527 -0.9925  0.6406 -0.1969
 3221WAT    EPW13606   0.939   4.604   5.453  0.1306 -0.0109  0.1915
 3222WAT      O13607   1.738   6.765   5.478  0.2420  0.1108 -0.3761
 3222WAT     H113608   1.725   6.849   5.497  1.5618  0.4120 -0.7158
 3222WAT     H213609   1.824   6.760   5.461  0.8050 -1.8049  2.2909
 3222WAT    EPW13610   1.749   6.776   5.478  0.5201 -0.1277 -0.0323
 3223WAT      O13611   4.720   0.488   5.347 -0.6792  0.5521  0.7993
 3223WAT     H113612   4.685   0.544   5.289 -0.4857  0.7898  0.9093
 3223WAT     H213613   4.715   0.531   5.422  0.8789  1.0711  0.6504
 3223WAT    EPW13614   4.714   0.503   5.349 -0.4205  0.6639  0.7935
 3224WAT      O13615   0.253   6.060   0.872 -0.4255 -0.3115 -0.3981
 3224WAT     H113616   0.274   5.989   0.919  0.8512  0.1591 -0.2154
 3224WAT     H213617   0.174   6.082   0.901 -0.1047 -0.6519  0.7720
 3224WAT    EPW13618   0.245   6.053   0.883 -0.1895 -0.2923 -0.1983
 3225WAT      O13619   2.770   0.444   3.862  0.0925  0.2193 -0.8509
 3225WAT     H113620   2.804   0.394   3.799 -2.4813 -2.0625 -0.6358
 3225WAT     H213621   2.684   0.437   3.849 -0.4551  2.0234  1.2232
 3225WAT    EPW13622   2.762   0.436   3.850 -0.3686  0.1487 -0.5128
 3226WAT      O13623   7.029   5.266   5.497 -0.4839 -0.4668  0.7071
 3226WAT     H113624   6.969   5.215   5.535 -2.8048  0.0203 -2.0070
 3226WAT     H213625   6.998   5.347   5.508  0.0837 -0.1304 -0.0504
 3226WAT    EPW13626   7.015   5.271   5.504 -0.7429 -0.3451  0.1943
 3227WAT      O13627   2.891   4.317   5.762 -0.7229 -0.3608 -0.3454
 3227WAT     H113628   2.870   4.233   5.755 -0.8900 -0.2035 -2.4523
 3227WAT     H213629   2.860   4.352   5.688 -0.4036  1.4911  0.3502
 3227WAT    EPW13630   2.884   4.310   5.750 -0.7004 -0.0640 -0.5539
 3228WAT      O13631   4.065   4.217   7.042 -0.3796  0.1603  0.5400
 3228WAT     H113632   3.989   4.193   7.006 -0.6873 -0.5712  1.6184
 3228WAT     H213633   4.043   4.233   7.125  0.3971  1.3034  0.5478
 3228WAT    EPW13634   4.050   4.216   7.049 -0.3103  0.2211  0.7005
 3229WAT      O13635   3.682   0.837   6.737  0.0364  0.4182  0.1701
 3229WAT     H113636   3.740   0.869   6.794  1.0169  1.9417 -1.5689
 3229WAT     H213637   3.692   0.888   6.667 -2.2138 -0.3848 -0.8288
 3229WAT    EPW13638   3.692   0.849   6.735 -0.1512  0.5246 -0.2343
 3230WAT      O13639   5.954   2.186   5.559  0.1947  0.0842 -0.5770
 3230WAT     H113640   5.985   2.176   5.640 -1.1208 -0.2358 -0.0981
 3230WAT     H213641   5.986   2.263   5.534  1.1977 -0.1428 -0.0345
 3230WAT    EPW13642   5.964   2.196   5.567  0.1485  0.0034 -0.4261
 3231WAT      O13643   2.186   2.916   3.489 -0.6678 -0.4103 -0.6850
 3231WAT     H113644   2.249   2.874   3.533 -0.5274 -1.2809 -1.6504
 3231WAT     H213645   2.161   2.979   3.543 -1.1612 -1.9793  1.0385
 3231WAT    EPW13646   2.192   2.919   3.503 -0.7200 -0.7706 -0.5730
 3232WAT      O13647   7.176   0.815   3.291 -0.0871 -0.4770  0.1715
 3232WAT     H113648   7.262   0.828   3.283 -0.4073  3.3880  1.1216
 3232WAT     H213649   7.148   0.809   3.209  0.8740  0.7507 -0.2852
 3232WAT    EPW13650   7.184   0.816   3.278  0.0076  0.2753  0.2444
 3233WAT      O13651   2.394   2.887   5.387 -0.2067 -0.0309 -0.2519
 3233WAT     H113652   2.452   2.865   5.448 -0.2570  0.4862 -0.0121
 3233WAT     H213653   2.326   2.835   5.404  0.1273 -0.5333 -0.4430
 3233WAT    EPW13654   2.392   2.876   5.399 -0.1648 -0.0287 -0.2447
 3234WAT      O13655   4.534   5.677   6.885 -0.4477 -0.1306 -0.0470
 3234WAT     H113656   4.610   5.670   6.927 -0.0342  0.5110 -0.6744
 3234WAT     H213657   4.477   5.642   6.941  0.2582 -0.3383  0.5614
 3234WAT    EPW13658   4.537   5.671   6.899 -0.2823 -0.0665 -0.0498
 3235WAT      O13659   4.726   2.104   2.118  0.4593 -0.0355 -0.1358
 3235WAT     H113660   4.803   2.063   2.116  0.6792  0.3767 -0.4106
 3235WAT     H213661   4.731   2.159   2.050  0.6724  1.3167  0.9394
 3235WAT    EPW13662   4.738   2.106   2.107  0.5232  0.2252 -0.0175
 3236WAT      O13663   2.603   6.179   5.474  0.2785 -0.1094 -0.3383
 3236WAT     H113664   2.642   6.255   5.487 -0.7059  0.3161  0.2631
 3236WAT     H213665   2.522   6.192   5.504  0.6095 -1.9527  1.5369
 3236WAT    EPW13666   2.597   6.192   5.480  0.1820 -0.3188  0.0275
 3237WAT      O13667   5.710   4.994   3.320  0.0960  0.1388 -0.6679
 3237WAT     H113668   5.633   4.954   3.323 -0.0076  0.3595 -0.1592
 3237WAT     H213669   5.740   4.976   3.240 -0.1149 -0.6295 -0.5848
 3237WAT    EPW13670   5.703   4.985   3.309  0.0495  0.0579 -0.5805
 3238WAT      O13671   4.022   1.461   7.204 -0.1053 -1.3256  0.3896
 3238WAT     H113672   4.000   1.400   7.147 -0.1528 -0.5945 -0.4008
 3238WAT     H213673   4.008   1.536   7.161  1.2668 -0.7782  0.8144
 3238WAT    EPW13674   4.017   1.463   7.189  0.0904 -1.1368  0.3356
 3239WAT      O13675   7.031   3.995   0.926 -0.1451  0.2563  0.5346
 3239WAT     H113676   6.955   3.952   0.929  1.0568 -2.0857  0.4732
 3239WAT     H213677   7.025   4.051   0.992 -1.3140 -1.0718  1.6379
 3239WAT    EPW13678   7.019   3.997   0.937 -0.1402 -0.2859  0.6885
 3240WAT      O13679   0.722   6.320   5.253 -0.2165 -0.5317 -0.6753
 3240WAT     H113680   0.702   6.346   5.172  1.1541 -1.3049 -1.2846
 3240WAT     H213681   0.801   6.355   5.267 -1.1736  1.1526  1.0812
 3240WAT    EPW13682   0.730   6.329   5.243 -0.1554 -0.3971 -0.5058
 3241WAT      O13683   7.079   5.871   5.239 -0.2054 -0.2400  0.3607
 3241WAT     H113684   7.118   5.935   5.194  0.4798  0.3650  1.7546
 3241WAT     H213685   6.994   5.888   5.229 -0.0682 -0.0140 -0.5343
 3241WAT    EPW13686   7.072   5.883   5.231 -0.0839 -0.1172  0.4344
 3242WAT      O13687   3.419   0.007   7.005  0.0778  0.3997 -0.1004
 3242WAT     H113688   3.457  -0.072   7.000  0.6301  0.7177 -1.1815
 3242WAT     H213689   3.486   0.062   7.013 -0.1313  0.9432 -1.7101
 3242WAT    EPW13690   3.434   0.003   7.006  0.1285  0.5270 -0.4979
 3243WAT      O13691   4.569   3.730   4.227 -0.2019 -0.2310  0.3213
 3243WAT     H113692   4.523   3.800   4.251 -0.3957  0.6529 -2.2684
 3243WAT     H213693   4.512   3.665   4.229 -1.8253  0.8752 -3.0304
 3243WAT    EPW13694   4.554   3.731   4.231 -0.4703  0.0630 -0.5564
 3244WAT      O13695   5.107   0.326   6.003  0.6626  0.1515 -0.0674
 3244WAT     H113696   5.194   0.335   6.007  0.4784  2.0252  2.3492
 3244WAT     H213697   5.083   0.390   5.949  0.7289  0.4097  0.2053
 3244WAT    EPW13698   5.117   0.337   5.996  0.6452  0.4664  0.3298
 3245WAT      O13699   5.944   5.278   0.145  0.1750 -0.4672 -0.2145
 3245WAT     H113700   5.861   5.301   0.157  0.5915  1.0012  0.1124
 3245WAT     H213701   5.943   5.236   0.068 -0.8885 -0.5800 -0.1411
 3245WAT    EPW13702   5.932   5.275   0.135  0.0794 -0.2669 -0.1554
 3246WAT      O13703   1.626   4.982   4.321 -0.0302 -0.1638  0.1428
 3246WAT     H113704   1.699   4.990   4.367 -0.3643 -1.4191  0.9730
 3246WAT     H213705   1.566   5.021   4.371 -0.0392  0.2484 -0.1953
 3246WAT    EPW13706   1.628   4.989   4.335 -0.0809 -0.2884  0.2155
 3247WAT      O13707   3.539   4.636   2.656  0.0935  0.5652  0.3261
 3247WAT     H113708   3.470   4.686   2.637  0.3852  0.8739  0.0504
 3247WAT     H213709   3.508   4.555   2.653 -0.2171  0.6938  0.0338
 3247WAT    EPW13710   3.524   4.631   2.653  0.0907  0.6298  0.2422
 3248WAT      O13711   0.141   6.613   6.790 -0.4734  0.1431  0.0689
 3248WAT     H113712   0.156   6.678   6.846 -1.4943 -0.6078  1.2686
 3248WAT     H213713   0.061   6.631   6.759  0.2583  0.8065 -1.5702
 3248WAT    EPW13714   0.131   6.626   6.794 -0.5161  0.1302  0.0040
 3249WAT      O13715   1.098   6.035   4.961  0.0600  0.1001  0.4521
 3249WAT     H113716   1.042   6.013   5.024  0.1800  0.4578  0.6938
 3249WAT     H213717   1.092   6.122   4.958  0.0373  0.0845 -0.0532
 3249WAT    EPW13718   1.089   6.045   4.970  0.0744  0.1506  0.4132
 3250WAT      O13719   4.637   3.427   4.547 -0.4929  0.3037  0.1134
 3250WAT     H113720   4.708   3.448   4.501 -2.3719  0.0688 -3.2055
 3250WAT     H213721   4.625   3.495   4.600  0.4246  1.8595 -1.5994
 3250WAT    EPW13722   4.646   3.440   4.548 -0.6349  0.4989 -0.6299
 3251WAT      O13723   5.114   7.105   2.363 -0.0495 -0.1952 -0.0027
 3251WAT     H113724   5.028   7.098   2.378 -0.0938 -2.8349 -0.9574
 3251WAT     H213725   5.122   7.184   2.326 -2.3127 -0.4830 -1.3047
 3251WAT    EPW13726   5.103   7.116   2.360 -0.3904 -0.6276 -0.3361
 3252WAT      O13727   1.948   0.136   2.735 -0.1663 -0.0716 -0.1708
 3252WAT     H113728   1.930   0.200   2.678  1.0093  0.3883 -0.0686
 3252WAT     H213729   1.963   0.179   2.809  1.0886 -0.3934 -0.2088
 3252WAT    EPW13730   1.948   0.152   2.737  0.1927 -0.0512 -0.1613
 3253WAT      O13731   4.781   3.615   5.218  0.1850 -0.4333 -0.0754
 3253WAT     H113732   4.861   3.588   5.197  0.3358  0.7308 -1.1859
 3253WAT     H213733   4.730   3.547   5.201  0.7491 -0.6241 -1.0450
 3253WAT    EPW13734   4.785   3.601   5.212  0.2906 -0.2895 -0.3827
 3254WAT      O13735   3.516   6.415   6.349 -0.0542  0.1340  0.0320
 3254WAT     H113736   3.566   6.359   6.394  0.7229  0.1894 -0.7182
 3254WAT     H213737   3.447   6.367   6.325 -0.5434  0.1416  1.3547
 3254WAT    EPW13738   3.513   6.400   6.352 -0.0117  0.1433  0.1166
 3255WAT      O13739   2.536   4.126   0.694 -0.5586  0.0365  0.5734
 3255WAT     H113740   2.544   4.212   0.705  0.5073 -0.0521  0.5619
 3255WAT     H213741   2.562   4.093   0.771 -0.4938 -0.2906  0.4130
 3255WAT    EPW13742   2.541   4.134   0.707 -0.3916 -0.0249  0.5480
 3256WAT      O13743   4.474   4.147   4.700 -0.2804 -0.1008 -0.2281
 3256WAT     H113744   4.529   4.113   4.641  1.0527  1.3550  0.1416
 3256WAT     H213745   4.403   4.165   4.652 -0.9007 -2.8592 -0.5387
 3256WAT    EPW13746   4.471   4.145   4.684 -0.1751 -0.2933 -0.2194
 3257WAT      O13747   1.835   7.002   7.193  0.0222 -0.7490  0.1755
 3257WAT     H113748   1.877   7.040   7.259 -0.8599 -0.2014  0.4390
 3257WAT     H213749   1.783   6.944   7.233  1.0895 -2.0362 -0.1968
 3257WAT    EPW13750   1.833   6.999   7.209  0.0496 -0.8582  0.1594
 3258WAT      O13751   6.688   2.757   5.261  0.2665  0.3833  0.3299
 3258WAT     H113752   6.738   2.745   5.191 -0.4831  0.3320 -0.1982
 3258WAT     H213753   6.625   2.698   5.253 -0.3279  0.9700  0.5822
 3258WAT    EPW13754   6.686   2.746   5.250  0.0680  0.4624  0.2891
 3259WAT      O13755   5.448   1.322   0.850 -0.3860  0.0829 -0.5124
 3259WAT     H113756   5.533   1.339   0.841 -0.4263  0.0728 -0.9361
 3259WAT     H213757   5.424   1.371   0.918  0.1541 -0.6052  0.1822
 3259WAT    EPW13758   5.457   1.332   0.859 -0.3121 -0.0202 -0.4724
 3260WAT      O13759   7.222   0.825   5.669  0.1517  0.2011  0.0946
 3260WAT     H113760   7.274   0.763   5.637 -0.3036  1.1319 -2.7105
 3260WAT     H213761   7.261   0.900   5.645 -0.2048  1.0156  1.8725
 3260WAT    EPW13762   7.235   0.827   5.660  0.0318  0.4589 -0.0572
 3261WAT      O13763   6.441   1.962   0.883 -0.7874  0.7951 -0.1888
 3261WAT     H113764   6.389   2.028   0.858  0.2922  2.0060  0.6191
 3261WAT     H213765   6.473   1.989   0.959  2.3512  0.9384 -1.4102
 3261WAT    EPW13766   6.438   1.976   0.890 -0.1643  0.9952 -0.2499
 3262WAT      O13767   0.034   2.895   1.240  0.1434 -0.6173 -0.1761
 3262WAT     H113768  -0.019   2.955   1.274  0.2110  1.1422 -2.8604
 3262WAT     H213769  -0.014   2.822   1.241 -1.5235  0.4138 -0.4957
 3262WAT    EPW13770   0.019   2.893   1.245 -0.0928 -0.2051 -0.6199
 3263WAT      O13771   4.202   4.251   1.553 -0.5109  0.4427 -0.0043
 3263WAT     H113772   4.117   4.261   1.568 -1.1656  1.1020 -3.2865
 3263WAT     H213773   4.214   4.165   1.556 -1.9034  0.1327 -1.8304
 3263WAT    EPW13774   4.191   4.240   1.556 -0.8133  0.4943 -0.7589
 3264WAT      O13775   2.504   3.766   0.672  0.5508 -0.0755  0.5873
 3264WAT     H113776   2.550   3.695   0.692 -1.1565 -1.0677  1.2151
 3264WAT     H213777   2.557   3.811   0.619  2.3343 -0.9672  1.5301
 3264WAT    EPW13778   2.519   3.762   0.667  0.5620 -0.3538  0.8193
 3265WAT      O13779   2.582   5.035   5.256  0.3970  0.2553 -0.4613
 3265WAT     H113780   2.549   4.986   5.191 -0.3139  0.3053 -0.1518
 3265WAT     H213781   2.665   5.048   5.233  0.8532 -1.7976 -0.1535
 3265WAT    EPW13782   2.589   5.030   5.243  0.3593 -0.0406 -0.3701
 3266WAT      O13783   2.999   4.437   6.363 -0.2674  0.2898  0.0051
 3266WAT     H113784   3.009   4.394   6.439 -0.4494  0.1838 -0.0310
 3266WAT     H213785   2.999   4.521   6.388 -0.3755  0.2538  0.1266
 3266WAT    EPW13786   3.001   4.443   6.378 -0.3103  0.2688  0.0177
 3267WAT      O13787   6.413   1.667   0.675 -0.1118 -0.4716  0.1463
 3267WAT     H113788   6.356   1.705   0.729 -0.7834 -1.4972  0.1933
 3267WAT     H213789   6.370   1.596   0.647 -0.7116  1.1205 -3.5421
 3267WAT    EPW13790   6.398   1.662   0.679 -0.2996 -0.3879 -0.3916
 3268WAT      O13791   1.451   0.094   1.970  0.2243 -0.2657 -1.0939
 3268WAT     H113792   1.418   0.045   2.033  0.2867  0.0372 -0.8206
 3268WAT     H213793   1.533   0.065   1.962  0.3787  0.0358 -0.6733
 3268WAT    EPW13794   1.458   0.083   1.978  0.2563 -0.1764 -0.9914
 3269WAT      O13795   6.781   3.228   0.044 -0.6074 -0.4544 -0.1593
 3269WAT     H113796   6.864   3.240   0.020 -0.4069  0.9511  1.1058
 3269WAT     H213797   6.760   3.153   0.005  2.0139 -2.1947  1.4396
 3269WAT    EPW13798   6.790   3.219   0.035 -0.1906 -0.5038  0.2638
 3270WAT      O13799   0.388   0.249   2.615  0.4120  0.3731 -0.0479
 3270WAT     H113800   0.354   0.323   2.584 -0.7217 -0.2050 -0.2549
 3270WAT     H213801   0.465   0.273   2.649 -0.6449  1.9455  1.3744
 3270WAT    EPW13802   0.394   0.263   2.616  0.0884  0.5199  0.1316
 3271WAT      O13803   5.612   5.198   1.092 -0.3997 -0.1001 -0.1870
 3271WAT     H113804   5.537   5.200   1.048 -1.1567 -1.7970  0.9148
 3271WAT     H213805   5.621   5.279   1.123 -2.3048 -0.0888  0.4571
 3271WAT    EPW13806   5.602   5.210   1.090 -0.7929 -0.3491  0.0709
 3272WAT      O13807   4.304   1.545   5.035 -0.3576  0.5106  0.2810
 3272WAT     H113808   4.357   1.600   4.993  2.0502 -2.4676 -0.9834
 3272WAT     H213809   4.253   1.513   4.972 -0.0107 -0.4595  0.4602
 3272WAT    EPW13810   4.305   1.548   5.020  0.0493 -0.0726  0.1207
 3273WAT      O13811   1.502   2.390   6.239  0.0118  0.5970 -0.1503
 3273WAT     H113812   1.533   2.372   6.319  0.2121  0.1500 -0.3257
 3273WAT     H213813   1.573   2.415   6.195 -0.1586  1.1962 -0.0890
 3273WAT    EPW13814   1.517   2.391   6.244  0.0162  0.6195 -0.1672
 3274WAT      O13815   6.123   0.436   3.904  0.3816  0.0860 -0.2279
 3274WAT     H113816   6.179   0.382   3.866 -0.9937  0.3561 -2.8643
 3274WAT     H213817   6.060   0.446   3.844 -2.6182 -0.3345  2.5519
 3274WAT    EPW13818   6.122   0.430   3.890 -0.2647  0.0638 -0.2067
 3275WAT      O13819   5.087   4.057   0.840  0.0011  0.1376 -0.0850
 3275WAT     H113820   5.106   3.988   0.790 -1.7016  1.2853 -2.4795
 3275WAT     H213821   5.018   4.031   0.887  1.1312 -0.6768  1.2157
 3275WAT    EPW13822   5.080   4.043   0.840 -0.0835  0.1868 -0.2466
 3276WAT      O13823   2.021   6.305   1.169 -0.4375  0.3392 -0.2965
 3276WAT     H113824   1.957   6.307   1.229 -1.1015 -3.0648 -0.6630
 3276WAT     H213825   2.013   6.381   1.127 -2.1916  1.3561  1.6779
 3276WAT    EPW13826   2.011   6.317   1.172 -0.7947 -0.0134 -0.0590
 3277WAT      O13827   6.821   5.762   2.261 -0.1136  0.0970 -0.3454
 3277WAT     H113828   6.830   5.723   2.338  0.7732  1.4137  0.2611
 3277WAT     H213829   6.880   5.721   2.210 -0.7014 -0.7726 -0.3462
 3277WAT    EPW13830   6.831   5.750   2.265 -0.0695  0.1630 -0.2560
 3278WAT      O13831   0.587   5.243   4.936  0.1568  0.5292 -0.0448
 3278WAT     H113832   0.547   5.212   5.007  0.2215  2.3190  0.8072
 3278WAT     H213833   0.670   5.252   4.961  0.1490  1.3171 -0.2823
 3278WAT    EPW13834   0.593   5.240   4.950  0.1652  0.9100  0.0460
 3279WAT      O13835   5.885   5.100   6.611  0.9029  0.1868 -0.4599
 3279WAT     H113836   5.884   5.024   6.569  1.8548  0.2821 -0.6791
 3279WAT     H213837   5.940   5.086   6.678 -0.5026  0.0675  0.7180
 3279WAT    EPW13838   5.893   5.087   6.615  0.8359  0.1833 -0.3183
 3280WAT      O13839   0.384   0.869   1.829 -0.0731  0.2072  0.2964
 3280WAT     H113840   0.343   0.908   1.895  1.1712  0.3427  1.0294
 3280WAT     H213841   0.450   0.827   1.868  0.7958  0.4315 -0.8736
 3280WAT    EPW13842   0.388   0.868   1.845  0.2391  0.2603  0.2318
 3281WAT      O13843   0.838   1.758   5.233 -0.3064 -0.0234 -0.4654
 3281WAT     H113844   0.910   1.799   5.206  0.0398 -0.5346 -0.3257
 3281WAT     H213845   0.838   1.770   5.319 -0.1117 -0.4594 -0.4027
 3281WAT    EPW13846   0.849   1.765   5.242 -0.2265 -0.1633 -0.4355
 3282WAT      O13847   0.207   4.156   4.434  0.4337 -0.2203 -0.1452
 3282WAT     H113848   0.253   4.103   4.486  0.8490  1.7028  1.5976
 3282WAT     H213849   0.171   4.102   4.376  0.2558 -2.4918  1.9185
 3282WAT    EPW13850   0.208   4.140   4.433  0.4688 -0.2718  0.4171
 3283WAT      O13851   5.514   0.634   3.127 -0.1582 -0.3174 -0.9507
 3283WAT     H113852   5.438   0.671   3.106 -0.4669  0.0770  0.7205
 3283WAT     H213853   5.572   0.675   3.076 -0.7925  0.9377 -0.6914
 3283WAT    EPW13854   5.511   0.646   3.117 -0.2975 -0.0737 -0.6655
 3284WAT      O13855   4.320   0.440   2.406  0.3863  0.5112 -0.0335
 3284WAT     H113856   4.281   0.366   2.430  0.6235  0.3094 -0.2739
 3284WAT     H213857   4.388   0.414   2.360  0.3575  0.8852 -0.2951
 3284WAT    EPW13858   4.324   0.425   2.403  0.4171  0.5366 -0.1077
 3285WAT      O13859   0.059   1.036   4.331  0.5957  0.1098  0.3032
 3285WAT     H113860   0.146   1.031   4.322  0.8398  2.5894  0.5042
 3285WAT     H213861   0.036   0.955   4.351  2.4343 -1.4361 -2.9769
 3285WAT    EPW13862   0.069   1.023   4.333  0.9034  0.2477 -0.1516
 3286WAT      O13863   2.823   2.140   0.632 -0.1125 -0.1756 -0.2500
 3286WAT     H113864   2.755   2.160   0.582  0.2580 -0.8721 -1.0442
 3286WAT     H213865   2.866   2.081   0.586  1.3899  0.7083 -0.0419
 3286WAT    EPW13866   2.819   2.135   0.618  0.1642 -0.1479 -0.3366
 3287WAT      O13867   0.002   7.184   0.089 -0.4807 -0.5855  0.3286
 3287WAT     H113868   0.082   7.174   0.122  0.1518 -0.3067 -1.0434
 3287WAT     H213869   0.002   7.131   0.020 -1.2516 -0.0811 -0.0759
 3287WAT    EPW13870   0.014   7.174   0.084 -0.5011 -0.4698  0.0662
 3288WAT      O13871   3.310   2.464   7.051 -0.4165  0.4671 -0.4786
 3288WAT     H113872   3.260   2.403   7.088  1.9487 -0.8451  0.8335
 3288WAT     H213873   3.275   2.539   7.077 -1.5006 -0.3994  0.6660
 3288WAT    EPW13874   3.298   2.466   7.060 -0.2273  0.1453 -0.1157
 3289WAT      O13875   6.989   1.436   4.820  0.2929  0.1965 -0.1697
 3289WAT     H113876   7.062   1.452   4.865  1.4079  0.2023 -1.9004
 3289WAT     H213877   7.001   1.355   4.790  0.4043  0.8487 -1.9391
 3289WAT    EPW13878   7.001   1.426   4.823  0.4740  0.2937 -0.6867
 3290WAT      O13879   0.887   7.219   3.240  0.2637 -0.2350  0.3080
 3290WAT     H113880   0.902   7.292   3.194 -0.1783 -0.1994  0.2079
 3290WAT     H213881   0.809   7.234   3.277 -0.5947 -1.2510 -0.9521
 3290WAT    EPW13882   0.878   7.232   3.239  0.0716 -0.3798  0.1071
 3291WAT      O13883   3.283   4.908   0.677  0.0508  0.2313  0.1310
 3291WAT     H113884   3.287   4.954   0.603 -0.2235  0.5059  0.2867
 3291WAT     H213885   3.291   4.825   0.650 -0.2290  0.3176 -0.2221
 3291WAT    EPW13886   3.285   4.902   0.662 -0.0311  0.2846  0.1019
 3292WAT      O13887   3.522   1.854   6.687 -0.5338  0.1133 -0.3796
 3292WAT     H113888   3.465   1.921   6.690  0.6041  1.1425 -0.7671
 3292WAT     H213889   3.595   1.889   6.720  0.6204 -0.3647 -2.2840
 3292WAT    EPW13890   3.525   1.869   6.692 -0.1952  0.1947 -0.7181
 3293WAT      O13891   2.354   4.576   0.593 -0.5132 -0.3183  0.2281
 3293WAT     H113892   2.370   4.557   0.510  0.1466  1.3082 -0.0462
 3293WAT     H213893   2.279   4.620   0.590  0.7336  1.9462  0.1297
 3293WAT    EPW13894   2.345   4.580   0.580 -0.2315  0.2565  0.1730
 3294WAT      O13895   1.838   0.882   4.496  0.5894  0.0092  0.0667
 3294WAT     H113896   1.842   0.839   4.420  0.3575  1.5218 -0.8489
 3294WAT     H213897   1.764   0.852   4.531  1.2941 -1.5857  0.2996
 3294WAT    EPW13898   1.827   0.871   4.490  0.6593 -0.0029 -0.0342
 3295WAT      O13899   5.032   1.291   6.358  0.1523  0.2044 -0.2123
 3295WAT     H113900   5.001   1.371   6.342 -3.2958 -1.2315 -1.7319
 3295WAT     H213901   5.005   1.274   6.439  1.1012  0.5905  0.2066
 3295WAT    EPW13902   5.024   1.300   6.368 -0.2169  0.0493 -0.3749
 3296WAT      O13903   2.562   2.151   0.483  0.2587 -0.0169  0.3298
 3296WAT     H113904   2.527   2.210   0.429  1.5090  1.1138  0.6861
 3296WAT     H213905   2.568   2.080   0.434 -0.9744  0.2257 -0.2208
 3296WAT    EPW13906   2.558   2.150   0.468  0.2612  0.1859  0.3011
 3297WAT      O13907   3.645   5.479   6.590 -0.0078  0.2331 -0.3836
 3297WAT     H113908   3.596   5.455   6.522 -1.1546 -0.2178  0.5685
 3297WAT     H213909   3.634   5.565   6.595 -0.6415  0.1443 -0.2270
 3297WAT    EPW13910   3.636   5.488   6.580 -0.2708  0.1534 -0.2198
 3298WAT      O13911   4.674   2.555   0.632  0.3419  0.3310 -0.4068
 3298WAT     H113912   4.634   2.616   0.682 -0.2952  0.4909 -1.0911
 3298WAT     H213913   4.734   2.601   0.589  1.5918  0.0180  0.9346
 3298WAT    EPW13914   4.677   2.571   0.633  0.4324  0.3084 -0.3098
 3299WAT      O13915   5.984   1.950   1.744 -0.0945 -0.3021  0.5231
 3299WAT     H113916   6.067   1.928   1.727 -0.2407 -1.1664  0.8708
 3299WAT     H213917   5.982   2.036   1.726  1.4015  0.2170  2.5102
 3299WAT    EPW13918   5.996   1.960   1.739  0.1049 -0.3531  0.8680
 3300WAT      O13919   6.052   7.251   5.745  0.4459  0.2408 -0.0965
 3300WAT     H113920   5.968   7.267   5.729  0.2879 -2.2747 -2.7651
 3300WAT     H213921   6.052   7.220   5.827 -1.0170  1.3845  0.3654
 3300WAT    EPW13922   6.040   7.249   5.755  0.2065  0.0381 -0.4225
 3301WAT      O13923   4.858   5.869   0.295  0.4721  0.0575  0.5849
 3301WAT     H113924   4.771   5.877   0.292  0.4577 -0.1207  0.4975
 3301WAT     H213925   4.878   5.889   0.377  0.4112  0.7317  0.4362
 3301WAT    EPW13926   4.848   5.873   0.306  0.4610  0.1308  0.5500
 3302WAT      O13927   0.506   6.985   5.877 -0.1168 -0.5176 -0.6411
 3302WAT     H113928   0.552   7.058   5.864 -2.5758  1.0572 -1.0489
 3302WAT     H213929   0.568   6.923   5.881  2.0217  1.4359 -1.0399
 3302WAT    EPW13930   0.522   6.987   5.876 -0.1641  0.0036 -0.7603
 3303WAT      O13931   3.356   1.501   0.119  0.4198  0.5141  0.3101
 3303WAT     H113932   3.281   1.508   0.162  1.0825  2.0403  1.2795
 3303WAT     H213933   3.393   1.429   0.152 -1.3390 -1.3216 -1.4474
 3303WAT    EPW13934   3.351   1.491   0.130  0.2579  0.4684  0.1937
 3304WAT      O13935   5.440   0.081   1.470  0.7203 -0.3550  0.2941
 3304WAT     H113936   5.368   0.127   1.451  0.6731 -0.3526  0.4760
 3304WAT     H213937   5.438   0.015   1.413  0.7100 -0.2138  0.1291
 3304WAT    EPW13938   5.429   0.078   1.459  0.7118 -0.3338  0.2966
 3305WAT      O13939   6.915   2.378   5.342  0.7791 -0.5132 -0.1536
 3305WAT     H113940   6.945   2.451   5.379 -0.2186 -0.0748 -0.1792
 3305WAT     H213941   6.944   2.384   5.260 -2.5588  1.9586 -1.4117
 3305WAT    EPW13942   6.924   2.390   5.336  0.1386 -0.0833 -0.3432
 3306WAT      O13943   4.334   0.752   7.159  0.4472 -0.6231  0.9969
 3306WAT     H113944   4.381   0.680   7.177  0.6011 -0.4065  1.4732
 3306WAT     H213945   4.382   0.793   7.098  0.8034 -0.4770  1.3740
 3306WAT    EPW13946   4.348   0.747   7.153  0.5226 -0.5695  1.1230
 3307WAT      O13947   0.317   0.698   0.932  0.6137  0.1717  0.4644
 3307WAT     H113948   0.240   0.732   0.909  1.2084  1.2366 -0.0248
 3307WAT     H213949   0.306   0.612   0.922 -0.6138  0.2768  0.7405
 3307WAT    EPW13950   0.304   0.690   0.927  0.5202  0.3446  0.4329
 3308WAT      O13951   4.725   2.769   4.921  0.5614  0.2295  0.6014
 3308WAT     H113952   4.749   2.691   4.953  1.8957 -0.6571 -2.2819
 3308WAT     H213953   4.651   2.786   4.964  0.2598 -2.5881  1.4147
 3308WAT    EPW13954   4.718   2.760   4.932  0.7140 -0.3177  0.2956
 3309WAT      O13955   3.935   0.272   4.216 -0.3615  0.0344 -0.0141
 3309WAT     H113956   3.903   0.352   4.200  1.1967  0.2921 -2.2135
 3309WAT     H213957   3.918   0.229   4.142 -0.3299 -1.4025  0.7957
 3309WAT    EPW13958   3.928   0.278   4.202 -0.1266 -0.1398 -0.2194
 3310WAT      O13959   6.586   6.498   0.546 -0.3812 -0.1171 -0.2453
 3310WAT     H113960   6.553   6.486   0.466  0.4694 -1.6420 -0.4005
 3310WAT     H213961   6.672   6.505   0.533 -0.2221 -0.4519  0.5413
 3310WAT    EPW13962   6.594   6.497   0.532 -0.2321 -0.3918 -0.1520
 3311WAT      O13963   1.996   6.685   3.465 -0.1644 -0.5559 -0.3476
 3311WAT     H113964   2.075   6.719   3.480  0.7433 -2.3849 -0.7017
 3311WAT     H213965   1.980   6.638   3.537 -1.4255  0.5893  0.1664
 3311WAT    EPW13966   2.006   6.683   3.478 -0.2166 -0.6569 -0.3240
 3312WAT      O13967   4.438   0.664   6.691 -0.7075  0.2750  0.0336
 3312WAT     H113968   4.419   0.727   6.748  0.3565  0.3963  0.2735
 3312WAT     H213969   4.400   0.593   6.724 -2.0107  0.7757 -0.2879
 3312WAT    EPW13970   4.429   0.663   6.704 -0.7429  0.3669  0.0216
 3313WAT      O13971   6.986   7.015   2.209 -0.2770  0.3342  0.2812
 3313WAT     H113972   6.980   6.949   2.266  2.1618 -0.2544 -0.0396
 3313WAT     H213973   6.920   7.068   2.233 -1.7781 -1.7522  1.0840
 3313WAT    EPW13974   6.975   7.013   2.221 -0.1385 -0.0609  0.3524
 3314WAT      O13975   1.866   5.572   2.144 -0.0863 -0.6138 -0.5383
 3314WAT     H113976   1.928   5.521   2.109  1.1386  0.9407 -0.7356
 3314WAT     H213977   1.854   5.537   2.223  0.7732 -1.1631 -0.6326
 3314WAT    EPW13978   1.873   5.559   2.151  0.2216 -0.4653 -0.5813
 3315WAT      O13979   5.764   6.467   7.407 -0.0992  0.1546  0.3880
 3315WAT     H113980   5.738   6.389   7.436 -0.6597  0.6511  1.2551
 3315WAT     H213981   5.717   6.478   7.334  0.8418 -0.8136 -0.4017
 3315WAT    EPW13982   5.753   6.457   7.401 -0.0430  0.0849  0.3994
 3316WAT      O13983   4.192   3.753   3.743  0.1359  0.1018 -0.1265
 3316WAT     H113984   4.118   3.791   3.718 -1.1645 -3.0433 -1.6087
 3316WAT     H213985   4.234   3.737   3.668 -0.2740 -2.8115  0.1401
 3316WAT    EPW13986   4.187   3.756   3.728 -0.1168 -0.7932 -0.3061
 3317WAT      O13987   6.184   4.242   1.237  0.0784 -1.0602  0.5755
 3317WAT     H113988   6.210   4.325   1.236 -1.7567 -0.4547  0.6800
 3317WAT     H213989   6.228   4.207   1.304  0.2086  0.0456  1.0789
 3317WAT    EPW13990   6.195   4.249   1.247 -0.1735 -0.8074  0.6653
 3318WAT      O13991   3.958   0.773   2.871 -0.4385 -0.0774 -0.7609
 3318WAT     H113992   3.910   0.844   2.854  0.5477  0.7140 -0.3923
 3318WAT     H213993   4.006   0.762   2.799 -0.0253  0.1303 -0.5283
 3318WAT    EPW13994   3.958   0.782   2.858 -0.2318  0.0701 -0.6721
 3319WAT      O13995   0.511   4.084   3.616 -0.2978 -0.0074  0.1070
 3319WAT     H113996   0.542   4.165   3.607 -0.1129 -0.1273 -0.3847
 3319WAT     H213997   0.437   4.095   3.661 -0.6176  0.5189 -0.5216
 3319WAT    EPW13998   0.504   4.098   3.621 -0.3178  0.0526 -0.0585
 3320WAT      O13999   7.325   2.126   4.992  0.3963  0.0778  0.2460
 3320WAT     H114000   7.291   2.154   5.067 -1.9614  0.1818 -0.7637
 3320WAT     H214001   7.271   2.061   4.968  0.3366  0.8193 -1.8805
 3320WAT    EPW14002   7.312   2.120   4.999  0.0392  0.2027 -0.2173
 3321WAT      O14003   2.608   4.304   3.860  0.2570 -0.0570 -0.1050
 3321WAT     H114004   2.682   4.280   3.820 -0.6165 -2.3958 -0.5235
 3321WAT     H214005   2.576   4.366   3.808  0.8611 -0.5935 -1.1688
 3321WAT    EPW14006   2.614   4.309   3.846  0.2172 -0.4818 -0.3240
 3322WAT      O14007   0.167   6.812   0.018 -0.1764  0.6874 -0.6413
 3322WAT     H114008   0.251   6.831   0.033 -0.4000  0.6540  0.8159
 3322WAT     H214009   0.168   6.725   0.008  0.1116  0.8174 -1.8415
 3322WAT    EPW14010   0.180   6.802   0.019 -0.1669  0.7017 -0.6033
 3323WAT      O14011   7.052   4.075   5.557  0.3430 -0.2355  0.6735
 3323WAT     H114012   7.077   4.037   5.482  1.8440 -0.3801  1.2205
 3323WAT     H214013   7.085   4.155   5.551 -1.3233  0.4693  0.3018
 3323WAT    EPW14014   7.060   4.081   5.545  0.3186 -0.1527  0.6994
 3324WAT      O14015   3.383   2.213   2.180  0.9950  0.6543 -0.5421
 3324WAT     H114016   3.439   2.163   2.225  0.6731  1.0963  0.3798
 3324WAT     H214017   3.354   2.269   2.240 -0.9270  0.0480 -0.8506
 3324WAT    EPW14018   3.387   2.214   2.196  0.6635  0.6300 -0.4515
 3325WAT      O14019   7.262   3.597   5.953  0.2970  0.1385 -0.4634
 3325WAT     H114020   7.227   3.649   6.013  2.2030 -0.6824  1.4943
 3325WAT     H214021   7.314   3.652   5.908  0.5054  0.3924  0.0693
 3325WAT    EPW14022   7.265   3.613   5.955  0.6094  0.0548 -0.0955
 3326WAT      O14023   1.873   6.824   5.049 -0.0705 -0.1695  0.1751
 3326WAT     H114024   1.923   6.772   5.000  0.1510 -0.7099  0.9584
 3326WAT     H214025   1.896   6.904   5.023  0.2001 -0.4443 -0.4439
 3326WAT    EPW14026   1.884   6.828   5.038  0.0022 -0.2899  0.1993
 3327WAT      O14027   5.817   4.457   2.201  0.6898 -0.6415  0.2185
 3327WAT     H114028   5.894   4.417   2.203  0.8904 -0.2725  2.2639
 3327WAT     H214029   5.830   4.530   2.248 -1.2363 -1.3149  1.9389
 3327WAT    EPW14030   5.830   4.462   2.208  0.4349 -0.6865  0.7748
 3328WAT      O14031   2.633   0.393   5.542  0.7870 -0.1933 -0.2395
 3328WAT     H114032   2.549   0.398   5.563  0.6989 -1.6324 -0.1794
 3328WAT     H214033   2.646   0.464   5.493 -0.1249  0.7513  0.8225
 3328WAT    EPW14034   2.623   0.404   5.538  0.6393 -0.2663 -0.0738
 3329WAT      O14035   4.997   0.856   6.116  0.1313 -0.1736 -0.1931
 3329WAT     H114036   5.029   0.803   6.176  0.2520 -0.0619 -0.1606
 3329WAT     H214037   5.054   0.922   6.112  0.7025 -0.7050 -1.1973
 3329WAT    EPW14038   5.010   0.858   6.124  0.2335 -0.2356 -0.3367
 3330WAT      O14039   0.029   0.652   5.326  0.5287  0.2724  0.2299
 3330WAT     H114040  -0.039   0.610   5.292  1.1480  0.5247 -1.4500
 3330WAT     H214041   0.095   0.595   5.317  0.7163  0.3324  1.0978
 3330WAT    EPW14042   0.029   0.638   5.320  0.6479  0.3185  0.1099
 3331WAT      O14043   0.805   1.528   7.407  0.0237 -0.1204  0.1881
 3331WAT     H114044   0.773   1.469   7.351  1.4007 -1.3344  0.5888
 3331WAT     H214045   0.881   1.552   7.370  0.8301 -0.7472  1.3527
 3331WAT    EPW14046   0.812   1.523   7.393  0.3462 -0.3923  0.4194
 3332WAT      O14047   6.022   1.900   1.020  0.4506 -0.4536 -0.1563
 3332WAT     H114048   5.975   1.894   1.093  0.8208  0.1806  0.1421
 3332WAT     H214049   6.085   1.841   1.031  0.7619 -0.0530  0.2398
 3332WAT    EPW14050   6.024   1.890   1.032  0.5513 -0.3007 -0.0537
 3333WAT      O14051   4.531   1.949   1.723  0.1768 -0.0870  1.0506
 3333WAT     H114052   4.479   2.019   1.714 -0.8039 -0.9033  0.1606
 3333WAT     H214053   4.612   1.983   1.721 -0.2209  0.8691 -1.0584
 3333WAT    EPW14054   4.535   1.965   1.722 -0.0269 -0.0663  0.6076
 3334WAT      O14055   2.872   1.695   1.774  0.5804  0.0755 -0.2737
 3334WAT     H114056   2.792   1.729   1.779  0.3383 -0.0519 -2.3939
 3334WAT     H214057   2.869   1.627   1.829 -0.2487  0.9557  0.8126
 3334WAT    EPW14058   2.860   1.690   1.783  0.4222  0.1867 -0.4264
 3335WAT      O14059   2.242   2.078   6.043  0.4245 -0.8653 -0.1957
 3335WAT     H114060   2.278   2.148   6.080 -1.5639 -0.3347  0.8602
 3335WAT     H214061   2.228   2.102   5.961 -2.7394  1.0972  0.7717
 3335WAT    EPW14062   2.246   2.092   6.037 -0.3366 -0.4971  0.1032
 3336WAT      O14063   1.015   1.924   2.477 -0.6357 -0.7365  0.1524
 3336WAT     H114064   1.062   1.951   2.409 -2.4976  0.8007 -0.6216
 3336WAT     H214065   0.946   1.977   2.477 -1.9817 -2.3333  1.7144
 3336WAT    EPW14066   1.012   1.936   2.467 -1.1096 -0.7453  0.2688
 3337WAT      O14067   0.869   3.404   7.149  0.1318 -0.0423  0.1649
 3337WAT     H114068   0.910   3.480   7.133 -1.1414  0.6497  0.0176
 3337WAT     H214069   0.849   3.375   7.069  1.6426 -1.1610  0.1586
 3337WAT    EPW14070   0.872   3.411   7.135  0.1669 -0.1053  0.1422
 3338WAT      O14071   1.686   1.099   2.423  0.5179 -0.3330 -0.2961
 3338WAT     H114072   1.724   1.044   2.479  0.9383  0.0718 -0.1764
 3338WAT     H214073   1.725   1.175   2.439 -0.4192  0.1229 -0.1044
 3338WAT    EPW14074   1.697   1.102   2.433  0.4416 -0.2059 -0.2501
 3339WAT      O14075   0.662   2.244   1.387  0.1459  0.7038 -0.5372
 3339WAT     H114076   0.587   2.246   1.431 -0.3990 -0.2128 -1.4167
 3339WAT     H214077   0.722   2.233   1.450 -0.6125 -0.5017  0.0072
 3339WAT    EPW14078   0.660   2.243   1.403 -0.0466  0.3903 -0.5867
 3340WAT      O14079   1.071   4.575   6.412  0.0965 -0.8849 -0.0107
 3340WAT     H114080   1.052   4.660   6.416  0.8812 -0.7373  0.6353
 3340WAT     H214081   1.075   4.559   6.326  3.9494  0.6646 -0.2878
 3340WAT    EPW14082   1.069   4.585   6.400  0.7815 -0.6342  0.0438
 3341WAT      O14083   3.540   3.336   6.266  0.1208 -0.4328  0.0461
 3341WAT     H114084   3.490   3.321   6.196  0.3340 -1.8934  0.1696
 3341WAT     H214085   3.512   3.413   6.296 -2.4711 -1.4104  0.4217
 3341WAT    EPW14086   3.529   3.345   6.260 -0.2306 -0.7929  0.1198
 3342WAT      O14087   3.518   5.888   0.753  0.0209  0.3530  0.1144
 3342WAT     H114088   3.450   5.867   0.702  0.0542 -0.8748  0.5315
 3342WAT     H214089   3.493   5.862   0.832  0.5267  0.9540  0.4848
 3342WAT    EPW14090   3.504   5.881   0.757  0.1005  0.2604  0.2307
 3343WAT      O14091   1.750   6.193   2.541  0.1536  0.2043  0.0447
 3343WAT     H114092   1.768   6.251   2.604 -1.6821 -1.1533  1.9834
 3343WAT     H214093   1.663   6.197   2.534  0.3027  0.2172 -2.3942
 3343WAT    EPW14094   1.740   6.202   2.549 -0.0955  0.0057 -0.0292
 3344WAT      O14095   5.752   0.819   5.424 -0.4058 -0.2609 -0.1191
 3344WAT     H114096   5.775   0.747   5.467 -0.8839 -0.7865 -0.7337
 3344WAT     H214097   5.827   0.863   5.416  0.0137 -1.0069 -0.3402
 3344WAT    EPW14098   5.767   0.815   5.430 -0.4145 -0.4488 -0.2425
 3345WAT      O14099   4.603   5.523   6.297 -0.3217  0.6183 -0.4078
 3345WAT     H114100   4.576   5.476   6.229 -0.6714 -0.5385  0.5048
 3345WAT     H214101   4.535   5.521   6.352  1.1442 -1.4839  1.4995
 3345WAT    EPW14102   4.589   5.516   6.295 -0.1568  0.1368  0.0088
 3346WAT      O14103   4.944   1.619   4.809  0.0573 -0.4432  0.4795
 3346WAT     H114104   5.000   1.587   4.868  0.5319 -1.1926 -0.3637
 3346WAT     H214105   4.875   1.566   4.816  0.1658 -0.6119  0.2702
 3346WAT    EPW14106   4.942   1.606   4.819  0.1434 -0.5789  0.3240
 3347WAT      O14107   0.390   1.122   3.484 -0.1803 -0.8111  0.4758
 3347WAT     H114108   0.314   1.092   3.455 -0.2027 -0.1070 -0.2258
 3347WAT     H214109   0.417   1.175   3.420 -0.1533  0.6648  1.6503
 3347WAT    EPW14110   0.383   1.126   3.470 -0.1797 -0.4891  0.5457
 3348WAT      O14111   7.147   1.159   0.588  0.3245 -0.0124  0.3368
 3348WAT     H114112   7.062   1.152   0.603 -0.1055 -0.6956 -2.0593
 3348WAT     H214113   7.175   1.077   0.591  0.5554  0.0243 -0.5813
 3348WAT    EPW14114   7.139   1.146   0.591  0.2951 -0.1079 -0.1528
 3349WAT      O14115   6.063   0.661   5.639 -0.5303  0.1733  0.2530
 3349WAT     H114116   6.103   0.615   5.576  4.1121  0.6944  2.3810
 3349WAT     H214117   6.083   0.617   5.712 -3.5400  0.9417  1.6900
 3349WAT    EPW14118   6.072   0.647   5.640 -0.2892  0.3638  0.7796
 3350WAT      O14119   1.386   4.062   6.924 -0.1805 -0.2130  0.1379
 3350WAT     H114120   1.342   3.995   6.960 -0.0412 -0.0250  0.6704
 3350WAT     H214121   1.331   4.129   6.931  0.3462  0.1319  1.2316
 3350WAT    EPW14122   1.371   4.062   6.930 -0.0821 -0.1343  0.3781
 3351WAT      O14123   1.123   5.206   6.937  0.3003 -0.0730  0.1294
 3351WAT     H114124   1.042   5.238   6.928 -0.5608 -2.0852  0.3487
 3351WAT     H214125   1.111   5.122   6.954  2.4714 -0.5756 -0.4483
 3351WAT    EPW14126   1.110   5.198   6.938  0.4938 -0.4445  0.0765
 3352WAT      O14127   7.275   1.358   4.370  0.1554  0.4667  0.2381
 3352WAT     H114128   7.257   1.437   4.404 -0.2932  0.1156  0.8368
 3352WAT     H214129   7.362   1.355   4.370  0.2337  1.5392 -1.1550
 3352WAT    EPW14130   7.285   1.369   4.375  0.1007  0.5732  0.1207
 3353WAT      O14131   7.010   3.786   1.373 -0.0191  0.6435  0.0434
 3353WAT     H114132   6.991   3.746   1.299 -0.4011  0.8459  0.0307
 3353WAT     H214133   7.092   3.815   1.361 -0.6951  2.2593 -1.0107
 3353WAT    EPW14134   7.020   3.785   1.360 -0.1754  0.9121 -0.1142
 3354WAT      O14135   1.049   3.603   0.976  0.4812 -0.5829 -0.3257
 3354WAT     H114136   1.004   3.530   0.958  0.0294 -0.2214 -0.7101
 3354WAT     H214137   1.124   3.574   1.010  0.5237 -1.2401 -0.9697
 3354WAT    EPW14138   1.053   3.588   0.978  0.4207 -0.6266 -0.4776
 3355WAT      O14139   3.621   6.093   0.604  0.2374  0.0546  0.3903
 3355WAT     H114140   3.574   6.166   0.596 -0.7650 -0.4662  1.3398
 3355WAT     H214141   3.584   6.051   0.671  0.8397 -1.2893 -0.0749
 3355WAT    EPW14142   3.608   6.097   0.612  0.1783 -0.2209  0.4619
 3356WAT      O14143   5.603   6.497   6.145 -0.0448 -0.1279 -0.4188
 3356WAT     H114144   5.518   6.513   6.155  0.2570  1.3617 -0.0458
 3356WAT     H214145   5.625   6.453   6.217 -0.4626 -0.4057 -0.4591
 3356WAT    EPW14146   5.594   6.492   6.157 -0.0619  0.0511 -0.3697
 3357WAT      O14147   3.344   3.048   7.254 -0.2043  0.3041  0.2427
 3357WAT     H114148   3.322   3.058   7.338 -0.6328  3.0049 -0.0887
 3357WAT     H214149   3.430   3.060   7.254 -0.1203 -0.2795  0.3516
 3357WAT    EPW14150   3.353   3.052   7.266 -0.2552  0.6169  0.2098
 3358WAT      O14151   3.857   4.457   1.812  0.0493  0.5567 -0.4382
 3358WAT     H114152   3.886   4.478   1.733 -0.2217 -1.5564 -1.1690
 3358WAT     H214153   3.854   4.533   1.854  1.6054  1.5389 -1.9790
 3358WAT    EPW14154   3.860   4.471   1.807  0.2391  0.3896 -0.7738
 3359WAT      O14155   3.271   4.157   5.719 -0.1668 -0.7468  0.4643
 3359WAT     H114156   3.285   4.102   5.653 -1.9789 -1.5434  0.6857
 3359WAT     H214157   3.255   4.105   5.786 -0.2522  0.0618  1.0830
 3359WAT    EPW14158   3.271   4.141   5.719 -0.4471 -0.7450  0.5884
 3360WAT      O14159   1.553   1.494   1.625  0.1688  0.1448 -0.0283
 3360WAT     H114160   1.525   1.512   1.706  0.3038  2.1954 -0.3747
 3360WAT     H214161   1.553   1.572   1.586  1.0381 -0.6516 -1.7253
 3360WAT    EPW14162   1.549   1.509   1.631  0.3171  0.3300 -0.3301
 3361WAT      O14163   6.340   1.496   3.383 -0.1175 -0.3665  0.6321
 3361WAT     H114164   6.385   1.570   3.370 -0.2262 -0.0367  1.9774
 3361WAT     H214165   6.385   1.436   3.339  1.2310  0.0944  1.3233
 3361WAT    EPW14166   6.353   1.498   3.375  0.0657 -0.2497  0.9329
 3362WAT      O14167   6.785   0.658   2.238  0.3705  0.5166 -0.2581
 3362WAT     H114168   6.842   0.592   2.231 -0.7278 -0.4982 -0.0283
 3362WAT     H214169   6.712   0.626   2.201 -1.2321  0.2626  2.7972
 3362WAT    EPW14170   6.782   0.643   2.232 -0.0285  0.3292  0.2272
 3363WAT      O14171   2.329   4.218   3.725  0.4434  0.3662  0.5960
 3363WAT     H114172   2.409   4.194   3.698 -0.1101 -0.8324 -0.0432
 3363WAT     H214173   2.325   4.187   3.806  1.1327  1.6828  1.1687
 3363WAT    EPW14174   2.340   4.210   3.733  0.4635  0.3836  0.5862
 3364WAT      O14175   2.755   5.652   2.696  0.7794 -0.6606 -0.3915
 3364WAT     H114176   2.751   5.738   2.679 -0.2352 -0.6335 -0.0981
 3364WAT     H214177   2.762   5.649   2.783  0.6970 -0.8695 -0.3919
 3364WAT    EPW14178   2.755   5.664   2.706  0.6174 -0.6874 -0.3482
 3365WAT      O14179   7.148   6.807   4.637 -0.1839 -0.5620 -0.3843
 3365WAT     H114180   7.169   6.877   4.684 -0.2121 -0.1903 -0.9196
 3365WAT     H214181   7.219   6.757   4.642 -0.0278 -0.3327 -0.3000
 3365WAT    EPW14182   7.161   6.810   4.645 -0.1650 -0.4733 -0.4509
 3366WAT      O14183   2.667   1.149   6.976  0.0908 -0.2523 -0.0797
 3366WAT     H114184   2.649   1.096   6.909 -0.3361 -2.4082  1.6320
 3366WAT     H214185   2.588   1.170   7.007  0.2913 -0.2855  0.4651
 3366WAT    EPW14186   2.653   1.144   6.971  0.0573 -0.5757  0.2536
 3367WAT      O14187   2.058   0.607   4.697 -0.1952 -0.4726 -0.1186
 3367WAT     H114188   2.083   0.537   4.653  2.6261  0.7436 -0.6793
 3367WAT     H214189   2.106   0.603   4.770 -1.0470  0.1546  0.4938
 3367WAT    EPW14190   2.069   0.596   4.702  0.0957 -0.2003 -0.1110
 3368WAT      O14191   3.559   0.900   7.371 -0.1006  0.4561 -0.0541
 3368WAT     H114192   3.541   0.939   7.447 -0.1944  2.3056 -0.9544
 3368WAT     H214193   3.495   0.928   7.319 -0.5921 -1.5614 -0.5913
 3368WAT    EPW14194   3.547   0.910   7.375 -0.1871  0.4313 -0.2664
 3369WAT      O14195   6.251   6.513   6.480  0.1479  0.3059 -0.7069
 3369WAT     H114196   6.224   6.474   6.407  1.0976 -0.3655 -0.7085
 3369WAT     H214197   6.324   6.471   6.501 -0.2616  0.2790  0.8109
 3369WAT    EPW14198   6.258   6.501   6.473  0.2277  0.2027 -0.4829
 3370WAT      O14199   3.653   7.021   5.283  0.1895  0.1160  0.5138
 3370WAT     H114200   3.590   7.013   5.343  0.2177 -0.3400  0.4824
 3370WAT     H214201   3.666   6.940   5.256 -1.0437  0.4718 -1.3707
 3370WAT    EPW14202   3.645   7.008   5.288  0.0115  0.1012  0.2308
 3371WAT      O14203   3.723   0.573   4.909  0.3136 -0.2815  0.2804
 3371WAT     H114204   3.707   0.624   4.841 -0.0622 -0.9057 -0.0989
 3371WAT     H214205   3.786   0.519   4.881  1.8604  0.9604  1.1744
 3371WAT    EPW14206   3.730   0.572   4.895  0.4866 -0.1903  0.3564
 3372WAT      O14207   5.048   1.829   0.319  0.4614  0.5019 -0.2703
 3372WAT     H114208   4.971   1.792   0.304 -0.0086  1.3600 -0.0655
 3372WAT     H214209   5.056   1.886   0.253  0.3813  1.2354  0.3476
 3372WAT    EPW14210   5.038   1.832   0.307  0.3802  0.7370 -0.1488
 3373WAT      O14211   7.146   4.183   2.793 -0.1854 -0.2031 -0.5502
 3373WAT     H114212   7.157   4.269   2.790 -0.6932 -0.1548 -2.2582
 3373WAT     H214213   7.209   4.152   2.741 -1.5312 -0.6495 -1.9860
 3373WAT    EPW14214   7.157   4.191   2.785 -0.4592 -0.2619 -1.0146
 3374WAT      O14215   4.165   2.451   6.631  0.0261 -0.0848 -0.0401
 3374WAT     H114216   4.081   2.478   6.629  0.0236 -0.0403  0.5766
 3374WAT     H214217   4.188   2.462   6.714  0.5581 -0.3845 -0.1457
 3374WAT    EPW14218   4.156   2.457   6.643  0.1044 -0.1225  0.0354
 3375WAT      O14219   6.811   1.664   0.700 -0.9069 -0.1654  0.5602
 3375WAT     H114220   6.742   1.623   0.734  0.7629 -1.6688  2.3762
 3375WAT     H214221   6.873   1.602   0.697  0.3079  1.0399 -1.2491
 3375WAT    EPW14222   6.810   1.649   0.705 -0.4808 -0.2094  0.5612
 3376WAT      O14223   1.811   0.110   5.851 -0.7589  0.4220  0.7011
 3376WAT     H114224   1.833   0.026   5.840 -0.3939  0.8111 -2.4710
 3376WAT     H214225   1.749   0.122   5.790 -0.5038  2.5416  0.7987
 3376WAT    EPW14226   1.805   0.099   5.840 -0.6673  0.7925  0.2469
 3377WAT      O14227   5.100   6.728   7.406 -0.0655  0.6357  0.6355
 3377WAT     H114228   5.132   6.726   7.487 -1.0100 -0.1316  1.0167
 3377WAT     H214229   5.144   6.793   7.368  0.8663  0.5670  1.5587
 3377WAT    EPW14230   5.111   6.738   7.413 -0.0674  0.5122  0.8282
 3378WAT      O14231   1.623   6.718   3.447  0.0693 -0.7332  0.0518
 3378WAT     H114232   1.665   6.717   3.524 -0.9812 -2.8684  0.6862
 3378WAT     H214233   1.544   6.751   3.467 -1.1181 -3.5626  0.5533
 3378WAT    EPW14234   1.617   6.723   3.461 -0.2613 -1.4666  0.2196
 3379WAT      O14235   3.791   6.332   4.092 -0.2273 -0.1474  0.0286
 3379WAT     H114236   3.748   6.328   4.016 -1.2029  0.4857  0.5089
 3379WAT     H214237   3.728   6.320   4.151  0.3684  0.1752  0.7497
 3379WAT    EPW14238   3.775   6.330   4.090 -0.2834 -0.0062  0.2061
 3380WAT      O14239   7.032   2.704   1.319  0.2000 -0.4125  0.1518
 3380WAT     H114240   6.987   2.655   1.375 -1.2784  0.9204  0.1933
 3380WAT     H214241   6.971   2.751   1.278  1.3513 -0.2982 -1.5779
 3380WAT    EPW14242   7.016   2.704   1.321  0.1517 -0.1987 -0.0976
 3381WAT      O14243   0.301   5.983   3.370 -0.2635  0.7490  0.1231
 3381WAT     H114244   0.230   6.030   3.352 -0.2338  0.6567 -0.2528
 3381WAT     H214245   0.359   6.010   3.311  0.5648  2.0115  1.4815
 3381WAT    EPW14246   0.299   5.994   3.359 -0.1368  0.9219  0.2683
 3382WAT      O14247   4.673   5.211   5.979 -0.6681  0.0449  0.2176
 3382WAT     H114248   4.731   5.159   5.939 -0.0177  0.8298  0.1228
 3382WAT     H214249   4.659   5.170   6.055 -0.7728 -0.6830 -0.1838
 3382WAT    EPW14250   4.680   5.197   5.984 -0.5875  0.0533  0.1443
 3383WAT      O14251   0.400   6.963   5.545  0.3037 -0.0828  0.2654
 3383WAT     H114252   0.400   7.050   5.541 -0.6521 -0.0791  0.1949
 3383WAT     H214253   0.464   6.946   5.602  1.8744  0.5619 -1.1892
 3383WAT    EPW14254   0.410   6.973   5.553  0.3946  0.0130  0.0401
 3384WAT      O14255   4.732   3.928   5.354  0.0451 -0.4139 -0.3282
 3384WAT     H114256   4.715   4.013   5.366  0.3285 -0.3057 -0.6779
 3384WAT     H214257   4.773   3.904   5.427 -0.7538 -0.4493  0.1231
 3384WAT    EPW14258   4.735   3.937   5.366 -0.0310 -0.4031 -0.3132
 3385WAT      O14259   6.015   4.761   2.977 -0.0706  0.0947 -0.4815
 3385WAT     H114260   6.084   4.806   2.948 -0.0570  0.6136  0.3253
 3385WAT     H214261   6.019   4.686   2.932  1.3781 -0.1516 -0.0014
 3385WAT    EPW14262   6.026   4.757   2.966  0.1454  0.1350 -0.2914
 3386WAT      O14263   3.534   1.107   5.242  0.2338  0.0550 -0.4428
 3386WAT     H114264   3.464   1.107   5.294  1.1154 -1.5964  0.8356
 3386WAT     H214265   3.509   1.155   5.174 -1.1311  1.9236  1.2732
 3386WAT    EPW14266   3.520   1.114   5.240  0.1624  0.0871 -0.0005
 3387WAT      O14267   5.289   0.235   3.978  0.3479  0.6548 -0.5023
 3387WAT     H114268   5.254   0.283   4.042 -3.5135 -2.3062  0.0164
 3387WAT     H214269   5.338   0.177   4.020 -2.1152 -1.2310  0.0191
 3387WAT    EPW14270   5.291   0.233   3.993 -0.5864 -0.0612 -0.3487
 3388WAT      O14271   4.155   0.774   0.364 -0.6166  0.6847 -0.7631
 3388WAT     H114272   4.179   0.731   0.292 -0.6906 -0.3341 -0.2074
 3388WAT     H214273   4.197   0.731   0.428 -1.0583  1.1696 -0.1340
 3388WAT    EPW14274   4.165   0.761   0.363 -0.6928  0.6058 -0.5881
 3389WAT      O14275   0.517   2.293   6.386  0.1730  0.0564 -0.1410
 3389WAT     H114276   0.491   2.275   6.468  2.5964 -0.2021  0.6715
 3389WAT     H214277   0.541   2.377   6.391 -1.3780  0.6039 -1.1446
 3389WAT    EPW14278   0.517   2.303   6.399  0.3019  0.0991 -0.1693
 3390WAT      O14279   5.600   7.240   5.959  0.2728 -0.2856  0.7049
 3390WAT     H114280   5.629   7.306   6.008  1.4204 -1.4359  1.6810
 3390WAT     H214281   5.561   7.187   6.017 -0.0734 -0.7720  0.0520
 3390WAT    EPW14282   5.598   7.242   5.975  0.3912 -0.5273  0.7527
 3391WAT      O14283   1.661   4.360   0.912 -0.0168 -0.0237 -0.3897
 3391WAT     H114284   1.596   4.304   0.898 -0.1232 -0.3420  1.1932
 3391WAT     H214285   1.732   4.313   0.895 -0.1602 -0.1313 -0.6911
 3391WAT    EPW14286   1.662   4.345   0.908 -0.0537 -0.0866 -0.2004
 3392WAT      O14287   0.931   1.647   7.081 -0.2435  0.6153 -0.0080
 3392WAT     H114288   0.930   1.610   7.003 -2.4224  2.3769 -0.9304
 3392WAT     H214289   0.993   1.708   7.074  1.3106 -0.8231  0.5517
 3392WAT    EPW14290   0.940   1.651   7.069 -0.3358  0.6630 -0.0616
 3393WAT      O14291   3.076   1.705   1.578 -0.5495  0.1509 -0.8516
 3393WAT     H114292   3.146   1.694   1.629  0.1828  0.7425 -1.7043
 3393WAT     H214293   3.010   1.709   1.635  0.5004  3.6332  0.3963
 3393WAT    EPW14294   3.077   1.704   1.594 -0.2862  0.7527 -0.7932
 3394WAT      O14295   6.402   5.463   2.564  0.2798  0.1765  0.4973
 3394WAT     H114296   6.408   5.432   2.483  1.6680 -0.2506  0.7428
 3394WAT     H214297   6.468   5.519   2.570 -1.7090  2.7329  0.3120
 3394WAT    EPW14298   6.412   5.467   2.553  0.1911  0.4911  0.5062
 3395WAT      O14299   5.870   1.595   5.140  0.0599  0.2524  1.0380
 3395WAT     H114300   5.852   1.582   5.225  3.2529  3.3734  2.4495
 3395WAT     H214301   5.945   1.552   5.129 -0.7209 -0.7805 -0.5314
 3395WAT    EPW14302   5.878   1.587   5.151  0.4162  0.5609  1.0147
 3396WAT      O14303   5.568   4.055   2.888 -0.0094  0.6634  0.8239
 3396WAT     H114304   5.510   4.085   2.945 -1.7413  1.3178 -1.1543
 3396WAT     H214305   5.558   3.968   2.892 -0.8309  0.7504  0.8355
 3396WAT    EPW14306   5.558   4.047   2.897 -0.3866  0.7729  0.5334
 3397WAT      O14307   3.217   0.325   4.108  0.5875 -0.6584 -0.2583
 3397WAT     H114308   3.163   0.288   4.166  1.7945 -0.2462  1.1961
 3397WAT     H214309   3.166   0.383   4.067 -0.0716 -0.1657  1.1887
 3397WAT    EPW14310   3.201   0.328   4.111  0.6684 -0.5247  0.1703
 3398WAT      O14311   0.986   2.796   6.575 -0.2685  0.3027  0.0417
 3398WAT     H114312   1.058   2.839   6.601  1.6877  0.9088 -5.1463
 3398WAT     H214313   1.001   2.714   6.600  2.8867  0.2182 -1.5774
 3398WAT    EPW14314   0.999   2.790   6.583  0.4866  0.3798 -0.9638
 3399WAT      O14315   0.131   0.795   3.324 -0.1263 -0.2208  0.0939
 3399WAT     H114316   0.134   0.878   3.349  0.3505 -0.3628  0.5442
 3399WAT     H214317   0.119   0.751   3.399 -1.0029 -0.5256 -0.2096
 3399WAT    EPW14318   0.130   0.801   3.339 -0.1854 -0.2868  0.1156
 3400WAT      O14319   0.264   4.488   6.592 -0.1791  0.0467 -0.2560
 3400WAT     H114320   0.293   4.431   6.532 -0.1242  0.3547 -0.5227
 3400WAT     H214321   0.193   4.449   6.624  0.9390 -1.0834  0.9569
 3400WAT    EPW14322   0.258   4.474   6.588 -0.0058 -0.0747 -0.1162
 3401WAT      O14323   5.192   3.213   5.224  0.6725  0.1223  0.8545
 3401WAT     H114324   5.257   3.268   5.204 -0.7140  1.8432  0.8248
 3401WAT     H214325   5.140   3.215   5.154  0.6064 -1.3317  0.8246
 3401WAT    EPW14326   5.194   3.221   5.211  0.4579  0.1617  0.8457
 3402WAT      O14327   2.978   0.283   1.597 -0.2890  0.0283  0.3070
 3402WAT     H114328   2.988   0.201   1.568 -1.3523 -2.0676  4.9407
 3402WAT     H214329   2.897   0.284   1.628 -0.3699  2.9511  0.2688
 3402WAT    EPW14330   2.968   0.271   1.597 -0.4580  0.1504  0.9859
 3403WAT      O14331   0.790   7.082   7.144  0.5512  0.0396  0.2498
 3403WAT     H114332   0.774   6.998   7.161  0.3261 -0.2456 -1.2574
 3403WAT     H214333   0.723   7.124   7.181 -0.6851 -0.6747 -1.0830
 3403WAT    EPW14334   0.777   7.076   7.152  0.3354 -0.1081 -0.1697
 3404WAT      O14335   2.017   3.739   1.309 -0.6486  0.0092 -0.5447
 3404WAT     H114336   2.081   3.705   1.261  1.1379  0.1903  1.5651
 3404WAT     H214337   1.987   3.671   1.355 -0.4303  0.3335  0.0902
 3404WAT    EPW14338   2.022   3.724   1.309 -0.3524  0.0839 -0.1393
 3405WAT      O14339   0.068   4.956   5.665  0.0535 -0.1454  0.0192
 3405WAT     H114340   0.029   4.992   5.596  0.1921 -0.9466 -0.4888
 3405WAT     H214341   0.058   5.016   5.728 -3.4313 -0.8898  0.3871
 3405WAT    EPW14342   0.060   4.970   5.664 -0.4408 -0.3737 -0.0015
 3406WAT      O14343   6.862   4.474   7.064 -0.5091 -0.2538 -0.5034
 3406WAT     H114344   6.890   4.547   7.024 -0.8636  0.8444  1.1746
 3406WAT     H214345   6.929   4.419   7.054  1.0270  1.2862  0.7167
 3406WAT    EPW14346   6.876   4.477   7.056 -0.3346  0.1359 -0.0753
 3407WAT      O14347   7.166   5.733   0.344  0.6879  0.1624 -0.3016
 3407WAT     H114348   7.142   5.799   0.291  0.9798  0.1745 -0.4182
 3407WAT     H214349   7.164   5.770   0.423 -0.2480  0.0127 -0.2373
 3407WAT    EPW14350   7.162   5.749   0.348  0.5928  0.1421 -0.3093
 3408WAT      O14351   6.633   3.761   0.667  0.2591 -0.3442 -0.1600
 3408WAT     H114352   6.674   3.765   0.590  1.8317 -1.6186  0.5462
 3408WAT     H214353   6.576   3.696   0.657  1.2678 -1.2952  0.0627
 3408WAT    EPW14354   6.631   3.752   0.654  0.6404 -0.6729 -0.0228
 3409WAT      O14355   4.893   6.093   6.770  0.4175  0.3109  0.1204
 3409WAT     H114356   4.901   6.048   6.695  1.5357  0.2932  0.2308
 3409WAT     H214357   4.840   6.159   6.749  0.5574  0.1949 -0.6355
 3409WAT    EPW14358   4.887   6.096   6.755  0.6034  0.2912  0.0250
 3410WAT      O14359   4.917   1.015   6.583 -0.6338  0.1123 -0.6708
 3410WAT     H114360   4.906   0.999   6.498  0.7243  0.7740 -0.9885
 3410WAT     H214361   4.917   0.935   6.619  1.6597 -0.4344 -1.6919
 3410WAT    EPW14362   4.915   1.001   6.576 -0.0944  0.1293 -0.8686
 3411WAT      O14363   3.721   2.813   5.538  0.1018 -0.2603 -0.0671
 3411WAT     H114364   3.678   2.797   5.464 -0.6253 -0.7458  0.4528
 3411WAT     H214365   3.805   2.818   5.512 -0.2949  1.3483 -1.1827
 3411WAT    EPW14366   3.727   2.811   5.523 -0.0642 -0.0944 -0.1551
 3412WAT      O14367   2.459   1.585   2.382  0.6078  1.0507 -0.0023
 3412WAT     H114368   2.420   1.626   2.316 -0.8443 -1.1027 -0.6048
 3412WAT     H214369   2.420   1.617   2.453 -0.2435  0.9969 -0.4340
 3412WAT    EPW14370   2.448   1.595   2.383  0.2675  0.7247 -0.1551
 3413WAT      O14371   5.487   4.648   6.146 -0.4290  0.5613 -0.5713
 3413WAT     H114372   5.500   4.614   6.225 -1.4103  0.6746 -0.3371
 3413WAT     H214373   5.511   4.731   6.155  1.1510  0.1592 -0.9019
 3413WAT    EPW14374   5.492   4.655   6.159 -0.3406  0.5186 -0.5856
 3414WAT      O14375   2.147   1.566   1.276  0.2442  0.1384  0.6404
 3414WAT     H114376   2.184   1.520   1.340  0.0512  0.3944  0.9408
 3414WAT     H214377   2.215   1.596   1.230  0.3716 -0.3439  0.5133
 3414WAT    EPW14378   2.163   1.564   1.279  0.2345  0.1050  0.6660
 3415WAT      O14379   3.373   4.447   0.026 -0.2004 -0.0206 -0.2124
 3415WAT     H114380   3.414   4.454   0.102 -1.6299  0.0446  0.5899
 3415WAT     H214381   3.329   4.372   0.033  0.9683 -0.9152 -1.6739
 3415WAT    EPW14382   3.372   4.437   0.038 -0.2389 -0.1432 -0.3098
 3416WAT      O14383   3.592   0.634   7.408 -0.4892  0.3908  0.5013
 3416WAT     H114384   3.674   0.655   7.430  0.3369 -0.7460 -1.2563
 3416WAT     H214385   3.552   0.712   7.403  0.4198  0.9608  1.5089
 3416WAT    EPW14386   3.598   0.649   7.411 -0.2329  0.3071  0.3905
 3417WAT      O14387   6.458   0.008   4.277 -0.4568 -0.3364 -0.1504
 3417WAT     H114388   6.513   0.037   4.215 -1.3034 -1.3971 -1.4527
 3417WAT     H214389   6.384  -0.007   4.233 -1.9718  1.4288  1.6069
 3417WAT    EPW14390   6.456   0.010   4.261 -0.8057 -0.2323 -0.0832
 3418WAT      O14391   1.797   0.370   1.330  0.1561  0.5102 -0.1816
 3418WAT     H114392   1.859   0.372   1.392 -0.5150  2.1140  0.4965
 3418WAT     H214393   1.817   0.437   1.279 -0.3848  0.3444 -0.6172
 3418WAT    EPW14394   1.809   0.380   1.332 -0.0230  0.7226 -0.1458
 3419WAT      O14395   6.695   4.319   4.452 -0.3076 -0.3579  0.0603
 3419WAT     H114396   6.634   4.365   4.410 -0.2929  1.6568  2.0684
 3419WAT     H214397   6.678   4.333   4.536  0.9512 -2.4755  0.7527
 3419WAT    EPW14398   6.684   4.328   4.458 -0.1194 -0.3731  0.4592
 3420WAT      O14399   3.048   6.329   3.786 -0.0284  0.4599  0.7999
 3420WAT     H114400   3.111   6.388   3.771  0.3320  0.6736  2.8691
 3420WAT     H214401   3.086   6.272   3.841 -0.4278 -1.6315 -0.9604
 3420WAT    EPW14402   3.063   6.329   3.792 -0.0341  0.1825  0.8455
 3421WAT      O14403   3.742   3.075   1.432  0.4585  0.4234 -0.3030
 3421WAT     H114404   3.713   3.115   1.504  1.6012  0.0749  0.3716
 3421WAT     H214405   3.677   3.088   1.374 -0.8282  0.0520  0.9888
 3421WAT    EPW14406   3.728   3.083   1.434  0.4372  0.3170 -0.0125
 3422WAT      O14407   3.325   2.375   2.392  0.4696 -0.2079 -0.3072
 3422WAT     H114408   3.289   2.454   2.381 -0.4525 -0.5925 -0.1397
 3422WAT     H214409   3.411   2.391   2.388  0.3100  0.8731  0.1741
 3422WAT    EPW14410   3.332   2.389   2.390  0.3098 -0.1050 -0.2113
 3423WAT      O14411   2.545   1.816   2.951  0.2349  0.4686 -0.1495
 3423WAT     H114412   2.628   1.839   2.959  0.3589  0.0791 -0.2824
 3423WAT     H214413   2.530   1.822   2.865  0.3894 -0.3282 -0.2431
 3423WAT    EPW14414   2.555   1.820   2.940  0.2760  0.2934 -0.1830
 3424WAT      O14415   3.431   1.243   5.033 -0.3029 -0.3911  0.3339
 3424WAT     H114416   3.496   1.296   5.008  1.8811 -2.6845  0.7315
 3424WAT     H214417   3.363   1.297   5.043  1.5830  2.2145  0.1431
 3424WAT    EPW14418   3.431   1.259   5.031  0.2983 -0.3450  0.3645
 3425WAT      O14419   0.162   6.673   4.082 -0.1637  0.1713  0.0150
 3425WAT     H114420   0.174   6.749   4.123 -1.2675  0.8159 -0.7796
 3425WAT     H214421   0.192   6.688   4.001  0.8412 -0.6754  0.2214
 3425WAT    EPW14422   0.168   6.686   4.076 -0.1783  0.1415 -0.0719
 3426WAT      O14423   0.586   1.424   6.066 -0.0867  0.2732  0.3824
 3426WAT     H114424   0.612   1.348   6.031 -3.6191 -0.5158 -0.8962
 3426WAT     H214425   0.649   1.442   6.124  2.1625 -2.2984 -1.0090
 3426WAT    EPW14426   0.599   1.416   6.069 -0.2762 -0.2233 -0.0120
 3427WAT      O14427   0.108   5.384   3.526 -0.1804 -0.3147  0.5153
 3427WAT     H114428   0.132   5.468   3.517 -0.8787  0.0333  1.7409
 3427WAT     H214429   0.057   5.370   3.456 -0.4419  0.4290  0.5438
 3427WAT    EPW14430   0.104   5.395   3.514 -0.3222 -0.1534  0.7005
 3428WAT      O14431   2.168   6.195   6.528 -0.2039  0.1421 -0.1945
 3428WAT     H114432   2.141   6.119   6.495 -0.1817 -0.1747  0.5021
 3428WAT     H214433   2.119   6.205   6.600 -1.9544  1.9581 -1.5063
 3428WAT    EPW14434   2.157   6.186   6.534 -0.4592  0.3636 -0.2854
 3429WAT      O14435   0.608   5.574   4.192 -0.4721 -0.0109  1.0895
 3429WAT     H114436   0.551   5.639   4.204 -1.8376 -1.0052  0.2529
 3429WAT     H214437   0.625   5.546   4.273 -1.6464 -0.0668  1.3321
 3429WAT    EPW14438   0.602   5.579   4.206 -0.8473 -0.1660  1.0018
 3430WAT      O14439   4.577   3.682   4.712  0.0361 -0.0485  0.1992
 3430WAT     H114440   4.494   3.664   4.696  0.5421 -0.9499 -1.7362
 3430WAT     H214441   4.595   3.747   4.658  0.5444  0.2872  0.7588
 3430WAT    EPW14442   4.568   3.689   4.702  0.1859 -0.1321 -0.0040
 3431WAT      O14443   1.362   2.292   6.003  0.0218 -0.7027  0.5009
 3431WAT     H114444   1.287   2.336   6.004  0.7535  0.6741 -0.8361
 3431WAT     H214445   1.397   2.308   6.081 -1.2537 -1.7705  1.3328
 3431WAT    EPW14446   1.356   2.301   6.015 -0.0586 -0.6570  0.4263
 3432WAT      O14447   1.860   2.112   4.641  0.0425  0.2400  0.1238
 3432WAT     H114448   1.903   2.133   4.569  2.0983 -1.2203  0.8549
 3432WAT     H214449   1.857   2.187   4.686 -0.1762  0.8623 -0.8973
 3432WAT    EPW14450   1.866   2.126   4.637  0.3139  0.1162  0.0809
 3433WAT      O14451   6.345   6.241   1.030 -0.3386  1.2897 -0.6418
 3433WAT     H114452   6.402   6.188   1.069 -0.1748  1.3473 -0.8047
 3433WAT     H214453   6.386   6.318   1.030  1.8556  0.4510 -5.3427
 3433WAT    EPW14454   6.359   6.245   1.036  0.0097  1.1743 -1.3603
 3434WAT      O14455   3.369   4.504   2.886  0.5131  0.9264  0.1854
 3434WAT     H114456   3.391   4.469   2.809  0.6095  0.6096  0.3568
 3434WAT     H214457   3.325   4.440   2.926 -1.8412  1.9187 -0.6396
 3434WAT    EPW14458   3.366   4.489   2.881  0.1796  1.0262  0.0888
 3435WAT      O14459   5.195   3.789   6.567  0.2338  0.1253  0.1036
 3435WAT     H114460   5.142   3.720   6.574  0.2637  0.1997  1.3679
 3435WAT     H214461   5.143   3.854   6.541 -0.2396  0.1166  1.0027
 3435WAT    EPW14462   5.180   3.788   6.564  0.1683  0.1350  0.4232
 3436WAT      O14463   7.303   0.710   4.040  0.1533 -0.2934 -0.1527
 3436WAT     H114464   7.251   0.747   3.980  0.0046  1.6604  1.1053
 3436WAT     H214465   7.250   0.699   4.109  0.9840  0.2439  0.5942
 3436WAT    EPW14466   7.287   0.714   4.041  0.2541  0.0746  0.1435
 3437WAT      O14467   0.730   0.344   4.424  0.8506 -0.3048  0.5462
 3437WAT     H114468   0.728   0.258   4.408 -1.1193 -0.7246  2.4981
 3437WAT     H214469   0.701   0.350   4.506 -0.7449  2.3167 -0.0901
 3437WAT    EPW14470   0.725   0.332   4.433  0.3239  0.0204  0.7405
 3438WAT      O14471   5.642   3.964   0.064  0.6560  0.0117  0.4115
 3438WAT     H114472   5.701   3.979   0.001 -0.6336  2.2096 -0.3594
 3438WAT     H214473   5.690   3.966   0.137  1.6074  1.5390 -0.2077
 3438WAT    EPW14474   5.658   3.966   0.066  0.6061  0.5620  0.2061
 3439WAT      O14475   1.833   1.265   3.198  0.9003 -0.0142  0.3014
 3439WAT     H114476   1.823   1.348   3.173  0.4160 -0.6165 -1.6412
 3439WAT     H214477   1.882   1.230   3.136  0.5682 -1.3490  0.7637
 3439WAT    EPW14478   1.838   1.272   3.185  0.7797 -0.3004  0.0827
 3440WAT      O14479   3.764   6.666   3.234  0.5913  0.0461 -0.5945
 3440WAT     H114480   3.816   6.606   3.197 -0.5970 -1.7199  0.4927
 3440WAT     H214481   3.686   6.628   3.237 -0.1433  1.5197  0.4727
 3440WAT    EPW14482   3.761   6.652   3.229  0.3073  0.0029 -0.2762
 3441WAT      O14483   5.470   1.120   4.566  0.2156 -0.3039  0.0152
 3441WAT     H114484   5.507   1.184   4.612  4.0197 -1.7339 -0.6242
 3441WAT     H214485   5.386   1.124   4.589  1.1141  1.6072  3.9376
 3441WAT    EPW14486   5.463   1.130   4.576  0.9103 -0.2328  0.5002
 3442WAT      O14487   0.984   1.377   0.904  0.0462 -0.0808  0.0645
 3442WAT     H114488   0.996   1.350   0.986  0.3771 -0.9260 -0.2465
 3442WAT     H214489   0.970   1.303   0.860  0.0628  0.3407 -0.6737
 3442WAT    EPW14490   0.984   1.362   0.910  0.0975 -0.1434 -0.0905
 3443WAT      O14491   2.303   6.196   3.751  0.2372  0.4285  0.1599
 3443WAT     H114492   2.278   6.213   3.669  0.6853  0.7747  0.0916
 3443WAT     H214493   2.374   6.146   3.740  0.3176  0.5029  0.3373
 3443WAT    EPW14494   2.310   6.191   3.737  0.3152  0.4906  0.1760
 3444WAT      O14495   2.432   4.555   0.946  0.4882  0.1266 -0.2990
 3444WAT     H114496   2.479   4.491   0.909 -1.7021 -1.8261  0.0151
 3444WAT     H214497   2.419   4.527   1.028  0.4470  1.5848  0.2295
 3444WAT    EPW14498   2.437   4.541   0.953  0.1586  0.0536 -0.1745
 3445WAT      O14499   3.180   4.794   2.017  0.2932  0.5790 -0.2368
 3445WAT     H114500   3.130   4.799   2.089 -0.3864 -0.4950 -0.6157
 3445WAT     H214501   3.222   4.870   2.017  0.4169  0.5457  1.3781
 3445WAT    EPW14502   3.179   4.806   2.028  0.2111  0.4155 -0.0542
 3446WAT      O14503   1.170   3.804   5.200  0.6101 -0.0803 -0.4279
 3446WAT     H114504   1.094   3.846   5.205  0.5887 -0.1106 -0.4886
 3446WAT     H214505   1.168   3.748   5.268  0.3882 -0.3863 -0.6835
 3446WAT    EPW14506   1.159   3.802   5.211  0.5741 -0.1300 -0.4746
 3447WAT      O14507   1.207   0.329   0.573 -0.3181  0.4305 -0.1779
 3447WAT     H114508   1.195   0.415   0.564 -0.4929  0.2664 -1.6234
 3447WAT     H214509   1.163   0.295   0.506  1.5127 -0.6771 -0.8828
 3447WAT    EPW14510   1.199   0.337   0.562 -0.0735  0.2426 -0.4956
 3448WAT      O14511   3.171   5.130   0.799  0.1047  0.0113 -0.4264
 3448WAT     H114512   3.226   5.083   0.750 -0.0683  0.9830 -1.6137
 3448WAT     H214513   3.223   5.192   0.834 -0.1487  0.6793 -1.2142
 3448WAT    EPW14514   3.187   5.132   0.797  0.0417  0.2535 -0.7181
 3449WAT      O14515   6.420   0.176   5.462 -0.0289  0.3015 -0.1476
 3449WAT     H114516   6.444   0.162   5.544 -1.0613 -0.3404  0.0712
 3449WAT     H214517   6.412   0.096   5.429 -0.1762  0.5383 -0.7013
 3449WAT    EPW14518   6.422   0.162   5.469 -0.2032  0.2416 -0.1970
 3450WAT      O14519   3.589   6.260   2.156  0.0491  0.2185 -0.2229
 3450WAT     H114520   3.584   6.344   2.136 -0.3353  0.2161 -0.1437
 3450WAT     H214521   3.565   6.220   2.082  1.6198  0.1409 -0.7166
 3450WAT    EPW14522   3.585   6.266   2.142  0.2244  0.2067 -0.2841
 3451WAT      O14523   0.542   0.841   0.838 -0.7284  0.6036 -1.1155
 3451WAT     H114524   0.464   0.816   0.866  0.3110 -1.2717  0.3791
 3451WAT     H214525   0.566   0.777   0.784  0.2667  0.4544 -0.5352
 3451WAT    EPW14526   0.534   0.827   0.835 -0.4279  0.3045 -0.8090
 3452WAT      O14527   6.271   6.123   0.468  0.0325 -0.3339  0.6215
 3452WAT     H114528   6.308   6.126   0.546  2.3601  1.4235 -0.4308
 3452WAT     H214529   6.338   6.115   0.413 -0.8269  3.8465 -1.4549
 3452WAT    EPW14530   6.286   6.122   0.471  0.2494  0.5432  0.1594
 3453WAT      O14531   5.011   3.034   1.063 -0.8705 -0.1361  0.3125
 3453WAT     H114532   5.010   3.055   0.978  0.2688  0.8789  0.5273
 3453WAT     H214533   4.932   3.060   1.090 -0.4581  1.5910 -0.0042
 3453WAT    EPW14534   4.999   3.041   1.055 -0.6412  0.2690  0.2975
 3454WAT      O14535   2.624   0.395   4.117 -0.3751  0.5392 -0.0340
 3454WAT     H114536   2.611   0.310   4.106  0.4088  0.1817  1.5022
 3454WAT     H214537   2.693   0.412   4.066  0.3221 -0.0700  0.6690
 3454WAT    EPW14538   2.633   0.385   4.108 -0.1563  0.3964  0.2968
 3455WAT      O14539   2.307   5.907   3.289 -0.2298  0.1649  0.1884
 3455WAT     H114540   2.349   5.838   3.257  1.5124  0.6474  1.2719
 3455WAT     H214541   2.329   5.907   3.373 -0.3469  1.9126  0.2563
 3455WAT    EPW14542   2.316   5.897   3.296  0.0103  0.4944  0.3585
 3456WAT      O14543   2.830   6.168   3.147 -0.8036 -0.8274 -0.2369
 3456WAT     H114544   2.905   6.181   3.190  0.8528 -0.0313 -3.1087
 3456WAT     H214545   2.769   6.200   3.202  0.9692 -0.9235  1.9186
 3456WAT    EPW14546   2.832   6.175   3.161 -0.2970 -0.7240 -0.3427
 3457WAT      O14547   4.060   3.156   6.787  0.0511 -1.0014 -0.1185
 3457WAT     H114548   4.031   3.161   6.869  1.6178 -2.1804  0.5634
 3457WAT     H214549   4.091   3.075   6.781  0.2146 -0.8486 -1.7986
 3457WAT    EPW14550   4.060   3.145   6.798  0.3067 -1.1530 -0.2659
 3458WAT      O14551   0.086   4.814   2.723  0.4817 -0.7345  0.2136
 3458WAT     H114552   0.001   4.808   2.739  0.0981  3.5619  1.1488
 3458WAT     H214553   0.091   4.816   2.636 -0.6135  0.2775  0.1509
 3458WAT    EPW14554   0.074   4.814   2.712  0.2633  0.0496  0.3425
 3459WAT      O14555   1.053   5.640   6.733  0.4740  0.0049  0.8654
 3459WAT     H114556   1.094   5.599   6.798 -0.6690 -1.0762  0.9286
 3459WAT     H214557   1.020   5.575   6.685 -1.0819  0.8127  0.7733
 3459WAT    EPW14558   1.054   5.625   6.735  0.0753 -0.0354  0.8611
 3460WAT      O14559   5.829   4.263   4.764 -0.3648 -0.3078 -0.1024
 3460WAT     H114560   5.742   4.274   4.765 -0.2580  0.6429  0.7261
 3460WAT     H214561   5.854   4.308   4.694 -0.5026 -0.2223 -0.0973
 3460WAT    EPW14562   5.820   4.272   4.754 -0.3694 -0.1547  0.0207
 3461WAT      O14563   0.608   1.644   1.976 -0.0737 -0.7647 -0.4578
 3461WAT     H114564   0.668   1.585   1.953  0.3889 -0.9385  1.0698
 3461WAT     H214565   0.654   1.705   2.018 -1.0063 -1.4871  1.8297
 3461WAT    EPW14566   0.624   1.644   1.979 -0.1432 -0.8971  0.1058
 3462WAT      O14567   1.299   1.824   3.312 -0.4768 -0.1845  0.1253
 3462WAT     H114568   1.368   1.808   3.261 -0.1460  1.4561 -0.0132
 3462WAT     H214569   1.256   1.748   3.313  0.8559 -0.9915 -0.5057
 3462WAT    EPW14570   1.303   1.810   3.305 -0.2311 -0.0614  0.0116
 3463WAT      O14571   0.938   3.882   5.062  0.2966  0.2465  0.0329
 3463WAT     H114572   0.927   3.797   5.078  1.3903 -0.0749 -0.8232
 3463WAT     H214573   0.862   3.917   5.086 -0.0677 -0.9269  0.6748
 3463WAT    EPW14574   0.925   3.875   5.068  0.4044  0.0257  0.0013
 3464WAT      O14575   3.201   0.110   2.266 -0.2498 -0.2892 -0.5047
 3464WAT     H114576   3.258   0.044   2.273  0.0542  0.1576  2.3047
 3464WAT     H214577   3.135   0.085   2.318  0.4167  2.0626  1.6594
 3464WAT    EPW14578   3.199   0.096   2.275 -0.1064  0.1242  0.2300
 3465WAT      O14579   2.997   5.442   6.407  0.7695  0.1437 -0.0129
 3465WAT     H114580   2.911   5.457   6.415  0.6480  0.2889 -1.4466
 3465WAT     H214581   3.029   5.466   6.485 -0.6105 -0.9386  0.9298
 3465WAT    EPW14582   2.989   5.448   6.420  0.5477  0.0053 -0.0854
 3466WAT      O14583   0.948   2.517   2.321  0.0001 -0.6380 -0.5047
 3466WAT     H114584   0.916   2.529   2.241  1.5466  0.1924 -1.0436
 3466WAT     H214585   1.001   2.448   2.312 -1.2331 -1.7272  0.2718
 3466WAT    EPW14586   0.951   2.509   2.308  0.0464 -0.6762 -0.4696
 3467WAT      O14587   3.441   0.794   3.092  0.1295  0.2810  0.1686
 3467WAT     H114588   3.463   0.722   3.136  0.1465 -0.3850 -0.8976
 3467WAT     H214589   3.396   0.841   3.150 -2.0875 -1.7180  0.1852
 3467WAT    EPW14590   3.438   0.791   3.107 -0.1955 -0.1127  0.0135
 3468WAT      O14591   0.179   3.520   7.173 -0.0420  0.3270 -0.0672
 3468WAT     H114592   0.228   3.532   7.102  3.3753 -0.4186  1.9746
 3468WAT     H214593   0.160   3.435   7.170  0.2437  0.2608  0.0085
 3468WAT    EPW14594   0.183   3.509   7.162  0.5050  0.2071  0.2456
 3469WAT      O14595   1.331   3.996   1.440  0.5417 -0.6769 -0.1750
 3469WAT     H114596   1.379   3.925   1.423 -0.3751 -1.3251 -0.1294
 3469WAT     H214597   1.322   4.034   1.362 -0.3462 -1.5175 -0.5020
 3469WAT    EPW14598   1.337   3.991   1.426  0.2751 -0.8969 -0.2166
 3470WAT      O14599   0.577   2.328   3.579  0.1600 -0.2162 -0.2648
 3470WAT     H114600   0.508   2.381   3.572  0.1390 -0.2983 -0.7000
 3470WAT     H214601   0.601   2.338   3.662 -0.4537 -0.2894 -0.0711
 3470WAT    EPW14602   0.570   2.338   3.590  0.0662 -0.2391 -0.3004
 3471WAT      O14603   4.627   1.763   6.647 -0.1373 -0.5992  0.1247
 3471WAT     H114604   4.545   1.762   6.678 -0.3578  0.4009 -0.3738
 3471WAT     H214605   4.662   1.690   6.679 -0.8820 -0.4767  1.2991
 3471WAT    EPW14606   4.620   1.752   6.656 -0.2799 -0.4334  0.2246
 3472WAT      O14607   4.627   1.335   0.988  0.4032 -0.0045 -0.2579
 3472WAT     H114608   4.660   1.377   1.056  0.0633 -0.0665 -0.0525
 3472WAT     H214609   4.560   1.290   1.022  0.9703 -0.9858 -0.4068
 3472WAT    EPW14610   4.622   1.334   1.003  0.4367 -0.1586 -0.2496
 3473WAT      O14611   6.184   4.328   6.735 -0.2226 -0.3113 -0.4955
 3473WAT     H114612   6.206   4.397   6.687 -0.6602 -0.7110 -1.2905
 3473WAT     H214613   6.257   4.309   6.778 -0.7874  2.4024  2.0609
 3473WAT    EPW14614   6.198   4.335   6.734 -0.3707  0.0305 -0.2353
 3474WAT      O14615   7.113   3.503   5.211  0.8385 -0.5844  0.4692
 3474WAT     H114616   7.056   3.444   5.181 -0.3712  1.2881 -1.2994
 3474WAT     H214617   7.066   3.547   5.271  1.2398 -0.5329  0.7471
 3474WAT    EPW14618   7.097   3.501   5.215  0.7191 -0.3002  0.2490
 3475WAT      O14619   5.123   5.112   1.432 -0.5279 -0.4129  0.1527
 3475WAT     H114620   5.137   5.037   1.474 -0.7492 -0.2074  0.5995
 3475WAT     H214621   5.087   5.087   1.357  0.9568 -0.8686 -0.4617
 3475WAT    EPW14622   5.120   5.097   1.427 -0.3413 -0.4499  0.1279
 3476WAT      O14623   7.036   2.004   3.946 -0.6437 -0.1236  0.4297
 3476WAT     H114624   7.044   1.929   3.902  0.3718 -0.1841  0.6908
 3476WAT     H214625   7.030   2.064   3.884  0.0021 -0.2862  0.1996
 3476WAT    EPW14626   7.036   2.002   3.930 -0.3983 -0.1565  0.4343
 3477WAT      O14627   4.050   3.831   6.900 -0.0099  0.1583  0.4115
 3477WAT     H114628   4.048   3.760   6.849 -0.3366 -0.9877  1.9379
 3477WAT     H214629   4.091   3.890   6.851  1.5477 -1.5050 -0.4191
 3477WAT    EPW14630   4.056   3.829   6.886  0.1719 -0.2567  0.5143
 3478WAT      O14631   5.169   2.967   5.363  0.0324 -0.1261 -0.5173
 3478WAT     H114632   5.083   2.953   5.359 -0.0448 -0.7599  1.9020
 3478WAT     H214633   5.179   3.043   5.321 -1.5725 -0.4188 -1.5270
 3478WAT    EPW14634   5.158   2.976   5.356 -0.2161 -0.2630 -0.3091
 3479WAT      O14635   6.458   3.294   2.565 -0.0144  0.6108  0.5147
 3479WAT     H114636   6.538   3.308   2.534  0.7543  0.3978  2.2726
 3479WAT     H214637   6.409   3.353   2.523  1.2979  1.5838  0.2890
 3479WAT    EPW14638   6.462   3.305   2.555  0.2930  0.7231  0.7410
 3480WAT      O14639   5.731   2.660   5.927 -0.2667 -0.3705  0.2427
 3480WAT     H114640   5.651   2.650   5.892 -0.3517  2.8031 -0.7642
 3480WAT     H214641   5.783   2.621   5.869 -0.8659  0.1240 -0.6606
 3480WAT    EPW14642   5.727   2.653   5.913 -0.3678  0.1713 -0.0395
 3481WAT      O14643   5.161   6.683   3.156 -0.2940  0.3697  0.0634
 3481WAT     H114644   5.142   6.722   3.081 -1.4818 -0.8421 -0.3091
 3481WAT     H214645   5.214   6.617   3.132  0.0987  0.5487  0.4179
 3481WAT    EPW14646   5.166   6.679   3.142 -0.4114  0.2171  0.0607
 3482WAT      O14647   6.919   2.547   1.508 -0.4683 -0.0620  0.2754
 3482WAT     H114648   6.934   2.591   1.582  0.4101 -1.9284  1.2794
 3482WAT     H214649   6.850   2.496   1.528 -0.7149 -0.0254 -0.4486
 3482WAT    EPW14650   6.911   2.546   1.522 -0.3750 -0.3323  0.3167
 3483WAT      O14651   1.099   0.207   5.591  0.0505  1.0281  0.4244
 3483WAT     H114652   1.131   0.288   5.602  2.0305  0.3916 -0.2147
 3483WAT     H214653   1.061   0.190   5.668  1.2031  1.8958  1.2200
 3483WAT    EPW14654   1.098   0.217   5.604  0.5133  1.0622  0.4475
 3484WAT      O14655   6.278   1.014   5.789  0.0334 -0.0527  0.5143
 3484WAT     H114656   6.200   0.990   5.758 -0.3493  1.7136 -0.0264
 3484WAT     H214657   6.334   0.972   5.737 -0.4913 -1.7785  1.2516
 3484WAT    EPW14658   6.274   1.004   5.777 -0.1006 -0.0467  0.5433
 3485WAT      O14659   1.521   1.551   3.478  0.0824 -0.1428 -0.0136
 3485WAT     H114660   1.436   1.565   3.491  0.4655  2.9036 -0.2312
 3485WAT     H214661   1.523   1.470   3.444 -2.6413 -0.5399  0.5639
 3485WAT    EPW14662   1.509   1.541   3.475 -0.2634  0.2486  0.0395
 3486WAT      O14663   3.178   5.662   1.837 -0.0709  0.3750  0.4033
 3486WAT     H114664   3.132   5.700   1.901  1.4243  0.4049  1.5200
 3486WAT     H214665   3.203   5.729   1.787  1.2914  0.7719  1.5291
 3486WAT    EPW14666   3.175   5.677   1.839  0.3512  0.4381  0.7346
 3487WAT      O14667   6.332   0.295   5.196  0.3061 -0.2505 -0.0948
 3487WAT     H114668   6.354   0.263   5.274  0.2098 -0.2695 -0.0753
 3487WAT     H214669   6.285   0.231   5.160  1.2173 -0.6522 -0.5815
 3487WAT    EPW14670   6.328   0.281   5.202  0.4264 -0.3127 -0.1638
 3488WAT      O14671   0.869   0.567   1.343 -0.9883 -0.3709 -0.2132
 3488WAT     H114672   0.857   0.527   1.420  0.6009 -1.5061 -0.5025
 3488WAT     H214673   0.876   0.651   1.364 -3.1719 -0.3146  0.5583
 3488WAT    EPW14674   0.868   0.573   1.358 -1.0761 -0.5302 -0.1420
 3489WAT      O14675   5.932   5.873   2.687 -0.3437  0.3041 -0.4166
 3489WAT     H114676   5.935   5.952   2.649 -0.1335  0.0880 -0.8456
 3489WAT     H214677   5.962   5.819   2.626 -0.1351 -0.0642  0.0050
 3489WAT    EPW14678   5.937   5.877   2.673 -0.2818  0.2178 -0.4177
 3490WAT      O14679   1.222   7.021   0.330  0.5809 -0.0675  0.3808
 3490WAT     H114680   1.188   6.947   0.301  2.0085 -0.3054 -0.8239
 3490WAT     H214681   1.244   7.003   0.413  1.2419 -1.1321 -0.0056
 3490WAT    EPW14682   1.220   7.007   0.338  0.8895 -0.2599  0.1458
 3491WAT      O14683   4.434   0.244   3.778  0.1285  0.1401 -0.6534
 3491WAT     H114684   4.490   0.311   3.770 -0.3799  0.7205  0.4436
 3491WAT     H214685   4.374   0.274   3.834  0.6653 -1.7313  1.0472
 3491WAT    EPW14686   4.433   0.258   3.785  0.1327 -0.0506 -0.2401
 3492WAT      O14687   3.847   1.726   2.836 -0.2642  0.6607  0.2896
 3492WAT     H114688   3.765   1.754   2.843 -0.5839 -0.2455  0.2927
 3492WAT     H214689   3.891   1.797   2.812 -0.8429  1.4644  1.4959
 3492WAT    EPW14690   3.842   1.740   2.834 -0.3969  0.6456  0.4683
 3493WAT      O14691   5.619   2.065   7.423 -0.2802 -0.3803 -0.5277
 3493WAT     H114692   5.668   1.997   7.401 -3.2092 -2.6050 -0.8616
 3493WAT     H214693   5.614   2.112   7.350 -0.3051 -1.2665 -1.1073
 3493WAT    EPW14694   5.625   2.062   7.409 -0.7165 -0.8398 -0.6626
 3494WAT      O14695   2.891   3.303   1.846 -0.0540 -0.3517 -0.0600
 3494WAT     H114696   2.938   3.371   1.872 -0.1663 -0.1246 -0.4438
 3494WAT     H214697   2.950   3.239   1.841  0.1348 -0.1739 -0.1250
 3494WAT    EPW14698   2.907   3.303   1.849 -0.0427 -0.2919 -0.1263
 3495WAT      O14699   5.439   0.733   5.428 -0.0881  0.1415 -0.5319
 3495WAT     H114700   5.410   0.815   5.433  0.8127  0.3883  1.9931
 3495WAT     H214701   5.511   0.740   5.380  0.5264  1.0463  0.4757
 3495WAT    EPW14702   5.445   0.747   5.422  0.1357  0.3116 -0.0100
 3496WAT      O14703   3.931   4.464   3.167  0.3678  0.1456  0.2287
 3496WAT     H114704   3.893   4.411   3.109  2.1606  0.4529 -1.3245
 3496WAT     H214705   3.879   4.534   3.169 -0.4940 -0.4724  0.1475
 3496WAT    EPW14706   3.918   4.466   3.159  0.5053  0.0997 -0.0127
 3497WAT      O14707   0.358   7.082   4.022 -0.0760  0.4235  0.2651
 3497WAT     H114708   0.300   7.126   3.975 -0.2272 -0.1059 -0.0397
 3497WAT     H214709   0.433   7.125   4.008  0.0420 -0.1855 -1.0871
 3497WAT    EPW14710   0.361   7.095   4.013 -0.0809  0.2553  0.0203
 3498WAT      O14711   1.459   0.769   6.535 -0.2888 -0.0786  0.0990
 3498WAT     H114712   1.399   0.715   6.502 -0.3475 -0.4117  0.7436
 3498WAT     H214713   1.440   0.771   6.620  0.4487  0.0226  0.2647
 3498WAT    EPW14714   1.447   0.761   6.543 -0.1885 -0.1129  0.2187
 3499WAT      O14715   1.246   4.810   6.066  0.1521 -0.1841 -0.5272
 3499WAT     H114716   1.191   4.756   6.106  0.8531  0.4593  1.4090
 3499WAT     H214717   1.301   4.757   6.025 -0.2575 -0.8976 -0.1680
 3499WAT    EPW14718   1.246   4.794   6.066  0.1952 -0.1945 -0.1881
 3500WAT      O14719   4.461   0.133   4.733  0.2332  0.1915 -0.4211
 3500WAT     H114720   4.539   0.119   4.771  0.7215  0.1334 -1.4257
 3500WAT     H214721   4.416   0.060   4.750 -0.0821  0.7234  1.2622
 3500WAT    EPW14722   4.466   0.120   4.741  0.2588  0.2615 -0.3209
 3501WAT      O14723   6.412   1.901   0.111 -0.2858  0.6286 -0.0753
 3501WAT     H114724   6.378   1.824   0.135 -0.1024  0.3949 -0.5487
 3501WAT     H214725   6.350   1.937   0.061  0.4822 -0.2039 -1.7108
 3501WAT    EPW14726   6.398   1.895   0.107 -0.1452  0.4711 -0.3868
 3502WAT      O14727   5.969   0.712   7.296 -0.6333 -0.2380 -0.5520
 3502WAT     H114728   6.019   0.684   7.230 -0.2957  0.6075 -0.6700
 3502WAT     H214729   6.021   0.705   7.366 -0.9048 -0.8876 -0.4043
 3502WAT    EPW14730   5.984   0.707   7.297 -0.6235 -0.2091 -0.5476
 3503WAT      O14731   6.803   6.042   0.700 -0.0742 -0.2529  0.2335
 3503WAT     H114732   6.812   6.129   0.706 -1.6417  0.3978 -3.8393
 3503WAT     H214733   6.740   6.025   0.759  0.6154  1.2042  1.4788
 3503WAT    EPW14734   6.795   6.053   0.710 -0.2039  0.0585 -0.1842
 3504WAT      O14735   4.963   4.665   2.838 -0.1076  0.2876  0.8556
 3504WAT     H114736   4.883   4.695   2.854 -0.4835 -0.4870  0.4274
 3504WAT     H214737   4.982   4.616   2.908  0.1188  0.7087  1.0955
 3504WAT    EPW14738   4.954   4.663   2.851 -0.1297  0.2354  0.8278
 3505WAT      O14739   1.092   6.526   6.566  0.2924 -0.1460 -0.1942
 3505WAT     H114740   1.139   6.579   6.617  0.3675  0.9804 -1.3827
 3505WAT     H214741   1.151   6.488   6.515  0.2310 -1.3707  0.6131
 3505WAT    EPW14742   1.107   6.528   6.566  0.2944 -0.1605 -0.2505
 3506WAT      O14743   2.024   7.053   4.798 -0.4310  0.2771 -0.2175
 3506WAT     H114744   2.085   7.017   4.850 -1.1175  0.6990  0.9149
 3506WAT     H214745   2.071   7.097   4.739  0.3713  0.5546  0.6041
 3506WAT    EPW14746   2.040   7.054   4.797 -0.4139  0.3804  0.0711
 3507WAT      O14747   1.617   0.535   4.528  0.0974  0.1170  0.2649
 3507WAT     H114748   1.584   0.455   4.540  1.7745 -0.4905  1.0096
 3507WAT     H214749   1.656   0.529   4.450 -1.2708  0.7678 -0.5073
 3507WAT    EPW14750   1.618   0.522   4.518  0.1430  0.1234  0.2608
 3508WAT      O14751   3.508   0.066   1.709 -0.3038 -0.9374  0.9075
 3508WAT     H114752   3.450   0.091   1.649 -1.5384  0.3474  2.5521
 3508WAT     H214753   3.584   0.090   1.675 -0.5608 -3.0740 -1.5197
 3508WAT    EPW14754   3.511   0.073   1.695 -0.5242 -1.0632  0.7919
 3509WAT      O14755   4.264   4.835   4.070  0.6278  0.0672 -0.3061
 3509WAT     H114756   4.216   4.897   4.109  1.2906  2.3349 -2.7217
 3509WAT     H214757   4.212   4.808   4.005  0.5141 -1.7086  0.4669
 3509WAT    EPW14758   4.249   4.840   4.066  0.7089  0.1399 -0.5487
 3510WAT      O14759   4.491   1.079   3.431  0.6457 -0.1710 -0.1751
 3510WAT     H114760   4.556   1.135   3.416  1.2372  0.0323  2.5492
 3510WAT     H214761   4.419   1.128   3.418  1.1154  0.4865 -0.3392
 3510WAT    EPW14762   4.490   1.095   3.427  0.8024 -0.0438  0.2031
 3511WAT      O14763   3.236   4.976   0.064  0.4211  0.5494  0.0460
 3511WAT     H114764   3.312   5.018   0.051  0.9828  0.1000  1.5620
 3511WAT     H214765   3.251   4.897   0.031 -0.2304  1.1167 -1.7417
 3511WAT    EPW14766   3.250   4.971   0.057  0.4078  0.5668  0.0058
 3512WAT      O14767   3.197   5.605   2.721  0.3999 -0.1423 -0.1110
 3512WAT     H114768   3.279   5.616   2.692  0.5499 -1.0898 -0.0806
 3512WAT     H214769   3.200   5.527   2.761 -0.0446  0.6469  1.5562
 3512WAT    EPW14770   3.210   5.595   2.723  0.3564 -0.1657  0.1398
 3513WAT      O14771   3.342   0.307   2.386  0.3330  0.6145  0.1669
 3513WAT     H114772   3.298   0.250   2.336  0.6320  0.2602  0.3066
 3513WAT     H214773   3.347   0.267   2.463 -2.1573  2.0729  1.2457
 3513WAT    EPW14774   3.336   0.293   2.390  0.0093  0.7776  0.3469
 3514WAT      O14775   5.209   5.258   5.460 -0.0822  0.4882  0.4193
 3514WAT     H114776   5.155   5.322   5.434  0.5216  0.9911  0.3604
 3514WAT     H214777   5.271   5.300   5.505 -1.2997 -0.4124  3.0995
 3514WAT    EPW14778   5.210   5.274   5.463 -0.1729  0.4295  0.8065
 3515WAT      O14779   3.075   6.447   0.508  0.1898  0.0188 -0.5035
 3515WAT     H114780   3.017   6.454   0.443  0.4058 -0.6481 -0.7765
 3515WAT     H214781   3.111   6.526   0.512 -0.1608  0.2012 -0.8798
 3515WAT    EPW14782   3.072   6.459   0.499  0.1699 -0.0528 -0.5994
 3516WAT      O14783   4.032   4.194   6.583  0.6684  0.2793 -0.3936
 3516WAT     H114784   4.080   4.264   6.603  2.1947 -0.4029 -1.4463
 3516WAT     H214785   4.043   4.186   6.496 -0.8324 -0.2978 -0.5539
 3516WAT    EPW14786   4.041   4.203   6.573  0.6722  0.0932 -0.5728
 3517WAT      O14787   1.869   5.578   6.472  0.8039  0.2526  0.0074
 3517WAT     H114788   1.887   5.624   6.400 -0.8525 -0.5205 -0.9739
 3517WAT     H214789   1.798   5.619   6.505  0.8203 -0.1270  0.5263
 3517WAT    EPW14790   1.861   5.591   6.466  0.5616  0.0824 -0.0609
 3518WAT      O14791   6.727   5.768   6.696  0.0201 -0.2264 -0.0820
 3518WAT     H114792   6.656   5.806   6.664  0.5787  0.0421 -1.0749
 3518WAT     H214793   6.706   5.683   6.700 -0.3715 -0.1393 -0.3116
 3518WAT    EPW14794   6.714   5.761   6.692  0.0448 -0.1739 -0.2626
 3519WAT      O14795   4.558   3.387   5.709  0.1650 -0.0486  0.2026
 3519WAT     H114796   4.503   3.322   5.695 -0.3841  0.1792  1.2227
 3519WAT     H214797   4.516   3.457   5.677  0.3663 -0.0392 -0.0552
 3519WAT    EPW14798   4.544   3.388   5.702  0.1136 -0.0136  0.3152
 3520WAT      O14799   6.070   0.138   5.442  0.2374  0.3528  0.1105
 3520WAT     H114800   6.127   0.174   5.497  1.1754  1.0721 -1.2740
 3520WAT     H214801   6.110   0.066   5.414  0.5858  0.9692 -1.0232
 3520WAT    EPW14802   6.084   0.133   5.446  0.4275  0.5501 -0.2615
 3521WAT      O14803   4.727   1.810   4.338  0.7905  0.4492  0.3899
 3521WAT     H114804   4.705   1.800   4.254 -1.6283 -0.7242  1.0924
 3521WAT     H214805   4.733   1.897   4.347 -2.9238  0.9088 -0.1527
 3521WAT    EPW14806   4.725   1.822   4.327 -0.1155  0.3438  0.4135
 3522WAT      O14807   6.355   6.131   3.633 -1.1628 -0.2906 -0.0669
 3522WAT     H114808   6.432   6.102   3.664 -2.0844 -1.2732  1.4547
 3522WAT     H214809   6.376   6.205   3.592  0.5395 -0.2920  0.7072
 3522WAT    EPW14810   6.369   6.138   3.632 -1.0475 -0.4359  0.2722
 3523WAT      O14811   5.550   4.612   6.419  0.0530 -0.5607  0.2982
 3523WAT     H114812   5.527   4.668   6.482  2.9742  0.6893  0.3991
 3523WAT     H214813   5.630   4.586   6.442  0.4460 -1.5776 -1.9310
 3523WAT    EPW14814   5.558   4.616   6.431  0.5426 -0.5262 -0.0162
 3524WAT      O14815   0.852   3.616   1.751 -0.0136 -0.3545 -0.5299
 3524WAT     H114816   0.879   3.688   1.709 -0.0727  0.6449  1.0398
 3524WAT     H214817   0.774   3.639   1.782  0.2908 -0.8176  0.6233
 3524WAT    EPW14818   0.844   3.630   1.750  0.0227 -0.2753 -0.1276
 3525WAT      O14819   4.609   3.980   7.142  0.1999  0.1727  0.8166
 3525WAT     H114820   4.565   4.011   7.211 -0.1558 -0.2868  0.8036
 3525WAT     H214821   4.646   4.050   7.107 -2.7890  1.0610 -0.8525
 3525WAT    EPW14822   4.608   3.995   7.147 -0.2941  0.2361  0.5682
 3526WAT      O14823   4.558   3.210   5.395 -0.1423  0.1624 -0.1429
 3526WAT     H114824   4.585   3.248   5.468  0.7200  1.2498 -0.9990
 3526WAT     H214825   4.519   3.275   5.351 -1.0139 -0.5703 -0.4886
 3526WAT    EPW14826   4.556   3.225   5.399 -0.1437  0.2148 -0.3204
 3527WAT      O14827   5.475   0.663   2.314  0.3941 -0.5242 -0.5262
 3527WAT     H114828   5.447   0.599   2.262  0.9525 -1.2273  0.0281
 3527WAT     H214829   5.546   0.692   2.273 -0.0138 -0.0427 -0.9232
 3527WAT    EPW14830   5.481   0.658   2.300  0.4163 -0.5569 -0.5030
 3528WAT      O14831   0.028   2.190   6.054  0.5439  0.3072  0.6307
 3528WAT     H114832  -0.055   2.170   6.071 -0.6368  1.9139 -2.3931
 3528WAT     H214833   0.073   2.145   6.114 -2.4479 -0.9045  2.1810
 3528WAT    EPW14834   0.022   2.180   6.065 -0.0725  0.3655  0.4130
 3529WAT      O14835   1.183   2.774   5.588  0.2501  0.3731  0.1346
 3529WAT     H114836   1.200   2.709   5.643  0.1401 -0.0437 -0.3136
 3529WAT     H214837   1.254   2.823   5.592  0.5744 -0.0802  0.0618
 3529WAT    EPW14838   1.196   2.771   5.596  0.2818  0.2445  0.0576
 3530WAT      O14839   2.364   6.317   5.675  0.2736 -0.1562  0.0682
 3530WAT     H114840   2.285   6.322   5.639  0.4707 -1.3858 -0.5811
 3530WAT     H214841   2.390   6.401   5.679 -0.7130  0.1927 -0.4665
 3530WAT    EPW14842   2.356   6.330   5.671  0.1570 -0.2863 -0.1067
 3531WAT      O14843   5.616   2.023   6.557  0.5845  0.2339  0.5426
 3531WAT     H114844   5.629   2.095   6.510 -0.8330  0.2818  0.1670
 3531WAT     H214845   5.583   1.967   6.499 -1.2412  0.3033  1.4492
 3531WAT    EPW14846   5.613   2.025   6.542  0.1054  0.2512  0.6210
 3532WAT      O14847   0.287   1.852   1.851  0.7964 -0.4998 -0.0444
 3532WAT     H114848   0.282   1.780   1.900 -0.2792  0.8350  1.9959
 3532WAT     H214849   0.293   1.916   1.911  0.1550  1.2005 -1.7059
 3532WAT    EPW14850   0.287   1.851   1.867  0.5427 -0.0515  0.0116
 3533WAT      O14851   0.627   3.459   0.060 -0.3629 -0.0656  0.3582
 3533WAT     H114852   0.649   3.375   0.055 -0.6734 -0.0770 -1.2098
 3533WAT     H214853   0.634   3.487  -0.022  0.0096  1.5223  0.8966
 3533WAT    EPW14854   0.631   3.451   0.047 -0.3537  0.1673  0.2061
 3534WAT      O14855   3.559   6.981   1.404  0.0898  0.4697  0.1910
 3534WAT     H114856   3.601   6.912   1.373 -1.1330 -0.6530  0.9079
 3534WAT     H214857   3.618   7.045   1.400  1.0316 -0.4416 -1.1519
 3534WAT    EPW14858   3.574   6.980   1.399  0.0483  0.1693  0.0986
 3535WAT      O14859   5.988   4.546   7.012 -0.2376  0.5086 -0.1167
 3535WAT     H114860   6.062   4.543   7.058  0.5099  0.0436 -1.3087
 3535WAT     H214861   5.930   4.579   7.069  0.8163  0.6570  0.9110
 3535WAT    EPW14862   5.991   4.551   7.027  0.0285  0.4619 -0.1410
 3536WAT      O14863   0.946   2.447   0.190  0.0839  0.8594  0.0206
 3536WAT     H114864   1.013   2.455   0.135  1.1567  0.2114  1.1645
 3536WAT     H214865   0.878   2.474   0.144  0.8108 -0.3140 -1.8631
 3536WAT    EPW14866   0.946   2.452   0.175  0.3498  0.5904 -0.0887
 3537WAT      O14867   0.582   4.302   5.728  0.1569 -0.1421 -0.4524
 3537WAT     H114868   0.502   4.302   5.761  0.7377 -0.2979  1.0664
 3537WAT     H214869   0.620   4.234   5.767  1.0627  0.0205 -1.0235
 3537WAT    EPW14870   0.576   4.292   5.739  0.3765 -0.1411 -0.3124
 3538WAT      O14871   0.855   6.394   4.576 -0.0768  0.0511 -0.0785
 3538WAT     H114872   0.815   6.329   4.618 -1.1250  1.6651  1.6255
 3538WAT     H214873   0.938   6.368   4.570 -0.0227 -0.6000  2.4611
 3538WAT    EPW14874   0.861   6.381   4.582 -0.2237  0.1933  0.5484
 3539WAT      O14875   6.098   0.707   3.984 -0.1628  0.1659  0.2480
 3539WAT     H114876   6.141   0.719   4.059 -0.4778  0.4353  0.3895
 3539WAT     H214877   6.110   0.622   3.966 -0.2374  0.0576  0.6977
 3539WAT    EPW14878   6.106   0.696   3.993 -0.2204  0.1897  0.3353
 3540WAT      O14879   4.822   6.105   1.697 -0.4135  0.1521  0.0284
 3540WAT     H114880   4.821   6.071   1.777 -2.6959 -1.0624 -0.4475
 3540WAT     H214881   4.830   6.035   1.645  0.0557  0.8360 -0.8531
 3540WAT    EPW14882   4.823   6.090   1.701 -0.6814  0.0737 -0.1721
 3541WAT      O14883   5.409   0.468   0.843  0.1710  0.1206  0.1103
 3541WAT     H114884   5.398   0.386   0.869  1.0057 -0.2582 -0.6793
 3541WAT     H214885   5.438   0.508   0.915  0.5739 -0.4720  0.2901
 3541WAT    EPW14886   5.412   0.462   0.857  0.3538 -0.0229  0.0202
 3542WAT      O14887   5.087   6.190   1.969  0.1068  0.1693  0.5324
 3542WAT     H114888   5.111   6.239   2.038  0.0393 -0.7361  1.2097
 3542WAT     H214889   5.047   6.248   1.917 -0.7297  0.6883  1.7007
 3542WAT    EPW14890   5.085   6.206   1.972 -0.0267  0.1122  0.8050
 3543WAT      O14891   4.076   5.704   1.581  0.9148  0.0457  0.4201
 3543WAT     H114892   4.011   5.701   1.638 -1.3757  1.0180 -1.9145
 3543WAT     H214893   4.089   5.790   1.569  0.8281 -0.1036 -0.9611
 3543WAT    EPW14894   4.068   5.716   1.588  0.5636  0.1673 -0.1288
 3544WAT      O14895   5.932   0.883   5.043  0.8853 -0.2823 -0.0234
 3544WAT     H114896   5.876   0.920   4.986  3.3619  0.0037 -2.4921
 3544WAT     H214897   5.901   0.802   5.053  0.0539 -0.1628 -1.3651
 3544WAT    EPW14898   5.919   0.877   5.036  1.1283 -0.2224 -0.5863
 3545WAT      O14899   4.516   0.997   3.693 -0.1208 -0.1539  0.3451
 3545WAT     H114900   4.560   1.057   3.738 -0.8598  1.4413 -0.9514
 3545WAT     H214901   4.508   1.033   3.613 -1.9505 -1.2718 -0.0415
 3545WAT    EPW14902   4.521   1.011   3.688 -0.5002 -0.0834  0.0964
 3546WAT      O14903   6.361   0.169   6.999  0.3461  0.4831 -0.5938
 3546WAT     H114904   6.312   0.242   6.998  0.4847  0.5810 -0.1194
 3546WAT     H214905   6.407   0.176   7.072  0.3430 -0.1008 -0.5366
 3546WAT    EPW14906   6.360   0.181   7.009  0.3661  0.4113 -0.5153
 3547WAT      O14907   1.363   4.516   7.029  0.1382 -0.7019 -0.3235
 3547WAT     H114908   1.351   4.449   7.083  0.3326 -0.9777 -0.6204
 3547WAT     H214909   1.302   4.573   7.054  1.0840 -0.2570  1.0706
 3547WAT    EPW14910   1.352   4.515   7.041  0.3066 -0.6769 -0.1614
 3548WAT      O14911   3.759   4.458   0.489  0.0144  0.3564 -0.8515
 3548WAT     H114912   3.692   4.514   0.483 -0.2216 -0.0750 -3.0735
 3548WAT     H214913   3.791   4.473   0.568 -1.5652  1.8853 -0.4352
 3548WAT    EPW14914   3.754   4.468   0.500 -0.2538  0.5186 -1.1182
 3549WAT      O14915   6.360   1.733   7.023 -0.0371  0.2569 -0.0228
 3549WAT     H114916   6.277   1.708   7.030 -0.9987  3.1689  0.3110
 3549WAT     H214917   6.396   1.708   7.098 -1.0270  0.3122  0.4783
 3549WAT    EPW14918   6.353   1.725   7.035 -0.3254  0.6952  0.1005
 3550WAT      O14919   4.918   6.900   6.049  0.3914 -0.0320 -0.7860
 3550WAT     H114920   4.870   6.925   6.117  0.5491  0.1064 -0.7249
 3550WAT     H214921   4.935   6.974   6.007  1.0337 -0.0003 -0.4888
 3550WAT    EPW14922   4.913   6.915   6.053  0.5096 -0.0068 -0.7331
 3551WAT      O14923   2.868   6.525   2.842 -0.5424  0.0495  0.3038
 3551WAT     H114924   2.893   6.511   2.924 -0.2843 -0.9595  0.0709
 3551WAT     H214925   2.792   6.566   2.850 -0.9054 -0.7487  1.0589
 3551WAT    EPW14926   2.861   6.529   2.855 -0.5579 -0.2174  0.3809
 3552WAT      O14927   5.344   4.233   2.508 -0.3569  0.4374  0.4772
 3552WAT     H114928   5.405   4.273   2.557 -0.2026 -0.6933  1.2469
 3552WAT     H214929   5.340   4.153   2.543 -0.0472 -0.5108 -1.5520
 3552WAT    EPW14930   5.353   4.227   2.521 -0.2884  0.1303  0.2911
 3553WAT      O14931   0.008   4.874   1.732  0.5735 -0.2615  0.5536
 3553WAT     H114932   0.073   4.909   1.684 -1.1660  0.7348 -1.2482
 3553WAT     H214933   0.003   4.792   1.702  0.6196 -0.1688  0.2903
 3553WAT    EPW14934   0.017   4.867   1.720  0.3233 -0.1006  0.2486
 3554WAT      O14935   3.714   5.061   2.030 -0.1776 -0.2821 -0.5442
 3554WAT     H114936   3.675   5.106   1.967 -1.7030 -0.5329  0.1596
 3554WAT     H214937   3.664   4.990   2.039 -1.7175  0.9794  2.7164
 3554WAT    EPW14938   3.701   5.057   2.022 -0.6304 -0.1328  0.0414
 3555WAT      O14939   6.089   1.145   3.522 -0.4510  0.4498 -0.1384
 3555WAT     H114940   6.151   1.122   3.465 -0.5792 -1.8083  0.5402
 3555WAT     H214941   6.133   1.162   3.595 -0.4241  1.8486 -0.4431
 3555WAT    EPW14942   6.105   1.145   3.524 -0.4660  0.3228 -0.0832
 3556WAT      O14943   2.999   1.593   2.783 -0.1503 -0.1972  0.3112
 3556WAT     H114944   3.005   1.631   2.705  0.8716  0.2882  0.6108
 3556WAT     H214945   2.957   1.518   2.767  0.4432 -0.3089 -0.7747
 3556WAT    EPW14946   2.994   1.588   2.769  0.0883 -0.1420  0.1951
 3557WAT      O14947   1.093   2.286   2.800 -0.3368 -0.0290  0.0995
 3557WAT     H114948   1.108   2.224   2.859 -0.8487  0.9202  1.2746
 3557WAT     H214949   1.085   2.242   2.725  0.5652 -1.2501  0.6742
 3557WAT    EPW14950   1.094   2.270   2.797 -0.2792 -0.0692  0.3580
 3558WAT      O14951   6.407   7.042   0.610 -0.0433 -0.7040  0.4437
 3558WAT     H114952   6.411   6.964   0.648  0.1574 -0.6314  0.5797
 3558WAT     H214953   6.487   7.075   0.624  0.2907 -0.9897 -0.7232
 3558WAT    EPW14954   6.420   7.036   0.618  0.0357 -0.7354  0.2914
 3559WAT      O14955   2.093   4.292   0.071 -0.3245 -0.1424 -0.2781
 3559WAT     H114956   2.016   4.326   0.050  0.4045  0.1876 -2.7641
 3559WAT     H214957   2.102   4.224   0.016 -0.3902 -2.5821  2.4515
 3559WAT    EPW14958   2.083   4.287   0.060 -0.2265 -0.4541 -0.2421
 3560WAT      O14959   0.224   6.141   0.329 -0.1025  0.3916  0.6412
 3560WAT     H114960   0.171   6.078   0.301 -0.5166  0.9485  0.1549
 3560WAT     H214961   0.272   6.161   0.259 -2.0418  2.7088 -0.1390
 3560WAT    EPW14962   0.223   6.135   0.314 -0.4501  0.8161  0.4541
 3561WAT      O14963   7.126   4.221   6.456  0.2804  0.3521  0.4806
 3561WAT     H114964   7.062   4.179   6.414  0.2619  1.1170 -0.2887
 3561WAT     H214965   7.193   4.165   6.453  0.4513  0.5793 -1.0863
 3561WAT    EPW14966   7.126   4.207   6.449  0.3029  0.4987  0.1355
 3562WAT      O14967   3.263   6.265   0.460 -0.2034 -0.0864  1.0872
 3562WAT     H114968   3.206   6.199   0.462  0.2604 -0.5447  0.1158
 3562WAT     H214969   3.213   6.336   0.470 -1.2962 -0.3105 -1.7883
 3562WAT    EPW14970   3.247   6.265   0.462 -0.2963 -0.1872  0.5190
 3563WAT      O14971   3.431   1.501   1.800 -0.2123 -0.6722  0.5462
 3563WAT     H114972   3.512   1.491   1.830  0.2514 -0.7351 -0.6948
 3563WAT     H214973   3.422   1.435   1.744 -1.0297 -0.5163  0.4842
 3563WAT    EPW14974   3.441   1.490   1.796 -0.2646 -0.6584  0.3537
 3564WAT      O14975   5.373   5.341   6.576  0.3685 -0.0647 -0.2759
 3564WAT     H114976   5.323   5.373   6.513 -2.0382 -1.3356  0.8643
 3564WAT     H214977   5.388   5.410   6.628 -0.1740  0.3430 -0.6575
 3564WAT    EPW14978   5.368   5.356   6.574 -0.0671 -0.1922 -0.1639
 3565WAT      O14979   7.231   5.689   4.281 -0.9602  0.1544 -0.5283
 3565WAT     H114980   7.158   5.671   4.327  0.0210  1.0933  1.5050
 3565WAT     H214981   7.220   5.772   4.258 -1.3135 -0.2296 -1.8430
 3565WAT    EPW14982   7.218   5.699   4.284 -0.8675  0.2364 -0.4221
 3566WAT      O14983   4.806   4.968   5.898 -0.5416  0.1666  0.5463
 3566WAT     H114984   4.811   4.961   5.811 -0.0498  0.8646  0.5132
 3566WAT     H214985   4.753   4.902   5.920 -0.0787 -0.4795 -0.2113
 3566WAT    EPW14986   4.799   4.957   5.888 -0.4006  0.1743  0.4295
 3567WAT      O14987   0.135   2.004   3.960  0.2887  0.2490 -0.4189
 3567WAT     H114988   0.080   2.055   4.005 -1.6483 -1.7280 -0.4126
 3567WAT     H214989   0.146   1.934   4.012  0.8445 -0.4926 -1.5010
 3567WAT    EPW14990   0.128   2.001   3.975  0.0847 -0.1526 -0.5778
 3568WAT      O14991   1.198   6.883   7.304 -0.5833  0.4339 -0.4811
 3568WAT     H114992   1.264   6.876   7.361 -0.4652  2.1393 -0.3503
 3568WAT     H214993   1.223   6.832   7.238 -1.0045 -2.0891  1.1770
 3568WAT    EPW14994   1.212   6.875   7.303 -0.6281  0.3132 -0.2168
 3569WAT      O14995   0.240   2.515   5.507  0.2513 -0.5302  0.2522
 3569WAT     H114996   0.299   2.454   5.526 -0.2713 -1.7059 -1.6190
 3569WAT     H214997   0.289   2.584   5.483  0.8390 -0.3820  1.7542
 3569WAT    EPW14998   0.256   2.517   5.506  0.2609 -0.6820  0.1976
 3570WAT      O14999   5.358   5.963   2.513  0.4910 -0.3850  0.7430
 3570WAT     H115000   5.342   5.949   2.428  0.7751  0.3913  0.5585
 3570WAT     H215001   5.290   5.925   2.553  0.2569 -0.5871  0.1626
 3570WAT    EPW15002   5.345   5.955   2.506  0.4984 -0.3002  0.6300
 3571WAT      O15003   6.138   4.780   6.230 -0.6473  0.2848 -0.4970
 3571WAT     H115004   6.173   4.703   6.210 -1.3771  0.0980 -1.0958
 3571WAT     H215005   6.060   4.778   6.192 -0.8589  1.1430 -0.1400
 3571WAT    EPW15006   6.132   4.768   6.221 -0.7864  0.3840 -0.5327
 3572WAT      O15007   3.098   4.570   0.194 -0.5179  0.1391  0.3887
 3572WAT     H115008   3.151   4.609   0.136 -1.6266  1.7216  0.3924
 3572WAT     H215009   3.062   4.637   0.237  0.9308 -0.9332  3.6240
 3572WAT    EPW15010   3.101   4.586   0.192 -0.4677  0.2145  0.8672
 3573WAT      O15011   1.437   4.210   0.786  0.4648  0.1439 -0.0680
 3573WAT     H115012   1.366   4.193   0.834 -0.1552 -1.4096 -1.4231
 3573WAT     H215013   1.413   4.281   0.740  0.3348  0.4678  0.4873
 3573WAT    EPW15014   1.423   4.218   0.786  0.3540 -0.0377 -0.1861
 3574WAT      O15015   2.189   7.101   7.339 -0.2030  0.2450 -0.6672
 3574WAT     H115016   2.214   7.169   7.291 -1.8547  0.4593 -1.3129
 3574WAT     H215017   2.103   7.115   7.350 -0.4090 -1.3020 -0.1032
 3574WAT    EPW15018   2.180   7.113   7.334 -0.4774  0.0482 -0.6793
 3575WAT      O15019   6.692   2.560   4.029 -0.0251  0.0938 -0.0512
 3575WAT     H115020   6.644   2.511   4.083  0.3686 -0.4472 -0.1868
 3575WAT     H215021   6.636   2.583   3.967 -0.1126 -0.5301 -0.2054
 3575WAT    EPW15022   6.677   2.556   4.028  0.0201 -0.0783 -0.0940
 3576WAT      O15023   6.640   4.557   3.623 -0.3548 -0.1084 -0.6189
 3576WAT     H115024   6.626   4.634   3.584 -0.8103  0.2285  0.1912
 3576WAT     H215025   6.570   4.510   3.602 -1.8867  0.9259  1.8317
 3576WAT    EPW15026   6.628   4.561   3.614 -0.6484  0.0941 -0.1372
 3577WAT      O15027   0.222   0.454   4.268  0.2796 -0.4718  0.1562
 3577WAT     H115028   0.292   0.423   4.310  0.1769  0.5228  1.1341
 3577WAT     H215029   0.221   0.410   4.193  1.4882 -1.0742  0.4698
 3577WAT    EPW15030   0.232   0.443   4.263  0.4429 -0.4138  0.3470
 3578WAT      O15031   1.862   6.738   3.965 -0.0023 -0.0503  0.3545
 3578WAT     H115032   1.854   6.730   4.051 -1.0387  0.3078  0.3030
 3578WAT     H215033   1.852   6.824   3.952  1.8831  0.1713  0.0265
 3578WAT    EPW15034   1.859   6.750   3.976  0.1231  0.0353  0.2984
 3579WAT      O15035   1.711   0.381   1.750  0.0667  0.5658 -0.3367
 3579WAT     H115036   1.797   0.386   1.763 -0.1310 -0.6219  2.1693
 3579WAT     H215037   1.680   0.455   1.784  0.0203  0.4393 -0.1006
 3579WAT    EPW15038   1.719   0.392   1.757  0.0306  0.3717  0.0683
 3580WAT      O15039   2.314   1.081   7.413  0.1423  0.4273 -0.8862
 3580WAT     H115040   2.369   1.023   7.378 -0.9475  0.0064 -1.9763
 3580WAT     H215041   2.253   1.031   7.452 -0.5540  0.8376 -1.4291
 3580WAT    EPW15042   2.313   1.065   7.414 -0.1216  0.4257 -1.1274
 3581WAT      O15043   6.502   1.118   5.327  0.0110 -0.3765  0.0304
 3581WAT     H115044   6.511   1.186   5.381  1.0405 -1.1685  0.9045
 3581WAT     H215045   6.449   1.148   5.265 -1.0714  0.6360  1.3751
 3581WAT    EPW15046   6.496   1.133   5.326  0.0032 -0.3439  0.3581
 3582WAT      O15047   6.731   3.028   6.029 -0.3007  0.0290 -0.2839
 3582WAT     H115048   6.749   2.966   6.088  1.4224 -0.0522 -0.8494
 3582WAT     H215049   6.686   2.985   5.968 -0.9917 -0.1637  0.3405
 3582WAT    EPW15050   6.727   3.012   6.029 -0.1482 -0.0115 -0.2752
 3583WAT      O15051   2.935   0.009   5.464  0.2506  0.1034  0.4342
 3583WAT     H115052   2.910  -0.062   5.509  0.6451 -0.2345  0.1313
 3583WAT     H215053   2.862   0.056   5.457  0.1572  0.0992  1.3199
 3583WAT    EPW15054   2.921   0.005   5.470  0.2951  0.0529  0.5203
 3584WAT      O15055   4.971   0.320   7.258 -0.4323 -0.0516  0.3685
 3584WAT     H115056   4.986   0.290   7.339  1.9589 -0.2534 -0.1016
 3584WAT     H215057   4.928   0.253   7.220 -1.5160  0.0151  1.3937
 3584WAT    EPW15058   4.967   0.305   7.264 -0.2391 -0.0716  0.4505
 3585WAT      O15059   0.292   4.303   5.064  0.3939 -0.0699  0.0340
 3585WAT     H115060   0.258   4.271   5.137  0.8560  0.0821  0.3188
 3585WAT     H215061   0.279   4.389   5.072  1.2884  0.0460  0.3854
 3585WAT    EPW15062   0.285   4.311   5.076  0.5943 -0.0303  0.1280
 3586WAT      O15063   3.347   1.168   4.775 -0.5515  0.1107  0.1371
 3586WAT     H115064   3.402   1.187   4.710  0.0190 -1.8290 -0.0312
 3586WAT     H215065   3.387   1.198   4.846 -0.1100  0.2855 -0.1818
 3586WAT    EPW15066   3.361   1.175   4.776 -0.4020 -0.1500  0.0651
 3587WAT      O15067   6.671   4.347   2.300  0.3397 -0.0187 -0.0774
 3587WAT     H115068   6.601   4.388   2.270  0.0792  0.1077  0.6823
 3587WAT     H215069   6.692   4.292   2.236 -0.6053 -0.2459 -0.2011
 3587WAT    EPW15070   6.664   4.345   2.287  0.1616 -0.0336  0.0166
 3588WAT      O15071   0.335   1.364   1.850 -0.5178 -0.4334  0.4871
 3588WAT     H115072   0.291   1.292   1.826 -0.6835 -0.5698  1.1878
 3588WAT     H215073   0.375   1.388   1.777 -2.5265  0.2633 -0.4624
 3588WAT    EPW15074   0.334   1.357   1.836 -0.8390 -0.3507  0.4503
 3589WAT      O15075   5.856   0.562   0.871  0.8147  0.2197 -0.5103
 3589WAT     H115076   5.814   0.637   0.856  2.8541  1.4549 -0.4106
 3589WAT     H215077   5.812   0.504   0.824  0.4606  1.9019 -2.3831
 3589WAT    EPW15078   5.844   0.565   0.862  1.0637  0.6507 -0.7722
 3590WAT      O15079   1.148   4.669   2.579  0.3107 -0.0308 -0.2129
 3590WAT     H115080   1.074   4.669   2.626  1.3362 -2.3383  1.6260
 3590WAT     H215081   1.157   4.752   2.555 -1.7459  0.7367  1.3642
 3590WAT    EPW15082   1.138   4.681   2.583  0.1584 -0.2583  0.2917
 3591WAT      O15083   4.296   4.339   7.285 -0.0387 -0.1432  0.0429
 3591WAT     H115084   4.211   4.319   7.284 -0.3651  1.0099  1.2658
 3591WAT     H215085   4.299   4.412   7.334  1.6992 -0.3569  0.3148
 3591WAT    EPW15086   4.284   4.347   7.292  0.1698 -0.0044  0.2637
 3592WAT      O15087   1.514   1.207   5.150 -0.2979 -0.1960  0.7702
 3592WAT     H115088   1.549   1.282   5.122 -0.5344  0.0490  1.1270
 3592WAT     H215089   1.447   1.232   5.200 -0.4094 -0.6471  0.8592
 3592WAT    EPW15090   1.509   1.222   5.153 -0.3493 -0.2265  0.8360
 3593WAT      O15091   6.243   3.555   2.823  0.0062  0.3465  0.4432
 3593WAT     H115092   6.170   3.603   2.816  0.5594  0.9181 -2.8648
 3593WAT     H215093   6.223   3.481   2.782  1.0408  0.2052  0.1682
 3593WAT    EPW15094   6.229   3.551   2.816  0.2407  0.4101 -0.0861
 3594WAT      O15095   2.230   2.298   2.052  0.1068 -0.1783  0.2725
 3594WAT     H115096   2.170   2.274   2.110  0.8813 -0.4153  0.9861
 3594WAT     H215097   2.285   2.231   2.050  1.4991  0.8904  1.1912
 3594WAT    EPW15098   2.229   2.285   2.060  0.4269 -0.0554  0.5136
 3595WAT      O15099   3.286   3.756   6.996 -0.1695 -0.2241  0.1956
 3595WAT     H115100   3.260   3.753   6.912  1.1896  1.5223 -0.3577
 3595WAT     H215101   3.339   3.687   7.003  0.3188  0.0490 -0.6360
 3595WAT    EPW15102   3.290   3.745   6.984  0.1034  0.0742 -0.0090
 3596WAT      O15103   7.060   0.990   6.336  0.5432  0.4764 -0.2875
 3596WAT     H115104   7.094   0.961   6.261  0.0001  1.6166 -1.0041
 3596WAT     H215105   7.089   0.933   6.395  1.5779 -0.0425 -1.2550
 3596WAT    EPW15106   7.069   0.978   6.334  0.6158  0.5682 -0.5363
 3597WAT      O15107   0.826   4.743   6.302 -0.5122 -0.0571 -0.2310
 3597WAT     H115108   0.745   4.776   6.306 -0.5453 -0.2134  0.8910
 3597WAT     H215109   0.873   4.801   6.347 -0.6332 -1.6457  2.1262
 3597WAT    EPW15110   0.821   4.757   6.309 -0.5350 -0.3149  0.2829
 3598WAT      O15111   1.158   3.165   1.997  0.4527  0.3617  0.6618
 3598WAT     H115112   1.082   3.146   1.959  0.7502  1.0455 -0.3364
 3598WAT     H215113   1.173   3.247   1.972  2.1252 -0.1686 -0.2439
 3598WAT    EPW15114   1.149   3.175   1.988  0.7437  0.3843  0.3805
 3599WAT      O15115   4.527   0.599   2.080 -0.9464 -0.0603  1.3942
 3599WAT     H115116   4.522   0.672   2.127 -0.9861 -0.0269  1.3372
 3599WAT     H215117   4.590   0.615   2.022 -2.4284  0.7564 -0.0774
 3599WAT    EPW15118   4.535   0.612   2.079 -1.1712  0.0653  1.1684
 3600WAT      O15119   1.356   2.858   3.106  0.2423 -0.2866 -0.1044
 3600WAT     H115120   1.402   2.875   3.179 -1.2139  2.5024  0.2824
 3600WAT     H215121   1.383   2.777   3.084  1.7095 -0.7244  2.7489
 3600WAT    EPW15122   1.367   2.848   3.113  0.2439  0.0608  0.3742
 3601WAT      O15123   3.417   6.173   2.357 -0.1570  0.6774  0.0150
 3601WAT     H115124   3.474   6.186   2.292 -1.3278  1.0486 -0.9629
 3601WAT     H215125   3.343   6.151   2.316 -0.4563 -0.8808  1.2979
 3601WAT    EPW15126   3.415   6.172   2.341 -0.3742  0.5021  0.0601
 3602WAT      O15127   4.368   7.028   7.373  0.8029  0.2415 -0.0668
 3602WAT     H115128   4.435   6.973   7.382  1.3866  0.0673 -3.7448
 3602WAT     H215129   4.399   7.104   7.403  1.8018 -0.3724  0.4865
 3602WAT    EPW15130   4.382   7.031   7.379  1.0367  0.1251 -0.5284
 3603WAT      O15131   7.173   1.685   0.136 -0.6647 -0.3014 -0.6727
 3603WAT     H115132   7.248   1.675   0.093 -0.4182  1.1477 -0.6380
 3603WAT     H215133   7.133   1.608   0.127  1.5675 -1.7626  0.8014
 3603WAT    EPW15134   7.178   1.672   0.128 -0.2986 -0.3032 -0.4498
 3604WAT      O15135   4.959   4.208   5.172 -0.3604  0.6533 -0.4932
 3604WAT     H115136   4.942   4.123   5.183 -1.6983  1.0211  0.5669
 3604WAT     H215137   5.033   4.220   5.217 -0.3350  0.1161 -0.3845
 3604WAT    EPW15138   4.968   4.197   5.180 -0.5543  0.6282 -0.3206
 3605WAT      O15139   2.511   5.251   0.074 -0.2629 -0.3278 -0.3906
 3605WAT     H115140   2.437   5.206   0.079 -0.0297 -0.6594  0.2268
 3605WAT     H215141   2.502   5.313   0.134 -1.6557  2.1525 -2.9125
 3605WAT    EPW15142   2.499   5.253   0.084 -0.4342 -0.0104 -0.6720
 3606WAT      O15143   2.342   0.038   4.006  0.0168  0.2246 -0.1991
 3606WAT     H115144   2.425   0.063   4.016  0.2437 -0.7055  0.3980
 3606WAT     H215145   2.297   0.113   4.008  0.9422  0.8753 -1.9501
 3606WAT    EPW15146   2.348   0.053   4.008  0.1870  0.1833 -0.3695
 3607WAT      O15147   3.710   4.472   3.707 -0.1931 -0.1625 -0.5057
 3607WAT     H115148   3.659   4.501   3.643  1.0854  2.2139 -0.5747
 3607WAT     H215149   3.769   4.536   3.716 -0.5122 -0.1786  3.2721
 3607WAT    EPW15150   3.711   4.486   3.699 -0.0514  0.1861  0.0422
 3608WAT      O15151   0.025   1.807   5.239  0.2839  0.1004 -0.7589
 3608WAT     H115152  -0.042   1.850   5.275 -0.9388 -1.4862 -1.0364
 3608WAT     H215153   0.093   1.858   5.255 -0.5427  0.4742  1.9531
 3608WAT    EPW15154   0.025   1.821   5.246 -0.0188 -0.0787 -0.3992
 3609WAT      O15155   3.077   5.201   6.851  0.5530  0.1558  0.2007
 3609WAT     H115156   3.034   5.274   6.831 -0.6744 -1.0900 -2.2108
 3609WAT     H215157   3.035   5.171   6.921 -1.0879  0.1702 -0.7274
 3609WAT    EPW15158   3.064   5.207   6.858  0.1293 -0.0261 -0.2927
 3610WAT      O15159   5.794   3.471   2.752  0.3828 -0.6822  0.0775
 3610WAT     H115160   5.800   3.384   2.756  1.0227 -0.8179 -2.2004
 3610WAT     H215161   5.724   3.484   2.702  0.2662  0.1376  0.4384
 3610WAT    EPW15162   5.784   3.460   2.745  0.4601 -0.5811 -0.2057
 3611WAT      O15163   1.384   4.648   2.730  0.3085  0.4086 -0.6793
 3611WAT     H115164   1.315   4.647   2.677  0.7087  1.9278 -1.2970
 3611WAT     H215165   1.365   4.712   2.787  0.4227 -0.3835  0.2685
 3611WAT    EPW15166   1.371   4.657   2.730  0.3845  0.5160 -0.6306
 3612WAT      O15167   0.524   5.482   2.184  0.3900 -0.5584 -0.0362
 3612WAT     H115168   0.607   5.465   2.161  1.1829 -0.5831  2.6042
 3612WAT     H215169   0.511   5.563   2.154  2.1893  0.3370  1.3893
 3612WAT    EPW15170   0.534   5.492   2.176  0.7729 -0.4298  0.5644
 3613WAT      O15171   6.947   2.143   4.540  0.6462 -0.0339 -0.2300
 3613WAT     H115172   6.932   2.059   4.558 -1.9474 -0.2187 -2.5537
 3613WAT     H215173   6.954   2.180   4.619 -0.2736 -2.1142  0.9107
 3613WAT    EPW15174   6.945   2.136   4.555  0.1272 -0.3685 -0.4048
 3614WAT      O15175   6.600   5.531   0.485  0.2377 -0.1096  0.2274
 3614WAT     H115176   6.682   5.533   0.516  0.3380 -1.4687  0.1332
 3614WAT     H215177   6.552   5.518   0.556  0.2314 -0.5793  0.1428
 3614WAT    EPW15178   6.605   5.530   0.500  0.2516 -0.3797  0.2010
 3615WAT      O15179   3.542   4.690   6.575  0.0017 -0.4731  0.5884
 3615WAT     H115180   3.508   4.725   6.648 -1.1753  1.3643 -0.7773
 3615WAT     H215181   3.479   4.637   6.546 -0.1298 -0.0501  0.1054
 3615WAT    EPW15182   3.528   4.687   6.582 -0.1916 -0.1392  0.3153
 3616WAT      O15183   4.812   5.154   1.562 -0.1001 -0.0069  0.1710
 3616WAT     H115184   4.833   5.071   1.577 -0.6655  0.1006  1.7909
 3616WAT     H215185   4.799   5.187   1.642 -0.0156  1.6109 -0.4296
 3616WAT    EPW15186   4.813   5.147   1.576 -0.1711  0.2480  0.3215
 3617WAT      O15187   4.281   4.541   3.867  0.5513 -0.0877 -0.4089
 3617WAT     H115188   4.231   4.516   3.933  2.2199  2.1553  1.9005
 3617WAT     H215189   4.241   4.613   3.838  1.0195  0.2205 -0.3006
 3617WAT    EPW15190   4.268   4.548   3.872  0.8669  0.2891 -0.0518
 3618WAT      O15191   7.139   4.947   1.539  0.5731 -0.1756  0.0231
 3618WAT     H115192   7.193   4.902   1.592  1.6931  1.2288  0.1424
 3618WAT     H215193   7.082   4.983   1.594  0.2640 -0.6339  0.0152
 3618WAT    EPW15194   7.139   4.945   1.555  0.6929 -0.0359  0.0395
 3619WAT      O15195   5.364   4.359   4.797 -0.0206  0.6196 -0.0193
 3619WAT     H115196   5.320   4.424   4.759 -0.4194 -0.2466 -1.1148
 3619WAT     H215197   5.301   4.305   4.824  0.3215  0.0259 -0.3766
 3619WAT    EPW15198   5.348   4.360   4.796 -0.0290  0.4039 -0.2339
 3620WAT      O15199   5.262   1.321   1.722 -0.1156 -0.2681  0.0453
 3620WAT     H115200   5.270   1.328   1.636 -0.3350  0.6253  0.0909
 3620WAT     H215201   5.339   1.349   1.753 -0.0208 -0.6289  0.1366
 3620WAT    EPW15202   5.274   1.326   1.714 -0.1340 -0.1894  0.0655
 3621WAT      O15203   5.344   0.626   6.020 -0.3798 -0.1143  0.1613
 3621WAT     H115204   5.371   0.543   6.014 -1.3129 -0.3662 -1.0808
 3621WAT     H215205   5.332   0.649   5.936 -1.3092  0.8657  0.5459
 3621WAT    EPW15206   5.346   0.617   6.007 -0.6550 -0.0067  0.0346
 3622WAT      O15207   2.880   3.649   0.414 -0.0608  0.0447 -0.0833
 3622WAT     H115208   2.883   3.680   0.333  1.6455  0.1792 -0.0004
 3622WAT     H215209   2.958   3.612   0.425 -0.5851 -0.7519  1.2033
 3622WAT    EPW15210   2.892   3.648   0.404  0.1138 -0.0531  0.1190
 3623WAT      O15211   7.176   5.157   5.031  0.2462 -0.2386 -0.4471
 3623WAT     H115212   7.161   5.198   5.107  1.6392 -0.3202 -0.1139
 3623WAT     H215213   7.097   5.155   4.993 -0.4979 -0.2915  1.0378
 3623WAT    EPW15214   7.162   5.162   5.036  0.3421 -0.2585 -0.1785
 3624WAT      O15215   0.131   7.264   1.297 -0.3033 -0.1053  0.0821
 3624WAT     H115216   0.081   7.239   1.364  0.3105  1.8302  1.3544
 3624WAT     H215217   0.081   7.248   1.227 -1.4399 -1.1120  1.0719
 3624WAT    EPW15218   0.116   7.258   1.297 -0.3805  0.0319  0.4162
 3625WAT      O15219   0.269   2.003   1.608 -0.2574  0.2300  0.5942
 3625WAT     H115220   0.289   1.960   1.682  1.5095  0.4894  0.3162
 3625WAT     H215221   0.296   1.948   1.546  1.4984  1.4356  0.2250
 3625WAT    EPW15222   0.276   1.988   1.610  0.2630  0.4464  0.4986
 3626WAT      O15223   0.186   5.433   6.352 -0.3386  0.1581  0.9583
 3626WAT     H115224   0.253   5.488   6.362 -0.5232  0.2617  1.6211
 3626WAT     H215225   0.202   5.370   6.410  0.0200 -0.6416  0.0139
 3626WAT    EPW15226   0.198   5.432   6.362 -0.3129  0.0553  0.9167
 3627WAT      O15227   4.335   4.427   5.408  0.2194  0.1828 -0.4421
 3627WAT     H115228   4.333   4.513   5.398  1.5092  0.2981  0.0396
 3627WAT     H215229   4.375   4.398   5.336  0.7058  0.0953 -0.1438
 3627WAT    EPW15230   4.341   4.435   5.396  0.4818  0.1869 -0.3269
 3628WAT      O15231   1.736   7.233   7.041  0.1129  0.4507  0.5623
 3628WAT     H115232   1.730   7.289   7.107  0.3320 -0.0248  0.9948
 3628WAT     H215233   1.742   7.155   7.080  1.1970  0.2364  0.0056
 3628WAT    EPW15234   1.736   7.229   7.056  0.3054  0.3488  0.5440
 3629WAT      O15235   0.853   6.667   6.558  0.0479  0.1565 -0.2869
 3629WAT     H115236   0.791   6.607   6.564 -0.3455  0.5528 -0.3323
 3629WAT     H215237   0.927   6.621   6.560 -0.1520 -0.1945  2.1541
 3629WAT    EPW15238   0.855   6.651   6.559 -0.0398  0.1632  0.0670
 3630WAT      O15239   3.322   4.263   7.125 -0.7360  0.0026 -0.0557
 3630WAT     H115240   3.267   4.286   7.061 -2.5473 -1.9566  0.6880
 3630WAT     H215241   3.390   4.229   7.083 -1.2146  0.1383 -0.9568
 3630WAT    EPW15242   3.324   4.261   7.110 -1.0743 -0.2668 -0.0790
 3631WAT      O15243   2.229   6.036   0.364  0.7414  0.0618  0.1294
 3631WAT     H115244   2.206   6.095   0.305 -1.8141 -1.9580 -1.0735
 3631WAT     H215245   2.293   5.992   0.324 -0.0468 -0.4314 -0.6246
 3631WAT    EPW15246   2.235   6.038   0.349  0.2475 -0.3095 -0.1597
 3632WAT      O15247   2.653   5.148   2.689 -0.2624  0.7640 -0.2369
 3632WAT     H115248   2.675   5.108   2.763  1.0100 -0.3753 -1.1918
 3632WAT     H215249   2.567   5.134   2.682 -0.1694 -0.1673  0.3972
 3632WAT    EPW15250   2.643   5.140   2.699 -0.0607  0.4581 -0.2843
 3633WAT      O15251   6.182   2.994   0.145 -0.4696 -0.0657 -0.3663
 3633WAT     H115252   6.261   3.031   0.147 -0.1494 -0.7500  0.8327
 3633WAT     H215253   6.128   3.060   0.161  0.0911 -0.0325  1.7127
 3633WAT    EPW15254   6.186   3.009   0.147 -0.3395 -0.1619  0.1179
 3634WAT      O15255   3.710   1.232   1.916 -0.0993  0.2696 -0.4200
 3634WAT     H115256   3.774   1.190   1.874 -0.4499 -0.1582 -0.5258
 3634WAT     H215257   3.652   1.250   1.854 -0.4524 -0.0483 -0.1887
 3634WAT    EPW15258   3.711   1.229   1.901 -0.2033  0.1594 -0.4015
 3635WAT      O15259   4.362   2.166   1.712  0.3162  0.2914  0.8427
 3635WAT     H115260   4.361   2.253   1.700  2.5260  0.3780  0.7150
 3635WAT     H215261   4.298   2.137   1.661  1.4119  1.6350 -1.4588
 3635WAT    EPW15262   4.353   2.175   1.703  0.8045  0.5027  0.4838
 3636WAT      O15263   1.176   3.695   3.851 -0.7903 -0.3395 -0.0773
 3636WAT     H115264   1.253   3.701   3.890 -0.7321 -0.1206 -0.2217
 3636WAT     H215265   1.156   3.610   3.857 -0.6835 -0.3431  0.2330
 3636WAT    EPW15266   1.184   3.683   3.857 -0.7659 -0.3077 -0.0528
 3637WAT      O15267   1.045   1.722   1.442  0.0696  0.2279 -0.0153
 3637WAT     H115268   1.028   1.660   1.383  2.0533 -1.6445  1.2334
 3637WAT     H215269   1.006   1.793   1.409 -0.0580 -1.0291 -2.8757
 3637WAT    EPW15270   1.037   1.723   1.429  0.3438 -0.2344 -0.2533
 3638WAT      O15271   2.392   3.575   7.050 -0.0832  0.0174  0.2833
 3638WAT     H115272   2.381   3.508   6.995  1.6363  0.5212 -0.7795
 3638WAT     H215273   2.476   3.597   7.038  0.7946 -0.5834  4.0031
 3638WAT    EPW15274   2.403   3.568   7.040  0.3005  0.0031  0.6758
 3639WAT      O15275   6.233   4.423   3.216  0.4428  0.3890  0.0223
 3639WAT     H115276   6.162   4.466   3.244  0.1652 -1.6115  2.7125
 3639WAT     H215277   6.218   4.341   3.240  3.4438 -0.2112  0.1768
 3639WAT    EPW15278   6.220   4.417   3.223  0.8451  0.0048  0.4425
 3640WAT      O15279   1.110   2.309   4.183 -0.1378 -0.7975  0.2247
 3640WAT     H115280   1.033   2.301   4.222 -0.0347 -1.3295  0.3208
 3640WAT     H215281   1.094   2.289   4.100 -0.3512  0.3072 -0.0157
 3640WAT    EPW15282   1.097   2.305   4.176 -0.1541 -0.7129  0.2034
 3641WAT      O15283   6.041   0.352   0.929  0.2749  0.0732  0.1342
 3641WAT     H115284   6.052   0.286   0.873  0.7821 -0.2495  0.6065
 3641WAT     H215285   5.969   0.392   0.900  0.5255 -0.0950 -0.7451
 3641WAT    EPW15286   6.032   0.348   0.916  0.3868  0.0007  0.0741
 3642WAT      O15287   5.449   2.805   4.245  0.5237 -0.9623  0.0531
 3642WAT     H115288   5.509   2.801   4.182 -1.2938 -0.9362 -1.7724
 3642WAT     H215289   5.435   2.722   4.267  0.3109 -1.0561 -0.4395
 3642WAT    EPW15290   5.456   2.793   4.239  0.2238 -0.9723 -0.2893
 3643WAT      O15291   2.042   2.175   2.223 -0.8288  0.0476 -0.5056
 3643WAT     H115292   2.061   2.106   2.273 -0.8237 -0.4586 -1.1831
 3643WAT     H215293   2.014   2.235   2.280  1.8870  0.5326  0.4495
 3643WAT    EPW15294   2.041   2.173   2.239 -0.4268  0.0445 -0.4646
 3644WAT      O15295   0.905   2.674   4.960  0.0958  0.3731 -0.0477
 3644WAT     H115296   0.952   2.605   4.984 -0.2711 -0.1172 -0.6996
 3644WAT     H215297   0.836   2.673   5.014  1.7010  2.2215  2.2443
 3644WAT    EPW15298   0.902   2.664   4.971  0.2787  0.5737  0.1946
 3645WAT      O15299   5.809   0.004   0.517  0.2020  0.5321  0.2022
 3645WAT     H115300   5.724  -0.012   0.525  0.3004 -0.0264  0.1763
 3645WAT     H215301   5.828  -0.024   0.436  0.2872  1.2278 -0.0272
 3645WAT    EPW15302   5.799  -0.002   0.506  0.2291  0.5524  0.1645
 3646WAT      O15303   5.273   4.900   5.860 -0.0254 -0.1192  0.3903
 3646WAT     H115304   5.329   4.841   5.827 -2.1129 -1.7500 -0.5030
 3646WAT     H215305   5.210   4.904   5.800 -0.7267  1.8933  1.1934
 3646WAT    EPW15306   5.272   4.892   5.846 -0.4373 -0.0628  0.3770
 3647WAT      O15307   4.015   7.149   6.857  0.5302 -0.0652  0.3861
 3647WAT     H115308   4.008   7.133   6.942  0.8481  0.2420  0.4690
 3647WAT     H215309   4.092   7.189   6.849 -0.0908  1.0997  0.1267
 3647WAT    EPW15310   4.026   7.152   6.868  0.4854  0.1522  0.3600
 3648WAT      O15311   2.701   5.530   6.452  0.1817  0.0727  0.7642
 3648WAT     H115312   2.626   5.493   6.478 -2.5017  3.4736 -1.1931
 3648WAT     H215313   2.725   5.577   6.522  0.8328 -1.4261  1.5771
 3648WAT    EPW15314   2.693   5.532   6.466 -0.1185  0.3537  0.5951
 3649WAT      O15315   4.659   1.529   6.969  0.1656  0.2417  0.4433
 3649WAT     H115316   4.701   1.461   7.004 -0.7690  0.0725  1.2642
 3649WAT     H215317   4.719   1.593   6.969  1.2198 -0.6954 -0.8360
 3649WAT    EPW15318   4.674   1.529   6.974  0.1833  0.0783  0.3756
 3650WAT      O15319   3.086   3.762   5.717 -0.2056  0.4859  0.1810
 3650WAT     H115320   3.045   3.693   5.751 -1.2410  1.1440  0.3162
 3650WAT     H215321   3.160   3.729   5.685 -1.0762 -0.8471 -0.5562
 3650WAT    EPW15322   3.091   3.747   5.717 -0.4872  0.3862  0.0921
 3651WAT      O15323   2.058   3.127   3.632  0.0564  0.5658 -0.5034
 3651WAT     H115324   2.057   3.214   3.628 -1.1498  0.8057  2.5385
 3651WAT     H215325   1.974   3.106   3.621  0.6412 -0.5177 -3.8230
 3651WAT    EPW15326   2.045   3.137   3.630 -0.0354  0.4412 -0.5444
 3652WAT      O15327   0.138   2.497   6.283  0.2704 -0.0045 -0.4625
 3652WAT     H115328   0.203   2.501   6.225 -0.3417 -0.3068 -1.1860
 3652WAT     H215329   0.082   2.559   6.256 -0.0200 -0.1492 -0.1986
 3652WAT    EPW15330   0.139   2.507   6.270  0.1371 -0.0705 -0.5304
 3653WAT      O15331   2.284   1.919   1.484  0.4303 -0.2039  0.2726
 3653WAT     H115332   2.337   1.979   1.517  1.6290 -0.3752 -1.2767
 3653WAT     H215333   2.204   1.953   1.495  1.1178  2.1561 -1.4839
 3653WAT    EPW15334   2.280   1.933   1.491  0.7090  0.1194 -0.2158
 3654WAT      O15335   2.609   0.733   3.570  0.0840 -0.0749 -0.6604
 3654WAT     H115336   2.534   0.691   3.587 -1.1700  1.9620 -0.8340
 3654WAT     H215337   2.629   0.708   3.489  0.1594 -1.3957 -0.2594
 3654WAT    EPW15338   2.601   0.723   3.561 -0.0901  0.0309 -0.6268
 3655WAT      O15339   1.811   4.017   2.967  0.2862 -0.3176  0.5973
 3655WAT     H115340   1.846   3.945   3.002  1.0520 -0.4486 -0.4037
 3655WAT     H215341   1.788   3.992   2.887 -1.9404 -0.1705  1.1353
 3655WAT    EPW15342   1.813   4.003   2.960  0.0704 -0.3152  0.5289
 3656WAT      O15343   1.650   1.290   4.867 -0.1857 -0.2528  0.5962
 3656WAT     H115344   1.724   1.328   4.893 -0.3611  1.1977 -0.8548
 3656WAT     H215345   1.673   1.207   4.852  1.2368  0.2529 -0.1479
 3656WAT    EPW15346   1.664   1.283   4.868 -0.0015  0.0361  0.2719
 3657WAT      O15347   6.187   0.056   6.513  0.0965 -0.3966  0.0454
 3657WAT     H115348   6.109   0.056   6.552 -0.0049 -1.4499 -0.1215
 3657WAT     H215349   6.238   0.012   6.569  0.4126 -0.2768 -0.1432
 3657WAT    EPW15350   6.183   0.050   6.527  0.1282 -0.5345 -0.0071
 3658WAT      O15351   1.811   3.893   0.806 -0.1143  0.3990  0.5477
 3658WAT     H115352   1.783   3.813   0.789 -0.6613  0.5257  0.8423
 3658WAT     H215353   1.895   3.891   0.781  0.0463 -0.4384  1.1303
 3658WAT    EPW15354   1.820   3.881   0.800 -0.1714  0.2940  0.6773
 3659WAT      O15355   6.432   5.828   0.812 -0.2084  0.0086 -0.0995
 3659WAT     H115356   6.380   5.836   0.742 -0.3523 -0.1970 -0.0173
 3659WAT     H215357   6.376   5.825   0.879 -0.1086 -0.5242 -0.0357
 3659WAT    EPW15358   6.416   5.829   0.811 -0.2149 -0.1005 -0.0779
 3660WAT      O15359   3.489   6.453   2.944  0.0629 -0.1181  0.3411
 3660WAT     H115360   3.412   6.413   2.933 -0.1212 -0.2403  1.8232
 3660WAT     H215361   3.487   6.518   2.886 -1.8973  0.9101  1.4675
 3660WAT    EPW15362   3.477   6.456   2.934 -0.2538  0.0157  0.7264
 3661WAT      O15363   6.168   1.959   5.207  0.6608  0.8870  0.1176
 3661WAT     H115364   6.092   1.977   5.246  1.0922 -1.3585  2.2023
 3661WAT     H215365   6.208   2.037   5.202 -1.1531  1.8845  0.2475
 3661WAT    EPW15366   6.163   1.973   5.212  0.4566  0.7027  0.4447
 3662WAT      O15367   0.701   6.423   6.516 -0.4087 -0.3827  0.2341
 3662WAT     H115368   0.617   6.407   6.498 -0.0256 -0.4102 -1.7879
 3662WAT     H215369   0.733   6.344   6.536 -0.8806 -0.3330  1.2837
 3662WAT    EPW15370   0.694   6.409   6.516 -0.4218 -0.3794  0.0904
 3663WAT      O15371   5.187   3.459   1.143  0.0111 -0.3693 -0.1118
 3663WAT     H115372   5.114   3.493   1.176  1.5086  0.9488  2.0836
 3663WAT     H215373   5.172   3.373   1.147 -2.0768 -0.1204 -1.4336
 3663WAT    EPW15374   5.174   3.451   1.149 -0.0761 -0.1378  0.0172
 3664WAT      O15375   5.014   5.195   7.141 -0.1248 -0.4581  0.2917
 3664WAT     H115376   4.992   5.179   7.058  0.1562  0.9010 -0.0638
 3664WAT     H215377   4.940   5.227   7.176 -0.0810 -0.4935  0.4173
 3664WAT    EPW15378   5.000   5.198   7.134 -0.0768 -0.2625  0.2578
 3665WAT      O15379   6.855   3.805   2.750 -0.0764 -0.3224 -0.0723
 3665WAT     H115380   6.773   3.826   2.774 -0.4942 -0.6492 -1.1433
 3665WAT     H215381   6.904   3.866   2.788 -1.0701  1.5712 -1.6675
 3665WAT    EPW15382   6.850   3.817   2.759 -0.2849 -0.0910 -0.4661
 3666WAT      O15383   6.036   0.608   4.759 -0.2707  0.4582 -0.1260
 3666WAT     H115384   6.051   0.665   4.824  0.8928  0.7696 -0.6589
 3666WAT     H215385   6.045   0.656   4.687  0.4550 -0.3363 -0.5735
 3666WAT    EPW15386   6.040   0.624   4.758  0.0084  0.3868 -0.2709
 3667WAT      O15387   0.215   3.841   1.548  0.0956 -0.5116  0.4419
 3667WAT     H115388   0.134   3.826   1.579  0.3674 -2.3505  0.3658
 3667WAT     H215389   0.242   3.762   1.523  1.0339  0.4413 -1.7682
 3667WAT    EPW15390   0.207   3.827   1.549  0.2743 -0.6425  0.1042
 3668WAT      O15391   2.533   0.446   6.702  0.0648  0.3010 -0.0867
 3668WAT     H115392   2.579   0.378   6.672  1.7158  1.9801 -1.5712
 3668WAT     H215393   2.593   0.500   6.733 -0.8958  2.3090 -1.4989
 3668WAT    EPW15394   2.548   0.444   6.702  0.1668  0.8457 -0.5146
 3669WAT      O15395   7.113   4.174   3.490 -0.0668  0.4865  0.1905
 3669WAT     H115396   7.091   4.176   3.575 -0.4291 -0.8694  0.1452
 3669WAT     H215397   7.037   4.189   3.449  0.0454  0.8000  0.0918
 3669WAT    EPW15398   7.098   4.177   3.497 -0.1038  0.3325  0.1692
 3670WAT      O15399   2.349   1.677   0.601  0.1510  0.2765 -0.0336
 3670WAT     H115400   2.402   1.637   0.658  0.4122  3.2914  2.0805
 3670WAT     H215401   2.377   1.760   0.602  0.2920  0.5886 -4.8170
 3670WAT    EPW15402   2.361   1.683   0.609  0.2104  0.7680 -0.4279
 3671WAT      O15403   5.965   3.832   7.409 -0.7728  0.1695 -0.2733
 3671WAT     H115404   5.987   3.764   7.359  1.2616  0.7508 -0.2565
 3671WAT     H215405   5.964   3.799   7.490  0.9100  0.2580 -0.1831
 3671WAT    EPW15406   5.968   3.817   7.413 -0.2237  0.2685 -0.2575
 3672WAT      O15407   6.366   0.719   6.526 -0.1075  0.0087 -0.0171
 3672WAT     H115408   6.353   0.775   6.591  0.6475  1.0978 -0.7532
 3672WAT     H215409   6.290   0.679   6.516 -0.9593  1.5622 -0.0433
 3672WAT    EPW15410   6.353   0.721   6.534 -0.1218  0.3990 -0.1297
 3673WAT      O15411   2.729   1.681   0.118 -0.1205 -0.1909 -0.2913
 3673WAT     H115412   2.734   1.644   0.197  1.3638 -3.9791 -1.9115
 3673WAT     H215413   2.810   1.712   0.105 -0.5854  1.1817 -0.0866
 3673WAT    EPW15414   2.742   1.680   0.128  0.0301 -0.5477 -0.5004
 3674WAT      O15415   2.781   6.867   1.480  1.0598  0.1756  0.0600
 3674WAT     H115416   2.710   6.851   1.527  0.9645  0.9185  0.1723
 3674WAT     H215417   2.755   6.852   1.398  1.5046 -2.1329  0.2722
 3674WAT    EPW15418   2.767   6.862   1.475  1.1114 -0.0557  0.1080
 3675WAT      O15419   0.882   3.083   0.851 -0.4676 -0.1596 -0.1040
 3675WAT     H115420   0.811   3.126   0.825  0.2861  1.8817  0.9777
 3675WAT     H215421   0.923   3.065   0.776 -0.7102  1.2685 -0.6285
 3675WAT    EPW15422   0.878   3.087   0.836 -0.3921  0.3529 -0.0217
 3676WAT      O15423   2.164   5.891   5.111  0.0758  0.1445 -0.1746
 3676WAT     H115424   2.184   5.824   5.059  0.5466  0.2033 -0.0758
 3676WAT     H215425   2.135   5.952   5.055 -2.1860 -0.7631 -0.1106
 3676WAT    EPW15426   2.163   5.890   5.095 -0.1888  0.0191 -0.1505
 3677WAT      O15427   4.413   4.579   6.998 -0.3979 -0.3656 -0.4039
 3677WAT     H115428   4.437   4.609   6.920 -0.1925 -0.2217 -0.2872
 3677WAT     H215429   4.342   4.531   6.981  0.1178 -0.9999 -0.7860
 3677WAT    EPW15430   4.406   4.577   6.984 -0.2914 -0.4381 -0.4431
 3678WAT      O15431   6.490   2.769   1.464 -0.0683  0.1192 -0.1852
 3678WAT     H115432   6.447   2.845   1.468 -0.0631  0.0671  2.2162
 3678WAT     H215433   6.435   2.716   1.422 -0.9972  0.8621  0.0808
 3678WAT    EPW15434   6.476   2.773   1.458 -0.2048  0.2212  0.2089
 3679WAT      O15435   3.961   0.011   4.505 -0.5553 -0.5171  0.4655
 3679WAT     H115436   4.041   0.041   4.489 -0.1922 -1.4682  0.4770
 3679WAT     H215437   3.962  -0.008   4.590 -0.9770 -0.0049  0.5912
 3679WAT    EPW15438   3.973   0.013   4.515 -0.5640 -0.5819  0.4858
 3680WAT      O15439   0.645   0.805   0.319 -0.0782  1.1294  0.5411
 3680WAT     H115440   0.678   0.880   0.349  0.0040  0.7472  1.4547
 3680WAT     H215441   0.568   0.798   0.359 -0.2889  0.9505  0.1090
 3680WAT    EPW15442   0.639   0.815   0.329 -0.0972  1.0465  0.6122
 3681WAT      O15443   3.052   5.948   4.196 -0.0743 -0.3602 -0.1752
 3681WAT     H115444   3.006   5.893   4.246 -0.6530  0.2642 -0.0049
 3681WAT     H215445   3.109   5.984   4.251 -1.0744  0.7323  0.1743
 3681WAT    EPW15446   3.053   5.945   4.211 -0.3075 -0.1065 -0.0984
 3682WAT      O15447   0.762   6.656   0.186 -0.4877  0.1899 -0.1813
 3682WAT     H115448   0.775   6.607   0.256 -1.3003  0.0764 -0.0980
 3682WAT     H215449   0.697   6.615   0.144 -1.1343  1.1306 -0.1405
 3682WAT    EPW15450   0.754   6.643   0.190 -0.7033  0.3121 -0.1630
 3683WAT      O15451   5.034   0.541   1.439  0.6817 -0.1727  0.0791
 3683WAT     H115452   4.956   0.511   1.414 -0.0517  1.3785  0.3985
 3683WAT     H215453   5.059   0.485   1.501  0.0365 -0.9422 -0.3370
 3683WAT    EPW15454   5.026   0.528   1.444  0.4781 -0.0572  0.0648
 3684WAT      O15455   6.339   5.034   2.568  0.0254  0.4884 -0.7502
 3684WAT     H115456   6.390   5.068   2.506  0.0275  0.2308 -0.8891
 3684WAT     H215457   6.268   5.085   2.566 -0.2696  0.0703 -1.4364
 3684WAT    EPW15458   6.336   5.047   2.559 -0.0179  0.3886 -0.8721
 3685WAT      O15459   4.490   6.091   2.307  0.2710  0.2040 -0.0335
 3685WAT     H115460   4.441   6.068   2.375 -0.5340  0.5946 -0.4629
 3685WAT     H215461   4.500   6.016   2.263  0.8856 -0.0718  0.5578
 3685WAT    EPW15462   4.484   6.077   2.310  0.2429  0.2210 -0.0096
 3686WAT      O15463   0.590   2.113   4.428 -0.1067  0.4496 -0.7756
 3686WAT     H115464   0.521   2.162   4.407 -1.4924 -1.7353 -1.7726
 3686WAT     H215465   0.603   2.065   4.356  0.6387 -1.1380  0.3551
 3686WAT    EPW15466   0.582   2.113   4.414 -0.2013 -0.1077 -0.7559
 3687WAT      O15467   4.132   4.952   1.505 -0.2399  0.3644 -0.3213
 3687WAT     H115468   4.074   4.921   1.449 -0.8863  0.1321  0.4669
 3687WAT     H215469   4.209   4.936   1.467 -0.5941 -1.2991 -0.3859
 3687WAT    EPW15470   4.135   4.945   1.491 -0.3877  0.0844 -0.2144
 3688WAT      O15471   3.718   5.309   5.262  0.0159 -0.2349  0.1980
 3688WAT     H115472   3.633   5.305   5.242 -0.0583 -0.6604  0.5812
 3688WAT     H215473   3.755   5.260   5.200  0.0292  0.2890 -0.2134
 3688WAT    EPW15474   3.711   5.301   5.250  0.0069 -0.2204  0.1938
 3689WAT      O15475   4.043   5.463   4.750 -0.0158  0.5530 -0.1943
 3689WAT     H115476   4.035   5.427   4.829 -0.8593 -0.0001 -0.5122
 3689WAT     H215477   3.999   5.408   4.698 -2.4627  2.6243 -0.4970
 3689WAT    EPW15478   4.035   5.450   4.754 -0.5018  0.7773 -0.2860
 3690WAT      O15479   2.537   6.156   1.582 -0.0503  0.3272 -0.2593
 3690WAT     H115480   2.588   6.090   1.609 -1.9160 -1.7932 -1.5327
 3690WAT     H215481   2.578   6.185   1.511  0.0729 -0.4547 -0.5197
 3690WAT    EPW15482   2.551   6.151   1.576 -0.3077 -0.1015 -0.4859
 3691WAT      O15483   0.666   5.558   3.834 -0.6260 -0.0132  0.1023
 3691WAT     H115484   0.637   5.483   3.801  0.0894  0.3754 -1.4887
 3691WAT     H215485   0.669   5.611   3.764  0.6788  0.9355  0.8422
 3691WAT    EPW15486   0.662   5.555   3.819 -0.3276  0.1844 -0.0234
 3692WAT      O15487   2.830   4.086   3.995 -0.2543 -0.1366  0.2357
 3692WAT     H115488   2.873   4.035   3.939  1.3253  1.0054  0.3370
 3692WAT     H215489   2.863   4.064   4.073 -0.4236  0.2092  0.4105
 3692WAT    EPW15490   2.841   4.075   3.998 -0.0460  0.0832  0.2765
 3693WAT      O15491   5.169   3.261   2.347  0.4061  0.7162  0.2990
 3693WAT     H115492   5.102   3.297   2.390  0.1117  1.7890 -0.9738
 3693WAT     H215493   5.235   3.316   2.363 -0.3326  2.6718 -2.6337
 3693WAT    EPW15494   5.169   3.275   2.356  0.2535  1.1635 -0.3222
 3694WAT      O15495   5.515   3.556   7.264  0.2775  0.3326  0.6107
 3694WAT     H115496   5.501   3.640   7.283  1.1069  0.7281 -0.4088
 3694WAT     H215497   5.579   3.559   7.204  0.1916 -1.0148  0.4194
 3694WAT    EPW15498   5.523   3.569   7.258  0.3873  0.1920  0.4319
 3695WAT      O15499   4.715   6.481   0.750 -0.7439 -0.1919  0.1776
 3695WAT     H115500   4.702   6.406   0.793 -2.1155  0.4692  0.9930
 3695WAT     H215501   4.646   6.529   0.772 -1.0028  0.5395 -2.0762
 3695WAT    EPW15502   4.703   6.477   0.760 -0.9848  0.0138 -0.0349
 3696WAT      O15503   0.756   6.830   4.049  0.1835  0.2723 -0.1543
 3696WAT     H115504   0.759   6.885   3.981 -0.1471  0.4689 -0.0141
 3696WAT     H215505   0.799   6.871   4.112  0.7319 -0.0301 -0.3205
 3696WAT    EPW15506   0.762   6.844   4.048  0.2156  0.2566 -0.1581
 3697WAT      O15507   4.109   4.475   5.148  0.0606  0.1406  0.1073
 3697WAT     H115508   4.109   4.433   5.225  2.1216 -0.9553 -0.4250
 3697WAT     H215509   4.035   4.449   5.110  0.0433 -0.9643  0.8630
 3697WAT    EPW15510   4.098   4.465   5.154  0.3625 -0.1845  0.1403
 3698WAT      O15511   6.757   2.548   6.805 -0.4201  0.5313 -0.3573
 3698WAT     H115512   6.829   2.573   6.849 -1.1859 -0.2567  1.4517
 3698WAT     H215513   6.740   2.469   6.838 -0.4472 -0.6249 -2.9213
 3698WAT    EPW15514   6.765   2.540   6.817 -0.5372  0.2441 -0.4688
 3699WAT      O15515   7.165   5.500   2.854  0.6170 -0.0313 -0.2226
 3699WAT     H115516   7.163   5.512   2.940 -0.7737 -0.0373 -0.2414
 3699WAT     H215517   7.250   5.507   2.835  1.1370 -1.4429  1.3402
 3699WAT    EPW15518   7.177   5.503   2.864  0.4884 -0.2407  0.0055
 3700WAT      O15519   3.512   2.587   7.252  0.3408 -0.3805  0.4659
 3700WAT     H115520   3.448   2.551   7.204 -0.1301 -0.2290  0.9677
 3700WAT     H215521   3.576   2.601   7.195 -0.3901  0.2371 -0.2154
 3700WAT    EPW15522   3.512   2.584   7.237  0.1633 -0.2669  0.4394
 3701WAT      O15523   1.269   1.283   1.290 -0.1720  0.1700  0.0226
 3701WAT     H115524   1.292   1.316   1.367  0.1387 -0.5767  0.2502
 3701WAT     H215525   1.315   1.210   1.283 -3.2384 -2.0823  1.0527
 3701WAT    EPW15526   1.279   1.277   1.301 -0.5790 -0.2730  0.2084
 3702WAT      O15527   0.309   6.114   2.433 -0.6596  0.0730 -0.3810
 3702WAT     H115528   0.274   6.187   2.467 -0.0605  0.4095 -0.4646
 3702WAT     H215529   0.348   6.076   2.501 -0.1264  0.3458 -0.5287
 3702WAT    EPW15530   0.309   6.119   2.448 -0.4924  0.1630 -0.4152
 3703WAT      O15531   4.307   5.704   5.728 -0.2871  0.3880 -0.0612
 3703WAT     H115532   4.314   5.646   5.664 -0.1382 -1.1505  1.2711
 3703WAT     H215533   4.351   5.773   5.698  4.2116 -1.9660  0.1779
 3703WAT    EPW15534   4.315   5.706   5.714  0.3995 -0.1870  0.1710
 3704WAT      O15535   6.400   4.931   3.916 -0.3670  0.0574 -0.6612
 3704WAT     H115536   6.456   4.872   3.946 -0.5661 -0.4051 -1.1909
 3704WAT     H215537   6.433   4.954   3.839 -0.4439  0.4209 -0.5884
 3704WAT    EPW15538   6.413   4.926   3.909 -0.4078  0.0428 -0.7287
 3705WAT      O15539   0.490   5.902   1.526 -0.2423 -0.3866  0.5388
 3705WAT     H115540   0.412   5.940   1.520 -1.7857 -3.3522 -0.7116
 3705WAT     H215541   0.541   5.952   1.477 -1.5631  1.2271  0.7293
 3705WAT    EPW15542   0.486   5.915   1.518 -0.6654 -0.5863  0.3823
 3706WAT      O15543   0.579   7.230   2.143  0.8086 -0.0811 -0.2230
 3706WAT     H115544   0.579   7.272   2.219  0.5534 -0.2734 -0.1166
 3706WAT     H215545   0.527   7.279   2.093  1.0340  0.0848 -0.3006
 3706WAT    EPW15546   0.571   7.243   2.147  0.8042 -0.0850 -0.2188
 3707WAT      O15547   3.870   4.978   6.879  1.1158 -0.2127 -0.0338
 3707WAT     H115548   3.870   4.944   6.798  0.1038  0.9117 -0.5385
 3707WAT     H215549   3.953   5.005   6.889  1.5000 -1.2372 -0.2877
 3707WAT    EPW15550   3.882   4.977   6.868  1.0230 -0.1979 -0.1459
 3708WAT      O15551   4.616   4.560   1.597 -0.2465 -0.1470  0.0331
 3708WAT     H115552   4.529   4.552   1.590 -0.4913  1.2253  1.1676
 3708WAT     H215553   4.640   4.592   1.520 -0.8907  0.4536  0.0746
 3708WAT    EPW15554   4.606   4.563   1.585 -0.3779  0.1445  0.2068
 3709WAT      O15555   3.997   3.058   0.386  0.0947 -0.3249  0.2094
 3709WAT     H115556   4.006   3.105   0.459  3.2141 -0.3752 -0.0168
 3709WAT     H215557   3.917   3.024   0.393 -1.2637  2.7507  1.7063
 3709WAT    EPW15558   3.986   3.060   0.398  0.3548  0.1220  0.3971
 3710WAT      O15559   5.495   3.248   5.946  0.1203 -0.2295  0.2282
 3710WAT     H115560   5.508   3.163   5.928  0.2816 -0.1039 -0.2574
 3710WAT     H215561   5.424   3.268   5.899  1.4336  0.4957 -1.5287
 3710WAT    EPW15562   5.486   3.238   5.936  0.3381 -0.1038 -0.1031
 3711WAT      O15563   4.535   3.283   3.573  0.1206  0.2350 -0.5526
 3711WAT     H115564   4.608   3.328   3.560  0.1409  0.0547 -1.0956
 3711WAT     H215565   4.501   3.276   3.492 -0.5901  0.4855 -0.2868
 3711WAT    EPW15566   4.541   3.289   3.559  0.0186  0.2454 -0.5935
 3712WAT      O15567   4.729   7.205   5.896  0.2769 -0.0290 -0.1351
 3712WAT     H115568   4.808   7.171   5.882 -0.7896 -2.0538 -1.7964
 3712WAT     H215569   4.708   7.240   5.818 -0.9428 -0.6252 -0.0894
 3712WAT    EPW15570   4.738   7.205   5.882 -0.0608 -0.4162 -0.3738
 3713WAT      O15571   3.412   5.807   5.174 -0.1045 -0.0178  0.4269
 3713WAT     H115572   3.404   5.894   5.174  2.0287  0.2563 -1.3016
 3713WAT     H215573   3.369   5.782   5.102  2.4457  0.0858 -1.2434
 3713WAT    EPW15574   3.404   5.816   5.163  0.5873  0.0380 -0.0752
 3714WAT      O15575   2.265   5.281   1.614 -0.3165 -0.0661 -0.1500
 3714WAT     H115576   2.258   5.365   1.593  0.5788 -0.4428 -2.2462
 3714WAT     H215577   2.251   5.240   1.538 -1.7489 -1.9012  0.9998
 3714WAT    EPW15578   2.262   5.287   1.600 -0.3958 -0.3928 -0.2898
 3715WAT      O15579   2.211   0.065   2.658  0.1312 -0.0383  0.1674
 3715WAT     H115580   2.202  -0.018   2.634  0.4915  0.0799 -0.3918
 3715WAT     H215581   2.144   0.078   2.712 -1.0417 -0.1443 -1.2137
 3715WAT    EPW15582   2.200   0.055   2.663  0.0112 -0.0365 -0.1193
 3716WAT      O15583   4.811   4.887   4.051  0.0666  0.5295  0.4271
 3716WAT     H115584   4.765   4.842   4.110  0.3381  0.0873  0.3088
 3716WAT     H215585   4.866   4.827   4.018  1.5340  1.2815  1.3775
 3716WAT    EPW15586   4.812   4.871   4.055  0.3235  0.5753  0.5501
 3717WAT      O15587   6.295   0.431   6.989 -0.1059 -0.2563 -0.1374
 3717WAT     H115588   6.291   0.416   6.903 -0.2062  0.1655 -0.2071
 3717WAT     H215589   6.217   0.466   7.007 -0.7839 -1.9504  0.4459
 3717WAT    EPW15590   6.283   0.434   6.979 -0.2209 -0.4443 -0.0616
 3718WAT      O15591   3.574   3.697   0.880  0.1402 -0.7629 -0.2398
 3718WAT     H115592   3.544   3.654   0.950  0.7744  0.1995  0.6574
 3718WAT     H215593   3.508   3.749   0.858  0.1079 -0.7224 -0.0497
 3718WAT    EPW15594   3.560   3.698   0.887  0.2291 -0.6147 -0.0792
 3719WAT      O15595   0.370   2.530   7.034 -0.1465  0.3891 -0.6768
 3719WAT     H115596   0.343   2.447   7.042 -0.6125  0.4134 -1.8825
 3719WAT     H215597   0.317   2.574   7.088 -1.7540  0.2603 -2.0866
 3719WAT    EPW15598   0.358   2.524   7.043 -0.4528  0.3737 -1.0632
 3720WAT      O15599   0.176   6.635   2.521  0.1461  0.5522 -0.1386
 3720WAT     H115600   0.198   6.648   2.438 -1.2081 -0.6364 -0.7201
 3720WAT     H215601   0.221   6.697   2.564  0.7583  1.2805 -1.7477
 3720WAT    EPW15602   0.186   6.646   2.515  0.0365  0.4842 -0.4622
 3721WAT      O15603   4.433   1.644   5.276  0.0720  0.0442 -0.0724
 3721WAT     H115604   4.361   1.651   5.325 -0.0348  1.7232 -0.3992
 3721WAT     H215605   4.405   1.605   5.203  0.3206 -2.8983  1.2734
 3721WAT    EPW15606   4.418   1.639   5.272  0.0929 -0.1424  0.0781
 3722WAT      O15607   2.497   5.469   0.246  0.1654  0.6732  0.2117
 3722WAT     H115608   2.563   5.526   0.252 -0.4171  1.2205  1.6912
 3722WAT     H215609   2.482   5.445   0.328 -0.9854 -0.0313 -0.1769
 3722WAT    EPW15610   2.505   5.474   0.259 -0.0907  0.6500  0.3728
 3723WAT      O15611   6.772   3.527   6.458  0.2779  0.1008  0.1259
 3723WAT     H115612   6.842   3.475   6.454  0.6172  0.5928 -0.3132
 3723WAT     H215613   6.728   3.495   6.526  2.3564  1.5923  2.3055
 3723WAT    EPW15614   6.776   3.514   6.467  0.6350  0.3938  0.3830
 3724WAT      O15615   1.265   2.522   4.106  0.1108 -0.4485 -0.0494
 3724WAT     H115616   1.197   2.470   4.126  0.8817 -1.1788  0.7310
 3724WAT     H215617   1.327   2.498   4.162  1.8115 -1.3770 -2.1781
 3724WAT    EPW15618   1.264   2.511   4.117  0.4759 -0.6936 -0.2486
 3725WAT      O15619   1.453   4.600   0.084  0.8584 -0.3710  0.1879
 3725WAT     H115620   1.508   4.594   0.017  2.7149 -1.3409  1.7088
 3725WAT     H215621   1.427   4.683   0.082  1.6997 -0.1117 -1.0935
 3725WAT    EPW15622   1.457   4.611   0.074  1.2569 -0.4760  0.2233
 3726WAT      O15623   1.514   3.532   4.380  0.2149 -0.0503 -0.5516
 3726WAT     H115624   1.561   3.553   4.310  0.8351 -2.0396 -0.7882
 3726WAT     H215625   1.496   3.448   4.369 -0.9055 -0.0642  0.9942
 3726WAT    EPW15626   1.518   3.523   4.368  0.1410 -0.3462 -0.3582
 3727WAT      O15627   4.065   6.251   6.240 -0.3261  0.4755 -0.8701
 3727WAT     H115628   4.139   6.215   6.269 -1.4403 -1.3861 -0.1558
 3727WAT     H215629   4.033   6.192   6.184 -2.0011  0.4866 -0.0104
 3727WAT    EPW15630   4.071   6.237   6.236 -0.7381  0.2021 -0.6376
 3728WAT      O15631   5.073   0.671   7.117  0.2998  0.0827  0.5028
 3728WAT     H115632   5.127   0.739   7.118 -0.2699  0.5519  2.0822
 3728WAT     H215633   5.049   0.662   7.201  0.1368 -1.8872  0.2949
 3728WAT    EPW15634   5.077   0.680   7.130  0.1916 -0.1390  0.7054
 3729WAT      O15635   6.902   2.067   5.159 -0.2138  0.2519  0.0228
 3729WAT     H115636   6.819   2.091   5.174 -0.3592 -0.1739 -0.0783
 3729WAT     H215637   6.896   2.019   5.086 -0.1554 -1.2902  0.9791
 3729WAT    EPW15638   6.889   2.063   5.151 -0.2267 -0.0388  0.1491
 3730WAT      O15639   4.811   1.602   5.587 -0.1523 -0.2720 -0.1791
 3730WAT     H115640   4.888   1.564   5.602 -0.5820 -0.9460  0.3984
 3730WAT     H215641   4.822   1.684   5.616  0.4767 -0.2383 -0.5063
 3730WAT    EPW15642   4.824   1.609   5.594 -0.1229 -0.3666 -0.1421
 3731WAT      O15643   6.294   1.532   1.885 -0.3191  0.2595  0.2156
 3731WAT     H115644   6.260   1.457   1.914  0.0730  0.0153  0.0512
 3731WAT     H215645   6.371   1.509   1.852 -0.7303  0.5206 -1.0043
 3731WAT    EPW15646   6.300   1.518   1.884 -0.3219  0.2620  0.0111
 3732WAT      O15647   6.769   6.222   2.132 -0.0824 -0.4313  0.3092
 3732WAT     H115648   6.815   6.295   2.142 -1.9722  0.7880  0.5337
 3732WAT     H215649   6.763   6.212   2.045  0.8959 -0.8203  0.2776
 3732WAT    EPW15650   6.775   6.231   2.120 -0.2170 -0.3086  0.3377
 3733WAT      O15651   2.832   2.035   7.261  0.3174  0.0884 -0.0988
 3733WAT     H115652   2.907   2.014   7.300  0.7123  2.1356  0.3422
 3733WAT     H215653   2.824   1.974   7.199  1.1230 -1.5575  1.3268
 3733WAT    EPW15654   2.842   2.023   7.258  0.4947  0.1477  0.1770
 3734WAT      O15655   4.348   1.213   6.914  0.0721  0.3570 -0.0664
 3734WAT     H115656   4.266   1.241   6.903  0.3362  1.0774 -0.2108
 3734WAT     H215657   4.362   1.223   7.000  0.5094  1.6578 -0.2663
 3734WAT    EPW15658   4.338   1.218   6.925  0.1757  0.6556 -0.1173
 3735WAT      O15659   6.197   4.525   6.081 -0.5872 -0.3005  0.3715
 3735WAT     H115660   6.195   4.541   5.995 -1.6839  1.9689  0.7680
 3735WAT     H215661   6.213   4.439   6.085  0.3271 -0.3193 -2.0644
 3735WAT    EPW15662   6.199   4.515   6.069 -0.6141  0.0319  0.0702
 3736WAT      O15663   1.775   3.517   2.867  0.5329 -0.7293  0.0128
 3736WAT     H115664   1.725   3.510   2.938  0.7421  0.0780  0.2539
 3736WAT     H215665   1.850   3.552   2.898  2.0367 -3.6212 -0.0008
 3736WAT    EPW15666   1.779   3.521   2.882  0.7860 -1.0372  0.0464
 3737WAT      O15667   5.624   5.454   2.590 -0.2213  0.1224  0.3351
 3737WAT     H115668   5.660   5.530   2.611  1.2061 -0.4973  0.2542
 3737WAT     H215669   5.658   5.398   2.648  0.5337 -0.8525 -0.9728
 3737WAT    EPW15670   5.635   5.457   2.601  0.1011 -0.1132  0.1299
 3738WAT      O15671   5.353   6.114   4.758 -0.1910 -0.0078 -0.1216
 3738WAT     H115672   5.319   6.173   4.704 -0.5354  0.3811  0.5012
 3738WAT     H215673   5.416   6.158   4.799  1.3511 -0.8234 -1.5266
 3738WAT    EPW15674   5.357   6.129   4.756 -0.0141 -0.0708 -0.2371
 3739WAT      O15675   2.659   7.083   0.135 -0.1458  0.4623 -0.4651
 3739WAT     H115676   2.577   7.096   0.107 -0.2254 -0.5516 -0.7694
 3739WAT     H215677   2.653   7.009   0.182  0.6401  0.1999 -0.7560
 3739WAT    EPW15678   2.646   7.074   0.138 -0.0415  0.2738 -0.5530
 3740WAT      O15679   5.089   5.047   3.703  0.1684 -0.2119  0.3200
 3740WAT     H115680   5.066   5.115   3.654 -0.2385 -0.8427 -0.3873
 3740WAT     H215681   5.074   5.074   3.784 -1.2916  0.0789 -0.0181
 3740WAT    EPW15682   5.083   5.061   3.708 -0.1073 -0.2621  0.1656
 3741WAT      O15683   4.942   6.651   6.313  0.1344 -0.1441  0.3891
 3741WAT     H115684   4.968   6.631   6.394 -1.3526 -1.5735  0.5596
 3741WAT     H215685   4.871   6.700   6.325 -0.4617 -0.8778 -0.0190
 3741WAT    EPW15686   4.935   6.655   6.327 -0.1733 -0.4636  0.3540
 3742WAT      O15687   4.176   6.592   0.376  0.2481  0.2286  0.3582
 3742WAT     H115688   4.212   6.528   0.329  0.7737  0.2962  0.6570
 3742WAT     H215689   4.165   6.656   0.319  0.5346  0.1765  0.2433
 3742WAT    EPW15690   4.179   6.592   0.361  0.3680  0.2308  0.3854
 3743WAT      O15691   2.795   2.415   6.509  0.0868 -0.5101 -0.0024
 3743WAT     H115692   2.721   2.369   6.505 -0.4121  0.3111 -0.6498
 3743WAT     H215693   2.767   2.498   6.508  1.0245 -0.1855 -0.5138
 3743WAT    EPW15694   2.780   2.420   6.509  0.1516 -0.3408 -0.1735
 3744WAT      O15695   6.119   0.902   0.302  0.1598 -0.5461  0.5513
 3744WAT     H115696   6.077   0.859   0.365 -0.2376 -0.4112  0.3830
 3744WAT     H215697   6.188   0.936   0.343 -0.0703 -0.4993  0.9035
 3744WAT    EPW15698   6.123   0.901   0.318  0.0671 -0.5193  0.5785
 3745WAT      O15699   4.863   3.051   0.499  0.1092  0.2049  0.2894
 3745WAT     H115700   4.867   3.043   0.412 -1.3177 -2.6921  0.3709
 3745WAT     H215701   4.868   3.137   0.512  1.4244  0.6708 -2.5630
 3745WAT    EPW15702   4.864   3.063   0.488  0.0927 -0.1542 -0.1199
 3746WAT      O15703   3.919   7.013   5.861 -0.2011 -0.0367 -0.1055
 3746WAT     H115704   3.876   6.982   5.931 -0.4167  1.9181  0.7054
 3746WAT     H215705   3.855   7.048   5.812  0.1603  0.4177 -0.2601
 3746WAT    EPW15706   3.903   7.014   5.864 -0.1796  0.3192 -0.0086
 3747WAT      O15707   2.437   2.922   2.784  0.1932  0.0815  0.0812
 3747WAT     H115708   2.506   2.907   2.733  0.8787  0.1912  0.9541
 3747WAT     H215709   2.414   2.843   2.812 -1.8186 -0.3488 -2.3708
 3747WAT    EPW15710   2.443   2.908   2.781 -0.0027  0.0341 -0.1520
 3748WAT      O15711   0.857   4.033   0.882 -0.2649 -0.6006 -0.1556
 3748WAT     H115712   0.835   4.117   0.873 -0.1454 -0.4857  0.5966
 3748WAT     H215713   0.781   3.991   0.868 -0.2487 -0.3981 -0.8957
 3748WAT    EPW15714   0.842   4.039   0.879 -0.2448 -0.5537 -0.1538
 3749WAT      O15715   6.861   0.717   1.181 -0.2359 -0.8467 -0.0450
 3749WAT     H115716   6.816   0.739   1.110 -0.2223  1.1788  0.5034
 3749WAT     H215717   6.944   0.732   1.159 -0.1255 -1.2677  0.0653
 3749WAT    EPW15718   6.866   0.722   1.168 -0.2176 -0.6097  0.0523
 3750WAT      O15719   1.078   0.463   0.960 -0.2330 -0.2530  0.4099
 3750WAT     H115720   1.005   0.484   0.917  1.5000  1.6431 -1.8818
 3750WAT     H215721   1.105   0.390   0.920 -0.9517 -1.1559  1.4878
 3750WAT    EPW15722   1.071   0.455   0.948 -0.0831 -0.1063  0.2306
 3751WAT      O15723   6.364   7.110   7.305  0.2179 -0.3867 -0.2771
 3751WAT     H115724   6.350   7.087   7.388 -1.8058 -0.8478 -0.6994
 3751WAT     H215725   6.299   7.165   7.288  1.9337  1.5738 -0.9109
 3751WAT    EPW15726   6.353   7.115   7.315  0.1724 -0.1652 -0.4331
 3752WAT      O15727   4.809   0.860   3.445  0.1468  0.8182 -0.0854
 3752WAT     H115728   4.783   0.905   3.515 -2.2408 -0.7534  0.1496
 3752WAT     H215729   4.735   0.838   3.406  1.2654 -1.3624 -1.1718
 3752WAT    EPW15730   4.794   0.864   3.449 -0.0407  0.2639 -0.2112
 3753WAT      O15731   4.086   1.657   1.630  0.0031 -0.0081 -0.2267
 3753WAT     H115732   4.075   1.697   1.553  0.3240 -0.4834 -0.5242
 3753WAT     H215733   4.060   1.575   1.614 -1.4984  0.2721  0.6126
 3753WAT    EPW15734   4.080   1.650   1.616 -0.1713 -0.0369 -0.1466
 3754WAT      O15735   0.688   3.354   1.037  0.0645 -0.0173 -0.4623
 3754WAT     H115736   0.771   3.345   1.010 -0.3685  0.1701 -1.8862
 3754WAT     H215737   0.644   3.376   0.965 -1.0639  0.9669  0.4752
 3754WAT    EPW15738   0.694   3.356   1.023 -0.1662  0.1558 -0.5342
 3755WAT      O15739   2.696   1.799   5.320 -0.0050 -0.3318 -0.3974
 3755WAT     H115740   2.686   1.740   5.384 -0.2396  0.5301  0.3901
 3755WAT     H215741   2.623   1.847   5.326 -0.1001 -0.3369 -1.4317
 3755WAT    EPW15742   2.684   1.797   5.330 -0.0537 -0.2052 -0.4338
 3756WAT      O15743   2.463   0.952   6.271 -0.4051 -0.4088 -0.0988
 3756WAT     H115744   2.430   0.933   6.193 -0.5441  0.6595 -0.3079
 3756WAT     H215745   2.414   0.904   6.326 -2.5366  1.3051 -0.3650
 3756WAT    EPW15746   2.451   0.942   6.268 -0.7405  0.0022 -0.1690
 3757WAT      O15747   2.442   3.260   2.268  0.1581  0.1074  0.2301
 3757WAT     H115748   2.395   3.331   2.250  1.5433  1.0682  0.2646
 3757WAT     H215749   2.394   3.195   2.235 -0.4381  1.2002 -1.1603
 3757WAT    EPW15750   2.428   3.261   2.260  0.2746  0.4107  0.0298
 3758WAT      O15751   0.454   0.481   6.609  0.7171  0.1810  1.0178
 3758WAT     H115752   0.457   0.419   6.670  0.8772  0.4416  1.2767
 3758WAT     H215753   0.384   0.460   6.561  0.8110 -0.2351  1.0636
 3758WAT    EPW15754   0.444   0.469   6.611  0.7546  0.1580  1.0628
 3759WAT      O15755   2.509   4.388   7.020 -0.0654  0.1139 -0.0486
 3759WAT     H115756   2.492   4.366   7.102 -0.2061 -2.3653 -0.6583
 3759WAT     H215757   2.430   4.405   6.986 -0.0312  0.8715  0.2292
 3759WAT    EPW15758   2.495   4.388   7.027 -0.0812 -0.1404 -0.0976
 3760WAT      O15759   7.224   5.942   4.170  0.1377  0.5503 -0.0860
 3760WAT     H115760   7.182   5.960   4.095 -0.4148  1.0061  0.3289
 3760WAT     H215761   7.303   5.977   4.157  0.2123  0.1966 -0.6455
 3760WAT    EPW15762   7.229   5.950   4.157  0.0671  0.5654 -0.1074
 3761WAT      O15763   6.668   3.266   4.339  0.3288  0.2579 -0.0343
 3761WAT     H115764   6.725   3.312   4.387 -0.0076  1.8507 -1.0994
 3761WAT     H215765   6.719   3.210   4.295  0.7865 -0.1093  0.9251
 3761WAT    EPW15766   6.684   3.264   4.340  0.3468  0.4390 -0.0499
 3762WAT      O15767   5.905   0.853   0.533 -0.2040 -0.0854 -0.1715
 3762WAT     H115768   5.819   0.848   0.544 -0.0524 -1.6391  0.5745
 3762WAT     H215769   5.920   0.938   0.524 -2.1029  0.0502 -2.9895
 3762WAT    EPW15770   5.895   0.865   0.533 -0.4621 -0.2949 -0.4776
 3763WAT      O15771   5.751   1.326   3.967 -0.0379 -0.6964  0.5944
 3763WAT     H115772   5.817   1.381   3.953  0.1655 -1.1940 -0.4854
 3763WAT     H215773   5.786   1.247   3.955 -0.7902 -0.9753  0.1270
 3763WAT    EPW15774   5.766   1.323   3.964 -0.1190 -0.8111  0.3658
 3764WAT      O15775   2.857   1.151   2.956  0.4651  0.0251 -0.0144
 3764WAT     H115776   2.862   1.079   2.908  2.1249 -0.3607  0.6969
 3764WAT     H215777   2.805   1.128   3.022  0.4607 -0.3151 -0.1350
 3764WAT    EPW15778   2.850   1.137   2.959  0.7096 -0.0821  0.0729
 3765WAT      O15779   5.029   4.854   5.398 -0.5655  0.3540  0.2434
 3765WAT     H115780   5.106   4.895   5.394 -1.0543  1.3910  1.0567
 3765WAT     H215781   5.051   4.770   5.403  0.5594  0.6846  1.4397
 3765WAT    EPW15782   5.044   4.848   5.398 -0.4715  0.5560  0.5402
 3766WAT      O15783   2.225   6.794   0.286  0.4567  0.2277 -0.1841
 3766WAT     H115784   2.274   6.767   0.219 -0.4524 -0.2263 -0.6847
 3766WAT     H215785   2.152   6.747   0.278  0.1675  0.4679  0.8877
 3766WAT    EPW15786   2.221   6.783   0.275  0.2797  0.1961 -0.0997
 3767WAT      O15787   3.445   0.552   4.553 -0.2415  0.4262 -0.1224
 3767WAT     H115788   3.387   0.487   4.552  0.7825 -0.5267  0.4423
 3767WAT     H215789   3.500   0.531   4.489 -0.8761  1.7230 -1.1757
 3767WAT    EPW15790   3.444   0.540   4.543 -0.1840  0.4770 -0.1946
 3768WAT      O15791   6.708   4.233   7.287 -0.6290 -0.0315 -0.1419
 3768WAT     H115792   6.788   4.268   7.288 -0.0071 -1.2405 -2.1251
 3768WAT     H215793   6.719   4.154   7.322 -1.2218  0.1916  0.6003
 3768WAT    EPW15794   6.721   4.226   7.293 -0.6247 -0.1771 -0.3252
 3769WAT      O15795   6.209   4.553   2.004 -0.9016 -0.4854 -0.3597
 3769WAT     H115796   6.157   4.617   1.974 -1.4638 -1.2342 -1.0607
 3769WAT     H215797   6.289   4.585   1.995 -1.0262 -0.6266 -2.7446
 3769WAT    EPW15798   6.213   4.567   1.998 -1.0030 -0.6169 -0.8155
 3770WAT      O15799   1.080   2.826   5.107 -0.1915  0.8114 -0.1422
 3770WAT     H115800   1.049   2.810   5.187 -1.1045  3.3639  0.1135
 3770WAT     H215801   1.019   2.792   5.054  0.0383 -0.2145  0.2276
 3770WAT    EPW15802   1.066   2.819   5.111 -0.2924  1.0369 -0.0498
 3771WAT      O15803   3.454   6.696   6.384  0.2422  0.1655  0.4704
 3771WAT     H115804   3.408   6.686   6.458  1.4435  0.0145  1.2331
 3771WAT     H215805   3.477   6.614   6.364 -0.3843  0.1607 -0.3106
 3771WAT    EPW15806   3.450   6.682   6.392  0.3271  0.1424  0.4677
 3772WAT      O15807   3.578   0.336   3.704 -0.0173  0.7455 -0.1003
 3772WAT     H115808   3.547   0.256   3.688  0.9983 -0.1551  2.0954
 3772WAT     H215809   3.623   0.355   3.631  0.9668 -1.3359 -0.1181
 3772WAT    EPW15810   3.580   0.327   3.691  0.2781  0.3050  0.2215
 3773WAT      O15811   2.326   5.861   1.971 -0.4394 -0.2212 -0.4505
 3773WAT     H115812   2.397   5.810   1.977 -0.9386 -0.8335  0.3747
 3773WAT     H215813   2.264   5.807   1.942 -0.6883  0.1983 -0.7086
 3773WAT    EPW15814   2.328   5.846   1.968 -0.5499 -0.2497 -0.3667
 3774WAT      O15815   7.069   4.480   0.050  0.3448 -0.2296 -0.1307
 3774WAT     H115816   7.072   4.426   0.119  1.2691  0.7601  0.6377
 3774WAT     H215817   7.149   4.471   0.014  0.3912  0.3966 -0.1802
 3774WAT    EPW15818   7.081   4.470   0.055  0.4882  0.0091 -0.0245
 3775WAT      O15819   4.060   4.151   5.377 -0.1029 -0.6422 -0.6327
 3775WAT     H115820   4.146   4.144   5.366 -0.0341  0.6552 -1.1871
 3775WAT     H215821   4.048   4.237   5.391 -1.2679 -0.8494 -0.2320
 3775WAT    EPW15822   4.071   4.163   5.377 -0.2648 -0.4812 -0.6554
 3776WAT      O15823   2.321   0.755   6.641  0.5391 -0.2934  0.5372
 3776WAT     H115824   2.391   0.704   6.653 -0.5715 -2.0810 -0.3174
 3776WAT     H215825   2.351   0.834   6.664  2.7769 -1.0149  0.4113
 3776WAT    EPW15826   2.336   0.759   6.646  0.7056 -0.6641  0.3924
 3777WAT      O15827   5.836   6.650   4.503  0.0165  0.0386  0.0682
 3777WAT     H115828   5.907   6.627   4.549  1.1687  1.3247 -0.9901
 3777WAT     H215829   5.862   6.642   4.420 -1.3431 -0.2087 -0.3540
 3777WAT    EPW15830   5.850   6.645   4.498 -0.0141  0.1920 -0.1505
 3778WAT      O15831   5.832   0.713   4.091 -0.0025  0.1364  0.0064
 3778WAT     H115832   5.914   0.718   4.063 -0.5146 -0.1679 -1.6791
 3778WAT     H215833   5.790   0.770   4.041 -1.1936 -1.3546 -0.7952
 3778WAT    EPW15834   5.838   0.722   4.079 -0.2541 -0.1288 -0.3610
 3779WAT      O15835   2.107   4.631   6.399  0.8660  0.4126 -0.1008
 3779WAT     H115836   2.128   4.666   6.477 -0.0251  1.3535 -0.2755
 3779WAT     H215837   2.116   4.697   6.344 -0.4607  0.2725 -0.5033
 3779WAT    EPW15838   2.112   4.646   6.403  0.5384  0.5309 -0.1860
 3780WAT      O15839   0.815   4.531   2.986  0.6574  0.6413 -0.0135
 3780WAT     H115840   0.857   4.607   2.979  1.6840  0.2418  1.3246
 3780WAT     H215841   0.735   4.554   3.009 -0.2359  1.4646 -3.3650
 3780WAT    EPW15842   0.810   4.545   2.988  0.6771  0.7039 -0.3109
 3781WAT      O15843   6.470   4.706   2.319 -0.4767 -0.0215 -0.1911
 3781WAT     H115844   6.420   4.767   2.283  0.8078  0.9802 -0.3537
 3781WAT     H215845   6.418   4.669   2.379 -0.9082  2.1359  0.8512
 3781WAT    EPW15846   6.455   4.709   2.323 -0.3507  0.4452 -0.0612
 3782WAT      O15847   1.078   4.007   7.036  0.2117 -0.2751 -0.2054
 3782WAT     H115848   0.999   3.970   7.033  0.6129 -1.3688  1.4282
 3782WAT     H215849   1.131   3.940   7.052  1.6399  0.2744 -2.3201
 3782WAT    EPW15850   1.074   3.992   7.038  0.4820 -0.3555 -0.2764
 3783WAT      O15851   6.243   0.706   2.149  0.0750 -0.3909 -0.0593
 3783WAT     H115852   6.234   0.689   2.063  0.4483 -1.6025  0.1252
 3783WAT     H215853   6.326   0.729   2.157 -0.2715  0.9976 -0.2029
 3783WAT    EPW15854   6.254   0.707   2.137  0.0790 -0.3647 -0.0533
 3784WAT      O15855   0.749   1.227   1.854  0.0448 -0.7508  0.4255
 3784WAT     H115856   0.807   1.162   1.843  0.9146  0.1795 -0.7991
 3784WAT     H215857   0.688   1.210   1.795  2.0847  1.3911 -2.6062
 3784WAT    EPW15858   0.749   1.214   1.844  0.4747 -0.2970 -0.2032
 3785WAT      O15859   3.628   0.752   4.697 -0.4414 -0.0393 -0.2365
 3785WAT     H115860   3.580   0.789   4.760 -0.3812 -0.3523 -0.0032
 3785WAT     H215861   3.569   0.709   4.649 -0.3242 -0.9772  0.4402
 3785WAT    EPW15862   3.612   0.751   4.699 -0.4152 -0.2241 -0.1021
 3786WAT      O15863   5.044   4.938   0.126 -0.4244 -0.0807  1.0354
 3786WAT     H115864   5.041   4.866   0.077  0.4011 -1.7628  3.2837
 3786WAT     H215865   4.965   4.974   0.112 -0.3184 -0.5396 -1.2888
 3786WAT    EPW15866   5.032   4.933   0.116 -0.2868 -0.3970  1.0242
 3787WAT      O15867   7.032   0.410   5.708  0.4414  0.1292  1.1797
 3787WAT     H115868   7.013   0.453   5.635 -0.8830  1.4035  2.2109
 3787WAT     H215869   7.037   0.327   5.682 -2.2910  0.2311 -0.0398
 3787WAT    EPW15870   7.030   0.404   5.694 -0.1579  0.3325  1.1519
 3788WAT      O15871   0.951   1.745   4.515 -0.0687  0.4039 -0.3505
 3788WAT     H115872   0.908   1.746   4.440 -0.1679 -0.6023 -0.3210
 3788WAT     H215873   0.922   1.815   4.557 -1.1216  0.1542 -0.6457
 3788WAT    EPW15874   0.940   1.755   4.510 -0.2389  0.2184 -0.3897
 3789WAT      O15875   6.841   1.223   0.494  0.0698  0.2789 -0.6500
 3789WAT     H115876   6.822   1.278   0.429 -0.3592  0.1287 -0.6542
 3789WAT     H215877   6.766   1.216   0.538  0.3185  0.2712 -0.2167
 3789WAT    EPW15878   6.828   1.230   0.491  0.0432  0.2556 -0.5866
 3790WAT      O15879   4.682   5.444   2.621  0.2655  0.5489 -0.2735
 3790WAT     H115880   4.763   5.414   2.631 -0.2584 -1.0976 -0.7437
 3790WAT     H215881   4.680   5.469   2.537 -0.2433 -1.1826 -0.8072
 3790WAT    EPW15882   4.694   5.444   2.610  0.1130  0.0499 -0.4218
 3791WAT      O15883   7.062   5.335   0.793  0.0622 -0.4101  0.0711
 3791WAT     H115884   6.988   5.364   0.756 -1.0488 -2.2885  0.6632
 3791WAT     H215885   7.116   5.403   0.787 -1.6804  1.0108 -0.4893
 3791WAT    EPW15886   7.059   5.349   0.787 -0.3593 -0.4777  0.0758
 3792WAT      O15887   5.600   4.704   7.319 -0.0366 -0.3602 -0.6658
 3792WAT     H115888   5.542   4.667   7.266  0.8129 -0.4924 -1.5255
 3792WAT     H215889   5.677   4.689   7.280  0.6894 -0.9987  0.9068
 3792WAT    EPW15890   5.603   4.696   7.306  0.1961 -0.4740 -0.5605
 3793WAT      O15891   5.558   1.370   6.507 -0.5827 -0.3397 -0.4523
 3793WAT     H115892   5.570   1.307   6.565 -2.5193  0.5671  1.0602
 3793WAT     H215893   5.498   1.337   6.453 -0.3683 -0.4034 -0.6511
 3793WAT    EPW15894   5.551   1.356   6.507 -0.8371 -0.2152 -0.2583
 3794WAT      O15895   2.394   4.971   5.682  0.4099  0.3234  0.0255
 3794WAT     H115896   2.313   5.000   5.664 -0.1672 -0.9941  0.3552
 3794WAT     H215897   2.444   5.011   5.623 -0.0853  3.0375  1.2884
 3794WAT    EPW15898   2.389   4.981   5.671  0.2515  0.5297  0.2608
 3795WAT      O15899   6.938   4.963   5.921  0.3569 -0.2632  0.6421
 3795WAT     H115900   6.966   5.032   5.967 -0.0015  0.2432  0.1256
 3795WAT     H215901   6.984   4.896   5.954 -0.8711 -0.1767  2.6633
 3795WAT    EPW15902   6.949   4.963   5.932  0.1225 -0.1756  0.8644
 3796WAT      O15903   0.397   4.443   3.179  0.0905  0.3422  0.5048
 3796WAT     H115904   0.335   4.497   3.209 -0.1925 -0.4803  1.4310
 3796WAT     H215905   0.385   4.370   3.225  0.7075 -0.3987 -0.4735
 3796WAT    EPW15906   0.386   4.440   3.190  0.1398  0.1113  0.4971
 3797WAT      O15907   4.611   1.220   3.843  0.0807  0.2101 -0.0205
 3797WAT     H115908   4.680   1.269   3.820  0.4005  0.5205  1.5320
 3797WAT     H215909   4.545   1.277   3.846 -0.1280  0.0309 -0.8497
 3797WAT    EPW15910   4.612   1.236   3.840  0.0971  0.2295  0.0863
 3798WAT      O15911   4.480   1.440   2.300 -0.2286 -0.5517  0.2399
 3798WAT     H115912   4.481   1.456   2.386  0.7430  0.8994 -0.0122
 3798WAT     H215913   4.414   1.383   2.291 -1.7334  0.8575  1.6665
 3798WAT    EPW15914   4.470   1.434   2.311 -0.3074 -0.1292  0.4134
 3799WAT      O15915   3.082   6.958   1.332 -0.7907  0.1086 -0.3069
 3799WAT     H115916   3.166   6.980   1.327 -0.3367 -1.4434  0.2574
 3799WAT     H215917   3.049   7.016   1.388  0.5166 -0.9625  1.6551
 3799WAT    EPW15918   3.089   6.970   1.339 -0.5305 -0.2789  0.0663
 3800WAT      O15919   7.093   4.327   4.522  0.0800 -0.2498  0.0711
 3800WAT     H115920   7.157   4.295   4.572  0.7790 -0.2995 -0.8387
 3800WAT     H215921   7.063   4.394   4.570 -1.4292 -2.1641  2.0053
 3800WAT    EPW15922   7.098   4.332   4.536 -0.0397 -0.5399  0.2224
 3801WAT      O15923   0.549   2.244   2.856  0.1607 -0.2754 -0.2777
 3801WAT     H115924   0.587   2.237   2.778 -1.5835 -0.0145 -1.2146
 3801WAT     H215925   0.525   2.162   2.874 -2.2211  0.0344 -1.5838
 3801WAT    EPW15926   0.551   2.231   2.847 -0.4488 -0.1911 -0.6091
 3802WAT      O15927   4.182   4.427   6.911  0.3766  0.6396  0.5283
 3802WAT     H115928   4.121   4.479   6.944 -0.5388  0.3558 -0.6556
 3802WAT     H215929   4.162   4.348   6.942  0.7170  0.6982  0.9057
 3802WAT    EPW15930   4.170   4.423   6.920  0.2917  0.6064  0.4091
 3803WAT      O15931   4.090   0.201   6.373 -0.0798  0.5649 -0.3128
 3803WAT     H115932   4.099   0.115   6.377  0.0838  0.4870 -1.7655
 3803WAT     H215933   4.099   0.227   6.455 -2.5531 -1.0077  0.5759
 3803WAT    EPW15934   4.092   0.192   6.385 -0.4210  0.3211 -0.3961
 3804WAT      O15935   7.175   5.487   6.814 -0.2763  0.3921 -0.6241
 3804WAT     H115936   7.133   5.513   6.886 -0.5181 -1.2149 -0.1338
 3804WAT     H215937   7.208   5.561   6.781  1.5068  0.9680  2.1642
 3804WAT    EPW15938   7.173   5.502   6.820 -0.0486  0.2398 -0.1398
 3805WAT      O15939   6.236   1.497   6.116 -0.1791  0.0025 -0.2638
 3805WAT     H115940   6.149   1.508   6.107 -0.1266  0.2904 -0.4344
 3805WAT     H215941   6.242   1.433   6.175 -0.5088  0.1151 -0.1017
 3805WAT    EPW15942   6.224   1.489   6.124 -0.2200  0.0617 -0.2651
 3806WAT      O15943   5.931   4.430   5.991 -0.2703 -0.0942  0.2220
 3806WAT     H115944   5.983   4.473   6.047 -0.5234 -0.6975  0.9406
 3806WAT     H215945   5.938   4.347   6.017  0.7031 -0.5974 -1.5419
 3806WAT    EPW15946   5.940   4.424   6.003 -0.1639 -0.2577  0.0676
 3807WAT      O15947   0.069   2.827   7.001  0.0679 -0.5207 -0.2137
 3807WAT     H115948   0.019   2.757   6.990 -1.5750  0.0099  2.6625
 3807WAT     H215949   0.053   2.875   6.930 -3.3822 -0.5476  0.3661
 3807WAT    EPW15950   0.059   2.824   6.989 -0.6844 -0.4463  0.2968
 3808WAT      O15951   0.726   7.072   4.877  0.0590 -0.2402 -0.4402
 3808WAT     H115952   0.810   7.057   4.896  0.0544 -0.1389 -0.3379
 3808WAT     H215953   0.695   6.993   4.856  0.1103 -0.3267 -0.2015
 3808WAT    EPW15954   0.734   7.058   4.877  0.0659 -0.2380 -0.3898
 3809WAT      O15955   2.580   4.711   0.555  0.0752 -0.1174  0.2076
 3809WAT     H115956   2.500   4.680   0.573 -1.2536  1.6281 -2.0441
 3809WAT     H215957   2.588   4.698   0.469  2.5044 -0.7339  0.4563
 3809WAT    EPW15958   2.569   4.705   0.545  0.2378  0.0494 -0.0883
 3810WAT      O15959   1.108   2.223   0.274  0.6488  0.7397 -0.4441
 3810WAT     H115960   1.144   2.271   0.337  0.2751  1.5077 -0.8064
 3810WAT     H215961   1.036   2.267   0.252  0.3743  0.0913 -0.8929
 3810WAT    EPW15962   1.103   2.236   0.280  0.5530  0.7574 -0.5639
 3811WAT      O15963   1.580   4.220   6.206 -0.2639 -0.5012 -0.1669
 3811WAT     H115964   1.493   4.216   6.210 -0.1994 -1.7039  2.6766
 3811WAT     H215965   1.596   4.300   6.176 -2.3624  0.0565  0.0510
 3811WAT    EPW15966   1.569   4.231   6.202 -0.5644 -0.5965  0.2853
 3812WAT      O15967   3.734   2.037   0.178  0.4268 -0.4503 -0.0806
 3812WAT     H115968   3.801   2.093   0.175 -0.6466  1.0178  1.5176
 3812WAT     H215969   3.766   1.965   0.140  2.2931  0.7935 -1.0084
 3812WAT    EPW15970   3.749   2.035   0.172  0.5439 -0.0497  0.0184
 3813WAT      O15971   6.953   1.161   3.967 -0.0994 -0.1921 -0.1899
 3813WAT     H115972   6.981   1.168   3.885 -1.0172 -0.3299 -0.5259
 3813WAT     H215973   6.940   1.244   3.992 -0.5837 -0.1882 -0.4563
 3813WAT    EPW15974   6.955   1.174   3.959 -0.3065 -0.2119 -0.2789
 3814WAT      O15975   0.472   0.380   5.286  0.1474  0.5064  0.3997
 3814WAT     H115976   0.430   0.347   5.217 -0.0620  2.0217 -0.2469
 3814WAT     H215977   0.521   0.443   5.252  0.3284  1.0389  1.5886
 3814WAT    EPW15978   0.473   0.384   5.271  0.1432  0.8089  0.4798
 3815WAT      O15979   3.268   6.432   5.627 -0.4404  0.2524  0.3914
 3815WAT     H115980   3.317   6.497   5.597 -0.4500  1.1926  2.2698
 3815WAT     H215981   3.188   6.449   5.597  0.0236 -0.3803 -1.3009
 3815WAT    EPW15982   3.263   6.444   5.618 -0.3733  0.2978  0.4189
 3816WAT      O15983   1.469   6.772   5.727 -0.9131 -0.5158  0.1038
 3816WAT     H115984   1.427   6.828   5.780  0.3616  1.0416 -0.4499
 3816WAT     H215985   1.554   6.787   5.745 -0.5203 -2.0341 -0.3375
 3816WAT    EPW15986   1.476   6.783   5.738 -0.6667 -0.5100 -0.0432
 3817WAT      O15987   0.149   2.945   3.461 -0.1526  0.1418  0.1004
 3817WAT     H115988   0.091   2.887   3.491  0.3156 -0.2161  0.3316
 3817WAT     H215989   0.175   2.986   3.533 -0.4517  0.6209 -0.0577
 3817WAT    EPW15990   0.144   2.943   3.476 -0.1276  0.1597  0.1112
 3818WAT      O15991   7.226   3.653   2.119  0.2228  0.2505 -0.4609
 3818WAT     H115992   7.295   3.697   2.150 -0.1718  1.3629 -1.1220
 3818WAT     H215993   7.208   3.693   2.044 -0.2952 -0.9132 -0.9847
 3818WAT    EPW15994   7.234   3.666   2.112  0.0880  0.2429 -0.6359
 3819WAT      O15995   3.159   6.278   4.534  0.4439  0.5710 -0.3565
 3819WAT     H115996   3.197   6.223   4.478 -0.3709 -2.7235  1.9906
 3819WAT     H215997   3.085   6.302   4.493  0.2042 -1.1812 -1.0388
 3819WAT    EPW15998   3.153   6.274   4.519  0.2882 -0.1745 -0.1106
 3820WAT      O15999   5.615   7.055   2.725  0.3199  0.0155  0.2025
 3820WAT     H116000   5.693   7.040   2.690 -0.9012  0.4071 -2.9895
 3820WAT     H216001   5.606   6.990   2.782  2.4250 -0.7768 -0.2756
 3820WAT    EPW16002   5.625   7.043   2.728  0.4505 -0.0437 -0.3397
 3821WAT      O16003   4.923   0.957   0.580 -0.2968 -0.4543 -0.2096
 3821WAT     H116004   4.972   1.030   0.580 -1.5285  0.4583 -2.3652
 3821WAT     H216005   4.978   0.895   0.557  1.0222 -0.4921  2.6163
 3821WAT    EPW16006   4.938   0.959   0.577 -0.2839 -0.3251 -0.1106
 3822WAT      O16007   5.992   1.980   7.017  0.0057  0.3466 -0.5343
 3822WAT     H116008   6.075   1.969   6.993  0.0442  0.2044 -0.3390
 3822WAT     H216009   5.968   2.052   6.975 -0.5913 -1.0417 -2.7711
 3822WAT    EPW16010   6.001   1.989   7.007 -0.0768  0.1205 -0.8359
 3823WAT      O16011   7.318   0.908   2.977 -0.3551  0.3890 -0.0943
 3823WAT     H116012   7.332   0.953   2.903  3.0204  0.5256  0.4592
 3823WAT     H216013   7.299   0.970   3.035  2.0728  0.9607  0.1798
 3823WAT    EPW16014   7.317   0.924   2.974  0.5022  0.4937  0.0280
 3824WAT      O16015   0.250   5.037   6.247 -0.4786  0.0572 -0.2314
 3824WAT     H116016   0.325   5.083   6.245 -0.2390 -0.3090  0.1680
 3824WAT     H216017   0.267   4.968   6.196 -0.3412 -0.3279  0.3320
 3824WAT    EPW16018   0.264   5.034   6.239 -0.4229 -0.0538 -0.0892
 3825WAT      O16019   3.490   0.860   1.758 -0.8003 -0.1957  0.3693
 3825WAT     H116020   3.529   0.800   1.808  2.9048  2.8588  1.6274
 3825WAT     H216021   3.447   0.910   1.815 -2.8022 -0.7976 -0.5116
 3825WAT    EPW16022   3.490   0.859   1.774 -0.5487  0.1666  0.4250
 3826WAT      O16023   4.380   4.998   0.852  0.7078  0.2793  0.1819
 3826WAT     H116024   4.304   4.971   0.820  0.0144  1.3121  0.8947
 3826WAT     H216025   4.435   4.988   0.786 -0.2199  0.2711 -0.6098
 3826WAT    EPW16026   4.377   4.993   0.838  0.4683  0.4307  0.1703
 3827WAT      O16027   5.470   3.174   2.920  0.1361 -0.2692 -0.8060
 3827WAT     H116028   5.493   3.091   2.934  0.8068  0.0870  0.2986
 3827WAT     H216029   5.538   3.220   2.949  0.4598  0.6639 -2.8400
 3827WAT    EPW16030   5.483   3.169   2.926  0.2830 -0.0787 -0.9433
 3828WAT      O16031   7.150   5.737   6.409  0.4937 -0.4399 -0.9044
 3828WAT     H116032   7.066   5.750   6.429 -0.8873 -1.2431 -5.1624
 3828WAT     H216033   7.174   5.812   6.372  1.9123 -0.0343  0.7136
 3828WAT    EPW16034   7.142   5.750   6.406  0.4993 -0.4986 -1.2944
 3829WAT      O16035   1.654   1.043   2.115 -0.0147  0.5696 -0.4069
 3829WAT     H116036   1.639   1.036   2.201 -0.5589  2.1592 -0.3554
 3829WAT     H216037   1.740   1.056   2.111  0.2555 -0.9545 -0.2245
 3829WAT    EPW16038   1.665   1.044   2.127 -0.0552  0.5793 -0.3724
 3830WAT      O16039   3.251   0.780   2.097 -0.2559  0.0805  0.1083
 3830WAT     H116040   3.181   0.738   2.066  0.1683 -1.0275  0.6351
 3830WAT     H216041   3.222   0.814   2.172 -0.2714 -0.2538  0.2549
 3830WAT    EPW16042   3.236   0.779   2.104 -0.1956 -0.1326  0.2078
 3831WAT      O16043   6.845   5.186   1.776  0.0434  0.5767  0.0481
 3831WAT     H116044   6.829   5.207   1.859  2.6711 -1.5875  1.2725
 3831WAT     H216045   6.818   5.103   1.770 -0.7090  0.8943 -1.5064
 3831WAT    EPW16046   6.838   5.177   1.787  0.3204  0.3039 -0.0006
 3832WAT      O16047   1.482   5.056   6.116 -0.2398 -0.2284  0.4498
 3832WAT     H116048   1.443   4.989   6.156  0.9421 -0.6241  0.9831
 3832WAT     H216049   1.466   5.124   6.169 -2.0403  0.0882 -0.4487
 3832WAT    EPW16050   1.474   5.056   6.130 -0.3312 -0.2401  0.3958
 3833WAT      O16051   0.103   6.823   1.462  0.3783 -0.5756  0.5157
 3833WAT     H116052   0.140   6.770   1.521 -0.1343 -0.6566  0.7761
 3833WAT     H216053   0.020   6.829   1.490  0.3963  0.2393  0.3978
 3833WAT    EPW16054   0.096   6.816   1.475  0.3053 -0.4672  0.5368
 3834WAT      O16055   1.984   7.046   6.865 -0.1847  0.0117  0.0584
 3834WAT     H116056   1.987   6.981   6.806  0.6269 -0.3966  0.5446
 3834WAT     H216057   1.985   7.004   6.941  0.8102  0.6148  0.3854
 3834WAT    EPW16058   1.984   7.030   6.867  0.0822  0.0405  0.1786
 3835WAT      O16059   5.095   6.552   4.424  0.0048  0.2912  0.1286
 3835WAT     H116060   5.097   6.480   4.375 -0.6275 -0.9577  1.8321
 3835WAT     H216061   5.015   6.584   4.411 -1.3911 -1.8220  2.6335
 3835WAT    EPW16062   5.083   6.546   4.415 -0.2948 -0.2055  0.7503
 3836WAT      O16063   5.944   0.263   0.518  0.1961  0.0649  0.1512
 3836WAT     H116064   6.011   0.262   0.574  2.4656  0.2542 -2.3651
 3836WAT     H216065   5.901   0.189   0.536  1.2793 -0.2568  1.5891
 3836WAT    EPW16066   5.947   0.252   0.529  0.6914  0.0454 -0.0081
 3837WAT      O16067   4.809   1.329   7.064  0.1508  0.3083  0.4172
 3837WAT     H116068   4.806   1.256   7.016  0.8004 -0.2844  1.2641
 3837WAT     H216069   4.778   1.305   7.141 -2.2621  1.6050 -0.0605
 3837WAT    EPW16070   4.804   1.315   7.068 -0.1097  0.4123  0.4718
 3838WAT      O16071   7.263   0.318   7.179 -0.3236  0.0149 -0.3530
 3838WAT     H116072   7.237   0.400   7.195  1.5871  0.7994 -1.0121
 3838WAT     H216073   7.266   0.282   7.259 -0.2594  0.8785  0.0530
 3838WAT    EPW16074   7.260   0.325   7.193 -0.0318  0.2584 -0.3904
 3839WAT      O16075   4.362   2.035   5.509  0.2536  0.2536  0.8769
 3839WAT     H116076   4.299   2.024   5.449  0.9483 -1.7427  0.4374
 3839WAT     H216077   4.428   1.987   5.479  1.7901  1.7734  1.6646
 3839WAT    EPW16078   4.362   2.026   5.496  0.5832  0.1832  0.9284
 3840WAT      O16079   5.953   7.182   0.740 -0.5241 -0.4810 -0.3353
 3840WAT     H116080   5.924   7.234   0.804  0.0209 -0.8504  0.2176
 3840WAT     H216081   5.896   7.196   0.676  0.1073  1.4762 -0.5373
 3840WAT    EPW16082   5.940   7.192   0.740 -0.3504 -0.2465 -0.2835
 3841WAT      O16083   6.968   0.725   0.360 -0.6275  0.2038 -0.3883
 3841WAT     H116084   6.915   0.794   0.370 -0.0446  0.6316 -0.2366
 3841WAT     H216085   6.918   0.658   0.385 -1.4144  0.4795 -1.1431
 3841WAT    EPW16086   6.953   0.725   0.365 -0.6577  0.3077 -0.4774
 3842WAT      O16087   5.898   4.509   1.213 -0.0504  0.0438 -0.0132
 3842WAT     H116088   5.907   4.596   1.219 -0.1000  0.1370 -1.0772
 3842WAT     H216089   5.947   4.488   1.143 -1.0052 -0.6097 -0.5037
 3842WAT    EPW16090   5.907   4.519   1.203 -0.1988 -0.0390 -0.2428
 3843WAT      O16091   6.463   6.204   0.689  0.0150  0.2943 -0.0602
 3843WAT     H116092   6.442   6.280   0.727  0.5239 -0.1210  1.1077
 3843WAT     H216093   6.484   6.153   0.756 -0.6532 -1.0066 -0.8029
 3843WAT    EPW16094   6.463   6.208   0.705 -0.0085  0.0408  0.0026
 3844WAT      O16095   2.491   3.002   7.023  0.0733 -0.4810  0.5697
 3844WAT     H116096   2.424   2.989   7.078 -0.0960  2.8092  1.3388
 3844WAT     H216097   2.454   3.042   6.954  0.9409 -0.5717  0.0385
 3844WAT    EPW16098   2.475   3.006   7.021  0.1765 -0.0084  0.6048
 3845WAT      O16099   5.780   4.455   2.577  0.5498  0.3283  1.0272
 3845WAT     H116100   5.816   4.473   2.655  1.4041  2.9054  0.1699
 3845WAT     H216101   5.845   4.470   2.521 -0.5232  0.3000 -0.2774
 3845WAT    EPW16102   5.795   4.460   2.580  0.5175  0.7048  0.7078
 3846WAT      O16103   6.077   6.012   4.309  0.2068 -0.2915  0.1708
 3846WAT     H116104   6.073   5.989   4.225  0.8461 -1.9633  0.5580
 3846WAT     H216105   6.005   6.061   4.320 -0.4212 -0.8764 -1.0982
 3846WAT    EPW16106   6.066   6.016   4.298  0.2084 -0.6249  0.0406
 3847WAT      O16107   6.688   5.898   2.883  0.1803 -0.0954 -0.1519
 3847WAT     H116108   6.768   5.932   2.876  0.2035 -0.1110  0.0167
 3847WAT     H216109   6.703   5.816   2.910  0.1325 -0.3033 -0.7412
 3847WAT    EPW16110   6.702   5.891   2.886  0.1766 -0.1284 -0.2140
 3848WAT      O16111   0.155   0.176   5.476  0.1582 -0.7622 -0.1992
 3848WAT     H116112   0.211   0.126   5.432  1.4852  0.7980 -0.3531
 3848WAT     H216113   0.191   0.183   5.555  0.2987  0.4130 -0.3547
 3848WAT    EPW16114   0.169   0.170   5.482  0.3750 -0.3581 -0.2449
 3849WAT      O16115   1.410   3.122   5.633  0.2037 -0.2310 -1.0714
 3849WAT     H116116   1.408   3.191   5.686  1.5447 -1.7489  1.0755
 3849WAT     H216117   1.379   3.154   5.558 -1.9340  2.0003  0.5861
 3849WAT    EPW16118   1.405   3.137   5.630  0.0860 -0.1256 -0.5095
 3850WAT      O16119   2.812   3.212   1.415  0.5304 -0.1016 -0.6610
 3850WAT     H116120   2.815   3.279   1.471  2.2350 -0.2777 -0.4761
 3850WAT     H216121   2.743   3.166   1.440  0.6767  0.3682  0.6632
 3850WAT    EPW16122   2.802   3.215   1.427  0.8038 -0.0582 -0.4381
 3851WAT      O16123   0.708   6.584   6.823 -0.3735 -0.0100  0.7900
 3851WAT     H116124   0.777   6.534   6.801 -0.3671 -0.2028  1.2171
 3851WAT     H216125   0.738   6.665   6.816 -0.4455 -0.0511 -0.1198
 3851WAT    EPW16126   0.723   6.588   6.819 -0.3832 -0.0446  0.7187
 3852WAT      O16127   5.386   3.533   4.614  0.1305 -0.7759  0.1510
 3852WAT     H116128   5.440   3.490   4.666  0.3372  0.7672  1.2673
 3852WAT     H216129   5.417   3.614   4.614 -0.4666 -0.5048 -1.5712
 3852WAT    EPW16130   5.399   3.538   4.621  0.0729 -0.5079  0.0615
 3853WAT      O16131   0.547   4.734   5.378 -0.0525 -0.0693 -0.3701
 3853WAT     H116132   0.462   4.730   5.359 -0.1589  0.1839  0.0346
 3853WAT     H216133   0.566   4.654   5.407 -0.3353  0.0833  0.2608
 3853WAT    EPW16134   0.537   4.722   5.379 -0.1100 -0.0094 -0.2171
 3854WAT      O16135   7.131   6.317   6.009 -0.2256 -0.0646  0.6896
 3854WAT     H116136   7.047   6.327   5.989  0.5088  1.2579 -2.3321
 3854WAT     H216137   7.132   6.248   6.062 -2.9987 -1.5635 -0.9713
 3854WAT    EPW16138   7.119   6.308   6.014 -0.5268 -0.0906 -0.0021
 3855WAT      O16139   1.770   4.217   5.038  0.5186  0.1683  0.2450
 3855WAT     H116140   1.793   4.150   4.987  1.5615  0.8399 -0.2032
 3855WAT     H216141   1.801   4.195   5.116  0.5922 -0.0160  0.1642
 3855WAT    EPW16142   1.778   4.204   5.042  0.6835  0.2403  0.1668
 3856WAT      O16143   5.027   4.416   1.577 -0.0720 -0.4200  0.1646
 3856WAT     H116144   5.086   4.364   1.540 -0.5539 -0.9756  0.1568
 3856WAT     H216145   5.074   4.481   1.610  0.3993 -0.0781 -1.1446
 3856WAT    EPW16146   5.042   4.418   1.577 -0.0736 -0.4515 -0.0299
 3857WAT      O16147   5.435   2.337   4.561 -0.2421 -0.1248  0.0117
 3857WAT     H116148   5.522   2.331   4.570 -0.2821  0.7826  1.3281
 3857WAT     H216149   5.421   2.423   4.566 -1.2005 -0.2438 -0.4924
 3857WAT    EPW16150   5.446   2.349   4.563 -0.3896 -0.0083  0.1317
 3858WAT      O16151   4.456   4.774   5.641  0.1846  0.5800 -0.1878
 3858WAT     H116152   4.436   4.757   5.558 -1.1283  0.5379  0.1177
 3858WAT     H216153   4.456   4.696   5.680 -0.1574  0.6894  0.0407
 3858WAT    EPW16154   4.453   4.760   5.635 -0.0599  0.5899 -0.1089
 3859WAT      O16155   6.729   3.437   1.115 -0.1920 -0.0922  0.3378
 3859WAT     H116156   6.674   3.489   1.072 -1.4663 -1.1531  0.6381
 3859WAT     H216157   6.798   3.489   1.129 -0.4617  0.8287 -1.3661
 3859WAT    EPW16158   6.731   3.452   1.111 -0.4201 -0.1129  0.1305
 3860WAT      O16159   1.828   6.977   0.894 -1.2023  0.4742  0.0454
 3860WAT     H116160   1.884   6.910   0.886 -0.5296  0.4385  3.4203
 3860WAT     H216161   1.878   7.047   0.883 -0.7115  0.4181  1.6432
 3860WAT    EPW16162   1.844   6.977   0.891 -1.0304  0.4606  0.7800
 3861WAT      O16163   3.953   5.661   4.599  0.1492 -0.1858 -0.5134
 3861WAT     H116164   3.872   5.635   4.578 -0.4000 -0.2072  1.3647
 3861WAT     H216165   3.983   5.596   4.648  0.5261  0.6865  0.4528
 3861WAT    EPW16166   3.945   5.648   4.603  0.1237 -0.0601 -0.0932
 3862WAT      O16167   6.067   0.654   0.635 -0.0189  0.0294 -0.5423
 3862WAT     H116168   6.014   0.613   0.690 -0.3678 -0.8248 -1.4960
 3862WAT     H216169   6.016   0.716   0.599  0.1231  0.3766 -0.1558
 3862WAT    EPW16170   6.052   0.657   0.638 -0.0494 -0.0455 -0.6261
 3863WAT      O16171   4.778   0.397   3.320  0.2396 -0.5708 -0.1236
 3863WAT     H116172   4.852   0.391   3.365  1.6001 -0.0094 -2.1469
 3863WAT     H216173   4.761   0.315   3.298 -0.5361 -0.8777  1.4436
 3863WAT    EPW16174   4.787   0.384   3.324  0.3260 -0.5332 -0.1910
 3864WAT      O16175   5.713   5.023   2.285  0.0439  0.5965  0.1611
 3864WAT     H116176   5.661   5.060   2.345  0.6629  0.3725  0.8651
 3864WAT     H216177   5.786   5.007   2.330 -0.2849 -1.7259 -0.0515
 3864WAT    EPW16178   5.716   5.026   2.301  0.0868  0.2204  0.2337
 3865WAT      O16179   5.007   3.665   2.863  0.3710  0.0992  0.0570
 3865WAT     H116180   5.085   3.625   2.858  0.0454 -0.6234  0.5266
 3865WAT     H216181   5.023   3.737   2.909  0.9543  0.4783 -0.7184
 3865WAT    EPW16182   5.021   3.670   2.869  0.4091  0.0484  0.0118
 3866WAT      O16183   6.633   4.677   3.872 -0.1655  0.6275 -0.4534
 3866WAT     H116184   6.718   4.691   3.887  0.1370  0.1144 -1.5650
 3866WAT     H216185   6.632   4.643   3.792 -1.4442  0.7816 -0.5220
 3866WAT    EPW16186   6.646   4.674   3.862 -0.3097  0.5745 -0.6278
 3867WAT      O16187   1.853   5.219   7.035  0.2668 -0.1206 -0.5461
 3867WAT     H116188   1.854   5.282   6.974 -0.5063  0.0035 -0.4504
 3867WAT     H216189   1.799   5.160   7.001  1.6393 -1.1379 -1.0116
 3867WAT    EPW16190   1.845   5.220   7.021  0.3554 -0.2526 -0.6007
 3868WAT      O16191   3.429   4.897   0.908 -0.2165 -0.1359  0.8558
 3868WAT     H116192   3.493   4.940   0.867 -0.3449  1.3380  2.1561
 3868WAT     H216193   3.365   4.894   0.848  1.0663 -1.8618 -0.5643
 3868WAT    EPW16194   3.429   4.903   0.893 -0.0460 -0.1731  0.8381
 3869WAT      O16195   7.075   1.318   2.011 -0.1205 -0.1203  0.2997
 3869WAT     H116196   7.049   1.262   2.073 -0.6832 -0.7704 -0.4995
 3869WAT     H216197   7.011   1.313   1.951  0.6717  0.0871 -0.5845
 3869WAT    EPW16198   7.062   1.309   2.011 -0.0866 -0.1857  0.0510
 3870WAT      O16199   6.930   0.046   3.416  0.2853 -0.4201 -0.6602
 3870WAT     H116200   7.009   0.049   3.379  0.9240 -1.2664  0.5604
 3870WAT     H216201   6.945   0.008   3.493 -1.6833 -2.9433 -1.4037
 3870WAT    EPW16202   6.944   0.041   3.422  0.0888 -0.9179 -0.5897
 3871WAT      O16203   1.216   3.429   1.872 -0.5359 -0.0768  0.5768
 3871WAT     H116204   1.251   3.394   1.800 -1.2735  0.5420 -0.0972
 3871WAT     H216205   1.131   3.435   1.853 -0.3144  3.1768  0.1473
 3871WAT    EPW16206   1.209   3.425   1.858 -0.6121  0.4952  0.4138
 3872WAT      O16207   7.200   3.855   3.283  0.3378  0.0011  0.9390
 3872WAT     H116208   7.201   3.821   3.363 -0.2611 -0.1107  0.9048
 3872WAT     H216209   7.198   3.785   3.231 -0.7167  0.0774  0.8632
 3872WAT    EPW16210   7.200   3.840   3.287  0.0935 -0.0041  0.9227
 3873WAT      O16211   4.006   3.374   7.180  0.1586 -0.3560  0.1693
 3873WAT     H116212   4.047   3.391   7.104 -0.8538 -3.2097 -1.1591
 3873WAT     H216213   4.067   3.333   7.227  0.8537  1.6033  1.0831
 3873WAT    EPW16214   4.021   3.370   7.175  0.1117 -0.4881  0.1080
 3874WAT      O16215   4.333   4.503   0.153  0.4245  0.2001  0.0052
 3874WAT     H116216   4.268   4.546   0.113 -0.2080 -0.8734 -0.1551
 3874WAT     H216217   4.404   4.544   0.125 -0.0773  0.2173 -1.3183
 3874WAT    EPW16218   4.334   4.516   0.143  0.2569  0.0441 -0.2140
 3875WAT      O16219   1.558   3.852   1.064  0.0979  0.0859  0.2741
 3875WAT     H116220   1.577   3.907   1.000  2.8405  1.2349  1.8905
 3875WAT     H216221   1.636   3.825   1.092 -0.9716 -0.8299  2.7201
 3875WAT    EPW16222   1.572   3.856   1.059  0.3451  0.1204  0.8742
 3876WAT      O16223   2.175   1.496   7.133 -0.5175 -0.5634  0.5532
 3876WAT     H116224   2.182   1.578   7.162 -0.3225 -0.5231  0.3894
 3876WAT     H216225   2.126   1.457   7.195  1.0229 -0.8277  1.6605
 3876WAT    EPW16226   2.168   1.502   7.147 -0.2612 -0.5965  0.6926
 3877WAT      O16227   2.128   5.072   5.897  0.2489  0.0856 -0.3622
 3877WAT     H116228   2.207   5.034   5.900 -0.1552 -0.8341 -0.8512
 3877WAT     H216229   2.140   5.138   5.841  0.4859 -0.5374 -1.0717
 3877WAT    EPW16230   2.142   5.076   5.889  0.2242 -0.1423 -0.5393
 3878WAT      O16231   6.821   4.499   4.887 -0.2469  0.5272 -0.1096
 3878WAT     H116232   6.839   4.457   4.961  1.5517 -0.9783 -1.3055
 3878WAT     H216233   6.774   4.567   4.913 -1.5352 -1.0847  2.1910
 3878WAT    EPW16234   6.817   4.503   4.902 -0.1715  0.0667  0.0536
 3879WAT      O16235   6.068   4.801   3.553 -0.1440 -0.1153 -0.2140
 3879WAT     H116236   6.090   4.879   3.521 -2.8821  1.2219  0.8405
 3879WAT     H216237   6.039   4.819   3.633  1.9070 -2.7060  1.2709
 3879WAT    EPW16238   6.067   4.815   3.560 -0.2455 -0.3005  0.1611
 3880WAT      O16239   2.742   6.143   5.233  0.0963 -0.2821  0.0858
 3880WAT     H116240   2.819   6.107   5.252  0.4222  0.9978  1.3862
 3880WAT     H216241   2.698   6.139   5.308 -0.6082  0.2306 -0.2841
 3880WAT    EPW16242   2.747   6.137   5.247  0.0404 -0.0173  0.2232
 3881WAT      O16243   6.907   4.823   4.774 -0.0278 -0.4893  0.5744
 3881WAT     H116244   6.923   4.810   4.859  1.7097  1.9976  0.7313
 3881WAT     H216245   6.979   4.863   4.746 -1.1280  0.0062 -1.7765
 3881WAT    EPW16246   6.920   4.827   4.782  0.0663 -0.0487  0.2503
 3882WAT      O16247   0.244   5.006   2.391 -0.1821 -0.7292 -0.5208
 3882WAT     H116248   0.221   5.042   2.314  2.9834  0.2319 -1.1942
 3882WAT     H216249   0.239   5.073   2.447 -0.7301 -0.9708 -0.2756
 3882WAT    EPW16250   0.240   5.022   2.388  0.2045 -0.6230 -0.5840
 3883WAT      O16251   3.103   5.430   2.175 -0.8088  0.3131  0.2942
 3883WAT     H116252   3.165   5.443   2.115  1.1444 -0.5049  2.0186
 3883WAT     H216253   3.138   5.461   2.248 -1.4341 -2.3262  1.8391
 3883WAT    EPW16254   3.117   5.437   2.177 -0.6127 -0.1976  0.7771
 3884WAT      O16255   4.776   1.998   6.700 -0.3711 -0.4142 -0.1795
 3884WAT     H116256   4.823   2.013   6.629  0.7351  1.2657  0.8270
 3884WAT     H216257   4.742   1.919   6.686  0.4286 -0.4659 -2.1981
 3884WAT    EPW16258   4.778   1.989   6.688 -0.0896 -0.1737 -0.3290
 3885WAT      O16259   4.259   0.933   4.058 -0.2082 -0.0159  0.6007
 3885WAT     H116260   4.275   0.990   4.122 -3.3828  1.1754  0.5432
 3885WAT     H216261   4.194   0.885   4.090  0.9385 -2.2360 -0.2112
 3885WAT    EPW16262   4.252   0.935   4.072 -0.5078 -0.1679  0.4723
 3886WAT      O16263   4.391   3.093   4.712 -0.0733  0.3965 -0.0939
 3886WAT     H116264   4.392   3.010   4.685 -1.1704  0.3160  0.0545
 3886WAT     H216265   4.338   3.132   4.654  1.7702  1.3912 -1.1975
 3886WAT    EPW16266   4.383   3.087   4.699  0.0370  0.5315 -0.2350
 3887WAT      O16267   2.242   4.949   6.476 -0.2246  0.0400 -0.7200
 3887WAT     H116268   2.208   4.898   6.539 -0.4279  0.4429 -0.5004
 3887WAT     H216269   2.320   4.913   6.462  1.0599  1.5432  1.7812
 3887WAT    EPW16270   2.248   4.936   6.483 -0.0649  0.3216 -0.3181
 3888WAT      O16271   1.352   6.480   3.109 -0.0321 -0.3588  0.0540
 3888WAT     H116272   1.437   6.500   3.113 -0.0591 -0.1537 -0.4164
 3888WAT     H216273   1.344   6.415   3.167 -0.3681  2.4858  3.6141
 3888WAT    EPW16274   1.363   6.473   3.118 -0.0857  0.0917  0.5104
 3889WAT      O16275   0.778   5.462   6.114 -0.6255 -0.5444  0.0362
 3889WAT     H116276   0.829   5.393   6.103  0.1498  0.1761 -1.2422
 3889WAT     H216277   0.737   5.470   6.037 -1.2710 -0.0259  0.4175
 3889WAT    EPW16278   0.779   5.453   6.101 -0.6063 -0.3614 -0.0963
 3890WAT      O16279   1.336   3.580   5.744 -0.2510 -0.0176 -0.1330
 3890WAT     H116280   1.369   3.661   5.735  2.0363 -0.9542 -0.8054
 3890WAT     H216281   1.356   3.541   5.669 -0.2679 -1.5401  0.6231
 3890WAT    EPW16282   1.344   3.586   5.732  0.0844 -0.3808 -0.1206
 3891WAT      O16283   4.013   5.391   5.015 -0.4586 -0.0959 -0.1524
 3891WAT     H116284   4.094   5.385   5.046 -0.4318  0.5599 -0.0717
 3891WAT     H216285   3.974   5.318   5.043 -0.7765  0.9436  2.4342
 3891WAT    EPW16286   4.019   5.380   5.024 -0.5016  0.1546  0.2417
 3892WAT      O16287   1.177   0.204   3.404 -0.2315  0.0242 -0.0516
 3892WAT     H116288   1.161   0.118   3.407  0.7517 -0.1461  1.2310
 3892WAT     H216289   1.110   0.236   3.359 -0.7244 -1.3949 -0.3722
 3892WAT    EPW16290   1.165   0.196   3.398 -0.1591 -0.2106  0.0905
 3893WAT      O16291   5.982   3.205   0.188 -0.1747 -0.0070 -0.5100
 3893WAT     H116292   5.945   3.281   0.208  0.6048  0.1563  0.3712
 3893WAT     H216293   5.915   3.152   0.172 -0.8801 -0.0053  2.0389
 3893WAT    EPW16294   5.967   3.208   0.188 -0.1638  0.0174 -0.0033
 3894WAT      O16295   7.312   2.492   6.692 -0.3484 -0.4354  0.0812
 3894WAT     H116296   7.270   2.449   6.629 -1.7498  0.9961 -0.0274
 3894WAT     H216297   7.375   2.536   6.650 -0.6275 -0.2847 -0.1789
 3894WAT    EPW16298   7.315   2.492   6.676 -0.5966 -0.2017  0.0268
 3895WAT      O16299   5.867   6.190   7.261 -0.6129  0.3885 -0.0390
 3895WAT     H116300   5.929   6.232   7.305 -0.1893 -0.5886  0.3216
 3895WAT     H216301   5.864   6.111   7.299 -2.5869  0.6364  0.4668
 3895WAT    EPW16302   5.876   6.184   7.273 -0.8419  0.2808  0.0890
 3896WAT      O16303   6.265   4.429   5.777 -0.4042 -0.0630 -0.2134
 3896WAT     H116304   6.307   4.504   5.789 -0.7532  0.0092  0.5403
 3896WAT     H216305   6.193   4.452   5.733  1.0199 -0.3658 -2.9518
 3896WAT    EPW16306   6.261   4.443   5.772 -0.2454 -0.0971 -0.5066
 3897WAT      O16307   7.140   1.122   4.494 -0.2929 -0.1941 -0.2884
 3897WAT     H116308   7.191   1.174   4.446  0.2642 -0.3667  0.1010
 3897WAT     H216309   7.185   1.047   4.497  0.6886  0.4127  2.1601
 3897WAT    EPW16310   7.155   1.118   4.487 -0.0656 -0.1300  0.1308
 3898WAT      O16311   5.793   2.397   4.309  0.0216 -0.1340  0.4403
 3898WAT     H116312   5.851   2.345   4.348  1.8639  0.5509 -1.2497
 3898WAT     H216313   5.841   2.463   4.279 -1.6693  0.6003 -0.8225
 3898WAT    EPW16314   5.808   2.399   4.311  0.0440  0.0756  0.0041
 3899WAT      O16315   2.893   1.255   1.734 -0.9375 -0.0863 -0.0471
 3899WAT     H116316   2.942   1.243   1.663 -0.3136  1.6440  0.0500
 3899WAT     H216317   2.903   1.180   1.779 -0.6669 -0.8584 -1.3576
 3899WAT    EPW16318   2.902   1.242   1.730 -0.8054  0.0553 -0.2263
 3900WAT      O16319   1.477   4.203   0.425  0.4203 -0.1569  0.3303
 3900WAT     H116320   1.428   4.162   0.484 -1.3496  0.0252 -0.9349
 3900WAT     H216321   1.491   4.142   0.364  2.6937 -0.5092  1.1121
 3900WAT    EPW16322   1.472   4.188   0.425  0.4947 -0.1820  0.2589
 3901WAT      O16323   3.716   6.765   1.265  0.3703 -0.6362  0.2834
 3901WAT     H116324   3.745   6.688   1.237 -0.9158 -0.8998 -0.4142
 3901WAT     H216325   3.769   6.822   1.227  2.1755 -1.1650  1.8348
 3901WAT    EPW16326   3.728   6.762   1.255  0.4469 -0.7533  0.4095
 3902WAT      O16327   3.871   1.461   6.428  0.0446 -0.3567  0.8038
 3902WAT     H116328   3.922   1.414   6.480  1.4942  0.9069  0.6018
 3902WAT     H216329   3.915   1.464   6.353 -0.7400  0.0585  0.3455
 3902WAT    EPW16330   3.885   1.455   6.425  0.1428 -0.1087  0.7062
 3903WAT      O16331   3.555   1.839   2.167 -0.5402  0.0484 -0.2366
 3903WAT     H116332   3.503   1.878   2.226 -0.1388  0.8052 -0.3772
 3903WAT     H216333   3.625   1.891   2.164 -0.1301 -0.5200 -0.6615
 3903WAT    EPW16334   3.557   1.852   2.176 -0.4203  0.0762 -0.3201
 3904WAT      O16335   6.176   1.010   7.245 -0.4109 -0.1216 -0.5783
 3904WAT     H116336   6.125   0.981   7.180 -0.2230 -1.0617 -0.3227
 3904WAT     H216337   6.134   0.985   7.317  1.2131 -2.4651 -0.3598
 3904WAT    EPW16338   6.162   1.002   7.246 -0.1432 -0.6067 -0.5083
 3905WAT      O16339   2.793   5.357   2.323  0.1985  0.0833  0.0028
 3905WAT     H116340   2.756   5.361   2.401  0.8319  0.6222  0.2866
 3905WAT     H216341   2.875   5.334   2.340  0.2320 -0.2137 -0.5367
 3905WAT    EPW16342   2.800   5.354   2.337  0.2970  0.1190 -0.0350
 3906WAT      O16343   2.217   4.299   1.994 -0.1922  0.7018  0.3982
 3906WAT     H116344   2.165   4.242   1.956  0.3250  0.2449  0.3602
 3906WAT     H216345   2.284   4.306   1.939 -0.0290  0.9828  0.6275
 3906WAT    EPW16346   2.219   4.292   1.980 -0.0917  0.6758  0.4265
 3907WAT      O16347   5.307   4.068   1.899 -0.2536  0.7860 -0.1341
 3907WAT     H116348   5.342   4.139   1.862  1.2018 -0.0564 -0.4527
 3907WAT     H216349   5.291   4.094   1.981 -0.0054  1.5540 -0.3199
 3907WAT    EPW16350   5.310   4.083   1.906 -0.0019  0.7750 -0.2086
 3908WAT      O16351   6.257   1.723   5.075  0.4089  0.2068  0.4642
 3908WAT     H116352   6.202   1.783   5.108  0.2063  1.0742 -1.2937
 3908WAT     H216353   6.205   1.656   5.055  0.1798  0.4965  0.0534
 3908WAT    EPW16354   6.241   1.722   5.077  0.3451  0.3777  0.1439
 3909WAT      O16355   2.666   1.364   1.619 -0.6604 -0.3796 -0.1896
 3909WAT     H116356   2.700   1.427   1.569  0.4495 -0.0013  0.9743
 3909WAT     H216357   2.736   1.327   1.656 -1.4357  0.0317  1.8336
 3909WAT    EPW16358   2.681   1.368   1.617 -0.6110 -0.2630  0.2812
 3910WAT      O16359   6.099   1.663   7.006  0.1566 -0.2733 -0.2959
 3910WAT     H116360   6.090   1.688   6.923  0.6436  0.8231 -0.0281
 3910WAT     H216361   6.064   1.583   7.007 -1.2827  0.2984 -1.2154
 3910WAT    EPW16362   6.092   1.655   6.994  0.0159 -0.0269 -0.3922
 3911WAT      O16363   6.989   0.514   1.972 -0.4069  0.4599  0.2223
 3911WAT     H116364   6.946   0.440   1.990 -0.1785 -0.0824 -1.2644
 3911WAT     H216365   7.068   0.501   2.005 -0.1969 -0.2135 -0.5183
 3911WAT    EPW16366   6.994   0.501   1.979 -0.3422  0.2803 -0.1067
 3912WAT      O16367   0.141   6.925   3.626  0.7485  0.1884 -0.4832
 3912WAT     H116368   0.211   6.970   3.651  0.7824 -1.5536  3.2869
 3912WAT     H216369   0.154   6.910   3.542  3.5274  2.2114 -0.5394
 3912WAT    EPW16370   0.153   6.929   3.617  1.1640  0.2299  0.0654
 3913WAT      O16371   4.545   4.934   0.592 -0.4049  0.3024 -0.2546
 3913WAT     H116372   4.524   4.964   0.512  2.4151 -1.6588 -1.9034
 3913WAT     H216373   4.549   4.848   0.582  0.6063  0.0319  1.8714
 3913WAT    EPW16374   4.543   4.926   0.579  0.1610 -0.0273 -0.1841
 3914WAT      O16375   0.801   3.570   6.745 -0.3205 -0.7006  0.1927
 3914WAT     H116376   0.803   3.654   6.768 -0.6433 -0.5514 -0.3021
 3914WAT     H216377   0.885   3.553   6.724 -0.4571 -0.1377 -0.9181
 3914WAT    EPW16378   0.814   3.580   6.745 -0.3884 -0.5954 -0.0445
 3915WAT      O16379   0.755   3.640   3.737 -0.3950 -0.0469 -0.1297
 3915WAT     H116380   0.725   3.612   3.660 -0.1616  0.5542 -0.4496
 3915WAT     H216381   0.752   3.727   3.729  3.2211  0.1686 -0.9197
 3915WAT    EPW16382   0.750   3.649   3.725  0.1736  0.0738 -0.2937
 3916WAT      O16383   5.299   6.676   6.442  0.4578 -0.4242  0.2386
 3916WAT     H116384   5.325   6.604   6.485  0.5841 -0.0616  0.7697
 3916WAT     H216385   5.301   6.651   6.358 -0.9560 -1.5249  0.4917
 3916WAT    EPW16386   5.303   6.661   6.436  0.2676 -0.5332  0.3545
 3917WAT      O16387   2.175   0.204   0.998  0.1964  0.6524 -0.0634
 3917WAT     H116388   2.106   0.175   1.041  0.7512  0.0027  0.4125
 3917WAT     H216389   2.197   0.137   0.947  0.6519  0.7366  0.0160
 3917WAT    EPW16390   2.168   0.190   0.997  0.3457  0.5688  0.0186
 3918WAT      O16391   6.398   7.013   4.061  0.0130  0.2311  0.5700
 3918WAT     H116392   6.411   6.947   4.005  0.1211  0.0932  0.7570
 3918WAT     H216393   6.476   7.053   4.063 -0.6353  1.7382 -1.2801
 3918WAT    EPW16394   6.412   7.009   4.053 -0.0668  0.4334  0.3243
 3919WAT      O16395   6.292   4.920   4.977  0.1811  0.4074 -0.6419
 3919WAT     H116396   6.223   4.966   4.951 -1.0268  0.0369  1.7059
 3919WAT     H216397   6.263   4.876   5.046  2.5121 -0.5490 -0.1844
 3919WAT    EPW16398   6.278   4.920   4.983  0.3470  0.2114 -0.2275
 3920WAT      O16399   2.128   4.543   5.311  0.0756 -0.2481 -0.8155
 3920WAT     H116400   2.155   4.601   5.369 -0.0142 -0.2941 -0.7268
 3920WAT     H216401   2.077   4.590   5.258 -1.1055 -0.5040  0.0429
 3920WAT    EPW16402   2.124   4.558   5.312 -0.1121 -0.2927 -0.6756
 3921WAT      O16403   2.486   4.021   5.066  0.4238 -0.3090  0.2753
 3921WAT     H116404   2.500   3.949   5.020  0.2807 -0.9274  1.1827
 3921WAT     H216405   2.566   4.045   5.093  0.5613  0.2869 -0.6007
 3921WAT    EPW16406   2.500   4.014   5.064  0.4230 -0.3124  0.2799
 3922WAT      O16407   0.008   4.020   1.232 -0.5118  0.0800  0.4835
 3922WAT     H116408   0.078   4.033   1.282 -0.2975  1.0901 -0.0530
 3922WAT     H216409   0.010   4.087   1.176 -1.0770 -0.7033 -0.4997
 3922WAT    EPW16410   0.018   4.032   1.231 -0.5636  0.1135  0.2590
 3923WAT      O16411   7.273   7.257   4.124 -0.1410 -0.1390 -0.4185
 3923WAT     H116412   7.305   7.261   4.206 -3.1600  0.9505  0.8419
 3923WAT     H216413   7.337   7.292   4.076  2.4511 -2.3555  1.1231
 3923WAT    EPW16414   7.287   7.263   4.129 -0.2041 -0.3054 -0.0046
 3924WAT      O16415   5.322   3.684   0.388  0.3597 -0.2800  0.7572
 3924WAT     H116416   5.322   3.615   0.442  0.8828  0.5980  1.9172
 3924WAT     H216417   5.406   3.696   0.371  0.1571 -1.2364 -1.2331
 3924WAT    EPW16418   5.334   3.676   0.393  0.4070 -0.2916  0.6346
 3925WAT      O16419   0.895   4.727   0.970 -0.4115 -0.3640  0.1915
 3925WAT     H116420   0.835   4.763   1.022 -0.1922  0.0507  0.1620
 3925WAT     H216421   0.956   4.789   0.963 -1.2614  0.3004 -1.9896
 3925WAT    EPW16422   0.895   4.741   0.977 -0.5047 -0.2046 -0.1351
 3926WAT      O16423   6.577   6.390   7.000  0.1407  0.5084 -0.0052
 3926WAT     H116424   6.513   6.439   7.034 -1.0003 -1.4189  0.8242
 3926WAT     H216425   6.542   6.358   6.927  0.6973  0.5409 -0.2951
 3926WAT    EPW16426   6.562   6.393   6.995  0.0544  0.2285  0.0745
 3927WAT      O16427   5.203   2.906   2.525  0.1360 -0.3526 -0.3605
 3927WAT     H116428   5.206   2.824   2.555 -0.1116 -0.2350 -0.0105
 3927WAT     H216429   5.125   2.910   2.485  0.9137 -0.8414 -1.9992
 3927WAT    EPW16430   5.192   2.895   2.524  0.2143 -0.4074 -0.5508
 3928WAT      O16431   0.791   6.553   1.973  0.2358  0.4228 -0.0730
 3928WAT     H116432   0.810   6.475   2.005  1.5009  0.7491  0.0384
 3928WAT     H216433   0.704   6.554   1.969  0.1882 -0.7492  0.4922
 3928WAT    EPW16434   0.781   6.542   1.977  0.4156  0.2978  0.0269
 3929WAT      O16435   4.769   1.725   2.072 -0.1388  0.0070 -0.1797
 3929WAT     H116436   4.849   1.708   2.102 -0.0979 -0.2103 -0.4051
 3929WAT     H216437   4.739   1.647   2.048  0.1688  0.2681 -1.5059
 3929WAT    EPW16438   4.776   1.711   2.073 -0.0873  0.0135 -0.4089
 3930WAT      O16439   0.210   5.455   2.227 -0.1157  0.1403  0.1353
 3930WAT     H116440   0.295   5.448   2.243  0.0704 -0.8917 -1.1408
 3930WAT     H216441   0.186   5.374   2.204 -1.4063  0.4402  0.3104
 3930WAT    EPW16442   0.219   5.442   2.226 -0.2788  0.0322 -0.0273
 3931WAT      O16443   0.487   5.761   6.241 -0.0772 -0.0975  0.1751
 3931WAT     H116444   0.462   5.777   6.323 -4.4970  1.2244 -1.1447
 3931WAT     H216445   0.488   5.674   6.237  0.7208 -0.1972  1.6936
 3931WAT    EPW16446   0.483   5.750   6.252 -0.6122  0.0830  0.2045
 3932WAT      O16447   1.553   1.661   0.754  0.5278 -0.0063  0.0238
 3932WAT     H116448   1.628   1.644   0.713  0.9912  1.0816  0.3861
 3932WAT     H216449   1.573   1.651   0.838  0.4291  0.8150  0.1569
 3932WAT    EPW16450   1.567   1.657   0.760  0.5816  0.2757  0.0970
 3933WAT      O16451   6.078   6.984   6.579  0.0539 -0.3329  0.1653
 3933WAT     H116452   6.107   7.041   6.519 -0.4740 -1.4800 -1.2419
 3933WAT     H216453   6.125   6.912   6.563 -1.4229 -1.2635 -0.1494
 3933WAT    EPW16454   6.090   6.982   6.568 -0.2422 -0.6398 -0.0890
 3934WAT      O16455   5.964   5.838   6.853 -0.0491  0.2481  0.1037
 3934WAT     H116456   5.986   5.766   6.896 -0.0797  0.0986 -0.1307
 3934WAT     H216457   5.956   5.812   6.771 -4.2360 -0.4554  0.5096
 3934WAT    EPW16458   5.966   5.824   6.847 -0.6721  0.1221  0.1290
 3935WAT      O16459   1.603   6.376   4.386 -0.1473  0.0212  0.2964
 3935WAT     H116460   1.531   6.424   4.372 -0.3394 -0.5554 -0.8773
 3935WAT     H216461   1.621   6.389   4.470 -1.9507 -0.2269  0.7664
 3935WAT    EPW16462   1.595   6.385   4.396 -0.4421 -0.1006  0.1924
 3936WAT      O16463   6.441   4.172   6.802 -0.5835  0.3789  0.0040
 3936WAT     H116464   6.388   4.123   6.753  1.2968 -2.7207  0.8115
 3936WAT     H216465   6.454   4.125   6.873  1.7708  1.8456  0.6664
 3936WAT    EPW16466   6.435   4.158   6.805  0.0420  0.1377  0.2211
 3937WAT      O16467   4.150   2.799   1.036 -0.2510  0.0315 -0.0922
 3937WAT     H116468   4.107   2.813   1.111  0.6675 -3.1325  1.2051
 3937WAT     H216469   4.103   2.738   0.996  0.7955 -0.4019 -0.7054
 3937WAT    EPW16470   4.137   2.792   1.041  0.0393 -0.4999  0.0089
 3938WAT      O16471   6.084   3.499   1.709  0.5038  0.0269  0.4878
 3938WAT     H116472   6.150   3.480   1.656 -0.0037  0.5392 -0.3468
 3938WAT     H216473   6.070   3.584   1.695 -1.2946 -0.3802 -0.4708
 3938WAT    EPW16474   6.092   3.509   1.699  0.1632  0.0424  0.2229
 3939WAT      O16475   3.796   3.845   6.754  0.4525  0.0204  0.0942
 3939WAT     H116476   3.752   3.839   6.829  0.9275 -1.8887  0.2773
 3939WAT     H216477   3.879   3.855   6.780  0.7048 -1.3145 -0.1285
 3939WAT    EPW16478   3.802   3.846   6.769  0.5600 -0.4588  0.0884
 3940WAT      O16479   0.300   1.937   3.613  0.9516 -0.3859 -0.2278
 3940WAT     H116480   0.363   1.949   3.673  0.3131  0.7776  0.2539
 3940WAT     H216481   0.333   1.972   3.541  1.0139 -0.1088 -0.0671
 3940WAT    EPW16482   0.314   1.944   3.611  0.8665 -0.1731 -0.1329
 3941WAT      O16483   1.922   4.853   5.642 -0.2151 -0.1561 -0.2241
 3941WAT     H116484   2.001   4.817   5.645 -0.6399 -1.3243 -1.7646
 3941WAT     H216485   1.869   4.786   5.626 -1.1041  0.9989 -2.6979
 3941WAT    EPW16486   1.926   4.838   5.640 -0.4092 -0.1581 -0.8171
 3942WAT      O16487   1.628   1.057   2.892 -0.0825 -0.2890 -0.2727
 3942WAT     H116488   1.541   1.051   2.897  0.0013 -1.0609  0.6466
 3942WAT     H216489   1.654   1.028   2.970  1.0564 -1.5777 -1.0959
 3942WAT    EPW16490   1.619   1.051   2.904  0.0981 -0.5934 -0.2585
 3943WAT      O16491   3.755   4.985   1.647 -0.2608 -0.1973  0.0189
 3943WAT     H116492   3.747   4.925   1.585 -2.7031 -0.0790  0.1151
 3943WAT     H216493   3.720   5.057   1.611 -0.5539  0.2151  1.0792
 3943WAT    EPW16494   3.749   4.987   1.633 -0.6649 -0.1189  0.1897
 3944WAT      O16495   3.060   5.095   6.089 -0.0217  0.1118 -0.4388
 3944WAT     H116496   3.003   5.161   6.083  0.9445  1.1515  1.2001
 3944WAT     H216497   3.044   5.047   6.017 -1.2935  1.6806 -1.2514
 3944WAT    EPW16498   3.049   5.097   6.077 -0.0668  0.4971 -0.3167
 3945WAT      O16499   4.985   6.402   2.784  0.5101  0.4985  0.5692
 3945WAT     H116500   4.922   6.395   2.843 -0.2339 -2.6338 -0.3923
 3945WAT     H216501   4.946   6.443   2.717  0.0597  0.2994  0.7047
 3945WAT    EPW16502   4.970   6.407   2.783  0.3337  0.0064  0.4472
 3946WAT      O16503   4.552   3.468   4.951 -0.0285  0.3991 -0.6374
 3946WAT     H116504   4.567   3.398   4.901  1.4842 -0.6426  1.1098
 3946WAT     H216505   4.475   3.497   4.924  0.2190 -0.7305 -2.7872
 3946WAT    EPW16506   4.543   3.462   4.940  0.2315  0.0784 -0.6968
 3947WAT      O16507   2.599   1.582   7.154  0.3636 -0.5263 -0.0869
 3947WAT     H116508   2.677   1.543   7.157  0.0816 -1.0728  0.7726
 3947WAT     H216509   2.549   1.524   7.112  0.2492 -0.5295  0.0489
 3947WAT    EPW16510   2.603   1.567   7.149  0.3050 -0.6075  0.0601
 3948WAT      O16511   3.042   1.265   0.046 -0.5554  0.2638  0.7054
 3948WAT     H116512   3.061   1.203   0.103 -3.2160 -0.3409  1.0724
 3948WAT     H216513   3.078   1.337   0.080  0.9009 -0.6758  1.2558
 3948WAT    EPW16514   3.050   1.267   0.059 -0.7333  0.0357  0.8409
 3949WAT      O16515   4.453   6.857   6.614  0.3842  0.5689  0.0656
 3949WAT     H116516   4.378   6.900   6.603 -0.5549 -0.4922  1.8715
 3949WAT     H216517   4.435   6.800   6.678  2.6713  0.1084  0.3812
 3949WAT    EPW16518   4.439   6.855   6.622  0.5834  0.3441  0.3790
 3950WAT      O16519   2.667   5.798   1.235 -0.7934  0.1250  0.6988
 3950WAT     H116520   2.718   5.819   1.302  1.1519 -0.2931 -0.5445
 3950WAT     H216521   2.693   5.853   1.172 -1.2523 -0.7009 -0.2381
 3950WAT    EPW16522   2.678   5.810   1.235 -0.5738 -0.0588  0.3767
 3951WAT      O16523   5.275   4.499   6.501 -0.0364 -0.2326  0.3428
 3951WAT     H116524   5.339   4.542   6.459 -2.1742  1.2501 -1.6548
 3951WAT     H216525   5.223   4.471   6.437 -2.7698  0.9394  1.8613
 3951WAT    EPW16526   5.277   4.501   6.485 -0.7560  0.1595  0.2720
 3952WAT      O16527   0.656   4.524   4.944 -0.3940  0.2852 -0.5872
 3952WAT     H116528   0.741   4.507   4.952 -0.5112  0.2677  0.9786
 3952WAT     H216529   0.618   4.448   4.962 -0.7558  0.5058 -0.4092
 3952WAT    EPW16530   0.663   4.511   4.948 -0.4648  0.3152 -0.3296
 3953WAT      O16531   4.743   0.130   2.033  0.2263  0.2407  0.2156
 3953WAT     H116532   4.664   0.145   1.999  1.0191  1.0441 -1.3600
 3953WAT     H216533   4.778   0.071   1.979  1.2449  0.9823  0.0439
 3953WAT    EPW16534   4.736   0.123   2.020  0.4939  0.4689 -0.0425
 3954WAT      O16535   3.230   5.224   5.119 -0.1381 -0.3070  0.3102
 3954WAT     H116536   3.199   5.200   5.197 -1.4118  1.8354  0.5480
 3954WAT     H216537   3.214   5.155   5.068 -0.8975 -1.0721  1.5402
 3954WAT    EPW16538   3.223   5.211   5.123 -0.4384 -0.1035  0.5270
 3955WAT      O16539   2.706   5.092   4.463  0.0370  0.5179 -0.1275
 3955WAT     H116540   2.704   5.083   4.549  0.0469  1.2239 -0.0432
 3955WAT     H216541   2.718   5.011   4.433 -2.0325 -0.0592  0.4454
 3955WAT    EPW16542   2.707   5.079   4.471 -0.2672  0.5369 -0.0304
 3956WAT      O16543   7.171   5.047   6.911 -0.1357  0.3385  0.5700
 3956WAT     H116544   7.108   4.992   6.885 -0.4753 -0.4792  2.9033
 3956WAT     H216545   7.158   5.118   6.862 -1.7039 -0.5076 -0.3024
 3956WAT    EPW16546   7.160   5.050   6.900 -0.4175  0.0927  0.7858
 3957WAT      O16547   2.159   2.571   6.399 -0.0531  0.3907  0.2665
 3957WAT     H116548   2.182   2.550   6.480 -0.1331 -0.1324  0.1554
 3957WAT     H216549   2.215   2.526   6.349  0.2319  0.9858  0.0329
 3957WAT    EPW16550   2.171   2.561   6.403 -0.0228  0.4013  0.2156
 3958WAT      O16551   6.103   0.780   6.094 -0.3547  0.0344 -0.5794
 3958WAT     H116552   6.092   0.864   6.115  1.5315 -0.2601  2.0320
 3958WAT     H216553   6.180   0.778   6.054 -0.2970 -0.4941 -0.4540
 3958WAT    EPW16554   6.113   0.792   6.091 -0.0676 -0.0872 -0.1751
 3959WAT      O16555   4.927   2.796   6.578 -0.3784  0.1802 -0.2455
 3959WAT     H116556   4.900   2.761   6.653  0.6131  0.8219  0.4377
 3959WAT     H216557   4.920   2.881   6.591 -0.2819  0.2993 -0.9203
 3959WAT    EPW16558   4.922   2.803   6.591 -0.2177  0.2926 -0.2443
 3960WAT      O16559   5.745   1.675   1.149  0.0899 -0.1657 -0.1272
 3960WAT     H116560   5.675   1.709   1.110  0.7445 -0.1408 -1.3221
 3960WAT     H216561   5.770   1.737   1.205 -0.0212  0.3955 -0.7014
 3960WAT    EPW16562   5.739   1.689   1.152  0.1702 -0.0791 -0.3885
 3961WAT      O16563   5.370   0.097   0.319 -0.4956 -0.1698 -0.4107
 3961WAT     H116564   5.292   0.063   0.334 -0.3641  0.4120  1.9408
 3961WAT     H216565   5.360   0.181   0.337  0.4696  0.0944 -0.9909
 3961WAT    EPW16566   5.357   0.104   0.324 -0.3336 -0.0448 -0.1490
 3962WAT      O16567   4.264   2.278   2.414 -0.0205  0.6515  0.3730
 3962WAT     H116568   4.325   2.336   2.435 -0.9197  1.2207  1.5516
 3962WAT     H216569   4.303   2.201   2.429  1.7114  0.7813 -2.6619
 3962WAT    EPW16570   4.279   2.275   2.420  0.1025  0.7548  0.0988
 3963WAT      O16571   2.090   5.802   0.175 -0.1419  0.4563  0.3162
 3963WAT     H116572   2.174   5.825   0.179 -0.1016  0.2647  0.6134
 3963WAT     H216573   2.072   5.775   0.256 -0.0179 -1.1709 -0.1593
 3963WAT    EPW16574   2.100   5.802   0.188 -0.1176  0.1876  0.2898
 3964WAT      O16575   4.896   3.098   1.842  0.2218 -0.3161 -0.8847
 3964WAT     H116576   4.924   3.181   1.842 -1.0810  0.1626  0.2641
 3964WAT     H216577   4.950   3.058   1.897  0.8897 -0.2591 -1.4852
 3964WAT    EPW16578   4.908   3.105   1.850  0.1280 -0.2370 -0.8037
 3965WAT      O16579   0.127   3.336   3.455 -0.5556 -0.4628 -0.2611
 3965WAT     H116580   0.188   3.290   3.496 -1.0948 -0.6778  0.2949
 3965WAT     H216581   0.165   3.415   3.446  0.4512 -1.0397 -1.4148
 3965WAT    EPW16582   0.142   3.341   3.459 -0.4865 -0.5798 -0.3494
 3966WAT      O16583   6.219   3.659   4.523 -0.5327  0.5457  0.1369
 3966WAT     H116584   6.157   3.696   4.473  0.4085  1.5694 -0.3081
 3966WAT     H216585   6.245   3.724   4.574  0.5435  0.2679 -0.0437
 3966WAT    EPW16586   6.214   3.674   4.523 -0.2347  0.6559  0.0445
 3967WAT      O16587   4.235   0.829   6.861  0.1675  0.2531 -0.6133
 3967WAT     H116588   4.161   0.783   6.866 -0.3261  1.0564 -0.2925
 3967WAT     H216589   4.213   0.906   6.894  1.1829  0.4731 -0.4168
 3967WAT    EPW16590   4.221   0.833   6.867  0.2446  0.4043 -0.5369
 3968WAT      O16591   6.944   0.141   2.632 -0.6793  0.3305 -0.7266
 3968WAT     H116592   6.952   0.215   2.678  0.1806  1.1054 -2.0415
 3968WAT     H216593   6.861   0.142   2.605 -0.9515  0.2932  0.0935
 3968WAT    EPW16594   6.933   0.152   2.635 -0.5925  0.4395 -0.7997
 3969WAT      O16595   4.622   4.669   1.876 -0.6949 -0.2219  0.0926
 3969WAT     H116596   4.639   4.622   1.804 -1.5120  0.6907 -0.7265
 3969WAT     H216597   4.536   4.658   1.887 -0.8973  1.0460 -0.1117
 3969WAT    EPW16598   4.612   4.660   1.867 -0.8455  0.1002 -0.0586
 3970WAT      O16599   0.559   7.026   1.191  0.5159  0.1343  0.6068
 3970WAT     H116600   0.610   6.966   1.152 -0.7149 -1.0339  0.7209
 3970WAT     H216601   0.478   7.000   1.171 -0.0605  1.4289  1.1794
 3970WAT    EPW16602   0.555   7.013   1.183  0.2489  0.1530  0.7083
 3971WAT      O16603   4.962   5.290   2.563 -0.6240  0.2414  0.5704
 3971WAT     H116604   5.021   5.344   2.598  1.1554 -0.4183 -1.1775
 3971WAT     H216605   4.936   5.333   2.491 -0.0020 -0.7043 -0.2532
 3971WAT    EPW16606   4.967   5.305   2.557 -0.2692  0.0043  0.1905
 3972WAT      O16607   7.180   5.499   1.355  0.2130 -0.3387 -0.6491
 3972WAT     H116608   7.198   5.566   1.408 -1.1156 -0.4275 -0.0523
 3972WAT     H216609   7.168   5.538   1.278 -1.6159  0.2847 -0.0882
 3972WAT    EPW16610   7.181   5.515   1.351 -0.2534 -0.2597 -0.4781
 3973WAT      O16611   5.727   2.443   1.253  0.0139  0.7450 -0.7994
 3973WAT     H116612   5.669   2.417   1.313 -0.9755 -0.9118 -2.3608
 3973WAT     H216613   5.752   2.369   1.214  1.1117  1.6819 -1.9898
 3973WAT    EPW16614   5.722   2.429   1.256  0.0299  0.6387 -1.2059
 3974WAT      O16615   4.253   3.246   4.894  0.0746  0.2648 -0.1287
 3974WAT     H116616   4.173   3.255   4.861  0.0206 -0.7293 -0.2939
 3974WAT     H216617   4.299   3.211   4.828  0.6649  0.8631 -0.0508
 3974WAT    EPW16618   4.248   3.242   4.879  0.1538  0.2064 -0.1416
 3975WAT      O16619   6.135   2.678   6.541 -0.5164 -0.0205 -0.2060
 3975WAT     H116620   6.103   2.642   6.614 -0.2431 -1.9257 -0.9485
 3975WAT     H216621   6.065   2.715   6.504 -1.1866 -1.1266 -0.1151
 3975WAT    EPW16622   6.120   2.678   6.547 -0.5750 -0.4653 -0.3022
 3976WAT      O16623   5.354   5.557   6.741 -0.3485 -0.3668  0.6428
 3976WAT     H116624   5.429   5.548   6.785 -0.4288 -1.0817  0.6397
 3976WAT     H216625   5.317   5.627   6.779  1.0203  0.9945 -0.3982
 3976WAT    EPW16626   5.360   5.566   6.753 -0.1581 -0.2713  0.4885
 3977WAT      O16627   2.800   3.284   4.685 -0.2064 -0.3097  0.3346
 3977WAT     H116628   2.716   3.303   4.693 -0.7197 -1.6494 -1.2310
 3977WAT     H216629   2.821   3.247   4.762 -0.8353  0.6694  0.9909
 3977WAT    EPW16630   2.791   3.281   4.698 -0.3751 -0.3629  0.2003
 3978WAT      O16631   5.531   6.508   4.459  0.5972 -0.4040  0.2805
 3978WAT     H116632   5.589   6.449   4.486  1.3874 -0.2686 -1.0387
 3978WAT     H216633   5.477   6.516   4.527  1.0357 -1.9137  0.8411
 3978WAT    EPW16634   5.532   6.501   4.473  0.7787 -0.6070  0.1685
 3979WAT      O16635   6.501   0.270   7.245  0.0093 -0.0729  0.4092
 3979WAT     H116636   6.549   0.343   7.246 -1.4515  0.9295  0.4704
 3979WAT     H216637   6.479   0.259   7.329  1.4953 -1.5176  0.6650
 3979WAT    EPW16638   6.505   0.279   7.258  0.0130 -0.1383  0.4560
 3980WAT      O16639   2.329   5.158   3.388  0.1772  0.4623  0.5033
 3980WAT     H116640   2.280   5.127   3.453 -1.2426 -1.3275 -1.3035
 3980WAT     H216641   2.285   5.135   3.317  2.8707  0.1465 -1.1938
 3980WAT    EPW16642   2.316   5.150   3.387  0.3654  0.1512 -0.0143
 3981WAT      O16643   4.280   6.717   2.101  0.6096  0.0949 -0.3289
 3981WAT     H116644   4.366   6.713   2.115  0.2764 -2.3911  1.7302
 3981WAT     H216645   4.250   6.646   2.141 -2.7323  2.3119  1.4949
 3981WAT    EPW16646   4.289   6.706   2.109  0.0667  0.0552  0.2447
 3982WAT      O16647   2.419   0.599   1.074 -0.3833 -0.0044 -0.4414
 3982WAT     H116648   2.396   0.569   1.152  0.6367 -1.7772 -0.7822
 3982WAT     H216649   2.349   0.585   1.024 -1.6198  2.4990  0.3884
 3982WAT    EPW16650   2.405   0.593   1.078 -0.4153  0.1035 -0.3691
 3983WAT      O16651   0.127   4.677   2.212 -0.2715  0.2252 -0.6369
 3983WAT     H116652   0.083   4.734   2.261  2.2764  0.5441  1.4709
 3983WAT     H216653   0.133   4.717   2.135  0.0514  2.1441  0.3114
 3983WAT    EPW16654   0.121   4.691   2.208  0.1526  0.5558 -0.1855
 3984WAT      O16655   3.407   3.898   0.752 -0.0454 -0.2894 -0.0182
 3984WAT     H116656   3.471   3.957   0.742  0.3088 -0.5263  0.7295
 3984WAT     H216657   3.358   3.932   0.815 -0.3045 -0.4095 -0.1540
 3984WAT    EPW16658   3.409   3.912   0.760 -0.0314 -0.3422  0.0722
 3985WAT      O16659   2.069   5.408   2.029  0.2731 -0.1506 -0.0617
 3985WAT     H116660   2.038   5.327   2.026 -0.5178  0.1528 -0.4037
 3985WAT     H216661   2.144   5.400   2.074 -0.4030 -0.8682  0.9710
 3985WAT    EPW16662   2.076   5.395   2.035  0.0564 -0.2118  0.0403
 3986WAT      O16663   5.957   1.807   2.410 -0.4517 -0.0950  0.8533
 3986WAT     H116664   5.969   1.865   2.473 -0.3555  3.0869 -1.8137
 3986WAT     H216665   6.038   1.783   2.388 -0.1287  2.0912 -0.6956
 3986WAT    EPW16666   5.970   1.812   2.416 -0.3898  0.6980  0.2306
 3987WAT      O16667   1.801   3.560   3.254  0.1947  0.0276  0.5973
 3987WAT     H116668   1.777   3.572   3.337  0.5708 -1.6869  0.9942
 3987WAT     H216669   1.817   3.641   3.226 -3.0538  1.0221  1.1878
 3987WAT    EPW16670   1.800   3.574   3.262 -0.2296 -0.0787  0.7431
 3988WAT      O16671   7.254   3.555   4.121  0.5441 -0.0891  0.4119
 3988WAT     H116672   7.288   3.484   4.084  0.4166 -0.5652  1.1856
 3988WAT     H216673   7.263   3.540   4.206 -0.9902  0.0671  0.6250
 3988WAT    EPW16674   7.261   3.543   4.128  0.2986 -0.1364  0.5576
 3989WAT      O16675   3.349   0.983   3.488 -0.0496  0.4282  0.0569
 3989WAT     H116676   3.374   1.061   3.517  2.1709  0.0899 -0.7099
 3989WAT     H216677   3.349   0.992   3.401 -1.1442 -0.0622 -0.0143
 3989WAT    EPW16678   3.353   0.996   3.480  0.1167  0.3058 -0.0669
 3990WAT      O16679   5.214   1.130   2.301  0.0431  0.5224 -0.2773
 3990WAT     H116680   5.202   1.195   2.244  1.1117  0.0533 -1.0840
 3990WAT     H216681   5.292   1.098   2.279 -0.5261 -1.1439 -0.0135
 3990WAT    EPW16682   5.224   1.135   2.289  0.1169  0.2070 -0.3575
 3991WAT      O16683   7.233   7.071   5.061  0.2384 -0.0877 -0.4773
 3991WAT     H116684   7.255   7.027   5.134  0.6983  0.6245 -0.1775
 3991WAT     H216685   7.184   7.137   5.091  1.1442  0.7107 -0.7115
 3991WAT    EPW16686   7.229   7.074   5.076  0.4402  0.1355 -0.4676
 3992WAT      O16687   7.151   0.139   0.444 -0.0452  0.0121 -0.1563
 3992WAT     H116688   7.197   0.185   0.386 -0.5272  0.9588  0.1987
 3992WAT     H216689   7.194   0.063   0.448  1.5898  0.9186  0.2716
 3992WAT    EPW16690   7.164   0.135   0.436  0.1251  0.2859 -0.0406
 3993WAT      O16691   4.658   5.726   0.722  0.1791  0.3639 -0.4991
 3993WAT     H116692   4.616   5.792   0.761  1.3073  0.0876  1.2917
 3993WAT     H216693   4.733   5.761   0.695 -0.4453  0.4663 -2.1835
 3993WAT    EPW16694   4.663   5.741   0.724  0.2535  0.3382 -0.4834
 3994WAT      O16695   4.936   2.068   4.116  0.7897 -0.5022 -0.1092
 3994WAT     H116696   4.970   2.128   4.063  2.1160  0.6334  1.9076
 3994WAT     H216697   4.853   2.093   4.125  1.2938  1.0586  0.6318
 3994WAT    EPW16698   4.929   2.080   4.109  1.0601 -0.1039  0.2982
 3995WAT      O16699   6.995   4.235   7.351 -0.0418 -0.1767  0.1899
 3995WAT     H116700   7.006   4.316   7.382  0.2247 -0.0280 -0.2727
 3995WAT     H216701   6.965   4.190   7.419 -2.8755  0.9281 -0.2069
 3995WAT    EPW16702   6.993   4.241   7.366 -0.4210  0.0085  0.0630
 3996WAT      O16703   4.414   3.731   6.954 -0.3522  0.2493  0.5181
 3996WAT     H116704   4.497   3.745   6.977 -0.4659  0.7609  0.6221
 3996WAT     H216705   4.374   3.806   6.975 -0.5882  0.4933 -0.7195
 3996WAT    EPW16706   4.420   3.744   6.961 -0.4039  0.3609  0.3507
 3997WAT      O16707   1.728   6.587   2.807 -0.2022  0.6147  0.1931
 3997WAT     H116708   1.768   6.644   2.755 -1.7189  0.2819 -1.4566
 3997WAT     H216709   1.756   6.510   2.778 -0.6296  0.4486  0.2091
 3997WAT    EPW16710   1.738   6.584   2.795 -0.4894  0.5410 -0.0482
 3998WAT      O16711   7.262   4.696   7.216 -0.3171 -0.4526 -0.0398
 3998WAT     H116712   7.196   4.732   7.171 -1.5824 -2.9278 -0.3207
 3998WAT     H216713   7.237   4.704   7.299 -0.1802  0.0316 -0.0408
 3998WAT    EPW16714   7.248   4.702   7.222 -0.4838 -0.7467 -0.0814
 3999WAT      O16715   1.148   6.093   5.568  0.1931 -0.0379 -0.0100
 3999WAT     H116716   1.137   6.123   5.487  0.6336  1.8093  0.5602
 3999WAT     H216717   1.224   6.050   5.564 -0.3935 -1.0357 -0.8296
 3999WAT    EPW16718   1.158   6.091   5.555  0.1715  0.0876 -0.0468
 4000WAT      O16719   4.506   1.074   5.233  0.1595 -0.3176 -0.2343
 4000WAT     H116720   4.590   1.051   5.244  0.7024  0.7703 -1.7606
 4000WAT     H216721   4.503   1.154   5.267  0.5940  0.9681 -3.0142
 4000WAT    EPW16722   4.518   1.082   5.240  0.3039  0.0330 -0.8704
 4001WAT      O16723   0.590   3.718   4.488  0.0939  0.1332 -0.2072
 4001WAT     H116724   0.544   3.685   4.555  0.0385  0.1061 -0.2577
 4001WAT     H216725   0.609   3.799   4.513  1.9029 -0.5552  0.7521
 4001WAT    EPW16726   0.586   3.725   4.501  0.3529  0.0275 -0.0730
 4002WAT      O16727   4.468   4.998   0.300  0.0208  0.2101  0.7017
 4002WAT     H116728   4.493   5.081   0.286  1.0702 -0.2477 -0.2610
 4002WAT     H216729   4.381   5.001   0.289  0.0976  1.0975  0.2293
 4002WAT    EPW16730   4.458   5.011   0.296  0.1872  0.2736  0.4897
 4003WAT      O16731   0.065   1.950   6.836 -0.6173  0.8621 -0.1386
 4003WAT     H116732   0.145   1.963   6.870 -0.4277 -0.4038 -0.0396
 4003WAT     H216733   0.015   2.006   6.880 -0.3666 -0.6814  2.3103
 4003WAT    EPW16734   0.070   1.960   6.848 -0.5522  0.4471  0.2378
 4004WAT      O16735   3.561   4.664   0.441 -0.5268 -0.2128  0.1230
 4004WAT     H116736   3.584   4.744   0.414 -0.1171 -0.6102 -0.7523
 4004WAT     H216737   3.485   4.678   0.482 -0.9723  0.5014 -0.8761
 4004WAT    EPW16738   3.553   4.678   0.443 -0.5321 -0.1660 -0.1539
 4005WAT      O16739   6.458   3.176   3.170 -0.6239 -0.5681  0.8298
 4005WAT     H116740   6.479   3.230   3.236 -0.3239  1.6126 -0.9254
 4005WAT     H216741   6.470   3.225   3.099 -2.1061 -2.4291 -0.8192
 4005WAT    EPW16742   6.463   3.191   3.170 -0.7985 -0.5209  0.3269
 4006WAT      O16743   1.294   6.924   4.748 -0.1525  0.1666  0.0833
 4006WAT     H116744   1.350   6.964   4.801 -0.2784  0.1854  0.2032
 4006WAT     H216745   1.221   6.918   4.796 -0.5260  0.9359 -0.3627
 4006WAT    EPW16746   1.291   6.929   4.763 -0.2263  0.2830  0.0351
 4007WAT      O16747   3.383   7.147   2.276  0.3300 -0.1857  0.5041
 4007WAT     H116748   3.466   7.122   2.286  0.1747 -0.2696  1.7248
 4007WAT     H216749   3.354   7.095   2.212  1.3542  0.2444 -0.3666
 4007WAT    EPW16750   3.391   7.136   2.268  0.4584 -0.1346  0.5558
 4008WAT      O16751   1.377   2.634   0.203 -0.1419  0.3767 -0.5416
 4008WAT     H116752   1.428   2.678   0.147  3.9612 -2.0276  0.8464
 4008WAT     H216753   1.360   2.560   0.161  0.6749 -0.3194  0.3120
 4008WAT    EPW16754   1.382   2.630   0.188  0.5849 -0.0813 -0.2105
 4009WAT      O16755   4.743   6.499   0.490 -0.6572 -0.5117 -0.2858
 4009WAT     H116756   4.740   6.491   0.576  3.2013  1.4192  0.2111
 4009WAT     H216757   4.700   6.574   0.475  0.1951  0.0796  0.1950
 4009WAT    EPW16758   4.736   6.509   0.500  0.0387 -0.1391 -0.1414
 4010WAT      O16759   2.664   2.510   3.871  0.4733  0.4202  0.1548
 4010WAT     H116760   2.667   2.597   3.865  0.5287  0.4167  0.1308
 4010WAT     H216761   2.736   2.484   3.829  0.3555  0.3543 -0.0044
 4010WAT    EPW16762   2.675   2.519   3.864  0.4641  0.4099  0.1277
 4011WAT      O16763   6.603   0.009   3.363  0.0735  0.0987  0.4562
 4011WAT     H116764   6.580   0.079   3.316  0.7087 -1.2714 -2.0736
 4011WAT     H216765   6.689   0.002   3.350 -0.0429 -1.3750  0.2882
 4011WAT    EPW16766   6.612   0.018   3.355  0.1501 -0.3214  0.0577
 4012WAT      O16767   1.573   6.218   1.613 -0.7404  0.7594  0.5760
 4012WAT     H116768   1.659   6.227   1.626 -0.8011 -0.3455  2.0044
 4012WAT     H216769   1.568   6.161   1.548 -0.3029 -1.9654  2.7583
 4012WAT    EPW16770   1.585   6.211   1.605 -0.6848  0.1937  1.1094
 4013WAT      O16771   1.564   0.088   2.808  0.1994  0.3979  0.2583
 4013WAT     H116772   1.571   0.033   2.876  1.4403 -0.0367 -0.1917
 4013WAT     H216773   1.519   0.154   2.840  0.3027 -0.0453  1.3684
 4013WAT    EPW16774   1.559   0.089   2.823  0.3979  0.2682  0.3558
 4014WAT      O16775   4.193   4.437   5.768 -0.4774 -0.4481 -0.2641
 4014WAT     H116776   4.270   4.402   5.746  0.2920  0.9928  0.0351
 4014WAT     H216777   4.169   4.481   5.696 -1.5657 -1.7155 -0.7323
 4014WAT    EPW16778   4.200   4.439   5.754 -0.5245 -0.4224 -0.2890
 4015WAT      O16779   4.546   4.106   5.119 -0.3146  0.2139 -0.2493
 4015WAT     H116780   4.584   4.138   5.191  1.0912 -1.6355 -0.0946
 4015WAT     H216781   4.549   4.173   5.063  2.5028  0.4605  0.0474
 4015WAT    EPW16782   4.552   4.120   5.121  0.3093 -0.0229 -0.1826
 4016WAT      O16783   1.698   6.131   0.996 -0.1664 -0.1325  0.3520
 4016WAT     H116784   1.772   6.159   0.959 -1.1681  1.0566 -0.8586
 4016WAT     H216785   1.700   6.166   1.076  0.7531 -0.4602  0.4820
 4016WAT    EPW16786   1.709   6.140   1.002 -0.1786 -0.0053  0.1924
 4017WAT      O16787   4.639   5.899   5.895 -0.2327 -0.5648  0.4228
 4017WAT     H116788   4.641   5.898   5.808  1.5752  1.1342  0.3873
 4017WAT     H216789   4.633   5.815   5.917 -0.6032 -1.0200 -1.3245
 4017WAT    EPW16790   4.638   5.886   5.886 -0.0204 -0.3811  0.1594
 4018WAT      O16791   2.194   4.338   0.606  0.2200  0.4654  0.0692
 4018WAT     H116792   2.162   4.334   0.687 -1.8408 -0.0307 -0.7007
 4018WAT     H216793   2.221   4.420   0.598  2.6578 -0.0359  1.9750
 4018WAT    EPW16794   2.193   4.350   0.616  0.2757  0.3181  0.2370
 4019WAT      O16795   6.525   5.219   7.203 -0.1114 -0.2074 -0.2657
 4019WAT     H116796   6.467   5.247   7.144  0.7579  0.2940 -0.9062
 4019WAT     H216797   6.545   5.139   7.176  0.1086 -0.0677 -0.5204
 4019WAT    EPW16798   6.519   5.212   7.191  0.0495 -0.1127 -0.3980
 4020WAT      O16799   5.474   2.983   5.850 -0.3240 -0.4940 -0.1978
 4020WAT     H116800   5.545   2.951   5.811  0.4211  0.3981  0.3642
 4020WAT     H216801   5.444   2.916   5.896 -0.3231 -1.1141 -1.0845
 4020WAT    EPW16802   5.480   2.969   5.851 -0.2138 -0.4538 -0.2458
 4021WAT      O16803   4.767   4.439   3.571  0.6110  0.3461 -0.2343
 4021WAT     H116804   4.794   4.361   3.540  2.0412  0.8572 -0.3541
 4021WAT     H216805   4.829   4.460   3.628 -2.0245 -0.6230  3.2735
 4021WAT    EPW16806   4.780   4.430   3.575  0.4330  0.2784  0.2662
 4022WAT      O16807   0.501   3.597   3.887  0.0629  0.0876  0.8003
 4022WAT     H116808   0.574   3.558   3.860  0.2092 -0.5094  1.9671
 4022WAT     H216809   0.518   3.617   3.971 -0.3633  1.8281  0.5122
 4022WAT    EPW16810   0.514   3.594   3.896  0.0215  0.2565  0.9301
 4023WAT      O16811   0.785   4.625   4.551 -0.1518  0.0066  0.6766
 4023WAT     H116812   0.870   4.642   4.547 -0.1495  0.0662  0.9643
 4023WAT     H216813   0.757   4.639   4.470  0.2232 -0.5897  0.4439
 4023WAT    EPW16814   0.793   4.629   4.539 -0.0960 -0.0727  0.6847
 4024WAT      O16815   4.311   1.702   4.633  0.7030 -0.2449 -0.1684
 4024WAT     H116816   4.341   1.714   4.714  0.5190  0.4032 -0.1940
 4024WAT     H216817   4.382   1.680   4.588  1.0416  0.6415 -0.0947
 4024WAT    EPW16818   4.326   1.700   4.638  0.7258 -0.0182 -0.1613
 4025WAT      O16819   2.391   6.049   5.228 -0.2703 -0.9984 -0.4979
 4025WAT     H116820   2.451   5.987   5.240 -0.1539 -0.8415 -0.2633
 4025WAT     H216821   2.329   6.009   5.182  0.1927 -1.0554 -1.0779
 4025WAT    EPW16822   2.391   6.034   5.223 -0.1847 -0.9836 -0.5489
 4026WAT      O16823   6.945   6.159   5.176  0.0927  0.0051  0.1228
 4026WAT     H116824   7.010   6.216   5.163  0.6447 -0.7850 -0.7595
 4026WAT     H216825   6.878   6.194   5.132 -0.3056  1.1633  1.5996
 4026WAT    EPW16826   6.945   6.173   5.167  0.1154  0.0595  0.2106
 4027WAT      O16827   4.604   1.852   3.194 -0.2380 -0.2641 -0.2581
 4027WAT     H116828   4.636   1.920   3.151 -0.0153 -0.3520 -0.2332
 4027WAT     H216829   4.518   1.867   3.196 -0.2219 -0.1369 -0.5157
 4027WAT    EPW16830   4.596   1.864   3.188 -0.2027 -0.2583 -0.2925
 4028WAT      O16831   0.922   5.018   3.334  0.5367 -0.3663  0.3024
 4028WAT     H116832   0.981   5.028   3.270 -2.1316 -1.8056 -2.6593
 4028WAT     H216833   0.905   5.100   3.358  0.9640  0.3159 -1.5362
 4028WAT    EPW16834   0.928   5.032   3.328  0.2056 -0.4781 -0.4067
 4029WAT      O16835   4.140   4.758   6.306 -0.6509  0.4902 -0.2759
 4029WAT     H116836   4.203   4.716   6.264  1.1432  0.9353  1.8096
 4029WAT     H216837   4.120   4.824   6.253 -0.8829 -0.8208 -1.8940
 4029WAT    EPW16838   4.146   4.761   6.292 -0.4201  0.3623 -0.2069
 4030WAT      O16839   6.815   1.024   0.868  0.3419 -0.2923  0.4808
 4030WAT     H116840   6.738   1.013   0.829  0.3792  0.2596  0.2481
 4030WAT     H216841   6.866   0.966   0.829  0.0055 -0.7773  0.7499
 4030WAT    EPW16842   6.811   1.014   0.857  0.2977 -0.2824  0.4862
 4031WAT      O16843   6.448   6.806   4.763  0.1616 -0.2883  0.0238
 4031WAT     H116844   6.533   6.788   4.775 -0.2229 -2.5017 -0.1761
 4031WAT     H216845   6.428   6.857   4.832  1.8580  1.2551 -0.5378
 4031WAT    EPW16846   6.458   6.811   4.775  0.3554 -0.3873 -0.0887
 4032WAT      O16847   5.468   6.173   7.190  0.0579 -0.0269  0.1712
 4032WAT     H116848   5.473   6.091   7.161 -0.4569  0.1353 -0.3927
 4032WAT     H216849   5.536   6.213   7.152  0.2159 -0.1461  0.3226
 4032WAT    EPW16850   5.479   6.167   7.180  0.0052 -0.0205  0.1103
 4033WAT      O16851   6.225   1.669   5.502 -0.4699  0.1280  0.0178
 4033WAT     H116852   6.150   1.702   5.472  0.2863  1.3921 -0.6003
 4033WAT     H216853   6.284   1.730   5.480  1.0332 -1.6176 -1.1010
 4033WAT    EPW16854   6.223   1.683   5.494 -0.1362  0.0569 -0.2388
 4034WAT      O16855   3.997   2.252   4.315 -0.1019 -0.2461 -0.3965
 4034WAT     H116856   4.040   2.324   4.294  0.8152 -1.2655 -2.2236
 4034WAT     H216857   4.056   2.205   4.359 -0.9334  0.3792  1.4966
 4034WAT    EPW16858   4.012   2.255   4.319 -0.0893 -0.3043 -0.3868
 4035WAT      O16859   3.560   1.840   5.986  0.2709  0.1065 -0.6441
 4035WAT     H116860   3.618   1.887   5.941 -0.9453  1.1843 -1.1613
 4035WAT     H216861   3.495   1.896   5.999 -0.4935 -0.9573  0.2483
 4035WAT    EPW16862   3.559   1.856   5.981 -0.0217  0.1086 -0.5887
 4036WAT      O16863   5.666   2.211   0.472 -0.3660  0.8525 -0.2319
 4036WAT     H116864   5.696   2.191   0.393 -1.7487  2.4916 -1.2488
 4036WAT     H216865   5.734   2.248   0.512  0.3387  0.0302 -0.6590
 4036WAT    EPW16866   5.681   2.214   0.466 -0.4662  0.9731 -0.4452
 4037WAT      O16867   4.820   7.230   7.304 -0.1364  0.1097  0.3297
 4037WAT     H116868   4.848   7.228   7.387  1.1977 -1.6876 -0.0871
 4037WAT     H216869   4.740   7.265   7.310  0.7792  2.1613  2.0601
 4037WAT    EPW16870   4.812   7.235   7.317  0.1959  0.1473  0.5237
 4038WAT      O16871   1.051   3.965   3.923 -0.1506 -0.1781  0.3171
 4038WAT     H116872   1.061   3.879   3.917 -0.1863 -0.1140 -0.8958
 4038WAT     H216873   0.964   3.975   3.932 -0.3114 -0.2190 -1.0300
 4038WAT    EPW16874   1.039   3.954   3.923 -0.1796 -0.1746 -0.0611
 4039WAT      O16875   0.412   0.742   2.307 -0.7159 -0.4967  0.4087
 4039WAT     H116876   0.417   0.817   2.264 -3.2961  0.5137  1.6944
 4039WAT     H216877   0.495   0.726   2.329 -0.0352  1.7408 -0.2646
 4039WAT    EPW16878   0.425   0.750   2.304 -0.9965 -0.0169  0.4991
 4040WAT      O16879   2.893   0.433   6.092  0.0657  0.7845 -0.5068
 4040WAT     H116880   2.843   0.446   6.162  0.3546  0.7786 -0.2987
 4040WAT     H216881   2.971   0.413   6.126  0.0972  0.3507 -0.8237
 4040WAT    EPW16882   2.897   0.432   6.107  0.1130  0.7196 -0.5229
 4041WAT      O16883   6.025   6.446   7.333 -0.1899  0.2460 -0.1631
 4041WAT     H116884   6.074   6.506   7.372  0.6948 -0.8663  0.4995
 4041WAT     H216885   5.947   6.455   7.371  0.3752 -0.1172  1.1492
 4041WAT    EPW16886   6.021   6.456   7.344  0.0243  0.0280  0.1287
 4042WAT      O16887   0.436   5.569   6.707  0.3963  0.0792 -0.1758
 4042WAT     H116888   0.350   5.566   6.720  0.6137 -1.2767  1.1749
 4042WAT     H216889   0.467   5.614   6.775  1.0852 -2.9805  1.7257
 4042WAT    EPW16890   0.428   5.575   6.719  0.5302 -0.5731  0.3046
 4043WAT      O16891   5.333   3.717   5.259  0.2173  0.2200 -0.3098
 4043WAT     H116892   5.397   3.700   5.201  0.9949 -2.2776  1.1017
 4043WAT     H216893   5.377   3.744   5.330 -0.4110  0.0473  0.1511
 4043WAT    EPW16894   5.349   3.718   5.261  0.2393 -0.1745 -0.0332
 4044WAT      O16895   2.289   1.725   3.402 -0.0833  0.2456  0.6220
 4044WAT     H116896   2.310   1.693   3.481  0.7173  0.5138  0.5177
 4044WAT     H216897   2.365   1.748   3.368 -0.1477 -1.8133 -1.1020
 4044WAT    EPW16898   2.303   1.724   3.409  0.0254 -0.0190  0.3519
 4045WAT      O16899   2.415   4.593   4.749 -0.3167  0.1689  0.7378
 4045WAT     H116900   2.443   4.570   4.829 -0.4972  1.3613  1.1577
 4045WAT     H216901   2.382   4.518   4.718  0.3883 -0.4846  1.4948
 4045WAT    EPW16902   2.414   4.578   4.756 -0.2392  0.2485  0.9116
 4046WAT      O16903   0.606   7.080   0.318  0.2422 -0.0363  0.3102
 4046WAT     H116904   0.661   7.074   0.385  0.2373 -1.3077  0.2230
 4046WAT     H216905   0.570   7.159   0.329  0.9663  0.1930  1.2262
 4046WAT    EPW16906   0.609   7.091   0.330  0.3484 -0.1902  0.4326
 4047WAT      O16907   2.234   6.331   4.541  0.1859  0.6075 -0.5020
 4047WAT     H116908   2.247   6.417   4.535  2.3413  0.4234  0.3344
 4047WAT     H216909   2.209   6.320   4.624  3.1935  0.2158  0.4739
 4047WAT    EPW16910   2.232   6.342   4.552  0.9486  0.5225 -0.2343
 4048WAT      O16911   1.272   0.152   1.554  0.4661  0.5183 -0.2250
 4048WAT     H116912   1.192   0.180   1.535 -0.6917 -1.0423  1.8898
 4048WAT     H216913   1.291   0.097   1.489 -0.2004  0.8708 -0.7190
 4048WAT    EPW16914   1.263   0.148   1.542  0.1966  0.3398  0.0144
 4049WAT      O16915   2.797   7.226   3.343 -0.0085  0.6620 -0.0137
 4049WAT     H116916   2.768   7.201   3.422 -0.1192  0.7167 -0.0359
 4049WAT     H216917   2.829   7.306   3.357  1.4583  0.0520  0.3076
 4049WAT    EPW16918   2.797   7.234   3.357  0.1918  0.5800  0.0305
 4050WAT      O16919   6.568   6.236   5.444 -0.3363 -0.0609  0.9997
 4050WAT     H116920   6.550   6.176   5.383  0.3912 -1.7070  2.3328
 4050WAT     H216921   6.632   6.284   5.408  1.3411 -2.1217  1.0996
 4050WAT    EPW16922   6.574   6.235   5.429  0.0189 -0.6085  1.2114
 4051WAT      O16923   4.622   0.862   2.140 -0.7070 -0.0812 -0.0843
 4051WAT     H116924   4.681   0.896   2.085 -0.4077 -0.7004 -0.1498
 4051WAT     H216925   4.671   0.828   2.203 -1.0230 -0.0615  0.1698
 4051WAT    EPW16926   4.638   0.862   2.141 -0.7095 -0.1698 -0.0564
 4052WAT      O16927   0.716   0.096   6.740  0.2087  0.1025 -0.4117
 4052WAT     H116928   0.759   0.161   6.779 -1.9598  0.6652  1.2603
 4052WAT     H216929   0.719   0.031   6.798 -1.5982  0.3622  0.0478
 4052WAT    EPW16930   0.723   0.096   6.754 -0.3786  0.2240 -0.0968
 4053WAT      O16931   2.138   1.479   0.418 -0.4600  0.4081  0.3008
 4053WAT     H116932   2.196   1.417   0.438  0.3406  0.6063 -1.2487
 4053WAT     H216933   2.150   1.492   0.332 -1.0737  2.2122  0.4390
 4053WAT    EPW16934   2.148   1.472   0.408 -0.4324  0.7039  0.0923
 4054WAT      O16935   1.088   2.777   5.891  0.1781  0.2811  0.2103
 4054WAT     H116936   1.098   2.845   5.838  0.8865 -0.1660 -0.2451
 4054WAT     H216937   1.143   2.795   5.957 -0.0231  0.3990  0.3462
 4054WAT    EPW16938   1.098   2.790   5.893  0.2530  0.2325  0.1631
 4055WAT      O16939   7.141   2.293   0.317 -0.6935  0.5232  0.2609
 4055WAT     H116940   7.186   2.333   0.380 -2.7094 -0.5748  2.5944
 4055WAT     H216941   7.101   2.359   0.275  1.6423  1.3641 -0.8013
 4055WAT    EPW16942   7.141   2.308   0.320 -0.6462  0.4852  0.4487
 4056WAT      O16943   1.167   2.701   0.392 -0.2710  0.1410  0.0485
 4056WAT     H116944   1.175   2.678   0.308  1.6918 -0.7191  0.4146
 4056WAT     H216945   1.085   2.678   0.412 -0.1899 -1.3163 -1.1392
 4056WAT    EPW16946   1.156   2.694   0.382  0.0309 -0.2013 -0.0729
 4057WAT      O16947   4.843   6.240   1.269 -0.1810 -0.7331 -0.4818
 4057WAT     H116948   4.769   6.194   1.267 -1.4140  1.1535 -3.1507
 4057WAT     H216949   4.898   6.193   1.220 -0.5779 -0.7085 -0.9592
 4057WAT    EPW16950   4.840   6.226   1.262 -0.4218 -0.4508 -0.9465
 4058WAT      O16951   5.300   4.493   5.239 -0.0677 -0.7049 -0.3831
 4058WAT     H116952   5.261   4.538   5.175  0.6443  0.7691  0.1434
 4058WAT     H216953   5.254   4.420   5.245 -2.1027  0.4826 -0.4762
 4058WAT    EPW16954   5.288   4.489   5.231 -0.2631 -0.3118 -0.3191
 4059WAT      O16955   4.020   3.598   6.760 -0.4092  0.4486 -1.1605
 4059WAT     H116956   4.046   3.543   6.822 -0.7678  0.9749 -0.5366
 4059WAT     H216957   4.079   3.586   6.697 -0.4279 -0.5780 -1.0070
 4059WAT    EPW16958   4.033   3.588   6.760 -0.4649  0.3747 -1.0457
 4060WAT      O16959   4.988   4.733   2.067  1.2782 -0.0334  0.3621
 4060WAT     H116960   5.056   4.679   2.070  0.3715 -1.1996  0.8462
 4060WAT     H216961   4.981   4.762   2.149  0.7619 -0.4965  0.4880
 4060WAT    EPW16962   4.997   4.729   2.079  1.0680 -0.2741  0.4522
 4061WAT      O16963   2.544   3.997   0.293 -1.0340  0.0096 -0.3978
 4061WAT     H116964   2.481   3.943   0.320 -0.1804 -1.1375 -0.6274
 4061WAT     H216965   2.617   3.962   0.325 -0.5507  1.7999  0.6131
 4061WAT    EPW16966   2.546   3.984   0.302 -0.8365  0.1046 -0.2824
 4062WAT      O16967   5.959   5.727   3.419  0.1677  0.0936  0.1460
 4062WAT     H116968   6.046   5.720   3.423  0.1958  0.4487  0.1670
 4062WAT     H216969   5.939   5.774   3.489 -0.0428  0.0230  0.1351
 4062WAT    EPW16970   5.969   5.733   3.430  0.1407  0.1356  0.1475
 4063WAT      O16971   6.669   2.482   5.956 -0.0397 -0.2795  0.4049
 4063WAT     H116972   6.642   2.551   6.003  0.4109 -1.4263  2.5020
 4063WAT     H216973   6.749   2.505   5.931 -0.3338  0.4165  0.0734
 4063WAT    EPW16974   6.677   2.495   5.959 -0.0166 -0.3461  0.6657
 4064WAT      O16975   6.207   2.251   4.005 -0.0470  0.1974  0.5055
 4064WAT     H116976   6.130   2.230   3.968  1.4473 -1.9252 -1.7089
 4064WAT     H216977   6.233   2.176   4.042  1.9032  0.2389 -0.6676
 4064WAT    EPW16978   6.199   2.237   4.005  0.4618 -0.1100  0.0051
 4065WAT      O16979   3.885   6.022   3.304  0.0432  0.4610 -0.2632
 4065WAT     H116980   3.928   5.964   3.255 -0.3411 -0.5823  0.6225
 4065WAT     H216981   3.826   5.975   3.347 -1.4072  1.7441 -0.7522
 4065WAT    EPW16982   3.883   6.007   3.303 -0.2278  0.4965 -0.2046
 4066WAT      O16983   6.349   2.871   2.605 -1.2071  0.2393  0.1224
 4066WAT     H116984   6.395   2.918   2.663 -0.7571  0.6322 -0.5407
 4066WAT     H216985   6.327   2.799   2.650  0.2004 -0.0358  0.4154
 4066WAT    EPW16986   6.353   2.867   2.620 -0.9327  0.2567  0.0677
 4067WAT      O16987   1.752   4.362   2.660  0.4331  0.0935 -0.7598
 4067WAT     H116988   1.757   4.424   2.598  2.9217 -1.1984 -2.0252
 4067WAT     H216989   1.794   4.294   2.624  2.4517 -0.5799  2.4558
 4067WAT    EPW16990   1.759   4.361   2.645  1.0989 -0.1969 -0.4717
 4068WAT      O16991   5.144   6.816   1.813 -0.5247  0.0575  0.1296
 4068WAT     H116992   5.072   6.837   1.768 -0.3006 -1.7590 -1.1636
 4068WAT     H216993   5.125   6.739   1.849  1.0115 -0.8573 -0.9025
 4068WAT    EPW16994   5.130   6.808   1.812 -0.2647 -0.3460 -0.2139
 4069WAT      O16995   3.203   5.376   3.531 -0.4445 -0.9561  0.4001
 4069WAT     H116996   3.265   5.317   3.552  0.0922  0.1599  2.2702
 4069WAT     H216997   3.149   5.373   3.600 -1.5982 -0.7364 -0.4685
 4069WAT    EPW16998   3.204   5.367   3.544 -0.5356 -0.7588  0.5481
 4070WAT      O16999   0.443   6.544   6.874 -0.0201  0.6289 -0.7179
 4070WAT     H117000   0.397   6.591   6.816 -0.8490 -1.4200 -1.8175
 4070WAT     H217001   0.526   6.564   6.855 -0.3418  3.0488  0.1195
 4070WAT    EPW17002   0.448   6.554   6.862 -0.1900  0.6837 -0.7566
 4071WAT      O17003   0.271   1.276   4.660 -0.1729  0.0112 -0.3104
 4071WAT     H117004   0.216   1.211   4.680 -1.7705  1.2789 -0.2888
 4071WAT     H217005   0.262   1.285   4.574  0.4497 -0.1342 -0.3946
 4071WAT    EPW17006   0.261   1.268   4.650 -0.3169  0.1770 -0.3197
 4072WAT      O17007   1.893   4.046   6.992 -0.3741  0.1064 -0.7480
 4072WAT     H117008   1.969   4.022   7.027 -0.2545  0.6461 -0.6308
 4072WAT     H217009   1.843   4.064   7.061  0.0369  1.7157 -0.8318
 4072WAT    EPW17010   1.897   4.046   7.007 -0.2957  0.4238 -0.7430
 4073WAT      O17011   2.719   5.272   6.870 -0.0896  0.1772 -0.1869
 4073WAT     H117012   2.705   5.206   6.925 -2.0321 -0.1312 -0.9755
 4073WAT     H217013   2.743   5.233   6.796  0.2518  0.4488 -0.2210
 4073WAT    EPW17014   2.720   5.257   6.867 -0.3261  0.1718 -0.3085
 4074WAT      O17015   4.180   5.132   3.349 -0.1194  0.1851  0.1643
 4074WAT     H117016   4.214   5.124   3.429 -1.7879 -0.2186  0.8936
 4074WAT     H217017   4.133   5.205   3.354  0.3582  0.5613 -0.6984
 4074WAT    EPW17018   4.178   5.142   3.362 -0.2953  0.1810  0.1446
 4075WAT      O17019   1.733   2.036   3.390 -0.3055 -0.3911  0.3674
 4075WAT     H117020   1.702   1.967   3.434 -0.9854 -0.7454 -0.6408
 4075WAT     H217021   1.804   2.058   3.434 -1.7967  0.2780  2.6251
 4075WAT    EPW17022   1.739   2.029   3.403 -0.6262 -0.3446  0.5520
 4076WAT      O17023   5.091   3.897   4.684  0.2737 -0.1582 -0.1193
 4076WAT     H117024   5.013   3.898   4.724  1.3091 -0.8987  2.1371
 4076WAT     H217025   5.146   3.872   4.748  1.9516 -2.7590 -2.3611
 4076WAT    EPW17026   5.088   3.894   4.700  0.6745 -0.6518 -0.1171
 4077WAT      O17027   0.500   5.049   3.212  0.3385 -0.2017 -0.6514
 4077WAT     H117028   0.493   5.095   3.285  1.4848  0.1953 -0.7672
 4077WAT     H217029   0.578   5.073   3.180 -0.9922  1.2791 -3.1151
 4077WAT    EPW17030   0.511   5.059   3.218  0.3112  0.0757 -1.0325
 4078WAT      O17031   2.082   2.131   3.753  0.2190 -0.2975 -0.4169
 4078WAT     H117032   2.085   2.049   3.783  0.6081 -1.1387 -2.5704
 4078WAT     H217033   2.165   2.149   3.735 -0.0319  0.0059 -1.3328
 4078WAT    EPW17034   2.095   2.121   3.755  0.2394 -0.3770 -0.8703
 4079WAT      O17035   2.455   4.971   3.750  0.1901 -0.4631 -0.4784
 4079WAT     H117036   2.430   5.054   3.741 -2.0493 -0.9263  0.6368
 4079WAT     H217037   2.541   4.976   3.763 -0.0060  1.7368  0.3102
 4079WAT    EPW17038   2.464   4.984   3.750 -0.1697 -0.2066 -0.1972
 4080WAT      O17039   6.395   4.373   7.094  0.6086 -0.1154 -0.0062
 4080WAT     H117040   6.353   4.303   7.063  1.3749 -0.6891  0.2213
 4080WAT     H217041   6.468   4.376   7.045  1.6262 -0.7825  1.3838
 4080WAT    EPW17042   6.400   4.363   7.082  0.8722 -0.2987  0.2327
 4081WAT      O17043   6.014   2.263   6.600  0.3758  0.1190 -0.4520
 4081WAT     H117044   6.100   2.256   6.609  0.4549  1.6136  0.2153
 4081WAT     H217045   5.993   2.196   6.548  1.6873 -1.3391  0.7947
 4081WAT    EPW17046   6.023   2.252   6.594  0.5813  0.1244 -0.1693
 4082WAT      O17047   5.147   5.396   2.135  0.4198 -0.0611  0.5639
 4082WAT     H117048   5.078   5.365   2.178 -0.0655  0.6382  0.3017
 4082WAT     H217049   5.205   5.330   2.139 -0.2238 -0.6168  0.8541
 4082WAT    EPW17050   5.146   5.382   2.142  0.2530 -0.0399  0.5680
 4083WAT      O17051   3.606   7.092   0.256 -0.0834 -0.5242 -0.3871
 4083WAT     H117052   3.629   7.163   0.211 -1.7127  0.7805  0.7127
 4083WAT     H217053   3.646   7.103   0.333  1.2038 -1.8071 -0.8443
 4083WAT    EPW17054   3.615   7.104   0.261 -0.1340 -0.5210 -0.2922
 4084WAT      O17055   5.489   4.975   4.103 -0.6579 -0.3318 -0.0655
 4084WAT     H117056   5.493   4.939   4.182 -0.7040  0.9204  0.5272
 4084WAT     H217057   5.518   4.912   4.050  0.5176 -0.7917  1.0793
 4084WAT    EPW17058   5.494   4.961   4.106 -0.4911 -0.2147  0.1911
 4085WAT      O17059   2.443   3.001   3.671 -0.3629 -0.1546 -0.0873
 4085WAT     H117060   2.517   3.033   3.638  0.3950 -0.1771  1.4874
 4085WAT     H217061   2.451   2.915   3.658 -0.6096 -0.0655 -0.8609
 4085WAT    EPW17062   2.455   2.993   3.664 -0.2874 -0.1448  0.0310
 4086WAT      O17063   4.961   4.869   6.771  0.4757  0.0686  0.1649
 4086WAT     H117064   4.977   4.799   6.820  1.8208  0.3851  0.2038
 4086WAT     H217065   5.009   4.856   6.700 -0.3763  0.2841 -0.4706
 4086WAT    EPW17066   4.971   4.857   6.768  0.5485  0.1472  0.0767
 4087WAT      O17067   6.164   4.339   2.626  0.0296  0.1427 -1.0603
 4087WAT     H117068   6.227   4.321   2.684 -0.8158 -0.3312 -0.2572
 4087WAT     H217069   6.105   4.276   2.640 -0.8163  0.8210 -1.4880
 4087WAT    EPW17070   6.164   4.327   2.637 -0.2202  0.1729 -1.0048
 4088WAT      O17071   6.953   4.869   3.161  0.0662 -0.2047 -0.3184
 4088WAT     H117072   6.923   4.946   3.137 -1.1151 -0.8463 -0.9636
 4088WAT     H217073   6.904   4.812   3.118  2.0781 -1.3357 -1.2906
 4088WAT    EPW17074   6.941   4.872   3.151  0.1889 -0.4665 -0.5574
 4089WAT      O17075   4.554   2.956   5.694  0.3190  0.2987 -0.3173
 4089WAT     H117076   4.527   3.035   5.670  1.1724  0.0580 -2.2482
 4089WAT     H217077   4.632   2.971   5.730  1.0995  0.2338 -1.9264
 4089WAT    EPW17078   4.561   2.970   5.696  0.5603  0.2536 -0.8403
 4090WAT      O17079   0.787   0.175   7.078  0.2978 -0.2981 -0.2953
 4090WAT     H117080   0.865   0.145   7.051 -0.0139 -1.3008 -0.1174
 4090WAT     H217081   0.736   0.104   7.076 -0.1636 -0.0403  1.3429
 4090WAT    EPW17082   0.791   0.160   7.074  0.1836 -0.4081 -0.0270
 4091WAT      O17083   3.981   3.323   5.382  0.1192  0.1343 -0.5376
 4091WAT     H117084   4.001   3.406   5.403 -0.0318  0.2590 -0.8808
 4091WAT     H217085   3.969   3.326   5.296 -1.5027  0.0928 -0.3330
 4091WAT    EPW17086   3.982   3.336   5.373 -0.1427  0.1466 -0.5581
 4092WAT      O17087   4.290   0.590   3.630  0.5565  0.0187 -0.6077
 4092WAT     H117088   4.275   0.618   3.711 -0.1259  0.0426 -0.7365
 4092WAT     H217089   4.377   0.589   3.624  0.6341 -0.8096  0.4113
 4092WAT    EPW17090   4.301   0.594   3.641  0.4672 -0.1001 -0.4762
 4093WAT      O17091   5.891   1.682   4.411 -0.3101  0.2648 -0.4103
 4093WAT     H117092   5.925   1.603   4.426  0.9435  0.5268 -1.6987
 4093WAT     H217093   5.916   1.700   4.330 -2.1344  1.2192 -0.8179
 4093WAT    EPW17094   5.899   1.673   4.401 -0.3944  0.4444 -0.6608
 4094WAT      O17095   0.123   3.878   6.683  0.2192 -0.1026  0.1906
 4094WAT     H117096   0.177   3.831   6.633 -0.9413 -1.4834  0.1821
 4094WAT     H217097   0.177   3.919   6.738  1.4574  0.5728 -1.4215
 4094WAT    EPW17098   0.139   3.877   6.683  0.2307 -0.2068 -0.0488
 4095WAT      O17099   3.596   3.983   3.551  0.0313 -0.2662 -0.7198
 4095WAT     H117100   3.519   3.991   3.510 -0.4836  1.2931  0.4921
 4095WAT     H217101   3.575   3.951   3.629  0.5046  0.8961 -0.0924
 4095WAT    EPW17102   3.582   3.979   3.556  0.0252  0.1358 -0.4481
 4096WAT      O17103   6.412   5.065   4.192 -0.4934  0.3607  0.1576
 4096WAT     H117104   6.350   5.090   4.248 -2.2289 -1.2867 -0.9168
 4096WAT     H217105   6.372   5.068   4.115  0.5806 -1.3234 -0.5033
 4096WAT    EPW17106   6.397   5.069   4.189 -0.5911 -0.1314 -0.0987
 4097WAT      O17107   6.741   7.080   0.651  0.5269  0.5735 -0.0761
 4097WAT     H117108   6.734   7.019   0.713 -0.9078  1.3158  0.5432
 4097WAT     H217109   6.827   7.088   0.640  0.8412  0.6724  2.0776
 4097WAT    EPW17110   6.753   7.072   0.659  0.3614  0.6978  0.3335
 4098WAT      O17111   2.938   4.100   5.464 -0.5365  0.6024 -0.0225
 4098WAT     H117112   3.015   4.140   5.455 -0.5352  0.2206 -2.3989
 4098WAT     H217113   2.954   4.039   5.524  0.2849  2.1511  1.4127
 4098WAT    EPW17114   2.952   4.097   5.471 -0.4149  0.7748 -0.1615
 4099WAT      O17115   5.496   5.707   2.320  0.1304 -0.0408 -0.3370
 4099WAT     H117116   5.463   5.691   2.399 -1.8573  0.4485 -1.0142
 4099WAT     H217117   5.545   5.637   2.304 -0.3905 -0.7051  0.8433
 4099WAT    EPW17118   5.499   5.694   2.330 -0.2401 -0.0666 -0.2627
 4100WAT      O17119   0.900   6.765   2.996 -0.3610 -0.2373  0.7704
 4100WAT     H117120   0.969   6.720   3.025 -1.1225 -1.9661 -0.0229
 4100WAT     H217121   0.872   6.806   3.068  0.9695 -0.1736  1.2894
 4100WAT    EPW17122   0.906   6.765   3.011 -0.2770 -0.4833  0.7299
 4101WAT      O17123   4.779   4.552   0.791  0.3626  0.2450 -0.2380
 4101WAT     H117124   4.827   4.623   0.777  0.7876 -0.3554 -2.1644
 4101WAT     H217125   4.808   4.495   0.731  0.2766 -1.6850  1.4407
 4101WAT    EPW17126   4.790   4.554   0.780  0.4127 -0.1288 -0.2746
 4102WAT      O17127   5.102   4.594   6.981  0.3846 -0.5644  0.8555
 4102WAT     H117128   5.159   4.529   6.974  0.8093 -0.0346 -0.9767
 4102WAT     H217129   5.147   4.665   6.958 -0.5167  0.1365  1.1689
 4102WAT    EPW17130   5.117   4.595   6.977  0.3142 -0.3826  0.6311
 4103WAT      O17131   1.978   6.444   5.097 -0.1787  0.1101 -0.3491
 4103WAT     H117132   2.008   6.524   5.079 -0.6518  0.4703  0.4184
 4103WAT     H217133   1.981   6.404   5.020  3.1437 -0.2157 -0.1900
 4103WAT    EPW17134   1.983   6.450   5.083  0.2422  0.1152 -0.2122
 4104WAT      O17135   1.722   3.878   5.584 -0.5575 -0.4480  0.1228
 4104WAT     H117136   1.781   3.833   5.630  0.0266  0.1129 -0.0567
 4104WAT     H217137   1.741   3.860   5.501  0.2396  0.7682  0.0104
 4104WAT    EPW17138   1.733   3.869   5.579 -0.3535 -0.1855  0.0797
 4105WAT      O17139   6.653   2.856   4.503  0.4225 -0.2712 -0.0888
 4105WAT     H117140   6.630   2.940   4.509  1.8160  0.2516 -1.4927
 4105WAT     H217141   6.587   2.820   4.459 -0.6056 -0.1473  1.2599
 4105WAT    EPW17142   6.640   2.863   4.498  0.4765 -0.1757 -0.0969
 4106WAT      O17143   6.103   0.182   1.164 -0.3719  0.2625  0.2845
 4106WAT     H117144   6.073   0.244   1.111 -1.4297 -0.9020 -0.5397
 4106WAT     H217145   6.088   0.108   1.120  0.6702 -0.6028  1.3158
 4106WAT    EPW17146   6.097   0.181   1.150 -0.3742 -0.0374  0.3151
 4107WAT      O17147   0.130   1.133   6.559  0.1224  0.0483  0.4040
 4107WAT     H117148   0.184   1.155   6.493 -0.2941 -0.6246 -0.1717
 4107WAT     H217149   0.180   1.082   6.609  0.1529 -0.2029  0.1154
 4107WAT    EPW17150   0.146   1.129   6.557  0.0654 -0.0882  0.2763
 4108WAT      O17151   6.857   2.040   0.962 -0.0441 -0.3482 -0.6432
 4108WAT     H117152   6.815   2.006   0.894  1.0170 -1.5990 -0.7330
 4108WAT     H217153   6.927   2.078   0.926  1.1309 -1.9963 -0.2351
 4108WAT    EPW17154   6.861   2.041   0.947  0.2862 -0.7764 -0.5962
 4109WAT      O17155   5.074   0.003   0.951  0.2228  0.6675  0.4435
 4109WAT     H117156   5.099  -0.069   0.994  0.8531  2.0343  2.5102
 4109WAT     H217157   5.118   0.067   0.992 -0.1239  2.2172 -1.4759
 4109WAT    EPW17158   5.084   0.002   0.963  0.2647  1.0983  0.4653
 4110WAT      O17159   4.661   6.320   6.707 -0.2775 -0.2621  0.1892
 4110WAT     H117160   4.596   6.343   6.761 -0.7325  0.4604 -0.6390
 4110WAT     H217161   4.679   6.394   6.664  0.8793 -0.5366  0.1696
 4110WAT    EPW17162   4.654   6.335   6.708 -0.1738 -0.1959  0.0639
 4111WAT      O17163   5.377   3.323   2.662  0.0424 -0.0224 -0.2746
 4111WAT     H117164   5.409   3.274   2.598  1.4730  0.0471  0.3453
 4111WAT     H217165   5.375   3.269   2.731  0.8725  0.5406  0.2145
 4111WAT    EPW17166   5.382   3.308   2.663  0.3764  0.0710 -0.1108
 4112WAT      O17167   6.843   1.354   1.123 -0.2822 -0.3053  0.0582
 4112WAT     H117168   6.808   1.432   1.104 -0.8352 -0.9153 -1.6308
 4112WAT     H217169   6.905   1.373   1.181  1.8446  1.8821 -2.6352
 4112WAT    EPW17170   6.847   1.369   1.129 -0.0497 -0.0723 -0.5891
 4113WAT      O17171   4.970   6.977   2.040 -0.4522 -0.4214  0.2192
 4113WAT     H117172   5.017   6.905   2.054 -0.7911 -0.5413  0.7488
 4113WAT     H217173   4.907   6.950   1.986 -0.3969 -0.4472  0.1671
 4113WAT    EPW17174   4.968   6.963   2.034 -0.4941 -0.4429  0.2897
 4114WAT      O17175   3.422   4.466   3.248  0.4769 -0.6778  0.7322
 4114WAT     H117176   3.419   4.550   3.225  1.2062 -1.0174 -0.7528
 4114WAT     H217177   3.466   4.429   3.182  1.2590 -2.0234  1.9650
 4114WAT    EPW17178   3.428   4.473   3.235  0.7001 -0.9267  0.6950
 4115WAT      O17179   5.090   6.304   3.967 -0.3806 -0.3318  0.9278
 4115WAT     H117180   5.004   6.303   3.979 -0.4791  1.7607  0.6884
 4115WAT     H217181   5.122   6.297   4.048 -0.7908 -0.0067  1.1172
 4115WAT    EPW17182   5.082   6.303   3.981 -0.4557  0.0254  0.9204
 4116WAT      O17183   3.839   5.389   0.545  0.1302  0.3196  0.2294
 4116WAT     H117184   3.849   5.346   0.470  0.0602  0.6876  0.0090
 4116WAT     H217185   3.905   5.360   0.594  0.1761  0.0783  0.0287
 4116WAT    EPW17186   3.850   5.378   0.541  0.1266  0.3384  0.1672
 4117WAT      O17187   6.096   3.663   6.368  0.3835 -0.0825  0.4923
 4117WAT     H117188   6.019   3.670   6.328 -0.1673  0.0988  1.5534
 4117WAT     H217189   6.121   3.581   6.349  0.1156 -0.0169 -0.1745
 4117WAT    EPW17190   6.088   3.652   6.360  0.2626 -0.0461  0.5505
 4118WAT      O17191   7.142   0.848   2.711  0.2162 -0.0468 -0.0041
 4118WAT     H117192   7.221   0.860   2.746 -0.2386 -2.1257  1.9980
 4118WAT     H217193   7.088   0.869   2.776 -0.8895  0.5607 -1.0741
 4118WAT    EPW17194   7.145   0.853   2.726 -0.0143 -0.2642  0.1336
 4119WAT      O17195   5.785   1.680   2.981 -0.1654 -0.3281 -0.2862
 4119WAT     H117196   5.821   1.743   2.932  0.9166 -0.2862  0.5344
 4119WAT     H217197   5.722   1.721   3.025 -0.1332 -0.0369 -0.5105
 4119WAT    EPW17198   5.781   1.696   2.980 -0.0008 -0.2789 -0.1981
 4120WAT      O17199   3.037   2.136   1.099  0.4287 -0.0468  0.0419
 4120WAT     H117200   3.050   2.062   1.143 -1.4106  0.3233  1.3235
 4120WAT     H217201   3.079   2.196   1.147  0.1418  0.0482  0.1765
 4120WAT    EPW17202   3.045   2.134   1.113  0.1146  0.0219  0.2511
 4121WAT      O17203   5.818   4.455   0.123  0.1094 -0.3946 -0.0183
 4121WAT     H117204   5.867   4.398   0.168  1.9722  1.0682 -0.0516
 4121WAT     H217205   5.840   4.532   0.157 -0.4175  0.5287 -1.6385
 4121WAT    EPW17206   5.829   4.458   0.134  0.3067 -0.0421 -0.2626
 4122WAT      O17207   0.181   2.659   1.754 -0.2109  0.1751 -0.2143
 4122WAT     H117208   0.204   2.718   1.814 -0.2744  2.5211 -2.3113
 4122WAT     H217209   0.256   2.624   1.729 -0.2582 -1.5564  1.8041
 4122WAT    EPW17210   0.195   2.663   1.759 -0.2273  0.2659 -0.2259
 4123WAT      O17211   6.465   1.169   1.837 -0.7247  0.3150 -0.2194
 4123WAT     H117212   6.539   1.136   1.806 -0.0966  0.2724  1.2233
 4123WAT     H217213   6.472   1.254   1.820  0.7078  0.6720  1.7603
 4123WAT    EPW17214   6.477   1.177   1.830 -0.4203  0.3615  0.2862
 4124WAT      O17215   5.733   5.417   1.322  0.1668 -0.0149 -0.0356
 4124WAT     H117216   5.708   5.500   1.320 -0.5347 -0.1235  2.2234
 4124WAT     H217217   5.790   5.413   1.388  0.0720 -1.3482  0.0105
 4124WAT    EPW17218   5.738   5.428   1.331  0.0491 -0.2279  0.3049
 4125WAT      O17219   1.358   6.811   0.122  0.2430 -0.2333  0.2833
 4125WAT     H117220   1.401   6.747   0.162 -1.0388  0.0165  2.1963
 4125WAT     H217221   1.279   6.810   0.158  0.4315  3.0161  1.1754
 4125WAT    EPW17222   1.353   6.802   0.133  0.0815  0.2836  0.6977
 4126WAT      O17223   4.543   6.772   4.218 -0.1192  0.1951 -0.0866
 4126WAT     H117224   4.467   6.815   4.212 -1.1163 -1.4369  0.0174
 4126WAT     H217225   4.575   6.799   4.295  0.2643  2.1596 -0.8937
 4126WAT    EPW17226   4.537   6.782   4.229 -0.2099  0.2442 -0.1904
 4127WAT      O17227   6.272   1.651   0.102 -0.1061 -0.2240  0.1690
 4127WAT     H117228   6.260   1.624   0.020  1.6082 -1.1007  0.1577
 4127WAT     H217229   6.215   1.605   0.148 -1.1154  0.3109 -0.5123
 4127WAT    EPW17230   6.262   1.641   0.097 -0.0020 -0.2745  0.0667
 4128WAT      O17231   3.459   4.524   2.228 -0.0810 -0.3680 -0.3567
 4128WAT     H117232   3.467   4.554   2.146 -1.8617  0.9078 -0.1279
 4128WAT     H217233   3.394   4.466   2.222 -0.5026  0.0413  0.2337
 4128WAT    EPW17234   3.451   4.520   2.215 -0.4064 -0.1190 -0.2357
 4129WAT      O17235   6.114   4.915   1.110  0.8710  0.0746  0.2554
 4129WAT     H117236   6.192   4.896   1.145  1.3470 -0.6150 -1.0816
 4129WAT     H217237   6.130   4.915   1.024 -0.9602 -1.9418 -0.1893
 4129WAT    EPW17238   6.128   4.912   1.102  0.6708 -0.3251 -0.0078
 4130WAT      O17239   6.516   6.359   2.722  0.4957 -0.0816 -0.0785
 4130WAT     H117240   6.581   6.398   2.678  0.1660 -0.3209 -0.7934
 4130WAT     H217241   6.470   6.425   2.755  1.2146  0.0904  0.6153
 4130WAT    EPW17242   6.519   6.374   2.720  0.5532 -0.0916 -0.0816
 4131WAT      O17243   2.295   1.496   3.243  0.1234  0.0253  0.4749
 4131WAT     H117244   2.256   1.426   3.276 -0.2939 -0.5382 -1.0963
 4131WAT     H217245   2.288   1.556   3.305  0.0910 -1.1903  1.6761
 4131WAT    EPW17246   2.289   1.494   3.257  0.0569 -0.2375  0.4203
 4132WAT      O17247   1.236   6.544   3.517 -0.3716  0.2657 -0.4978
 4132WAT     H117248   1.155   6.552   3.485 -0.7923  0.4443  0.5633
 4132WAT     H217249   1.227   6.566   3.601  0.5862 -0.6848 -0.1153
 4132WAT    EPW17250   1.223   6.548   3.525 -0.2923  0.1517 -0.2846
 4133WAT      O17251   6.101   4.684   5.880  0.1578  0.1311  0.6310
 4133WAT     H117252   6.108   4.769   5.895 -0.0192  0.3914 -0.6283
 4133WAT     H217253   6.066   4.680   5.800  0.2890 -1.1200  0.6122
 4133WAT    EPW17254   6.097   4.696   5.870  0.1510 -0.0152  0.4422
 4134WAT      O17255   4.891   0.389   0.790 -0.0966 -0.5930 -0.0900
 4134WAT     H117256   4.884   0.470   0.758  1.2935 -1.1853 -2.1272
 4134WAT     H217257   4.923   0.402   0.871  0.3113  0.8936 -0.4557
 4134WAT    EPW17258   4.895   0.403   0.797  0.1690 -0.4609 -0.4449
 4135WAT      O17259   3.047   2.326   0.685 -0.8094  0.4713  0.4819
 4135WAT     H117260   2.976   2.277   0.672 -1.3531  1.5970 -1.0013
 4135WAT     H217261   3.112   2.279   0.651 -0.9716 -0.1795  1.0635
 4135WAT    EPW17262   3.046   2.312   0.678 -0.9137  0.5415  0.3487
 4136WAT      O17263   2.112   1.233   4.578 -0.4521 -0.5147  0.5671
 4136WAT     H117264   2.129   1.283   4.647 -0.0699  0.7640 -0.4137
 4136WAT     H217265   2.186   1.237   4.531 -1.3499  0.2000 -0.8320
 4136WAT    EPW17266   2.126   1.241   4.581 -0.5282 -0.2202  0.2156
 4137WAT      O17267   6.573   2.567   5.604  0.0562  0.0544 -0.6677
 4137WAT     H117268   6.542   2.549   5.524 -1.0548  0.4492 -0.3406
 4137WAT     H217269   6.525   2.516   5.656  0.2164  0.3967 -0.1854
 4137WAT    EPW17270   6.561   2.556   5.600 -0.0843  0.1633 -0.5481
 4138WAT      O17271   4.412   4.640   6.349 -0.0412 -0.3118  0.4468
 4138WAT     H117272   4.387   4.580   6.291 -0.7670 -1.5677  1.9826
 4138WAT     H217273   4.367   4.619   6.421 -0.4624  2.1996  1.0097
 4138WAT    EPW17274   4.401   4.628   6.351 -0.2106 -0.1263  0.7568
 4139WAT      O17275   4.693   3.771   3.170 -0.3667  0.1053 -0.0987
 4139WAT     H117276   4.609   3.787   3.191  0.1077  1.0050  1.2383
 4139WAT     H217277   4.720   3.718   3.233 -0.1069 -0.8141 -0.9527
 4139WAT    EPW17278   4.684   3.766   3.182 -0.2583  0.1024 -0.0273
 4140WAT      O17279   4.258   2.531   5.974  0.3344 -0.3366 -0.6667
 4140WAT     H117280   4.177   2.540   6.005  0.5050 -0.1760 -0.2636
 4140WAT     H217281   4.286   2.614   5.966 -0.0278 -0.3291 -2.1088
 4140WAT    EPW17282   4.250   2.545   5.977  0.3061 -0.3118 -0.8202
 4141WAT      O17283   0.384   5.854   0.044 -0.3806  0.3782  0.7271
 4141WAT     H117284   0.468   5.841   0.023 -0.4181  2.0355 -0.6086
 4141WAT     H217285   0.355   5.773   0.060  0.8732 -0.4985 -1.0728
 4141WAT    EPW17286   0.392   5.840   0.043 -0.2009  0.4935  0.2639
 4142WAT      O17287   1.609   5.856   5.687  0.1698  0.4618 -0.0454
 4142WAT     H117288   1.645   5.915   5.740  2.1866 -0.3370 -0.4230
 4142WAT     H217289   1.560   5.808   5.740  0.5198  0.9247  0.7104
 4142WAT    EPW17290   1.607   5.858   5.703  0.5194  0.4122  0.0105
 4143WAT      O17291   2.081   5.757   6.599  0.4426  0.4585 -0.1651
 4143WAT     H117292   2.050   5.680   6.574 -2.9743  0.8878  2.1209
 4143WAT     H217293   2.085   5.803   6.525 -0.4136 -1.0009 -1.1485
 4143WAT    EPW17294   2.077   5.753   6.584 -0.1886  0.3063  0.0273
 4144WAT      O17295   3.157   6.117   2.671  0.1090 -0.2421 -0.0470
 4144WAT     H117296   3.096   6.167   2.708  0.1348  0.1416 -0.5135
 4144WAT     H217297   3.208   6.174   2.629  1.2865 -0.4710  1.0218
 4144WAT    EPW17298   3.155   6.133   2.670  0.2868 -0.2192  0.0420
 4145WAT      O17299   4.589   5.468   3.454  0.3755  0.5827 -0.5248
 4145WAT     H117300   4.628   5.390   3.462  1.3645  1.1171  0.0942
 4145WAT     H217301   4.509   5.454   3.484  0.3762 -0.3284 -0.9346
 4145WAT    EPW17302   4.583   5.455   3.460  0.5217  0.5270 -0.4939
 4146WAT      O17303   0.914   3.210   2.580 -0.0902  0.1881  0.1882
 4146WAT     H117304   0.993   3.225   2.547  0.0723 -1.2507 -0.1424
 4146WAT     H217305   0.861   3.223   2.511 -0.1313  0.8649  0.3371
 4146WAT    EPW17306   0.918   3.214   2.565 -0.0723  0.0755  0.1613
 4147WAT      O17307   0.984   0.328   6.869 -0.0634  0.3123  0.3200
 4147WAT     H117308   0.924   0.371   6.915  0.3163 -0.5129  1.6715
 4147WAT     H217309   1.038   0.296   6.931 -0.0214 -1.5952 -0.6256
 4147WAT    EPW17310   0.983   0.330   6.885 -0.0011 -0.0914  0.3800
 4148WAT      O17311   5.733   5.957   0.921 -0.4382  0.2221 -0.1372
 4148WAT     H117312   5.763   5.965   0.839 -0.0804  1.1662  0.0784
 4148WAT     H217313   5.670   6.017   0.926  1.3186  2.0761  1.0690
 4148WAT    EPW17314   5.728   5.967   0.910 -0.1258  0.6354  0.0728
 4149WAT      O17315   3.798   2.138   3.477  0.3249 -0.4897  0.2221
 4149WAT     H117316   3.800   2.194   3.411 -1.9786  0.3064  0.7525
 4149WAT     H217317   3.878   2.144   3.511  1.1931 -0.0766 -1.7563
 4149WAT    EPW17318   3.810   2.147   3.472  0.1129 -0.3111  0.0082
 4150WAT      O17319   3.615   3.025   5.653 -0.5112 -0.2698 -0.1180
 4150WAT     H117320   3.661   2.955   5.628  0.7859  0.4000  0.3208
 4150WAT     H217321   3.618   3.078   5.583 -1.7205 -0.7272 -0.5505
 4150WAT    EPW17322   3.622   3.023   5.639 -0.4982 -0.2385 -0.1171
 4151WAT      O17323   0.830   0.027   1.017 -0.3229 -0.0673  0.1924
 4151WAT     H117324   0.786   0.072   0.957  0.3461 -1.4856 -1.4292
 4151WAT     H217325   0.781   0.037   1.089 -1.8997  0.5539 -0.8959
 4151WAT    EPW17326   0.816   0.035   1.019 -0.4570 -0.1851 -0.2079
 4152WAT      O17327   0.121   5.499   2.770  0.2561  0.2839 -0.4168
 4152WAT     H117328   0.133   5.413   2.779  0.6640  0.2009 -1.5648
 4152WAT     H217329   0.187   5.534   2.816 -1.3018  0.0927  2.1602
 4152WAT    EPW17330   0.133   5.492   2.778  0.0862  0.2434 -0.2057
 4153WAT      O17331   3.693   4.258   1.752  0.4561 -0.1777 -0.0199
 4153WAT     H117332   3.719   4.334   1.787 -1.2146  1.1005 -1.3631
 4153WAT     H217333   3.631   4.282   1.695 -1.5757 -2.7191  0.9169
 4153WAT    EPW17334   3.688   4.273   1.748 -0.0909 -0.3643 -0.0800
 4154WAT      O17335   2.081   3.888   0.735 -0.3506 -0.1975 -0.3110
 4154WAT     H117336   2.123   3.906   0.809 -0.5346 -0.8214 -0.0450
 4154WAT     H217337   2.137   3.835   0.693 -0.3090  0.0368 -0.5482
 4154WAT    EPW17338   2.096   3.883   0.740 -0.3717 -0.2551 -0.3068
 4155WAT      O17339   6.796   3.797   0.445 -0.4940 -0.1219  0.6075
 4155WAT     H117340   6.825   3.715   0.442 -0.1642  0.0114 -1.2939
 4155WAT     H217341   6.866   3.844   0.423 -1.1745  0.5097 -0.2549
 4155WAT    EPW17342   6.811   3.792   0.441 -0.5458 -0.0089  0.1993
 4156WAT      O17343   1.622   6.648   6.630  0.4886  0.2518  0.3515
 4156WAT     H117344   1.557   6.672   6.684  0.7501 -1.1356  1.3111
 4156WAT     H217345   1.579   6.621   6.559  0.0703  0.5241  0.4921
 4156WAT    EPW17346   1.606   6.648   6.628  0.4654  0.0871  0.5140
 4157WAT      O17347   3.330   6.727   1.736 -0.0153 -0.3303  0.2687
 4157WAT     H117348   3.411   6.739   1.704 -0.8194 -1.3375 -2.4651
 4157WAT     H217349   3.281   6.718   1.664 -2.5995  0.2519  1.8244
 4157WAT    EPW17350   3.335   6.727   1.720 -0.5158 -0.3930  0.0947
 4158WAT      O17351   0.841   6.277   0.779  0.3210 -0.0882  0.0633
 4158WAT     H117352   0.890   6.281   0.707  0.9182 -1.8318  0.3159
 4158WAT     H217353   0.885   6.221   0.830 -2.0579 -2.0207  0.1776
 4158WAT    EPW17354   0.855   6.269   0.776  0.0578 -0.6313  0.1175
 4159WAT      O17355   5.009   6.151   6.285  0.3787 -0.1402 -0.3434
 4159WAT     H117356   4.990   6.066   6.277 -0.4322  0.0899 -1.1106
 4159WAT     H217357   4.978   6.185   6.211 -0.2625  0.9943  0.4199
 4159WAT    EPW17358   5.001   6.143   6.273  0.1642  0.0613 -0.3440
 4160WAT      O17359   1.936   1.592   5.708 -0.0650 -0.3997  0.0925
 4160WAT     H117360   1.995   1.593   5.772  1.2063 -1.3521 -1.0069
 4160WAT     H217361   1.966   1.652   5.651 -0.0685 -0.9649 -0.5243
 4160WAT    EPW17362   1.949   1.601   5.709  0.1223 -0.6239 -0.1610
 4161WAT      O17363   2.016   5.874   6.844 -0.1196  0.2869  0.4531
 4161WAT     H117364   2.080   5.934   6.843  0.4407 -0.2880  1.2801
 4161WAT     H217365   2.028   5.830   6.770  0.2137  0.4079  0.4358
 4161WAT    EPW17366   2.027   5.877   6.833  0.0124  0.2198  0.5727
 4162WAT      O17367   2.815   1.416   7.199 -0.1155  0.9904  0.3680
 4162WAT     H117368   2.869   1.467   7.245  0.8772 -0.3451  0.7543
 4162WAT     H217369   2.797   1.351   7.253 -1.5808  1.0413 -0.0225
 4162WAT    EPW17370   2.821   1.414   7.214 -0.1853  0.8006  0.3674
 4163WAT      O17371   6.054   2.872   2.885  0.4559 -0.0476  0.1646
 4163WAT     H117372   6.139   2.893   2.886  1.7405 -4.2823  0.4315
 4163WAT     H217373   6.033   2.873   2.801  0.1661  2.4838  0.1698
 4163WAT    EPW17374   6.064   2.875   2.873  0.6029 -0.2992  0.2048
 4164WAT      O17375   4.950   5.506   1.984 -0.0962 -0.1472 -0.0121
 4164WAT     H117376   5.027   5.479   2.015 -0.8356 -1.7896  0.5139
 4164WAT     H217377   4.922   5.439   1.935 -1.0614  0.5194 -0.4061
 4164WAT    EPW17378   4.957   5.492   1.982 -0.3480 -0.2913  0.0074
 4165WAT      O17379   5.754   7.131   3.618  0.4724 -0.6961  0.1229
 4165WAT     H117380   5.680   7.086   3.606 -0.0081  0.1453 -0.1845
 4165WAT     H217381   5.769   7.124   3.704  0.7995 -2.0164 -0.0244
 4165WAT    EPW17382   5.745   7.124   3.629  0.4498 -0.7669  0.0557
 4166WAT      O17383   3.874   5.979   2.554  0.1366  0.1650  0.6419
 4166WAT     H117384   3.836   5.956   2.479  0.7309  0.9983  0.0679
 4166WAT     H217385   3.819   6.039   2.587  0.8790  1.3460 -0.1726
 4166WAT    EPW17386   3.860   5.984   2.548  0.3341  0.4626  0.4368
 4167WAT      O17387   5.295   2.736   7.227 -0.2838  0.1972 -1.2056
 4167WAT     H117388   5.225   2.767   7.184 -1.1299  1.6696  1.0969
 4167WAT     H217389   5.321   2.802   7.277  0.5164 -1.4508  0.7194
 4167WAT    EPW17390   5.288   2.750   7.228 -0.2906  0.1713 -0.5811
 4168WAT      O17391   0.417   1.154   1.075 -0.4716 -0.5303 -0.2908
 4168WAT     H117392   0.453   1.187   1.003 -0.5294 -1.9073 -0.9760
 4168WAT     H217393   0.484   1.115   1.115  0.0981  2.1686  1.6616
 4168WAT    EPW17394   0.432   1.153   1.070 -0.3960 -0.3350 -0.1036
 4169WAT      O17395   0.822   6.114   2.929 -0.0274 -0.2726  0.9821
 4169WAT     H117396   0.773   6.164   2.980 -2.4102 -2.5328  1.0799
 4169WAT     H217397   0.765   6.077   2.874  2.0729 -0.0711 -1.5895
 4169WAT    EPW17398   0.806   6.116   2.928 -0.0691 -0.5767  0.6167
 4170WAT      O17399   1.688   5.948   2.396  0.7953  0.2449 -0.0538
 4170WAT     H117400   1.701   6.011   2.455  2.8114 -0.6687  0.5574
 4170WAT     H217401   1.764   5.907   2.393  0.1414 -0.9478 -1.9074
 4170WAT    EPW17402   1.701   5.951   2.404  0.9965 -0.0662 -0.2373
 4171WAT      O17403   1.232   5.429   2.390  0.2785 -0.0695  0.5068
 4171WAT     H117404   1.295   5.479   2.356  1.8982 -2.0901  0.3476
 4171WAT     H217405   1.163   5.446   2.340  1.7256 -0.5570 -1.8325
 4171WAT    EPW17406   1.231   5.439   2.378  0.7315 -0.4400  0.1377
 4172WAT      O17407   1.103   5.011   5.037  0.0139  0.1184 -0.5352
 4172WAT     H117408   1.136   5.092   5.040  1.6717 -0.5545  0.7722
 4172WAT     H217409   1.139   4.971   5.106 -2.0825 -1.2774 -0.1612
 4172WAT    EPW17410   1.113   5.017   5.047 -0.0509 -0.1872 -0.2868
 4173WAT      O17411   6.305   0.948   3.120 -0.3064 -0.0361  0.0320
 4173WAT     H117412   6.311   1.002   3.188  0.6028 -1.5075  1.1841
 4173WAT     H217413   6.387   0.918   3.110 -0.7694 -1.2043 -0.5356
 4173WAT    EPW17414   6.318   0.951   3.128 -0.2405 -0.4260  0.1184
 4174WAT      O17415   1.423   6.254   3.511 -0.3262 -0.3821 -0.3983
 4174WAT     H117416   1.483   6.317   3.519  0.9809 -1.6800  0.4612
 4174WAT     H217417   1.374   6.264   3.582  0.9216 -1.3415  0.6452
 4174WAT    EPW17418   1.425   6.265   3.523  0.0513 -0.7155 -0.1172
 4175WAT      O17419   7.115   7.160   5.357  0.3121  0.6507  0.2043
 4175WAT     H117420   7.169   7.228   5.369  0.2236  0.9008 -0.7218
 4175WAT     H217421   7.111   7.123   5.436  2.6036  0.0559  0.1110
 4175WAT    EPW17422   7.123   7.165   5.370  0.6375  0.5998  0.0537
 4176WAT      O17423   7.283   3.497   3.648 -0.1385  0.1175 -0.0951
 4176WAT     H117424   7.324   3.436   3.602  0.2157 -0.2393  0.6631
 4176WAT     H217425   7.308   3.481   3.730  0.8568  1.9693  0.0189
 4176WAT    EPW17426   7.293   3.486   3.654  0.0609  0.3384  0.0337
 4177WAT      O17427   3.330   1.761   2.993 -0.2148  0.1190 -0.2286
 4177WAT     H117428   3.299   1.840   2.972 -0.1144 -0.2513 -1.8669
 4177WAT     H217429   3.263   1.708   2.975 -0.3912 -0.1568  1.1605
 4177WAT    EPW17430   3.315   1.765   2.987 -0.2260  0.0236 -0.2654
 4178WAT      O17431   5.915   6.091   6.949 -0.5018 -0.0976  0.0631
 4178WAT     H117432   5.876   6.097   7.026 -0.0080  0.2246  0.2962
 4178WAT     H217433   5.915   6.006   6.932  0.5975 -0.3311  1.0697
 4178WAT    EPW17434   5.909   6.080   6.958 -0.2664 -0.0845  0.2462
 4179WAT      O17435   7.229   1.874   2.691 -0.4090  0.0425  0.4517
 4179WAT     H117436   7.147   1.886   2.718 -0.5828 -1.2307  0.5380
 4179WAT     H217437   7.223   1.880   2.604 -0.5596  0.0992  0.4661
 4179WAT    EPW17438   7.216   1.877   2.682 -0.4569 -0.1372  0.4666
 4180WAT      O17439   4.739   1.677   1.186 -0.0971 -0.0283 -0.4163
 4180WAT     H117440   4.742   1.727   1.258 -0.2328  3.3490 -2.5162
 4180WAT     H217441   4.819   1.687   1.151  0.0383 -1.7816 -0.7091
 4180WAT    EPW17442   4.751   1.686   1.192 -0.0971  0.2116 -0.7698
 4181WAT      O17443   6.459   5.596   2.944  0.5104 -0.1412 -0.2000
 4181WAT     H117444   6.543   5.583   2.928  1.2901  1.6409  1.9560
 4181WAT     H217445   6.436   5.656   2.885  1.1649  0.4313  0.1140
 4181WAT    EPW17446   6.468   5.603   2.933  0.7222  0.2066  0.1649
 4182WAT      O17447   2.329   4.825   6.079 -0.1686 -0.0672  0.3997
 4182WAT     H117448   2.320   4.746   6.043 -1.8523  1.2815 -2.5119
 4182WAT     H217449   2.253   4.838   6.120 -1.0602  1.0289 -1.4903
 4182WAT    EPW17450   2.317   4.816   6.080 -0.5491  0.2939 -0.3096
 4183WAT      O17451   1.154   3.091   4.658 -0.3390  0.2894  0.4249
 4183WAT     H117452   1.202   3.164   4.665 -0.8728  0.7657 -0.6708
 4183WAT     H217453   1.124   3.079   4.739  3.8912 -1.6839  2.0028
 4183WAT    EPW17454   1.157   3.100   4.671  0.2070  0.0682  0.4962
 4184WAT      O17455   5.884   3.923   3.266  0.3232  0.1393 -0.0193
 4184WAT     H117456   5.843   3.994   3.296 -2.1089 -0.6666 -1.1826
 4184WAT     H217457   5.869   3.926   3.180  0.8995 -1.3270 -0.1939
 4184WAT    EPW17458   5.876   3.934   3.258  0.0490 -0.1964 -0.2169
 4185WAT      O17459   3.460   1.603   5.201 -0.5304 -0.2305 -0.0912
 4185WAT     H117460   3.392   1.657   5.205 -0.4167 -0.1683  1.2781
 4185WAT     H217461   3.425   1.524   5.212 -0.3339 -0.1453  1.3385
 4185WAT    EPW17462   3.445   1.599   5.203 -0.4846 -0.2087  0.3223
 4186WAT      O17463   5.415   1.728   4.252 -0.5579 -0.4318 -0.4884
 4186WAT     H117464   5.430   1.808   4.282 -1.1485 -0.9703  1.3590
 4186WAT     H217465   5.408   1.680   4.324  0.7112 -2.3414 -1.5571
 4186WAT    EPW17466   5.416   1.733   4.267 -0.4577 -0.7935 -0.3734
 4187WAT      O17467   1.594   6.379   0.334  0.7144 -0.1138 -0.2049
 4187WAT     H117468   1.664   6.348   0.376  1.1696  0.3303 -0.6274
 4187WAT     H217469   1.530   6.374   0.394  1.3445  0.5092  0.5402
 4187WAT    EPW17470   1.595   6.374   0.349  0.8747  0.0438 -0.1572
 4188WAT      O17471   6.929   0.564   4.912 -0.2290  0.2286 -0.2272
 4188WAT     H117472   6.991   0.536   4.968  0.4578  2.4267  0.2025
 4188WAT     H217473   6.944   0.649   4.906 -2.1994  0.5447 -1.4626
 4188WAT    EPW17474   6.940   0.572   4.920 -0.4186  0.6000 -0.3462
 4189WAT      O17475   1.108   6.443   1.645 -0.6375  0.3462 -0.4880
 4189WAT     H117476   1.174   6.409   1.600 -0.7479 -0.5549 -0.0019
 4189WAT     H217477   1.123   6.529   1.643  0.6447  0.1433 -0.2433
 4189WAT    EPW17478   1.120   6.450   1.638 -0.4644  0.1831 -0.3801
 4190WAT      O17479   0.815   4.437   7.423  0.8754  0.1681 -0.1660
 4190WAT     H117480   0.769   4.452   7.496 -0.1189  1.3568 -0.9826
 4190WAT     H217481   0.811   4.351   7.413 -1.9380  0.2475 -0.5936
 4190WAT    EPW17482   0.807   4.427   7.432  0.3129  0.3555 -0.3498
 4191WAT      O17483   4.301   6.626   5.088  0.5036  0.4653  0.5632
 4191WAT     H117484   4.369   6.572   5.076  1.8194  2.3072 -0.9901
 4191WAT     H217485   4.304   6.645   5.173  0.5015 -1.1995  0.9743
 4191WAT    EPW17486   4.312   6.621   5.099  0.6977  0.4915  0.3945
 4192WAT      O17487   1.490   3.071   0.164  0.6425  0.1003  0.3233
 4192WAT     H117488   1.516   3.039   0.087  1.4930 -1.6949  1.2805
 4192WAT     H217489   1.474   3.155   0.148 -0.7827 -0.5486 -2.1660
 4192WAT    EPW17490   1.491   3.078   0.150  0.5576 -0.2608  0.0970
 4193WAT      O17491   2.631   1.919   2.248  0.2383 -0.3317  0.3983
 4193WAT     H117492   2.657   1.846   2.287 -1.4775 -1.0285  0.3402
 4193WAT     H217493   2.697   1.974   2.260  1.4450 -1.7949  0.7083
 4193WAT    EPW17494   2.645   1.917   2.255  0.1631 -0.6508  0.4355
 4194WAT      O17495   3.606   2.684   2.003 -0.0740 -0.4556 -0.4037
 4194WAT     H117496   3.549   2.619   2.013  1.2739 -1.4272  1.6929
 4194WAT     H217497   3.561   2.755   2.029 -1.0657 -0.7732 -1.2053
 4194WAT    EPW17498   3.591   2.685   2.009 -0.0214 -0.6461 -0.2124
 4195WAT      O17499   3.647   6.312   4.410  0.3647 -0.3456 -0.7756
 4195WAT     H117500   3.638   6.319   4.496  0.0827  1.1457 -0.8994
 4195WAT     H217501   3.695   6.381   4.388 -0.0017 -0.4113 -1.8789
 4195WAT    EPW17502   3.652   6.323   4.419  0.2689 -0.1350 -0.9569
 4196WAT      O17503   4.568   5.723   7.200  0.4036  0.7829  0.0338
 4196WAT     H117504   4.637   5.668   7.199  1.6235  2.1658  1.3909
 4196WAT     H217505   4.500   5.670   7.186  1.5503 -1.0188  0.7408
 4196WAT    EPW17506   4.568   5.707   7.198  0.7532  0.7210  0.3387
 4197WAT      O17507   0.937   6.179   7.420 -0.7993  0.1768 -0.5179
 4197WAT     H117508   0.982   6.123   7.469 -1.3210 -0.4251 -0.7046
 4197WAT     H217509   0.991   6.199   7.355 -0.9095 -0.7986 -0.9262
 4197WAT    EPW17510   0.951   6.174   7.418 -0.8926 -0.0562 -0.6058
 4198WAT      O17511   6.081   5.911   0.455 -0.0724 -0.0040 -0.1469
 4198WAT     H117512   6.118   5.986   0.431 -1.1844  0.7466  0.3951
 4198WAT     H217513   6.042   5.883   0.383 -1.6212  1.1621  0.1952
 4198WAT    EPW17514   6.081   5.918   0.441 -0.4654  0.2792 -0.0163
 4199WAT      O17515   4.032   1.539   5.842  0.0493  0.0752  0.3524
 4199WAT     H117516   4.094   1.516   5.786  1.1557  1.7248  0.7960
 4199WAT     H217517   4.076   1.578   5.907 -1.4700  3.6970 -0.4885
 4199WAT    EPW17518   4.048   1.542   5.844 -0.0117  0.8539  0.2937
 4200WAT      O17519   1.429   2.534   4.614  0.1075  0.1297 -0.5078
 4200WAT     H117520   1.446   2.532   4.699 -0.9856  1.8798 -0.1821
 4200WAT     H217521   1.508   2.532   4.577  0.5943 -0.6629  0.5308
 4200WAT    EPW17522   1.443   2.534   4.621  0.0179  0.2711 -0.3063
 4201WAT      O17523   1.269   4.063   2.055  0.1448 -0.3901 -0.4732
 4201WAT     H117524   1.211   4.048   2.119 -0.9733 -0.9713 -1.5837
 4201WAT     H217525   1.277   4.150   2.056 -0.4488 -0.3297 -0.0549
 4201WAT    EPW17526   1.262   4.074   2.065 -0.1080 -0.4671 -0.5755
 4202WAT      O17527   4.756   0.157   2.742  0.1276 -0.4093  0.4154
 4202WAT     H117528   4.825   0.117   2.779 -0.2142  0.0427  1.5861
 4202WAT     H217529   4.788   0.235   2.719  0.6917 -1.1424 -1.5180
 4202WAT    EPW17530   4.771   0.163   2.744  0.1605 -0.4508  0.3027
 4203WAT      O17531   3.459   2.484   6.433  0.1512  0.6227  0.0268
 4203WAT     H117532   3.545   2.497   6.438  0.5503 -1.6958  0.2463
 4203WAT     H217533   3.450   2.397   6.438 -2.1653  0.7328 -0.6509
 4203WAT    EPW17534   3.470   2.473   6.435 -0.1320  0.2964 -0.0409
 4204WAT      O17535   1.605   0.121   3.756 -0.0539  0.1535  0.0562
 4204WAT     H117536   1.632   0.116   3.839 -1.5591 -0.6572  0.5235
 4204WAT     H217537   1.520   0.137   3.763 -0.3688 -0.8114 -1.3089
 4204WAT    EPW17538   1.597   0.123   3.770 -0.3228 -0.1088 -0.0764
 4205WAT      O17539   2.864   5.065   4.022  0.2799 -0.2733 -0.7861
 4205WAT     H117540   2.946   5.089   4.041 -0.0089 -0.6671  1.2532
 4205WAT     H217541   2.818   5.137   4.037 -0.1839 -1.0235  2.2273
 4205WAT    EPW17542   2.869   5.079   4.027  0.1688 -0.4423 -0.0397
 4206WAT      O17543   1.139   6.755   0.620  0.5408 -0.6652  0.0413
 4206WAT     H117544   1.096   6.696   0.573 -0.4869  0.9658 -1.1750
 4206WAT     H217545   1.096   6.757   0.696 -0.7541 -0.0014 -0.6831
 4206WAT    EPW17546   1.127   6.747   0.624  0.1977 -0.3262 -0.2454
 4207WAT      O17547   3.964   2.604   0.938 -0.5517 -0.1828 -0.0609
 4207WAT     H117548   3.909   2.638   0.997 -0.3719 -0.7500  0.4355
 4207WAT     H217549   3.956   2.518   0.948 -1.3520 -0.3419 -1.6391
 4207WAT    EPW17550   3.955   2.597   0.948 -0.6433 -0.2901 -0.2207
 4208WAT      O17551   6.474   1.205   4.037 -0.1150 -0.2106  0.4189
 4208WAT     H117552   6.400   1.212   3.991  0.3872  0.9702 -0.2580
 4208WAT     H217553   6.531   1.252   3.991  0.8660 -0.4613  1.3415
 4208WAT    EPW17554   6.471   1.213   4.023  0.1041 -0.0732  0.4552
 4209WAT      O17555   4.399   3.266   0.156 -0.1020  0.1363  0.1290
 4209WAT     H117556   4.377   3.275   0.239  0.7996  1.3046  0.2777
 4209WAT     H217557   4.354   3.329   0.115  1.9457  1.8176  0.2798
 4209WAT    EPW17558   4.389   3.277   0.162  0.3337  0.5573  0.1733
 4210WAT      O17559   5.481   5.686   5.412 -0.1939 -0.1599 -0.0942
 4210WAT     H117560   5.423   5.751   5.414  0.0566  0.0734 -0.3177
 4210WAT     H217561   5.558   5.728   5.411 -0.0409 -0.4528 -0.9163
 4210WAT    EPW17562   5.484   5.702   5.412 -0.1343 -0.1687 -0.2487
 4211WAT      O17563   5.212   1.335   0.324  0.4318 -0.6807  0.2164
 4211WAT     H117564   5.177   1.283   0.385 -1.1026  0.3300  0.2530
 4211WAT     H217565   5.276   1.377   0.367 -0.3448 -0.2996  1.0210
 4211WAT    EPW17566   5.216   1.334   0.339  0.0904 -0.4751  0.3407
 4212WAT      O17567   1.404   6.776   1.003 -0.1089  0.1110 -0.0717
 4212WAT     H117568   1.354   6.761   1.073 -0.0939 -1.2283 -0.3111
 4212WAT     H217569   1.389   6.859   0.983  1.3252  1.1525  2.6459
 4212WAT    EPW17570   1.395   6.786   1.011  0.1052  0.0670  0.2944
 4213WAT      O17571   2.313   5.935   4.810  0.2125 -0.0596  0.2371
 4213WAT     H117572   2.377   5.989   4.785  0.3100 -0.1887  0.2113
 4213WAT     H217573   2.355   5.864   4.837  0.1861  0.5307  1.9393
 4213WAT    EPW17574   2.328   5.933   4.810  0.2230  0.0085  0.4847
 4214WAT      O17575   1.443   4.834   7.198 -0.2270  0.4574 -0.6413
 4214WAT     H117576   1.481   4.764   7.233  0.8698  1.3305 -0.0506
 4214WAT     H217577   1.360   4.827   7.222 -0.0252 -0.3866 -0.1876
 4214WAT    EPW17578   1.436   4.823   7.206 -0.0351  0.4617 -0.4870
 4215WAT      O17579   6.318   3.110   5.519  0.3257 -0.1669 -0.4195
 4215WAT     H117580   6.336   3.136   5.437  0.4713  0.9338 -0.0604
 4215WAT     H217581   6.295   3.027   5.510  0.7576 -0.1810 -1.5312
 4215WAT    EPW17582   6.318   3.102   5.505  0.4110 -0.0064 -0.5306
 4216WAT      O17583   4.401   2.165   3.601  0.0201 -0.0185  0.0465
 4216WAT     H117584   4.368   2.158   3.521  0.8049 -0.9659 -0.2168
 4216WAT     H217585   4.440   2.243   3.601 -1.7919  0.9155  0.2217
 4216WAT    EPW17586   4.402   2.175   3.589 -0.1316 -0.0205  0.0335
 4217WAT      O17587   3.239   4.080   3.197 -0.4188  0.1087  0.2962
 4217WAT     H117588   3.264   4.133   3.132  0.1947 -0.8213 -0.2408
 4217WAT     H217589   3.178   4.030   3.161 -0.9075  0.3460  0.7722
 4217WAT    EPW17590   3.233   4.081   3.182 -0.4004  0.0064  0.2872
 4218WAT      O17591   0.175   1.009   6.140  0.1009 -0.4768  0.0783
 4218WAT     H117592   0.190   1.072   6.199 -1.9623  0.1902 -0.0317
 4218WAT     H217593   0.192   1.048   6.064  0.0600 -0.4577  0.0791
 4218WAT    EPW17594   0.180   1.024   6.138 -0.2099 -0.3755  0.0622
 4219WAT      O17595   0.693   4.683   0.215  0.2002  0.2254 -0.8480
 4219WAT     H117596   0.717   4.610   0.256 -1.2514 -0.4267 -1.0806
 4219WAT     H217597   0.768   4.726   0.203  1.1260 -1.3693 -0.9958
 4219WAT    EPW17598   0.707   4.678   0.219  0.1225 -0.1065 -0.9042
 4220WAT      O17599   0.161   2.428   6.008  0.3192 -0.8155  0.1333
 4220WAT     H117600   0.120   2.352   6.019 -0.6533 -0.7718 -2.4921
 4220WAT     H217601   0.102   2.488   6.032  0.6766 -0.8328  1.1000
 4220WAT    EPW17602   0.146   2.426   6.013  0.2283 -0.8116 -0.1117
 4221WAT      O17603   6.944   3.244   5.152  0.4617  0.0598 -0.3741
 4221WAT     H117604   6.975   3.198   5.085 -0.5136 -1.4596  0.1828
 4221WAT     H217605   6.987   3.211   5.221 -0.5960 -0.3978  0.0906
 4221WAT    EPW17606   6.955   3.232   5.152  0.1614 -0.2322 -0.2232
 4222WAT      O17607   0.989   1.707   1.062 -0.1848 -0.0875  0.1654
 4222WAT     H117608   0.925   1.723   1.005  0.0426 -4.4067 -1.6814
 4222WAT     H217609   0.954   1.648   1.116  2.0925 -2.8499 -1.1044
 4222WAT    EPW17610   0.975   1.701   1.061  0.1852 -1.1336 -0.2950
 4223WAT      O17611   6.672   7.186   1.543 -0.6293 -0.4938 -0.1869
 4223WAT     H117612   6.731   7.121   1.550  0.7738  0.8811  1.9565
 4223WAT     H217613   6.685   7.215   1.462  1.2702 -0.6410 -0.0030
 4223WAT    EPW17614   6.683   7.181   1.532 -0.1414 -0.3124  0.1569
 4224WAT      O17615   6.253   7.140   3.102  0.2887 -0.4077 -0.1129
 4224WAT     H117616   6.257   7.085   3.034  2.1236 -0.1413 -0.2643
 4224WAT     H217617   6.296   7.211   3.074  0.6348 -0.0980  1.1452
 4224WAT    EPW17618   6.260   7.142   3.088  0.6109 -0.3226  0.0506
 4225WAT      O17619   2.443   0.413   5.220  0.3889  0.2838 -0.2054
 4225WAT     H117620   2.379   0.453   5.263  0.6111  0.6825 -0.2408
 4225WAT     H217621   2.451   0.336   5.262 -0.5898 -0.0672 -0.6592
 4225WAT    EPW17622   2.435   0.407   5.233  0.2772  0.2909 -0.2777
 4226WAT      O17623   2.301   1.683   3.034 -0.1114 -0.0328 -0.2223
 4226WAT     H117624   2.292   1.629   3.103  1.5371  2.3771  2.0957
 4226WAT     H217625   2.385   1.706   3.037 -0.2491  1.0025 -2.4383
 4226WAT    EPW17626   2.312   1.678   3.045  0.1118  0.4762 -0.2072
 4227WAT      O17627   0.529   4.468   1.912 -0.5111  0.0179  0.1354
 4227WAT     H117628   0.575   4.394   1.921 -0.0272  0.3772  0.6250
 4227WAT     H217629   0.447   4.439   1.900 -0.4174 -0.5943  0.8813
 4227WAT    EPW17630   0.523   4.453   1.912 -0.4258 -0.0195  0.3179
 4228WAT      O17631   0.854   5.942   3.131  0.0832  0.1536 -0.1826
 4228WAT     H117632   0.882   5.868   3.095 -0.8473 -0.8248  0.9919
 4228WAT     H217633   0.861   6.001   3.067 -0.1296 -1.1773 -1.4819
 4228WAT    EPW17634   0.859   5.940   3.116 -0.0857 -0.1876 -0.2010
 4229WAT      O17635   2.468   5.768   2.574 -0.2348  0.0462 -0.0956
 4229WAT     H117636   2.539   5.817   2.577 -1.3800  1.9213 -1.3010
 4229WAT     H217637   2.403   5.824   2.591 -1.6581 -0.8730 -2.0184
 4229WAT    EPW17638   2.469   5.783   2.577 -0.6142  0.1874 -0.5577
 4230WAT      O17639   0.920   7.029   1.075 -0.8407 -0.3102  0.2667
 4230WAT     H117640   0.896   7.113   1.077 -1.1787 -0.3852 -0.4822
 4230WAT     H217641   0.946   7.017   0.993  2.9155  0.0702  1.1905
 4230WAT    EPW17642   0.920   7.040   1.063 -0.3358 -0.2651  0.2925
 4231WAT      O17643   1.168   3.103   2.290  0.2435 -0.2336  0.2563
 4231WAT     H117644   1.152   3.129   2.208 -1.0286 -0.2155  0.4857
 4231WAT     H217645   1.239   3.053   2.283  0.3525  0.0556 -0.7953
 4231WAT    EPW17646   1.176   3.100   2.277  0.0717 -0.1882  0.1348
 4232WAT      O17647   0.681   5.569   7.154  0.6114 -0.1302  0.0358
 4232WAT     H117648   0.627   5.557   7.221 -0.5997 -0.7752 -1.0109
 4232WAT     H217649   0.650   5.641   7.115 -0.8781 -1.6890 -1.7980
 4232WAT    EPW17650   0.669   5.578   7.158  0.2125 -0.4558 -0.3897
 4233WAT      O17651   7.140   5.488   1.080 -0.1654 -0.2497  0.2017
 4233WAT     H117652   7.054   5.490   1.094  0.0965  1.0721  1.8938
 4233WAT     H217653   7.156   5.561   1.037  0.2467  0.0910  0.9111
 4233WAT    EPW17654   7.130   5.499   1.076 -0.0658 -0.0042  0.5564
 4234WAT      O17655   4.982   4.078   2.321  0.0590 -0.3592  0.1896
 4234WAT     H117656   5.028   4.150   2.306 -1.0383  0.5536  1.0284
 4234WAT     H217657   5.037   4.027   2.365  0.7177  0.1152 -0.0719
 4234WAT    EPW17658   4.997   4.081   2.325 -0.0058 -0.1543  0.2749
 4235WAT      O17659   6.795   0.147   6.191  0.0669  0.3762  0.2009
 4235WAT     H117660   6.804   0.146   6.278  0.0171 -2.6010  0.2640
 4235WAT     H217661   6.876   0.140   6.161 -0.0034  0.2703  0.0298
 4235WAT    EPW17662   6.808   0.146   6.199  0.0492 -0.0793  0.1850
 4236WAT      O17663   5.599   4.658   1.899 -0.4065 -0.2266  0.2766
 4236WAT     H117664   5.679   4.627   1.915 -0.3075 -1.0793 -1.6487
 4236WAT     H217665   5.598   4.670   1.813 -2.0149  0.7919  0.3914
 4236WAT    EPW17666   5.611   4.655   1.889 -0.6295 -0.2021  0.0091
 4237WAT      O17667   0.252   2.319   4.641 -0.4242  0.3553 -0.0385
 4237WAT     H117668   0.223   2.397   4.669  1.1665  0.3176  1.8990
 4237WAT     H217669   0.298   2.289   4.708 -0.4080 -1.9814 -1.0186
 4237WAT    EPW17670   0.255   2.326   4.655 -0.1868  0.0046  0.1030
 4238WAT      O17671   6.266   1.927   1.709  0.5215 -0.4083  0.1644
 4238WAT     H117672   6.309   1.905   1.781  1.8629 -0.3085 -0.5807
 4238WAT     H217673   6.313   1.992   1.675 -0.6125  0.2051 -0.3144
 4238WAT    EPW17674   6.279   1.933   1.715  0.5521 -0.3029 -0.0164
 4239WAT      O17675   2.169   2.625   7.426  0.1227 -0.3208  0.6971
 4239WAT     H117676   2.169   2.588   7.347 -0.6861  1.1536 -0.0177
 4239WAT     H217677   2.237   2.588   7.466 -0.2053 -2.0204 -0.2243
 4239WAT    EPW17678   2.179   2.614   7.420 -0.0452 -0.3541  0.4554
 4240WAT      O17679   3.635   2.853   0.057 -0.3718 -0.0284 -0.2172
 4240WAT     H117680   3.551   2.832   0.049 -0.6785  0.8730  0.4631
 4240WAT     H217681   3.646   2.863   0.143  0.0050  1.4644 -0.4091
 4240WAT    EPW17682   3.624   2.852   0.068 -0.3615  0.3253 -0.1451
 4241WAT      O17683   2.343   1.201   6.214  0.0230 -0.5085 -0.0272
 4241WAT     H117684   2.332   1.237   6.293  2.1466  1.9959 -0.7335
 4241WAT     H217685   2.387   1.127   6.231  2.1522  0.9071  1.1302
 4241WAT    EPW17686   2.348   1.195   6.228  0.6512  0.0706  0.0395
 4242WAT      O17687   2.284   7.257   1.352  0.2403 -0.2904  0.0604
 4242WAT     H117688   2.262   7.197   1.292 -0.4233 -0.0620  0.0728
 4242WAT     H217689   2.330   7.212   1.410  0.8482 -0.5299 -0.5868
 4242WAT    EPW17690   2.288   7.242   1.351  0.2321 -0.2920 -0.0334
 4243WAT      O17691   2.365   5.929   5.703  0.8464  0.6568  0.4621
 4243WAT     H117692   2.439   5.885   5.691 -0.4813 -1.0691 -2.5609
 4243WAT     H217693   2.390   6.001   5.746  4.0161 -0.4232  0.6616
 4243WAT    EPW17694   2.380   5.933   5.708  1.1185  0.2423  0.0450
 4244WAT      O17695   0.318   0.091   3.406  0.1215  0.5787 -0.3789
 4244WAT     H117696   0.311   0.177   3.398 -1.0706  0.9499  3.0153
 4244WAT     H217697   0.237   0.062   3.390 -0.3277  0.5441  1.6678
 4244WAT    EPW17698   0.305   0.099   3.402 -0.1209  0.6284  0.4248
 4245WAT      O17699   2.691   3.191   5.354  0.1962  0.1201 -0.4211
 4245WAT     H117700   2.721   3.109   5.350  3.2663  0.9741  1.7460
 4245WAT     H217701   2.700   3.212   5.438  0.2033  2.8817 -1.0307
 4245WAT    EPW17702   2.697   3.182   5.366  0.6508  0.6542 -0.1910
 4246WAT      O17703   6.778   2.351   5.671 -0.0924 -0.1425  0.0990
 4246WAT     H117704   6.743   2.311   5.602  0.8278  0.2781 -0.6259
 4246WAT     H217705   6.757   2.435   5.658  1.3285  0.1454 -0.4548
 4246WAT    EPW17706   6.770   2.357   5.659  0.2534 -0.0379 -0.0899
 4247WAT      O17707   5.790   5.893   2.953 -0.0257 -0.4425 -0.1393
 4247WAT     H117708   5.826   5.856   3.023 -1.3036 -2.7080 -0.5942
 4247WAT     H217709   5.842   5.869   2.888  0.1985  0.2186 -0.2174
 4247WAT    EPW17710   5.803   5.884   2.954 -0.1813 -0.6795 -0.2180
 4248WAT      O17711   4.130   6.544   6.554  0.6997 -0.4716 -0.1047
 4248WAT     H117712   4.067   6.484   6.559 -0.0511  0.2555 -0.5045
 4248WAT     H217713   4.177   6.520   6.484 -0.6201  0.3193 -1.3197
 4248WAT    EPW17714   4.128   6.532   6.544  0.3938 -0.2474 -0.3433
 4249WAT      O17715   0.946   0.500   6.633  0.6348  0.5057  0.0935
 4249WAT     H117716   0.949   0.453   6.706 -0.9099  1.5964  0.9282
 4249WAT     H217717   0.988   0.450   6.574  1.0459 -0.8386  1.4670
 4249WAT    EPW17718   0.952   0.485   6.635  0.4673  0.4682  0.4197
 4250WAT      O17719   1.088   4.963   1.307  0.1105  0.2360  0.3213
 4250WAT     H117720   1.040   5.028   1.340  0.8475  1.2749 -0.6068
 4250WAT     H217721   1.146   4.946   1.370  0.2308  0.8254  0.3754
 4250WAT    EPW17722   1.089   4.970   1.321  0.2371  0.4765  0.1922
 4251WAT      O17723   2.967   0.191   3.311  0.4991 -0.1767 -0.2231
 4251WAT     H117724   2.936   0.272   3.315  0.3211 -0.2065 -0.9194
 4251WAT     H217725   3.027   0.189   3.374  0.5313  0.5056 -0.2244
 4251WAT    EPW17726   2.971   0.202   3.321  0.4776 -0.0803 -0.3262
 4252WAT      O17727   3.115   0.623   4.491  0.3049  0.2422 -0.0039
 4252WAT     H117728   3.172   0.686   4.474  0.7183  0.1098  0.8409
 4252WAT     H217729   3.073   0.611   4.415  1.9273 -0.2138 -0.8720
 4252WAT    EPW17730   3.117   0.630   4.477  0.6057  0.1553 -0.0073
 4253WAT      O17731   5.171   4.898   1.903 -0.5875  0.5224 -0.0512
 4253WAT     H117732   5.239   4.920   1.952 -0.2412 -0.0357 -0.2762
 4253WAT     H217733   5.112   4.868   1.960 -0.6496  1.0025  0.1414
 4253WAT    EPW17734   5.172   4.897   1.918 -0.5455  0.5109 -0.0560
 4254WAT      O17735   1.815   1.656   6.981 -0.2763  0.2991  0.1029
 4254WAT     H117736   1.730   1.668   6.964  0.0994  0.0502 -2.2853
 4254WAT     H217737   1.815   1.599   7.047 -2.0816 -2.5123 -2.0710
 4254WAT    EPW17738   1.803   1.650   6.988 -0.4875 -0.1530 -0.5710
 4255WAT      O17739   6.683   5.775   5.959 -0.2692  0.3003 -0.2775
 4255WAT     H117740   6.767   5.753   5.956 -0.3974 -0.6961  1.8359
 4255WAT     H217741   6.681   5.856   5.927  1.0494 -0.6259 -2.9997
 4255WAT    EPW17742   6.695   5.784   5.954 -0.0934  0.0163 -0.3674
 4256WAT      O17743   5.850   4.602   1.534 -0.1409 -0.1136  0.5716
 4256WAT     H117744   5.901   4.649   1.481  0.4654 -1.1315  0.2205
 4256WAT     H217745   5.903   4.583   1.601 -0.7397  0.6942  1.3062
 4256WAT    EPW17746   5.866   4.606   1.536 -0.1398 -0.1446  0.6283
 4257WAT      O17747   2.939   0.333   1.206  0.2754  0.4897 -0.3280
 4257WAT     H117748   3.025   0.321   1.197 -0.0320 -1.7834 -0.9265
 4257WAT     H217749   2.918   0.380   1.136  1.0420  1.1462 -0.1260
 4257WAT    EPW17750   2.948   0.338   1.194  0.3432  0.2509 -0.3866
 4258WAT      O17751   2.881   0.920   3.425  0.2197  0.4192  0.0286
 4258WAT     H117752   2.897   0.855   3.369 -2.1467  0.1725 -0.4729
 4258WAT     H217753   2.884   0.991   3.375  0.1277  0.4148  0.0172
 4258WAT    EPW17754   2.884   0.920   3.410 -0.1434  0.3821 -0.0472
 4259WAT      O17755   4.180   1.005   7.411 -0.5921 -0.0574  0.1994
 4259WAT     H117756   4.127   0.999   7.342 -3.2988  0.3768  2.0545
 4259WAT     H217757   4.259   0.986   7.379 -2.0793 -2.5101 -2.4884
 4259WAT    EPW17758   4.184   1.001   7.396 -1.2117 -0.3556  0.0764
 4260WAT      O17759   3.360   2.690   0.409  0.1078 -0.2191 -0.5156
 4260WAT     H117760   3.331   2.734   0.478  0.3560 -1.1009  0.1710
 4260WAT     H217761   3.310   2.719   0.343 -1.5970 -0.8937  0.4196
 4260WAT    EPW17762   3.348   2.701   0.409 -0.1074 -0.4490 -0.2760
 4261WAT      O17763   0.272   0.210   0.293  0.1236  0.7206 -0.1618
 4261WAT     H117764   0.187   0.219   0.312  0.1717  0.0230  0.3974
 4261WAT     H217765   0.277   0.238   0.210 -0.8115 -0.0465 -0.5035
 4261WAT    EPW17766   0.260   0.216   0.283 -0.0074  0.5042 -0.1297
 4262WAT      O17767   6.813   0.901   3.920 -0.2741  0.2083 -0.1290
 4262WAT     H117768   6.875   0.962   3.925 -0.1663  0.1603 -0.7745
 4262WAT     H217769   6.847   0.834   3.963  0.2945  0.0501 -0.8081
 4262WAT    EPW17770   6.827   0.900   3.927 -0.1742  0.1778 -0.3247
 4263WAT      O17771   6.976   4.320   1.944 -0.9414 -0.3711 -0.1674
 4263WAT     H117772   7.025   4.341   2.013 -0.1499 -1.4506 -0.3648
 4263WAT     H217773   6.907   4.373   1.949 -0.0952  0.6758  0.5344
 4263WAT    EPW17774   6.973   4.331   1.955 -0.6995 -0.3759 -0.0929
 4264WAT      O17775   2.050   1.738   5.479 -0.2708  0.3934 -0.2686
 4264WAT     H117776   2.121   1.784   5.501  0.8040 -1.7191  1.0623
 4264WAT     H217777   2.028   1.769   5.401  1.0168  2.3495  0.0708
 4264WAT    EPW17778   2.057   1.750   5.471  0.0782  0.3703 -0.0219
 4265WAT      O17779   4.979   0.365   3.104  0.0468 -0.1250 -0.0254
 4265WAT     H117780   4.923   0.302   3.081 -2.2129  1.2118  1.4453
 4265WAT     H217781   5.016   0.334   3.177  0.7453 -0.7195 -0.6193
 4265WAT    EPW17782   4.976   0.351   3.111 -0.1838 -0.0154  0.1041
 4266WAT      O17783   5.704   7.063   4.741  0.1553  0.3732 -0.3324
 4266WAT     H117784   5.650   7.129   4.724  0.8599  1.0497  0.0163
 4266WAT     H217785   5.674   6.999   4.690 -2.1807  0.0797  1.2191
 4266WAT    EPW17786   5.691   7.063   4.731 -0.0857  0.4298 -0.0517
 4267WAT      O17787   0.226   2.985   4.799 -0.7023  1.2400 -0.2289
 4267WAT     H117788   0.177   2.916   4.777  1.5183 -0.0072 -1.6367
 4267WAT     H217789   0.203   3.045   4.739  0.1721  0.3036 -1.5610
 4267WAT    EPW17790   0.215   2.984   4.787 -0.2451  0.9175 -0.6336
 4268WAT      O17791   3.361   0.502   1.954  0.4276 -0.6513  0.1393
 4268WAT     H117792   3.354   0.417   1.939  1.4530 -0.9426  1.0964
 4268WAT     H217793   3.331   0.511   2.036 -1.9101  0.3260 -0.7398
 4268WAT    EPW17794   3.356   0.491   1.964  0.2337 -0.5500  0.1509
 4269WAT      O17795   5.428   7.088   6.140  0.8689  0.1879 -0.5247
 4269WAT     H117796   5.468   7.067   6.215 -0.0698  2.6717  0.7967
 4269WAT     H217797   5.379   7.156   6.162 -2.6908 -1.4694 -2.4742
 4269WAT    EPW17798   5.427   7.095   6.154  0.2044  0.3100 -0.6175
 4270WAT      O17799   5.253   0.191   2.967  0.1460  0.4728 -0.2792
 4270WAT     H117800   5.312   0.229   2.915  0.2171 -1.7344 -1.9469
 4270WAT     H217801   5.267   0.229   3.044  1.4764  2.3763 -1.3595
 4270WAT    EPW17802   5.264   0.203   2.971  0.3530  0.4280 -0.6851
 4271WAT      O17803   6.883   5.465   5.854  0.2534 -0.1425 -0.2438
 4271WAT     H117804   6.841   5.511   5.792  1.8788  0.9696 -0.5752
 4271WAT     H217805   6.959   5.445   5.817 -0.3799 -3.3154 -0.1686
 4271WAT    EPW17806   6.888   5.469   5.839  0.4000 -0.4469 -0.2817
 4272WAT      O17807   1.629   5.044   7.003 -0.3384 -0.3812 -0.0339
 4272WAT     H117808   1.553   5.087   7.014 -1.3911 -1.0675 -3.5418
 4272WAT     H217809   1.621   4.975   7.057 -1.4899  0.3847  0.8295
 4272WAT    EPW17810   1.616   5.040   7.013 -0.6640 -0.3695 -0.4246
 4273WAT      O17811   4.099   5.996   6.921  0.2572 -0.5501 -0.1943
 4273WAT     H117812   4.063   6.073   6.939  0.2562 -0.4067 -0.7971
 4273WAT     H217813   4.185   6.014   6.919  0.3024 -0.7018  0.3223
 4273WAT    EPW17814   4.107   6.010   6.923  0.2638 -0.5513 -0.2071
 4274WAT      O17815   1.994   2.990   6.041  0.0603 -0.1742  0.2467
 4274WAT     H117816   2.011   2.912   6.005 -1.2329  0.8040 -2.8553
 4274WAT     H217817   2.071   3.031   6.037  0.1262 -0.3588 -0.8891
 4274WAT    EPW17818   2.008   2.985   6.035 -0.1210 -0.0570 -0.3793
 4275WAT      O17819   0.947   6.068   0.961 -0.3514 -0.6863  0.6732
 4275WAT     H117820   0.997   6.087   1.030  0.5420  0.4763 -0.2651
 4275WAT     H217821   0.981   5.993   0.932 -0.8898 -1.3188  1.6161
 4275WAT    EPW17822   0.960   6.060   0.967 -0.2990 -0.6080  0.6739
 4276WAT      O17823   3.983   5.079   3.073  0.0928  0.1500 -0.1857
 4276WAT     H117824   4.041   5.020   3.100 -0.9131  0.0422  1.8551
 4276WAT     H217825   4.020   5.110   3.000  1.9078 -1.0886  0.1219
 4276WAT    EPW17826   3.997   5.075   3.066  0.2124 -0.0489  0.1612
 4277WAT      O17827   3.964   0.098   2.129 -0.4344 -0.1290 -0.3729
 4277WAT     H117828   4.020   0.058   2.183  0.1545  1.7398  0.4945
 4277WAT     H217829   3.904   0.131   2.183 -1.2041 -0.2973 -1.1113
 4277WAT    EPW17830   3.963   0.097   2.145 -0.4611  0.1222 -0.3539
 4278WAT      O17831   4.510   6.657   0.817 -0.3562  1.2367 -0.2402
 4278WAT     H117832   4.445   6.629   0.868  1.1982  0.5470  1.4635
 4278WAT     H217833   4.468   6.687   0.746 -2.5546  1.3394  0.9955
 4278WAT    EPW17834   4.494   6.657   0.814 -0.4514  1.1500  0.1940
 4279WAT      O17835   5.655   6.674   3.437 -0.3288 -0.6244 -0.2870
 4279WAT     H117836   5.734   6.660   3.404 -0.3082 -1.6337  0.1628
 4279WAT     H217837   5.631   6.750   3.402  1.1786  0.1139  0.2296
 4279WAT    EPW17838   5.663   6.683   3.427 -0.1031 -0.6645 -0.1442
 4280WAT      O17839   0.433   1.745   4.077 -0.0416  0.2001 -0.3589
 4280WAT     H117840   0.434   1.721   3.994  0.0964 -0.3282 -0.2047
 4280WAT     H217841   0.424   1.832   4.073  1.2860  0.3188 -0.9469
 4280WAT    EPW17842   0.432   1.754   4.064  0.1749  0.1396 -0.4230
 4281WAT      O17843   2.495   3.600   6.642  0.6341  0.3340 -0.0309
 4281WAT     H117844   2.441   3.598   6.574  0.6318  1.0550 -0.0542
 4281WAT     H217845   2.572   3.623   6.607  0.8902 -0.3745  0.0487
 4281WAT    EPW17846   2.498   3.603   6.627  0.6716  0.3358 -0.0226
 4282WAT      O17847   5.928   3.872   6.151  0.1973  0.6347  0.0495
 4282WAT     H117848   5.888   3.924   6.093  0.1863 -0.0346 -0.5621
 4282WAT     H217849   5.863   3.827   6.187  0.0469  1.9964  1.6060
 4282WAT    EPW17850   5.913   3.873   6.148  0.1734  0.7370  0.1891
 4283WAT      O17851   2.332   1.045   3.513  0.1571 -0.1128 -0.2256
 4283WAT     H117852   2.370   1.000   3.448  0.1032 -0.2892 -0.1357
 4283WAT     H217853   2.395   1.050   3.574 -0.5265 -2.0964  0.7495
 4283WAT    EPW17854   2.347   1.039   3.512  0.0482 -0.4319 -0.0683
 4284WAT      O17855   4.831   4.012   0.984  0.1739  0.4537 -0.9498
 4284WAT     H117856   4.829   3.938   1.029 -1.7786 -0.2133 -1.9916
 4284WAT     H217857   4.762   4.005   0.931  0.7221  2.4342 -2.0210
 4284WAT    EPW17858   4.820   4.000   0.983 -0.0335  0.6477 -1.2619
 4285WAT      O17859   6.578   2.480   0.446 -0.0850  0.0765  0.5478
 4285WAT     H117860   6.596   2.452   0.366 -1.3329 -0.5455  0.4622
 4285WAT     H217861   6.536   2.555   0.433  0.6696  0.5326  0.6739
 4285WAT    EPW17862   6.574   2.487   0.432 -0.1579  0.0520  0.5538
 4286WAT      O17863   6.715   0.498   2.849 -0.0525  0.5731  0.3345
 4286WAT     H117864   6.645   0.469   2.805 -0.9016 -0.3254  2.1540
 4286WAT     H217865   6.715   0.583   2.832 -1.4783  0.5593  0.0948
 4286WAT    EPW17866   6.704   0.506   2.840 -0.3885  0.4384  0.5678
 4287WAT      O17867   3.694   5.512   4.809 -0.3219 -0.1249  0.1004
 4287WAT     H117868   3.736   5.439   4.786 -1.8473 -1.0377  0.0487
 4287WAT     H217869   3.611   5.486   4.817 -0.7092  1.3210  1.3691
 4287WAT    EPW17870   3.688   5.497   4.807 -0.6044 -0.0462  0.2802
 4288WAT      O17871   6.032   4.752   5.176  0.0361 -0.2648 -0.3313
 4288WAT     H117872   6.114   4.733   5.199  0.0840  0.0350 -0.2444
 4288WAT     H217873   5.986   4.686   5.208  0.2726 -0.5621 -0.5924
 4288WAT    EPW17874   6.038   4.740   5.184  0.0781 -0.2644 -0.3570
 4289WAT      O17875   5.735   5.145   1.785  0.1950 -0.4724 -0.0649
 4289WAT     H117876   5.691   5.097   1.843 -2.1542  0.9032 -0.6039
 4289WAT     H217877   5.686   5.141   1.713  0.5533  1.7057 -0.4954
 4289WAT    EPW17878   5.721   5.138   1.783 -0.0991  0.0526 -0.2081
 4290WAT      O17879   0.599   5.035   4.292  0.1062  1.0540 -0.3646
 4290WAT     H117880   0.631   5.076   4.361 -0.3674  1.8367 -0.5945
 4290WAT     H217881   0.514   5.056   4.293 -0.0200  0.6043 -0.8559
 4290WAT    EPW17882   0.591   5.044   4.302  0.0176  1.1032 -0.4711
 4291WAT      O17883   0.919   4.291   3.360  0.1996  0.0486 -0.1134
 4291WAT     H117884   0.885   4.369   3.344  0.5721  0.1836 -0.2465
 4291WAT     H217885   0.960   4.270   3.286 -0.0261 -0.3427 -0.1338
 4291WAT    EPW17886   0.920   4.299   3.347  0.2213  0.0107 -0.1361
 4292WAT      O17887   4.116   1.657   6.060 -0.5017  0.4419 -0.2289
 4292WAT     H117888   4.193   1.694   6.078  0.3273 -0.9362 -0.7881
 4292WAT     H217889   4.058   1.716   6.086  0.5934 -0.0987  4.2609
 4292WAT    EPW17890   4.118   1.671   6.067 -0.2175  0.1584  0.3517
 4293WAT      O17891   4.083   1.353   2.450  0.2902 -0.3335  0.4003
 4293WAT     H117892   4.109   1.398   2.520 -0.8531  0.5247  0.3006
 4293WAT     H217893   4.013   1.397   2.422  0.6109 -0.7772 -1.1686
 4293WAT    EPW17894   4.076   1.366   2.456  0.1687 -0.2722  0.1538
 4294WAT      O17895   4.921   4.748   4.903  0.4234  0.1669 -0.4483
 4294WAT     H117896   4.903   4.833   4.892  1.1134  0.3866  0.0426
 4294WAT     H217897   4.872   4.725   4.971 -0.5090 -0.0873 -1.1828
 4294WAT    EPW17898   4.911   4.757   4.911  0.3876  0.1618 -0.4843
 4295WAT      O17899   0.987   1.952   6.826 -0.7440 -0.6621  0.3738
 4295WAT     H117900   1.029   1.877   6.841  0.5915 -0.1913 -0.7571
 4295WAT     H217901   1.012   1.973   6.745  0.4116  1.9158  1.3040
 4295WAT    EPW17902   0.997   1.944   6.816 -0.3760 -0.2117  0.3442
 4296WAT      O17903   2.102   3.992   5.320 -0.3596 -0.3937  0.0114
 4296WAT     H117904   2.188   3.995   5.334 -0.7938  0.4796  3.3404
 4296WAT     H217905   2.071   3.955   5.393 -2.8262 -0.9328 -1.1953
 4296WAT    EPW17906   2.110   3.987   5.333 -0.7881 -0.3443  0.3249
 4297WAT      O17907   6.809   5.560   4.476  0.2034  0.0555  0.2836
 4297WAT     H117908   6.724   5.576   4.484 -0.7697 -3.8628 -0.1935
 4297WAT     H217909   6.819   5.538   4.392  1.4691 -0.5380  0.5582
 4297WAT    EPW17910   6.798   5.559   4.465  0.2466 -0.6110  0.2537
 4298WAT      O17911   7.161   3.139   0.998 -0.1774 -0.2470  0.1649
 4298WAT     H117912   7.195   3.211   0.962 -0.6084  0.0097  0.2672
 4298WAT     H217913   7.080   3.163   1.019 -0.5669 -0.9769 -0.4567
 4298WAT    EPW17914   7.154   3.153   0.996 -0.2986 -0.3169  0.0882
 4299WAT      O17915   0.288   4.420   2.240 -0.3717 -0.6670 -0.7958
 4299WAT     H117916   0.375   4.431   2.243 -0.3944 -0.6915  0.5524
 4299WAT     H217917   0.258   4.502   2.234 -0.2621 -0.6675 -1.4363
 4299WAT    EPW17918   0.296   4.434   2.240 -0.3589 -0.6707 -0.6913
 4300WAT      O17919   1.179   5.231   6.339  0.1709 -0.5614 -0.2090
 4300WAT     H117920   1.264   5.249   6.334  0.4756 -2.0613 -1.1506
 4300WAT     H217921   1.177   5.151   6.373 -0.7544 -1.2486 -1.7666
 4300WAT    EPW17922   1.191   5.222   6.344  0.0792 -0.8845 -0.5782
 4301WAT      O17923   7.154   6.517   1.853 -0.2614  0.1533  0.2012
 4301WAT     H117924   7.241   6.520   1.845 -0.2298 -0.4641  0.2396
 4301WAT     H217925   7.134   6.436   1.827 -0.6786 -0.2297  1.6313
 4301WAT    EPW17926   7.164   6.505   1.848 -0.3184  0.0055  0.4181
 4302WAT      O17927   0.236   5.876   0.608 -0.1457 -0.4721 -0.4237
 4302WAT     H117928   0.230   5.923   0.681 -1.4698 -1.3311  0.0444
 4302WAT     H217929   0.240   5.794   0.637  2.0357 -0.7378 -1.2319
 4302WAT    EPW17930   0.236   5.871   0.623 -0.0190 -0.6382 -0.4740
 4303WAT      O17931   3.460   1.241   0.115  0.0667 -0.4464  0.4512
 4303WAT     H117932   3.546   1.256   0.109 -0.1238  0.5739 -0.0361
 4303WAT     H217933   3.455   1.156   0.131  1.1688 -0.5516  0.3302
 4303WAT    EPW17934   3.472   1.231   0.116  0.2014 -0.3112  0.3613
 4304WAT      O17935   6.718   0.669   7.058  0.5171 -0.0784  0.3690
 4304WAT     H117936   6.650   0.656   7.004 -0.1816  1.3465  0.8694
 4304WAT     H217937   6.720   0.756   7.068  1.8658 -0.1662  1.0931
 4304WAT    EPW17938   6.708   0.680   7.051  0.6132  0.1192  0.5499
 4305WAT      O17939   0.652   3.612   3.494  0.2497 -0.5089  0.0468
 4305WAT     H117940   0.578   3.656   3.503  0.5687  0.3600 -1.3920
 4305WAT     H217941   0.684   3.639   3.418  1.3961 -1.8498  0.0036
 4305WAT    EPW17942   0.646   3.623   3.484  0.4662 -0.5786 -0.1721
 4306WAT      O17943   6.467   7.248   1.708 -0.0195  0.2038  0.5226
 4306WAT     H117944   6.478   7.202   1.782 -1.4032  0.4993  0.9410
 4306WAT     H217945   6.535   7.225   1.660  0.2758 -0.9308  1.4257
 4306WAT    EPW17946   6.479   7.238   1.712 -0.1803  0.0798  0.7178
 4307WAT      O17947   6.446   5.982   0.291  0.0389 -0.8937 -0.0458
 4307WAT     H117948   6.520   6.014   0.325  0.1155  1.7954 -2.3794
 4307WAT     H217949   6.436   5.906   0.333  1.6673  0.6479  3.5887
 4307WAT    EPW17950   6.455   5.975   0.302  0.2908 -0.2687  0.1464
 4308WAT      O17951   1.806   2.600   4.892 -0.0620  0.3838  0.4400
 4308WAT     H117952   1.817   2.546   4.825 -0.3227  0.7089  0.1349
 4308WAT     H217953   1.883   2.597   4.933  0.4219  0.9238 -0.4140
 4308WAT    EPW17954   1.819   2.591   4.888 -0.0290  0.5116  0.2688
 4309WAT      O17955   2.281   1.946   6.512 -0.4344  0.0636  0.1245
 4309WAT     H117956   2.195   1.941   6.495  0.0577  0.1379 -2.8842
 4309WAT     H217957   2.300   1.866   6.542 -1.0304 -1.1322 -2.4003
 4309WAT    EPW17958   2.271   1.933   6.514 -0.4497 -0.1020 -0.6929
 4310WAT      O17959   4.258   2.135   6.327 -0.0162  0.3939  0.4885
 4310WAT     H117960   4.252   2.048   6.317  3.2197  0.1744 -0.8777
 4310WAT     H217961   4.275   2.145   6.412 -3.9677  0.1572  1.5077
 4310WAT    EPW17962   4.260   2.124   6.338 -0.1219  0.3265  0.4372
 4311WAT      O17963   0.029   4.880   0.301 -1.1437  0.1464  0.8394
 4311WAT     H117964  -0.022   4.870   0.231 -1.6480  0.7901  1.0984
 4311WAT     H217965  -0.005   4.825   0.360 -0.8392 -0.2517  0.6485
 4311WAT    EPW17966   0.016   4.871   0.299 -1.1732  0.1827  0.8495
 4312WAT      O17967   3.418   0.206   2.682 -0.3728  0.7895 -0.2935
 4312WAT     H117968   3.414   0.293   2.686  0.4871  0.7966  0.8548
 4312WAT     H217969   3.503   0.189   2.685 -0.3399 -0.0287 -3.3562
 4312WAT    EPW17970   3.430   0.217   2.683 -0.2409  0.6697 -0.5763
 4313WAT      O17971   5.415   5.701   3.726  0.6137 -0.3917  0.1329
 4313WAT     H117972   5.408   5.633   3.671  1.0915  1.0425 -1.8296
 4313WAT     H217973   5.380   5.767   3.681 -0.4041  0.5842  2.2195
 4313WAT    EPW17974   5.409   5.700   3.711  0.5340 -0.0357  0.1512
 4314WAT      O17975   4.995   3.021   5.644  0.1676 -0.8289  0.6220
 4314WAT     H117976   4.982   3.012   5.558 -0.0008 -0.8722  0.6520
 4314WAT     H217977   5.076   2.990   5.656 -0.0093 -1.3260  0.5600
 4314WAT    EPW17978   5.005   3.015   5.633  0.1166 -0.9087  0.6173
 4315WAT      O17979   3.594   0.637   1.868 -0.0595 -0.1960  0.1055
 4315WAT     H117980   3.664   0.627   1.919 -0.6320  0.4218  1.0402
 4315WAT     H217981   3.531   0.594   1.910 -0.4041 -0.1865 -0.3922
 4315WAT    EPW17982   3.595   0.629   1.881 -0.1950 -0.1033  0.1701
 4316WAT      O17983   0.350   1.371   2.857  0.1187  0.0052  0.2079
 4316WAT     H117984   0.301   1.327   2.915  0.0196 -0.9745 -0.5985
 4316WAT     H217985   0.421   1.394   2.903  0.0595 -0.7873  0.7129
 4316WAT    EPW17986   0.353   1.368   2.873  0.0953 -0.2566  0.1634
 4317WAT      O17987   0.171   1.426   0.152  0.2484 -0.1152  0.2996
 4317WAT     H117988   0.141   1.417   0.234 -0.1288 -1.0839  0.0678
 4317WAT     H217989   0.151   1.350   0.114 -1.2961  0.9908 -1.2514
 4317WAT    EPW17990   0.164   1.414   0.159 -0.0355 -0.0949  0.0363
 4318WAT      O17991   3.828   4.005   1.139  0.7059  0.3855 -1.1306
 4318WAT     H117992   3.821   3.986   1.054 -1.4998 -0.7768 -0.7681
 4318WAT     H217993   3.879   3.942   1.170 -0.6094 -0.7389 -1.1885
 4318WAT    EPW17994   3.835   3.993   1.131  0.1858  0.0477 -1.0856
 4319WAT      O17995   2.221   2.801   1.603 -0.0349  0.2465  0.1186
 4319WAT     H117996   2.173   2.840   1.665  0.8642  0.9333  0.4071
 4319WAT     H217997   2.295   2.781   1.644  0.9141  1.4729 -0.9002
 4319WAT    EPW17998   2.225   2.804   1.618  0.2381  0.5291  0.0107
 4320WAT      O17999   5.833   4.042   7.302  0.2589  0.2575  0.0340
 4320WAT     H118000   5.884   3.981   7.338  1.8093  1.2537 -0.3826
 4320WAT     H218001   5.822   4.013   7.220 -1.4223 -0.8774  0.6072
 4320WAT    EPW18002   5.839   4.029   7.295  0.2396  0.2370  0.0571
 4321WAT      O18003   4.739   4.681   1.055  0.3920 -0.2304 -0.6545
 4321WAT     H118004   4.737   4.609   1.006  0.3775 -1.7252  1.4361
 4321WAT     H218005   4.822   4.686   1.081  0.6422  1.1386 -1.5822
 4321WAT    EPW18006   4.751   4.671   1.052  0.4268 -0.2490 -0.4827
 4322WAT      O18007   1.660   0.255   0.992 -0.4479 -0.4990 -0.3296
 4322WAT     H118008   1.602   0.215   1.043 -0.7860  1.2849  0.7775
 4322WAT     H218009   1.647   0.220   0.913 -0.9461 -2.2634  0.5068
 4322WAT    EPW18010   1.650   0.244   0.988 -0.5714 -0.4962 -0.0425
 4323WAT      O18011   6.492   3.818   6.796 -0.4710  0.6337  0.2094
 4323WAT     H118012   6.414   3.856   6.787 -0.2905  0.9575 -0.0457
 4323WAT     H218013   6.514   3.797   6.714 -0.4180  0.2878  0.3137
 4323WAT    EPW18014   6.484   3.821   6.783 -0.4365  0.6305  0.1872
 4324WAT      O18015   1.712   7.159   5.231  0.2805 -0.4407 -0.1765
 4324WAT     H118016   1.740   7.104   5.169  1.1029 -1.7934  1.3155
 4324WAT     H218017   1.626   7.165   5.216  0.1796 -2.0953 -0.4413
 4324WAT    EPW18018   1.703   7.151   5.219  0.3871 -0.8849  0.0048
 4325WAT      O18019   7.229   3.257   6.941  0.3345 -0.1496 -0.4959
 4325WAT     H118020   7.259   3.230   6.864 -2.7126  0.5150 -2.0615
 4325WAT     H218021   7.268   3.335   6.952  1.9988 -0.9350 -0.5094
 4325WAT    EPW18022   7.239   3.264   6.931  0.1302 -0.1675 -0.7292
 4326WAT      O18023   1.590   5.548   7.116  0.1251  0.0217 -1.0661
 4326WAT     H118024   1.551   5.620   7.145 -0.2877 -1.2107  1.7167
 4326WAT     H218025   1.541   5.524   7.048 -2.0336  0.3235  0.3096
 4326WAT    EPW18026   1.577   5.555   7.110 -0.2548 -0.1158 -0.4518
 4327WAT      O18027   2.426   3.986   1.957 -0.9303  0.2142 -0.3007
 4327WAT     H118028   2.508   3.969   1.979 -1.0211  1.3477  1.0802
 4327WAT     H218029   2.430   4.065   1.920 -1.4767  0.5592  0.3616
 4327WAT    EPW18030   2.439   3.995   1.954 -1.0244  0.4326  0.0011
 4328WAT      O18031   4.712   1.713   7.384 -0.2704  0.1741 -0.7538
 4328WAT     H118032   4.792   1.747   7.382 -0.2104  0.0071 -1.7103
 4328WAT     H218033   4.726   1.629   7.403 -0.4683  0.7321  2.3837
 4328WAT    EPW18034   4.726   1.706   7.387 -0.2907  0.2319 -0.4316
 4329WAT      O18035   5.166   1.478   4.967  0.3692  0.6101 -0.1691
 4329WAT     H118036   5.197   1.401   4.994  0.1435  0.2505 -0.9189
 4329WAT     H218037   5.160   1.524   5.041  0.2619 -0.1762  0.3250
 4329WAT    EPW18038   5.170   1.473   4.982  0.3200  0.4408 -0.2069
 4330WAT      O18039   6.789   4.125   0.559  0.1501 -0.6719  0.0909
 4330WAT     H118040   6.872   4.098   0.568  0.9869  1.5637 -0.3575
 4330WAT     H218041   6.775   4.116   0.473 -0.0230 -0.8549  0.1366
 4330WAT    EPW18042   6.799   4.120   0.547  0.2481 -0.3687  0.0314
 4331WAT      O18043   4.477   3.548   1.044  0.0353  0.1547 -0.4456
 4331WAT     H118044   4.475   3.635   1.044  0.6730  0.2006  1.3050
 4331WAT     H218045   4.443   3.527   0.966  0.3132  1.9626 -1.1076
 4331WAT    EPW18046   4.472   3.558   1.033  0.1705  0.4285 -0.2848
 4332WAT      O18047   5.970   3.662   2.850 -0.0530 -0.4786 -0.5308
 4332WAT     H118048   5.912   3.612   2.808 -2.1860  1.8109 -0.5533
 4332WAT     H218049   5.937   3.668   2.930  0.7277 -0.0088 -0.2361
 4332WAT    EPW18050   5.957   3.656   2.855 -0.2528 -0.0710 -0.4906
 4333WAT      O18051   6.526   1.539   6.898  0.4538 -0.1687  0.2700
 4333WAT     H118052   6.513   1.555   6.813  1.7440 -0.4630 -0.0006
 4333WAT     H218053   6.463   1.585   6.937  0.5756  0.9449 -0.7809
 4333WAT    EPW18054   6.515   1.549   6.891  0.6624 -0.0477  0.0748
 4334WAT      O18055   5.366   5.803   0.621 -0.6574 -0.3486 -0.4787
 4334WAT     H118056   5.314   5.752   0.573  0.9879  0.5685 -3.5226
 4334WAT     H218057   5.311   5.861   0.657 -2.1290 -1.9551 -0.0310
 4334WAT    EPW18058   5.350   5.804   0.619 -0.6317 -0.4504 -0.8622
 4335WAT      O18059   2.264   2.304   4.031  0.1381  0.1471  0.6076
 4335WAT     H118060   2.351   2.307   4.040  0.3029 -1.5607 -0.1512
 4335WAT     H218061   2.246   2.377   3.986  1.4807 -0.5893 -1.2274
 4335WAT    EPW18062   2.274   2.315   4.026  0.3607 -0.2139  0.2244
 4336WAT      O18063   0.960   3.344   0.972 -0.1061 -0.1686  0.1914
 4336WAT     H118064   1.028   3.344   1.026 -1.9791  0.5984  2.7956
 4336WAT     H218065   0.960   3.264   0.938  1.6755 -0.3962  0.6616
 4336WAT    EPW18066   0.970   3.332   0.975 -0.1196 -0.0889  0.6456
 4337WAT      O18067   1.497   6.671   2.057 -0.0853 -0.1516  0.2630
 4337WAT     H118068   1.452   6.745   2.051  0.9965  0.6505  1.4347
 4337WAT     H218069   1.439   6.610   2.032 -2.1073  0.7259  2.3847
 4337WAT    EPW18070   1.481   6.673   2.053 -0.2242  0.0965  0.7495
 4338WAT      O18071   1.048   2.354   6.025 -0.4139 -0.6962 -0.0228
 4338WAT     H118072   0.994   2.286   6.026 -1.7322  0.2966 -0.1483
 4338WAT     H218073   1.012   2.407   5.966  0.0803  0.4707  0.6880
 4338WAT    EPW18074   1.035   2.352   6.016 -0.5357 -0.3772  0.0636
 4339WAT      O18075   3.885   2.918   1.580  0.1719  0.0507  0.3065
 4339WAT     H118076   3.837   2.917   1.653  0.8471 -0.5577  0.7473
 4339WAT     H218077   3.836   2.966   1.525 -0.3355  0.5349  1.1496
 4339WAT    EPW18078   3.870   2.925   1.582  0.1967  0.0323  0.4962
 4340WAT      O18079   7.070   3.631   5.480  0.3859 -0.1379  0.0589
 4340WAT     H118080   7.046   3.638   5.564  0.9261 -1.7906  0.3904
 4340WAT     H218081   7.019   3.688   5.439 -0.3743  0.2031  1.4231
 4340WAT    EPW18082   7.059   3.640   5.486  0.3534 -0.3317  0.3094
 4341WAT      O18083   7.225   5.331   1.734 -0.2039 -0.5813 -0.0336
 4341WAT     H118084   7.184   5.321   1.658  0.0042 -0.0799 -0.2205
 4341WAT     H218085   7.171   5.382   1.780 -0.9573 -1.9794  0.6667
 4341WAT    EPW18086   7.211   5.337   1.730 -0.2845 -0.7138  0.0422
 4342WAT      O18087   5.544   4.117   4.212  0.0132 -0.0529  0.2540
 4342WAT     H118088   5.565   4.148   4.134  0.4337  0.8887  0.7262
 4342WAT     H218089   5.461   4.091   4.203 -0.2209  0.8503 -0.2603
 4342WAT    EPW18090   5.535   4.117   4.199  0.0407  0.2196  0.2478
 4343WAT      O18091   0.278   2.155   3.117  0.1549 -0.2375 -0.5603
 4343WAT     H118092   0.353   2.197   3.131  0.1011 -0.6927  1.4427
 4343WAT     H218093   0.303   2.078   3.085  0.4557  0.0426 -1.0058
 4343WAT    EPW18094   0.293   2.150   3.114  0.1914 -0.2633 -0.3302
 4344WAT      O18095   1.334   0.198   3.802 -0.1175 -0.0564  0.8113
 4344WAT     H118096   1.332   0.256   3.737 -1.8351  0.8414  1.6117
 4344WAT     H218097   1.265   0.146   3.786 -0.0334 -0.3720  1.4166
 4344WAT    EPW18098   1.323   0.199   3.790 -0.3588  0.0296  1.0189
 4345WAT      O18099   3.692   0.558   6.852  0.1217 -0.4573 -0.1814
 4345WAT     H118100   3.671   0.628   6.806 -0.8457 -1.8889 -2.0630
 4345WAT     H218101   3.678   0.583   6.935 -2.1094  0.9765 -0.8862
 4345WAT    EPW18102   3.687   0.572   6.858 -0.3508 -0.4570 -0.5635
 4346WAT      O18103   0.851   5.721   2.648  0.0731 -0.6077 -0.0076
 4346WAT     H118104   0.805   5.673   2.705  0.4550 -0.1668  0.6823
 4346WAT     H218105   0.811   5.705   2.572 -0.8476 -0.7088  0.4797
 4346WAT    EPW18106   0.838   5.711   2.646 -0.0065 -0.5575  0.1663
 4347WAT      O18107   5.202   0.084   5.419 -0.2890 -0.1766  0.1399
 4347WAT     H118108   5.212   0.002   5.390  1.6300  0.0848 -0.0730
 4347WAT     H218109   5.182   0.073   5.503  1.7043 -0.9044  0.5776
 4347WAT    EPW18110   5.201   0.070   5.427  0.2889 -0.2455  0.1731
 4348WAT      O18111   2.716   4.042   7.273  0.1140 -0.1048 -0.6936
 4348WAT     H118112   2.641   4.049   7.317  0.3445 -1.4099 -0.0520
 4348WAT     H218113   2.775   4.076   7.327 -0.0043  0.9360 -1.2045
 4348WAT    EPW18114   2.714   4.048   7.287  0.1306 -0.1439 -0.6743
 4349WAT      O18115   6.369   5.147   1.032  1.2446  0.6661 -0.1149
 4349WAT     H118116   6.381   5.131   0.947  0.2644 -2.5631  0.2341
 4349WAT     H218117   6.447   5.131   1.068  0.9063 -1.0587 -0.0909
 4349WAT    EPW18118   6.382   5.143   1.025  1.0498 -0.0658 -0.0598
 4350WAT      O18119   4.066   7.264   3.790 -0.6600  0.0985 -0.3374
 4350WAT     H118120   4.007   7.308   3.836 -1.1014  0.9986 -1.6917
 4350WAT     H218121   4.022   7.236   3.720 -0.0133 -1.2052 -0.2545
 4350WAT    EPW18122   4.051   7.266   3.786 -0.6297  0.0389 -0.5252
 4351WAT      O18123   4.675   1.518   5.358  0.2418  0.1411  0.4189
 4351WAT     H118124   4.718   1.544   5.429  0.3298 -1.0959  0.8339
 4351WAT     H218125   4.620   1.584   5.341  2.6037  2.0511 -0.4370
 4351WAT    EPW18126   4.674   1.531   5.366  0.6037  0.2406  0.3538
 4352WAT      O18127   2.052   4.417   2.341  0.2678 -0.3914  0.3515
 4352WAT     H118128   2.103   4.389   2.406  0.5433 -0.9047 -0.0791
 4352WAT     H218129   1.971   4.406   2.373  0.3952 -0.8248  0.5400
 4352WAT    EPW18130   2.048   4.411   2.356  0.3273 -0.5313  0.3157
 4353WAT      O18131   0.768   6.040   5.314 -0.3905 -0.2124  0.4244
 4353WAT     H118132   0.706   5.982   5.295 -0.8058  0.4608 -0.3304
 4353WAT     H218133   0.752   6.107   5.260 -0.1382  0.7602  1.5021
 4353WAT    EPW18134   0.757   6.041   5.304 -0.4145  0.0307  0.4721
 4354WAT      O18135   1.997   3.287   0.560 -0.1599 -0.2658  0.0666
 4354WAT     H118136   1.954   3.258   0.630  0.6345  0.9603  1.0868
 4354WAT     H218137   2.075   3.249   0.567  0.0937  0.2649  0.1247
 4354WAT    EPW18138   2.002   3.277   0.571 -0.0051 -0.0063  0.2259
 4355WAT      O18139   2.394   1.161   7.093  0.6604 -0.3733  0.3102
 4355WAT     H118140   2.401   1.243   7.064 -1.2240 -1.1308 -2.7410
 4355WAT     H218141   2.368   1.171   7.175  0.4826  2.0865  0.0393
 4355WAT    EPW18142   2.391   1.175   7.101  0.3558 -0.1219 -0.1805
 4356WAT      O18143   1.540   3.299   2.970  0.7563 -0.2093 -0.5859
 4356WAT     H118144   1.466   3.253   2.972  0.7238 -0.1503 -0.2590
 4356WAT     H218145   1.595   3.251   3.017 -0.0215  1.2971  2.1454
 4356WAT    EPW18146   1.537   3.285   2.977  0.6366  0.0219 -0.1342
 4357WAT      O18147   4.759   6.472   1.117  0.0527  0.1106  0.0026
 4357WAT     H118148   4.782   6.525   1.182 -0.4237  0.1547  0.1371
 4357WAT     H218149   4.799   6.397   1.136  1.3037  0.6107 -0.5569
 4357WAT    EPW18150   4.768   6.468   1.129  0.1671  0.1910 -0.0602
 4358WAT      O18151   4.489   1.367   5.664  0.1490 -0.3966 -0.0913
 4358WAT     H118152   4.525   1.303   5.712 -0.2072 -0.1916  0.4672
 4358WAT     H218153   4.513   1.348   5.583 -1.0095 -1.9879 -0.1039
 4358WAT    EPW18154   4.498   1.355   5.659 -0.0747 -0.6014 -0.0106
 4359WAT      O18155   0.447   5.242   1.965  0.1063 -0.2809 -0.3310
 4359WAT     H118156   0.443   5.263   1.880  2.2179 -0.2062 -0.4673
 4359WAT     H218157   0.437   5.318   2.005  0.4077 -0.1039 -0.5810
 4359WAT    EPW18158   0.445   5.256   1.958  0.4627 -0.2437 -0.3881
 4360WAT      O18159   2.746   4.860   3.690 -0.0250 -0.1578 -0.0340
 4360WAT     H118160   2.811   4.916   3.706 -0.8405  0.8469 -0.1237
 4360WAT     H218161   2.750   4.847   3.604 -0.7021  0.9024 -0.2423
 4360WAT    EPW18162   2.756   4.866   3.680 -0.2455  0.1472 -0.0780
 4361WAT      O18163   6.686   4.594   6.031  0.0266  0.1575 -0.2077
 4361WAT     H118164   6.702   4.679   6.022 -0.4750  0.5764  2.1183
 4361WAT     H218165   6.604   4.592   6.062 -0.7000 -1.3270 -2.0112
 4361WAT    EPW18166   6.676   4.606   6.034 -0.1548  0.0001 -0.1305
 4362WAT      O18167   0.341   2.889   1.347 -0.3115  0.5051  0.0230
 4362WAT     H118168   0.257   2.868   1.353 -0.3545  1.1468  2.6900
 4362WAT     H218169   0.383   2.813   1.354 -0.5612 -0.1379 -3.4913
 4362WAT    EPW18170   0.335   2.875   1.349 -0.3547  0.5049 -0.1021
 4363WAT      O18171   2.567   5.093   5.525  0.0425 -0.2155 -0.5065
 4363WAT     H118172   2.586   5.159   5.472 -0.6573 -0.4066 -1.0123
 4363WAT     H218173   2.585   5.022   5.478  0.0789 -0.3851 -0.2397
 4363WAT    EPW18174   2.572   5.093   5.510 -0.0555 -0.2688 -0.5418
 4364WAT      O18175   2.114   6.519   7.354  0.7068  0.1211 -0.3931
 4364WAT     H118176   2.057   6.510   7.419  0.8611  0.8555 -0.1484
 4364WAT     H218177   2.080   6.469   7.290  0.3799 -0.3302  0.1239
 4364WAT    EPW18178   2.101   6.510   7.354  0.6813  0.1629 -0.2805
 4365WAT      O18179   1.430   0.076   0.399  0.0499  0.5892  0.1866
 4365WAT     H118180   1.396   0.056   0.477  0.4478  1.7899  0.6851
 4365WAT     H218181   1.362   0.066   0.345  0.0978 -1.5657  0.4438
 4365WAT    EPW18182   1.415   0.072   0.403  0.1158  0.4483  0.2982
 4366WAT      O18183   5.397   2.171   1.181 -0.2999  0.4667 -0.0071
 4366WAT     H118184   5.382   2.254   1.161 -0.9751  1.6198  4.2295
 4366WAT     H218185   5.353   2.160   1.256  1.4477 -3.1025  0.7059
 4366WAT    EPW18186   5.388   2.181   1.189 -0.1415  0.1098  0.7241
 4367WAT      O18187   4.278   7.091   6.561  0.6764  0.1546 -0.6181
 4367WAT     H118188   4.279   7.142   6.632  0.4497 -1.7283  0.8186
 4367WAT     H218189   4.205   7.114   6.520 -0.4209 -0.2658  1.0068
 4367WAT    EPW18190   4.267   7.102   6.565  0.4808 -0.1857 -0.1659
 4368WAT      O18191   6.532   1.560   6.617 -0.4838 -0.5114  0.2297
 4368WAT     H118192   6.614   1.590   6.617 -0.5335 -0.0119  3.4523
 4368WAT     H218193   6.496   1.597   6.547  1.1228  2.2030  0.6997
 4368WAT    EPW18194   6.539   1.570   6.607 -0.2538 -0.0367  0.7752
 4369WAT      O18195   4.387   1.743   0.868  0.2911 -0.0360  0.7235
 4369WAT     H118196   4.346   1.672   0.837  0.1202  0.0946  0.6468
 4369WAT     H218197   4.419   1.781   0.796 -1.0032  0.8315  0.5688
 4369WAT    EPW18198   4.385   1.738   0.853  0.0747  0.1114  0.6894
 4370WAT      O18199   0.020   0.066   4.383  0.5204  0.2597 -0.1523
 4370WAT     H118200  -0.029   0.020   4.439  0.8654  0.5506  0.3851
 4370WAT     H218201   0.090   0.088   4.429  0.1992  1.6637 -0.2797
 4370WAT    EPW18202   0.023   0.062   4.398  0.5239  0.5101 -0.0917
 4371WAT      O18203   1.445   5.442   6.922 -0.0241 -0.2952  0.3674
 4371WAT     H118204   1.437   5.358   6.942 -2.0090 -0.6151 -1.4382
 4371WAT     H218205   1.504   5.442   6.857 -0.6879 -0.4508 -0.2561
 4371WAT    EPW18206   1.453   5.430   6.915 -0.4154 -0.3654  0.0086
 4372WAT      O18207   4.177   5.660   6.272  0.2686  0.0138 -0.5808
 4372WAT     H118208   4.229   5.707   6.220 -2.7139  2.0005 -2.1095
 4372WAT     H218209   4.143   5.600   6.219 -0.6948  0.2366 -0.2358
 4372WAT    EPW18210   4.179   5.658   6.257 -0.3143  0.3402 -0.7557
 4373WAT      O18211   6.674   3.040   1.084 -0.1994 -0.0173  0.2910
 4373WAT     H118212   6.592   3.018   1.106 -0.0853 -0.6614  0.0863
 4373WAT     H218213   6.683   3.007   1.004  0.5186 -0.6147  0.6094
 4373WAT    EPW18214   6.663   3.032   1.075 -0.0765 -0.2007  0.3078
 4374WAT      O18215   6.221   4.543   2.939  0.0161  0.1645 -0.5731
 4374WAT     H118216   6.228   4.546   3.026  0.5413  2.4560 -0.6429
 4374WAT     H218217   6.293   4.584   2.911 -0.7266  0.5109 -2.0501
 4374WAT    EPW18218   6.233   4.549   2.948 -0.0161  0.5542 -0.8016
 4375WAT      O18219   6.974   4.179   1.169  0.2535  0.3925  0.5885
 4375WAT     H118220   7.041   4.200   1.220  0.4651  1.2286 -0.0236
 4375WAT     H218221   6.905   4.181   1.223  0.4409  1.5102  0.7931
 4375WAT    EPW18222   6.973   4.182   1.184  0.3125  0.6811  0.5283
 4376WAT      O18223   5.629   5.043   2.033  0.1175 -0.1132 -0.2806
 4376WAT     H118224   5.654   5.031   2.116 -0.2970 -0.3350 -0.1855
 4376WAT     H218225   5.562   4.987   2.024  0.6222 -0.6113 -0.9811
 4376WAT    EPW18226   5.623   5.033   2.044  0.1308 -0.2195 -0.3700
 4377WAT      O18227   4.201   3.864   0.292 -0.2831  0.0462  0.0507
 4377WAT     H118228   4.210   3.867   0.205 -1.3790 -2.5331 -0.2736
 4377WAT     H218229   4.117   3.844   0.303 -0.2330  0.5727  1.7460
 4377WAT    EPW18230   4.190   3.861   0.281 -0.4376 -0.2570  0.2532
 4378WAT      O18231   0.675   5.835   1.999 -0.1926  0.4723  0.2306
 4378WAT     H118232   0.593   5.836   2.030  0.6071  3.2957  2.6579
 4378WAT     H218233   0.680   5.909   1.953  0.6707 -0.3614 -1.0943
 4378WAT    EPW18234   0.664   5.846   1.997  0.0531  0.7662  0.3935
 4379WAT      O18235   6.553   5.007   3.687  0.2916 -0.0638  0.5224
 4379WAT     H118236   6.564   5.080   3.641  0.9059 -0.8315 -0.6170
 4379WAT     H218237   6.561   4.944   3.627  0.7149 -1.1033  1.6310
 4379WAT    EPW18238   6.555   5.008   3.671  0.4449 -0.3308  0.5179
 4380WAT      O18239   7.030   7.143   4.118  0.1240  0.2710 -0.1205
 4380WAT     H118240   7.107   7.184   4.119 -0.2156  0.9209  0.0794
 4380WAT     H218241   7.051   7.060   4.132  0.9353  0.1830 -1.6405
 4380WAT    EPW18242   7.044   7.137   4.120  0.1937  0.3540 -0.3155
 4381WAT      O18243   5.698   6.736   0.059 -0.1521  0.1131 -0.5108
 4381WAT     H118244   5.647   6.755  -0.009 -2.4000  0.1785  1.0612
 4381WAT     H218245   5.683   6.651   0.072  0.3498  0.0746 -0.1724
 4381WAT    EPW18246   5.688   6.726   0.051 -0.4100  0.1171 -0.2286
 4382WAT      O18247   4.977   0.709   4.761 -0.4117  0.0808 -0.4240
 4382WAT     H118248   4.912   0.768   4.764  0.3322  0.9033  0.0081
 4382WAT     H218249   4.943   0.640   4.803 -1.5382 -0.0771 -1.5219
 4382WAT    EPW18250   4.962   0.707   4.767 -0.4683  0.1790 -0.5223
 4383WAT      O18251   7.067   3.371   3.134 -0.0108 -0.0802  0.2181
 4383WAT     H118252   6.998   3.350   3.084  0.4790 -2.7525  0.5196
 4383WAT     H218253   7.032   3.418   3.199 -1.1441  0.6347 -0.8470
 4383WAT    EPW18254   7.051   3.375   3.136 -0.1059 -0.3694  0.1053
 4384WAT      O18255   3.480   0.250   5.972  0.4657 -0.3017 -0.4615
 4384WAT     H118256   3.490   0.336   5.984  1.0722 -0.3839 -0.3877
 4384WAT     H218257   3.470   0.219   6.052  1.9043 -0.5100 -0.3474
 4384WAT    EPW18258   3.480   0.258   5.985  0.7678 -0.3446 -0.4338
 4385WAT      O18259   6.597   2.916   5.474 -0.7680 -0.1491  0.2431
 4385WAT     H118260   6.589   2.989   5.428  1.4966  1.2904  1.9275
 4385WAT     H218261   6.648   2.866   5.424 -1.3718 -0.1513 -0.3962
 4385WAT    EPW18262   6.603   2.919   5.460 -0.5227  0.0632  0.3975
 4386WAT      O18263   3.009   3.837   2.282  0.1566 -0.3630 -0.5844
 4386WAT     H118264   3.071   3.813   2.226  0.4186  0.4288 -0.6458
 4386WAT     H218265   3.049   3.836   2.359 -0.4883 -2.5153 -0.2286
 4386WAT    EPW18266   3.024   3.834   2.285  0.1001 -0.5640 -0.5409
 4387WAT      O18267   1.916   1.970   5.572 -0.7045 -0.8644 -0.0462
 4387WAT     H118268   1.870   1.953   5.644 -0.4260  0.6506  0.5275
 4387WAT     H218269   1.948   1.893   5.549 -0.3126 -1.2910  1.7895
 4387WAT    EPW18270   1.914   1.956   5.579 -0.6055 -0.7037  0.3097
 4388WAT      O18271   6.376   1.393   3.650  0.0674 -0.1762 -0.3688
 4388WAT     H118272   6.356   1.431   3.574  0.4634  0.0721 -0.3470
 4388WAT     H218273   6.298   1.378   3.685 -0.1011  1.1457 -0.1130
 4388WAT    EPW18274   6.361   1.396   3.644  0.1010  0.0557 -0.3278
 4389WAT      O18275   4.352   1.990   1.012  0.6075 -0.0003  0.1844
 4389WAT     H118276   4.375   1.942   0.943  0.7689  0.2784  0.0442
 4389WAT     H218277   4.339   1.930   1.075  0.8723 -0.2225  0.0299
 4389WAT    EPW18278   4.353   1.974   1.011  0.6704  0.0081  0.1409
 4390WAT      O18279   4.204   5.252   1.712  0.2136  0.3909  0.9039
 4390WAT     H118280   4.194   5.337   1.727 -0.5111  0.8008 -1.4823
 4390WAT     H218281   4.125   5.225   1.688  0.4842 -0.9184  1.3643
 4390WAT    EPW18282   4.191   5.260   1.711  0.1465  0.2580  0.6194
 4391WAT      O18283   2.910   0.093   4.717 -0.0093 -0.4690  0.2620
 4391WAT     H118284   2.990   0.065   4.735 -0.0636 -2.4068 -2.0290
 4391WAT     H218285   2.894   0.151   4.780  2.6831 -0.9226  1.5032
 4391WAT    EPW18286   2.919   0.097   4.729  0.3804 -0.8223  0.1069
 4392WAT      O18287   1.543   0.496   0.179  0.1710 -0.2713 -0.0143
 4392WAT     H118288   1.594   0.437   0.218  2.2192  0.3006 -1.6555
 4392WAT     H218289   1.588   0.570   0.187 -0.5981  0.3449 -1.2068
 4392WAT    EPW18290   1.557   0.498   0.186  0.3600 -0.0958 -0.4329
 4393WAT      O18291   5.173   6.642   0.265 -0.1960 -0.0360 -0.2159
 4393WAT     H118292   5.224   6.575   0.242 -2.3021 -1.4280 -1.2240
 4393WAT     H218293   5.142   6.619   0.343 -0.1310  0.2797 -0.0938
 4393WAT    EPW18294   5.176   6.629   0.273 -0.4975 -0.1950 -0.3468
 4394WAT      O18295   7.089   5.100   1.813 -0.0772 -0.1544 -0.4092
 4394WAT     H118296   7.007   5.127   1.801 -0.0443 -0.1572 -0.6375
 4394WAT     H218297   7.138   5.167   1.785  0.0039  0.3106  0.7589
 4394WAT    EPW18298   7.084   5.114   1.807 -0.0604 -0.0861 -0.2704
 4395WAT      O18299   5.957   5.180   0.799 -0.2409 -0.7018 -0.1840
 4395WAT     H118300   5.931   5.152   0.878 -1.7767  1.4450  0.1551
 4395WAT     H218301   6.011   5.246   0.816 -1.3108  0.3941 -0.8913
 4395WAT    EPW18302   5.961   5.185   0.813 -0.6258 -0.2228 -0.2384
 4396WAT      O18303   2.187   6.061   3.081 -0.0441  0.7204  0.0990
 4396WAT     H118304   2.226   6.004   3.134 -1.2055  1.0705  1.4004
 4396WAT     H218305   2.124   6.014   3.043 -1.2628  1.1458  1.4724
 4396WAT    EPW18306   2.183   6.046   3.083 -0.3957  0.8349  0.4942
 4397WAT      O18307   4.530   4.480   4.071  0.1263 -0.3940  0.0766
 4397WAT     H118308   4.453   4.465   4.110 -0.9160 -0.5745 -1.9513
 4397WAT     H218309   4.567   4.401   4.067  0.8505 -0.1967  1.7802
 4397WAT    EPW18310   4.524   4.466   4.076  0.0793 -0.3915  0.0287
 4398WAT      O18311   7.008   3.573   0.256 -0.3847 -0.1608 -0.5007
 4398WAT     H118312   7.054   3.515   0.210  0.9004  0.7043 -0.3854
 4398WAT     H218313   6.942   3.526   0.288  0.5455 -1.5458 -0.4859
 4398WAT    EPW18314   7.005   3.557   0.254 -0.0575 -0.2376 -0.4815
 4399WAT      O18315   2.588   4.467   1.940  0.0653  0.1254  0.0256
 4399WAT     H118316   2.578   4.403   1.882  0.3648 -0.5942  0.7509
 4399WAT     H218317   2.591   4.425   2.017 -0.4916  1.0639  0.5808
 4399WAT    EPW18318   2.587   4.451   1.943  0.0273  0.1577  0.2147
 4400WAT      O18319   4.320   7.113   1.433  0.2442 -0.6108 -0.0295
 4400WAT     H118320   4.382   7.076   1.384 -0.8235 -1.4906 -0.7828
 4400WAT     H218321   4.342   7.090   1.514  2.5417  1.6348  0.0733
 4400WAT    EPW18322   4.332   7.104   1.438  0.4258 -0.4091 -0.1256
 4401WAT      O18323   2.125   5.147   7.043 -0.0501 -0.1448  0.4207
 4401WAT     H118324   2.040   5.128   7.049 -0.4067  0.5553 -1.8116
 4401WAT     H218325   2.163   5.068   7.046 -0.6863 -0.4420  1.8872
 4401WAT    EPW18326   2.118   5.132   7.045 -0.1967 -0.0853  0.3076
 4402WAT      O18327   6.525   2.902   1.804 -0.3971  0.5123 -0.3801
 4402WAT     H118328   6.590   2.855   1.771  0.7437  1.9992 -0.3273
 4402WAT     H218329   6.548   2.913   1.888 -1.9228 -0.9444  0.2843
 4402WAT    EPW18330   6.538   2.897   1.811 -0.4540  0.5167 -0.2742
 4403WAT      O18331   2.486   6.039   6.352  0.1847 -0.2008  0.1108
 4403WAT     H118332   2.444   6.115   6.351  0.8871  0.1913 -0.7204
 4403WAT     H218333   2.504   6.024   6.268  1.1135 -0.6908  0.3819
 4403WAT    EPW18334   2.482   6.048   6.339  0.4256 -0.2153  0.0281
 4404WAT      O18335   5.531   4.504   2.460  0.1481  0.5419  0.1249
 4404WAT     H118336   5.605   4.502   2.507 -0.7113  0.0317  1.5035
 4404WAT     H218337   5.523   4.422   2.431  0.8345  0.9216 -1.2352
 4404WAT    EPW18338   5.541   4.492   2.463  0.1226  0.5226  0.1276
 4405WAT      O18339   6.671   4.843   4.650 -0.1692 -0.0639  1.0735
 4405WAT     H118340   6.633   4.765   4.656 -0.1386 -0.1027  0.7768
 4405WAT     H218341   6.740   4.838   4.703 -0.3599 -0.1240  1.3153
 4405WAT    EPW18342   6.675   4.831   4.658 -0.1928 -0.0785  1.0654
 4406WAT      O18343   1.588   1.743   5.722  0.3001  0.1309  0.2696
 4406WAT     H118344   1.534   1.677   5.740  0.5650  0.4218  2.3871
 4406WAT     H218345   1.576   1.757   5.636 -1.7360 -0.8925  0.3364
 4406WAT    EPW18346   1.578   1.735   5.712  0.0385  0.0227  0.5922
 4407WAT      O18347   4.475   5.963   0.504 -0.4249 -0.1723  0.7596
 4407WAT     H118348   4.391   5.967   0.524 -0.2811  2.4400  1.0814
 4407WAT     H218349   4.476   5.952   0.418 -1.0320 -1.4696  0.8870
 4407WAT    EPW18350   4.463   5.962   0.494 -0.4933  0.0219  0.8259
 4408WAT      O18351   3.758   0.327   5.320 -0.1061  0.1913 -0.0844
 4408WAT     H118352   3.748   0.404   5.361 -0.6467  0.2338 -0.2846
 4408WAT     H218353   3.842   0.307   5.333  0.1480  1.0238 -0.3820
 4408WAT    EPW18354   3.769   0.336   5.328 -0.1484  0.3205 -0.1579
 4409WAT      O18355   1.462   3.406   1.434 -0.1256  0.0824  0.2245
 4409WAT     H118356   1.445   3.421   1.519  0.6382  0.4719  0.3244
 4409WAT     H218357   1.404   3.456   1.392 -0.0912  0.3875  0.5314
 4409WAT    EPW18358   1.451   3.416   1.441 -0.0077  0.1850  0.2846
 4410WAT      O18359   6.159   5.581   4.425  0.0125  0.0402  0.4408
 4410WAT     H118360   6.202   5.573   4.349  0.9138  0.1682  0.9211
 4410WAT     H218361   6.169   5.666   4.445  0.3523 -0.1306  1.0219
 4410WAT    EPW18362   6.167   5.593   4.417  0.1959  0.0339  0.5976
 4411WAT      O18363   3.065   0.315   0.844  0.1093 -0.1269  0.0452
 4411WAT     H118364   3.148   0.334   0.865  1.2383 -2.2123 -2.0613
 4411WAT     H218365   3.068   0.230   0.824 -1.9635  0.2876 -2.5026
 4411WAT    EPW18366   3.078   0.306   0.844 -0.0301 -0.3737 -0.6423
 4412WAT      O18367   7.263   0.183   0.005 -0.3921 -0.2501  0.3506
 4412WAT     H118368   7.302   0.108   0.025  0.7576  0.1526 -0.3436
 4412WAT     H218369   7.190   0.181   0.053 -0.1910 -1.6227  0.6386
 4412WAT    EPW18370   7.258   0.172   0.015 -0.1926 -0.3934  0.2906
 4413WAT      O18371   0.346   6.349   1.463  0.2890 -0.0126  0.5431
 4413WAT     H118372   0.356   6.381   1.382  0.3522  1.8359  1.2323
 4413WAT     H218373   0.428   6.329   1.487  0.0604 -2.8235 -0.6346
 4413WAT    EPW18374   0.360   6.351   1.454  0.2646 -0.1548  0.4709
 4414WAT      O18375   6.151   1.244   0.061  0.4362  0.1784 -0.5347
 4414WAT     H118376   6.119   1.163   0.054  3.5496 -1.2596  0.1762
 4414WAT     H218377   6.121   1.284  -0.010 -3.1524 -0.7699  0.2721
 4414WAT    EPW18378   6.142   1.238   0.049  0.3660 -0.1741 -0.3105
 4415WAT      O18379   6.365   4.047   3.182 -0.6281 -0.3069 -0.5547
 4415WAT     H118380   6.420   3.985   3.207 -1.5924 -0.4916  1.2869
 4415WAT     H218381   6.298   4.003   3.148 -1.0647 -0.2652  0.2331
 4415WAT    EPW18382   6.363   4.032   3.180 -0.8351 -0.3281 -0.1663
 4416WAT      O18383   6.899   4.350   6.604  0.0952 -0.4169  0.1819
 4416WAT     H118384   6.949   4.284   6.577  0.1036 -0.1600 -0.4571
 4416WAT     H218385   6.823   4.312   6.624 -0.4110 -0.4668 -1.6112
 4416WAT    EPW18386   6.895   4.335   6.603  0.0217 -0.3863 -0.1773
 4417WAT      O18387   3.166   5.752   2.957 -0.0082  0.1728 -0.4417
 4417WAT     H118388   3.198   5.826   2.924 -0.5974  0.1322 -1.1340
 4417WAT     H218389   3.166   5.697   2.889  0.1317 -0.3702 -0.0086
 4417WAT    EPW18390   3.170   5.755   2.942 -0.0746  0.0866 -0.4800
 4418WAT      O18391   7.288   3.879   1.908  0.3400 -0.4311 -0.0965
 4418WAT     H118392   7.286   3.952   1.957 -1.0224 -0.2777 -0.3436
 4418WAT     H218393   7.204   3.863   1.892  0.6491 -1.8415 -0.3938
 4418WAT    EPW18394   7.275   3.888   1.913  0.1844 -0.6168 -0.1769
 4419WAT      O18395   6.991   6.933   2.574  0.0157  0.4715  0.2218
 4419WAT     H118396   6.924   6.983   2.599 -0.4007  1.9596 -3.1826
 4419WAT     H218397   6.953   6.868   2.531  0.6535  1.0643 -1.3184
 4419WAT    EPW18398   6.976   6.931   2.571  0.0484  0.7789 -0.5086
 4420WAT      O18399   4.389   3.158   1.557 -0.1951  0.5098 -0.2197
 4420WAT     H118400   4.436   3.228   1.534  2.0878 -1.2860 -1.4593
 4420WAT     H218401   4.402   3.153   1.643  1.0430  0.6724 -0.3796
 4420WAT    EPW18402   4.398   3.168   1.567  0.3250  0.2685 -0.4264
 4421WAT      O18403   2.802   5.907   7.303  0.4484  0.0834 -0.2026
 4421WAT     H118404   2.716   5.922   7.298  0.5321  0.4576 -0.5456
 4421WAT     H218405   2.817   5.853   7.236  0.4925  0.0773 -0.1875
 4421WAT    EPW18406   2.791   5.901   7.293  0.4672  0.1378 -0.2511
 4422WAT      O18407   4.649   1.556   6.302  0.2406  0.4460  0.0034
 4422WAT     H118408   4.610   1.629   6.328  0.5436  0.4208  0.5504
 4422WAT     H218409   4.628   1.497   6.363 -0.8995 -0.2256 -1.0045
 4422WAT    EPW18410   4.640   1.558   6.314  0.1169  0.3431 -0.0647
 4423WAT      O18411   1.759   7.018   1.441  0.4887  0.5463  0.3151
 4423WAT     H118412   1.727   7.039   1.362 -0.4173 -2.9293 -0.4125
 4423WAT     H218413   1.701   7.052   1.496  0.4072  1.8789 -0.5358
 4423WAT    EPW18414   1.745   7.026   1.437  0.3428  0.2297  0.0819
 4424WAT      O18415   1.736   3.663   3.815  0.0334  0.3272  0.0715
 4424WAT     H118416   1.662   3.624   3.791 -1.1675  1.6380  1.4367
 4424WAT     H218417   1.718   3.748   3.807  1.2794  0.6815  0.7667
 4424WAT    EPW18418   1.722   3.670   3.810  0.0401  0.5732  0.3759
 4425WAT      O18419   0.374   0.431   1.205 -0.2542 -0.0904 -0.1484
 4425WAT     H118420   0.362   0.373   1.269  1.1381 -0.0432  0.1987
 4425WAT     H218421   0.419   0.385   1.145 -1.7623 -0.2137 -1.2424
 4425WAT    EPW18422   0.379   0.416   1.206 -0.2713 -0.1017 -0.2587
 4426WAT      O18423   7.220   2.213   4.381  0.1284  0.7275  0.5002
 4426WAT     H118424   7.253   2.206   4.301 -0.7508  1.5541  0.0438
 4426WAT     H218425   7.137   2.190   4.372  0.4232 -0.8941  1.5443
 4426WAT    EPW18426   7.213   2.209   4.368  0.0421  0.6101  0.5870
 4427WAT      O18427   2.796   1.010   4.343 -0.1262 -0.4813 -0.2879
 4427WAT     H118428   2.798   1.024   4.429  1.0034  1.8028 -0.6148
 4427WAT     H218429   2.875   1.036   4.316 -0.0953 -2.0597 -1.9321
 4427WAT    EPW18430   2.808   1.016   4.352  0.0452 -0.3770 -0.5791
 4428WAT      O18431   5.525   3.660   4.280 -0.3691 -0.4580  0.0007
 4428WAT     H118432   5.529   3.577   4.305  0.6098 -1.2428 -2.4555
 4428WAT     H218433   5.458   3.662   4.224 -0.4597  0.4206  0.1199
 4428WAT    EPW18434   5.516   3.648   4.275 -0.2379 -0.4441 -0.3445
 4429WAT      O18435   4.740   0.609   5.607 -0.2077  0.0265  0.3284
 4429WAT     H118436   4.712   0.655   5.677  3.9967  0.6357  1.9099
 4429WAT     H218437   4.826   0.607   5.618  0.5668 -1.0588 -4.2645
 4429WAT    EPW18438   4.748   0.616   5.619  0.5278 -0.0438 -0.1164
 4430WAT      O18439   2.672   2.844   1.621  0.6724 -0.1151  0.0279
 4430WAT     H118440   2.649   2.927   1.638  1.4913  0.4404 -1.3922
 4430WAT     H218441   2.748   2.835   1.662  1.3490  0.3730 -1.0637
 4430WAT    EPW18442   2.680   2.855   1.630  0.8933  0.0391 -0.3431
 4431WAT      O18443   1.605   2.737   6.742 -0.1241  0.0678  0.0285
 4431WAT     H118444   1.623   2.652   6.740  3.0335  0.6032  0.1906
 4431WAT     H218445   1.558   2.746   6.815  1.2843 -1.2996  1.1691
 4431WAT    EPW18446   1.600   2.726   6.753  0.5504 -0.0551  0.2209
 4432WAT      O18447   5.895   7.257   1.786 -0.1455 -0.1899  0.3883
 4432WAT     H118448   5.904   7.339   1.812 -0.7636  0.1386 -0.3918
 4432WAT     H218449   5.811   7.239   1.804 -0.3762 -0.2030 -0.6285
 4432WAT    EPW18450   5.884   7.266   1.793 -0.2709 -0.1433  0.1228
 4433WAT      O18451   6.919   1.526   2.759 -0.5588  0.2203 -0.0086
 4433WAT     H118452   6.894   1.465   2.817  1.5205 -0.5789  0.1139
 4433WAT     H218453   6.919   1.600   2.805 -1.3751  0.0275  0.3157
 4433WAT    EPW18454   6.915   1.528   2.774 -0.3722  0.0738  0.0574
 4434WAT      O18455   6.168   2.827   1.227 -0.5274  0.0760  0.5826
 4434WAT     H118456   6.102   2.829   1.284  1.1484  2.0229  2.6279
 4434WAT     H218457   6.216   2.759   1.254 -0.8464 -0.3592  0.0782
 4434WAT    EPW18458   6.165   2.817   1.239 -0.3270  0.2993  0.8102
 4435WAT      O18459   3.004   2.682   6.478 -0.3133 -0.0864 -0.0369
 4435WAT     H118460   3.066   2.623   6.496 -1.1679 -1.2793 -0.7896
 4435WAT     H218461   2.977   2.710   6.556  1.1717  0.4734  0.2937
 4435WAT    EPW18462   3.009   2.677   6.492 -0.2202 -0.1799 -0.0992
 4436WAT      O18463   0.788   0.132   2.525  0.3074 -0.2162 -0.1655
 4436WAT     H118464   0.751   0.063   2.486 -1.9191  1.2351 -0.8338
 4436WAT     H218465   0.814   0.101   2.602  0.1521 -1.9910 -0.7787
 4436WAT    EPW18466   0.786   0.117   2.530 -0.0445 -0.2640 -0.3548
 4437WAT      O18467   3.200   6.072   3.172 -0.3404 -0.0004 -0.9777
 4437WAT     H118468   3.190   5.994   3.209 -0.2818 -0.6488 -2.2877
 4437WAT     H218469   3.259   6.057   3.109  2.1631  1.7642  0.7347
 4437WAT    EPW18470   3.207   6.058   3.168  0.0381  0.1645 -0.9182
 4438WAT      O18471   2.819   0.264   4.927  0.2677 -0.2656  0.0822
 4438WAT     H118472   2.829   0.217   5.000  0.2718 -2.1564 -1.0499
 4438WAT     H218473   2.891   0.313   4.925  1.8083 -2.3859 -0.1018
 4438WAT    EPW18474   2.831   0.264   4.937  0.4959 -0.8581 -0.1122
 4439WAT      O18475   5.257   2.194   2.286 -0.0817  0.2756 -0.0113
 4439WAT     H118476   5.312   2.262   2.281 -0.7272  0.7758 -0.4207
 4439WAT     H218477   5.305   2.127   2.257 -0.0891  0.9615 -1.7265
 4439WAT    EPW18478   5.272   2.194   2.281 -0.1782  0.4508 -0.3251
 4440WAT      O18479   0.951   0.919   2.428 -0.5800 -0.3388 -0.2963
 4440WAT     H118480   0.950   0.843   2.385  2.0758 -0.5052 -0.1965
 4440WAT     H218481   0.973   0.898   2.509 -2.4853  0.3272  0.4667
 4440WAT    EPW18482   0.954   0.905   2.433 -0.4691 -0.2650 -0.1689
 4441WAT      O18483   6.598   5.513   5.957 -0.2055 -0.6285 -0.6951
 4441WAT     H118484   6.670   5.480   5.995  0.3893 -0.5668 -1.7169
 4441WAT     H218485   6.622   5.594   5.936 -1.4744  0.3340  1.2983
 4441WAT    EPW18486   6.612   5.520   5.959 -0.3051 -0.4772 -0.5515
 4442WAT      O18487   7.036   5.020   2.230  0.1047 -1.3265  0.7493
 4442WAT     H118488   7.075   4.992   2.157  1.5972 -0.2149  1.0683
 4442WAT     H218489   7.084   5.089   2.253 -2.1704  0.2518  1.1021
 4442WAT    EPW18490   7.049   5.026   2.222 -0.0109 -0.9291  0.8485
 4443WAT      O18491   6.629   6.642   1.311  0.6282  0.6093 -0.0408
 4443WAT     H118492   6.653   6.569   1.353  1.5781  0.7294 -0.3430
 4443WAT     H218493   6.630   6.703   1.373 -0.8820  0.2430  0.3661
 4443WAT    EPW18494   6.633   6.640   1.326  0.5454  0.5729 -0.0254
 4444WAT      O18495   0.789   6.160   4.755  0.0580 -0.0469  0.1135
 4444WAT     H118496   0.855   6.107   4.736 -0.8526 -1.8052  1.5675
 4444WAT     H218497   0.728   6.140   4.696  0.4594  0.9609 -0.6810
 4444WAT    EPW18498   0.789   6.149   4.744 -0.0172 -0.1577  0.2109
 4445WAT      O18499   0.851   5.333   0.043 -0.1750  0.2644  0.1973
 4445WAT     H118500   0.881   5.405   0.004 -0.2095 -0.2438 -0.8027
 4445WAT     H218501   0.921   5.280   0.043 -0.4317 -0.0753 -0.0165
 4445WAT    EPW18502   0.866   5.336   0.037 -0.2180  0.1391  0.0180
 4446WAT      O18503   5.249   6.974   2.158  0.1306 -0.0347  0.1993
 4446WAT     H118504   5.177   6.993   2.204  0.1006 -0.7201  0.4568
 4446WAT     H218505   5.314   7.008   2.205 -0.1460  2.4681 -1.0917
 4446WAT    EPW18506   5.248   6.982   2.172  0.0853  0.2337  0.0466
 4447WAT      O18507   1.096   2.054   4.509  0.2581  0.4709 -0.0512
 4447WAT     H118508   1.119   2.016   4.434  0.8167  0.8547 -0.0774
 4447WAT     H218509   1.149   2.123   4.515  0.0714  0.5704  0.5883
 4447WAT    EPW18510   1.107   2.059   4.499  0.3130  0.5423  0.0394
 4448WAT      O18511   4.577   3.778   1.883  0.2956  0.3780 -0.2775
 4448WAT     H118512   4.592   3.781   1.969  1.9473  0.6711 -0.5365
 4448WAT     H218513   4.523   3.845   1.870 -1.1872 -0.5564  0.7051
 4448WAT    EPW18514   4.571   3.788   1.894  0.3206  0.2833 -0.1706
 4449WAT      O18515   5.955   1.796   3.880 -0.1207 -0.6176  0.0233
 4449WAT     H118516   6.036   1.786   3.849  0.0664  3.6374 -1.6778
 4449WAT     H218517   5.904   1.770   3.814 -0.1026 -1.6609  0.4134
 4449WAT    EPW18518   5.960   1.791   3.866 -0.0904 -0.1431 -0.1703
 4450WAT      O18519   2.092   6.084   4.921  0.5908 -0.1423  0.3140
 4450WAT     H118520   2.073   6.165   4.896  0.7365  0.1463  1.1040
 4450WAT     H218521   2.158   6.061   4.868  0.1040  0.0010 -0.3595
 4450WAT    EPW18522   2.099   6.092   4.909  0.5404 -0.0785  0.3312
 4451WAT      O18523   4.944   6.269   3.162  0.2696 -0.3149  0.3180
 4451WAT     H118524   5.016   6.272   3.113  0.0420  1.1035  0.0350
 4451WAT     H218525   4.960   6.326   3.226 -0.6977  0.2606  0.0805
 4451WAT    EPW18526   4.957   6.278   3.164  0.0931 -0.0204  0.2411
 4452WAT      O18527   6.072   1.113   2.241  0.6160 -0.3666  0.3228
 4452WAT     H118528   6.152   1.124   2.209  1.7139 -1.6929  2.4032
 4452WAT     H218529   6.084   1.115   2.328 -1.5961 -0.6447  0.6867
 4452WAT    EPW18530   6.086   1.115   2.249  0.4514 -0.6036  0.6839
 4453WAT      O18531   1.723   5.135   2.976  0.5699 -0.0635  0.1762
 4453WAT     H118532   1.756   5.214   2.957  0.3439  0.2905  1.1842
 4453WAT     H218533   1.700   5.142   3.060  0.6397 -1.2428  0.3116
 4453WAT    EPW18534   1.724   5.148   2.985  0.5468 -0.1854  0.3451
 4454WAT      O18535   2.078   5.677   7.064 -0.0203 -0.5579 -0.5119
 4454WAT     H118536   2.094   5.604   7.019  1.9644  0.4059 -1.4905
 4454WAT     H218537   2.064   5.737   7.001  0.7939  0.3888  0.1693
 4454WAT    EPW18538   2.078   5.675   7.048  0.3931 -0.2757 -0.5558
 4455WAT      O18539   6.862   6.660   3.449 -0.3671 -0.5867 -0.1264
 4455WAT     H118540   6.818   6.624   3.515 -2.8674 -0.1098 -1.4187
 4455WAT     H218541   6.916   6.716   3.488 -1.2670 -0.8280  1.5500
 4455WAT    EPW18542   6.864   6.663   3.465 -0.8694 -0.5519 -0.0696
 4456WAT      O18543   0.755   1.433   3.844  0.1131  0.1124 -0.3896
 4456WAT     H118544   0.702   1.384   3.795  0.6115 -2.1460  1.1720
 4456WAT     H218545   0.743   1.514   3.812 -2.6722 -0.5890 -1.4613
 4456WAT    EPW18546   0.745   1.438   3.832 -0.2247 -0.3248 -0.3172
 4457WAT      O18547   1.404   3.333   5.882 -0.2382  0.0854  0.3399
 4457WAT     H118548   1.415   3.417   5.860  0.1127 -0.1824 -0.5746
 4457WAT     H218549   1.386   3.336   5.967  0.7142  1.0316  0.5283
 4457WAT    EPW18550   1.403   3.346   5.891 -0.0457  0.1856  0.2327
 4458WAT      O18551   2.441   6.743   5.193 -0.2381 -0.2212 -0.1084
 4458WAT     H118552   2.361   6.722   5.221 -0.2622 -1.9931 -1.3452
 4458WAT     H218553   2.460   6.815   5.239 -1.2393 -1.5242  2.5705
 4458WAT    EPW18554   2.432   6.751   5.204 -0.3896 -0.6754  0.1046
 4459WAT      O18555   0.037   2.135   4.601  0.1061 -0.0484  0.0611
 4459WAT     H118556   0.100   2.194   4.610  0.4372 -0.5452  1.3275
 4459WAT     H218557  -0.004   2.158   4.528  0.2150  1.7524  0.5319
 4459WAT    EPW18558   0.040   2.147   4.592  0.1711  0.1442  0.3177
 4460WAT      O18559   3.543   2.436   0.077 -0.3295 -0.2788  0.7792
 4460WAT     H118560   3.458   2.428   0.098 -0.5277  0.1719  0.1794
 4460WAT     H218561   3.541   2.476  -0.001  0.4071 -1.2032  0.2679
 4460WAT    EPW18562   3.530   2.441   0.069 -0.2500 -0.3488  0.6151
 4461WAT      O18563   7.062   2.462   4.646 -0.1051 -0.3184  0.0396
 4461WAT     H118564   7.083   2.415   4.575 -1.3218 -0.7639 -0.0559
 4461WAT     H218565   7.111   2.427   4.709  0.6448 -0.2323 -0.4792
 4461WAT    EPW18566   7.072   2.450   4.645 -0.1741 -0.3715 -0.0511
 4462WAT      O18567   4.788   2.473   1.773  0.4879 -0.2548  0.2328
 4462WAT     H118568   4.816   2.396   1.801  3.9605 -0.1192 -2.2823
 4462WAT     H218569   4.845   2.529   1.806  0.0186  0.8101 -0.6762
 4462WAT    EPW18570   4.800   2.470   1.782  0.9316 -0.0774 -0.2730
 4463WAT      O18571   0.765   5.596   3.374  0.3947  0.3840  0.1217
 4463WAT     H118572   0.724   5.595   3.451 -0.1403  0.6430 -0.1559
 4463WAT     H218573   0.801   5.516   3.369 -1.2420 -0.3789 -0.2387
 4463WAT    EPW18574   0.764   5.584   3.385  0.0739  0.3096  0.0275
 4464WAT      O18575   6.368   1.809   1.930  0.0624  0.0345 -0.3827
 4464WAT     H118576   6.440   1.793   1.978 -1.0278  0.8659  1.6503
 4464WAT     H218577   6.335   1.730   1.915  0.9718 -0.3051 -0.6839
 4464WAT    EPW18578   6.374   1.795   1.935  0.0357  0.1072 -0.1269
 4465WAT      O18579   3.123   4.808   0.406 -0.3070  0.0429  0.4040
 4465WAT     H118580   3.102   4.880   0.361 -1.8711 -1.2796 -1.1254
 4465WAT     H218581   3.058   4.799   0.463  0.0969  0.0578  0.8728
 4465WAT    EPW18582   3.110   4.817   0.407 -0.4784 -0.1502  0.2473
 4466WAT      O18583   7.174   5.839   1.268 -0.0989 -0.1798 -0.4241
 4466WAT     H118584   7.210   5.817   1.344 -0.4122 -1.8184 -0.7106
 4466WAT     H218585   7.238   5.827   1.211 -0.1807 -0.0023 -0.5561
 4466WAT    EPW18586   7.189   5.834   1.271 -0.1573 -0.3956 -0.4859
 4467WAT      O18587   2.858   3.866   5.603  0.3289  0.3791 -0.3133
 4467WAT     H118588   2.850   3.922   5.670 -2.3294 -0.9868  0.6614
 4467WAT     H218589   2.938   3.832   5.614  0.4114  1.0367  1.4996
 4467WAT    EPW18590   2.869   3.869   5.614 -0.0516  0.2745  0.0985
 4468WAT      O18591   2.417   0.334   1.695  0.2742  0.4913  0.2713
 4468WAT     H118592   2.488   0.385   1.692  0.5492  0.0454 -1.2539
 4468WAT     H218593   2.376   0.362   1.767  1.7432  1.0744  0.9245
 4468WAT    EPW18594   2.422   0.346   1.705  0.5318  0.5116  0.1425
 4469WAT      O18595   6.902   3.198   1.044  0.2371 -0.3194  0.2027
 4469WAT     H118596   6.857   3.256   1.091 -2.0833 -0.8189 -1.2155
 4469WAT     H218597   6.847   3.130   1.038  1.7991 -1.5808 -0.4365
 4469WAT    EPW18598   6.887   3.196   1.050  0.1251 -0.5795 -0.1012
 4470WAT      O18599   4.304   4.698   3.178 -0.0548  0.1750  0.2717
 4470WAT     H118600   4.282   4.624   3.137 -0.9491  1.0028 -0.7990
 4470WAT     H218601   4.271   4.688   3.258 -1.3892 -0.0337 -0.2809
 4470WAT    EPW18602   4.296   4.685   3.184 -0.3840  0.2665  0.0319
 4471WAT      O18603   0.865   5.006   5.663  0.0822  0.1862 -1.5789
 4471WAT     H118604   0.779   4.997   5.652  0.2177  0.3858 -3.0602
 4471WAT     H218605   0.875   5.093   5.669  0.0198  0.0980  0.4818
 4471WAT    EPW18606   0.854   5.018   5.662  0.0930  0.2026 -1.4933
 4472WAT      O18607   5.044   0.292   3.764  0.4775  0.0713  0.0889
 4472WAT     H118608   5.118   0.289   3.810  0.3557  1.2718  0.3793
 4472WAT     H218609   5.066   0.335   3.691  0.6905 -1.8738 -1.0624
 4472WAT    EPW18610   5.058   0.298   3.760  0.4910 -0.0387 -0.0383
 4473WAT      O18611   2.417   1.941   5.051  0.0099  0.2808  0.4095
 4473WAT     H118612   2.425   1.927   5.137  0.8372  2.2417  0.7088
 4473WAT     H218613   2.467   1.880   5.015  1.2529  0.6455  1.4446
 4473WAT    EPW18614   2.425   1.930   5.059  0.3157  0.6244  0.6066
 4474WAT      O18615   1.041   3.115   6.808  0.2205  0.3572  0.4218
 4474WAT     H118616   0.967   3.119   6.762  0.6263 -0.7768 -0.3742
 4474WAT     H218617   1.020   3.066   6.877  0.5741 -1.2676 -0.5761
 4474WAT    EPW18618   1.027   3.108   6.812  0.3327 -0.0504  0.1568
 4475WAT      O18619   4.623   2.306   0.785 -0.0375  0.0424 -0.0031
 4475WAT     H118620   4.656   2.360   0.725 -0.4580  0.1896 -0.1050
 4475WAT     H218621   4.608   2.359   0.853  1.5145 -0.3292  0.6500
 4475WAT    EPW18622   4.625   2.322   0.786  0.1296  0.0093  0.0783
 4476WAT      O18623   3.804   1.200   0.283 -0.0623 -0.1543  0.4629
 4476WAT     H118624   3.860   1.253   0.325  0.1926 -0.1002  0.0611
 4476WAT     H218625   3.802   1.233   0.202 -1.3029  0.3483  0.6702
 4476WAT    EPW18626   3.812   1.213   0.277 -0.2079 -0.0720  0.4342
 4477WAT      O18627   4.421   3.915   4.379  0.2692  1.2572 -0.3036
 4477WAT     H118628   4.338   3.899   4.399  0.2123  3.0971  1.1799
 4477WAT     H218629   4.423   4.001   4.367  1.8617  1.1635 -0.9311
 4477WAT    EPW18630   4.409   3.925   4.380  0.4960  1.5152 -0.1772
 4478WAT      O18631   5.270   6.391   1.063 -0.0254 -0.1479 -0.3930
 4478WAT     H118632   5.263   6.328   1.003  0.2862 -0.6860  0.1258
 4478WAT     H218633   5.356   6.396   1.079 -0.2042 -1.0458  1.0627
 4478WAT    EPW18634   5.282   6.382   1.056 -0.0058 -0.3600 -0.1013
 4479WAT      O18635   2.091   3.326   0.111 -0.7022  0.1487  0.7586
 4479WAT     H118636   2.141   3.300   0.177 -0.7977 -0.1036  0.7320
 4479WAT     H218637   2.010   3.309   0.139 -0.7220 -0.3340  0.4161
 4479WAT    EPW18638   2.087   3.320   0.125 -0.7192  0.0402  0.7041
 4480WAT      O18639   4.906   4.140   3.476 -0.2790 -0.6398  0.0402
 4480WAT     H118640   4.977   4.186   3.455  0.8648 -1.7149  1.3438
 4480WAT     H218641   4.863   4.134   3.400  0.6955  0.5535 -0.6603
 4480WAT    EPW18642   4.910   4.146   3.462  0.0339 -0.6223  0.1293
 4481WAT      O18643   6.979   6.976   1.756 -0.2650  0.8376 -0.3242
 4481WAT     H118644   7.000   6.912   1.811  0.1209  1.5955  0.4254
 4481WAT     H218645   6.968   7.046   1.808  0.4204  1.6385 -1.2263
 4481WAT    EPW18646   6.980   6.977   1.772 -0.1068  1.0679 -0.3467
 4482WAT      O18647   4.705   5.329   6.611  0.1470  0.5193  0.1888
 4482WAT     H118648   4.778   5.342   6.564  0.7880  0.7073  1.2160
 4482WAT     H218649   4.674   5.409   6.623  1.1425  0.6792  1.8790
 4482WAT    EPW18650   4.711   5.342   6.606  0.3888  0.5707  0.5902
 4483WAT      O18651   1.208   3.328   6.729  0.5666  0.1008 -0.5417
 4483WAT     H118652   1.242   3.335   6.809  0.2555 -1.1646 -0.2650
 4483WAT     H218653   1.157   3.257   6.735  3.9551 -2.9392 -2.9890
 4483WAT    EPW18654   1.205   3.318   6.742  1.0212 -0.5352 -0.8624
 4484WAT      O18655   5.313   1.610   5.846 -0.3211  0.9599  1.0928
 4484WAT     H118656   5.327   1.616   5.932  0.0291  1.8378  0.9818
 4484WAT     H218657   5.379   1.656   5.812 -0.4016  0.5330  0.3472
 4484WAT    EPW18658   5.325   1.618   5.854 -0.2813  1.0265  0.9663
 4485WAT      O18659   1.195   6.069   1.436  0.0424 -0.9576  0.5080
 4485WAT     H118660   1.227   5.998   1.395 -0.5714 -0.4836 -0.8297
 4485WAT     H218661   1.137   6.101   1.380  0.4533  0.7366  0.9871
 4485WAT    EPW18662   1.191   6.063   1.421  0.0124 -0.6373  0.3811
 4486WAT      O18663   2.537   4.375   6.516 -0.1998  0.0593  0.8320
 4486WAT     H118664   2.484   4.444   6.503 -0.6854 -0.5739 -0.8232
 4486WAT     H218665   2.569   4.359   6.436 -0.7224 -2.1342  1.0093
 4486WAT    EPW18666   2.534   4.383   6.502 -0.3487 -0.3583  0.6137
 4487WAT      O18667   6.003   3.060   2.395 -0.1311  0.4130 -0.1927
 4487WAT     H118668   6.052   3.094   2.458  0.4059 -0.6155 -0.0349
 4487WAT     H218669   6.002   3.122   2.334 -1.1886  1.6878  1.0555
 4487WAT    EPW18670   6.010   3.074   2.395 -0.2079  0.4494  0.0150
 4488WAT      O18671   3.945   5.057   0.187  0.3421  1.0805 -0.0547
 4488WAT     H118672   3.957   5.065   0.100  1.9214  0.8196  0.1076
 4488WAT     H218673   4.023   5.029   0.215  0.5389  3.1424  1.7185
 4488WAT    EPW18674   3.959   5.054   0.178  0.6044  1.3465  0.2312
 4489WAT      O18675   4.362   5.551   6.436  0.4784  0.0792 -0.7461
 4489WAT     H118676   4.298   5.581   6.385 -0.1035 -1.0223 -0.6899
 4489WAT     H218677   4.326   5.482   6.476  1.8418 -0.8785 -1.0950
 4489WAT    EPW18678   4.347   5.545   6.434  0.5938 -0.2250 -0.7893
 4490WAT      O18679   2.193   5.004   0.376 -0.0572 -0.0021 -0.3158
 4490WAT     H118680   2.268   5.015   0.419 -0.6634  0.4728  0.6575
 4490WAT     H218681   2.216   4.956   0.307  1.0682 -0.1969  0.1683
 4490WAT    EPW18682   2.207   4.999   0.372  0.0195  0.0393 -0.1005
 4491WAT      O18683   6.729   3.533   3.382  0.6504  0.0492  0.0208
 4491WAT     H118684   6.811   3.527   3.412 -0.1458 -0.4544  2.3509
 4491WAT     H218685   6.715   3.620   3.381  1.1512  0.1311 -0.1891
 4491WAT    EPW18686   6.739   3.545   3.387  0.6068 -0.0131  0.3340
 4492WAT      O18687   0.134   5.754   5.371  0.0091  0.3941 -0.2196
 4492WAT     H118688   0.182   5.720   5.436  1.9719  3.7903  0.3066
 4492WAT     H218689   0.175   5.725   5.300  1.2231  1.0493  0.1859
 4492WAT    EPW18690   0.147   5.745   5.370  0.4784  0.9926 -0.0819
 4493WAT      O18691   3.708   1.828   7.075 -0.0682  0.6574 -0.5957
 4493WAT     H118692   3.624   1.836   7.052  0.7895  0.3737 -4.7353
 4493WAT     H218693   3.746   1.798   7.002  3.5221 -0.1821  1.3688
 4493WAT    EPW18694   3.701   1.824   7.061  0.5889  0.4915 -0.9170
 4494WAT      O18695   4.730   3.415   1.141 -0.0146 -0.7761  0.0766
 4494WAT     H118696   4.655   3.443   1.107  0.3889  0.6622  0.3238
 4494WAT     H218697   4.707   3.346   1.189 -0.7315 -2.3387 -2.3399
 4494WAT    EPW18698   4.716   3.409   1.143 -0.0609 -0.7945 -0.2438
 4495WAT      O18699   0.565   1.643   0.148  0.2075 -0.3425 -0.2519
 4495WAT     H118700   0.512   1.576   0.131  0.6609 -0.4345 -1.4422
 4495WAT     H218701   0.636   1.625   0.100  0.4743  0.8200 -0.3257
 4495WAT    EPW18702   0.568   1.630   0.138  0.3139 -0.1844 -0.4387
 4496WAT      O18703   2.434   5.341   6.790  0.4352  0.1870 -0.1327
 4496WAT     H118704   2.505   5.352   6.839 -0.6235  0.7011  1.3574
 4496WAT     H218705   2.463   5.352   6.709  2.2574 -0.7129  0.3386
 4496WAT    EPW18706   2.449   5.344   6.785  0.5480  0.1300  0.1570
 4497WAT      O18707   0.656   6.886   4.468 -0.4135  0.3161 -0.2878
 4497WAT     H118708   0.650   6.934   4.540  1.6772 -0.5266  0.5240
 4497WAT     H218709   0.717   6.827   4.487  1.4053  1.0051 -3.2738
 4497WAT    EPW18710   0.664   6.884   4.481  0.1640  0.2934 -0.6090
 4498WAT      O18711   3.430   6.098   5.087  0.4533 -0.4601 -0.8046
 4498WAT     H118712   3.499   6.070   5.043  0.9093  0.2689 -0.5639
 4498WAT     H218713   3.463   6.152   5.147 -0.2778 -0.4380 -0.3970
 4498WAT    EPW18714   3.445   6.102   5.090  0.4126 -0.3492 -0.7088
 4499WAT      O18715   3.607   6.237   7.127 -0.0447 -0.3595  0.0498
 4499WAT     H118716   3.596   6.294   7.062 -0.3815  0.3212  0.6819
 4499WAT     H218717   3.693   6.240   7.142  0.0290 -0.4914 -0.3299
 4499WAT    EPW18718   3.618   6.246   7.120 -0.0836 -0.2784  0.0871
 4500WAT      O18719   6.341   4.271   2.382 -0.1701  0.4935  0.4288
 4500WAT     H118720   6.343   4.336   2.324  0.7951  0.1779  0.0834
 4500WAT     H218721   6.292   4.303   2.447  1.7902  2.3358  1.1444
 4500WAT    EPW18722   6.334   4.286   2.383  0.2621  0.7190  0.4835
 4501WAT      O18723   3.884   1.097   3.413  0.2649  0.5744  0.0696
 4501WAT     H118724   3.854   1.018   3.437 -0.3874  0.2371 -1.6278
 4501WAT     H218725   3.957   1.106   3.459 -0.5386 -0.2465  1.5932
 4501WAT    EPW18726   3.890   1.086   3.423  0.0499  0.4033  0.0439
 4502WAT      O18727   5.096   4.477   5.800  0.0132  0.2265  0.3319
 4502WAT     H118728   5.083   4.515   5.877 -0.8802  0.1627  0.2181
 4502WAT     H218729   5.031   4.507   5.750 -0.0989 -0.6293 -0.0613
 4502WAT    EPW18730   5.085   4.487   5.804 -0.1353  0.0906  0.2570
 4503WAT      O18731   4.957   1.143   2.525 -0.0530  0.6034  0.2431
 4503WAT     H118732   5.004   1.123   2.596 -1.1396  1.1432  1.1551
 4503WAT     H218733   4.883   1.099   2.537 -0.5122  1.2347 -0.2174
 4503WAT    EPW18734   4.953   1.134   2.538 -0.2813  0.7764  0.3098
 4504WAT      O18735   5.357   3.257   6.210  0.2305  0.2198  0.0331
 4504WAT     H118736   5.412   3.227   6.271  0.7652  0.2895 -0.4047
 4504WAT     H218737   5.401   3.244   6.135 -0.5510 -0.1705 -0.3676
 4504WAT    EPW18738   5.372   3.250   6.208  0.1941  0.1724 -0.0907
 4505WAT      O18739   4.104   5.301   5.777 -0.2539 -0.8448  0.7422
 4505WAT     H118740   4.076   5.376   5.811  2.2893 -0.7271  2.9609
 4505WAT     H218741   4.146   5.325   5.704  2.2205  0.3105  2.4036
 4505WAT    EPW18742   4.106   5.315   5.771  0.4873 -0.6568  1.3154
 4506WAT      O18743   2.984   3.417   0.219  0.2061  0.1744 -0.1075
 4506WAT     H118744   2.991   3.395   0.135 -3.7023 -5.1521  0.3711
 4506WAT     H218745   2.900   3.438   0.228  0.6118  1.1244  2.3903
 4506WAT    EPW18746   2.973   3.417   0.208 -0.3113 -0.4721  0.3322
 4507WAT      O18747   4.881   4.340   2.588  0.0024 -0.0174  0.1332
 4507WAT     H118748   4.928   4.410   2.563  0.0232 -0.6613 -1.8464
 4507WAT     H218749   4.939   4.290   2.629  0.0886  0.9194  1.2042
 4507WAT    EPW18750   4.896   4.343   2.590  0.0182  0.0259 -0.0010
 4508WAT      O18751   4.079   1.612   2.173 -0.5469 -0.4516 -0.2553
 4508WAT     H118752   4.067   1.633   2.089  1.2019 -1.5080 -0.8379
 4508WAT     H218753   4.002   1.578   2.197 -1.4455  0.9535 -1.0600
 4508WAT    EPW18754   4.066   1.610   2.164 -0.4213 -0.4001 -0.4602
 4509WAT      O18755   5.249   1.056   3.276  0.2567 -0.5029 -0.0753
 4509WAT     H118756   5.308   1.064   3.212 -1.5914  0.3205 -1.8173
 4509WAT     H218757   5.278   1.109   3.338 -0.2177  2.6296 -2.2645
 4509WAT    EPW18758   5.262   1.065   3.276 -0.0864  0.0815 -0.6560
 4510WAT      O18759   3.378   3.603   2.172 -0.1483 -0.5256 -0.7067
 4510WAT     H118760   3.327   3.670   2.152  1.1995  0.4511 -1.0206
 4510WAT     H218761   3.391   3.562   2.096  0.6158  0.0238 -0.8793
 4510WAT    EPW18762   3.372   3.607   2.158  0.1637 -0.3002 -0.7785
 4511WAT      O18763   4.621   5.715   1.514 -0.2612 -0.7924 -0.3183
 4511WAT     H118764   4.703   5.729   1.540 -0.1860 -3.1682  1.0579
 4511WAT     H218765   4.629   5.692   1.430  1.2530 -5.2764  0.7421
 4511WAT    EPW18766   4.634   5.714   1.505 -0.0264 -1.8057  0.0416
 4512WAT      O18767   3.413   2.118   6.650  0.3333 -0.4771 -0.3220
 4512WAT     H118768   3.440   2.144   6.572  0.2023 -0.4216 -0.3498
 4512WAT     H218769   3.439   2.182   6.704 -1.1807  0.4026 -0.5834
 4512WAT    EPW18770   3.421   2.131   6.647  0.0903 -0.3389 -0.3648
 4513WAT      O18771   2.577   3.410   1.338 -0.2125  0.2866 -0.1182
 4513WAT     H118772   2.494   3.415   1.365 -0.1027  0.0336  0.2747
 4513WAT     H218773   2.579   3.337   1.291 -0.1573  0.1731  0.0620
 4513WAT    EPW18774   2.565   3.400   1.335 -0.1882  0.2324 -0.0335
 4514WAT      O18775   4.173   6.095   1.254  0.4139  0.4533  0.1048
 4514WAT     H118776   4.123   6.046   1.201 -0.9519  1.1697  0.6607
 4514WAT     H218777   4.235   6.040   1.280 -0.9100 -0.9447  0.5114
 4514WAT    EPW18778   4.175   6.080   1.250  0.0166  0.3526  0.2470
 4515WAT      O18779   2.456   0.278   2.464  0.1546  0.4246 -0.9765
 4515WAT     H118780   2.426   0.345   2.512 -1.1927 -0.6530 -0.2276
 4515WAT     H218781   2.538   0.269   2.491 -0.4541  0.0784  0.9640
 4515WAT    EPW18782   2.464   0.287   2.475 -0.1344  0.2143 -0.5792
 4516WAT      O18783   6.131   5.002   3.322 -0.0165  0.5687  0.1123
 4516WAT     H118784   6.193   5.036   3.373 -0.4555 -1.4122  2.0768
 4516WAT     H218785   6.160   4.923   3.302  0.2128  1.2795 -3.0063
 4516WAT    EPW18786   6.144   4.996   3.326 -0.0475  0.3811 -0.0582
 4517WAT      O18787   1.352   3.033   1.496 -0.1827 -0.1441 -0.0370
 4517WAT     H118788   1.422   3.005   1.452 -1.1045 -1.5753 -0.6792
 4517WAT     H218789   1.371   3.015   1.579  1.0699  1.4680  0.0795
 4517WAT    EPW18790   1.365   3.026   1.502 -0.1338 -0.1174 -0.1147
 4518WAT      O18791   4.045   1.288   6.579 -0.1846  0.0523  0.1765
 4518WAT     H118792   4.010   1.247   6.648  0.6031 -1.1851 -0.1070
 4518WAT     H218793   4.067   1.222   6.525  0.7272  0.8802 -0.5143
 4518WAT    EPW18794   4.043   1.272   6.581  0.0665 -0.0082  0.0326
 4519WAT      O18795   5.563   5.948   6.112 -0.6566  0.4219  0.1652
 4519WAT     H118796   5.484   5.910   6.111  0.0134 -1.1012 -2.0955
 4519WAT     H218797   5.611   5.892   6.159 -0.7824  1.1674  1.2288
 4519WAT    EPW18798   5.558   5.934   6.119 -0.5762  0.3070 -0.0116
 4520WAT      O18799   3.809   4.766   7.321 -0.4639  0.5813 -0.1657
 4520WAT     H118800   3.891   4.776   7.292 -1.2085  0.3366 -2.5613
 4520WAT     H218801   3.795   4.680   7.314 -0.3744  0.3095  2.0664
 4520WAT    EPW18802   3.819   4.755   7.316 -0.5607  0.5050 -0.1898
 4521WAT      O18803   6.732   4.744   2.424 -0.0965  0.1512  0.0712
 4521WAT     H118804   6.654   4.767   2.392  0.0542  0.7128  0.0996
 4521WAT     H218805   6.764   4.690   2.363 -0.5974 -0.2622  0.1632
 4521WAT    EPW18806   6.725   4.739   2.410 -0.1482  0.1731  0.0890
 4522WAT      O18807   0.655   3.893   2.630 -0.1204 -0.0757 -1.2780
 4522WAT     H118808   0.670   3.867   2.548  0.9523 -0.6889 -0.9060
 4522WAT     H218809   0.674   3.823   2.678 -3.1604 -0.5860 -0.6015
 4522WAT    EPW18810   0.660   3.879   2.625 -0.4110 -0.2417 -1.1231
 4523WAT      O18811   2.970   5.813   1.943  0.1661 -0.2024 -0.0201
 4523WAT     H118812   3.037   5.831   1.996  0.7453 -2.8371  0.2839
 4523WAT     H218813   2.909   5.782   1.997 -0.1312 -0.7030 -0.6301
 4523WAT    EPW18814   2.971   5.811   1.959  0.2078 -0.6655 -0.0653
 4524WAT      O18815   4.572   0.221   2.941 -0.4460  0.0282 -0.4444
 4524WAT     H118816   4.624   0.201   2.873 -0.1199 -1.1881  0.1235
 4524WAT     H218817   4.608   0.293   2.974 -0.2009  0.2417 -1.1530
 4524WAT    EPW18818   4.585   0.229   2.936 -0.3616 -0.1200 -0.4652
 4525WAT      O18819   4.568   4.641   3.825 -0.1250 -0.7225  0.0691
 4525WAT     H118820   4.553   4.603   3.748  0.6263 -0.8490 -0.0262
 4525WAT     H218821   4.522   4.593   3.882  0.7206 -1.7210 -0.0612
 4525WAT    EPW18822   4.559   4.629   3.822  0.1109 -0.8887  0.0358
 4526WAT      O18823   4.390   4.081   7.276  0.1904  0.2035 -0.6684
 4526WAT     H118824   4.384   4.167   7.287  0.5155  0.0431  0.8539
 4526WAT     H218825   4.339   4.066   7.207 -2.6134  1.1977  1.0381
 4526WAT    EPW18826   4.382   4.091   7.267 -0.1758  0.3267 -0.1914
 4527WAT      O18827   2.413   1.041   2.064 -0.7680  0.2008  0.3386
 4527WAT     H118828   2.493   1.041   2.097 -0.6412  1.0205  0.0468
 4527WAT     H218829   2.364   1.007   2.128 -0.2287 -0.0931  0.5992
 4527WAT    EPW18830   2.418   1.036   2.078 -0.6696  0.2784  0.3340
 4528WAT      O18831   6.455   0.491   5.053 -0.7101 -0.3853 -0.6387
 4528WAT     H118832   6.517   0.431   5.038  1.1573  1.0836  0.8010
 4528WAT     H218833   6.400   0.449   5.106  0.1194 -1.1189 -0.3168
 4528WAT    EPW18834   6.456   0.476   5.059 -0.3117 -0.2767 -0.3784
 4529WAT      O18835   3.690   3.297   4.823  0.2128  0.4263 -0.1245
 4529WAT     H118836   3.721   3.231   4.872 -1.0820 -0.8511 -0.9526
 4529WAT     H218837   3.667   3.357   4.882  0.4885 -0.2693  0.7255
 4529WAT    EPW18838   3.692   3.296   4.839  0.0622  0.1348 -0.1213
 4530WAT      O18839   1.945   1.015   0.883 -0.5328 -0.3222  0.0589
 4530WAT     H118840   2.023   1.028   0.919  0.1186 -0.6115 -1.1823
 4530WAT     H218841   1.899   1.084   0.909  0.0139 -0.3266  1.1006
 4530WAT    EPW18842   1.950   1.027   0.892 -0.3558 -0.3656  0.0294
 4531WAT      O18843   2.309   0.182   6.526 -0.4757 -0.3393 -0.4303
 4531WAT     H118844   2.338   0.263   6.507 -0.9987 -0.7262 -3.3801
 4531WAT     H218845   2.383   0.136   6.535 -0.1651  0.4784  1.6268
 4531WAT    EPW18846   2.324   0.187   6.524 -0.5071 -0.2757 -0.5622
 4532WAT      O18847   6.326   1.015   2.792  0.2533  0.0009 -0.0718
 4532WAT     H118848   6.259   0.975   2.753  1.1850 -1.5976 -0.1733
 4532WAT     H218849   6.290   1.081   2.834 -1.1285  0.3115 -1.6438
 4532WAT    EPW18850   6.311   1.019   2.792  0.1868 -0.1893 -0.3190
 4533WAT      O18851   1.395   4.009   4.930  0.4483 -0.1794 -0.4114
 4533WAT     H118852   1.334   3.976   4.876  1.1218 -0.8104 -0.7976
 4533WAT     H218853   1.452   4.046   4.876  1.2992 -1.1023 -0.1790
 4533WAT    EPW18854   1.394   4.009   4.914  0.6735 -0.4090 -0.4341
 4534WAT      O18855   6.587   6.384   0.986  0.5083 -0.3934 -0.0495
 4534WAT     H118856   6.655   6.346   0.946  0.4964  0.5826 -1.0540
 4534WAT     H218857   6.622   6.455   1.023  0.6540 -1.6103  2.3510
 4534WAT    EPW18858   6.603   6.389   0.986  0.5281 -0.4290  0.1567
 4535WAT      O18859   6.931   5.524   5.549 -0.4161  0.0358  0.3850
 4535WAT     H118860   6.863   5.539   5.496 -1.0484 -0.1348  1.1437
 4535WAT     H218861   6.935   5.596   5.598 -1.1119 -0.6321  1.4736
 4535WAT    EPW18862   6.921   5.537   5.548 -0.6123 -0.0881  0.6579
 4536WAT      O18863   2.693   5.065   7.056  0.3292  0.3538 -0.6193
 4536WAT     H118864   2.665   5.103   7.129 -1.5429 -1.0659 -0.5266
 4536WAT     H218865   2.779   5.080   7.056  0.0616  2.1875  0.7616
 4536WAT    EPW18866   2.701   5.073   7.067  0.0131  0.4149 -0.4017
 4537WAT      O18867   4.437   6.704   0.185 -0.6403 -0.2199 -0.1628
 4537WAT     H118868   4.496   6.704   0.249 -1.2797 -0.6243  0.4402
 4537WAT     H218869   4.456   6.633   0.139 -0.5910 -0.2948 -0.0274
 4537WAT    EPW18870   4.449   6.694   0.188 -0.7275 -0.2907 -0.0537
 4538WAT      O18871   5.384   3.909   2.563  0.2268 -0.3008 -0.4716
 4538WAT     H118872   5.471   3.895   2.562  0.3506  0.4129 -1.2765
 4538WAT     H218873   5.359   3.875   2.639  1.0661 -1.3736 -0.6356
 4538WAT    EPW18874   5.393   3.902   2.574  0.3691 -0.3539 -0.6147
 4539WAT      O18875   2.190   1.054   5.541  0.0802  0.5555 -0.2852
 4539WAT     H118876   2.203   1.091   5.620 -1.5001 -2.6136  1.6537
 4539WAT     H218877   2.147   1.116   5.497  0.2798  2.1709  1.6068
 4539WAT    EPW18878   2.186   1.069   5.546 -0.1238  0.3260  0.2807
 4540WAT      O18879   3.208   2.114   1.950  0.9011 -0.0188  0.1044
 4540WAT     H118880   3.260   2.141   2.015  1.5290 -0.8938 -0.0116
 4540WAT     H218881   3.196   2.029   1.968  2.3243 -0.6559 -1.7275
 4540WAT    EPW18882   3.214   2.106   1.962  1.2041 -0.2421 -0.1834
 4541WAT      O18883   0.385   2.347   2.454  0.1617 -0.1867  0.0072
 4541WAT     H118884   0.371   2.356   2.540  0.5501 -1.8803  0.2918
 4541WAT     H218885   0.308   2.367   2.418 -0.5767 -1.3047  0.9077
 4541WAT    EPW18886   0.372   2.351   2.462  0.1100 -0.6020  0.1822
 4542WAT      O18887   3.408   6.144   7.316  0.1727  0.3951  0.0790
 4542WAT     H118888   3.337   6.190   7.298  0.7510  0.6876 -1.7169
 4542WAT     H218889   3.472   6.188   7.275  0.9626 -1.1992 -0.5021
 4542WAT    EPW18890   3.407   6.157   7.307  0.3748  0.2028 -0.2721
 4543WAT      O18891   3.800   3.437   6.761 -0.2995  0.2352 -0.4214
 4543WAT     H118892   3.866   3.494   6.757 -0.5870  0.4787 -3.4498
 4543WAT     H218893   3.840   3.360   6.768  0.0935  0.5514  3.7568
 4543WAT    EPW18894   3.816   3.434   6.762 -0.2839  0.3179 -0.2516
 4544WAT      O18895   6.091   5.582   6.091  0.0676 -0.0272  0.5815
 4544WAT     H118896   6.112   5.667   6.085 -2.0691  0.4408 -2.3437
 4544WAT     H218897   6.167   5.542   6.077  1.0126  1.3759  1.3875
 4544WAT    EPW18898   6.105   5.589   6.088 -0.1084  0.2492  0.2685
 4545WAT      O18899   4.232   6.811   6.099  0.6285 -0.3856  0.4116
 4545WAT     H118900   4.318   6.823   6.090  0.6747 -1.4275 -0.7245
 4545WAT     H218901   4.213   6.752   6.038 -0.9004 -0.1790  0.6580
 4545WAT    EPW18902   4.242   6.804   6.089  0.4095 -0.5090  0.2802
 4546WAT      O18903   0.425   3.179   6.130  0.1456 -0.0544  0.3574
 4546WAT     H118904   0.409   3.250   6.178  0.3878  0.4311 -0.2729
 4546WAT     H218905   0.460   3.124   6.188 -0.4062  0.1879  0.9372
 4546WAT    EPW18906   0.428   3.181   6.146  0.0999  0.0531  0.3499
 4547WAT      O18907   4.881   0.851   3.035  0.4702  0.0087  0.0823
 4547WAT     H118908   4.937   0.861   3.101  2.8796 -0.0422 -1.7867
 4547WAT     H218909   4.899   0.770   3.006 -2.2978 -0.9697  0.7987
 4547WAT    EPW18910   4.892   0.840   3.040  0.4172 -0.1433 -0.0880
 4548WAT      O18911   2.970   0.169   6.913 -0.5601 -0.2991 -0.0040
 4548WAT     H118912   2.909   0.179   6.975 -1.7933  0.4155 -1.2950
 4548WAT     H218913   2.927   0.181   6.839  1.0327 -0.4329 -1.0011
 4548WAT    EPW18914   2.955   0.172   6.911 -0.5070 -0.2133 -0.3420
 4549WAT      O18915   6.445   2.352   3.474 -0.5115 -0.2086 -0.2029
 4549WAT     H118916   6.377   2.314   3.512 -1.0769 -0.4953 -1.4528
 4549WAT     H218917   6.411   2.424   3.438  0.0870  0.2623  0.1547
 4549WAT    EPW18918   6.430   2.357   3.474 -0.5066 -0.1814 -0.3347
 4550WAT      O18919   5.873   5.973   1.854  0.1141  0.6386 -0.0683
 4550WAT     H118920   5.848   6.055   1.840  1.2816  0.6811 -2.4215
 4550WAT     H218921   5.954   5.981   1.885  0.1341  0.3927 -0.0537
 4550WAT    EPW18922   5.881   5.986   1.856  0.2895  0.6086 -0.4137
 4551WAT      O18923   2.966   6.461   6.857 -0.4167  0.1895  0.2260
 4551WAT     H118924   3.008   6.515   6.803  0.1984  1.6551  2.0631
 4551WAT     H218925   3.025   6.443   6.918 -1.9656  1.1484  2.1084
 4551WAT    EPW18926   2.981   6.466   6.858 -0.5546  0.5477  0.7754
 4552WAT      O18927   1.829   4.022   1.970 -0.0273  0.0318 -0.0979
 4552WAT     H118928   1.757   4.033   1.923  1.0671 -1.2348 -2.2242
 4552WAT     H218929   1.800   3.986   2.044 -1.6004 -0.0597 -0.7282
 4552WAT    EPW18930   1.814   4.018   1.974 -0.0980 -0.1688 -0.5051
 4553WAT      O18931   7.020   6.907   3.159  0.2324 -0.5095  0.1143
 4553WAT     H118932   7.017   6.878   3.077 -0.7393 -1.5888  0.5122
 4553WAT     H218933   6.984   6.987   3.153 -0.8790 -1.0214 -0.3472
 4553WAT    EPW18934   7.014   6.915   3.146 -0.0753 -0.7446  0.1049
 4554WAT      O18935   5.251   3.802   4.882 -0.7405 -0.5609  0.0187
 4554WAT     H118936   5.243   3.716   4.896 -1.4556 -0.4328  0.4389
 4554WAT     H218937   5.336   3.813   4.869 -0.6770 -1.3688 -0.2530
 4554WAT    EPW18938   5.262   3.791   4.882 -0.8368 -0.6614  0.0406
 4555WAT      O18939   4.155   1.542   2.648  0.2364  0.4511  0.0628
 4555WAT     H118940   4.108   1.613   2.632 -1.8104 -0.5212  1.2768
 4555WAT     H218941   4.202   1.564   2.718 -0.3274  0.6420  0.3856
 4555WAT    EPW18942   4.155   1.556   2.656 -0.1492  0.3357  0.2898
 4556WAT      O18943   1.622   3.060   6.991  0.7028 -0.0799 -0.1563
 4556WAT     H118944   1.652   2.979   6.992  0.0324 -0.4986 -3.1255
 4556WAT     H218945   1.677   3.102   6.939  0.8232  1.3082  1.0313
 4556WAT    EPW18946   1.634   3.054   6.983  0.6215  0.0633 -0.4195
 4557WAT      O18947   2.435   0.178   5.351  0.0603  0.1538  0.2719
 4557WAT     H118948   2.438   0.124   5.419 -0.8170  0.3469  0.4691
 4557WAT     H218949   2.381   0.139   5.295 -1.0166  1.0674  0.6420
 4557WAT    EPW18950   2.428   0.164   5.353 -0.2284  0.3173  0.3557
 4558WAT      O18951   3.916   5.363   3.091  0.5817  0.2479  0.0740
 4558WAT     H118952   3.999   5.385   3.075  0.7632 -0.8979 -0.6327
 4558WAT     H218953   3.917   5.276   3.089 -0.3457  0.1810  1.6407
 4558WAT    EPW18954   3.928   5.354   3.088  0.4715  0.0687  0.2010
 4559WAT      O18955   2.461   4.364   7.317 -0.8469 -0.0511  0.1717
 4559WAT     H118956   2.526   4.417   7.340 -0.7206  0.1819 -0.6899
 4559WAT     H218957   2.463   4.302   7.378  0.1819 -0.0441  0.1657
 4559WAT    EPW18958   2.471   4.363   7.329 -0.6763 -0.0157  0.0435
 4560WAT      O18959   6.514   6.893   5.903  0.3840  0.0726 -1.0169
 4560WAT     H118960   6.575   6.849   5.858 -1.5147 -0.5773 -3.1577
 4560WAT     H218961   6.511   6.970   5.863 -2.8436 -1.2369 -3.7742
 4560WAT    EPW18962   6.523   6.898   5.890 -0.3733 -0.2168 -1.7405
 4561WAT      O18963   4.751   2.345   5.184 -0.3602  0.0516  0.3529
 4561WAT     H118964   4.772   2.374   5.263 -0.0071  0.1720  0.2167
 4561WAT     H218965   4.772   2.261   5.187  1.4090  0.4277 -0.1978
 4561WAT    EPW18966   4.757   2.337   5.196 -0.0467  0.1250  0.2514
 4562WAT      O18967   5.899   7.063   3.384  0.0176  0.1127 -0.1703
 4562WAT     H118968   5.862   7.077   3.462 -0.1192 -0.9019 -0.0326
 4562WAT     H218969   5.983   7.078   3.398 -0.0880  0.5191  0.0242
 4562WAT    EPW18970   5.906   7.067   3.397 -0.0182  0.0229 -0.1213
 4563WAT      O18971   4.315   7.061   5.828  0.0456  0.1510 -0.6526
 4563WAT     H118972   4.246   7.071   5.775 -0.7628  0.3753  0.3948
 4563WAT     H218973   4.304   7.125   5.887  1.6211  0.7200 -0.9507
 4563WAT    EPW18974   4.303   7.072   5.829  0.1589  0.2682 -0.5419
 4564WAT      O18975   6.253   5.315   4.821  0.0512 -0.1869 -0.3000
 4564WAT     H118976   6.192   5.306   4.759  0.0333 -1.6342 -0.1201
 4564WAT     H218977   6.327   5.294   4.779  0.3658  1.0415 -0.3836
 4564WAT    EPW18978   6.255   5.310   4.806  0.0950 -0.2192 -0.2858
 4565WAT      O18979   1.992   2.191   0.387  0.2566 -0.2792 -0.6022
 4565WAT     H118980   1.925   2.228   0.427  2.3511  2.2941  0.8608
 4565WAT     H218981   2.007   2.119   0.434 -1.5298 -1.0207 -1.1029
 4565WAT    EPW18982   1.984   2.186   0.400  0.3021 -0.0086 -0.4601
 4566WAT      O18983   7.158   4.039   0.233  0.6743  0.0369 -0.2410
 4566WAT     H118984   7.092   4.013   0.183  0.3889 -0.5435  0.4136
 4566WAT     H218985   7.216   4.071   0.177 -1.2194  3.0977 -0.7267
 4566WAT    EPW18986   7.157   4.040   0.217  0.3524  0.4033 -0.2160
 4567WAT      O18987   2.100   0.833   5.119  0.6705  0.2814 -0.3368
 4567WAT     H118988   2.087   0.899   5.064 -0.3098  0.9544  0.6562
 4567WAT     H218989   2.186   0.824   5.121  0.7330  0.0709 -2.1401
 4567WAT    EPW18990   2.111   0.841   5.111  0.5349  0.3497 -0.4565
 4568WAT      O18991   2.666   6.779   3.402  0.3474  0.1637  0.5901
 4568WAT     H118992   2.621   6.714   3.439 -0.7516 -0.1468 -1.1849
 4568WAT     H218993   2.711   6.813   3.469 -1.5006 -0.3642  2.1966
 4568WAT    EPW18994   2.666   6.775   3.418 -0.0879  0.0398  0.5652
 4569WAT      O18995   6.003   3.313   2.967  0.4856  0.1701 -0.1068
 4569WAT     H118996   5.986   3.398   2.963  1.2901  0.3580  0.2632
 4569WAT     H218997   6.057   3.305   3.035  0.1889 -0.6791  0.0467
 4569WAT    EPW18998   6.009   3.324   2.976  0.5606  0.0724 -0.0295
 4570WAT      O18999   2.897   0.425   0.671  0.1202 -0.0261  0.2837
 4570WAT     H119000   2.896   0.370   0.602 -0.1769 -3.3384  2.6687
 4570WAT     H219001   2.964   0.396   0.719 -0.7480  0.9853  2.2096
 4570WAT    EPW19002   2.906   0.412   0.668 -0.0519 -0.3660  0.9205
 4571WAT      O19003   5.974   2.900   3.519  0.1393  0.4642 -0.3093
 4571WAT     H119004   5.966   2.933   3.438  1.6279  0.8489 -0.3420
 4571WAT     H219005   5.896   2.914   3.555 -0.6771 -0.0123 -1.7775
 4571WAT    EPW19006   5.961   2.907   3.512  0.2386  0.4507 -0.5310
 4572WAT      O19007   1.447   7.098   6.470  0.5408  0.6188 -0.3645
 4572WAT     H119008   1.496   7.026   6.468 -2.1051 -1.4331  1.3080
 4572WAT     H219009   1.447   7.120   6.555 -2.7331 -0.6020  0.0904
 4572WAT    EPW19010   1.455   7.091   6.482 -0.3337  0.1353 -0.0502
 4573WAT      O19011   4.080   6.205   5.467 -0.0751  0.1097  0.0906
 4573WAT     H119012   4.152   6.214   5.419 -0.6038 -0.9147 -0.9316
 4573WAT     H219013   4.017   6.238   5.416 -0.6556 -1.0819  0.0025
 4573WAT    EPW19014   4.082   6.212   5.452 -0.2390 -0.2177 -0.0734
 4574WAT      O19015   5.081   2.299   3.570  0.8065  0.3207 -0.0813
 4574WAT     H119016   5.049   2.342   3.639 -0.3416 -1.9944  0.9355
 4574WAT     H219017   5.023   2.236   3.555  2.5332 -1.1163 -1.2492
 4574WAT    EPW19018   5.068   2.296   3.578  0.8920 -0.2335 -0.1036
 4575WAT      O19019   1.706   0.273   5.663 -0.3768 -0.0477  0.0265
 4575WAT     H119020   1.747   0.254   5.588  2.1182  0.7218  1.0955
 4575WAT     H219021   1.748   0.345   5.691 -0.6027 -0.8275  2.6036
 4575WAT    EPW19022   1.718   0.281   5.656 -0.0416 -0.0492  0.5651
 4576WAT      O19023   4.026   1.738   7.060  0.3054 -0.3681 -0.4107
 4576WAT     H119024   3.988   1.799   7.011  0.8646  0.1357 -0.2303
 4576WAT     H219025   4.105   1.728   7.022  0.2765 -0.8648 -0.3440
 4576WAT    EPW19026   4.032   1.746   7.047  0.3838 -0.3670 -0.3742
 4577WAT      O19027   0.378   5.840   1.005 -0.8840 -0.4896  0.1636
 4577WAT     H119028   0.398   5.769   0.959 -1.2070 -0.8794  0.6086
 4577WAT     H219029   0.442   5.845   1.064  0.8166  1.3189 -1.6952
 4577WAT    EPW19030   0.390   5.830   1.007 -0.6805 -0.2800 -0.0452
 4578WAT      O19031   6.995   6.746   0.154 -0.1737 -0.8944  1.1172
 4578WAT     H119032   6.957   6.686   0.205 -1.4846 -1.5244 -0.4969
 4578WAT     H219033   6.974   6.720   0.073 -0.8850  1.7839  0.3494
 4578WAT    EPW19034   6.986   6.733   0.149 -0.4724 -0.5918  0.7654
 4579WAT      O19035   7.054   6.091   6.122  0.3218  0.6347  0.2824
 4579WAT     H119036   7.040   6.039   6.053 -1.0840  2.9787 -1.3377
 4579WAT     H219037   7.116   6.049   6.167  2.1755 -0.5148 -2.9927
 4579WAT    EPW19038   7.061   6.077   6.118  0.3879  0.8111 -0.4408
 4580WAT      O19039   0.301   7.174   3.626 -0.0013  0.1285  0.9075
 4580WAT     H119040   0.285   7.216   3.552 -1.1075 -0.6241  0.7074
 4580WAT     H219041   0.269   7.228   3.687  1.4880  1.0532  0.9333
 4580WAT    EPW19042   0.294   7.188   3.624  0.0553  0.1539  0.8818
 4581WAT      O19043   1.994   5.526   3.099  0.9486 -0.5893 -0.1106
 4581WAT     H119044   1.962   5.591   3.147 -1.2315 -0.9791 -0.9411
 4581WAT     H219045   1.972   5.454   3.144  0.4259 -0.8747 -0.8076
 4581WAT    EPW19046   1.986   5.525   3.113  0.5493 -0.6890 -0.3362
 4582WAT      O19047   4.368   4.176   3.508  0.2165 -0.0835  0.0930
 4582WAT     H119048   4.413   4.110   3.475 -1.0974 -0.5368 -0.8838
 4582WAT     H219049   4.285   4.149   3.503 -0.3442  1.5699 -0.2036
 4582WAT    EPW19050   4.362   4.163   3.502 -0.0604  0.0938 -0.0951
 4583WAT      O19051   2.274   2.806   2.371 -0.6908 -0.4947  0.3794
 4583WAT     H119052   2.241   2.830   2.448 -1.2590  0.3639 -0.1181
 4583WAT     H219053   2.306   2.726   2.387  0.4619  0.2172  1.8396
 4583WAT    EPW19054   2.274   2.798   2.385 -0.6045 -0.2627  0.5216
 4584WAT      O19055   5.550   0.018   4.727 -0.3003 -0.3188 -0.8948
 4584WAT     H119056   5.472   0.055   4.733  0.3118  0.8771  0.2965
 4584WAT     H219057   5.584   0.052   4.654 -0.8456 -0.8221 -1.4003
 4584WAT    EPW19058   5.544   0.028   4.717 -0.2904 -0.2165 -0.7935
 4585WAT      O19059   0.812   0.400   4.893 -0.0975  0.5318 -0.2429
 4585WAT     H119060   0.738   0.445   4.898 -0.6643 -0.3656 -0.2912
 4585WAT     H219061   0.786   0.317   4.900  0.8964  0.1992 -0.3250
 4585WAT    EPW19062   0.797   0.394   4.894 -0.0344  0.3501 -0.2622
 4586WAT      O19063   3.194   2.485   6.494  0.4715  0.4147  0.2589
 4586WAT     H119064   3.211   2.494   6.579  0.3687  0.8231  0.2390
 4586WAT     H219065   3.271   2.499   6.456  0.3104  1.2886  0.2269
 4586WAT    EPW19066   3.208   2.489   6.501  0.4325  0.6041  0.2512
 4587WAT      O19067   1.022   1.927   4.208 -0.0015  0.0620  0.3118
 4587WAT     H119068   0.960   1.866   4.197 -0.5507  0.5800  0.4671
 4587WAT     H219069   1.090   1.895   4.165 -0.3074 -0.6273  0.3230
 4587WAT    EPW19070   1.023   1.913   4.200 -0.1279  0.0367  0.3364
 4588WAT      O19071   6.203   0.569   0.950  0.3128  0.0985  0.1818
 4588WAT     H119072   6.169   0.621   1.011 -1.2003 -0.0267 -0.5223
 4588WAT     H219073   6.154   0.498   0.954 -0.1842  0.3102 -1.5548
 4588WAT    EPW19074   6.191   0.567   0.960  0.0159  0.1113 -0.1787
 4589WAT      O19075   6.194   4.567   0.118  0.1011 -1.0128 -0.1937
 4589WAT     H119076   6.261   4.581   0.171  1.2206  1.7502 -2.0825
 4589WAT     H219077   6.194   4.480   0.107  1.3423 -1.4048  2.2630
 4589WAT    EPW19078   6.204   4.556   0.124  0.4498 -0.6625 -0.1098
 4590WAT      O19079   0.924   2.555   0.431 -0.0572 -0.3068 -0.3848
 4590WAT     H119080   0.925   2.520   0.351 -1.4844 -1.0512 -0.1216
 4590WAT     H219081   0.839   2.553   0.452  0.4361 -1.5719  1.7681
 4590WAT    EPW19082   0.911   2.550   0.422 -0.1952 -0.6036 -0.0279
 4591WAT      O19083   5.950   6.733   1.533  0.1338 -0.1143 -0.3562
 4591WAT     H119084   6.031   6.713   1.508 -0.2524  0.0810 -1.8264
 4591WAT     H219085   5.903   6.727   1.459 -1.3505 -1.0185  0.5955
 4591WAT    EPW19086   5.955   6.729   1.518 -0.1425 -0.2190 -0.4328
 4592WAT      O19087   3.360   6.817   3.744 -0.1814  0.1597  0.2360
 4592WAT     H119088   3.379   6.870   3.677  0.0100 -0.7006 -0.4106
 4592WAT     H219089   3.355   6.738   3.707  0.0403 -0.3518  1.2497
 4592WAT    EPW19090   3.362   6.813   3.729 -0.1204 -0.0430  0.2902
 4593WAT      O19091   0.764   1.669   1.553  0.0171  0.4893 -0.4019
 4593WAT     H119092   0.701   1.653   1.495  0.2624  0.8827 -0.7832
 4593WAT     H219093   0.837   1.668   1.506  0.2755  0.2563 -0.0003
 4593WAT    EPW19094   0.765   1.667   1.538  0.0915  0.5130 -0.3989
 4594WAT      O19095   1.061   2.190   5.526 -0.5824 -0.2918 -0.3883
 4594WAT     H119096   1.073   2.140   5.597 -0.7512 -1.0620 -0.8953
 4594WAT     H219097   1.141   2.224   5.512 -0.6359  0.1898  0.3948
 4594WAT    EPW19098   1.075   2.188   5.535 -0.6153 -0.3345 -0.3475
 4595WAT      O19099   6.525   1.284   7.353  0.0798  0.5322  0.6814
 4595WAT     H119100   6.468   1.261   7.291  0.2597  0.3104  0.5986
 4595WAT     H219101   6.503   1.233   7.421  0.4285  0.1746  0.5237
 4595WAT    EPW19102   6.513   1.273   7.354  0.1579  0.4466  0.6459
 4596WAT      O19103   5.283   1.687   2.424 -0.3017 -0.1832  0.2826
 4596WAT     H119104   5.350   1.730   2.459 -1.1811 -0.7365  2.7998
 4596WAT     H219105   5.217   1.743   2.432 -0.3379  0.1596 -1.7305
 4596WAT    EPW19106   5.283   1.702   2.430 -0.4370 -0.2143  0.3571
 4597WAT      O19107   6.942   2.912   1.695 -0.6320  0.4907  0.3080
 4597WAT     H119108   6.876   2.864   1.664  0.5019 -0.6262 -0.4400
 4597WAT     H219109   6.956   2.971   1.631  1.7608 -1.8633 -1.5570
 4597WAT    EPW19110   6.934   2.914   1.681 -0.1110 -0.0220 -0.0780
 4598WAT      O19111   1.347   1.921   6.978  0.1743 -0.5511 -0.1015
 4598WAT     H119112   1.396   1.919   7.050  1.0375 -1.2282 -0.6831
 4598WAT     H219113   1.318   2.003   6.975  1.1799 -0.1675  0.3291
 4598WAT    EPW19114   1.350   1.933   6.988  0.4504 -0.5944 -0.1238
 4599WAT      O19115   5.497   2.278   6.961  0.5817  0.1642 -0.5514
 4599WAT     H119116   5.494   2.336   6.897  0.5772 -1.7363 -2.3728
 4599WAT     H219117   5.501   2.201   6.920  0.0401 -1.1961  1.7193
 4599WAT    EPW19118   5.497   2.275   6.946  0.5010 -0.3175 -0.4850
 4600WAT      O19119   6.033   0.444   5.124 -0.1020  0.1174 -0.5288
 4600WAT     H119120   6.012   0.434   5.208  0.0191  0.3850 -0.4645
 4600WAT     H219121   6.119   0.428   5.122 -0.1822 -0.3077 -0.6752
 4600WAT    EPW19122   6.043   0.440   5.136 -0.0960  0.0941 -0.5410
 4601WAT      O19123   3.323   5.992   2.909  0.5655  1.0862 -0.1362
 4601WAT     H119124   3.397   5.948   2.896 -0.2100 -0.0949 -0.7656
 4601WAT     H219125   3.299   6.015   2.828 -0.3621  0.4155 -0.0622
 4601WAT    EPW19126   3.330   5.989   2.895  0.3139  0.8127 -0.2183
 4602WAT      O19127   5.363   5.190   2.087  0.6601  0.1488 -0.0549
 4602WAT     H119128   5.361   5.185   2.000  1.8162  1.5993 -0.2081
 4602WAT     H219129   5.418   5.126   2.110  1.2304  0.4794 -0.4865
 4602WAT    EPW19130   5.371   5.180   2.078  0.9151  0.4119 -0.1413
 4603WAT      O19131   5.809   4.331   5.430  0.0716 -0.4557 -0.1258
 4603WAT     H119132   5.836   4.323   5.513 -0.9405  1.8707  0.5061
 4603WAT     H219133   5.726   4.306   5.433  0.3245 -1.4203 -0.7119
 4603WAT    EPW19134   5.801   4.326   5.443 -0.0405 -0.2545 -0.1190
 4604WAT      O19135   4.677   2.046   0.862 -0.0775  0.8369 -0.8182
 4604WAT     H119136   4.664   2.010   0.784  0.4146 -0.0548 -0.5033
 4604WAT     H219137   4.679   2.132   0.845  0.1667  0.6481 -1.7971
 4604WAT    EPW19138   4.675   2.054   0.848  0.0313  0.6773 -0.9163
 4605WAT      O19139   4.039   4.369   4.821  0.3282 -0.1344 -0.4003
 4605WAT     H119140   3.983   4.398   4.882  2.7425  0.5088  1.7068
 4605WAT     H219141   4.071   4.442   4.786  1.9417 -0.3376  0.5499
 4605WAT    EPW19142   4.036   4.384   4.825  0.9232 -0.0694  0.0513
 4606WAT      O19143   0.806   4.770   6.027 -0.1760 -0.1043  0.0923
 4606WAT     H119144   0.822   4.856   6.027  0.0629 -0.1384  1.1904
 4606WAT     H219145   0.812   4.748   6.111 -0.0738 -1.2356 -0.2008
 4606WAT    EPW19146   0.809   4.780   6.039 -0.1256 -0.2765  0.2112
 4607WAT      O19147   3.316   2.019   4.018  0.2310 -0.1562 -0.2793
 4607WAT     H119148   3.378   2.070   3.985 -0.1704  0.3287 -0.2977
 4607WAT     H219149   3.347   2.000   4.098  1.2786 -1.4760 -0.9682
 4607WAT    EPW19150   3.330   2.024   4.025  0.3264 -0.2795 -0.3838
 4608WAT      O19151   1.570   6.952   0.476  0.5225  0.2016 -0.6300
 4608WAT     H119152   1.617   6.881   0.496  1.2242  0.7353 -0.3514
 4608WAT     H219153   1.613   6.986   0.408  2.3223  2.3054  1.3832
 4608WAT    EPW19154   1.584   6.947   0.469  0.8920  0.5912 -0.2914
 4609WAT      O19155   4.498   0.504   4.237 -0.2728 -0.4411 -0.1765
 4609WAT     H119156   4.492   0.551   4.164 -1.0961 -0.6496 -0.2598
 4609WAT     H219157   4.583   0.491   4.247 -0.1215 -0.0073 -0.8412
 4609WAT    EPW19158   4.509   0.509   4.228 -0.3721 -0.4078 -0.2870
 4610WAT      O19159   2.163   0.095   6.756  0.7993  0.2419  0.0202
 4610WAT     H119160   2.206   0.153   6.708 -1.0836  2.1798  0.4655
 4610WAT     H219161   2.123   0.145   6.816 -0.3075 -1.6115  0.9205
 4610WAT    EPW19162   2.163   0.111   6.758  0.3577  0.2544  0.2190
 4611WAT      O19163   1.994   2.635   6.084 -0.1075 -0.7706 -0.5077
 4611WAT     H119164   2.018   2.671   6.008 -0.3171 -2.3677 -1.3824
 4611WAT     H219165   2.024   2.553   6.078 -0.9061 -1.1846  0.7664
 4611WAT    EPW19166   2.002   2.628   6.072 -0.2565 -1.0677 -0.4487
 4612WAT      O19167   3.003   6.329   5.891 -0.0525  0.2632  0.3976
 4612WAT     H119168   3.033   6.410   5.884  1.1508 -0.2280 -0.5622
 4612WAT     H219169   3.067   6.286   5.932 -1.3625  0.1110  2.3924
 4612WAT    EPW19170   3.017   6.334   5.896 -0.0682  0.1682  0.5505
 4613WAT      O19171   4.564   0.930   0.617  0.3043 -0.2180 -0.3929
 4613WAT     H119172   4.589   0.989   0.676  0.1929 -1.8911  1.4387
 4613WAT     H219173   4.491   0.965   0.584  0.3207  0.7520  0.5166
 4613WAT    EPW19174   4.557   0.944   0.621  0.2902 -0.3219  0.0120
 4614WAT      O19175   2.987   5.344   3.055  0.3169  0.3829  0.5508
 4614WAT     H119176   2.932   5.408   3.035 -0.7729 -0.2591  1.3135
 4614WAT     H219177   2.994   5.349   3.142  0.7102 -0.1404  0.5593
 4614WAT    EPW19178   2.980   5.354   3.065  0.2140  0.2108  0.6647
 4615WAT      O19179   6.763   2.130   4.022  0.3500 -0.2397 -0.7353
 4615WAT     H119180   6.837   2.135   4.069  0.7464 -0.5847 -1.3038
 4615WAT     H219181   6.700   2.141   4.081  0.8652  2.1736 -0.5036
 4615WAT    EPW19182   6.765   2.133   4.038  0.4847  0.0658 -0.7850
 4616WAT      O19183   3.417   7.008   5.934  0.4630  0.3295 -0.4502
 4616WAT     H119184   3.412   6.959   6.006  1.0556  0.0490 -0.5929
 4616WAT     H219185   3.382   6.958   5.873  0.5070  0.3303 -0.4758
 4616WAT    EPW19186   3.411   6.994   5.936  0.5570  0.2882 -0.4751
 4617WAT      O19187   1.111   1.409   1.860  0.1618  0.1891 -0.0920
 4617WAT     H119188   1.120   1.324   1.842  0.9456 -0.2636  2.1478
 4617WAT     H219189   1.113   1.447   1.782 -0.1523 -1.8444 -1.1408
 4617WAT    EPW19190   1.113   1.402   1.846  0.2312 -0.1782  0.0840
 4618WAT      O19191   6.434   5.209   2.968  0.6644 -0.3583 -0.0926
 4618WAT     H119192   6.361   5.254   2.985  0.1826 -1.2242  0.2570
 4618WAT     H219193   6.456   5.176   3.046  2.7641  1.7284  0.2865
 4618WAT    EPW19194   6.426   5.211   2.982  0.9034 -0.1780  0.0151
 4619WAT      O19195   6.659   3.950   7.299  0.1098  0.5216  0.0909
 4619WAT     H119196   6.714   3.902   7.251  1.0107  0.2466  1.3457
 4619WAT     H219197   6.617   3.890   7.347  0.0380  0.8644  0.4608
 4619WAT    EPW19198   6.661   3.934   7.299  0.2322  0.5316  0.3309
 4620WAT      O19199   6.698   3.833   5.625  0.3964  0.3864  0.0406
 4620WAT     H119200   6.705   3.762   5.574  0.3636 -0.6380  1.4057
 4620WAT     H219201   6.752   3.890   5.587  0.8670 -0.5581 -0.7797
 4620WAT    EPW19202   6.707   3.831   5.612  0.4611  0.0955  0.1211
 4621WAT      O19203   0.335   5.086   0.509 -0.3294  0.3176  0.0581
 4621WAT     H119204   0.384   5.087   0.437 -1.0160  0.4215 -0.4169
 4621WAT     H219205   0.392   5.070   0.573  0.4753  1.4722 -0.3520
 4621WAT    EPW19206   0.350   5.084   0.508 -0.3120  0.5035 -0.0726
 4622WAT      O19207   3.289   6.659   5.905 -0.1812 -0.6326  0.1316
 4622WAT     H119208   3.310   6.708   5.835  0.4701  1.1385  1.4728
 4622WAT     H219209   3.349   6.596   5.905  0.0719 -0.4024 -0.6970
 4622WAT    EPW19210   3.301   6.657   5.895 -0.0476 -0.3369  0.2073
 4623WAT      O19211   1.286   3.586   1.313 -0.0365 -0.0792 -0.0564
 4623WAT     H119212   1.204   3.595   1.340 -0.2465 -0.6185 -0.4915
 4623WAT     H219213   1.277   3.562   1.229  0.5664 -0.0130 -0.1437
 4623WAT    EPW19214   1.272   3.583   1.304  0.0215 -0.1491 -0.1336
 4624WAT      O19215   5.571   1.880   1.052  0.0779 -0.3084 -0.2539
 4624WAT     H119216   5.588   1.913   1.131 -2.6979 -0.2041  0.4045
 4624WAT     H219217   5.599   1.943   0.997  0.9384  0.1410  0.6652
 4624WAT    EPW19218   5.578   1.894   1.055 -0.2050 -0.2266 -0.0209
 4625WAT      O19219   1.637   2.320   3.009 -0.5900 -0.3175 -0.0386
 4625WAT     H119220   1.685   2.367   2.953  0.1761 -1.0600 -0.0256
 4625WAT     H219221   1.681   2.327   3.084  0.2407 -2.0607 -0.3253
 4625WAT    EPW19222   1.651   2.328   3.012 -0.3541 -0.6847 -0.0791
 4626WAT      O19223   2.231   4.779   0.209 -0.5875  0.3718 -0.3744
 4626WAT     H119224   2.225   4.791   0.123 -3.4893 -2.8304 -0.8225
 4626WAT     H219225   2.296   4.722   0.218 -0.3031  0.6850 -0.4091
 4626WAT    EPW19226   2.239   4.773   0.198 -0.9741 -0.0550 -0.4457
 4627WAT      O19227   3.559   6.834   4.592  0.3903  0.8668 -0.8757
 4627WAT     H119228   3.475   6.843   4.611  0.2414 -0.2682 -0.9269
 4627WAT     H219229   3.599   6.863   4.664 -0.1056 -0.4327 -0.0350
 4627WAT    EPW19230   3.553   6.840   4.605  0.2950  0.5072 -0.7591
 4628WAT      O19231   7.276   7.029   4.779 -0.1431  0.6482 -0.0420
 4628WAT     H119232   7.235   7.103   4.758 -1.6053 -0.0020  0.4054
 4628WAT     H219233   7.267   7.026   4.866  0.1345  0.0727 -0.0326
 4628WAT    EPW19234   7.269   7.039   4.789 -0.3181  0.4671  0.0255
 4629WAT      O19235   7.005   1.158   1.464 -0.6277 -0.0244 -0.1536
 4629WAT     H119236   6.936   1.212   1.472 -0.3200  0.4810 -0.7978
 4629WAT     H219237   7.002   1.110   1.537 -0.3998  1.4706  0.8964
 4629WAT    EPW19238   6.994   1.159   1.476 -0.5486  0.2711 -0.0937
 4630WAT      O19239   6.045   3.251   2.618  0.0831 -0.1494 -0.1693
 4630WAT     H119240   5.989   3.250   2.685 -1.1889  0.0600 -1.1862
 4630WAT     H219241   6.051   3.335   2.597  0.7431 -0.1795 -0.0997
 4630WAT    EPW19242   6.037   3.263   2.625 -0.0073 -0.1230 -0.3092
 4631WAT      O19243   0.873   0.419   1.589  0.5079 -0.1054  0.1109
 4631WAT     H119244   0.918   0.373   1.647  1.1638 -0.7109 -0.8525
 4631WAT     H219245   0.791   0.389   1.597  0.8253 -1.0691 -0.1179
 4631WAT    EPW19246   0.867   0.408   1.599  0.6517 -0.3372 -0.0652
 4632WAT      O19247   3.936   6.512   3.095  0.3323  0.2695  0.0740
 4632WAT     H119248   4.012   6.538   3.061  0.7885 -0.2782  0.6513
 4632WAT     H219249   3.956   6.437   3.135 -0.9434 -1.0413 -1.5743
 4632WAT    EPW19250   3.950   6.505   3.096  0.2112 -0.0050 -0.0842
 4633WAT      O19251   3.784   0.766   4.253 -0.0527 -0.0421 -0.3493
 4633WAT     H119252   3.777   0.826   4.190  0.5487  0.4401  0.0431
 4633WAT     H219253   3.782   0.690   4.209 -0.5686  0.2582 -0.8653
 4633WAT    EPW19254   3.782   0.764   4.237 -0.0401  0.0735 -0.3676
 4634WAT      O19255   1.564   2.611   2.681  0.0790  0.0989  0.0193
 4634WAT     H119256   1.588   2.572   2.756 -0.8785  2.0888  1.4806
 4634WAT     H219257   1.546   2.693   2.707  0.5047  1.0866 -2.5654
 4634WAT    EPW19258   1.565   2.618   2.696  0.0005  0.5388 -0.1467
 4635WAT      O19259   0.026   4.108   7.102 -0.4872 -0.2300  0.5737
 4635WAT     H119260  -0.012   4.116   7.024 -2.4111 -0.2045  1.4664
 4635WAT     H219261  -0.038   4.077   7.153  0.9649 -1.1174  1.9520
 4635WAT    EPW19262   0.011   4.104   7.098 -0.5569 -0.3573  0.9091
 4636WAT      O19263   0.812   5.058   2.720 -0.4018 -0.1212  0.0499
 4636WAT     H119264   0.762   5.022   2.659  0.3357 -0.3571 -0.4359
 4636WAT     H219265   0.805   5.144   2.705 -1.5804 -0.0782  0.7438
 4636WAT    EPW19266   0.804   5.065   2.709 -0.4670 -0.1497  0.0806
 4637WAT      O19267   5.753   2.623   3.815 -0.2455  0.5763  1.1622
 4637WAT     H119268   5.815   2.566   3.793 -1.5824 -0.7144  0.5385
 4637WAT     H219269   5.683   2.573   3.829 -1.4386  2.0500  0.7398
 4637WAT    EPW19270   5.752   2.607   3.814 -0.6192  0.6033  1.0077
 4638WAT      O19271   2.373   5.535   6.968  0.1146 -0.5042  0.3667
 4638WAT     H119272   2.347   5.491   7.039 -0.1713  0.1322  0.6647
 4638WAT     H219273   2.373   5.475   6.905 -1.1929 -0.7396  0.5543
 4638WAT    EPW19274   2.369   5.520   6.969 -0.1208 -0.4450  0.4385
 4639WAT      O19275   5.648   6.622   3.686  0.6361 -0.5126  0.3774
 4639WAT     H119276   5.714   6.663   3.726  0.3653  0.4914 -0.1796
 4639WAT     H219277   5.657   6.645   3.602 -0.0736 -0.8458  0.2019
 4639WAT    EPW19278   5.659   6.632   3.680  0.4912 -0.4135  0.2692
 4640WAT      O19279   0.159   1.371   6.937 -0.1163 -0.1157 -0.1647
 4640WAT     H119280   0.191   1.448   6.962 -1.2565  0.7070 -1.0858
 4640WAT     H219281   0.145   1.329   7.012  0.2738  0.6848  0.3693
 4640WAT    EPW19282   0.162   1.376   6.952 -0.2271  0.1241 -0.2219
 4641WAT      O19283   4.449   4.878   3.851 -0.1291 -0.2130 -0.1835
 4641WAT     H119284   4.475   4.795   3.844 -0.6869 -0.3272 -1.1929
 4641WAT     H219285   4.401   4.879   3.924 -1.7287 -1.2665 -1.1508
 4641WAT    EPW19286   4.446   4.866   3.860 -0.4478 -0.3855 -0.4755
 4642WAT      O19287   1.005   3.363   4.922 -0.3814  0.4548 -0.3242
 4642WAT     H119288   1.039   3.404   4.991 -0.9609 -0.2086  0.3652
 4642WAT     H219289   0.923   3.346   4.946  0.1058 -2.0453 -0.1500
 4642WAT    EPW19290   0.998   3.367   4.936 -0.3950 -0.0125 -0.1966
 4643WAT      O19291   6.563   4.090   5.460 -0.7233 -0.1138 -0.0398
 4643WAT     H119292   6.632   4.117   5.505 -0.2092 -1.2211 -0.1456
 4643WAT     H219293   6.498   4.092   5.518 -0.3941 -0.0477  0.3283
 4643WAT    EPW19294   6.564   4.095   5.475 -0.5987 -0.2676 -0.0011
 4644WAT      O19295   3.771   2.550   7.137 -0.5712  0.5338 -0.0269
 4644WAT     H119296   3.851   2.583   7.149  0.4986 -1.7871 -0.2599
 4644WAT     H219297   3.773   2.475   7.182 -2.3656  0.0471 -0.6773
 4644WAT    EPW19298   3.784   2.543   7.145 -0.6782  0.1191 -0.1574
 4645WAT      O19299   0.269   2.113   5.099 -0.0458 -0.0673 -0.1342
 4645WAT     H119300   0.188   2.119   5.067 -0.1280 -0.4220  0.0029
 4645WAT     H219301   0.264   2.048   5.156 -0.9216  2.9923  3.7034
 4645WAT    EPW19302   0.256   2.104   5.103 -0.1873  0.3323  0.4529
 4646WAT      O19303   6.074   0.475   4.441  0.0196  0.1962 -0.1320
 4646WAT     H119304   6.157   0.479   4.470 -0.3619  1.6748  0.8911
 4646WAT     H219305   6.037   0.416   4.493  0.9941 -2.6256 -2.3567
 4646WAT    EPW19306   6.081   0.467   4.453  0.1072 -0.0022 -0.3095
 4647WAT      O19307   5.616   2.367   5.611  0.1643  0.2877  0.1336
 4647WAT     H119308   5.582   2.351   5.533  0.8302 -0.7726  0.0330
 4647WAT     H219309   5.606   2.291   5.654  0.9315  0.4519  0.6333
 4647WAT    EPW19310   5.610   2.353   5.606  0.3760  0.1554  0.1925
 4648WAT      O19311   7.003   4.562   6.229 -0.6470  0.3655  1.0770
 4648WAT     H119312   7.034   4.621   6.173  0.7394  1.3554  2.7867
 4648WAT     H219313   7.071   4.545   6.281 -0.6535 -3.5051  0.1554
 4648WAT    EPW19314   7.017   4.568   6.228 -0.4432 -0.0601  1.1934
 4649WAT      O19315   4.505   3.333   0.673  0.1687  0.1440  0.0311
 4649WAT     H119316   4.526   3.368   0.596 -0.6393  1.1318  0.2464
 4649WAT     H219317   4.449   3.390   0.707 -1.9672 -1.7777 -0.0161
 4649WAT    EPW19318   4.499   3.346   0.666 -0.2662  0.0061  0.0559
 4650WAT      O19319   3.684   5.974   5.026 -0.1408 -0.0257 -0.1058
 4650WAT     H119320   3.706   5.942   5.104 -1.1021 -2.3513 -0.6938
 4650WAT     H219321   3.654   5.904   4.983 -0.3963  1.3263 -2.2959
 4650WAT    EPW19322   3.683   5.959   5.031 -0.3206 -0.1695 -0.5162
 4651WAT      O19323   5.547   6.152   5.498  0.2430  0.2709  0.5203
 4651WAT     H119324   5.596   6.137   5.428  1.5608 -0.2653  1.4976
 4651WAT     H219325   5.583   6.222   5.534  0.1889 -0.0177  1.1565
 4651WAT    EPW19326   5.560   6.160   5.493  0.4297  0.1490  0.7586
 4652WAT      O19327   2.609   5.759   6.271  0.0859 -0.7433 -0.3120
 4652WAT     H119328   2.615   5.708   6.341 -1.0186 -0.8817 -0.3028
 4652WAT     H219329   2.524   5.759   6.252  0.4268 -1.3553 -2.1236
 4652WAT    EPW19330   2.598   5.751   6.278 -0.0269 -0.8542 -0.5782
 4653WAT      O19331   5.754   7.109   5.753  0.7866 -0.1062  0.3611
 4653WAT     H119332   5.728   7.192   5.762  1.9022  0.4674 -1.1690
 4653WAT     H219333   5.682   7.069   5.723  0.1981  0.2526  1.2425
 4653WAT    EPW19334   5.740   7.115   5.750  0.8645  0.0316  0.2652
 4654WAT      O19335   6.687   0.757   3.699  0.3153 -0.3032  0.5465
 4654WAT     H119336   6.623   0.701   3.718  1.1203 -1.0354  1.2468
 4654WAT     H219337   6.687   0.811   3.767 -1.7883  1.8923 -1.0627
 4654WAT    EPW19338   6.678   0.756   3.712  0.1235 -0.0871  0.4122
 4655WAT      O19339   6.491   4.737   7.134 -0.2097  0.2294  0.5698
 4655WAT     H119340   6.531   4.814   7.140  0.0856 -0.0196  2.3616
 4655WAT     H219341   6.500   4.703   7.213 -2.9951 -0.3199  0.7499
 4655WAT    EPW19342   6.498   4.744   7.146 -0.5776  0.1115  0.8611
 4656WAT      O19343   5.425   1.262   2.873  0.1106  0.4397  0.1331
 4656WAT     H119344   5.466   1.337   2.856 -0.0050  0.0172 -2.5097
 4656WAT     H219345   5.456   1.208   2.812  0.3649 -1.7738  2.0930
 4656WAT    EPW19346   5.435   1.265   2.862  0.1311  0.0503  0.0323
 4657WAT      O19347   0.517   5.637   0.426  0.0568 -0.3272 -0.2557
 4657WAT     H119348   0.503   5.610   0.344 -3.7113  2.5933 -0.8758
 4657WAT     H219349   0.496   5.722   0.422 -0.7374 -0.1681  3.8008
 4657WAT    EPW19350   0.511   5.646   0.413 -0.6171  0.1277  0.2520
 4658WAT      O19351   0.782   2.967   5.035 -0.0521  0.4734  0.0719
 4658WAT     H119352   0.727   2.932   4.976  0.5174 -1.6260  0.7023
 4658WAT     H219353   0.754   2.933   5.111  1.7975 -0.3088  0.4639
 4658WAT    EPW19354   0.769   2.956   5.037  0.3053  0.0477  0.2229
 4659WAT      O19355   4.187   2.877   5.437  0.1239 -0.3209 -0.8263
 4659WAT     H119356   4.156   2.935   5.494 -1.4282 -2.0862  0.2746
 4659WAT     H219357   4.153   2.903   5.361  0.7976  1.0913 -0.6677
 4659WAT    EPW19358   4.177   2.889   5.434 -0.0059 -0.3731 -0.6402
 4660WAT      O19359   3.287   1.121   1.238  0.1453 -0.1263 -0.0091
 4660WAT     H119360   3.344   1.068   1.198  0.1160 -2.4041  2.6463
 4660WAT     H219361   3.333   1.193   1.253  1.7636 -1.1847  0.3901
 4660WAT    EPW19362   3.302   1.124   1.234  0.3800 -0.6191  0.4421
 4661WAT      O19363   2.104   7.141   6.591  0.7805  0.6762  0.1892
 4661WAT     H119364   2.104   7.224   6.616  0.4720  0.9270 -0.6101
 4661WAT     H219365   2.185   7.114   6.608  0.9287  1.1872  0.3080
 4661WAT    EPW19366   2.116   7.149   6.597  0.7568  0.7887  0.0886
 4662WAT      O19367   3.211   1.010   0.489 -0.4504 -0.5449 -0.1234
 4662WAT     H119368   3.293   0.988   0.470  0.2512  0.1583  1.8017
 4662WAT     H219369   3.198   0.976   0.568 -0.9751  1.6847  0.8532
 4662WAT    EPW19370   3.221   1.002   0.498 -0.4243 -0.1116  0.3052
 4663WAT      O19371   0.678   5.146   6.600  0.1044  0.5543  0.3459
 4663WAT     H119372   0.687   5.131   6.515 -2.6447 -1.6653  0.2814
 4663WAT     H219373   0.640   5.225   6.604  0.7081  0.8880 -0.4337
 4663WAT    EPW19374   0.673   5.156   6.588 -0.2125  0.2757  0.2212
 4664WAT      O19375   2.149   2.573   6.678  0.1865 -0.3454  0.0273
 4664WAT     H119376   2.183   2.511   6.729  2.0329 -1.0533 -1.9690
 4664WAT     H219377   2.183   2.647   6.710  0.1102 -0.6077  0.7303
 4664WAT    EPW19378   2.159   2.575   6.691  0.4480 -0.4887 -0.1637
 4665WAT      O19379   6.827   4.897   1.813 -0.0426  0.0005  0.1543
 4665WAT     H119380   6.902   4.854   1.814  0.2668  0.4778  2.1542
 4665WAT     H219381   6.813   4.917   1.897 -1.6526  1.2152 -0.3328
 4665WAT    EPW19382   6.836   4.894   1.825 -0.2347  0.2504  0.3778
 4666WAT      O19383   6.654   3.798   1.963 -0.2857 -0.0524  0.1749
 4666WAT     H119384   6.681   3.716   1.957 -0.2279 -0.0653  0.6096
 4666WAT     H219385   6.638   3.809   2.048 -0.5777  0.2937  0.0786
 4666WAT    EPW19386   6.656   3.788   1.975 -0.3203 -0.0032  0.2249
 4667WAT      O19387   6.288   0.656   2.579 -0.0452 -0.1800  0.6345
 4667WAT     H119388   6.258   0.603   2.517  0.2185 -1.5510  1.6234
 4667WAT     H219389   6.272   0.612   2.653  1.4066  0.4883  1.3977
 4667WAT    EPW19390   6.281   0.641   2.581  0.2082 -0.2838  0.8933
 4668WAT      O19391   2.002   6.556   6.790 -0.0188 -0.2776  0.1356
 4668WAT     H119392   2.040   6.478   6.782  0.9224  0.3045 -1.4433
 4668WAT     H219393   2.039   6.603   6.727 -0.5434  1.4651  1.0797
 4668WAT    EPW19394   2.013   6.551   6.779  0.0427  0.0658  0.0418
 4669WAT      O19395   0.887   0.155   3.594 -0.5293 -0.4889 -0.3898
 4669WAT     H119396   0.833   0.141   3.661  1.9880 -1.1418  1.6664
 4669WAT     H219397   0.926   0.230   3.615  0.2576 -0.6598 -1.1889
 4669WAT    EPW19398   0.885   0.164   3.607 -0.0412 -0.6106 -0.2041
 4670WAT      O19399   4.193   4.927   0.379  0.3964  0.0775  0.1384
 4670WAT     H119400   4.196   4.999   0.428 -1.2013  0.1705  0.1412
 4670WAT     H219401   4.148   4.870   0.428 -1.1904  0.1541 -1.1599
 4670WAT    EPW19402   4.187   4.929   0.394 -0.0740  0.1026 -0.0530
 4671WAT      O19403   3.582   4.459   7.272  0.2674 -0.0305  0.1284
 4671WAT     H119404   3.568   4.495   7.194  0.0985  1.7055  0.9216
 4671WAT     H219405   3.502   4.449   7.305  0.3861  0.4945  0.5996
 4671WAT    EPW19406   3.569   4.463   7.265  0.2600  0.3035  0.3152
 4672WAT      O19407   3.983   0.835   4.412  0.2505  0.0632 -0.0619
 4672WAT     H119408   3.913   0.797   4.378  1.4945 -1.8236 -0.6336
 4672WAT     H219409   4.007   0.782   4.476  1.8060  0.0565 -0.6127
 4672WAT    EPW19410   3.976   0.822   4.417  0.6640 -0.2165 -0.2277
 4673WAT      O19411   3.125   5.386   0.120 -1.1368  0.9631  0.1385
 4673WAT     H119412   3.071   5.455   0.116  0.2783  2.0586 -1.5544
 4673WAT     H219413   3.200   5.421   0.147 -0.0257  0.3961 -2.0029
 4673WAT    EPW19414   3.128   5.401   0.124 -0.7636  1.0411 -0.4279
 4674WAT      O19415   0.024   5.132   5.896  0.1594 -1.0673  0.0972
 4674WAT     H119416   0.088   5.190   5.905 -0.4501 -0.2486 -0.7459
 4674WAT     H219417  -0.035   5.157   5.955 -0.7771  0.1231 -1.2937
 4674WAT    EPW19418   0.025   5.144   5.906 -0.0690 -0.7705 -0.2328
 4675WAT      O19419   1.913   6.667   6.327  0.4624  0.5459  0.1793
 4675WAT     H119420   1.906   6.752   6.306  0.5554  0.5063 -0.0060
 4675WAT     H219421   1.951   6.631   6.258  2.8152  0.7861  1.2795
 4675WAT    EPW19422   1.917   6.674   6.314  0.8237  0.5755  0.3144
 4676WAT      O19423   5.380   3.995   4.600  0.1983  0.1400  0.5480
 4676WAT     H119424   5.304   3.973   4.635 -0.6112  1.8553 -0.0112
 4676WAT     H219425   5.426   3.921   4.603 -1.0717 -0.6571  1.9190
 4676WAT    EPW19426   5.376   3.981   4.605 -0.1089  0.2757  0.6679
 4677WAT      O19427   4.054   2.697   1.804 -0.0939 -0.0973  0.0769
 4677WAT     H119428   3.989   2.754   1.818  0.2852  0.7766 -1.4298
 4677WAT     H219429   4.072   2.667   1.884 -2.1125 -0.1426  0.5885
 4677WAT    EPW19430   4.047   2.701   1.818 -0.3360  0.0251 -0.0701
 4678WAT      O19431   7.294   1.189   4.080  0.2025  0.0508  0.3930
 4678WAT     H119432   7.210   1.171   4.094  0.1617 -0.9637 -0.9230
 4678WAT     H219433   7.334   1.156   4.150 -0.4706  0.2487  0.8780
 4678WAT    EPW19434   7.287   1.181   4.092  0.0971 -0.0698  0.2702
 4679WAT      O19435  -0.000   4.774   0.576 -0.5237  0.2526  0.2085
 4679WAT     H119436  -0.041   4.697   0.584 -2.2285  1.1543  0.6518
 4679WAT     H219437   0.084   4.752   0.577 -0.8180 -1.4143  3.3183
 4679WAT    EPW19438   0.006   4.759   0.578 -0.8190  0.1396  0.7334
 4680WAT      O19439   1.014   3.323   7.399  0.1090  0.4662  0.0321
 4680WAT     H119440   1.024   3.238   7.382 -1.6544  0.0783  0.7365
 4680WAT     H219441   0.971   3.353   7.329  1.2380  0.9244 -0.4835
 4680WAT    EPW19442   1.009   3.315   7.386  0.0153  0.4766  0.0600
 4681WAT      O19443   3.248   3.886   6.365 -0.5912 -0.2081  0.2742
 4681WAT     H119444   3.306   3.859   6.425  0.5567  0.7152 -0.3858
 4681WAT     H219445   3.261   3.832   6.298 -1.5983 -0.9814  0.6647
 4681WAT    EPW19446   3.259   3.874   6.364 -0.5704 -0.1859  0.2344
 4682WAT      O19447   2.600   5.156   3.319 -0.2470  0.1629 -0.2790
 4682WAT     H119448   2.590   5.081   3.276 -0.7377  0.3603 -0.5196
 4682WAT     H219449   2.521   5.172   3.353 -0.3001  0.8482 -0.6957
 4682WAT    EPW19450   2.587   5.148   3.318 -0.3273  0.2933 -0.3761
 4683WAT      O19451   0.129   6.883   1.882 -0.2064  0.3028  0.1553
 4683WAT     H119452   0.189   6.862   1.942 -0.1106  1.4741  0.5006
 4683WAT     H219453   0.055   6.885   1.927 -0.2962  0.1574  0.0133
 4683WAT    EPW19454   0.127   6.880   1.898 -0.2055  0.4543  0.1854
 4684WAT      O19455   7.254   5.243   2.271  0.3035 -0.4133 -0.3621
 4684WAT     H119456   7.229   5.266   2.351  0.3108 -1.8337  0.0761
 4684WAT     H219457   7.215   5.302   2.220  0.7748  0.8680  0.7022
 4684WAT    EPW19458   7.245   5.255   2.275  0.3742 -0.4339 -0.1402
 4685WAT      O19459   3.264   3.019   2.045  0.3333 -0.6404  0.2453
 4685WAT     H119460   3.250   3.085   2.100  0.7580 -1.4897  1.4018
 4685WAT     H219461   3.351   3.007   2.049  0.4526 -0.3945 -1.0125
 4685WAT    EPW19462   3.275   3.027   2.054  0.4136 -0.7295  0.2303
 4686WAT      O19463   4.333   3.764   5.925  0.5402 -0.0328 -0.4616
 4686WAT     H119464   4.391   3.700   5.913  0.2503 -0.3462 -0.2331
 4686WAT     H219465   4.315   3.791   5.844  0.7021 -0.2116 -0.5572
 4686WAT    EPW19466   4.339   3.758   5.911  0.5213 -0.1055 -0.4420
 4687WAT      O19467   0.642   1.182   5.967  0.1475 -0.0410 -0.3110
 4687WAT     H119468   0.729   1.187   5.960  0.1539 -0.2103 -0.3632
 4687WAT     H219469   0.614   1.196   5.886  0.1151  0.2587 -0.2470
 4687WAT    EPW19470   0.650   1.185   5.954  0.1437 -0.0218 -0.3092
 4688WAT      O19471   1.525   6.282   6.513  0.5715  0.1625  0.6822
 4688WAT     H119472   1.477   6.304   6.583 -0.7556  0.1330 -0.1931
 4688WAT     H219473   1.607   6.284   6.544  0.0687  0.7519  2.0812
 4688WAT    EPW19474   1.530   6.286   6.528  0.3012  0.2452  0.7596
 4689WAT      O19475   1.401   4.282   7.200  0.0332  0.2665  0.6835
 4689WAT     H119476   1.488   4.278   7.199  0.3053  3.5935 -0.2053
 4689WAT     H219477   1.381   4.286   7.284  0.7474 -0.2149  0.8825
 4689WAT    EPW19478   1.411   4.282   7.212  0.1789  0.6869  0.5816
 4690WAT      O19479   5.302   0.108   4.767  0.0819 -0.2532  0.7353
 4690WAT     H119480   5.283   0.187   4.799 -0.0106 -0.1975  0.5409
 4690WAT     H219481   5.275   0.054   4.830 -2.3401 -0.2885 -0.2223
 4690WAT    EPW19482   5.295   0.112   4.781 -0.2895 -0.2502  0.5651
 4691WAT      O19483   4.571   6.973   5.851 -0.1472  0.0341  0.1396
 4691WAT     H119484   4.607   7.050   5.835 -1.0545  0.5352  0.3960
 4691WAT     H219485   4.486   6.987   5.836 -0.3107 -0.9362  0.1108
 4691WAT    EPW19486   4.564   6.986   5.847 -0.3054 -0.0352  0.1732
 4692WAT      O19487   5.578   6.123   4.097  0.0307  0.5817 -0.1176
 4692WAT     H119488   5.559   6.060   4.040  0.9752 -0.2235  0.4227
 4692WAT     H219489   5.543   6.195   4.062 -0.2821 -0.0808 -1.1902
 4692WAT    EPW19490   5.570   6.124   4.084  0.1240  0.3649 -0.1962
 4693WAT      O19491   0.622   3.515   7.221  0.1470  0.0591 -0.5996
 4693WAT     H119492   0.547   3.500   7.179 -0.4576 -1.5679  0.9658
 4693WAT     H219493   0.681   3.476   7.170  0.2675  2.6172 -2.6411
 4693WAT    EPW19494   0.620   3.507   7.207  0.0755  0.1966 -0.6699
 4694WAT      O19495   4.875   2.743   7.265 -0.0735  0.1704 -0.2171
 4694WAT     H119496   4.922   2.755   7.338  1.8570  2.6864 -1.7027
 4694WAT     H219497   4.886   2.658   7.247  0.6441 -0.1620  1.5840
 4694WAT    EPW19498   4.883   2.732   7.273  0.3177  0.4930 -0.1705
 4695WAT      O19499   0.129   4.629   6.012  0.1581  0.0155  0.4452
 4695WAT     H119500   0.156   4.630   5.930  1.0050  3.6166  0.6136
 4695WAT     H219501   0.058   4.681   6.011  0.2785  0.2600  1.9861
 4695WAT    EPW19502   0.122   4.637   6.000  0.3010  0.5836  0.6977
 4696WAT      O19503   4.557   4.837   6.018 -0.2176 -0.2404 -0.3873
 4696WAT     H119504   4.521   4.758   6.024 -0.6450 -0.1371 -1.3511
 4696WAT     H219505   4.504   4.879   5.962  0.3483  0.5291 -0.3617
 4696WAT    EPW19506   4.544   4.832   6.011 -0.1972 -0.1115 -0.5259
 4697WAT      O19507   6.506   0.867   3.895 -0.0722 -0.6206 -0.3586
 4697WAT     H119508   6.435   0.842   3.940  1.5575 -2.0560  1.6489
 4697WAT     H219509   6.561   0.895   3.957  2.1489 -2.2622 -1.4096
 4697WAT    EPW19510   6.504   0.867   3.911  0.4967 -1.0751 -0.2173
 4698WAT      O19511   5.656   5.213   0.497 -0.0096 -0.3198 -0.2681
 4698WAT     H119512   5.592   5.154   0.500 -1.8216  1.5170 -0.4064
 4698WAT     H219513   5.663   5.232   0.412  1.1300 -0.8790 -0.3202
 4698WAT    EPW19514   5.647   5.207   0.485 -0.1089 -0.1311 -0.2962
 4699WAT      O19515   5.982   0.605   2.900  0.4871 -0.0872 -0.4577
 4699WAT     H119516   6.000   0.632   2.981 -0.8362  2.1616 -0.8201
 4699WAT     H219517   6.060   0.596   2.863  1.1027 -1.0702  1.0275
 4699WAT    EPW19518   5.996   0.608   2.906  0.3825  0.0998 -0.2919
 4700WAT      O19519   6.369   5.937   2.447  0.0124  0.1269  0.0279
 4700WAT     H119520   6.427   5.917   2.508 -1.6849 -3.2352  0.7622
 4700WAT     H219521   6.395   5.892   2.377 -2.1905 -2.6267  0.7674
 4700WAT    EPW19522   6.381   5.928   2.445 -0.5637 -0.7766  0.2456
 4701WAT      O19523   0.348   5.184   5.666 -0.0107 -0.3898 -0.2145
 4701WAT     H119524   0.337   5.270   5.657  0.1417 -0.4164 -0.6760
 4701WAT     H219525   0.339   5.171   5.752 -1.5483 -0.1174 -0.2989
 4701WAT    EPW19526   0.345   5.195   5.678 -0.2153 -0.3535 -0.2951
 4702WAT      O19527   1.222   1.275   0.480 -0.3377  0.2361  0.7696
 4702WAT     H119528   1.306   1.274   0.455 -1.0840  1.4518 -2.2977
 4702WAT     H219529   1.213   1.354   0.517 -0.5805  1.2027 -1.1944
 4702WAT    EPW19530   1.233   1.287   0.482 -0.4838  0.5585  0.0264
 4703WAT      O19531   1.737   6.523   0.853 -1.1440  0.2868 -0.4459
 4703WAT     H119532   1.775   6.445   0.848 -0.2599  0.7494 -1.2374
 4703WAT     H219533   1.696   6.532   0.776  0.3263  1.3555 -1.1557
 4703WAT    EPW19534   1.737   6.513   0.841 -0.7962  0.5130 -0.6676
 4704WAT      O19535   5.951   7.155   4.810  0.6422 -0.3942 -0.4209
 4704WAT     H119536   5.870   7.123   4.800  0.9516 -1.7433  1.0394
 4704WAT     H219537   5.943   7.208   4.879  1.6182 -3.2241  2.0596
 4704WAT    EPW19538   5.938   7.158   4.819  0.8321 -1.0115  0.1612
 4705WAT      O19539   1.341   1.997   2.823  0.5699  0.2757 -0.2227
 4705WAT     H119540   1.360   2.069   2.868  0.2272 -0.2082  0.7090
 4705WAT     H219541   1.408   1.944   2.839 -0.6167 -0.7656  1.6298
 4705WAT    EPW19542   1.354   2.000   2.832  0.3440  0.0504  0.1886
 4706WAT      O19543   1.479   3.916   2.808 -0.3883  0.0401 -0.0559
 4706WAT     H119544   1.511   3.876   2.879  1.2787  0.4903 -0.5202
 4706WAT     H219545   1.445   3.990   2.840 -0.3394 -0.1128  0.3605
 4706WAT    EPW19546   1.479   3.921   2.824 -0.1349  0.0840 -0.0630
 4707WAT      O19547   4.353   5.175   5.526  0.0471  0.2832  0.2314
 4707WAT     H119548   4.393   5.141   5.456  0.2736 -1.9394  1.3239
 4707WAT     H219549   4.300   5.111   5.551 -0.8271  1.4530  1.4717
 4707WAT    EPW19550   4.351   5.160   5.519 -0.0486  0.1277  0.5760
 4708WAT      O19551   5.561   2.299   5.347 -0.0951  0.2813  0.1223
 4708WAT     H119552   5.479   2.325   5.336 -0.3004  1.4424  3.3765
 4708WAT     H219553   5.600   2.321   5.273 -2.7001 -0.5014 -1.6101
 4708WAT    EPW19554   5.555   2.306   5.335 -0.5102  0.3372  0.3471
 4709WAT      O19555   6.082   5.259   1.711 -0.2328  0.2642 -0.1543
 4709WAT     H119556   6.032   5.286   1.777 -0.0539  1.1764 -0.3827
 4709WAT     H219557   6.049   5.181   1.691 -2.1444  1.2023 -0.8856
 4709WAT    EPW19558   6.070   5.251   1.718 -0.4887  0.5375 -0.2961
 4710WAT      O19559   6.968   0.409   2.318 -0.1981  0.0971  0.0781
 4710WAT     H119560   7.010   0.343   2.279 -0.7293 -0.2781  0.1266
 4710WAT     H219561   7.033   0.461   2.347  0.2293 -0.4819  0.1775
 4710WAT    EPW19562   6.984   0.407   2.317 -0.2134 -0.0439  0.0999
 4711WAT      O19563   4.235   3.942   6.141  0.5276 -0.0074 -0.4051
 4711WAT     H119564   4.286   3.907   6.079  0.1679 -0.9976 -0.1529
 4711WAT     H219565   4.164   3.892   6.140 -1.0421  2.1031 -1.6282
 4711WAT    EPW19566   4.232   3.930   6.132  0.2426  0.1581 -0.5485
 4712WAT      O19567   2.326   3.294   7.208  0.3163 -0.2377  0.3897
 4712WAT     H119568   2.294   3.284   7.128  0.6191  0.9194  0.1082
 4712WAT     H219569   2.265   3.259   7.260 -0.3746 -0.0280 -0.2733
 4712WAT    EPW19570   2.313   3.287   7.204  0.2590 -0.0358  0.2502
 4713WAT      O19571   0.870   5.693   5.734 -0.5405  0.0287  0.2027
 4713WAT     H119572   0.955   5.678   5.721 -0.0425  2.1424  0.7285
 4713WAT     H219573   0.856   5.769   5.694 -1.9482  0.2355  1.0308
 4713WAT    EPW19574   0.881   5.702   5.726 -0.6749  0.3715  0.4027
 4714WAT      O19575   0.252   3.066   5.102  0.0379 -0.0632  0.0671
 4714WAT     H119576   0.180   3.084   5.147 -0.4390 -1.3177 -0.1693
 4714WAT     H219577   0.223   3.025   5.031  0.8628  0.9436 -0.9036
 4714WAT    EPW19578   0.237   3.063   5.098  0.0893 -0.0998 -0.1112
 4715WAT      O19579   3.729   0.938   4.043 -0.1108  0.1167 -0.0782
 4715WAT     H119580   3.708   0.945   3.959 -1.1456  0.5170  0.2012
 4715WAT     H219581   3.659   0.901   4.079 -0.2191  1.1384  0.8277
 4715WAT    EPW19582   3.715   0.933   4.036 -0.2797  0.3267  0.0969
 4716WAT      O19583   5.344   0.437   2.196 -0.3889 -0.6295 -0.0326
 4716WAT     H119584   5.324   0.390   2.266 -0.6221 -1.4980 -0.6611
 4716WAT     H219585   5.271   0.434   2.148 -0.4295  0.4402 -0.0592
 4716WAT    EPW19586   5.330   0.429   2.199 -0.4293 -0.5998 -0.1293
 4717WAT      O19587   1.857   2.843   0.054  0.3325  0.1231 -0.5327
 4717WAT     H119588   1.931   2.887   0.042  1.3111 -0.3827  2.6589
 4717WAT     H219589   1.827   2.876   0.130 -1.6471 -1.0994 -0.7295
 4717WAT    EPW19590   1.863   2.855   0.064  0.1846 -0.1322 -0.0903
 4718WAT      O19591   0.087   5.858   6.640  0.0323  0.1936 -0.3040
 4718WAT     H119592   0.060   5.925   6.688 -1.3936 -0.4651 -0.1246
 4718WAT     H219593   0.115   5.894   6.566 -1.7953  0.9303 -0.6812
 4718WAT    EPW19594   0.088   5.873   6.636 -0.4483  0.2051 -0.3332
 4719WAT      O19595   0.723   2.568   3.791  0.5029 -0.2648 -0.0253
 4719WAT     H119596   0.797   2.549   3.749  0.2915 -0.0262 -0.5142
 4719WAT     H219597   0.742   2.554   3.875  1.0598 -0.3385 -0.1654
 4719WAT    EPW19598   0.737   2.563   3.797  0.5539 -0.2404 -0.1182
 4720WAT      O19599   1.475   5.507   6.148 -0.8264 -0.4409 -0.7096
 4720WAT     H119600   1.543   5.477   6.101 -0.5928  0.2506 -0.8312
 4720WAT     H219601   1.429   5.552   6.089  1.0680  3.0800  0.2397
 4720WAT    EPW19602   1.478   5.509   6.132 -0.5121  0.1814 -0.5874
 4721WAT      O19603   0.165   5.563   6.771 -0.0011 -0.1464  0.5027
 4721WAT     H119604   0.103   5.566   6.709  1.3551 -1.3270 -0.9851
 4721WAT     H219605   0.142   5.494   6.820 -0.8442  0.5412  1.1221
 4721WAT    EPW19606   0.152   5.553   6.769  0.0747 -0.2192  0.3744
 4722WAT      O19607   1.918   6.689   7.235  0.4712  0.9609 -0.4613
 4722WAT     H119608   1.994   6.649   7.252  0.5463  1.3600  0.1779
 4722WAT     H219609   1.900   6.731   7.309 -0.7007  0.3627 -0.3918
 4722WAT    EPW19610   1.927   6.689   7.248  0.3092  0.9315 -0.3566
 4723WAT      O19611   6.721   7.105   6.912  0.0665 -0.6027 -0.5313
 4723WAT     H119612   6.704   7.066   6.835 -0.3318  0.4128 -0.9676
 4723WAT     H219613   6.645   7.101   6.954 -1.1233  2.9274 -2.0366
 4723WAT    EPW19614   6.707   7.099   6.907 -0.1681  0.0688 -0.8181
 4724WAT      O19615   2.883   2.636   7.164 -0.6206 -0.0151  0.1224
 4724WAT     H119616   2.835   2.576   7.122 -1.4342  0.0834  0.8696
 4724WAT     H219617   2.894   2.602   7.244  0.9702 -0.2392 -0.1629
 4724WAT    EPW19618   2.877   2.622   7.170 -0.5058 -0.0337  0.1907
 4725WAT      O19619   0.279   7.140   2.138 -0.1480 -0.3538 -0.6194
 4725WAT     H119620   0.263   7.215   2.180 -0.8868 -0.6464 -0.3708
 4725WAT     H219621   0.266   7.161   2.054 -1.5029 -0.4861 -0.4549
 4725WAT    EPW19622   0.275   7.154   2.132 -0.4573 -0.4165 -0.5584
 4726WAT      O19623   4.389   3.693   7.365  0.2073 -0.1561  0.2291
 4726WAT     H119624   4.346   3.626   7.402  1.0321 -0.2259  1.1165
 4726WAT     H219625   4.335   3.720   7.302  0.0550 -1.9366 -0.4510
 4726WAT    EPW19626   4.374   3.687   7.361  0.3066 -0.4294  0.2597
 4727WAT      O19627   2.486   5.573   4.435 -0.3795 -0.0572 -0.3547
 4727WAT     H119628   2.496   5.523   4.506 -1.7088  1.5642  1.0605
 4727WAT     H219629   2.488   5.654   4.467  1.7870  0.8875 -2.5702
 4727WAT    EPW19630   2.488   5.578   4.451 -0.2559  0.3218 -0.4729
 4728WAT      O19631   0.044   1.918   1.331  0.1606  0.1453 -0.5839
 4728WAT     H119632   0.131   1.913   1.318  0.0204  1.5661 -2.5178
 4728WAT     H219633   0.011   1.885   1.257 -0.9952 -1.0828  0.4476
 4728WAT    EPW19634   0.052   1.912   1.318 -0.0309  0.1737 -0.7172
 4729WAT      O19635   2.742   6.804   2.199 -0.8800  0.1264 -0.3131
 4729WAT     H119636   2.716   6.741   2.253 -2.7846  0.1009 -1.1911
 4729WAT     H219637   2.678   6.863   2.203  0.3564  1.5428 -0.3203
 4729WAT    EPW19638   2.729   6.804   2.207 -0.9787  0.3319 -0.4439
 4730WAT      O19639   0.253   4.215   3.316 -0.0316  0.3338 -0.1623
 4730WAT     H119640   0.177   4.173   3.305 -0.5562  1.3691 -0.5918
 4730WAT     H219641   0.247   4.248   3.397  0.8580 -1.3156  0.6300
 4730WAT    EPW19642   0.241   4.214   3.326  0.0223  0.2431 -0.1087
 4731WAT      O19643   6.989   2.684   6.873 -0.3842 -0.2375  0.5360
 4731WAT     H119644   7.069   2.651   6.887 -0.0915  0.9970  1.9946
 4731WAT     H219645   6.998   2.728   6.798  0.9158  1.6040  1.7020
 4731WAT    EPW19646   7.002   2.686   6.864 -0.1490  0.2169  0.9237
 4732WAT      O19647   7.267   6.056   0.722  0.0404 -0.5905 -0.1152
 4732WAT     H119648   7.295   6.066   0.804  0.6089  0.2932 -0.4018
 4732WAT     H219649   7.319   6.109   0.676 -3.0169  2.5131 -0.5084
 4732WAT    EPW19650   7.279   6.066   0.728 -0.3272 -0.0015 -0.2157
 4733WAT      O19651   5.634   6.871   4.568  0.1449 -0.6050 -0.1733
 4733WAT     H119652   5.614   6.896   4.487 -0.3491 -1.4081 -0.3057
 4733WAT     H219653   5.703   6.819   4.557  1.0290  0.4618  0.0837
 4733WAT    EPW19654   5.641   6.867   4.554  0.2025 -0.5660 -0.1549
 4734WAT      O19655   4.105   1.957   3.463  0.7255  0.7329  0.1047
 4734WAT     H119656   4.082   1.993   3.539  0.0916 -0.2112  0.3669
 4734WAT     H219657   4.148   2.022   3.422  0.4114  1.4861  0.9426
 4734WAT    EPW19658   4.108   1.972   3.468  0.5854  0.7047  0.2672
 4735WAT      O19659   6.917   3.776   4.979  0.1789  0.0806  0.4873
 4735WAT     H119660   6.846   3.729   4.963 -0.3175  0.3447  1.7945
 4735WAT     H219661   6.961   3.774   4.903 -1.2685  0.0275 -0.3740
 4735WAT    EPW19662   6.913   3.769   4.965 -0.1082  0.1117  0.5531
 4736WAT      O19663   0.309   2.870   1.931  0.4432  0.3457  0.2794
 4736WAT     H119664   0.394   2.855   1.917  0.3290 -0.1862  0.1322
 4736WAT     H219665   0.305   2.957   1.942  0.9041  0.4702 -0.4469
 4736WAT    EPW19666   0.321   2.881   1.930  0.4944  0.2855  0.1504
 4737WAT      O19667   1.681   5.102   2.186  0.0676 -0.1420 -0.2998
 4737WAT     H119668   1.728   5.090   2.258 -2.4381 -2.1702  1.1642
 4737WAT     H219669   1.630   5.170   2.205  0.4833  0.3200 -0.8055
 4737WAT    EPW19670   1.680   5.110   2.199 -0.2411 -0.3734 -0.1583
 4738WAT      O19671   2.176   4.650   0.902 -0.4422 -0.0124  0.3015
 4738WAT     H119672   2.164   4.663   0.988  1.1242 -1.7789  0.8585
 4738WAT     H219673   2.261   4.628   0.897 -0.4035  0.4534 -1.7762
 4738WAT    EPW19674   2.187   4.649   0.914 -0.2051 -0.2046  0.0768
 4739WAT      O19675   4.355   3.534   0.775  0.7814 -0.3485  0.0184
 4739WAT     H119676   4.320   3.541   0.695  1.1680 -1.8845 -0.3116
 4739WAT     H219677   4.286   3.526   0.827  0.5445  0.0152 -0.2407
 4739WAT    EPW19678   4.340   3.534   0.771  0.8035 -0.5217 -0.0686
 4740WAT      O19679   2.767   4.135   0.564 -0.1525 -0.2564  0.4729
 4740WAT     H119680   2.757   4.202   0.509 -0.3567 -0.1817  0.6010
 4740WAT     H219681   2.687   4.123   0.597 -0.2742 -1.0391 -0.0942
 4740WAT    EPW19682   2.754   4.143   0.561 -0.2007 -0.3610  0.4080
 4741WAT      O19683   2.719   6.154   6.618 -0.0584  0.1099  0.1139
 4741WAT     H119684   2.675   6.122   6.686  0.6513  1.6406  1.3895
 4741WAT     H219685   2.802   6.145   6.642  0.2869 -0.9057 -1.3584
 4741WAT    EPW19686   2.725   6.148   6.632  0.0974  0.1860  0.0848
 4742WAT      O19687   2.177   7.024   6.307 -0.1349 -0.0932 -0.0821
 4742WAT     H119688   2.156   7.096   6.352 -0.1462 -0.5059  0.5977
 4742WAT     H219689   2.237   7.052   6.250  1.3343  0.1066  1.4763
 4742WAT    EPW19690   2.183   7.039   6.305  0.0805 -0.1246  0.2485
 4743WAT      O19691   6.033   7.011   7.298  0.6130 -0.0412 -0.3151
 4743WAT     H119692   6.085   7.061   7.345  1.2043 -0.6358 -0.3204
 4743WAT     H219693   6.061   7.022   7.216  1.0904 -0.7752 -0.2568
 4743WAT    EPW19694   6.045   7.020   7.293  0.7709 -0.2374 -0.3072
 4744WAT      O19695   3.927   5.225   3.849  0.0616 -0.4367 -0.1336
 4744WAT     H119696   3.956   5.286   3.795  2.8082 -0.6331  0.9422
 4744WAT     H219697   3.976   5.155   3.829  0.9702 -0.5920  2.2902
 4744WAT    EPW19698   3.939   5.224   3.838  0.6016 -0.4886  0.3834
 4745WAT      O19699   1.074   0.059   5.236  0.1501  0.0657 -0.8342
 4745WAT     H119700   1.083  -0.002   5.297 -0.0809 -0.0010 -0.8674
 4745WAT     H219701   1.050   0.014   5.165 -0.5397  0.2514 -0.7251
 4745WAT    EPW19702   1.072   0.043   5.234  0.0141  0.0833 -0.8230
 4746WAT      O19703   3.956   5.699   7.326 -0.5220  0.1401 -0.0129
 4746WAT     H119704   3.887   5.750   7.341 -0.1320  0.5935  0.2552
 4746WAT     H219705   3.962   5.650   7.398 -0.7680 -0.1349 -0.1799
 4746WAT    EPW19706   3.947   5.699   7.339 -0.5007  0.1664  0.0020
 4747WAT      O19707   1.558   3.963   0.807 -0.0275  0.3079  0.4335
 4747WAT     H119708   1.530   4.044   0.795 -0.7163 -0.0476 -0.4816
 4747WAT     H219709   1.644   3.970   0.805 -0.0568  0.7044 -2.0216
 4747WAT    EPW19710   1.566   3.976   0.805 -0.1336  0.3140 -0.0643
 4748WAT      O19711   5.245   1.023   5.544  0.2970  0.4129  0.0484
 4748WAT     H119712   5.193   0.959   5.518  1.9189 -1.4365  1.0567
 4748WAT     H219713   5.220   1.038   5.626 -0.8114  1.9462 -0.5174
 4748WAT    EPW19714   5.234   1.016   5.552  0.3728  0.3662  0.1138
 4749WAT      O19715   1.591   5.040   1.107 -0.0298 -0.4647 -0.4746
 4749WAT     H119716   1.643   4.970   1.096 -0.3685 -0.9306  0.7423
 4749WAT     H219717   1.534   5.014   1.167 -0.3935  0.7449 -0.2679
 4749WAT    EPW19718   1.591   5.026   1.114 -0.1336 -0.3548 -0.2643
 4750WAT      O19719   3.958   4.146   0.753 -0.7592 -0.2746 -0.6169
 4750WAT     H119720   3.970   4.179   0.673  0.9924  2.4363  0.6136
 4750WAT     H219721   3.983   4.063   0.745 -2.2427 -0.5892 -3.1957
 4750WAT    EPW19722   3.964   4.139   0.740 -0.7196  0.0794 -0.8160
 4751WAT      O19723   4.770   4.339   1.489 -0.0702 -0.1527 -0.3517
 4751WAT     H119724   4.848   4.377   1.500 -0.3826  0.4590 -0.2127
 4751WAT     H219725   4.713   4.401   1.511 -0.5925 -0.8012  0.1890
 4751WAT    EPW19726   4.773   4.354   1.494 -0.1935 -0.1582 -0.2513
 4752WAT      O19727   0.090   5.443   7.055 -0.2392 -0.3830  0.5511
 4752WAT     H119728   0.166   5.454   7.097  0.1689  0.4295 -0.3669
 4752WAT     H219729   0.104   5.370   7.009 -0.2148 -0.5358  0.7952
 4752WAT    EPW19730   0.104   5.434   7.054 -0.1753 -0.2855  0.4516
 4753WAT      O19731   2.531   5.575   1.093  0.1707  0.3026  0.0007
 4753WAT     H119732   2.568   5.571   1.014 -0.7463  1.6478 -0.5255
 4753WAT     H219733   2.562   5.649   1.127 -0.0303  0.1222  0.5911
 4753WAT    EPW19734   2.541   5.585   1.086  0.0055  0.4747  0.0102
 4754WAT      O19735  -0.000   3.537   6.940  0.3070  0.1910  0.9716
 4754WAT     H119736   0.027   3.587   7.006  0.4004  0.4755  0.7239
 4754WAT     H219737  -0.016   3.595   6.876  2.4310 -0.2359 -0.0314
 4754WAT    EPW19738   0.001   3.553   6.940  0.6346  0.1700  0.7868
 4755WAT      O19739   4.567   4.989   2.887  0.3025  0.1265 -0.0205
 4755WAT     H119740   4.498   5.016   2.842  1.0445  0.3981 -1.0137
 4755WAT     H219741   4.541   4.996   2.970 -0.6817  0.6912 -0.3607
 4755WAT    EPW19742   4.553   4.994   2.893  0.2667  0.2501 -0.2175
 4756WAT      O19743   6.922   0.072   2.171  0.2795 -0.3312 -0.5760
 4756WAT     H119744   7.001   0.089   2.202 -0.2233  0.7422  0.1784
 4756WAT     H219745   6.894   0.150   2.142 -1.3401 -0.2070  1.1599
 4756WAT    EPW19746   6.929   0.086   2.171 -0.0340 -0.1543 -0.2082
 4757WAT      O19747   5.108   0.424   5.747  0.0462  0.1004 -0.1302
 4757WAT     H119748   5.181   0.399   5.706  0.3180 -1.6842  1.3240
 4757WAT     H219749   5.054   0.356   5.735 -1.6546  1.6227 -1.6944
 4757WAT    EPW19750   5.111   0.410   5.739 -0.1649  0.0617 -0.1465
 4758WAT      O19751   4.112   1.272   5.712  0.5464  0.4506  0.3342
 4758WAT     H119752   4.170   1.227   5.664 -1.7892 -0.4155 -1.9080
 4758WAT     H219753   4.102   1.224   5.783  0.3585 -1.0114 -0.6379
 4758WAT    EPW19754   4.119   1.259   5.715  0.1737  0.1067 -0.1406
 4759WAT      O19755   5.601   1.565   4.089  0.2201 -0.3283  0.5739
 4759WAT     H119756   5.537   1.606   4.134  1.1682 -0.4948  2.1440
 4759WAT     H219757   5.608   1.488   4.129  1.4870 -0.2637  0.5140
 4759WAT    EPW19758   5.592   1.560   4.102  0.5473 -0.3433  0.7970
 4760WAT      O19759   5.921   5.403   1.093  0.4032  0.2352 -0.0782
 4760WAT     H119760   5.990   5.351   1.087  1.5154  1.3745  1.9297
 4760WAT     H219761   5.881   5.375   1.165  0.4777  1.5018  0.4774
 4760WAT    EPW19762   5.925   5.391   1.103  0.5785  0.5906  0.3005
 4761WAT      O19763   3.048   6.671   7.179  0.0808 -0.3672  0.2088
 4761WAT     H119764   3.093   6.603   7.211 -0.5662 -1.5393 -1.2328
 4761WAT     H219765   2.976   6.634   7.148 -0.9409  1.2038  0.6213
 4761WAT    EPW19766   3.044   6.655   7.179 -0.1657 -0.3083  0.0568
 4762WAT      O19767   1.564   1.790   0.262 -0.3067 -0.0062 -0.4493
 4762WAT     H119768   1.560   1.857   0.318 -2.2141 -1.9883  2.0440
 4762WAT     H219769   1.637   1.749   0.284  0.0151  0.3462 -0.8526
 4762WAT    EPW19770   1.574   1.794   0.273 -0.5409 -0.2469 -0.1406
 4763WAT      O19771   2.269   5.099   0.081 -0.1216 -0.1623 -0.0421
 4763WAT     H119772   2.284   5.026   0.035  1.6156  0.2859 -0.2832
 4763WAT     H219773   2.189   5.124   0.056 -0.8093 -2.0508  0.1621
 4763WAT    EPW19774   2.260   5.092   0.070  0.0334 -0.3751 -0.0475
 4764WAT      O19775   0.376   0.936   4.058  0.3333 -0.3102  0.1091
 4764WAT     H119776   0.356   0.858   4.092 -0.8742  0.3232  0.9088
 4764WAT     H219777   0.302   0.962   4.021  0.5698  0.6797  0.3119
 4764WAT    EPW19778   0.362   0.928   4.058  0.1899 -0.0704  0.2572
 4765WAT      O19779   3.736   1.629   7.260 -0.2940 -0.2886  0.1471
 4765WAT     H119780   3.738   1.553   7.216  1.2494 -0.3808  0.2932
 4765WAT     H219781   3.716   1.688   7.199 -0.9837 -0.7433 -0.0777
 4765WAT    EPW19782   3.734   1.626   7.244 -0.1679 -0.3694  0.1354
 4766WAT      O19783   1.268   3.016   4.042  0.0010 -0.2347  0.1493
 4766WAT     H119784   1.194   2.986   4.007 -0.4847  0.8833  0.1831
 4766WAT     H219785   1.305   2.944   4.075 -0.1179 -1.1341 -1.5512
 4766WAT    EPW19786   1.263   3.001   4.042 -0.0883 -0.2024 -0.0969
 4767WAT      O19787   6.971   2.385   3.515  0.1213  0.0100 -0.2170
 4767WAT     H119788   6.884   2.382   3.518  0.1575 -1.7522  0.0027
 4767WAT     H219789   6.990   2.348   3.438  0.6665  1.7933 -0.9917
 4767WAT    EPW19790   6.961   2.379   3.504  0.2072  0.0131 -0.2990
 4768WAT      O19791   0.898   3.074   5.394  0.3812 -0.0042  0.4991
 4768WAT     H119792   0.908   3.056   5.479 -1.2081 -0.2225  0.6603
 4768WAT     H219793   0.835   3.020   5.368  0.9534 -0.0568 -0.8824
 4768WAT    EPW19794   0.890   3.064   5.403  0.2310 -0.0442  0.3189
 4769WAT      O19795   4.094   3.298   3.841 -0.0836 -0.1521 -0.0980
 4769WAT     H119796   4.116   3.376   3.874 -1.7604  0.1651  0.4031
 4769WAT     H219797   4.069   3.252   3.911  0.5068 -1.0121 -0.4388
 4769WAT    EPW19798   4.093   3.303   3.856 -0.2441 -0.2323 -0.0743
 4770WAT      O19799   2.390   1.005   6.626 -0.5282 -0.3217  0.4077
 4770WAT     H119800   2.321   1.057   6.639 -0.3841  0.3225 -1.1310
 4770WAT     H219801   2.402   1.008   6.539  1.1463 -0.7976  0.5844
 4770WAT    EPW19802   2.382   1.013   6.615 -0.2595 -0.2969  0.2065
 4771WAT      O19803   6.336   2.358   0.536 -0.3719  0.4879  0.1244
 4771WAT     H119804   6.396   2.393   0.484 -1.3819  1.9785 -0.0882
 4771WAT     H219805   6.299   2.427   0.575  0.5788 -0.5169  3.1568
 4771WAT    EPW19806   6.339   2.373   0.534 -0.3807  0.5596  0.5410
 4772WAT      O19807   4.261   2.337   4.013  0.6232 -0.0896  0.0039
 4772WAT     H119808   4.200   2.294   3.967  0.3498 -0.4108  0.6452
 4772WAT     H219809   4.215   2.398   4.056  0.7226 -0.4236  0.5977
 4772WAT    EPW19810   4.245   2.339   4.013  0.5975 -0.1864  0.1864
 4773WAT      O19811   7.297   3.902   2.650  0.0713 -0.1175 -0.2479
 4773WAT     H119812   7.221   3.876   2.614  0.8583 -2.4904 -0.3649
 4773WAT     H219813   7.357   3.855   2.609  1.3405 -0.4858  1.8532
 4773WAT    EPW19814   7.294   3.891   2.639  0.3751 -0.5225  0.0452
 4774WAT      O19815   2.326   4.333   5.216 -0.3388  0.1830 -0.3649
 4774WAT     H119816   2.380   4.332   5.285 -0.2665 -0.8789 -0.4136
 4774WAT     H219817   2.262   4.387   5.241 -1.1348 -1.3679  1.1989
 4774WAT    EPW19818   2.324   4.341   5.230 -0.4457 -0.2029 -0.1411
 4775WAT      O19819   0.826   3.013   5.887 -0.5616 -0.2636  0.5129
 4775WAT     H119820   0.745   2.982   5.876 -0.9997  0.2306  2.0527
 4775WAT     H219821   0.870   2.980   5.819 -1.5594 -2.2544  0.7458
 4775WAT    EPW19822   0.820   3.003   5.875 -0.7737 -0.4847  0.7747
 4776WAT      O19823   0.414   2.755   7.391 -0.4124  0.4590 -0.2498
 4776WAT     H119824   0.483   2.734   7.440  0.4042 -1.9203 -2.1760
 4776WAT     H219825   0.363   2.801   7.444  0.7630 -1.2294  2.5251
 4776WAT    EPW19826   0.417   2.758   7.406 -0.1182 -0.1419 -0.1244
 4777WAT      O19827   4.148   2.995   0.007  0.0962 -0.4516 -0.5718
 4777WAT     H119828   4.067   2.965   0.019  0.6647 -1.4297  1.1343
 4777WAT     H219829   4.189   2.973   0.080  1.3108  2.1393 -0.3681
 4777WAT    EPW19830   4.142   2.987   0.020  0.3596 -0.2134 -0.2897
 4778WAT      O19831   0.933   3.439   4.336  0.2172 -0.0831 -0.1828
 4778WAT     H119832   0.930   3.519   4.371 -1.2615  0.6811 -1.9065
 4778WAT     H219833   0.924   3.386   4.405 -0.7001  1.2950  0.8018
 4778WAT    EPW19834   0.931   3.443   4.351 -0.1368  0.2334 -0.2920
 4779WAT      O19835   5.770   1.856   5.028 -0.3445 -0.1964  0.7124
 4779WAT     H119836   5.790   1.932   5.064 -1.0817  0.8725 -0.9727
 4779WAT     H219837   5.827   1.800   5.062  0.1758  1.0961  2.0312
 4779WAT    EPW19838   5.781   1.859   5.038 -0.3765  0.1524  0.6583
 4780WAT      O19839   1.959   4.956   4.800 -0.4608 -0.2062 -0.1724
 4780WAT     H119840   1.977   4.902   4.734  0.8022 -0.6382  0.4835
 4780WAT     H219841   1.874   4.944   4.814 -0.6022 -0.6253 -1.2488
 4780WAT    EPW19842   1.949   4.947   4.792 -0.2951 -0.3319 -0.2345
 4781WAT      O19843   0.656   2.590   0.480  0.0974 -0.3064 -1.0230
 4781WAT     H119844   0.655   2.617   0.564  0.0844  1.2046 -1.4719
 4781WAT     H219845   0.574   2.564   0.466 -0.1889  0.4818 -0.8718
 4781WAT    EPW19846   0.644   2.590   0.491  0.0532  0.0333 -1.0670
 4782WAT      O19847   1.394   2.924   0.388 -0.2780  0.2284  0.1438
 4782WAT     H119848   1.334   2.871   0.355  1.5164 -1.3400 -0.8515
 4782WAT     H219849   1.421   2.969   0.318  0.4822  0.0882  0.3370
 4782WAT    EPW19850   1.389   2.923   0.372  0.0994 -0.0240  0.0253
 4783WAT      O19851   3.283   1.813   5.211 -0.2635  0.0940  0.3743
 4783WAT     H119852   3.334   1.876   5.242 -1.5275  0.7167  1.3006
 4783WAT     H219853   3.260   1.842   5.132  0.2157  0.1584  0.2590
 4783WAT    EPW19854   3.287   1.827   5.204 -0.3794  0.1955  0.4941
 4784WAT      O19855   0.219   2.638   0.738 -0.1510 -0.3061  0.3737
 4784WAT     H119856   0.209   2.691   0.670 -1.2106 -1.1442 -0.1559
 4784WAT     H219857   0.140   2.602   0.748 -0.1945  0.2677  2.4672
 4784WAT    EPW19858   0.206   2.640   0.730 -0.3140 -0.3452  0.6047
 4785WAT      O19859   4.530   4.304   4.928 -0.2080  0.2938  0.2139
 4785WAT     H119860   4.506   4.262   4.855 -0.0683  0.0774  0.2908
 4785WAT     H219861   4.552   4.383   4.899  0.9875 -0.1438 -0.1700
 4785WAT    EPW19862   4.530   4.309   4.913 -0.0108  0.1972  0.1686
 4786WAT      O19863   4.017   0.406   1.912 -0.2120 -0.1035  0.0707
 4786WAT     H119864   3.947   0.355   1.918 -0.1054 -0.1694  0.7909
 4786WAT     H219865   4.037   0.403   1.827 -0.9543 -0.2456 -0.1036
 4786WAT    EPW19866   4.010   0.398   1.900 -0.3059 -0.1342  0.1514
 4787WAT      O19867   1.419   1.338   5.991 -1.0553 -0.0447 -0.1138
 4787WAT     H119868   1.483   1.289   5.960 -0.1509 -0.1296  1.7363
 4787WAT     H219869   1.352   1.282   5.998 -0.4624 -0.6801  0.6348
 4787WAT    EPW19870   1.418   1.323   5.988 -0.8341 -0.1511  0.2701
 4788WAT      O19871   0.878   2.174   1.588 -0.0701 -0.4775 -0.4061
 4788WAT     H119872   0.944   2.188   1.644  0.8011 -1.5172 -1.1289
 4788WAT     H219873   0.919   2.153   1.513 -1.2164 -0.0235 -1.1857
 4788WAT    EPW19874   0.894   2.173   1.585 -0.1107 -0.5640 -0.6280
 4789WAT      O19875   3.635   3.768   4.456  0.1676  0.3309  0.1751
 4789WAT     H119876   3.593   3.825   4.507  0.5711  0.1902  0.6678
 4789WAT     H219877   3.619   3.797   4.376 -0.2178  0.7305  0.3901
 4789WAT    EPW19878   3.626   3.781   4.452  0.1703  0.3692  0.2796
 4790WAT      O19879   6.414   3.033   0.870 -0.2853  0.1505  0.0658
 4790WAT     H119880   6.453   3.106   0.898 -0.4548 -0.3185  1.6323
 4790WAT     H219881   6.370   3.058   0.799  0.4225  1.3519  0.0346
 4790WAT    EPW19882   6.413   3.047   0.864 -0.2058  0.2587  0.2926
 4791WAT      O19883   1.373   3.624   4.864  0.0891 -0.3145 -0.3477
 4791WAT     H119884   1.333   3.700   4.851 -0.3839 -0.0372  2.1696
 4791WAT     H219885   1.437   3.645   4.920 -0.2093 -1.7897  0.5879
 4791WAT    EPW19886   1.377   3.638   4.870 -0.0248 -0.4914  0.1623
 4792WAT      O19887   5.513   0.273   5.380  0.2014  0.6358  0.5101
 4792WAT     H119888   5.498   0.249   5.298 -0.2543  0.8006  0.5408
 4792WAT     H219889   5.519   0.197   5.423  1.5019  0.5091  0.1610
 4792WAT    EPW19890   5.512   0.258   5.374  0.3262  0.6414  0.4631
 4793WAT      O19891   3.856   1.996   1.031  0.0573  0.3807 -0.0473
 4793WAT     H119892   3.830   1.930   0.980  0.6660 -2.2179  2.7161
 4793WAT     H219893   3.937   2.013   1.002 -0.2843  0.3254 -1.1025
 4793WAT    EPW19894   3.864   1.989   1.019  0.0968 -0.0113  0.2050
 4794WAT      O19895   6.189   5.784   1.451  0.6017  0.4781 -0.8273
 4794WAT     H119896   6.157   5.706   1.430  0.6057  0.7142 -1.7494
 4794WAT     H219897   6.268   5.766   1.484  1.6259  0.2224 -3.2144
 4794WAT    EPW19898   6.196   5.770   1.453  0.7536  0.4752 -1.3162
 4795WAT      O19899   5.605   6.889   0.856 -0.6695  0.2731 -0.2857
 4795WAT     H119900   5.593   6.833   0.921  0.1668  0.8902  0.4318
 4795WAT     H219901   5.690   6.907   0.859 -0.4274 -0.3636 -2.1401
 4795WAT    EPW19902   5.616   6.884   0.866 -0.5102  0.2702 -0.4536
 4796WAT      O19903   5.849   2.861   4.323  0.8798  0.6158  0.2877
 4796WAT     H119904   5.782   2.891   4.276  0.3200  0.2859  0.8455
 4796WAT     H219905   5.895   2.933   4.340  0.4558  0.9130  0.2165
 4796WAT    EPW19906   5.846   2.876   4.319  0.7345  0.6109  0.3596
 4797WAT      O19907   5.969   0.269   0.052  0.1265  0.4186 -0.3711
 4797WAT     H119908   5.996   0.263   0.135  0.4752  0.4554 -0.4807
 4797WAT     H219909   5.927   0.194   0.038 -0.2763  0.5775 -0.0383
 4797WAT    EPW19910   5.967   0.257   0.063  0.1185  0.4475 -0.3381
 4798WAT      O19911   3.695   7.080   0.520  0.1160  0.4721 -0.1121
 4798WAT     H119912   3.632   7.077   0.581 -1.0376 -0.2200 -1.2975
 4798WAT     H219913   3.737   7.004   0.530  0.9885  1.0368  0.8434
 4798WAT    EPW19914   3.692   7.068   0.531  0.0745  0.4533 -0.1461
 4799WAT      O19915   2.703   1.696   2.438  0.2191 -0.0137  0.3660
 4799WAT     H119916   2.688   1.739   2.512  0.0358  1.3656 -0.4444
 4799WAT     H219917   2.630   1.649   2.427 -1.6266  2.9261 -1.0260
 4799WAT    EPW19918   2.690   1.695   2.447 -0.0806  0.6243  0.0406
 4800WAT      O19919   2.471   6.429   6.260  0.1782 -0.9429 -0.1800
 4800WAT     H119920   2.479   6.515   6.271 -1.8575 -0.7050 -0.2204
 4800WAT     H219921   2.506   6.396   6.333 -0.6197  0.0117  0.6699
 4800WAT    EPW19922   2.478   6.437   6.273 -0.2404 -0.7668 -0.0604
 4801WAT      O19923   6.245   5.958   5.405  0.0725  0.5104 -0.0673
 4801WAT     H119924   6.160   5.944   5.419 -0.1677  0.6348 -1.2721
 4801WAT     H219925   6.284   5.898   5.455 -0.6843  0.9172  1.0535
 4801WAT    EPW19926   6.238   5.947   5.414 -0.0748  0.5889 -0.0797
 4802WAT      O19927   2.704   0.280   0.867 -0.1994 -0.0259 -0.0071
 4802WAT     H119928   2.669   0.325   0.933  0.5226 -0.3575  0.6055
 4802WAT     H219929   2.785   0.311   0.862  0.1308 -0.8702  0.0574
 4802WAT    EPW19930   2.711   0.291   0.876 -0.0439 -0.1996  0.0929
 4803WAT      O19931   4.001   2.431   4.977 -0.1204 -0.1637  0.0303
 4803WAT     H119932   4.037   2.498   5.019 -1.0574  1.2046 -1.2395
 4803WAT     H219933   4.046   2.426   4.902  1.1503 -2.1987  0.8300
 4803WAT    EPW19934   4.013   2.440   4.972 -0.0711 -0.2622 -0.0392
 4804WAT      O19935   1.930   7.013   2.778 -0.7017  0.1608  0.3979
 4804WAT     H119936   1.880   7.067   2.731 -0.4943 -0.3198 -0.4106
 4804WAT     H219937   2.009   7.023   2.743 -0.4677  0.0551  0.8890
 4804WAT    EPW19938   1.934   7.023   2.766 -0.6365  0.0742  0.3510
 4805WAT      O19939   6.882   0.478   0.487 -0.1947 -0.1056 -0.4183
 4805WAT     H119940   6.879   0.534   0.554 -0.7074  1.0052 -1.3310
 4805WAT     H219941   6.801   0.447   0.483 -0.5092  0.8155 -1.3207
 4805WAT    EPW19942   6.870   0.482   0.497 -0.3169  0.1945 -0.6865
 4806WAT      O19943   7.114   5.264   6.312 -0.0124  0.1769  0.5906
 4806WAT     H119944   7.041   5.311   6.306  0.3733  0.7084 -0.1176
 4806WAT     H219945   7.151   5.292   6.385 -1.1947 -1.1111  1.7344
 4806WAT    EPW19946   7.108   5.275   6.322 -0.1301  0.0651  0.6550
 4807WAT      O19947   6.010   6.011   6.451 -0.3302 -0.1817 -0.0265
 4807WAT     H119948   5.952   6.062   6.491 -1.0555  1.0240 -2.4289
 4807WAT     H219949   5.990   5.931   6.479 -1.1220  0.5237  1.5443
 4807WAT    EPW19950   5.999   6.007   6.461 -0.5543  0.1006 -0.1493
 4808WAT      O19951   3.449   0.712   7.120  0.6394  0.0544 -0.0827
 4808WAT     H119952   3.374   0.729   7.161  0.1878 -2.1975  0.1381
 4808WAT     H219953   3.433   0.734   7.037 -0.6376 -1.2893 -0.2253
 4808WAT    EPW19954   3.436   0.718   7.114  0.3841 -0.4767 -0.0711
 4809WAT      O19955   3.954   4.580   6.568 -0.1207  0.9108 -0.0624
 4809WAT     H119956   3.891   4.522   6.583  0.2533  0.5386  0.1046
 4809WAT     H219957   3.911   4.654   6.552 -0.6177  0.5053 -0.6726
 4809WAT    EPW19958   3.938   4.583   6.568 -0.1388  0.7959 -0.1279
 4810WAT      O19959   1.871   3.986   4.315 -0.4387 -0.0274  0.2586
 4810WAT     H119960   1.847   3.945   4.242 -0.9421  0.7906 -0.0434
 4810WAT     H219961   1.949   4.020   4.294 -0.3893 -0.1428  0.2495
 4810WAT    EPW19962   1.879   3.985   4.301 -0.5058  0.0764  0.2126
 4811WAT      O19963   0.377   4.995   1.892 -0.1846 -0.0465  0.6435
 4811WAT     H119964   0.390   5.081   1.895 -1.7193  0.2582 -0.6720
 4811WAT     H219965   0.423   4.966   1.961  2.8881  1.4383 -0.5879
 4811WAT    EPW19966   0.386   5.003   1.903  0.0426  0.2178  0.2672
 4812WAT      O19967   5.341   0.198   0.901 -0.5760  0.8135  0.0577
 4812WAT     H119968   5.386   0.162   0.966 -1.2939  0.8012  0.5559
 4812WAT     H219969   5.307   0.129   0.859 -3.1606  0.8280  1.8642
 4812WAT    EPW19970   5.343   0.183   0.904 -1.0638  0.8138  0.3982
 4813WAT      O19971   1.632   2.179   3.666 -0.0437  0.0044 -0.9551
 4813WAT     H119972   1.624   2.099   3.633  4.3415 -0.7919 -0.6510
 4813WAT     H219973   1.661   2.165   3.747 -2.0713  2.0105  0.2555
 4813WAT    EPW19974   1.635   2.165   3.673  0.3046  0.1831 -0.7314
 4814WAT      O19975   0.488   2.949   4.290  0.1314  0.3500 -0.3218
 4814WAT     H119976   0.466   2.919   4.369  1.6895 -1.9950 -0.7038
 4814WAT     H219977   0.572   2.969   4.298 -0.0717  1.5713 -1.0029
 4814WAT    EPW19978   0.497   2.948   4.303  0.3316  0.1840 -0.4788
 4815WAT      O19979   1.957   4.941   3.009 -0.3852  0.4340  0.7119
 4815WAT     H119980   1.882   4.978   3.035 -0.1750  0.3552  1.4474
 4815WAT     H219981   1.931   4.884   2.948 -1.2868 -1.6080  2.8472
 4815WAT    EPW19982   1.942   4.938   3.004 -0.4874  0.1207  1.1360
 4816WAT      O19983   4.089   7.186   6.346  0.1688 -0.2966  0.3162
 4816WAT     H119984   4.067   7.101   6.353 -1.1868  0.0906  1.1607
 4816WAT     H219985   4.083   7.201   6.260 -0.9349 -0.7416  0.2945
 4816WAT    EPW19986   4.085   7.176   6.334 -0.1944 -0.3052  0.4377
 4817WAT      O19987   4.494   4.879   3.161  0.2387  0.3218  1.0419
 4817WAT     H119988   4.443   4.810   3.177  0.8750 -1.0256 -2.0336
 4817WAT     H219989   4.574   4.845   3.157  0.6453  1.3544  0.0529
 4817WAT    EPW19990   4.498   4.864   3.163  0.3928  0.2753  0.4415
 4818WAT      O19991   3.267   3.846   1.411  0.1059 -0.5411  0.0763
 4818WAT     H119992   3.274   3.920   1.365  2.2208  0.9597  2.5534
 4818WAT     H219993   3.207   3.801   1.367 -1.3237  2.6149 -1.5608
 4818WAT    EPW19994   3.259   3.851   1.398  0.2071  0.1468  0.2004
 4819WAT      O19995   7.211   1.219   0.964  0.4072  0.6732 -0.0022
 4819WAT     H119996   7.130   1.223   0.931  0.7216 -0.3818 -0.9295
 4819WAT     H219997   7.197   1.221   1.050 -0.5251  1.7347 -0.1444
 4819WAT    EPW19998   7.197   1.220   0.972  0.3160  0.6742 -0.1602
 4820WAT      O19999   1.868   0.441   7.337 -0.0494  0.0408 -0.1206
 4820WAT     H120000   1.889   0.467   7.417 -1.1618  2.4239 -0.5045
 4820WAT     H220001   1.788   0.473   7.325  0.1694 -0.0355 -2.2540
 4820WAT    EPW20002   1.860   0.449   7.347 -0.1814  0.3815 -0.4925
 4821WAT      O20003   0.837   0.696   3.259  0.6403  0.2976 -0.0975
 4821WAT     H120004   0.883   0.755   3.214  3.1126 -1.5591 -0.2137
 4821WAT     H220005   0.815   0.636   3.199 -1.0202  0.5635  0.1916
 4821WAT    EPW20006   0.840   0.696   3.244  0.7602  0.0626 -0.0720
 4822WAT      O20007   1.411   6.583   2.705  0.5908 -0.7129  0.3118
 4822WAT     H120008   1.396   6.659   2.746  0.0878 -0.2096 -0.7479
 4822WAT     H220009   1.497   6.571   2.716  0.4288 -0.7614  1.7404
 4822WAT    EPW20010   1.422   6.593   2.713  0.4926 -0.6457  0.3663
 4823WAT      O20011   5.322   3.787   6.249 -0.6677 -0.7401 -0.1731
 4823WAT     H120012   5.404   3.813   6.260 -0.0238 -1.4389 -2.7014
 4823WAT     H220013   5.315   3.718   6.302  0.1683 -0.3437  0.4748
 4823WAT    EPW20014   5.333   3.780   6.259 -0.4491 -0.7848 -0.4509
 4824WAT      O20015   6.322   4.723   5.192  0.2591  0.2606 -0.0484
 4824WAT     H120016   6.388   4.666   5.180 -0.2313 -0.3861  0.2443
 4824WAT     H220017   6.360   4.791   5.229  0.3724 -1.1151  2.5683
 4824WAT    EPW20018   6.337   4.724   5.196  0.2034 -0.0382  0.3814
 4825WAT      O20019   2.840   0.542   0.029 -0.1508 -0.1532  0.3390
 4825WAT     H120020   2.810   0.461   0.025  1.1442 -0.6939  1.1397
 4825WAT     H220021   2.810   0.572   0.106 -0.0325 -0.1157  0.3709
 4825WAT    EPW20022   2.831   0.535   0.040  0.0580 -0.2276  0.4620
 4826WAT      O20023   4.833   5.362   2.976 -0.1335 -0.4287 -0.4854
 4826WAT     H120024   4.748   5.348   2.993 -0.5131  1.4019 -0.7004
 4826WAT     H220025   4.867   5.281   2.976 -1.2572 -1.0875  2.7408
 4826WAT    EPW20026   4.826   5.348   2.979 -0.3555 -0.2556 -0.0406
 4827WAT      O20027   5.291   6.557   4.647  0.4412  0.1236  0.4101
 4827WAT     H120028   5.216   6.573   4.604 -0.3191  2.2467  2.3078
 4827WAT     H220029   5.328   6.636   4.652  2.3308 -0.7307  0.4459
 4827WAT    EPW20030   5.285   6.571   4.641  0.6080  0.3110  0.6957
 4828WAT      O20031   3.947   1.739   2.538 -0.0848 -0.6123 -0.5638
 4828WAT     H120032   3.900   1.761   2.608  1.3132 -0.4334  0.3583
 4828WAT     H220033   3.891   1.695   2.489 -0.7965 -1.8114  1.2257
 4828WAT    EPW20034   3.932   1.736   2.541  0.0166 -0.7630 -0.1632
 4829WAT      O20035   2.481   4.932   6.295  0.1338 -0.0593  0.7271
 4829WAT     H120036   2.433   4.895   6.232  0.3427 -0.5199  0.8333
 4829WAT     H220037   2.531   4.866   6.324  1.7938  0.6840 -0.2873
 4829WAT    EPW20038   2.481   4.916   6.290  0.4099 -0.0176  0.5929
 4830WAT      O20039   6.039   0.869   6.469  0.0240 -0.1667  0.4444
 4830WAT     H120040   6.075   0.936   6.425 -3.4043  1.4959 -0.1580
 4830WAT     H220041   6.029   0.808   6.408  1.4242 -0.5317  0.5522
 4830WAT    EPW20042   6.043   0.870   6.453 -0.2756  0.0250  0.3713
 4831WAT      O20043   3.764   0.821   3.490  0.1702 -0.2935  0.2319
 4831WAT     H120044   3.747   0.766   3.425  1.0277 -1.0505  0.6291
 4831WAT     H220045   3.688   0.829   3.531  0.0812 -1.3536  0.2981
 4831WAT    EPW20046   3.751   0.814   3.486  0.2837 -0.5619  0.3004
 4832WAT      O20047   0.963   1.820   5.739  0.2379 -0.1701  0.4601
 4832WAT     H120048   1.030   1.786   5.784  0.2743 -1.1254 -0.2728
 4832WAT     H220049   0.893   1.781   5.773  0.3097 -1.3279 -0.6336
 4832WAT    EPW20050   0.963   1.809   5.751  0.2539 -0.4823  0.1903
 4833WAT      O20051   6.725   6.296   5.811  0.2480 -0.2056 -0.0379
 4833WAT     H120052   6.660   6.279   5.756 -0.3929  0.5731  0.4594
 4833WAT     H220053   6.688   6.346   5.872  1.4158  0.6401  0.0160
 4833WAT    EPW20054   6.710   6.301   5.812  0.3258  0.0343  0.0435
 4834WAT      O20055   6.211   2.291   2.001  0.3710 -0.1210  1.3591
 4834WAT     H120056   6.288   2.320   2.029 -0.1093  1.2994  1.2808
 4834WAT     H220057   6.156   2.357   2.018 -0.6534 -0.7299  0.5772
 4834WAT    EPW20058   6.214   2.305   2.007  0.1487 -0.0011  1.2320
 4835WAT      O20059   3.495   3.543   4.424 -0.0864  0.0287 -0.5329
 4835WAT     H120060   3.465   3.502   4.495  0.4177 -0.3985 -0.5595
 4835WAT     H220061   3.557   3.596   4.456  2.6297 -2.6039 -0.9380
 4835WAT    EPW20062   3.500   3.545   4.439  0.3893 -0.4233 -0.5966
 4836WAT      O20063   4.280   6.170   6.387 -0.3111  0.1151  0.3943
 4836WAT     H120064   4.353   6.126   6.368 -0.9533 -0.4794 -0.8666
 4836WAT     H220065   4.243   6.122   6.451  0.4574  0.5057  1.1438
 4836WAT    EPW20066   4.285   6.156   6.394 -0.2924  0.0850  0.3188
 4837WAT      O20067   0.846   5.082   1.397  0.5520  0.0301 -0.0742
 4837WAT     H120068   0.818   5.161   1.419  0.8583  0.4868 -1.2677
 4837WAT     H220069   0.832   5.034   1.469  0.5430  1.2020  0.7196
 4837WAT    EPW20070   0.840   5.086   1.411  0.5959  0.2707 -0.1332
 4838WAT      O20071   4.051   3.879   1.520 -0.6436  0.0066 -0.1893
 4838WAT     H120072   4.137   3.893   1.523 -0.8331  1.3218  1.9898
 4838WAT     H220073   4.043   3.798   1.551 -0.2178  0.5289  1.4235
 4838WAT    EPW20074   4.063   3.869   1.525 -0.6087  0.2780  0.3709
 4839WAT      O20075   6.922   4.570   5.229 -0.0440 -0.0524 -1.0167
 4839WAT     H120076   6.923   4.489   5.194  0.0287  0.4492 -2.2328
 4839WAT     H220077   6.891   4.557   5.310  0.2186 -1.3324 -1.1007
 4839WAT    EPW20078   6.917   4.556   5.236  0.0055 -0.1674 -1.2088
 4840WAT      O20079   6.296   3.170   1.871  0.6173 -0.6452 -0.1234
 4840WAT     H120080   6.337   3.173   1.794 -1.8210 -0.3158 -1.4868
 4840WAT     H220081   6.246   3.099   1.864 -0.5637  0.0845  0.6488
 4840WAT    EPW20082   6.295   3.160   1.858  0.0827 -0.4888 -0.2107
 4841WAT      O20083   2.992   6.449   5.506 -0.1386  0.2000 -0.1830
 4841WAT     H120084   2.961   6.522   5.470  0.2164  0.5536  0.2119
 4841WAT     H220085   3.015   6.400   5.438  0.1730  0.7024 -0.4442
 4841WAT    EPW20086   2.991   6.452   5.491 -0.0402  0.3264 -0.1633
 4842WAT      O20087   1.415   6.851   4.172  0.2492  0.0590  0.7741
 4842WAT     H120088   1.328   6.847   4.174 -0.1172  3.3953 -0.9804
 4842WAT     H220089   1.435   6.818   4.093  0.5034 -0.0410  0.8786
 4842WAT    EPW20090   1.405   6.846   4.160  0.2327  0.5370  0.5304
 4843WAT      O20091   1.011   1.803   2.727  0.5749 -0.2801  0.4063
 4843WAT     H120092   0.976   1.728   2.701 -0.7550  0.5665 -0.3647
 4843WAT     H220093   1.038   1.840   2.653  0.3753  0.4109  0.6736
 4843WAT    EPW20094   1.010   1.797   2.713  0.3490 -0.0530  0.3319
 4844WAT      O20095   0.792   4.851   4.192  0.0865 -0.3562  0.1481
 4844WAT     H120096   0.773   4.768   4.206  0.3668 -0.2476  1.2553
 4844WAT     H220097   0.726   4.894   4.229 -0.0066 -0.0775 -0.3292
 4844WAT    EPW20098   0.779   4.845   4.200  0.1142 -0.2990  0.2411
 4845WAT      O20099   4.094   6.231   3.084 -0.1964  0.0046  0.0720
 4845WAT     H120100   4.055   6.217   3.007  0.8373  2.2142 -0.9564
 4845WAT     H220101   4.172   6.193   3.075 -0.7310 -1.3127  0.7662
 4845WAT    EPW20102   4.100   6.223   3.071 -0.1227  0.1364  0.0226
 4846WAT      O20103   2.587   2.287   2.506  0.0051  0.7672  0.0406
 4846WAT     H120104   2.584   2.370   2.478  0.7821  0.4721 -0.9693
 4846WAT     H220105   2.662   2.257   2.473 -0.1176 -0.2506  0.6586
 4846WAT    EPW20106   2.597   2.295   2.497  0.1017  0.5733 -0.0173
 4847WAT      O20107   2.519   6.017   7.248 -0.1054 -0.3503 -0.0295
 4847WAT     H120108   2.451   6.071   7.256 -0.8814 -1.1053 -1.1523
 4847WAT     H220109   2.574   6.061   7.197 -0.0774 -0.0157  0.2930
 4847WAT    EPW20110   2.517   6.031   7.241 -0.2159 -0.4124 -0.1477
 4848WAT      O20111   4.096   4.605   2.860  0.1607 -0.0629 -0.4756
 4848WAT     H120112   4.015   4.572   2.853 -0.3912  1.3777 -1.2414
 4848WAT     H220113   4.124   4.573   2.936 -0.9266 -1.0078 -0.4409
 4848WAT    EPW20114   4.088   4.595   2.870 -0.0814  0.0103 -0.5836
 4849WAT      O20115   5.796   5.523   3.283  0.0275  0.0920  0.1124
 4849WAT     H120116   5.834   5.596   3.313 -0.4646 -0.4939  2.3524
 4849WAT     H220117   5.740   5.501   3.347  1.1191 -2.9863  0.1929
 4849WAT    EPW20118   5.793   5.531   3.297  0.1161 -0.4492  0.4552
 4850WAT      O20119   4.208   3.530   3.933 -0.3850 -0.0658  0.5257
 4850WAT     H120120   4.219   3.593   3.994 -0.3783  0.6876 -0.2346
 4850WAT     H220121   4.197   3.575   3.859 -0.2578 -0.9758 -0.0598
 4850WAT    EPW20122   4.208   3.546   3.931 -0.3652 -0.0889  0.3269
 4851WAT      O20123   6.207   0.383   3.486  0.1193 -0.6437 -0.3288
 4851WAT     H120124   6.277   0.341   3.515  0.7241  0.8187  0.4265
 4851WAT     H220125   6.227   0.401   3.403  0.1125 -1.2732 -0.4740
 4851WAT    EPW20126   6.220   0.380   3.478  0.2077 -0.5207 -0.2387
 4852WAT      O20127   3.339   0.457   2.802 -0.2089  0.4865  1.2090
 4852WAT     H120128   3.423   0.455   2.827 -0.2535  0.5013  1.3624
 4852WAT     H220129   3.296   0.425   2.872 -0.0564 -2.9150 -0.0346
 4852WAT    EPW20130   3.345   0.452   2.816 -0.1930 -0.0138  1.0479
 4853WAT      O20131   3.350   3.741   4.587 -0.8889  0.0419  0.3241
 4853WAT     H120132   3.388   3.818   4.605 -0.3057 -0.1044 -0.2556
 4853WAT     H220133   3.337   3.744   4.501 -0.8603 -0.5056  0.2945
 4853WAT    EPW20134   3.354   3.753   4.577 -0.7985 -0.0606  0.2341
 4854WAT      O20135   1.213   5.020   6.510 -0.6283  0.0181  0.4653
 4854WAT     H120136   1.241   5.080   6.566 -0.2505  0.6186 -0.3414
 4854WAT     H220137   1.286   4.982   6.481 -0.7044  0.6726 -0.6433
 4854WAT    EPW20138   1.228   5.023   6.514 -0.5837  0.2035  0.1823
 4855WAT      O20139   4.389   2.926   6.611 -0.0843 -0.4597  0.1523
 4855WAT     H120140   4.389   2.973   6.538 -0.9663 -3.0095 -1.6230
 4855WAT     H220141   4.304   2.922   6.633 -0.0581 -1.3894  0.1207
 4855WAT    EPW20142   4.376   2.933   6.604 -0.2107 -0.9737 -0.1146
 4856WAT      O20143   1.086   4.292   0.602  0.0040 -0.5891 -0.3985
 4856WAT     H120144   1.098   4.216   0.641  1.9376  0.4245  1.1317
 4856WAT     H220145   1.166   4.318   0.579 -0.5307  1.1595 -0.4989
 4856WAT    EPW20146   1.099   4.285   0.604  0.2107 -0.1811 -0.1873
 4857WAT      O20147   2.643   3.675   7.038 -0.4771  0.1785  0.2826
 4857WAT     H120148   2.698   3.690   7.104 -0.4000 -0.1833  0.3041
 4857WAT     H220149   2.696   3.664   6.970 -0.4530 -1.1460  0.4838
 4857WAT    EPW20150   2.659   3.676   7.038 -0.4622 -0.0706  0.3155
 4858WAT      O20151   1.374   0.405   1.597  0.0537  0.1434 -0.3320
 4858WAT     H120152   1.438   0.432   1.544  1.1574  2.4309  1.9256
 4858WAT     H220153   1.342   0.334   1.557  1.5617  0.9957 -3.3669
 4858WAT    EPW20154   1.378   0.398   1.583  0.4395  0.6072 -0.4468
 4859WAT      O20155   5.962   5.997   1.504  0.4871  0.0160 -0.1735
 4859WAT     H120156   5.999   6.025   1.578  3.4707  1.4745 -2.0281
 4859WAT     H220157   6.027   5.956   1.462 -0.6499  0.4911 -2.6084
 4859WAT    EPW20158   5.977   5.995   1.509  0.7599  0.3016 -0.8072
 4860WAT      O20159   6.713   3.464   2.586  0.2719  0.5905 -0.2656
 4860WAT     H120160   6.642   3.513   2.604 -0.4248 -0.0864 -1.1071
 4860WAT     H220161   6.761   3.471   2.659 -1.5252 -0.4574  1.1175
 4860WAT    EPW20162   6.710   3.472   2.599 -0.0965  0.3357 -0.1856
 4861WAT      O20163   5.718   3.029   6.946  0.4636  0.3552 -0.2692
 4861WAT     H120164   5.770   2.980   6.895  1.8336  1.3622  0.1154
 4861WAT     H220165   5.697   2.975   7.012  1.8106  0.2193  0.0650
 4861WAT    EPW20166   5.722   3.014   6.948  0.8650  0.4839 -0.1630
 4862WAT      O20167   2.385   5.490   6.046  0.9133  0.3388 -0.3747
 4862WAT     H120168   2.327   5.425   6.044  2.3264 -0.9953 -2.6526
 4862WAT     H220169   2.453   5.457   6.090  1.0081  0.8697 -0.1100
 4862WAT    EPW20170   2.387   5.476   6.052  1.1361  0.2201 -0.6721
 4863WAT      O20171   6.538   3.422   6.768 -0.1460 -0.3735  0.2697
 4863WAT     H120172   6.454   3.408   6.786 -0.0593  0.1110  1.0783
 4863WAT     H220173   6.569   3.456   6.842  0.5785  0.1915 -0.2891
 4863WAT    EPW20174   6.530   3.425   6.781 -0.0262 -0.2185  0.3066
 4864WAT      O20175   4.498   4.038   6.254  0.0446 -0.5747 -0.2101
 4864WAT     H120176   4.420   4.076   6.248  0.1105 -0.3459  0.2732
 4864WAT     H220177   4.515   4.011   6.173 -0.4335 -0.4221 -0.3618
 4864WAT    EPW20178   4.489   4.040   6.241 -0.0163 -0.5183 -0.1611
 4865WAT      O20179   4.524   4.963   4.942  0.6170 -0.2685 -0.4432
 4865WAT     H120180   4.474   4.964   4.870 -1.2913  0.3510  0.8212
 4865WAT     H220181   4.604   4.981   4.911 -0.0979 -0.2417 -2.4318
 4865WAT    EPW20182   4.529   4.966   4.926  0.2295 -0.1730 -0.5502
 4866WAT      O20183   3.255   3.174   0.445 -0.2619  0.4364 -0.1072
 4866WAT     H120184   3.304   3.247   0.442  0.1995  0.1264 -0.2435
 4866WAT     H220185   3.198   3.190   0.509  0.9971  0.1981  1.1266
 4866WAT    EPW20186   3.254   3.187   0.454 -0.0078  0.3554  0.0549
 4867WAT      O20187   6.010   2.064   3.344 -0.7658  0.8378  0.3624
 4867WAT     H120188   5.938   2.108   3.322 -1.6027 -0.6323  0.1018
 4867WAT     H220189   5.980   1.992   3.382  0.5637  0.2157  0.2893
 4867WAT    EPW20190   5.995   2.060   3.346 -0.6930  0.5287  0.3131
 4868WAT      O20191   5.437   4.782   6.632  0.5554 -0.1550 -0.1641
 4868WAT     H120192   5.446   4.850   6.686  0.1061 -1.0964  1.1585
 4868WAT     H220193   5.355   4.788   6.605  0.1204 -0.8493  0.9494
 4868WAT    EPW20194   5.426   4.793   6.636  0.4248 -0.3966  0.1958
 4869WAT      O20195   2.753   0.402   2.962  0.1832  0.4028 -0.3659
 4869WAT     H120196   2.732   0.417   2.879  1.0042  1.0161 -0.4671
 4869WAT     H220197   2.814   0.461   2.980 -0.7500  1.0059  1.0193
 4869WAT    EPW20198   2.759   0.413   2.953  0.1666  0.5825 -0.1762
 4870WAT      O20199   5.894   7.135   0.303  0.2800 -0.5014  0.1611
 4870WAT     H120200   5.978   7.112   0.310  0.8428  0.5828 -2.0896
 4870WAT     H220201   5.854   7.061   0.279  0.4238 -1.1844  1.8940
 4870WAT    EPW20202   5.900   7.121   0.300  0.3844 -0.4422  0.0846
 4871WAT      O20203   3.650   3.298   5.858  0.2919 -0.1387  0.1721
 4871WAT     H120204   3.609   3.302   5.781 -0.2998  1.7427  0.5301
 4871WAT     H220205   3.585   3.296   5.916  0.5958  2.1521  0.7193
 4871WAT    EPW20206   3.635   3.299   5.855  0.2494  0.4776  0.3058
 4872WAT      O20207   4.101   4.109   3.491  0.3041 -0.4148  0.1954
 4872WAT     H120208   4.028   4.122   3.445 -0.5646 -2.5203  0.8285
 4872WAT     H220209   4.095   4.025   3.515  1.1551  0.2839  3.3203
 4872WAT    EPW20210   4.089   4.098   3.488  0.3014 -0.6226  0.7506
 4873WAT      O20211   3.054   0.841   5.544 -0.4750 -0.0500  0.2700
 4873WAT     H120212   3.071   0.854   5.459 -2.4921 -0.9863 -0.3329
 4873WAT     H220213   3.108   0.776   5.565 -1.2371 -1.0878 -0.8342
 4873WAT    EPW20214   3.065   0.833   5.535 -0.8855 -0.3416  0.0179
 4874WAT      O20215   1.360   2.689   6.563  0.7160  0.0502 -0.3404
 4874WAT     H120216   1.308   2.752   6.592  0.7308 -0.3216  0.5019
 4874WAT     H220217   1.366   2.634   6.630 -0.5795 -1.6985 -1.5522
 4874WAT    EPW20218   1.353   2.690   6.577  0.5268 -0.2631 -0.3950
 4875WAT      O20219   2.524   2.014   6.429 -0.2767  0.3992  0.4436
 4875WAT     H120220   2.443   1.987   6.448 -0.2662  0.8890  1.2302
 4875WAT     H220221   2.568   1.940   6.421 -1.3083 -0.0241 -2.5914
 4875WAT    EPW20222   2.518   1.999   6.431 -0.4276  0.4090  0.1114
 4876WAT      O20223   3.959   1.155   1.864 -0.4127  0.0258 -0.3485
 4876WAT     H120224   3.994   1.077   1.881 -0.6578  0.5058  2.9202
 4876WAT     H220225   4.022   1.211   1.887 -1.3090  0.8175  0.2499
 4876WAT    EPW20226   3.974   1.152   1.870 -0.5813  0.2137  0.2228
 4877WAT      O20227   4.404   6.066   6.050 -0.2040 -0.5343  0.4114
 4877WAT     H120228   4.455   6.036   5.985  0.0254  0.6295  0.0236
 4877WAT     H220229   4.455   6.124   6.091  0.0635 -2.0636  2.3951
 4877WAT    EPW20230   4.419   6.070   6.046 -0.1306 -0.5883  0.6471
 4878WAT      O20231   6.581   0.663   0.193 -0.2612 -0.2160  0.0665
 4878WAT     H120232   6.649   0.619   0.160 -1.2530 -1.6533 -0.1624
 4878WAT     H220233   6.533   0.681   0.123 -0.0005  1.0821  0.1883
 4878WAT    EPW20234   6.584   0.659   0.178 -0.3692 -0.2365  0.0507
 4879WAT      O20235   3.095   3.061   6.098  0.0217 -0.1844  0.0410
 4879WAT     H120236   3.083   2.990   6.147  2.3421 -3.1914 -3.2325
 4879WAT     H220237   3.036   3.052   6.035  1.6836 -0.4699 -1.5531
 4879WAT    EPW20238   3.085   3.049   6.096  0.6099 -0.6708 -0.6780
 4880WAT      O20239   6.982   1.806   7.308 -0.0343  0.2050 -0.1244
 4880WAT     H120240   7.034   1.744   7.275 -0.2078  0.7553 -1.5128
 4880WAT     H220241   6.996   1.874   7.255 -0.4800  1.0785  0.8606
 4880WAT    EPW20242   6.992   1.807   7.295 -0.1258  0.4153 -0.1840
 4881WAT      O20243   0.359   6.423   5.481 -0.4202  0.1325  0.5840
 4881WAT     H120244   0.394   6.502   5.487  1.6804 -0.8295  2.2965
 4881WAT     H220245   0.307   6.418   5.551 -1.5331  0.4061 -0.2012
 4881WAT    EPW20246   0.357   6.434   5.493 -0.2743  0.0308  0.7210
 4882WAT      O20247   5.005   2.839   1.404  0.7251 -0.1454 -0.1275
 4882WAT     H120248   4.978   2.915   1.435  0.1129  0.1839 -1.3910
 4882WAT     H220249   4.958   2.828   1.331  1.6406 -1.1518 -0.6111
 4882WAT    EPW20250   4.994   2.849   1.398  0.7699 -0.2454 -0.3856
 4883WAT      O20251   6.035   5.530   7.405  0.4474 -0.5619 -0.4807
 4883WAT     H120252   6.012   5.463   7.456  0.3824  0.1229  0.4325
 4883WAT     H220253   6.095   5.496   7.352  1.8505 -0.9198  1.2279
 4883WAT    EPW20254   6.041   5.515   7.405  0.6451 -0.5136 -0.0934
 4884WAT      O20255   3.534   3.563   4.710 -0.4673  0.7463 -0.5574
 4884WAT     H120256   3.584   3.586   4.778 -3.8219 -0.9045  2.8474
 4884WAT     H220257   3.504   3.639   4.680  0.4968  1.5064  0.3124
 4884WAT    EPW20258   3.537   3.577   4.715 -0.8204  0.6147  0.0740
 4885WAT      O20259   1.838   4.103   0.031 -0.7293 -0.3539  0.0024
 4885WAT     H120260   1.822   4.022   0.058  1.1871 -0.1544  2.0323
 4885WAT     H220261   1.836   4.150   0.104  1.3775  0.8434 -0.6239
 4885WAT    EPW20262   1.835   4.098   0.046 -0.1350 -0.1476  0.2097
 4886WAT      O20263   4.485   2.442   3.565 -0.3088  0.0676  0.6138
 4886WAT     H120264   4.462   2.458   3.648  0.0605  0.5011  0.6359
 4886WAT     H220265   4.440   2.502   3.520 -1.1825 -0.7117  0.4036
 4886WAT    EPW20266   4.475   2.454   3.571 -0.3833  0.0165  0.5860
 4887WAT      O20267   1.195   5.229   3.983  0.4604 -0.5155 -0.1808
 4887WAT     H120268   1.156   5.172   3.930  1.7442 -0.9293 -0.7009
 4887WAT     H220269   1.225   5.290   3.929 -0.8942  0.7116  0.3671
 4887WAT    EPW20270   1.193   5.230   3.967  0.4499 -0.3953 -0.1767
 4888WAT      O20271   3.090   0.206   6.625  0.2130 -0.2377 -0.2042
 4888WAT     H120272   3.120   0.164   6.695 -1.7629  0.6210  1.2397
 4888WAT     H220273   3.154   0.262   6.606  1.3742 -1.4370 -0.0001
 4888WAT    EPW20274   3.104   0.208   6.633  0.0927 -0.2880  0.0392
 4889WAT      O20275   4.921   5.298   4.262 -0.7310  0.0069 -0.2377
 4889WAT     H120276   4.957   5.229   4.302 -0.1557 -0.3903 -1.3691
 4889WAT     H220277   4.974   5.364   4.283 -0.0102 -0.3398 -0.8876
 4889WAT    EPW20278   4.935   5.297   4.271 -0.5396 -0.1030 -0.5009
 4890WAT      O20279   5.125   1.520   0.672 -0.3169 -0.0188  0.1284
 4890WAT     H120280   5.048   1.479   0.666 -0.1444 -0.3269 -0.0064
 4890WAT     H220281   5.133   1.535   0.758 -0.7464  0.4432  0.0895
 4890WAT    EPW20282   5.114   1.516   0.684 -0.3549  0.0039  0.1028
 4891WAT      O20283   5.151   6.365   4.228  0.3556 -0.1439 -0.3023
 4891WAT     H120284   5.170   6.443   4.194  2.3325  0.6063  2.1983
 4891WAT     H220285   5.229   6.325   4.233 -0.0184 -0.7593  1.8008
 4891WAT    EPW20286   5.166   6.370   4.224  0.5924 -0.1240  0.3778
 4892WAT      O20287   6.870   5.474   1.111 -0.0709  0.0853  0.1975
 4892WAT     H120288   6.819   5.456   1.042  0.8199 -3.0226  0.1996
 4892WAT     H220289   6.826   5.440   1.178  1.2813 -1.4276  0.3794
 4892WAT    EPW20290   6.856   5.466   1.111  0.2604 -0.5973  0.2247
 4893WAT      O20291   3.392   6.654   7.359 -0.5533  0.3167  0.1788
 4893WAT     H120292   3.423   6.608   7.427  0.0761  0.9589  0.3394
 4893WAT     H220293   3.412   6.736   7.380  1.7369  0.3547 -1.8274
 4893WAT    EPW20294   3.400   6.659   7.372 -0.1220  0.4172 -0.0938
 4894WAT      O20295   3.875   1.978   4.296 -0.1535 -0.1759 -0.3605
 4894WAT     H120296   3.944   2.014   4.256  2.8377 -3.5917  1.2115
 4894WAT     H220297   3.864   2.029   4.367 -0.4144  1.3451 -1.4347
 4894WAT    EPW20298   3.884   1.991   4.301  0.2498 -0.4558 -0.2869
 4895WAT      O20299   4.900   4.094   0.425 -0.1925  0.0342 -0.1298
 4895WAT     H120300   4.850   4.165   0.431 -0.8742 -0.5696  2.5508
 4895WAT     H220301   4.961   4.107   0.486 -0.6506 -1.8757  0.8105
 4895WAT    EPW20302   4.902   4.107   0.435 -0.3609 -0.3371  0.4051
 4896WAT      O20303   2.845   3.919   1.761  0.1262  0.0209 -0.2071
 4896WAT     H120304   2.791   3.878   1.706 -1.3300 -0.6082  1.5551
 4896WAT     H220305   2.904   3.859   1.782 -0.5582 -0.4371  0.4765
 4896WAT    EPW20306   2.846   3.904   1.756 -0.1900 -0.1397  0.1542
 4897WAT      O20307   4.037   5.133   0.676 -0.6789 -0.3734 -0.2006
 4897WAT     H120308   4.114   5.150   0.639 -0.4016 -0.6562  0.2380
 4897WAT     H220309   4.033   5.188   0.744 -1.0192 -0.1170 -0.4245
 4897WAT    EPW20310   4.048   5.144   0.681 -0.6882 -0.3773 -0.1689
 4898WAT      O20311   2.222   1.001   2.692  0.3187 -0.7883  0.0267
 4898WAT     H120312   2.289   1.035   2.737 -0.5931  1.4411 -0.1506
 4898WAT     H220313   2.240   1.023   2.610  0.0814 -1.4465 -0.2002
 4898WAT    EPW20314   2.235   1.009   2.687  0.1489 -0.5562 -0.0330
 4899WAT      O20315   5.109   3.003   2.806  0.0273 -0.1041 -0.2054
 4899WAT     H120316   5.139   3.051   2.872  0.2966 -0.3849 -0.1248
 4899WAT     H220317   5.179   2.986   2.758 -0.2212  0.3889 -0.7581
 4899WAT    EPW20318   5.124   3.008   2.809  0.0304 -0.0728 -0.2751
 4900WAT      O20319   7.064   0.412   0.283  0.2218  0.0182  0.5617
 4900WAT     H120320   7.055   0.327   0.265 -0.9106 -0.0672  1.4226
 4900WAT     H220321   7.002   0.427   0.343 -0.7480  1.8380 -0.7913
 4900WAT    EPW20322   7.053   0.402   0.289 -0.0888  0.2744  0.4890
 4901WAT      O20323   3.426   6.185   1.327 -0.5450  0.3623  0.1872
 4901WAT     H120324   3.475   6.114   1.311 -0.6035  0.5309 -0.8180
 4901WAT     H220325   3.345   6.158   1.307 -0.9624 -0.0268  2.1838
 4901WAT    EPW20326   3.422   6.170   1.322 -0.6153  0.3298  0.3336
 4902WAT      O20327   0.266   2.403   4.192 -0.4281  0.0206 -0.1144
 4902WAT     H120328   0.245   2.480   4.227  1.6492  0.5426  0.0876
 4902WAT     H220329   0.325   2.423   4.132 -0.9001 -1.3071 -1.0705
 4902WAT    EPW20330   0.271   2.417   4.188 -0.1909 -0.0984 -0.2258
 4903WAT      O20331   7.175   3.413   2.833 -0.3444  0.0861 -0.8541
 4903WAT     H120332   7.171   3.454   2.756 -0.0784  1.3533 -0.2111
 4903WAT     H220333   7.117   3.348   2.824 -0.9714  0.7548 -1.8138
 4903WAT    EPW20334   7.166   3.409   2.820 -0.3977  0.3720 -0.9009
 4904WAT      O20335   7.165   1.464   3.772 -0.0718 -0.2194  0.2648
 4904WAT     H120336   7.187   1.420   3.700  0.1727 -1.1898  0.9099
 4904WAT     H220337   7.239   1.466   3.818 -0.0031  1.1314  0.1364
 4904WAT    EPW20338   7.179   1.458   3.768 -0.0255 -0.1632  0.3411
 4905WAT      O20339   7.238   5.101   5.427 -0.1947  0.2334 -0.0384
 4905WAT     H120340   7.291   5.164   5.398 -0.4546  0.0582 -0.9301
 4905WAT     H220341   7.171   5.145   5.462 -0.2715  0.4629 -0.4611
 4905WAT    EPW20342   7.236   5.117   5.428 -0.2444  0.2415 -0.2325
 4906WAT      O20343   4.651   4.204   4.033 -0.2580 -0.3389 -0.2428
 4906WAT     H120344   4.738   4.198   4.037  0.0044  1.8618 -1.3066
 4906WAT     H220345   4.630   4.161   3.960  0.2337  1.1446 -1.2961
 4906WAT    EPW20346   4.661   4.197   4.023 -0.1466  0.2053 -0.5556
 4907WAT      O20347   6.528   0.201   6.450 -0.1313 -0.1550  0.4665
 4907WAT     H120348   6.527   0.126   6.406 -2.1776 -0.4413  0.8918
 4907WAT     H220349   6.612   0.214   6.466  0.3894 -1.6888 -0.7377
 4907WAT    EPW20350   6.540   0.192   6.446 -0.3567 -0.4239  0.3515
 4908WAT      O20351   2.289   0.952   3.082 -0.1661 -0.2911  0.5324
 4908WAT     H120352   2.223   0.904   3.113 -0.6104 -0.2122 -0.2574
 4908WAT     H220353   2.340   0.894   3.042 -0.1947 -0.2347  0.4151
 4908WAT    EPW20354   2.287   0.937   3.081 -0.2359 -0.2711  0.3984
 4909WAT      O20355   3.949   5.519   6.514 -0.1618 -0.3133  0.3528
 4909WAT     H120356   3.897   5.589   6.511 -0.4756 -0.5725 -1.0667
 4909WAT     H220357   3.899   5.457   6.550 -0.8432 -0.5178 -0.8597
 4909WAT    EPW20358   3.934   5.520   6.519 -0.3088 -0.3818 -0.0360
 4910WAT      O20359   5.949   2.423   3.829 -0.1994 -0.0272  0.6179
 4910WAT     H120360   6.000   2.421   3.758  0.7283 -0.7013  1.2780
 4910WAT     H220361   5.945   2.339   3.853 -0.4073  0.2076  1.4239
 4910WAT    EPW20362   5.956   2.410   3.822 -0.0931 -0.0921  0.8345
 4911WAT      O20363   4.041   5.072   2.400 -0.0233  0.3418 -0.1916
 4911WAT     H120364   4.008   5.090   2.321 -1.2554 -2.5455 -0.4538
 4911WAT     H220365   3.972   5.049   2.447  1.1222 -2.2186  0.3993
 4911WAT    EPW20366   4.026   5.072   2.395 -0.0361 -0.4629 -0.1430
 4912WAT      O20367   6.681   5.545   2.148  0.5292 -0.7099  0.3323
 4912WAT     H120368   6.672   5.612   2.093 -0.0564 -2.2862 -1.5701
 4912WAT     H220369   6.714   5.583   2.220 -0.7186  1.7630 -0.2830
 4912WAT    EPW20370   6.685   5.561   2.151  0.2584 -0.5774 -0.0396
 4913WAT      O20371   7.209   2.296   5.656 -0.4262 -0.9560  0.1155
 4913WAT     H120372   7.294   2.281   5.664  0.3312  2.7556  0.8254
 4913WAT     H220373   7.180   2.228   5.610  3.2530 -1.4296 -1.8266
 4913WAT    EPW20374   7.217   2.284   5.650  0.2292 -0.4777 -0.0665
 4914WAT      O20375   3.738   5.922   1.605 -0.1659  0.4919  0.5109
 4914WAT     H120376   3.691   5.922   1.532  1.1493 -0.3377 -0.3976
 4914WAT     H220377   3.734   6.004   1.633 -0.5703  0.8627 -0.5918
 4914WAT    EPW20378   3.731   5.934   1.598 -0.0314  0.4242  0.2138
 4915WAT      O20379   0.652   5.731   3.607  0.1947  0.1209  0.2946
 4915WAT     H120380   0.588   5.789   3.602  0.5236  0.5518  0.9753
 4915WAT     H220381   0.723   5.779   3.622  0.9057 -0.2327 -1.6133
 4915WAT    EPW20382   0.653   5.746   3.609  0.3483  0.1323  0.1133
 4916WAT      O20383   5.409   3.557   1.300 -0.6830 -0.5863 -0.3800
 4916WAT     H120384   5.355   3.496   1.269 -1.5109  0.0957 -0.3302
 4916WAT     H220385   5.437   3.523   1.375 -1.7004 -0.6283  0.0054
 4916WAT    EPW20386   5.405   3.543   1.307 -0.9556 -0.4918 -0.3157
 4917WAT      O20387   5.724   5.264   6.023 -0.4552  0.3625 -0.3986
 4917WAT     H120388   5.744   5.184   6.052 -2.3870 -0.5476 -1.4100
 4917WAT     H220389   5.768   5.271   5.948 -0.6282  0.0676 -0.5285
 4917WAT    EPW20390   5.733   5.253   6.017 -0.7661  0.1845 -0.5672
 4918WAT      O20391   4.337   5.508   0.318  0.2299  0.5365 -0.2235
 4918WAT     H120392   4.384   5.571   0.356 -2.1526  1.3425  1.6224
 4918WAT     H220393   4.294   5.550   0.254  1.5915 -0.1303 -1.6724
 4918WAT    EPW20394   4.338   5.523   0.314  0.0791  0.5570 -0.1648
 4919WAT      O20395   1.222   2.012   0.493  0.3327  0.6820 -0.2921
 4919WAT     H120396   1.239   2.022   0.408  0.1532 -1.0166 -0.5745
 4919WAT     H220397   1.141   1.981   0.494  0.5443  0.1263  0.4399
 4919WAT    EPW20398   1.213   2.009   0.480  0.3374  0.3490 -0.2257
 4920WAT      O20399   4.164   0.996   2.911  0.2324 -0.4797 -0.4523
 4920WAT     H120400   4.120   0.923   2.931  0.9443 -0.9044 -0.4089
 4920WAT     H220401   4.154   1.002   2.824  0.6430 -0.9484 -0.5375
 4920WAT    EPW20402   4.156   0.986   2.901  0.3982 -0.6117 -0.4585
 4921WAT      O20403   3.933   3.927   3.706 -0.2562  0.2098  0.0089
 4921WAT     H120404   3.909   4.010   3.692  0.8940  0.6001  0.2133
 4921WAT     H220405   3.892   3.905   3.779 -0.7949  0.5035 -0.1999
 4921WAT    EPW20406   3.924   3.936   3.714 -0.1659  0.3108  0.0082
 4922WAT      O20407   6.708   6.711   3.719  0.0020  0.4400 -0.8793
 4922WAT     H120408   6.648   6.648   3.713  0.6520 -0.7561  2.5774
 4922WAT     H220409   6.777   6.670   3.754  0.8042  2.8368  0.5497
 4922WAT    EPW20410   6.709   6.695   3.724  0.2165  0.6174 -0.1576
 4923WAT      O20411   4.925   6.457   3.397 -0.0298 -0.5295  0.1529
 4923WAT     H120412   5.003   6.428   3.423 -0.8830 -2.0317  1.2579
 4923WAT     H220413   4.871   6.426   3.459 -1.6145 -0.4399 -1.1309
 4923WAT    EPW20414   4.929   6.448   3.410 -0.3899 -0.7382  0.1265
 4924WAT      O20415   6.934   1.291   7.321  0.1864 -0.6783  0.3112
 4924WAT     H120416   7.006   1.287   7.272  0.5543 -0.8133  0.8610
 4924WAT     H220417   6.954   1.349   7.383 -0.1333 -0.8161  0.5462
 4924WAT    EPW20418   6.948   1.299   7.323  0.1935 -0.7186  0.4271
 4925WAT      O20419   3.707   4.291   0.159  0.0651 -0.6844 -0.6993
 4925WAT     H120420   3.760   4.246   0.212  2.0122  1.3294 -0.7657
 4925WAT     H220421   3.724   4.257   0.080 -1.1144 -2.1307 -0.3611
 4925WAT    EPW20422   3.717   4.280   0.155  0.1785 -0.6006 -0.6591
 4926WAT      O20423   3.878   1.474   5.191 -0.3115  0.2804 -0.5742
 4926WAT     H120424   3.827   1.535   5.157 -1.0690 -0.4814 -0.8364
 4926WAT     H220425   3.948   1.518   5.219 -0.9218  1.2720 -0.6005
 4926WAT    EPW20426   3.881   1.489   5.190 -0.5135  0.3143 -0.6168
 4927WAT      O20427   0.276   4.780   0.211 -0.4375 -0.2025  0.2435
 4927WAT     H120428   0.207   4.819   0.247 -0.6000 -1.3778  1.2691
 4927WAT     H220429   0.334   4.776   0.277 -0.2114 -1.1499  0.0005
 4927WAT    EPW20430   0.274   4.785   0.226 -0.4281 -0.5161  0.3591
 4928WAT      O20431   3.245   1.956   5.633 -0.1825  0.0008 -0.6378
 4928WAT     H120432   3.292   2.019   5.672  1.4943 -0.1780 -2.2077
 4928WAT     H220433   3.224   1.903   5.699  0.5985  0.8566  0.3480
 4928WAT    EPW20434   3.249   1.957   5.649  0.1806  0.1008 -0.7241
 4929WAT      O20435   3.425   3.968   0.305  0.1734 -0.5420  0.0690
 4929WAT     H120436   3.423   3.951   0.219 -1.3224 -2.0847  0.3593
 4929WAT     H220437   3.344   3.993   0.323  0.7104  0.6705  0.8979
 4929WAT    EPW20438   3.413   3.969   0.295  0.0318 -0.5907  0.2344
 4930WAT      O20439   2.304   6.830   2.382 -0.3548 -0.6309  0.3754
 4930WAT     H120440   2.285   6.774   2.318 -1.3431  1.1031 -0.9414
 4930WAT     H220441   2.230   6.874   2.395  0.6581  1.1742  0.4835
 4930WAT    EPW20442   2.290   6.828   2.375 -0.3512 -0.1081  0.1969
 4931WAT      O20443   7.286   6.817   0.225  0.0760 -0.3466 -0.2616
 4931WAT     H120444   7.205   6.807   0.195 -0.0124 -1.3028  0.2637
 4931WAT     H220445   7.335   6.813   0.153 -0.2950 -0.3152 -0.5186
 4931WAT    EPW20446   7.281   6.815   0.210  0.0081 -0.4832 -0.2220
 4932WAT      O20447   4.200   1.022   0.261 -0.2100 -0.4559  0.4738
 4932WAT     H120448   4.192   0.944   0.301  0.0997 -0.3628  0.7196
 4932WAT     H220449   4.206   1.001   0.177  1.6703 -0.8275  0.6662
 4932WAT    EPW20450   4.200   1.007   0.255  0.1135 -0.4970  0.5386
 4933WAT      O20451   4.503   3.380   2.585  0.1425 -0.0761 -0.5462
 4933WAT     H120452   4.516   3.307   2.539 -0.7203 -0.1795 -0.6447
 4933WAT     H220453   4.418   3.378   2.603 -0.0916  1.3803 -1.3722
 4933WAT    EPW20454   4.492   3.369   2.581 -0.0195  0.1238 -0.6828
 4934WAT      O20455   6.557   2.660   0.777  0.6133  0.1544 -0.3067
 4934WAT     H120456   6.561   2.575   0.797  1.2626  0.2657  0.0622
 4934WAT     H220457   6.475   2.682   0.796  0.7726 -0.1152  0.7272
 4934WAT    EPW20458   6.546   2.651   0.783  0.7327  0.1310 -0.0995
 4935WAT      O20459   2.684   0.896   2.420 -0.6959  0.0660  0.1724
 4935WAT     H120460   2.736   0.941   2.472 -1.7019  0.3308  0.9848
 4935WAT     H220461   2.669   0.950   2.353  0.4237 -0.1954 -0.3153
 4935WAT    EPW20462   2.689   0.911   2.418 -0.6791  0.0665  0.2204
 4936WAT      O20463   5.480   2.060   6.781 -0.1272 -0.6012  0.1997
 4936WAT     H120464   5.529   2.025   6.718  0.0886 -0.7696  0.4585
 4936WAT     H220465   5.466   1.993   6.836  0.5065 -0.2285  0.8302
 4936WAT    EPW20466   5.485   2.045   6.780 -0.0017 -0.5710  0.3310
 4937WAT      O20467   2.546   2.774   0.934  0.6666 -0.1497 -0.5153
 4937WAT     H120468   2.623   2.745   0.964 -0.5428 -0.3574  2.9026
 4937WAT     H220469   2.516   2.824   1.000 -2.9105 -1.6322 -0.7714
 4937WAT    EPW20470   2.553   2.777   0.948 -0.0405 -0.3994 -0.0482
 4938WAT      O20471   2.104   1.541   2.148  0.0149 -0.1118  0.4350
 4938WAT     H120472   2.057   1.605   2.112  0.6299  0.0393 -0.1178
 4938WAT     H220473   2.096   1.554   2.234 -0.5140  0.2256  0.3372
 4938WAT    EPW20474   2.096   1.552   2.155  0.0276 -0.0396  0.3389
 4939WAT      O20475   5.747   3.065   1.156 -0.0544 -0.0071 -0.2646
 4939WAT     H120476   5.785   3.025   1.224 -1.1168  1.5009  1.2900
 4939WAT     H220477   5.784   3.144   1.156  0.0765 -0.0532 -1.5967
 4939WAT    EPW20478   5.758   3.070   1.166 -0.1920  0.2088 -0.2317
 4940WAT      O20479   4.974   2.916   0.274 -0.3852 -0.2214  0.4099
 4940WAT     H120480   5.021   2.890   0.343  1.5375 -1.2531 -1.1782
 4940WAT     H220481   5.017   2.986   0.245  2.0533 -2.7339 -2.6825
 4940WAT    EPW20482   4.987   2.923   0.280  0.2590 -0.7450 -0.2815
 4941WAT      O20483   4.602   5.169   1.955  0.0148  0.1430  0.3066
 4941WAT     H120484   4.536   5.225   1.947 -0.8734 -1.0106 -0.9701
 4941WAT     H220485   4.577   5.101   1.907  1.4316 -1.0017  1.1026
 4941WAT    EPW20486   4.589   5.167   1.947  0.0929 -0.1965  0.2356
 4942WAT      O20487   0.863   4.545   3.338  0.2630  0.2743  0.1301
 4942WAT     H120488   0.784   4.563   3.307 -0.9413 -0.8335  2.2723
 4942WAT     H220489   0.888   4.619   3.378  0.0497  0.4502 -0.0673
 4942WAT    EPW20490   0.855   4.559   3.340  0.0536  0.1367  0.4174
 4943WAT      O20491   5.781   2.816   1.014 -0.2870  0.7332  0.4533
 4943WAT     H120492   5.771   2.769   1.086 -3.7310  2.0483  1.0111
 4943WAT     H220493   5.770   2.899   1.041 -0.7546  1.3225 -1.3774
 4943WAT    EPW20494   5.778   2.821   1.028 -0.8648  1.0145  0.2652
 4944WAT      O20495   1.121   0.610   4.910  0.4442  0.1823  0.2077
 4944WAT     H120496   1.035   0.621   4.898  0.4510  3.3958  2.0838
 4944WAT     H220497   1.154   0.617   4.829 -1.0222 -1.3751 -0.5778
 4944WAT    EPW20498   1.113   0.613   4.896  0.2286  0.4269  0.3688
 4945WAT      O20499   1.951   5.463   6.041  0.1791  0.2736 -0.5534
 4945WAT     H120500   1.969   5.531   5.989 -0.0099  1.6855  1.1259
 4945WAT     H220501   1.868   5.443   6.020  0.4686  0.0915 -1.5475
 4945WAT    EPW20502   1.941   5.470   6.030  0.1939  0.4553 -0.4522
 4946WAT      O20503   0.070   0.373   6.098 -0.4375  0.5011  0.1183
 4946WAT     H120504   0.015   0.371   6.031 -0.0721 -1.2751 -0.1946
 4946WAT     H220505   0.021   0.349   6.166 -0.1147 -1.1405 -0.1705
 4946WAT    EPW20506   0.055   0.369   6.098 -0.3359 -0.0038  0.0294
 4947WAT      O20507   2.261   2.509   3.054  0.5702  0.4974 -0.6757
 4947WAT     H120508   2.234   2.585   3.088 -0.4488  0.3639 -1.1346
 4947WAT     H220509   2.322   2.482   3.109 -0.3284  0.7723  0.4983
 4947WAT    EPW20510   2.266   2.516   3.067  0.2869  0.5183 -0.5700
 4948WAT      O20511   6.999   4.947   4.232  0.3650 -0.3905  0.1931
 4948WAT     H120512   6.954   4.873   4.234  1.6791 -1.2323  0.0552
 4948WAT     H220513   6.944   5.006   4.266 -0.2409 -1.6805  1.5599
 4948WAT    EPW20514   6.984   4.945   4.237  0.4696 -0.7054  0.3747
 4949WAT      O20515   4.184   6.225   5.906 -0.3310  0.1187  0.4730
 4949WAT     H120516   4.230   6.298   5.897 -0.7599  0.5212  1.4474
 4949WAT     H220517   4.219   6.186   5.976  0.6414 -1.1989 -0.6762
 4949WAT    EPW20518   4.196   6.230   5.915 -0.2507 -0.0165  0.4472
 4950WAT      O20519   3.406   1.420   4.614  0.1809  0.4869 -0.3034
 4950WAT     H120520   3.354   1.444   4.680 -0.5546  0.3620 -0.8245
 4950WAT     H220521   3.379   1.469   4.547  1.4576  1.2056 -0.3308
 4950WAT    EPW20522   3.394   1.431   4.614  0.2608  0.5746 -0.3845
 4951WAT      O20523   7.077   2.953   2.166  0.2528  0.0231  0.1328
 4951WAT     H120524   7.036   2.976   2.240  0.7820 -0.3230  0.5407
 4951WAT     H220525   7.148   3.003   2.166 -0.3232  0.8897 -0.7600
 4951WAT    EPW20526   7.081   2.964   2.177  0.2459  0.1000  0.0612
 4952WAT      O20527   5.870   1.328   3.590  0.3704  0.2642 -0.2085
 4952WAT     H120528   5.909   1.393   3.634  1.1873  0.6906 -1.4726
 4952WAT     H220529   5.927   1.263   3.595  0.5026  0.3401 -0.6717
 4952WAT    EPW20530   5.884   1.328   3.597  0.5106  0.3384 -0.4637
 4953WAT      O20531   1.118   2.207   7.089 -0.0825  0.0837  0.1802
 4953WAT     H120532   1.102   2.260   7.021  0.1667  0.5201  0.4581
 4953WAT     H220533   1.057   2.145   7.081  0.0332  0.0485 -0.5254
 4953WAT    EPW20534   1.107   2.205   7.078 -0.0286  0.1429  0.1170
 4954WAT      O20535   5.055   4.155   4.459 -0.4969 -0.0728  0.3041
 4954WAT     H120536   5.123   4.115   4.422  0.6763  0.3929  1.8354
 4954WAT     H220537   5.083   4.237   4.470 -2.0482  0.6468 -0.7810
 4954WAT    EPW20538   5.069   4.162   4.455 -0.5528  0.1023  0.3700
 4955WAT      O20539   7.071   1.922   5.332  0.1238  0.4411 -0.0696
 4955WAT     H120540   7.020   1.854   5.349 -0.5045  1.4037  2.1733
 4955WAT     H220541   7.032   1.960   5.264  0.0043 -0.8871 -0.7937
 4955WAT    EPW20542   7.058   1.917   5.324  0.0133  0.3871  0.1548
 4956WAT      O20543   1.587   4.962   2.816  0.1201 -0.3418 -0.2030
 4956WAT     H120544   1.607   5.032   2.864  0.0267 -0.6509  0.2837
 4956WAT     H220545   1.507   4.940   2.843 -0.0363 -0.3642 -0.6776
 4956WAT    EPW20546   1.578   4.969   2.827  0.0832 -0.3908 -0.2012
 4957WAT      O20547   1.764   1.603   3.050  0.2850 -0.1459  0.1592
 4957WAT     H120548   1.686   1.582   3.082 -0.7451 -0.0201 -2.1002
 4957WAT     H220549   1.786   1.674   3.094 -1.1702  0.1665  0.4159
 4957WAT    EPW20550   1.756   1.610   3.061 -0.0821 -0.0812 -0.1367
 4958WAT      O20551   2.198   4.384   6.361 -0.1829  0.1401 -0.1019
 4958WAT     H120552   2.167   4.461   6.386  0.3240 -0.2989  2.0216
 4958WAT     H220553   2.135   4.353   6.310 -1.6457  0.7963  1.2228
 4958WAT    EPW20554   2.184   4.391   6.357 -0.3241  0.1722  0.4074
 4959WAT      O20555   4.816   0.436   2.341 -0.7367 -0.3052 -0.4018
 4959WAT     H120556   4.827   0.401   2.421  0.8979  1.9044  0.4638
 4959WAT     H220557   4.888   0.414   2.299 -0.0310  1.2534 -0.0902
 4959WAT    EPW20558   4.828   0.428   2.347 -0.3910  0.2514 -0.2279
 4960WAT      O20559   5.599   4.318   5.698  0.5717 -0.3230  0.4175
 4960WAT     H120560   5.605   4.399   5.667  0.9418 -0.8894 -1.1063
 4960WAT     H220561   5.542   4.280   5.644  1.7987 -1.5556 -0.1044
 4960WAT    EPW20562   5.592   4.324   5.685  0.8076 -0.5887  0.1153
 4961WAT      O20563   2.166   6.611   4.189 -0.2456 -0.0370 -0.1192
 4961WAT     H120564   2.250   6.593   4.175 -0.3114  0.7729 -1.7489
 4961WAT     H220565   2.164   6.698   4.192 -0.9738 -0.0644  0.3811
 4961WAT    EPW20566   2.178   6.621   4.187 -0.3629  0.0786 -0.2860
 4962WAT      O20567   1.204   2.482   1.253 -0.1270 -0.4703  0.3222
 4962WAT     H120568   1.138   2.450   1.205 -1.4059  1.5573  0.5918
 4962WAT     H220569   1.266   2.499   1.195 -0.8602  0.0282 -0.3277
 4962WAT    EPW20570   1.203   2.480   1.237 -0.4242 -0.0972  0.2660
 4963WAT      O20571   1.890   4.093   3.643  0.3618  0.0832 -0.5508
 4963WAT     H120572   1.933   4.022   3.616  0.8605  0.7843 -1.7015
 4963WAT     H220573   1.946   4.158   3.628  0.5357  0.6004  1.9467
 4963WAT    EPW20574   1.905   4.092   3.636  0.4612  0.2631 -0.3519
 4964WAT      O20575   5.920   6.474   5.003 -0.1690  0.2503 -0.2414
 4964WAT     H120576   6.000   6.440   5.002  0.3840  1.4674 -1.7305
 4964WAT     H220577   5.886   6.450   4.926 -0.6806  0.9249 -0.2416
 4964WAT    EPW20578   5.927   6.466   4.991 -0.1629  0.5297 -0.4614
 4965WAT      O20579   4.281   5.695   5.378 -0.0706  0.0748 -0.0988
 4965WAT     H120580   4.320   5.635   5.427 -0.7312 -0.4958 -0.2584
 4965WAT     H220581   4.208   5.714   5.422 -0.8415 -0.6947 -0.9982
 4965WAT    EPW20582   4.276   5.689   5.392 -0.2820 -0.1232 -0.2552
 4966WAT      O20583   4.907   6.088   3.645 -0.6010 -0.0668 -0.1068
 4966WAT     H120584   4.873   6.079   3.565  0.1651 -2.0711 -0.2707
 4966WAT     H220585   4.838   6.088   3.697 -1.0277 -0.7561 -0.6499
 4966WAT    EPW20586   4.892   6.086   3.641 -0.5509 -0.4647 -0.2112
 4967WAT      O20587   7.127   5.669   4.565  0.3586 -0.2310  0.2444
 4967WAT     H120588   7.155   5.611   4.624  0.6500  0.6947  1.0386
 4967WAT     H220589   7.188   5.731   4.568 -0.9575  1.0758  0.8719
 4967WAT    EPW20590   7.140   5.669   4.574  0.2072  0.0988  0.4544
 4968WAT      O20591   2.132   5.244   4.576 -0.4229  0.0015 -0.1402
 4968WAT     H120592   2.067   5.261   4.632 -0.2079 -1.3683  0.5651
 4968WAT     H220593   2.121   5.160   4.555  0.7821 -0.1037 -0.4522
 4968WAT    EPW20594   2.121   5.234   4.581 -0.2132 -0.2164 -0.0821
 4969WAT      O20595   6.546   4.552   1.691 -0.4443 -0.0610 -0.0905
 4969WAT     H120596   6.498   4.493   1.648  0.7953 -0.9690 -0.3004
 4969WAT     H220597   6.602   4.580   1.630  0.2963 -0.1818  0.5239
 4969WAT    EPW20598   6.547   4.547   1.675 -0.1517 -0.2130 -0.0307
 4970WAT      O20599   1.817   6.203   4.641 -0.0056  0.1158  0.5626
 4970WAT     H120600   1.731   6.212   4.628  0.4829  2.1300 -2.3675
 4970WAT     H220601   1.827   6.119   4.662 -2.4962 -0.7199 -1.1822
 4970WAT    EPW20602   1.806   6.192   4.642 -0.3013  0.2898 -0.1280
 4971WAT      O20603   3.334   6.225   5.448 -0.1268  0.2750 -0.1448
 4971WAT     H120604   3.357   6.291   5.499  0.0877  0.2388 -0.1938
 4971WAT     H220605   3.259   6.251   5.413  0.0971  0.6054 -0.3767
 4971WAT    EPW20606   3.326   6.238   5.451 -0.0620  0.3184 -0.1863
 4972WAT      O20607   4.432   3.819   2.527  0.1446  0.2381  0.1593
 4972WAT     H120608   4.411   3.764   2.592 -0.3044  0.4112  0.1655
 4972WAT     H220609   4.376   3.885   2.538 -1.2231 -0.5525 -1.4996
 4972WAT    EPW20610   4.421   3.820   2.538 -0.1237  0.1469 -0.0848
 4973WAT      O20611   0.019   5.465   4.376 -0.0023 -0.2038 -0.2185
 4973WAT     H120612   0.002   5.542   4.339 -1.2082  0.5420  1.8013
 4973WAT     H220613  -0.040   5.411   4.340 -1.0833  0.4819  0.4919
 4973WAT    EPW20614   0.008   5.468   4.365 -0.3401  0.0077  0.1848
 4974WAT      O20615   6.003   6.512   1.126 -0.2011  0.0049  0.1877
 4974WAT     H120616   6.040   6.567   1.070 -0.2860  1.9279  1.8887
 4974WAT     H220617   5.936   6.558   1.159 -1.8199 -2.0037 -0.0398
 4974WAT    EPW20618   5.999   6.527   1.123 -0.4528 -0.0078  0.4053
 4975WAT      O20619   1.068   2.998   0.637 -0.2453 -0.3130 -0.1293
 4975WAT     H120620   1.106   2.921   0.653  0.4365  0.4922  2.6135
 4975WAT     H220621   1.133   3.055   0.648 -1.0226  0.7492 -0.8704
 4975WAT    EPW20622   1.084   2.995   0.641 -0.2594 -0.0371  0.1664
 4976WAT      O20623   0.476   5.796   6.502 -0.0737  0.2279  0.0717
 4976WAT     H120624   0.463   5.740   6.568 -0.4078  1.3821  1.0183
 4976WAT     H220625   0.522   5.861   6.538  0.1710  0.6541 -0.9580
 4976WAT    EPW20626   0.481   5.797   6.517 -0.0869  0.4614  0.0594
 4977WAT      O20627   0.462   0.011   4.295 -0.1349 -0.5435 -0.1031
 4977WAT     H120628   0.412   0.031   4.364  2.6915  1.3170  1.6413
 4977WAT     H220629   0.466  -0.076   4.297 -2.2195 -0.6648  0.4287
 4977WAT    EPW20630   0.455   0.001   4.306 -0.0253 -0.2866  0.2331
 4978WAT      O20631   1.083   7.197   0.682 -0.2636 -0.2807 -0.1781
 4978WAT     H120632   1.036   7.202   0.609  0.0691  0.9132 -0.3230
 4978WAT     H220633   1.164   7.215   0.657 -0.4929  2.7450  0.7986
 4978WAT    EPW20634   1.088   7.200   0.668 -0.2483  0.3426 -0.0552
 4979WAT      O20635   5.739   0.947   4.285  0.0785  0.0279 -0.0091
 4979WAT     H120636   5.727   0.874   4.239  0.9343  0.3936 -0.8498
 4979WAT     H220637   5.665   0.991   4.274  0.9851  1.0954 -2.9272
 4979WAT    EPW20638   5.726   0.942   4.276  0.3388  0.2396 -0.5643
 4980WAT      O20639   4.292   6.662   3.900 -0.7922 -0.4144 -0.0217
 4980WAT     H120640   4.323   6.643   3.821 -0.1035  0.1975  0.0870
 4980WAT     H220641   4.344   6.726   3.928 -1.8043  0.2501  0.4184
 4980WAT    EPW20642   4.304   6.668   3.893 -0.8400 -0.2258  0.0594
 4981WAT      O20643   4.713   1.405   0.387 -0.0281 -0.0993 -0.0518
 4981WAT     H120644   4.717   1.318   0.384 -0.7880 -0.1845  0.8729
 4981WAT     H220645   4.789   1.431   0.352  0.5954 -1.1550  0.4945
 4981WAT    EPW20646   4.725   1.396   0.382 -0.0482 -0.2678  0.1655
 4982WAT      O20647   5.700   0.342   0.769 -0.0134 -0.2175 -0.2774
 4982WAT     H120648   5.678   0.259   0.754  1.5846 -0.3976 -2.0108
 4982WAT     H220649   5.624   0.384   0.764 -0.6860 -1.4272 -0.6704
 4982WAT    EPW20650   5.685   0.336   0.766  0.1233 -0.4228 -0.5915
 4983WAT      O20651   7.089   1.809   5.758  0.0320  0.7103 -0.2744
 4983WAT     H120652   7.030   1.778   5.815 -0.3564  0.1430 -0.9621
 4983WAT     H220653   7.077   1.896   5.762 -0.4014  0.6416  0.0720
 4983WAT    EPW20654   7.078   1.818   5.767 -0.0894  0.6164 -0.3248
 4984WAT      O20655   0.281   5.080   3.675  0.0061 -0.4495  0.3417
 4984WAT     H120656   0.300   5.093   3.759  1.1374 -0.7336  0.1444
 4984WAT     H220657   0.355   5.098   3.633 -0.2299 -1.3093 -0.5010
 4984WAT    EPW20658   0.295   5.084   3.681  0.1384 -0.6185  0.1881
 4985WAT      O20659   5.473   5.239   4.721  0.1554 -0.0846 -0.2586
 4985WAT     H120660   5.497   5.260   4.802 -0.3004 -2.5901  0.6017
 4985WAT     H220661   5.520   5.168   4.703  0.2405  0.4145 -2.2284
 4985WAT    EPW20662   5.483   5.232   4.731  0.1006 -0.3810 -0.4225
 4986WAT      O20663   3.850   7.174   4.740 -0.3084  0.0100  0.2387
 4986WAT     H120664   3.868   7.194   4.823  1.7252 -1.0656  0.1216
 4986WAT     H220665   3.830   7.090   4.743 -0.1468 -0.0520 -0.3636
 4986WAT    EPW20666   3.850   7.165   4.753  0.0159 -0.1580  0.1324
 4987WAT      O20667   6.177   2.358   0.890 -0.0846 -0.9344  0.9095
 4987WAT     H120668   6.124   2.313   0.944 -0.8134 -1.8915 -0.5167
 4987WAT     H220669   6.218   2.295   0.846  0.0224 -0.1938 -0.0703
 4987WAT    EPW20670   6.175   2.342   0.892 -0.1764 -0.9664  0.5541
 4988WAT      O20671   6.641   6.277   6.284  0.4815 -0.2263  0.7738
 4988WAT     H120672   6.570   6.236   6.254  1.3574 -0.5680 -0.9910
 4988WAT     H220673   6.611   6.324   6.351 -1.9700  1.5891 -1.3973
 4988WAT    EPW20674   6.627   6.278   6.289  0.2488 -0.0086  0.1924
 4989WAT      O20675   3.245   3.407   1.146 -0.2534  0.5609 -0.2110
 4989WAT     H120676   3.176   3.360   1.121 -0.5957  0.3075  1.1324
 4989WAT     H220677   3.267   3.372   1.223  1.4386  0.5758 -0.6458
 4989WAT    EPW20678   3.238   3.395   1.154 -0.0540  0.5257 -0.0768
 4990WAT      O20679   6.285   4.245   6.145 -0.1124  0.0784  0.0511
 4990WAT     H120680   6.262   4.246   6.229 -0.6188 -2.1883 -0.0142
 4990WAT     H220681   6.351   4.188   6.141  0.5450  0.8578 -0.9669
 4990WAT    EPW20682   6.291   4.237   6.157 -0.0901 -0.1413 -0.1089
 4991WAT      O20683   5.172   0.471   4.062 -0.2107 -0.1884 -0.1752
 4991WAT     H120684   5.134   0.487   4.139  1.7051  0.0030  0.7804
 4991WAT     H220685   5.162   0.547   4.019  0.2163  0.2908  0.5533
 4991WAT    EPW20686   5.165   0.485   4.067  0.1354 -0.0893  0.0736
 4992WAT      O20687   5.138   5.095   0.917 -0.3677 -0.0766 -0.4565
 4992WAT     H120688   5.107   5.098   0.835  0.1505 -0.5075 -0.6691
 4992WAT     H220689   5.150   5.179   0.937 -0.8252  0.0477 -0.6965
 4992WAT    EPW20690   5.135   5.108   0.908 -0.3588 -0.1219 -0.5234
 4993WAT      O20691   7.239   1.210   6.323 -0.0669 -0.6770 -0.1472
 4993WAT     H120692   7.326   1.207   6.320  0.0040 -0.0232  0.7326
 4993WAT     H220693   7.217   1.145   6.378 -0.0821 -0.4657  0.1028
 4993WAT    EPW20694   7.248   1.200   6.331 -0.0587 -0.5492  0.0197
 4994WAT      O20695   5.165   3.229   3.618  0.2725 -0.1000  0.2828
 4994WAT     H120696   5.236   3.212   3.570  0.0592  1.9779 -0.8947
 4994WAT     H220697   5.132   3.301   3.580 -0.8077  0.7078  2.5867
 4994WAT    EPW20698   5.171   3.237   3.605  0.0814  0.3263  0.4492
 4995WAT      O20699   1.933   6.186   0.200  0.1535  0.0160  0.3901
 4995WAT     H120700   1.925   6.206   0.285 -0.4571  1.7207 -0.0199
 4995WAT     H220701   2.017   6.167   0.191  0.1572 -0.5418  1.4445
 4995WAT    EPW20702   1.944   6.186   0.211  0.0638  0.1854  0.4853
 4996WAT      O20703   0.965   4.600   2.354 -0.2338  0.4033  0.5173
 4996WAT     H120704   1.000   4.621   2.277  0.2112 -0.6697  0.4090
 4996WAT     H220705   1.021   4.633   2.412 -0.4029  0.9353  0.3808
 4996WAT    EPW20706   0.978   4.608   2.351 -0.1931  0.3234  0.4811
 4997WAT      O20707   5.789   3.919   1.080 -0.5133  0.5919  0.2328
 4997WAT     H120708   5.826   3.956   1.149 -0.4239  0.7824  0.0821
 4997WAT     H220709   5.721   3.876   1.114  0.1135 -0.1617  0.5801
 4997WAT    EPW20710   5.784   3.918   1.095 -0.4075  0.5087  0.2619
 4998WAT      O20711   0.425   4.049   2.227 -0.3606  0.5816 -0.1713
 4998WAT     H120712   0.509   4.069   2.212 -0.4289  1.6236  0.7545
 4998WAT     H220713   0.418   3.969   2.194  1.1709  0.2006  0.3158
 4998WAT    EPW20714   0.437   4.040   2.220 -0.1444  0.6793  0.0374
 4999WAT      O20715   6.174   0.555   0.384 -0.0929  0.2551  0.1925
 4999WAT     H120716   6.126   0.561   0.457  1.5088  0.8052  1.2498
 4999WAT     H220717   6.254   0.537   0.414  0.5949  0.4758 -1.4420
 4999WAT    EPW20718   6.179   0.553   0.399  0.2453  0.3689  0.1073
 5000WAT      O20719   3.112   5.489   5.094  0.7158  0.0274 -0.0466
 5000WAT     H120720   3.129   5.408   5.121  1.4957  0.0954 -0.2936
 5000WAT     H220721   3.042   5.479   5.044 -1.2176  0.0027  2.4918
 5000WAT    EPW20722   3.104   5.475   5.090  0.5454  0.0338  0.2919
 5001WAT      O20723   1.631   5.629   4.120  0.0900  0.6500 -0.1125
 5001WAT     H120724   1.597   5.552   4.143 -1.9095  1.6630  0.5215
 5001WAT     H220725   1.700   5.637   4.173 -0.0438 -0.4160  0.2583
 5001WAT    EPW20726   1.636   5.619   4.131 -0.2251  0.6422  0.0359
 5002WAT      O20727   2.149   7.223   4.568  0.6353 -0.1747 -0.0097
 5002WAT     H120728   2.136   7.149   4.522  0.1522 -1.0730  1.5018
 5002WAT     H220729   2.226   7.251   4.540  1.7217 -2.2737  0.6787
 5002WAT    EPW20730   2.158   7.216   4.557  0.7244 -0.6175  0.3153
 5003WAT      O20731   4.854   6.719   5.157  0.2209 -0.2517 -0.0659
 5003WAT     H120732   4.770   6.729   5.136 -0.4118 -1.0686  1.8372
 5003WAT     H220733   4.862   6.762   5.233  1.3985 -0.6358  0.0596
 5003WAT    EPW20734   4.843   6.727   5.165  0.3014 -0.4291  0.2338
 5004WAT      O20735   1.416   4.948   0.644 -0.2216  0.1191 -0.1350
 5004WAT     H120736   1.442   5.014   0.694 -1.0746  0.1435  0.2923
 5004WAT     H220737   1.335   4.971   0.619 -2.0028 -2.2095  2.8261
 5004WAT    EPW20738   1.408   4.961   0.648 -0.6107 -0.2213  0.3656
 5005WAT      O20739   6.400   2.466   1.628 -0.1364  1.0704  0.5879
 5005WAT     H120740   6.416   2.510   1.702 -0.0545 -0.9310  1.8351
 5005WAT     H220741   6.476   2.469   1.585  1.3527 -1.5294  2.7411
 5005WAT    EPW20742   6.414   2.473   1.632  0.0957  0.3907  1.0902
 5006WAT      O20743   7.148   1.898   4.968  0.4134 -0.7389  0.4566
 5006WAT     H120744   7.193   1.839   5.015 -0.5430 -0.7356  1.4108
 5006WAT     H220745   7.157   1.870   4.886 -0.0168 -2.2261  0.8831
 5006WAT    EPW20746   7.156   1.885   4.963  0.2086 -0.9581  0.6605
 5007WAT      O20747   4.418   0.209   3.521  0.0079 -0.2235 -0.1148
 5007WAT     H120748   4.415   0.206   3.608 -0.7696 -2.2758 -0.1358
 5007WAT     H220749   4.503   0.200   3.502  0.1545  0.0245  0.4281
 5007WAT    EPW20750   4.430   0.207   3.531 -0.0853 -0.4900 -0.0377
 5008WAT      O20751   0.705   1.649   3.676 -0.2936  0.2602 -0.1319
 5008WAT     H120752   0.746   1.715   3.716  0.2216  0.2185 -0.5759
 5008WAT     H220753   0.706   1.672   3.592 -4.0598  1.8740  0.0487
 5008WAT    EPW20754   0.711   1.662   3.670 -0.7738  0.4924 -0.1708
 5009WAT      O20755   4.743   1.417   1.231 -0.0458  0.6095 -0.2697
 5009WAT     H120756   4.819   1.391   1.266 -0.8337 -0.0648  1.0059
 5009WAT     H220757   4.746   1.504   1.236  0.1177  0.5435  0.9287
 5009WAT    EPW20758   4.755   1.426   1.237 -0.1381  0.5002  0.0958
 5010WAT      O20759   3.292   2.805   7.119  0.2224 -0.5218  0.0445
 5010WAT     H120760   3.240   2.804   7.049  1.0741 -0.4178 -0.6185
 5010WAT     H220761   3.306   2.890   7.133 -0.8530 -0.4964  1.0588
 5010WAT    EPW20762   3.287   2.817   7.110  0.1893 -0.5027  0.0964
 5011WAT      O20763   3.294   0.362   5.164  0.2330  0.1953 -0.6721
 5011WAT     H120764   3.356   0.317   5.206 -0.7596 -0.1190  0.4936
 5011WAT     H220765   3.335   0.390   5.092  2.0120  0.8003  0.4965
 5011WAT    EPW20766   3.309   0.360   5.159  0.3492  0.2383 -0.3273
 5012WAT      O20767   1.031   3.375   5.586 -0.3529  0.5237 -0.6127
 5012WAT     H120768   1.014   3.331   5.660  0.4861  0.7546 -0.2701
 5012WAT     H220769   1.072   3.316   5.537 -1.1944  0.2739 -1.0348
 5012WAT    EPW20770   1.034   3.360   5.590 -0.3533  0.5209 -0.6245
 5013WAT      O20771   0.005   1.612   6.721  0.7791  0.7369  0.3428
 5013WAT     H120772  -0.012   1.527   6.733 -1.3206  1.1142  0.5211
 5013WAT     H220773   0.005   1.644   6.802 -2.2033  1.4506  0.1680
 5013WAT    EPW20774   0.002   1.604   6.734  0.0284  0.8981  0.3433
 5014WAT      O20775   0.163   1.490   1.610  0.4913 -0.4332  0.0174
 5014WAT     H120776   0.247   1.470   1.622  0.1208 -1.6751  0.7952
 5014WAT     H220777   0.124   1.459   1.682 -0.5848  0.4927 -0.1363
 5014WAT    EPW20778   0.170   1.482   1.623  0.2776 -0.4799  0.1096
 5015WAT      O20779   1.934   3.800   1.608  0.0855  0.4199 -0.2763
 5015WAT     H120780   1.936   3.809   1.695 -0.2949  0.6596 -0.2891
 5015WAT     H220781   1.863   3.845   1.585 -0.4953 -0.6303 -0.5974
 5015WAT    EPW20782   1.924   3.808   1.618 -0.0565  0.3002 -0.3256
 5016WAT      O20783   2.837   2.975   2.766  0.1682  0.7898 -0.6100
 5016WAT     H120784   2.816   3.011   2.689  1.2351  1.0487 -0.7978
 5016WAT     H220785   2.923   2.959   2.758  0.2059  0.4448  0.3793
 5016WAT    EPW20786   2.847   2.978   2.754  0.3314  0.7771 -0.4916
 5017WAT      O20787   1.889   5.667   6.209 -0.0780  0.0740 -0.3061
 5017WAT     H120788   1.932   5.740   6.185  0.6316 -0.6067 -1.1964
 5017WAT     H220789   1.914   5.609   6.149  0.0292 -1.1375  0.8727
 5017WAT    EPW20790   1.899   5.669   6.196  0.0427 -0.2055 -0.2635
 5018WAT      O20791   2.785   6.757   4.609 -0.0787  0.0932 -0.4640
 5018WAT     H120792   2.848   6.705   4.641  0.7347  0.5246 -1.3328
 5018WAT     H220793   2.715   6.734   4.656  1.2981  1.6856  2.6789
 5018WAT    EPW20794   2.784   6.746   4.620  0.2448  0.3922 -0.1281
 5019WAT      O20795   3.290   4.208   2.946 -0.0336 -0.4465  0.2723
 5019WAT     H120796   3.368   4.194   2.908 -1.3525  2.3557 -4.1895
 5019WAT     H220797   3.236   4.159   2.899 -1.2417 -1.4592  2.5800
 5019WAT    EPW20798   3.294   4.198   2.934 -0.4069 -0.1821 -0.0459
 5020WAT      O20799   1.892   5.603   5.684  0.0169 -0.3374 -0.0062
 5020WAT     H120800   1.894   5.659   5.617  1.7440  0.7937  0.9265
 5020WAT     H220801   1.965   5.556   5.673 -0.5236 -1.2660  0.2111
 5020WAT    EPW20802   1.903   5.604   5.672  0.1922 -0.3075  0.1637
 5021WAT      O20803   2.489   4.873   6.943 -1.4651  0.2837  0.3313
 5021WAT     H120804   2.555   4.880   7.000 -0.4492 -2.1301 -0.4193
 5021WAT     H220805   2.500   4.941   6.890  1.5434 -0.8833 -0.7777
 5021WAT    EPW20806   2.501   4.884   6.944 -0.8706 -0.2453  0.0566
 5022WAT      O20807   1.725   0.086   2.315 -0.5894 -0.2779  0.0779
 5022WAT     H120808   1.711   0.172   2.321  0.7834  0.0100 -0.3524
 5022WAT     H220809   1.706   0.068   2.232  4.0970  0.7605 -1.5578
 5022WAT    EPW20810   1.720   0.096   2.303  0.3057 -0.0820 -0.2273
 5023WAT      O20811   1.051   2.275   2.272 -0.0287 -0.1363  0.6576
 5023WAT     H120812   0.971   2.259   2.239 -0.7768 -0.9473  2.6927
 5023WAT     H220813   1.105   2.250   2.207 -1.3512  2.2531 -1.5448
 5023WAT    EPW20814   1.047   2.269   2.257 -0.3346  0.0968  0.6329
 5024WAT      O20815   2.879   2.765   6.723 -0.4104  1.0913 -0.0437
 5024WAT     H120816   2.805   2.735   6.758 -1.2482  0.1068 -2.4432
 5024WAT     H220817   2.864   2.850   6.713 -2.0460  0.6284 -2.1701
 5024WAT    EPW20818   2.866   2.773   6.726 -0.7758  0.8775 -0.7123
 5025WAT      O20819   3.245   1.559   4.781  0.0698 -0.6095  0.1532
 5025WAT     H120820   3.304   1.623   4.767  0.8306 -1.0586  1.2039
 5025WAT     H220821   3.173   1.591   4.744  1.5729 -1.2787 -3.9717
 5025WAT    EPW20822   3.243   1.573   4.773  0.4042 -0.7747 -0.3009
 5026WAT      O20823   4.875   0.749   6.680 -0.5174 -0.7844  0.4023
 5026WAT     H120824   4.917   0.687   6.725  1.8804 -2.5442 -3.6861
 5026WAT     H220825   4.804   0.708   6.650 -0.6292 -0.5153  0.2960
 5026WAT    EPW20826   4.871   0.734   6.682 -0.1797 -1.0046 -0.2173
 5027WAT      O20827   3.983   6.050   6.060 -0.0147 -0.6208 -0.0055
 5027WAT     H120828   4.013   5.970   6.039  0.5043 -0.2745 -0.6032
 5027WAT     H220829   3.968   6.087   5.983  0.6281  0.1920  0.2529
 5027WAT    EPW20830   3.985   6.044   6.045  0.1569 -0.4496 -0.0556
 5028WAT      O20831   6.830   5.016   6.479 -0.4505 -0.1453 -0.5746
 5028WAT     H120832   6.895   4.983   6.430 -0.1190 -0.4694  0.0619
 5028WAT     H220833   6.785   4.945   6.503 -0.2806 -0.0543  0.0414
 5028WAT    EPW20834   6.833   5.000   6.475 -0.3764 -0.1798 -0.3896
 5029WAT      O20835   2.098   6.471   3.952  0.2179 -0.2400  0.1266
 5029WAT     H120836   2.015   6.449   3.968 -0.4066  2.0579  0.5111
 5029WAT     H220837   2.125   6.507   4.027  1.5888 -0.9375  0.0062
 5029WAT    EPW20838   2.090   6.473   3.966  0.3282 -0.0036  0.1656
 5030WAT      O20839   4.768   2.279   4.798  0.1972 -0.0879 -0.3007
 5030WAT     H120840   4.837   2.294   4.850  0.6861 -0.3592 -0.8735
 5030WAT     H220841   4.758   2.355   4.756  0.9780 -0.4567 -1.1880
 5030WAT    EPW20842   4.777   2.292   4.800  0.3848 -0.1825 -0.5164
 5031WAT      O20843   1.880   6.354   2.731 -0.2139 -0.2094  0.2621
 5031WAT     H120844   1.931   6.423   2.715  0.2264 -0.6094 -0.0631
 5031WAT     H220845   1.880   6.349   2.818  0.2483 -0.1669  0.2658
 5031WAT    EPW20846   1.888   6.364   2.742 -0.0806 -0.2622  0.2146
 5032WAT      O20847   3.579   7.213   2.672  0.0857 -0.3727 -0.3256
 5032WAT     H120848   3.627   7.141   2.663  1.5889  0.6760 -1.3803
 5032WAT     H220849   3.508   7.197   2.625  0.7991 -0.8856 -1.2755
 5032WAT    EPW20850   3.576   7.200   2.664  0.4132 -0.2935 -0.6217
 5033WAT      O20851   1.327   5.897   0.101  0.7401 -0.9178 -0.1176
 5033WAT     H120852   1.247   5.923   0.125  0.6422 -0.6666 -0.6957
 5033WAT     H220853   1.366   5.881   0.177  0.1901 -0.8967  0.1815
 5033WAT    EPW20854   1.321   5.899   0.116  0.6444 -0.8776 -0.1588
 5034WAT      O20855   1.805   4.812   3.558  0.0380  0.0821  0.8738
 5034WAT     H120856   1.889   4.800   3.580  0.0284 -0.2806  0.7253
 5034WAT     H220857   1.761   4.786   3.629  0.0633  0.6691  1.1061
 5034WAT    EPW20858   1.811   4.806   3.572  0.0403  0.1152  0.8862
 5035WAT      O20859   4.713   3.187   0.815  0.5008  0.0217 -0.1013
 5035WAT     H120860   4.661   3.252   0.787 -1.8004 -1.3484  0.7545
 5035WAT     H220861   4.702   3.125   0.755  2.5508  0.2772 -0.8164
 5035WAT    EPW20862   4.704   3.188   0.802  0.4637 -0.1429 -0.0805
 5036WAT      O20863   0.806   2.554   6.898  0.5893 -0.0005  0.5680
 5036WAT     H120864   0.734   2.507   6.884  0.4359  0.3259  0.2524
 5036WAT     H220865   0.777   2.636   6.903  0.9107  0.1096  0.6516
 5036WAT    EPW20866   0.791   2.559   6.897  0.6141  0.0640  0.5337
 5037WAT      O20867   3.607   2.753   0.341 -0.3831  0.4366 -0.0460
 5037WAT     H120868   3.536   2.720   0.381  0.0907  1.7174  1.9997
 5037WAT     H220869   3.661   2.685   0.335 -1.6433 -0.5193 -1.4675
 5037WAT    EPW20870   3.604   2.739   0.346 -0.4993  0.4846  0.0462
 5038WAT      O20871   3.693   6.342   3.846  0.1003 -0.5936  0.0304
 5038WAT     H120872   3.665   6.273   3.802 -0.0317 -0.3620 -0.2506
 5038WAT     H220873   3.709   6.401   3.784 -2.6364  0.7038  0.4115
 5038WAT    EPW20874   3.692   6.341   3.830 -0.3234 -0.3677  0.0452
 5039WAT      O20875   4.924   6.713   2.399  0.0062  0.1599  0.1414
 5039WAT     H120876   4.964   6.781   2.436  0.1266 -0.1273  0.5486
 5039WAT     H220877   4.958   6.709   2.319 -0.1785  0.7222  0.0321
 5039WAT    EPW20878   4.935   6.722   2.393 -0.0033  0.2005  0.1854
 5040WAT      O20879   3.882   6.542   7.288  0.2479  0.4769  0.3860
 5040WAT     H120880   3.814   6.592   7.263 -0.4167 -0.6576 -0.1931
 5040WAT     H220881   3.883   6.550   7.375  1.0502  2.5725  0.2434
 5040WAT    EPW20882   3.872   6.551   7.297  0.2682  0.6188  0.2794
 5041WAT      O20883   3.532   4.125   7.015 -0.1079 -0.2959  0.1639
 5041WAT     H120884   3.521   4.107   6.930 -2.8761  1.2570  0.0530
 5041WAT     H220885   3.617   4.139   7.023 -0.0702  2.8502 -3.1842
 5041WAT    EPW20886   3.543   4.124   7.004 -0.5112  0.3982 -0.3471
 5042WAT      O20887   4.967   0.286   2.158 -0.4167 -0.6433 -0.0364
 5042WAT     H120888   4.896   0.245   2.128 -0.3965 -1.3377  0.7978
 5042WAT     H220889   5.020   0.220   2.179  0.2017 -0.1452 -0.0313
 5042WAT    EPW20890   4.964   0.270   2.157 -0.3224 -0.6723  0.0876
 5043WAT      O20891   2.402   5.879   1.203 -0.1548 -0.0442 -0.1538
 5043WAT     H120892   2.488   5.870   1.205 -0.1685 -0.0709  0.9238
 5043WAT     H220893   2.388   5.937   1.139  0.9944  3.1057  2.1536
 5043WAT    EPW20894   2.412   5.887   1.194  0.0129  0.4172  0.3462
 5044WAT      O20895   0.125   4.503   4.626 -0.4283 -1.0938  0.1411
 5044WAT     H120896   0.066   4.562   4.649  0.1474 -0.2645 -0.4711
 5044WAT     H220897   0.188   4.513   4.686  0.4453  0.1195 -0.9327
 5044WAT    EPW20898   0.126   4.513   4.639 -0.2142 -0.7921 -0.1080
 5045WAT      O20899   1.988   3.302   1.615  0.3105  0.1714 -0.3441
 5045WAT     H120900   2.067   3.296   1.652  0.0412 -0.0223  0.2100
 5045WAT     H220901   1.981   3.387   1.596 -0.7098  0.8758  2.7254
 5045WAT    EPW20902   1.999   3.314   1.618  0.1200  0.2469  0.1912
 5046WAT      O20903   5.816   0.430   1.638 -0.0775 -0.0266 -0.1749
 5046WAT     H120904   5.861   0.415   1.712  0.1401 -1.5163 -0.5674
 5046WAT     H220905   5.757   0.490   1.662  1.3555  1.1247  0.6442
 5046WAT    EPW20906   5.814   0.436   1.653  0.1663 -0.0766 -0.1119
 5047WAT      O20907   2.045   1.867   3.343 -0.2105 -0.3033  0.7022
 5047WAT     H120908   2.121   1.835   3.372  0.4888  0.3873 -0.3419
 5047WAT     H220909   2.019   1.920   3.407 -0.0781 -0.9221  1.2808
 5047WAT    EPW20910   2.052   1.870   3.357 -0.0877 -0.2927  0.6334
 5048WAT      O20911   5.191   5.909   2.226 -0.5025 -0.1094 -0.2716
 5048WAT     H120912   5.109   5.883   2.210 -0.5481 -0.4305  0.4885
 5048WAT     H220913   5.240   5.849   2.184 -0.6468  1.3400 -2.6862
 5048WAT    EPW20914   5.186   5.896   2.217 -0.5306  0.0573 -0.5160
 5049WAT      O20915   0.613   3.740   1.860  0.2252  0.2877  0.1301
 5049WAT     H120916   0.553   3.798   1.833 -0.8280 -0.0999  1.4966
 5049WAT     H220917   0.666   3.788   1.910 -0.9336  0.0618  1.6732
 5049WAT    EPW20918   0.612   3.756   1.864 -0.1016  0.1971  0.5599
 5050WAT      O20919   2.358   1.518   4.266  0.4600  0.1106 -0.0470
 5050WAT     H120920   2.437   1.553   4.279  0.7106  0.0787 -1.3340
 5050WAT     H220921   2.351   1.515   4.179  0.4167 -2.9214 -0.0603
 5050WAT    EPW20922   2.369   1.522   4.255  0.4906 -0.3420 -0.2391
 5051WAT      O20923   5.839   4.993   1.297  0.8633  0.2776 -0.0749
 5051WAT     H120924   5.886   5.060   1.329 -0.7700 -0.7076  5.5019
 5051WAT     H220925   5.886   4.923   1.318  1.0306 -0.5686 -2.9080
 5051WAT    EPW20926   5.853   4.993   1.305  0.6467  0.0071  0.3304
 5052WAT      O20927   2.325   2.955   0.317  0.6799  0.6816  0.2273
 5052WAT     H120928   2.395   2.970   0.268 -0.1395  0.7358 -0.9609
 5052WAT     H220929   2.280   3.029   0.314  0.7894  0.8249  1.4018
 5052WAT    EPW20930   2.329   2.968   0.310  0.5750  0.7108  0.2253
 5053WAT      O20931   0.874   7.181   4.039  0.2987 -0.1451  0.0635
 5053WAT     H120932   0.856   7.127   4.105 -3.3276  0.2193 -0.3978
 5053WAT     H220933   0.926   7.135   3.987  0.5320 -1.6744  1.5805
 5053WAT    EPW20934   0.879   7.166   4.041 -0.2025 -0.3172  0.2195
 5054WAT      O20935   5.091   5.835   2.607 -0.0107 -0.3012  0.0265
 5054WAT     H120936   5.069   5.918   2.626 -0.2286 -0.4353  0.3749
 5054WAT     H220937   5.035   5.813   2.544  1.2630  0.4255 -1.4339
 5054WAT    EPW20938   5.079   5.844   2.601  0.1453 -0.2137 -0.1378
 5055WAT      O20939   0.514   2.188   2.242 -0.1107  0.2229 -0.0654
 5055WAT     H120940   0.433   2.168   2.218  0.6029 -0.3957 -2.1172
 5055WAT     H220941   0.503   2.236   2.314 -2.1858 -1.6502  0.9768
 5055WAT    EPW20942   0.501   2.192   2.249 -0.3118 -0.1452 -0.2145
 5056WAT      O20943   1.467   1.932   7.221  0.1201 -0.0018  0.5027
 5056WAT     H120944   1.515   1.883   7.274 -0.9579 -0.8803  0.6927
 5056WAT     H220945   1.415   1.977   7.275  0.0694  0.2443  0.2571
 5056WAT    EPW20946   1.466   1.932   7.237 -0.0466 -0.0952  0.4945
 5057WAT      O20947   5.559   6.359   1.942  0.5589 -0.2304 -0.3393
 5057WAT     H120948   5.540   6.441   1.965  0.3409 -0.8027  1.7322
 5057WAT     H220949   5.487   6.331   1.902  0.0046  0.0767  0.4267
 5057WAT    EPW20950   5.546   6.367   1.939  0.4448 -0.2696  0.0798
 5058WAT      O20951   5.429   4.129   0.838  0.2536 -0.2402  0.6896
 5058WAT     H120952   5.412   4.195   0.784  2.1352 -1.7195 -1.9862
 5058WAT     H220953   5.485   4.163   0.895 -0.1168  0.8741  0.4078
 5058WAT    EPW20954   5.435   4.144   0.838  0.4768 -0.2941  0.2527
 5059WAT      O20955   6.201   6.190   5.278  0.6391  0.0550  0.0270
 5059WAT     H120956   6.224   6.117   5.320  1.4566  0.2951  0.0109
 5059WAT     H220957   6.276   6.217   5.241  0.6331  1.5764  1.0507
 5059WAT    EPW20958   6.216   6.183   5.279  0.7590  0.3152  0.1758
 5060WAT      O20959   5.300   5.926   1.367  0.5340 -0.6365  0.0447
 5060WAT     H120960   5.337   5.859   1.325 -0.9544 -0.2449 -2.0344
 5060WAT     H220961   5.255   5.887   1.431  1.2271 -1.4296  0.0780
 5060WAT    EPW20962   5.299   5.910   1.370  0.4165 -0.6958 -0.2575
 5061WAT      O20963   3.947   2.815   5.814  0.0537  0.2509 -0.8247
 5061WAT     H120964   3.942   2.774   5.737 -0.2675 -0.1772 -0.5827
 5061WAT     H220965   4.031   2.836   5.822  0.1038  0.2024 -1.2464
 5061WAT    EPW20966   3.959   2.812   5.804  0.0137  0.1805 -0.8513
 5062WAT      O20967   2.366   1.655   2.098  0.2762  0.2493  0.3977
 5062WAT     H120968   2.401   1.591   2.051  0.3403  1.4023 -1.2360
 5062WAT     H220969   2.290   1.622   2.126  0.9501 -0.9918  0.8012
 5062WAT    EPW20970   2.360   1.641   2.095  0.3852  0.2363  0.2160
 5063WAT      O20971   0.183   3.934   3.078  0.3786 -0.0591  0.3207
 5063WAT     H120972   0.194   3.998   3.019 -1.5575  1.9267  1.9579
 5063WAT     H220973   0.116   3.888   3.047 -0.5333  0.8881  0.8277
 5063WAT    EPW20974   0.175   3.937   3.065 -0.0421  0.3742  0.6375
 5064WAT      O20975   4.604   4.786   2.543 -0.4763  0.3529 -0.3371
 5064WAT     H120976   4.594   4.729   2.609 -0.7581 -0.1103 -0.7731
 5064WAT     H220977   4.526   4.824   2.536 -0.2751  0.8354 -0.0166
 5064WAT    EPW20978   4.591   4.783   2.552 -0.4882  0.3558 -0.3542
 5065WAT      O20979   1.301   2.028   0.210  0.0479 -0.0976 -0.0483
 5065WAT     H120980   1.378   2.069   0.209 -0.1583  0.4584 -2.9911
 5065WAT     H220981   1.243   2.094   0.216 -0.2323 -0.3343 -0.1478
 5065WAT    EPW20982   1.303   2.044   0.211 -0.0239 -0.0505 -0.4977
 5066WAT      O20983   1.724   6.859   5.807  0.2119 -0.1345  0.9615
 5066WAT     H120984   1.802   6.838   5.775 -0.2860 -1.9174  0.8313
 5066WAT     H220985   1.738   6.936   5.845  1.7731  0.0864  0.0260
 5066WAT    EPW20986   1.738   6.867   5.808  0.3690 -0.3652  0.8041
 5067WAT      O20987   6.727   3.898   1.642  0.3683 -0.2321 -0.9803
 5067WAT     H120988   6.713   3.923   1.724  1.1702 -1.7541 -0.3410
 5067WAT     H220989   6.805   3.933   1.623  1.5669 -2.1928 -0.0293
 5067WAT    EPW20990   6.737   3.907   1.651  0.6638 -0.7466 -0.7454
 5068WAT      O20991   3.741   4.240   5.529 -0.0296 -0.4591  0.1484
 5068WAT     H120992   3.694   4.269   5.596  0.5065  1.1288 -0.1157
 5068WAT     H220993   3.804   4.192   5.567  0.5025  0.7447  0.8401
 5068WAT    EPW20994   3.743   4.237   5.544  0.1282 -0.0467  0.2116
 5069WAT      O20995   4.130   5.563   0.127 -0.3340  0.7759 -0.1125
 5069WAT     H120996   4.182   5.629   0.102 -1.1174  1.7458  0.7331
 5069WAT     H220997   4.072   5.602   0.179 -0.2129 -0.7501  1.2221
 5069WAT    EPW20998   4.129   5.579   0.131 -0.4319  0.6937  0.2095
 5070WAT      O20999   3.204   5.207   2.659  0.2285 -0.0911  0.0772
 5070WAT     H121000   3.241   5.130   2.678 -0.5315 -0.3523  0.5622
 5070WAT     H221001   3.202   5.248   2.736 -2.2247 -0.8664  0.5343
 5070WAT    EPW21002   3.209   5.202   2.674 -0.2462 -0.2442  0.2164
 5071WAT      O21003   4.595   0.799   5.483 -0.3066  0.2574 -0.2024
 5071WAT     H121004   4.639   0.741   5.531 -0.8764  0.2266  0.2933
 5071WAT     H221005   4.647   0.813   5.414  1.2414  1.5171  1.1726
 5071WAT    EPW21006   4.609   0.792   5.480 -0.1621  0.4390  0.0739
 5072WAT      O21007   5.343   2.458   7.334 -0.6093 -0.0656 -0.4937
 5072WAT     H121008   5.430   2.452   7.325 -0.5101  0.2987  0.2144
 5072WAT     H221009   5.320   2.515   7.272 -0.4389 -0.6974 -1.1570
 5072WAT    EPW21010   5.352   2.465   7.323 -0.5695 -0.1051 -0.4871
 5073WAT      O21011   0.654   2.648   5.814  0.7549  0.2977 -0.0391
 5073WAT     H121012   0.601   2.700   5.859  0.4951  0.2505 -0.2929
 5073WAT     H221013   0.609   2.573   5.808  1.5777 -0.3554  1.3131
 5073WAT    EPW21014   0.640   2.644   5.820  0.8381  0.1943  0.1232
 5074WAT      O21015   6.834   4.834   7.362  0.5881 -0.0933  0.8522
 5074WAT     H121016   6.754   4.864   7.346  0.6054  0.5049  1.8476
 5074WAT     H221017   6.830   4.751   7.336 -0.1802  0.0802  0.3749
 5074WAT    EPW21018   6.822   4.826   7.356  0.4771  0.0207  0.9287
 5075WAT      O21019   4.619   0.892   2.943 -0.3328 -0.2108  0.3008
 5075WAT     H121020   4.705   0.874   2.945 -0.5812 -1.3666  0.8436
 5075WAT     H221021   4.609   0.948   3.008  0.1900  0.8353 -0.4774
 5075WAT    EPW21022   4.630   0.898   2.953 -0.2923 -0.2270  0.2661
 5076WAT      O21023   4.688   6.779   1.505 -0.1804 -0.2094  0.2565
 5076WAT     H121024   4.634   6.710   1.507  0.3289 -0.6186  1.9421
 5076WAT     H221025   4.753   6.753   1.454 -0.4594 -0.6055  0.0929
 5076WAT    EPW21026   4.689   6.765   1.498 -0.1464 -0.3284  0.4813
 5077WAT      O21027   3.800   0.521   5.863  0.1191  0.0988  0.2559
 5077WAT     H121028   3.783   0.458   5.806  2.0201 -0.6723  0.4543
 5077WAT     H221029   3.746   0.505   5.929 -0.6977 -0.1950 -0.4701
 5077WAT    EPW21030   3.790   0.509   5.864  0.2792 -0.0585  0.1780
 5078WAT      O21031   4.609   5.039   6.611  0.2142  0.0494  0.0557
 5078WAT     H121032   4.625   5.125   6.609  1.0659 -0.1114 -0.6109
 5078WAT     H221033   4.669   5.006   6.558 -0.5931 -0.8902 -0.3036
 5078WAT    EPW21034   4.620   5.047   6.603  0.2207 -0.1131 -0.0958
 5079WAT      O21035   4.719   1.592   0.790 -0.1974 -0.2778  0.5356
 5079WAT     H121036   4.638   1.574   0.815 -1.0550  1.5094 -0.7629
 5079WAT     H221037   4.743   1.523   0.743 -1.2322 -0.5316  0.3752
 5079WAT    EPW21038   4.711   1.579   0.787 -0.4769 -0.0513  0.3201
 5080WAT      O21039   2.418   3.215   0.256 -0.4000  0.3804 -0.1948
 5080WAT     H121040   2.356   3.253   0.303  0.8081  1.4027  0.6653
 5080WAT     H221041   2.486   3.212   0.311  0.5182 -0.0406 -1.3116
 5080WAT    EPW21042   2.419   3.220   0.271 -0.0859  0.4692 -0.2327
 5081WAT      O21043   3.255   3.522   7.352  0.2219  0.1941  0.1307
 5081WAT     H121044   3.342   3.512   7.349  0.1976  0.1785 -1.3414
 5081WAT     H221045   3.235   3.551   7.272 -1.1978 -0.3195  0.2664
 5081WAT    EPW21046   3.265   3.525   7.340  0.0086  0.1160 -0.0667
 5082WAT      O21047   1.834   0.897   7.408 -0.5371 -0.0954  0.0482
 5082WAT     H121048   1.810   0.896   7.324 -0.0216  0.2368 -0.1078
 5082WAT     H221049   1.766   0.861   7.449 -0.9724  0.1308 -0.4651
 5082WAT    EPW21050   1.821   0.891   7.402 -0.5253 -0.0129 -0.0507
 5083WAT      O21051   4.379   3.697   3.515 -0.2912 -0.0790  0.2946
 5083WAT     H121052   4.399   3.715   3.433  1.1447  2.4355  1.0970
 5083WAT     H221053   4.453   3.711   3.559 -1.0590 -1.1441  2.0754
 5083WAT    EPW21054   4.393   3.702   3.510 -0.1925  0.1351  0.6762
 5084WAT      O21055   6.581   7.109   1.946  0.4805 -0.5263 -0.3018
 5084WAT     H121056   6.570   7.116   2.032  3.6758 -1.9504  0.3552
 5084WAT     H221057   6.657   7.151   1.931 -0.8148  1.2593 -2.8006
 5084WAT    EPW21058   6.591   7.116   1.956  0.7612 -0.4729 -0.5739
 5085WAT      O21059   5.973   5.285   6.282  0.4407 -0.0552  0.0640
 5085WAT     H121060   6.024   5.295   6.352 -0.4105 -2.2661  1.1090
 5085WAT     H221061   5.921   5.218   6.304 -1.3830  0.6293 -1.8234
 5085WAT    EPW21062   5.973   5.276   6.296  0.0455 -0.2807 -0.0604
 5086WAT      O21063   1.162   6.701   1.644  0.3607  0.1235 -0.5822
 5086WAT     H121064   1.075   6.707   1.636  0.4810  0.0381 -2.5347
 5086WAT     H221065   1.175   6.701   1.730 -1.7596 -2.4802 -0.1315
 5086WAT    EPW21066   1.151   6.702   1.655  0.0652 -0.2738 -0.8040
 5087WAT      O21067   4.053   1.243   2.749  0.0754 -0.7130 -0.1525
 5087WAT     H121068   4.042   1.160   2.723  1.2410 -0.6097 -1.1072
 5087WAT     H221069   4.004   1.289   2.693  1.5885 -0.5920 -1.4817
 5087WAT    EPW21070   4.044   1.237   2.737  0.4711 -0.6799 -0.4899
 5088WAT      O21071   5.562   1.096   2.678  0.0635  0.2863 -0.4503
 5088WAT     H121072   5.606   1.036   2.632 -0.7448 -0.5775 -0.1253
 5088WAT     H221073   5.565   1.166   2.627  0.3865 -0.2487 -1.1937
 5088WAT    EPW21074   5.569   1.097   2.664 -0.0082  0.0797 -0.5121
 5089WAT      O21075   3.574   2.982   5.920  0.0399  0.0070 -0.5960
 5089WAT     H121076   3.582   2.991   5.834  2.0882  0.1450 -0.4512
 5089WAT     H221077   3.551   2.899   5.930  1.2650 -0.4470 -1.2637
 5089WAT    EPW21078   3.572   2.971   5.909  0.5235 -0.0397 -0.6732
 5090WAT      O21079   5.066   3.539   6.507 -0.3088  0.5405  0.0239
 5090WAT     H121080   5.017   3.490   6.455  0.2393  0.5512 -0.5108
 5090WAT     H221081   5.067   3.495   6.582  1.2650 -0.9909 -0.8289
 5090WAT    EPW21082   5.059   3.526   6.511  0.0046  0.3159 -0.1811
 5091WAT      O21083   3.121   2.211   4.546  0.4159 -0.2689  0.3684
 5091WAT     H121084   3.140   2.214   4.461  2.6131 -3.5116  0.5745
 5091WAT     H221085   3.193   2.178   4.582  0.9701  4.0178  4.1537
 5091WAT    EPW21086   3.134   2.207   4.539  0.8224 -0.1147  0.9580
 5092WAT      O21087   2.088   1.868   3.818  0.6250  0.4942 -0.1348
 5092WAT     H121088   2.164   1.841   3.785  0.1678  0.2495 -1.0198
 5092WAT     H221089   2.095   1.851   3.904  0.1515 -3.0795 -0.6293
 5092WAT    EPW21090   2.100   1.861   3.826  0.4875 -0.0699 -0.3386
 5093WAT      O21091   1.877   6.279   0.850 -0.4930  0.2204  0.0609
 5093WAT     H121092   1.946   6.230   0.869  0.3725  0.5736 -1.9072
 5093WAT     H221093   1.869   6.270   0.763 -3.7556 -0.8858  0.3618
 5093WAT    EPW21094   1.886   6.270   0.840 -0.8471  0.1092 -0.1854
 5094WAT      O21095   6.023   1.041   6.087 -0.0718 -0.5030 -0.2222
 5094WAT     H121096   6.081   1.070   6.146 -0.4470  0.9844 -0.5676
 5094WAT     H221097   5.946   1.062   6.122 -0.3439 -0.6955 -0.7027
 5094WAT    EPW21098   6.020   1.048   6.101 -0.1674 -0.3117 -0.3442
 5095WAT      O21099   5.821   1.759   6.382  0.4565 -0.5509  0.5401
 5095WAT     H121100   5.825   1.674   6.366 -2.7715 -0.5517 -1.2264
 5095WAT     H221101   5.843   1.796   6.306  0.3963  0.1097  0.8321
 5095WAT    EPW21102   5.825   1.752   6.368 -0.0292 -0.4534  0.3223
 5096WAT      O21103   4.622   1.460   0.058  0.2466  0.0864 -0.1608
 5096WAT     H121104   4.537   1.452   0.078 -0.0125  2.3681 -0.0050
 5096WAT     H221105   4.663   1.428   0.128 -0.4095 -1.8443 -0.5901
 5096WAT    EPW21106   4.615   1.454   0.071  0.1114  0.1382 -0.2012
 5097WAT      O21107   2.060   3.302   6.971 -0.6149 -0.0601 -0.0399
 5097WAT     H121108   2.043   3.361   7.032 -0.1327  1.3605 -1.2011
 5097WAT     H221109   2.133   3.333   6.933 -1.1444 -0.6116 -1.5971
 5097WAT    EPW21110   2.068   3.316   6.974 -0.6219  0.0683 -0.4415
 5098WAT      O21111   6.788   2.460   4.607  0.4918 -0.5971 -0.3019
 5098WAT     H121112   6.787   2.518   4.542  0.5249 -0.7254 -0.4181
 5098WAT     H221113   6.873   2.456   4.630  0.3552  0.1208  0.3603
 5098WAT    EPW21114   6.801   2.468   4.601  0.4765 -0.5100 -0.2212
 5099WAT      O21115   6.511   3.111   0.404 -0.2986 -0.1143 -0.7259
 5099WAT     H121116   6.587   3.146   0.379  0.4184 -0.3840  0.9713
 5099WAT     H221117   6.534   3.052   0.464 -1.9761  2.0237  2.2814
 5099WAT    EPW21118   6.526   3.107   0.409 -0.4404  0.1617 -0.0309
 5100WAT      O21119   1.000   2.353   1.113  0.5129 -0.2830 -0.5278
 5100WAT     H121120   0.967   2.413   1.058  3.8609  1.3740 -0.9422
 5100WAT     H221121   1.045   2.299   1.060  1.3308 -0.4275  0.2884
 5100WAT    EPW21122   1.002   2.354   1.097  1.1283 -0.0595 -0.4685
 5101WAT      O21123   2.479   5.382   6.525 -0.5403  0.4277 -0.0109
 5101WAT     H121124   2.398   5.373   6.495 -0.2947 -0.4975 -0.4353
 5101WAT     H221125   2.511   5.301   6.524  0.8559  0.9442 -1.2328
 5101WAT    EPW21126   2.472   5.369   6.520 -0.2978  0.3673 -0.2541
 5102WAT      O21127   7.016   2.455   0.721 -0.0510  0.3975  0.0963
 5102WAT     H121128   6.940   2.437   0.683 -1.1739  0.7159  2.0220
 5102WAT     H221129   7.058   2.502   0.661 -0.5111 -1.4540 -1.7746
 5102WAT    EPW21130   7.011   2.460   0.707 -0.2849  0.1710  0.1044
 5103WAT      O21131   1.172   0.639   6.740 -0.3783  0.5373  0.3069
 5103WAT     H121132   1.108   0.586   6.713 -0.5092  0.0464  1.5240
 5103WAT     H221133   1.175   0.625   6.826  0.2900  1.7521  0.4954
 5103WAT    EPW21134   1.163   0.629   6.749 -0.2989  0.6442  0.5145
 5104WAT      O21135   4.819   6.045   1.999 -0.6807 -0.0433 -0.0661
 5104WAT     H121136   4.892   6.093   2.004  0.1968 -1.4149  1.5838
 5104WAT     H221137   4.756   6.102   2.016  0.3038  0.6480  1.5295
 5104WAT    EPW21138   4.820   6.060   2.002 -0.4056 -0.1438  0.4133
 5105WAT      O21139   7.276   5.824   0.588 -0.2537  0.2154  0.2492
 5105WAT     H121140   7.246   5.897   0.624  0.8843  1.5336 -1.2822
 5105WAT     H221141   7.362   5.838   0.582  0.2402 -1.9287  1.3017
 5105WAT    EPW21142   7.285   5.837   0.592 -0.0127  0.0934  0.1784
 5106WAT      O21143   6.146   6.816   3.029 -0.8961 -0.1634  0.2990
 5106WAT     H121144   6.191   6.794   3.101 -0.1205  1.8768  0.5040
 5106WAT     H221145   6.098   6.745   3.013 -0.9679 -0.7640  2.7308
 5106WAT    EPW21146   6.145   6.802   3.037 -0.7921  0.0493  0.6885
 5107WAT      O21147   0.575   0.542   4.845  0.2989 -0.2997 -0.0290
 5107WAT     H121148   0.585   0.585   4.769 -2.6011 -0.8959 -0.8980
 5107WAT     H221149   0.512   0.587   4.885 -1.8238 -2.7453 -0.3422
 5107WAT    EPW21150   0.567   0.555   4.839 -0.4431 -0.7491 -0.2037
 5108WAT      O21151   1.950   4.206   3.130 -0.2328  0.5846 -0.1997
 5108WAT     H121152   1.930   4.172   3.207 -0.3849  2.1396  0.4818
 5108WAT     H221153   1.921   4.147   3.073 -0.5641 -0.3548  0.9106
 5108WAT    EPW21154   1.943   4.192   3.133 -0.3042  0.6755  0.0650
 5109WAT      O21155   6.793   0.170   0.461  0.4628  0.0184  0.1210
 5109WAT     H121156   6.850   0.180   0.526  1.2054 -2.7276  0.0356
 5109WAT     H221157   6.719   0.150   0.501  0.5239 -0.0894  0.1828
 5109WAT    EPW21158   6.791   0.168   0.476  0.5816 -0.4032  0.1175
 5110WAT      O21159   5.099   7.203   1.969  0.1881 -0.0926 -0.2589
 5110WAT     H121160   5.058   7.128   1.986 -1.1389  0.3154 -1.3893
 5110WAT     H221161   5.180   7.179   1.949 -0.6274 -1.4696 -2.2788
 5110WAT    EPW21162   5.105   7.189   1.968 -0.1284 -0.2358 -0.7243
 5111WAT      O21163   5.875   2.391   7.068  0.2859 -0.3198 -0.2797
 5111WAT     H121164   5.952   2.378   7.108 -1.3727 -3.2040  2.4520
 5111WAT     H221165   5.880   2.341   6.997  0.7072 -1.1201  0.2958
 5111WAT    EPW21166   5.887   2.382   7.063  0.1031 -0.8641  0.2088
 5112WAT      O21167   7.196   5.196   0.147 -0.1144 -0.3466  0.2339
 5112WAT     H121168   7.118   5.162   0.126 -0.2335  0.5529 -0.9132
 5112WAT     H221169   7.180   5.281   0.152  0.7957 -0.1580  0.0144
 5112WAT    EPW21170   7.182   5.203   0.144  0.0025 -0.1859  0.0321
 5113WAT      O21171   0.286   5.627   0.120  0.0727  0.1381 -0.0047
 5113WAT     H121172   0.256   5.575   0.056 -0.5160 -0.6069  0.8346
 5113WAT     H221173   0.359   5.587   0.146 -1.1563 -1.1804  1.6490
 5113WAT    EPW21174   0.292   5.613   0.114 -0.1958 -0.1667  0.3636
 5114WAT      O21175   2.012   2.982   7.135 -0.0495 -0.3009  0.5668
 5114WAT     H121176   2.035   2.978   7.051 -0.0391 -2.2243  0.6301
 5114WAT     H221177   2.031   3.065   7.157  1.0177 -0.0853 -1.0027
 5114WAT    EPW21178   2.018   2.994   7.126  0.1097 -0.5531  0.3443
 5115WAT      O21179   4.879   3.878   6.188 -0.3209 -0.3878  0.1327
 5115WAT     H121180   4.860   3.834   6.261  1.7828 -1.5918  0.0439
 5115WAT     H221181   4.958   3.913   6.205  0.5637 -1.3038 -1.7717
 5115WAT    EPW21182   4.888   3.877   6.201  0.1206 -0.7010 -0.1617
 5116WAT      O21183   5.576   2.785   6.684  0.5671  0.2320  0.0141
 5116WAT     H121184   5.493   2.812   6.683 -0.2616 -1.4742  3.8328
 5116WAT     H221185   5.599   2.784   6.600 -3.4822  0.0968 -1.2958
 5116WAT    EPW21186   5.567   2.789   6.672 -0.1535 -0.0400  0.3847
 5117WAT      O21187   0.116   4.193   0.623  0.0198  0.4567  0.7154
 5117WAT     H121188   0.067   4.216   0.691  0.0665 -0.1684  0.9702
 5117WAT     H221189   0.091   4.248   0.560 -0.8447  0.3000  0.9056
 5117WAT    EPW21190   0.105   4.205   0.624 -0.1010  0.3412  0.7811
 5118WAT      O21191   1.767   1.724   4.816 -0.2110 -0.2981  0.1553
 5118WAT     H121192   1.819   1.794   4.811  1.9350 -1.8358 -0.3201
 5118WAT     H221193   1.719   1.738   4.888  0.3392  1.5130  0.2059
 5118WAT    EPW21194   1.768   1.736   4.826  0.1873 -0.2577  0.0925
 5119WAT      O21195   5.483   4.732   5.002 -0.2805  0.4893  0.3460
 5119WAT     H121196   5.516   4.795   5.052 -0.2150  0.2285  0.6334
 5119WAT     H221197   5.404   4.718   5.035 -0.7333  1.1791 -0.4005
 5119WAT    EPW21198   5.477   4.739   5.014 -0.3377  0.5527  0.2782
 5120WAT      O21199   3.913   6.695   2.755  0.2443  0.2800 -0.5964
 5120WAT     H121200   3.923   6.609   2.747  1.8886  0.2375  1.2049
 5120WAT     H221201   3.852   6.703   2.817  0.1618  0.4285 -0.6940
 5120WAT    EPW21202   3.906   6.683   2.763  0.4750  0.2957 -0.3447
 5121WAT      O21203   1.277   3.730   5.478 -0.6546 -0.1534 -0.1941
 5121WAT     H121204   1.200   3.691   5.494  0.4987 -2.1961  0.8602
 5121WAT     H221205   1.327   3.664   5.449  1.2521  0.6640  1.0260
 5121WAT    EPW21206   1.273   3.714   5.476 -0.2026 -0.3344  0.1419
 5122WAT      O21207   1.384   6.282   0.518 -0.2306 -0.1445  0.3825
 5122WAT     H121208   1.377   6.207   0.474 -1.9785 -0.0038  0.3166
 5122WAT     H221209   1.339   6.266   0.591 -1.4282  1.0812 -0.0356
 5122WAT    EPW21210   1.376   6.269   0.522 -0.6657  0.0574  0.3110
 5123WAT      O21211   5.447   7.066   2.315 -0.2603  0.1229 -0.6430
 5123WAT     H121212   5.532   7.083   2.320 -0.1400 -0.7142  0.4264
 5123WAT     H221213   5.423   7.055   2.398 -1.8682  2.3800 -0.7007
 5123WAT    EPW21214   5.456   7.067   2.328 -0.4800  0.3327 -0.4935
 5124WAT      O21215   3.653   7.219   6.312  0.0320  0.5204  0.3845
 5124WAT     H121216   3.650   7.251   6.231 -3.6595 -0.1125  0.0816
 5124WAT     H221217   3.626   7.137   6.303  1.7902 -0.3249  2.0494
 5124WAT    EPW21218   3.648   7.212   6.299 -0.2536  0.3021  0.5857
 5125WAT      O21219   2.832   7.189   5.757  0.4027  0.0535  0.3624
 5125WAT     H121220   2.766   7.133   5.746  1.1511 -0.7987  0.0579
 5125WAT     H221221   2.817   7.223   5.836 -0.9490  0.6462 -0.1140
 5125WAT    EPW21222   2.820   7.185   5.767  0.3136  0.0152  0.2471
 5126WAT      O21223   6.544   3.661   1.393 -0.1963 -0.6021 -0.6644
 5126WAT     H121224   6.553   3.622   1.471  0.6728 -0.1933 -0.5511
 5126WAT     H221225   6.608   3.625   1.345 -0.6081 -0.7114 -1.1337
 5126WAT    EPW21226   6.555   3.650   1.398 -0.1287 -0.5579 -0.7170
 5127WAT      O21227   3.394   6.722   2.036 -0.5834  0.2841  0.6708
 5127WAT     H121228   3.374   6.807   2.033  1.7124  0.9113  1.2080
 5127WAT     H221229   3.391   6.698   1.952  1.0308  1.5305  0.1927
 5127WAT    EPW21230   3.391   6.731   2.023 -0.0058  0.5608  0.6795
 5128WAT      O21231   1.578   3.967   5.301  0.4422  0.2124 -0.1294
 5128WAT     H121232   1.541   3.924   5.235  0.4422 -0.1278  0.0919
 5128WAT     H221233   1.660   3.980   5.274  0.5857 -0.3822  0.0216
 5128WAT    EPW21234   1.584   3.963   5.287  0.4634  0.0743 -0.0744
 5129WAT      O21235   1.063   4.572   6.724  0.3596 -0.1580  0.4005
 5129WAT     H121236   1.137   4.533   6.745  0.4581  0.5443  1.4344
 5129WAT     H221237   1.068   4.581   6.637  1.8829  0.6738  0.5529
 5129WAT    EPW21238   1.074   4.568   6.714  0.5992  0.0686  0.5758
 5130WAT      O21239   0.425   0.952   7.416 -0.1383 -0.5366  0.4425
 5130WAT     H121240   0.421   1.035   7.442  0.5149 -0.6734  0.9887
 5130WAT     H221241   0.510   0.933   7.418 -0.4149 -1.8250  2.2982
 5130WAT    EPW21242   0.437   0.961   7.420 -0.0826 -0.7472  0.7973
 5131WAT      O21243   1.437   2.583   2.986  0.0112  0.0888 -0.2214
 5131WAT     H121244   1.433   2.500   3.012  1.8440  0.1238  0.3205
 5131WAT     H221245   1.400   2.582   2.907  1.3501 -1.5693 -0.8907
 5131WAT    EPW21246   1.431   2.571   2.978  0.4797 -0.1510 -0.2402
 5132WAT      O21247   6.155   4.458   0.744  0.4368  0.5621  0.3210
 5132WAT     H121248   6.205   4.399   0.703 -0.1673 -0.3470  0.8660
 5132WAT     H221249   6.089   4.471   0.689  0.5850  0.7536  0.1879
 5132WAT    EPW21250   6.153   4.451   0.730  0.3695  0.4561  0.3818
 5133WAT      O21251   2.221   4.880   2.460 -0.3333 -0.0561 -0.3669
 5133WAT     H121252   2.244   4.812   2.411  0.0835  0.1889 -0.5158
 5133WAT     H221253   2.293   4.929   2.462 -0.7598  0.5823 -0.6017
 5133WAT    EPW21254   2.235   4.877   2.453 -0.3347  0.0744 -0.4236
 5134WAT      O21255   4.745   2.710   1.532 -0.2984 -0.3070 -0.1298
 5134WAT     H121256   4.721   2.703   1.448 -0.7970 -2.7103  0.1169
 5134WAT     H221257   4.688   2.658   1.573  0.4855  0.1174  1.5776
 5134WAT    EPW21258   4.733   2.701   1.526 -0.2562 -0.5993  0.1589
 5135WAT      O21259   1.004   2.751   2.693  0.4291  0.5320 -0.0716
 5135WAT     H121260   1.000   2.736   2.779 -0.3791  2.7145  0.3411
 5135WAT     H221261   0.941   2.810   2.680 -0.2421 -0.5586 -2.3873
 5135WAT    EPW21262   0.994   2.758   2.704  0.2105  0.6933 -0.3527
 5136WAT      O21263   6.160   3.201   3.195 -0.5373 -0.6031  0.6947
 5136WAT     H121264   6.178   3.242   3.270  1.4206 -0.3839  0.1612
 5136WAT     H221265   6.239   3.177   3.166 -0.9656  1.1976 -2.3260
 5136WAT    EPW21266   6.174   3.204   3.202 -0.3113 -0.3048  0.1697
 5137WAT      O21267   6.724   4.608   0.274 -0.3036  0.2319  0.0175
 5137WAT     H121268   6.672   4.655   0.326 -1.1306 -0.6710  0.0558
 5137WAT     H221269   6.698   4.628   0.194  0.5275  1.1273 -0.0498
 5137WAT    EPW21270   6.713   4.618   0.270 -0.3030  0.2308  0.0132
 5138WAT      O21271   3.255   6.606   3.188  0.0371 -0.2535 -0.5437
 5138WAT     H121272   3.242   6.520   3.177  0.7824 -0.2982 -1.1779
 5138WAT     H221273   3.261   6.636   3.106  0.7757  0.2399 -0.3124
 5138WAT    EPW21274   3.254   6.598   3.174  0.2563 -0.1872 -0.6032
 5139WAT      O21275   6.304   1.730   2.653  0.0387  0.2263  0.1035
 5139WAT     H121276   6.350   1.794   2.616 -2.1076  1.4680 -0.5781
 5139WAT     H221277   6.263   1.769   2.719  0.5488 -1.0133  1.1871
 5139WAT    EPW21278   6.304   1.745   2.657 -0.2030  0.2266  0.1629
 5140WAT      O21279   7.152   1.881   3.249  0.2444  0.3208  0.3295
 5140WAT     H121280   7.128   1.911   3.171 -0.8568 -0.2020  0.4454
 5140WAT     H221281   7.214   1.822   3.230 -0.3119 -0.1145 -0.2052
 5140WAT    EPW21282   7.158   1.876   3.234 -0.0005  0.1793  0.2676
 5141WAT      O21283   1.592   2.330   5.777 -0.1119  0.0892 -0.4006
 5141WAT     H121284   1.610   2.412   5.799  1.9893 -0.4131 -0.0918
 5141WAT     H221285   1.514   2.337   5.738 -0.5036  2.0480  0.5765
 5141WAT    EPW21286   1.583   2.343   5.774  0.1406  0.3043 -0.2107
 5142WAT      O21287   2.277   6.919   3.072 -0.2107  0.2310 -0.0029
 5142WAT     H121288   2.285   6.834   3.087  1.1301 -0.4954 -3.7858
 5142WAT     H221289   2.334   6.956   3.127 -0.2961 -1.3099  1.1805
 5142WAT    EPW21290   2.287   6.912   3.083 -0.0252 -0.1039 -0.3869
 5143WAT      O21291   2.097   1.554   1.735  0.2044 -0.5174  0.6204
 5143WAT     H121292   2.017   1.552   1.700  0.5420  1.2096 -0.3708
 5143WAT     H221293   2.149   1.538   1.667  0.8562  2.4634  0.2712
 5143WAT    EPW21294   2.093   1.551   1.719  0.3505  0.1780  0.4224
 5144WAT      O21295   0.008   6.119   0.971  0.0935  0.0864 -0.3514
 5144WAT     H121296   0.022   6.085   1.051 -3.2449 -1.4977 -0.2526
 5144WAT     H221297  -0.004   6.203   0.988 -0.2872 -0.1717  0.8294
 5144WAT    EPW21298   0.008   6.126   0.986 -0.4559 -0.1857 -0.1623
 5145WAT      O21299   4.744   6.394   3.570  0.0022 -0.5407  0.5394
 5145WAT     H121300   4.699   6.423   3.638 -1.0526 -0.3643 -0.2165
 5145WAT     H221301   4.695   6.328   3.539 -1.0721  1.1992 -1.7702
 5145WAT    EPW21302   4.730   6.388   3.576 -0.3123 -0.2576  0.0866
 5146WAT      O21303   7.102   3.681   2.372  0.9453 -0.1570 -0.2505
 5146WAT     H121304   7.160   3.684   2.307 -0.3697 -0.4170 -1.4812
 5146WAT     H221305   7.026   3.674   2.331  0.0491 -0.0881  1.3306
 5146WAT    EPW21306   7.099   3.681   2.356  0.6187 -0.1852 -0.1987
 5147WAT      O21307   3.273   5.427   3.818 -0.0716  0.1841 -0.0977
 5147WAT     H121308   3.321   5.361   3.848 -1.7401 -1.6975 -1.3261
 5147WAT     H221309   3.246   5.467   3.891  1.1764 -0.3162  0.6707
 5147WAT    EPW21310   3.276   5.423   3.833 -0.1337 -0.1678 -0.1657
 5148WAT      O21311   6.605   6.968   0.255 -0.3705 -0.6321 -0.4715
 5148WAT     H121312   6.688   6.968   0.228 -0.7807  0.7079 -1.9133
 5148WAT     H221313   6.595   7.048   0.288 -0.9259 -1.0036  0.2890
 5148WAT    EPW21314   6.615   6.980   0.256 -0.5131 -0.4890 -0.5721
 5149WAT      O21315   6.166   6.733   5.326 -0.1053  0.0006 -0.0243
 5149WAT     H121316   6.185   6.795   5.386 -3.6029  1.7549 -0.5028
 5149WAT     H221317   6.151   6.662   5.375 -0.4575  0.7288  0.9653
 5149WAT    EPW21318   6.167   6.732   5.342 -0.6740  0.3673  0.0512
 5150WAT      O21319   1.808   6.314   1.338 -0.4158 -1.0632 -0.3978
 5150WAT     H121320   1.813   6.281   1.419 -0.3818 -1.3662 -0.5239
 5150WAT     H221321   1.742   6.371   1.344 -0.2396 -0.8864 -0.0873
 5150WAT    EPW21322   1.799   6.318   1.351 -0.3847 -1.0818 -0.3705
 5151WAT      O21323   0.901   1.533   1.278  0.5007  0.8118 -0.1625
 5151WAT     H121324   0.818   1.542   1.252  0.9831  1.5821 -1.5699
 5151WAT     H221325   0.923   1.454   1.250 -1.0626 -1.5925  4.3557
 5151WAT    EPW21326   0.892   1.523   1.270  0.3410  0.5705  0.2970
 5152WAT      O21327   0.254   7.208   0.164  0.0824 -0.0341 -0.3295
 5152WAT     H121328   0.282   7.288   0.183  0.4127 -0.3073  0.3651
 5152WAT     H221329   0.306   7.182   0.100  0.7012 -0.1136  0.2001
 5152WAT    EPW21330   0.266   7.216   0.157  0.2226 -0.0862 -0.1487
 5153WAT      O21331   2.580   0.851   4.267 -0.0145  0.6000 -0.8551
 5153WAT     H121332   2.650   0.896   4.294  0.2633 -0.5349  0.4742
 5153WAT     H221333   2.603   0.768   4.281 -1.9816  0.2327  0.6104
 5153WAT    EPW21334   2.594   0.845   4.273 -0.2641  0.3781 -0.4422
 5154WAT      O21335   5.687   1.036   5.924 -0.1478  0.0742  0.2583
 5154WAT     H121336   5.683   0.979   5.858  1.1023 -0.4473  0.5960
 5154WAT     H221337   5.766   1.072   5.915 -0.0262  0.1178  1.3665
 5154WAT    EPW21338   5.698   1.033   5.913  0.0548  0.0036  0.4718
 5155WAT      O21339   5.997   5.837   1.066  0.2964 -0.1660 -0.3297
 5155WAT     H121340   5.913   5.820   1.050 -0.5477  1.1380  2.1063
 5155WAT     H221341   5.997   5.922   1.085  1.8150 -0.4968  1.5000
 5155WAT    EPW21342   5.985   5.847   1.066  0.3960 -0.0223  0.3004
 5156WAT      O21343   5.473   3.493   2.867  0.1295 -0.4563  0.4220
 5156WAT     H121344   5.544   3.466   2.910  1.7693 -0.4945 -2.1242
 5156WAT     H221345   5.472   3.443   2.795  0.3655  2.7502 -2.0066
 5156WAT    EPW21346   5.483   3.481   2.863  0.4066  0.0118 -0.3129
 5157WAT      O21347   7.316   4.305   3.045 -0.2051 -0.2292  0.4349
 5157WAT     H121348   7.360   4.255   2.988 -0.0409  0.0958  0.2733
 5157WAT     H221349   7.319   4.259   3.119  0.3845 -0.2229  0.4184
 5157WAT    EPW21350   7.323   4.291   3.047 -0.0938 -0.1803  0.4086
 5158WAT      O21351   6.812   5.817   2.588  0.0209 -0.3248  0.6086
 5158WAT     H121352   6.872   5.805   2.651  1.4484 -0.0011 -0.6360
 5158WAT     H221353   6.824   5.900   2.565 -0.1905 -0.5684 -0.3950
 5158WAT    EPW21354   6.823   5.827   2.594  0.2005 -0.3130  0.2765
 5159WAT      O21355   3.914   0.401   0.122  0.7617 -0.3868  0.0151
 5159WAT     H121356   3.895   0.393   0.038 -0.4491 -3.5133  0.4713
 5159WAT     H221357   3.841   0.432   0.157  0.0913 -2.2469  0.3230
 5159WAT    EPW21358   3.901   0.405   0.115  0.4838 -1.1235  0.1280
 5160WAT      O21359   4.353   5.618   5.010 -0.0695  0.6169  0.0882
 5160WAT     H121360   4.324   5.554   5.062 -0.7534 -0.4729 -1.5112
 5160WAT     H221361   4.280   5.647   4.972  0.4727  0.7058 -0.9350
 5160WAT    EPW21362   4.338   5.613   5.012 -0.0904  0.4691 -0.2992
 5161WAT      O21363   1.820   3.322   0.983 -0.7907 -0.3246  0.0410
 5161WAT     H121364   1.828   3.271   1.053 -1.8314 -0.7357 -0.1092
 5161WAT     H221365   1.745   3.295   0.947 -2.2598  2.3482  0.8248
 5161WAT    EPW21366   1.810   3.310   0.988 -1.1614  0.0095  0.1346
 5162WAT      O21367   2.785   1.830   6.445 -0.3202 -0.1470 -0.2395
 5162WAT     H121368   2.821   1.764   6.399 -0.1309 -0.9513  1.0124
 5162WAT     H221369   2.835   1.898   6.424 -0.4188 -0.4165 -1.4503
 5162WAT    EPW21370   2.798   1.830   6.435 -0.3068 -0.3056 -0.2334
 5163WAT      O21371   1.471   0.479   4.036 -0.5839 -0.0675 -0.7197
 5163WAT     H121372   1.548   0.520   4.042 -0.1599 -0.9616  0.3408
 5163WAT     H221373   1.489   0.397   4.061 -1.9077 -0.2550 -0.2878
 5163WAT    EPW21374   1.485   0.473   4.041 -0.7169 -0.2273 -0.4992
 5164WAT      O21375   0.068   2.983   6.763 -0.1488 -0.3382  0.2683
 5164WAT     H121376   0.016   3.019   6.704 -0.2604  0.0987  0.6262
 5164WAT     H221377   0.129   3.044   6.777  0.2015 -0.6663  0.1832
 5164WAT    EPW21378   0.069   2.997   6.756 -0.1135 -0.3221  0.3086
 5165WAT      O21379   0.663   6.981   0.737  0.0572 -0.1246 -0.3013
 5165WAT     H121380   0.654   6.998   0.822  3.2594 -1.0557  0.3319
 5165WAT     H221381   0.676   6.895   0.735  2.2221  0.1814 -1.4443
 5165WAT    EPW21382   0.663   6.971   0.749  0.8500 -0.2170 -0.3766
 5166WAT      O21383   7.107   4.054   5.988  0.5294 -0.2822 -0.0010
 5166WAT     H121384   7.168   4.044   5.927  0.4887  1.5436 -0.3863
 5166WAT     H221385   7.125   3.991   6.045  1.0541 -1.5281 -1.4722
 5166WAT    EPW21386   7.118   4.043   5.988  0.6009 -0.1965 -0.2752
 5167WAT      O21387   5.645   5.626   5.681  0.7354  0.1107  0.6605
 5167WAT     H121388   5.617   5.696   5.637 -1.4334 -0.7195  0.5850
 5167WAT     H221389   5.726   5.615   5.653  0.0567  0.7001 -1.7661
 5167WAT    EPW21390   5.653   5.635   5.671  0.3148  0.0752  0.2909
 5168WAT      O21391   5.143   0.435   3.560  0.2421 -0.3768  0.0536
 5168WAT     H121392   5.220   0.475   3.575  0.0003  0.4921 -0.8867
 5168WAT     H221393   5.088   0.502   3.549 -0.0744 -0.9205 -2.1313
 5168WAT    EPW21394   5.146   0.451   3.561  0.1597 -0.3288 -0.4081
 5169WAT      O21395   2.586   0.666   6.233  0.8985  0.1265 -0.3410
 5169WAT     H121396   2.603   0.589   6.270  1.1519  0.4600  0.2588
 5169WAT     H221397   2.568   0.718   6.301 -2.7814 -0.1958 -0.9064
 5169WAT    EPW21398   2.586   0.662   6.249  0.3923  0.1281 -0.3359
 5170WAT      O21399   4.111   2.337   1.236  0.0235 -0.2893  0.1834
 5170WAT     H121400   4.170   2.387   1.195  1.6207 -1.6127  0.7404
 5170WAT     H221401   4.160   2.286   1.287 -1.7215 -0.5341  1.7195
 5170WAT    EPW21402   4.127   2.337   1.237  0.0017 -0.5209  0.4926
 5171WAT      O21403   0.356   1.620   7.318  0.4080 -1.0541 -0.2966
 5171WAT     H121404   0.406   1.692   7.318 -0.6867 -0.2190 -2.2306
 5171WAT     H221405   0.397   1.567   7.374  2.6695  0.1058 -0.7209
 5171WAT    EPW21406   0.369   1.623   7.326  0.5803 -0.7594 -0.6450
 5172WAT      O21407   6.050   3.274   6.553  0.8757  0.2118  0.0923
 5172WAT     H121408   5.974   3.279   6.596 -1.0487  0.5276 -3.0350
 5172WAT     H221409   6.066   3.189   6.550  0.9830  0.1760  1.2684
 5172WAT    EPW21410   6.041   3.262   6.559  0.6073  0.2531 -0.1959
 5173WAT      O21411   2.328   4.217   0.981  0.1719 -0.3639 -0.6888
 5173WAT     H121412   2.369   4.194   0.908 -0.0284  0.6902 -1.1480
 5173WAT     H221413   2.361   4.163   1.041  1.7767  0.0486 -1.1591
 5173WAT    EPW21414   2.339   4.205   0.979  0.3793 -0.1473 -0.8261
 5174WAT      O21415   4.772   6.150   5.449  0.0777  0.6914 -0.2492
 5174WAT     H121416   4.773   6.212   5.510 -1.1710 -1.3331  1.9997
 5174WAT     H221417   4.696   6.163   5.408 -1.8745 -1.1736  2.4492
 5174WAT    EPW21418   4.761   6.161   5.452 -0.3951  0.1169  0.4817
 5175WAT      O21419   5.962   0.077   7.108 -0.5596  0.4618 -0.1149
 5175WAT     H121420   5.991   0.005   7.069 -0.1750  0.2769  0.4943
 5175WAT     H221421   5.948   0.052   7.190 -2.0383  0.6705 -0.2810
 5175WAT    EPW21422   5.965   0.063   7.114 -0.7212  0.4653 -0.0494
 5176WAT      O21423   6.527   1.919   1.183 -0.0718 -0.4141  0.0935
 5176WAT     H121424   6.614   1.922   1.184 -0.0836 -0.3392  1.2423
 5176WAT     H221425   6.503   2.002   1.193 -0.2614 -0.6906  2.3093
 5176WAT    EPW21426   6.536   1.932   1.184 -0.1015 -0.4439  0.5905
 5177WAT      O21427   4.336   0.273   6.295  0.1194  0.4963 -0.7678
 5177WAT     H121428   4.325   0.357   6.315  0.7399  0.3596  0.2091
 5177WAT     H221429   4.257   0.238   6.309  0.5999  0.3233  1.9951
 5177WAT    EPW21430   4.322   0.280   6.300  0.2820  0.4506 -0.2153
 5178WAT      O21431   5.833   3.582   5.970 -0.4956  0.1386 -0.3558
 5178WAT     H121432   5.807   3.627   6.039 -0.7918 -0.7555  0.1362
 5178WAT     H221433   5.909   3.618   5.949  0.7384 -1.0100  1.8452
 5178WAT    EPW21434   5.840   3.594   5.977 -0.3571 -0.1632  0.0420
 5179WAT      O21435   6.925   6.477   2.128 -0.2574 -0.8864 -0.0142
 5179WAT     H121436   6.856   6.528   2.147  0.3964 -0.6496  1.8861
 5179WAT     H221437   6.917   6.464   2.042 -1.4648  0.9237 -0.2413
 5179WAT    EPW21438   6.913   6.483   2.118 -0.3392 -0.5840  0.2330
 5180WAT      O21439   5.257   5.081   0.086  0.1283 -0.1794  0.0917
 5180WAT     H121440   5.274   5.043   0.009 -0.7262  0.9382 -0.6949
 5180WAT     H221441   5.184   5.041   0.112  0.9342 -1.2117  0.7967
 5180WAT    EPW21442   5.248   5.070   0.078  0.1211 -0.1668  0.0796
 5181WAT      O21443   2.785   7.064   4.506  0.0292 -0.1038 -0.0311
 5181WAT     H121444   2.795   7.023   4.582 -0.7622 -0.5676 -0.1576
 5181WAT     H221445   2.858   7.044   4.462 -0.3770 -1.4900 -0.1192
 5181WAT    EPW21446   2.797   7.055   4.511 -0.1477 -0.3771 -0.0628
 5182WAT      O21447   3.090   2.257   5.585  0.1873 -0.0381  0.4317
 5182WAT     H121448   3.177   2.262   5.582  0.2178  0.1857  1.3469
 5182WAT     H221449   3.075   2.212   5.658 -0.4919  1.3622  1.1913
 5182WAT    EPW21450   3.101   2.251   5.595  0.0915  0.2018  0.6791
 5183WAT      O21451   5.005   6.698   2.133  0.0411 -0.4773 -0.2080
 5183WAT     H121452   5.063   6.650   2.089  0.4071  0.6442 -1.0097
 5183WAT     H221453   4.929   6.678   2.097 -0.2212 -2.5182  1.3460
 5183WAT    EPW21454   5.002   6.688   2.121  0.0565 -0.6131 -0.0969
 5184WAT      O21455   5.390   1.518   3.124 -0.2023 -0.0312  0.1817
 5184WAT     H121456   5.450   1.478   3.172  0.0940  0.6996  0.4385
 5184WAT     H221457   5.340   1.560   3.183 -0.9456 -0.5982 -0.0286
 5184WAT    EPW21458   5.391   1.519   3.140 -0.2683 -0.0070  0.1886
 5185WAT      O21459   1.427   1.316   3.119  0.3800 -0.2163 -0.3120
 5185WAT     H121460   1.415   1.248   3.065 -1.6376  1.2904 -1.9252
 5185WAT     H221461   1.364   1.307   3.178 -0.9478  1.0286 -1.4674
 5185WAT    EPW21462   1.416   1.305   3.119 -0.1142  0.1902 -0.7210
 5186WAT      O21463   4.660   3.224   1.724  0.0599 -0.0704 -0.1920
 5186WAT     H121464   4.692   3.248   1.646  0.9311  2.7214  0.9093
 5186WAT     H221465   4.724   3.175   1.758 -1.3265 -3.5276 -2.0734
 5186WAT    EPW21466   4.674   3.220   1.718 -0.0162 -0.1687 -0.3072
 5187WAT      O21467   1.210   5.467   4.204  0.0545  0.0745  0.4465
 5187WAT     H121468   1.124   5.462   4.216  0.1471  0.7220  1.4774
 5187WAT     H221469   1.218   5.519   4.134 -0.3706  1.8010  1.6040
 5187WAT    EPW21470   1.199   5.474   4.195  0.0054  0.4252  0.7698
 5188WAT      O21471   1.951   2.423   5.288  0.2676  0.3521 -0.1264
 5188WAT     H121472   2.036   2.409   5.304  0.0607 -1.6075 -0.4624
 5188WAT     H221473   1.912   2.351   5.319 -1.0713  0.4028 -1.5460
 5188WAT    EPW21474   1.958   2.410   5.295  0.0392  0.0701 -0.3857
 5189WAT      O21475   6.097   5.408   0.813  0.5320  0.3943  0.4515
 5189WAT     H121476   6.177   5.427   0.840  0.8602 -0.1735 -0.0897
 5189WAT     H221477   6.047   5.467   0.854  1.0332 -0.1894  1.9810
 5189WAT    EPW21478   6.101   5.419   0.823  0.6545  0.2242  0.5975
 5190WAT      O21479   3.490   5.117   0.022  0.1306 -0.0187 -0.5905
 5190WAT     H121480   3.461   5.173  -0.038 -0.8086  0.4697  0.2822
 5190WAT     H221481   3.520   5.050  -0.025  0.4737  0.8377 -1.6247
 5190WAT    EPW21482   3.490   5.115   0.006  0.0426  0.1799 -0.6144
 5191WAT      O21483   0.591   6.332   5.729 -0.1555  0.3146 -0.1140
 5191WAT     H121484   0.610   6.294   5.653 -0.8473 -0.1297 -0.0696
 5191WAT     H221485   0.522   6.288   5.758 -2.5812  3.0697 -1.1633
 5191WAT    EPW21486   0.584   6.320   5.722 -0.6160  0.6559 -0.2625
 5192WAT      O21487   0.512   4.794   0.943 -0.2530 -0.3190  0.5670
 5192WAT     H121488   0.465   4.738   0.896  2.2388 -0.6666 -1.7245
 5192WAT     H221489   0.526   4.860   0.888  4.1908 -1.4731 -0.0986
 5192WAT    EPW21490   0.507   4.796   0.928  0.7716 -0.5408  0.1302
 5193WAT      O21491   0.897   2.487   2.932  0.0796  0.1248 -0.7723
 5193WAT     H121492   0.950   2.441   2.881 -0.9905 -1.0221 -0.9009
 5193WAT     H221493   0.937   2.565   2.938  2.7580 -1.2648  0.8202
 5193WAT    EPW21494   0.910   2.492   2.925  0.3172 -0.2499 -0.5561
 5194WAT      O21495   5.834   5.235   6.973 -0.5180  0.6499 -0.3079
 5194WAT     H121496   5.812   5.218   7.056  0.7011  0.3458 -0.0331
 5194WAT     H221497   5.884   5.306   6.979 -0.1157  0.4077 -0.7351
 5194WAT    EPW21498   5.838   5.243   6.986 -0.2785  0.5692 -0.3304
 5195WAT      O21499   4.559   0.332   0.456 -0.4416 -0.7140 -0.0026
 5195WAT     H121500   4.554   0.393   0.519 -1.6305 -0.0157 -0.7219
 5195WAT     H221501   4.493   0.354   0.402  0.4139 -1.4179 -1.3769
 5195WAT    EPW21502   4.548   0.344   0.457 -0.4908 -0.7148 -0.3118
 5196WAT      O21503   6.287   5.434   3.064  0.4152  0.1415  0.4384
 5196WAT     H121504   6.210   5.473   3.050  0.2057  0.5452  2.3994
 5196WAT     H221505   6.345   5.493   3.037  0.0529  0.1814 -0.2697
 5196WAT    EPW21506   6.284   5.449   3.058  0.3307  0.2070  0.6235
 5197WAT      O21507   0.722   1.688   3.394 -0.4982 -0.5490  0.4170
 5197WAT     H121508   0.658   1.719   3.345 -1.2366 -0.1087  1.6086
 5197WAT     H221509   0.710   1.602   3.392 -0.5473 -0.5328 -0.1179
 5197WAT    EPW21510   0.711   1.680   3.387 -0.6145 -0.4816  0.5140
 5198WAT      O21511   6.497   6.461   0.284  0.4105 -0.0974 -0.9773
 5198WAT     H121512   6.481   6.491   0.203  1.3273  0.1307 -1.0918
 5198WAT     H221513   6.551   6.394   0.270  2.4921  1.3558 -0.4730
 5198WAT    EPW21514   6.503   6.456   0.270  0.8534  0.1510 -0.9197
 5199WAT      O21515   2.723   0.722   1.906  0.0658 -0.5161 -0.3361
 5199WAT     H121516   2.699   0.772   1.839  0.6297  0.4104  0.1354
 5199WAT     H221517   2.649   0.709   1.950  0.0925  0.7997  0.1193
 5199WAT    EPW21518   2.709   0.727   1.902  0.1530 -0.1849 -0.1992
 5200WAT      O21519   2.165   6.970   4.465 -0.0844 -0.0144 -0.0753
 5200WAT     H121520   2.233   6.951   4.517  0.4716 -1.8037 -1.3759
 5200WAT     H221521   2.110   6.904   4.478 -0.3312 -0.0229 -1.0741
 5200WAT    EPW21522   2.167   6.958   4.475 -0.0387 -0.2799 -0.4150
 5201WAT      O21523   1.283   4.945   1.499  0.4931 -0.0463 -0.2623
 5201WAT     H121524   1.282   4.861   1.524 -0.0463 -0.4567 -1.5588
 5201WAT     H221525   1.241   4.986   1.563  2.1413 -0.5021  1.1679
 5201WAT    EPW21526   1.277   4.938   1.512  0.6569 -0.1743 -0.2425
 5202WAT      O21527   5.789   3.203   5.588  0.4839 -0.3674 -0.3047
 5202WAT     H121528   5.873   3.222   5.576  0.3287 -0.3287 -1.3459
 5202WAT     H221529   5.779   3.210   5.675  1.1848  1.1734 -0.3223
 5202WAT    EPW21530   5.800   3.207   5.599  0.5645 -0.1341 -0.4611
 5203WAT      O21531   7.100   2.288   6.265 -0.7800 -0.0436  0.1471
 5203WAT     H121532   7.084   2.215   6.219 -0.1209  0.7913 -1.4760
 5203WAT     H221533   7.141   2.258   6.337 -0.9517 -1.3037 -0.2570
 5203WAT    EPW21534   7.104   2.273   6.269 -0.7080 -0.1064 -0.1524
 5204WAT      O21535   4.397   3.518   5.528 -0.6652  0.4802 -0.7179
 5204WAT     H121536   4.317   3.549   5.546 -0.2797  0.8734  0.3336
 5204WAT     H221537   4.427   3.575   5.469 -1.7957 -0.6386 -2.5075
 5204WAT    EPW21538   4.389   3.531   5.522 -0.7752  0.3730 -0.8270
 5205WAT      O21539   1.805   0.092   1.343 -0.0851 -0.5664  0.0860
 5205WAT     H121540   1.823   0.177   1.345  1.4708 -0.6609 -3.3344
 5205WAT     H221541   1.719   0.089   1.329 -0.5219  0.2842  2.1566
 5205WAT    EPW21542   1.795   0.104   1.341  0.0802 -0.4547 -0.1134
 5206WAT      O21543   4.871   0.298   6.817 -0.0110  0.3410  0.2720
 5206WAT     H121544   4.916   0.370   6.835 -3.4418  2.3807  1.7615
 5206WAT     H221545   4.828   0.318   6.744  0.5148 -1.0675 -0.4602
 5206WAT    EPW21546   4.871   0.311   6.809 -0.4401  0.4342  0.3839
 5207WAT      O21547   6.583   5.850   4.593  0.2104  0.5003 -0.0710
 5207WAT     H121548   6.661   5.886   4.581  0.5511  0.2208  1.1532
 5207WAT     H221549   6.568   5.860   4.678 -0.3394 -0.9129  0.0379
 5207WAT    EPW21550   6.592   5.857   4.604  0.1795  0.2503  0.1259
 5208WAT      O21551   4.805   7.144   6.923 -0.1557 -0.6773  0.2567
 5208WAT     H121552   4.764   7.124   6.849 -0.0166 -0.5369  0.1408
 5208WAT     H221553   4.773   7.087   6.981 -1.0793 -0.0771  0.3551
 5208WAT    EPW21554   4.794   7.133   6.921 -0.2716 -0.5679  0.2541
 5209WAT      O21555   0.274   2.431   1.372  0.1230  0.5664  0.1546
 5209WAT     H121556   0.268   2.396   1.293 -1.1981  1.8979 -0.3865
 5209WAT     H221557   0.296   2.364   1.423 -0.4838 -0.6371 -1.1041
 5209WAT    EPW21558   0.276   2.416   1.368 -0.1618  0.5853 -0.1113
 5210WAT      O21559   4.251   2.402   0.589 -0.2799  0.1875 -0.3283
 5210WAT     H121560   4.255   2.429   0.672 -0.5199 -0.0818 -0.2283
 5210WAT     H221561   4.327   2.428   0.555 -1.2519  2.7094 -0.7608
 5210WAT    EPW21562   4.263   2.410   0.596 -0.4589  0.5203 -0.3774
 5211WAT      O21563   2.933   3.642   0.870  0.3106  0.1305 -1.1789
 5211WAT     H121564   3.020   3.642   0.872  0.3127 -1.2111  0.5669
 5211WAT     H221565   2.912   3.726   0.866  1.6862  0.5578 -0.0245
 5211WAT    EPW21566   2.942   3.654   0.869  0.5141 -0.0046 -0.7505
 5212WAT      O21567   3.182   2.413   4.816  0.8612  0.6640  0.6031
 5212WAT     H121568   3.174   2.480   4.872  1.0608  1.1408  0.0723
 5212WAT     H221569   3.259   2.428   4.777  0.1386  1.0602 -0.7191
 5212WAT    EPW21570   3.192   2.425   4.818  0.7839  0.7929  0.3294
 5213WAT      O21571   3.318   5.832   0.310  0.8741  0.2929  0.4031
 5213WAT     H121572   3.263   5.794   0.254  0.0690 -2.0955  2.6498
 5213WAT     H221573   3.390   5.845   0.262 -1.2046  2.9270 -2.4660
 5213WAT    EPW21574   3.321   5.828   0.294  0.4481  0.3292  0.3111
 5214WAT      O21575   6.690   2.990   5.731  0.9474  0.1828 -0.1062
 5214WAT     H121576   6.772   3.019   5.722  0.9356 -0.0598 -1.1990
 5214WAT     H221577   6.671   2.960   5.651  0.2298 -0.8845  0.4415
 5214WAT    EPW21578   6.700   2.990   5.718  0.8397 -0.0107 -0.1867
 5215WAT      O21579   0.032   0.803   5.909 -0.3123  0.4181  0.4856
 5215WAT     H121580  -0.013   0.789   5.836 -1.0965 -1.3381  1.2641
 5215WAT     H221581   0.096   0.857   5.883 -1.6298  1.3130 -1.0756
 5215WAT    EPW21582   0.035   0.809   5.894 -0.6228  0.2908  0.3700
 5216WAT      O21583   0.397   2.100   0.654  0.5130 -0.1873 -0.6408
 5216WAT     H121584   0.466   2.089   0.602  0.2377  1.7107 -1.4577
 5216WAT     H221585   0.329   2.087   0.601  0.2308  0.2602 -0.3907
 5216WAT    EPW21586   0.397   2.096   0.639  0.4306  0.1592 -0.7246
 5217WAT      O21587   2.860   1.349   2.754  0.0647 -0.0682 -0.1325
 5217WAT     H121588   2.865   1.290   2.818 -0.5091 -1.1943 -1.0947
 5217WAT     H221589   2.790   1.325   2.709  2.7154 -1.9520 -3.7319
 5217WAT    EPW21590   2.850   1.337   2.757  0.3715 -0.5128 -0.8064
 5218WAT      O21591   5.804   1.024   3.319 -0.2826  0.4715 -0.0275
 5218WAT     H121592   5.740   1.004   3.375  0.1056  1.6420  0.8843
 5218WAT     H221593   5.768   1.085   3.268 -0.8042 -0.9577 -1.4507
 5218WAT    EPW21594   5.789   1.030   3.320 -0.3023  0.4333 -0.1030
 5219WAT      O21595   4.888   1.651   1.581 -0.5546  0.3322  0.5216
 5219WAT     H121596   4.876   1.568   1.557  0.4442  0.1742  0.5244
 5219WAT     H221597   4.947   1.644   1.646 -2.5156  0.8017  2.4700
 5219WAT    EPW21598   4.895   1.637   1.587 -0.6968  0.3782  0.8098
 5220WAT      O21599   4.077   4.610   4.502  0.7291 -0.1372 -0.0709
 5220WAT     H121600   4.064   4.551   4.439 -1.9558 -1.1623  1.2963
 5220WAT     H221601   3.997   4.626   4.532  1.5088  3.0669  0.7060
 5220WAT    EPW21602   4.063   4.604   4.497  0.4477  0.1846  0.2458
 5221WAT      O21603   1.755   6.596   2.215  0.3379  0.4191  0.3934
 5221WAT     H121604   1.779   6.540   2.153  1.2970  0.6538  0.5482
 5221WAT     H221605   1.680   6.629   2.185  1.0996  0.9853 -0.9450
 5221WAT    EPW21606   1.747   6.593   2.202  0.5921  0.5374  0.2185
 5222WAT      O21607   5.679   3.041   1.586 -0.1984  0.3324 -0.0850
 5222WAT     H121608   5.658   3.096   1.650 -0.2615  0.0409  0.1455
 5222WAT     H221609   5.637   3.073   1.517 -0.7185  0.2311  0.1799
 5222WAT    EPW21610   5.670   3.054   1.586 -0.2846  0.2744 -0.0118
 5223WAT      O21611   1.189   7.218   3.728 -0.2657 -0.5260  0.1894
 5223WAT     H121612   1.244   7.156   3.700  0.0255 -0.2321  0.1036
 5223WAT     H221613   1.145   7.241   3.656  2.5018  2.3336 -0.8349
 5223WAT    EPW21614   1.191   7.212   3.713  0.1861 -0.0601  0.0254
 5224WAT      O21615   2.635   0.466   2.715  0.0397  0.0241 -0.2893
 5224WAT     H121616   2.548   0.457   2.721 -0.4636  1.8542 -2.9165
 5224WAT     H221617   2.649   0.547   2.742  1.0032 -0.3391  0.3439
 5224WAT    EPW21618   2.624   0.476   2.720  0.1077  0.2408 -0.5839
 5225WAT      O21619   3.998   4.856   4.757 -0.0954  0.3125 -0.4379
 5225WAT     H121620   3.953   4.915   4.802 -1.0967 -0.3859 -0.4862
 5225WAT     H221621   3.936   4.806   4.720  0.6944  0.3424 -1.9000
 5225WAT    EPW21622   3.982   4.857   4.758 -0.1266  0.2137 -0.6610
 5226WAT      O21623   5.607   1.930   7.131  0.3636  0.5593  0.0938
 5226WAT     H121624   5.609   1.875   7.064 -0.6936  0.3005  0.2679
 5226WAT     H221625   5.675   1.983   7.115  1.8495 -1.2002  0.3076
 5226WAT    EPW21626   5.618   1.930   7.118  0.4269  0.2612  0.1511
 5227WAT      O21627   3.335   6.763   1.206  0.4284 -0.0334  0.5146
 5227WAT     H121628   3.261   6.758   1.160  1.6008  0.8694 -1.6527
 5227WAT     H221629   3.365   6.681   1.206  1.1575  0.1612 -1.8221
 5227WAT    EPW21630   3.328   6.750   1.199  0.7093  0.1287 -0.1507
 5228WAT      O21631   0.940   1.398   3.433  0.0962 -0.1226 -0.2866
 5228WAT     H121632   0.933   1.382   3.519 -2.1159  2.1586  0.0612
 5228WAT     H221633   0.921   1.321   3.397  0.0500 -0.8835  1.2547
 5228WAT    EPW21634   0.936   1.384   3.440 -0.2374  0.1020 -0.0075
 5229WAT      O21635   5.905   6.990   6.785  0.3817  0.4268  0.1114
 5229WAT     H121636   5.959   7.013   6.720  0.0226 -0.0302 -0.3577
 5229WAT     H221637   5.910   6.903   6.785  0.7945  0.4390  1.0631
 5229WAT    EPW21638   5.914   6.981   6.775  0.3896  0.3611  0.1827
 5230WAT      O21639   0.766   2.228   5.848 -0.0352 -0.0870  0.0306
 5230WAT     H121640   0.753   2.242   5.932  3.4945  2.1855  0.4149
 5230WAT     H221641   0.716   2.287   5.808  0.1100  0.4786  0.6815
 5230WAT    EPW21642   0.757   2.239   5.854  0.5077  0.3322  0.1835
 5231WAT      O21643   0.496   3.274   2.658 -0.3486 -0.4579 -0.2137
 5231WAT     H121644   0.577   3.281   2.690  0.7601  0.8963 -3.0091
 5231WAT     H221645   0.455   3.342   2.692 -0.1590 -0.7995  0.7348
 5231WAT    EPW21646   0.502   3.285   2.668 -0.1568 -0.3083 -0.4865
 5232WAT      O21647   5.386   1.968   3.797  0.0100  0.2652 -0.4227
 5232WAT     H121648   5.343   1.893   3.813  0.2594  0.0989 -0.5215
 5232WAT     H221649   5.401   2.000   3.876  4.0705 -2.1226  0.0484
 5232WAT    EPW21650   5.382   1.961   3.811  0.6466 -0.1121 -0.3677
 5233WAT      O21651   2.236   3.448   0.334  0.6202 -0.2965 -0.8255
 5233WAT     H121652   2.305   3.482   0.376  0.4721  0.9841 -1.5574
 5233WAT     H221653   2.171   3.503   0.355  0.0822 -0.8435 -1.0546
 5233WAT    EPW21654   2.237   3.461   0.343  0.5188 -0.1881 -0.9674
 5234WAT      O21655   2.117   3.913   7.072 -0.2800  0.7104  0.5219
 5234WAT     H121656   2.184   3.907   7.017 -0.1403 -0.4113  0.8077
 5234WAT     H221657   2.149   3.959   7.139 -0.2426  1.4587  0.0044
 5234WAT    EPW21658   2.131   3.919   7.074 -0.2539  0.6552  0.4877
 5235WAT      O21659   0.844   2.811   7.415 -0.1658  0.5718 -0.2937
 5235WAT     H121660   0.785   2.779   7.472 -0.4986  3.3272  1.0553
 5235WAT     H221661   0.920   2.777   7.444 -0.5604  0.4587  0.6638
 5235WAT    EPW21662   0.847   2.801   7.428 -0.2733  0.9621  0.0470
 5236WAT      O21663   2.233   3.523   4.012 -0.6980 -0.0060  0.2912
 5236WAT     H121664   2.306   3.500   4.055 -1.5843  0.2428  2.0248
 5236WAT     H221665   2.246   3.491   3.932  1.5104  0.4579  0.4025
 5236WAT    EPW21666   2.246   3.515   4.006 -0.5027  0.0993  0.5638
 5237WAT      O21667   0.557   4.450   6.215 -0.5832  0.0872 -0.0015
 5237WAT     H121668   0.591   4.427   6.138  1.2459 -0.3040  0.8721
 5237WAT     H221669   0.541   4.374   6.254 -0.6387  0.2795  0.3535
 5237WAT    EPW21670   0.560   4.436   6.209 -0.3212  0.0578  0.1800
 5238WAT      O21671   7.049   0.771   5.151  0.5594 -0.1311  0.2297
 5238WAT     H121672   7.067   0.686   5.159 -2.7399 -0.8453  1.3896
 5238WAT     H221673   7.050   0.800   5.234  0.3818  0.6864 -0.0459
 5238WAT    EPW21674   7.052   0.763   5.165  0.0458 -0.1159  0.3603
 5239WAT      O21675   1.280   6.721   5.522  0.2984  0.2349 -0.6571
 5239WAT     H121676   1.282   6.636   5.503 -4.3592 -0.5019  0.8003
 5239WAT     H221677   1.307   6.725   5.604  1.4423  0.3958 -1.0194
 5239WAT    EPW21678   1.284   6.709   5.531 -0.2206  0.1499 -0.4953
 5240WAT      O21679   3.059   6.176   1.932  0.1381  0.1601 -0.1763
 5240WAT     H121680   3.053   6.102   1.887  0.8311 -0.0059  0.0027
 5240WAT     H221681   2.983   6.179   1.976 -0.4436  0.2035 -1.1413
 5240WAT    EPW21682   3.047   6.166   1.932  0.1545  0.1420 -0.2924
 5241WAT      O21683   6.064   1.205   7.017 -0.3147  0.1608  0.3559
 5241WAT     H121684   6.007   1.266   6.990 -0.2748  0.0818  0.0877
 5241WAT     H221685   6.014   1.137   7.036 -0.8026  1.3103  4.0498
 5241WAT    EPW21686   6.048   1.204   7.016 -0.3808  0.3190  0.8619
 5242WAT      O21687   3.654   2.014   5.670  0.1321 -0.0932  0.3762
 5242WAT     H121688   3.687   2.017   5.751  0.5835 -2.0920  0.3233
 5242WAT     H221689   3.725   2.014   5.619 -0.0661 -0.9108  0.0886
 5242WAT    EPW21690   3.670   2.014   5.674  0.1695 -0.5092  0.3259
 5243WAT      O21691   3.441   5.697   4.520  0.8475  0.0344  0.0573
 5243WAT     H121692   3.428   5.611   4.524 -0.6671  0.2659  0.6012
 5243WAT     H221693   3.379   5.730   4.571  0.3010  1.5492 -1.4822
 5243WAT    EPW21694   3.430   5.689   4.528  0.5430  0.2923 -0.0898
 5244WAT      O21695   4.714   2.986   0.078 -0.5633  0.1094  0.1152
 5244WAT     H121696   4.687   2.934   0.143 -0.2026 -1.6530 -1.0575
 5244WAT     H221697   4.644   2.992   0.026 -0.2452 -0.2615 -0.3733
 5244WAT    EPW21698   4.700   2.979   0.080 -0.4630 -0.2058 -0.1302
 5245WAT      O21699   6.579   2.693   7.411 -0.0713 -0.1054 -0.2204
 5245WAT     H121700   6.504   2.661   7.442  1.0268  0.7756  3.9287
 5245WAT     H221701   6.638   2.634   7.435  0.9667  0.7763 -0.4989
 5245WAT    EPW21702   6.577   2.679   7.419  0.2442  0.1550  0.3514
 5246WAT      O21703   0.846   6.916   3.214  0.3649  0.2328 -0.1841
 5246WAT     H121704   0.789   6.933   3.279 -0.7311  0.3145 -1.1351
 5246WAT     H221705   0.891   6.990   3.208 -2.1218  1.7702 -2.0327
 5246WAT    EPW21706   0.844   6.930   3.223 -0.1643  0.4720 -0.5976
 5247WAT      O21707   6.548   4.142   6.003  0.0645  0.3022 -0.1045
 5247WAT     H121708   6.488   4.184   5.955 -0.8061 -0.2999  0.4347
 5247WAT     H221709   6.589   4.207   6.045 -0.3230  0.7200 -0.3601
 5247WAT    EPW21710   6.545   4.158   6.002 -0.1214  0.2750 -0.0627
 5248WAT      O21711   2.702   0.014   2.255  0.4458 -0.0813 -0.4616
 5248WAT     H121712   2.755   0.083   2.262 -1.7668  1.6387  0.6869
 5248WAT     H221713   2.669   0.022   2.174  1.0838 -0.5364 -0.7782
 5248WAT    EPW21714   2.705   0.026   2.244  0.2132  0.1055 -0.3387
 5249WAT      O21715   2.810   3.032   6.654 -0.4603  0.7737  0.2268
 5249WAT     H121716   2.823   3.118   6.643 -0.1298  0.7262  0.2640
 5249WAT     H221717   2.775   3.027   6.734  0.8613  0.7450  0.8286
 5249WAT    EPW21718   2.807   3.044   6.664 -0.2163  0.7624  0.3212
 5250WAT      O21719   0.196   3.418   6.700  0.2554  0.3454  0.0867
 5250WAT     H121720   0.122   3.463   6.709  0.3542  0.6343 -0.4561
 5250WAT     H221721   0.257   3.480   6.703  0.3674  0.3331 -1.1381
 5250WAT    EPW21722   0.194   3.434   6.702  0.2865  0.3863 -0.1744
 5251WAT      O21723   1.288   1.098   5.592  0.5363 -0.7464  0.1075
 5251WAT     H121724   1.296   1.032   5.536  2.3089 -2.6204  2.3558
 5251WAT     H221725   1.245   1.062   5.659 -0.7377  1.1611  0.3919
 5251WAT    EPW21726   1.283   1.083   5.594  0.6099 -0.7414  0.4816
 5252WAT      O21727   0.323   1.165   0.750 -0.3078  0.6156  0.3071
 5252WAT     H121728   0.314   1.251   0.760 -0.4715  0.7334 -0.7101
 5252WAT     H221729   0.406   1.151   0.772 -0.5735  0.8563  1.5198
 5252WAT    EPW21730   0.334   1.176   0.755 -0.3712  0.6685  0.3360
 5253WAT      O21731   2.872   3.322   6.603  0.0877  0.3956 -0.8238
 5253WAT     H121732   2.877   3.310   6.516  0.9057 -2.5062 -0.5058
 5253WAT     H221733   2.944   3.368   6.621  0.9730 -0.6500 -1.5190
 5253WAT    EPW21734   2.883   3.327   6.593  0.3393 -0.1875 -0.8795
 5254WAT      O21735   4.354   1.656   0.310 -0.0331  0.1129 -0.2067
 5254WAT     H121736   4.343   1.591   0.252 -0.9157  1.0411 -1.1272
 5254WAT     H221737   4.406   1.712   0.269  0.4131  0.1855  0.4368
 5254WAT    EPW21738   4.360   1.655   0.295 -0.0976  0.2608 -0.2476
 5255WAT      O21739   5.248   6.220   5.379 -0.3760 -0.1874 -0.1381
 5255WAT     H121740   5.294   6.232   5.453 -2.2072 -0.6563  1.1587
 5255WAT     H221741   5.310   6.211   5.318  1.2194  0.7124  1.2342
 5255WAT    EPW21742   5.264   6.220   5.381 -0.4108 -0.1237  0.2562
 5256WAT      O21743   0.761   3.969   3.984 -0.2799  0.4355 -0.3466
 5256WAT     H121744   0.744   3.962   3.899 -0.0340 -1.0054 -0.3031
 5256WAT     H221745   0.699   4.024   4.013 -1.0441  0.0842 -1.2572
 5256WAT    EPW21746   0.749   3.976   3.976 -0.3565  0.1707 -0.4747
 5257WAT      O21747   1.449   6.892   4.482  0.4504  0.1589  0.0558
 5257WAT     H121748   1.459   6.850   4.407  1.3833  0.7927 -0.1833
 5257WAT     H221749   1.379   6.942   4.469  1.2984  1.1560 -0.8246
 5257WAT    EPW21750   1.440   6.894   4.469  0.7135  0.3998 -0.1096
 5258WAT      O21751   4.958   2.482   7.205  0.0992  0.1420 -0.0520
 5258WAT     H121752   4.898   2.470   7.142 -1.1828  1.2682  0.8935
 5258WAT     H221753   5.034   2.477   7.162 -0.6475 -1.2249 -1.3137
 5258WAT    EPW21754   4.960   2.479   7.189 -0.2005  0.1065 -0.0987
 5259WAT      O21755   5.347   0.645   5.015  0.1903 -0.0830 -0.5669
 5259WAT     H121756   5.380   0.625   5.093  2.3196  2.6740 -0.6009
 5259WAT     H221757   5.418   0.664   4.967 -1.1903  1.7796 -2.0449
 5259WAT    EPW21758   5.363   0.645   5.019  0.3009  0.5994 -0.7902
 5260WAT      O21759   0.178   0.159   7.122  0.3970 -0.0764  0.5501
 5260WAT     H121760   0.135   0.219   7.168  0.5739 -1.3354  2.4961
 5260WAT     H221761   0.244   0.203   7.086  0.6466  0.8655  2.0917
 5260WAT    EPW21762   0.182   0.174   7.124  0.4600 -0.1233  1.0653
 5261WAT      O21763   0.065   5.569   2.490 -0.1583  0.3498 -0.0861
 5261WAT     H121764   0.031   5.650   2.495 -1.2520  0.0171 -1.3702
 5261WAT     H221765   0.082   5.549   2.573 -0.8655  1.4991  0.3665
 5261WAT    EPW21766   0.062   5.578   2.503 -0.4243  0.4704 -0.2089
 5262WAT      O21767   3.534   2.522   1.472 -0.7506  0.7493 -0.0789
 5262WAT     H121768   3.594   2.580   1.495 -2.7608  2.9070  0.0901
 5262WAT     H221769   3.507   2.489   1.548 -1.4534  1.5812  0.0404
 5262WAT    EPW21770   3.539   2.526   1.486 -1.1513  1.1909 -0.0363
 5263WAT      O21771   0.423   6.999   4.319  0.3115  0.5321 -0.6325
 5263WAT     H121772   0.474   6.943   4.361  0.8817  1.8008  0.4529
 5263WAT     H221773   0.421   6.969   4.237 -1.8460 -2.7343  0.4258
 5263WAT    EPW21774   0.430   6.986   4.313  0.0771  0.2370 -0.3158
 5264WAT      O21775   4.134   3.825   3.432 -0.3179  0.2378  0.4295
 5264WAT     H121776   4.218   3.810   3.412  0.5630  5.3089 -1.3137
 5264WAT     H221777   4.092   3.762   3.389  2.5031 -1.8585  0.4286
 5264WAT    EPW21778   4.140   3.813   3.423  0.2290  0.6773  0.1719
 5265WAT      O21779   3.850   3.021   6.500  0.0802  0.0774 -0.0111
 5265WAT     H121780   3.815   3.101   6.491  0.3598  0.5246  2.1110
 5265WAT     H221781   3.793   2.969   6.460  0.1032  1.3464 -1.8367
 5265WAT    EPW21782   3.836   3.025   6.493  0.1249  0.3309  0.0327
 5266WAT      O21783   6.480   1.579   5.209  0.3102 -0.5892  0.1908
 5266WAT     H121784   6.509   1.511   5.163 -0.5107 -1.1592  0.4976
 5266WAT     H221785   6.401   1.595   5.175  0.1045 -0.3949  0.7495
 5266WAT    EPW21786   6.473   1.572   5.197  0.1586 -0.6447  0.3187
 5267WAT      O21787   0.767   0.004   0.163 -0.2853  0.5772 -0.0609
 5267WAT     H121788   0.738  -0.066   0.207  0.3806  0.0398 -0.4648
 5267WAT     H221789   0.801   0.055   0.225  1.4353 -0.5647 -0.0034
 5267WAT    EPW21790   0.768   0.001   0.178  0.0673  0.3291 -0.1121
 5268WAT      O21791   5.078   6.995   4.466 -0.2571  1.0639 -0.0364
 5268WAT     H121792   5.150   6.948   4.452 -0.0554  1.0949  0.8664
 5268WAT     H221793   5.108   7.073   4.491 -0.5642  0.6685  1.7407
 5268WAT    EPW21794   5.093   6.999   4.468 -0.2727  1.0101  0.3595
 5269WAT      O21795   5.510   1.615   3.515  0.3595  0.1636 -0.1577
 5269WAT     H121796   5.526   1.539   3.475  1.3260  0.3510 -0.1564
 5269WAT     H221797   5.508   1.595   3.599 -0.7684 -0.0771 -0.2216
 5269WAT    EPW21798   5.512   1.601   3.521  0.3356  0.1558 -0.1670
 5270WAT      O21799   1.629   0.760   0.918 -0.1819 -0.0915 -0.0137
 5270WAT     H121800   1.677   0.733   0.986  1.5832 -1.9976 -1.8604
 5270WAT     H221801   1.599   0.686   0.883  1.4043  0.4972 -2.9225
 5270WAT    EPW21802   1.632   0.745   0.923  0.3131 -0.2861 -0.7162
 5271WAT      O21803   4.592   1.372   5.065  0.2177  0.5177  0.3100
 5271WAT     H121804   4.515   1.402   5.094 -0.1737  1.3772 -1.5237
 5271WAT     H221805   4.570   1.297   5.025 -0.1015  1.8523 -2.2055
 5271WAT    EPW21806   4.577   1.365   5.063  0.1127  0.8418 -0.3325
 5272WAT      O21807   0.171   2.049   6.226  0.4571 -0.4849 -0.0498
 5272WAT     H121808   0.177   2.115   6.283  0.1271 -0.2749 -0.2596
 5272WAT     H221809   0.231   1.993   6.255  0.6589 -0.1471  0.1985
 5272WAT    EPW21810   0.181   2.050   6.239  0.4382 -0.4039 -0.0441
 5273WAT      O21811   1.345   7.033   0.924  0.2501 -0.2989  0.3461
 5273WAT     H121812   1.380   7.054   0.847 -0.6678  1.4837  0.3619
 5273WAT     H221813   1.360   7.103   0.973 -2.3341  0.1103  0.6615
 5273WAT    EPW21814   1.352   7.046   0.920 -0.2672  0.0249  0.3950
 5274WAT      O21815   0.745   5.343   1.469  0.3775 -0.3833 -0.8695
 5274WAT     H121816   0.658   5.340   1.458  0.2199 -1.0066  0.3589
 5274WAT     H221817   0.754   5.360   1.554  1.4495 -1.5542 -0.7262
 5274WAT    EPW21818   0.733   5.345   1.480  0.5126 -0.6483 -0.6669
 5275WAT      O21819   5.632   0.161   1.633 -0.0635  0.2966 -0.3164
 5275WAT     H121820   5.669   0.231   1.597 -3.9175  2.7843  0.0408
 5275WAT     H221821   5.581   0.130   1.570 -0.7799 -0.2626  0.5136
 5275WAT    EPW21822   5.630   0.167   1.618 -0.7386  0.5814 -0.1410
 5276WAT      O21823   3.098   6.886   1.818 -0.5188  0.6085 -0.3469
 5276WAT     H121824   3.066   6.809   1.844  0.7030 -0.1519 -1.0041
 5276WAT     H221825   3.184   6.871   1.808  0.2981  2.8002  2.2411
 5276WAT    EPW21826   3.106   6.872   1.820 -0.2176  0.8200 -0.0617
 5277WAT      O21827   7.044   1.120   1.758  0.7747  0.0048  0.4298
 5277WAT     H121828   7.107   1.179   1.750  1.1467 -0.2627  1.2634
 5277WAT     H221829   7.070   1.071   1.825  0.4106 -1.0232 -0.1523
 5277WAT    EPW21830   7.057   1.121   1.767  0.7759 -0.1866  0.4670
 5278WAT      O21831   5.088   1.746   2.967 -0.3595 -0.4842  0.1621
 5278WAT     H121832   5.017   1.708   2.933  0.6083 -1.4399 -0.8885
 5278WAT     H221833   5.154   1.698   2.936  0.8112  0.8869  0.4050
 5278WAT    EPW21834   5.087   1.733   2.957 -0.0436 -0.4228  0.0428
 5279WAT      O21835   7.030   6.982   0.496  0.1664 -0.1262 -0.5661
 5279WAT     H121836   6.979   6.911   0.501  0.3748 -0.2227  0.5207
 5279WAT     H221837   7.091   6.967   0.556  0.4826  0.7682 -0.6559
 5279WAT    EPW21838   7.031   6.969   0.506  0.2439 -0.0083 -0.4188
 5280WAT      O21839   3.609   5.791   4.839  0.5213  0.0355  0.7643
 5280WAT     H121840   3.621   5.707   4.820 -1.5703 -0.0484 -0.4324
 5280WAT     H221841   3.621   5.832   4.763 -1.5057  0.4331  0.5968
 5280WAT    EPW21842   3.613   5.785   4.825 -0.0871  0.0818  0.5628
 5281WAT      O21843   6.201   2.889   0.409  0.3818 -0.3615  0.0866
 5281WAT     H121844   6.192   2.930   0.333 -1.9568 -1.9885 -0.6073
 5281WAT     H221845   6.235   2.951   0.461 -0.0342  1.4626 -1.6750
 5281WAT    EPW21846   6.205   2.904   0.406 -0.0251 -0.3324 -0.2761
 5282WAT      O21847   1.229   2.587   7.277 -0.1673  0.0358 -0.1788
 5282WAT     H121848   1.269   2.510   7.279 -0.1970  0.0221  1.7538
 5282WAT     H221849   1.183   2.584   7.203  0.5272 -1.4170 -0.5993
 5282WAT    EPW21850   1.228   2.575   7.266 -0.0691 -0.1809  0.0446
 5283WAT      O21851   0.986   3.761   0.743  0.1624 -0.1412 -0.1478
 5283WAT     H121852   1.032   3.713   0.800  0.7420 -2.0025 -2.0471
 5283WAT     H221853   1.013   3.843   0.758  2.9059 -0.9641 -0.0540
 5283WAT    EPW21854   0.997   3.766   0.753  0.6533 -0.5377 -0.4145
 5284WAT      O21855   1.739   3.095   5.118  0.1136  0.0505  0.6233
 5284WAT     H121856   1.792   3.136   5.174  0.5075 -0.0116  0.3084
 5284WAT     H221857   1.686   3.157   5.089  0.5346  0.2874  0.3491
 5284WAT    EPW21858   1.739   3.110   5.122  0.2340  0.0763  0.5363
 5285WAT      O21859   2.420   0.666   7.359 -0.8443 -0.0998  0.2777
 5285WAT     H121860   2.369   0.636   7.295 -0.9422  1.1902 -0.2830
 5285WAT     H221861   2.427   0.751   7.341 -0.1448  0.1189  1.4906
 5285WAT    EPW21862   2.413   0.674   7.347 -0.7554  0.1231  0.3740
 5286WAT      O21863   3.295   6.128   6.279 -0.5160  0.2320  0.5095
 5286WAT     H121864   3.351   6.081   6.233 -0.2202  0.6242  0.4603
 5286WAT     H221865   3.234   6.150   6.221 -0.3089  0.4594  0.3746
 5286WAT    EPW21866   3.294   6.124   6.264 -0.4417  0.3235  0.4823
 5287WAT      O21867   3.165   0.855   3.705  0.5334  0.2414  0.2380
 5287WAT     H121868   3.218   0.875   3.638 -1.5810 -0.6750 -1.8630
 5287WAT     H221869   3.093   0.902   3.688 -0.9901 -1.9030  0.4264
 5287WAT    EPW21870   3.162   0.865   3.692 -0.0040 -0.2108 -0.0445
 5288WAT      O21871   4.906   6.794   4.082 -0.5865 -0.0991  0.2515
 5288WAT     H121872   4.940   6.874   4.087 -1.0135  0.1912 -1.0974
 5288WAT     H221873   4.973   6.745   4.057 -0.9902  0.4548 -2.2906
 5288WAT    EPW21874   4.921   6.798   4.079 -0.7092  0.0256 -0.3232
 5289WAT      O21875   2.460   2.395   5.150  0.0278 -0.4927  0.2382
 5289WAT     H121876   2.515   2.332   5.173 -0.6340 -0.6841  1.3797
 5289WAT     H221877   2.502   2.438   5.087  0.4941 -2.0690 -0.5645
 5289WAT    EPW21878   2.474   2.392   5.144 -0.0011 -0.7538  0.2882
 5290WAT      O21879   1.139   2.340   6.852  0.9318  0.1775 -0.1504
 5290WAT     H121880   1.112   2.347   6.770 -0.6889  0.5100  0.3713
 5290WAT     H221881   1.130   2.421   6.884 -1.8845 -0.5856  1.3015
 5290WAT    EPW21882   1.134   2.353   6.845  0.2764  0.1139  0.1412
 5291WAT      O21883   5.816   5.508   7.238  0.4849  0.5575 -0.0716
 5291WAT     H121884   5.856   5.502   7.160  0.8168 -1.9334  0.2035
 5291WAT     H221885   5.880   5.527   7.293  0.8391 -0.7688 -0.0037
 5291WAT    EPW21886   5.831   5.510   7.234  0.5862 -0.0064 -0.0210
 5292WAT      O21887   2.744   5.373   4.375  0.2564  0.6524 -0.3524
 5292WAT     H121888   2.698   5.414   4.436 -0.2614  0.6182 -0.7124
 5292WAT     H221889   2.751   5.291   4.405  0.7850  0.8566  0.0871
 5292WAT    EPW21890   2.739   5.367   4.388  0.2580  0.6775 -0.3406
 5293WAT      O21891   2.827   1.284   5.426 -0.0072 -0.3380 -0.5136
 5293WAT     H121892   2.816   1.198   5.428 -0.8257 -0.3203  3.2836
 5293WAT     H221893   2.765   1.314   5.479  0.3381  2.6342 -1.5862
 5293WAT    EPW21894   2.817   1.276   5.434 -0.0771  0.1037 -0.1111
 5294WAT      O21895   2.739   1.636   5.890  0.2076 -0.8693 -0.2064
 5294WAT     H121896   2.668   1.585   5.888 -0.3769 -0.0376 -1.2517
 5294WAT     H221897   2.722   1.699   5.832  1.9504 -0.8461 -0.7719
 5294WAT    EPW21898   2.726   1.637   5.881  0.3787 -0.7430 -0.4444
 5295WAT      O21899   7.032   3.877   2.543 -0.2870 -0.0576  0.2615
 5295WAT     H121900   7.037   3.813   2.483 -0.8607 -0.0416  0.1891
 5295WAT     H221901   6.986   3.841   2.607  0.4273 -0.1107  0.7535
 5295WAT    EPW21902   7.026   3.862   2.543 -0.2662 -0.0631  0.3234
 5296WAT      O21903   5.275   6.815   0.937  0.3468 -0.4799  0.5098
 5296WAT     H121904   5.335   6.752   0.936 -0.0297 -0.8426 -0.6479
 5296WAT     H221905   5.257   6.825   1.022 -0.4831 -2.8165  0.6784
 5296WAT    EPW21906   5.281   6.807   0.949  0.1686 -0.8787  0.3637
 5297WAT      O21907   6.224   0.417   6.159 -0.3665 -0.0920  0.4563
 5297WAT     H121908   6.177   0.360   6.112 -0.8391 -0.3942  1.2551
 5297WAT     H221909   6.234   0.376   6.236  1.4462 -0.1441  0.2352
 5297WAT    EPW21910   6.218   0.402   6.164 -0.1686 -0.1443  0.5416
 5298WAT      O21911   2.034   6.079   2.641  0.1524  0.5444  0.1233
 5298WAT     H121912   2.017   6.051   2.722 -0.3436 -0.1828 -0.2234
 5298WAT     H221913   1.963   6.125   2.620 -0.5457 -0.8052 -0.5712
 5298WAT    EPW21914   2.021   6.082   2.650 -0.0240  0.2376 -0.0305
 5299WAT      O21915   0.931   3.776   6.529  0.4124 -0.3797  0.1206
 5299WAT     H121916   0.861   3.746   6.486 -0.0739 -0.5394  1.0112
 5299WAT     H221917   0.984   3.804   6.465 -0.6593  0.1885 -0.5454
 5299WAT    EPW21918   0.928   3.776   6.513  0.1822 -0.3194  0.1538
 5300WAT      O21919   2.571   0.591   0.259 -0.5863  0.5679 -0.5576
 5300WAT     H121920   2.502   0.639   0.282 -1.1992  0.0917 -1.3330
 5300WAT     H221921   2.537   0.512   0.245 -0.1286  0.6211 -2.2102
 5300WAT    EPW21922   2.556   0.586   0.260 -0.6093  0.5054 -0.9162
 5301WAT      O21923   4.635   6.183   0.546  0.4760 -0.1754 -0.6712
 5301WAT     H121924   4.597   6.105   0.534 -1.8776  0.5263  1.4961
 5301WAT     H221925   4.600   6.233   0.483 -1.2903  0.1195  0.4852
 5301WAT    EPW21926   4.624   6.179   0.535 -0.1326 -0.0282 -0.1802
 5302WAT      O21927   2.176   3.813   4.506 -0.4443  0.7309  0.2918
 5302WAT     H121928   2.186   3.858   4.432 -1.7845 -0.9171 -0.9609
 5302WAT     H221929   2.218   3.738   4.491  0.3246  0.8290  1.7174
 5302WAT    EPW21930   2.184   3.809   4.493 -0.5287  0.5019  0.3173
 5303WAT      O21931   3.460   5.176   6.674 -0.2702 -0.4521  0.1600
 5303WAT     H121932   3.389   5.127   6.661 -0.4691  0.1248 -1.0575
 5303WAT     H221933   3.436   5.254   6.643  0.4550  0.0949  0.9440
 5303WAT    EPW21934   3.446   5.180   6.667 -0.1924 -0.2861  0.0959
 5304WAT      O21935   6.506   5.128   0.359  0.0075 -0.4839  0.1415
 5304WAT     H121936   6.433   5.134   0.313 -0.0668 -0.9676  0.1894
 5304WAT     H221937   6.550   5.063   0.321  0.1219 -0.6249  0.5032
 5304WAT    EPW21938   6.502   5.119   0.347  0.0135 -0.5762  0.2020
 5305WAT      O21939   2.545   2.310   5.855  0.2540  0.6296 -0.2393
 5305WAT     H121940   2.498   2.328   5.926 -2.0014 -1.2574 -1.1399
 5305WAT     H221941   2.510   2.360   5.793  0.5933  0.5007 -0.5410
 5305WAT    EPW21942   2.533   2.320   5.856 -0.0291  0.3318 -0.4169
 5306WAT      O21943   4.746   0.232   4.829  0.2080 -0.3834  0.3751
 5306WAT     H121944   4.796   0.226   4.758 -0.9520 -2.6169 -0.3530
 5306WAT     H221945   4.697   0.302   4.814  1.2389  0.2539 -0.1276
 5306WAT    EPW21946   4.746   0.241   4.817  0.1889 -0.6192  0.1933
 5307WAT      O21947   4.737   2.163   6.032  0.6749  0.8382  0.8575
 5307WAT     H121948   4.811   2.120   6.050  0.9984  0.5481 -0.9215
 5307WAT     H221949   4.676   2.121   6.078  1.0309 -1.3754 -0.5453
 5307WAT    EPW21950   4.739   2.151   6.041  0.7752  0.4684  0.3875
 5308WAT      O21951   6.946   4.144   1.709  0.3847  0.1358 -0.5843
 5308WAT     H121952   6.916   4.211   1.661  0.8878  0.7916 -0.0149
 5308WAT     H221953   6.961   4.180   1.787 -0.1633 -0.8516 -0.0087
 5308WAT    EPW21954   6.944   4.160   1.713  0.3781  0.0868 -0.4152
 5309WAT      O21955   6.579   5.930   7.243 -0.5916  0.0479  0.1179
 5309WAT     H121956   6.659   5.914   7.274 -0.7639  1.1742  1.2152
 5309WAT     H221957   6.527   5.905   7.308 -0.9640  2.6324  0.9259
 5309WAT    EPW21958   6.583   5.924   7.257 -0.6721  0.5960  0.3994
 5310WAT      O21959   0.289   1.852   3.098 -0.1741  0.3116 -0.0341
 5310WAT     H121960   0.353   1.802   3.128 -0.0269  1.2186  1.2982
 5310WAT     H221961   0.321   1.887   3.025  0.4188 -0.0954  0.0298
 5310WAT    EPW21962   0.303   1.850   3.092 -0.0648  0.3855  0.1721
 5311WAT      O21963   3.075   0.861   6.831  0.2792 -0.1076  0.2777
 5311WAT     H121964   3.032   0.791   6.802  0.4094 -0.1575  0.2093
 5311WAT     H221965   3.078   0.914   6.762  1.2961 -0.5551 -0.0448
 5311WAT    EPW21966   3.069   0.859   6.817  0.4487 -0.1811  0.2199
 5312WAT      O21967   4.902   3.564   3.863 -0.3297 -0.0662  0.0855
 5312WAT     H121968   4.903   3.582   3.948  1.9191 -1.1101  0.3518
 5312WAT     H221969   4.849   3.495   3.857  1.0039 -1.2057  0.9658
 5312WAT    EPW21970   4.894   3.557   3.875  0.1995 -0.3887  0.2548
 5313WAT      O21971   0.389   3.562   2.276  0.6013  0.1280 -0.0979
 5313WAT     H121972   0.338   3.531   2.213  2.2477 -1.7955 -0.6130
 5313WAT     H221973   0.408   3.643   2.249 -1.4472  0.6046 -0.2687
 5313WAT    EPW21974   0.385   3.569   2.262  0.5419 -0.0857 -0.1992
 5314WAT      O21975   0.747   6.142   6.301  0.2702 -0.1832 -0.1419
 5314WAT     H121976   0.762   6.114   6.382 -1.4457 -1.3732 -0.1809
 5314WAT     H221977   0.728   6.068   6.257 -0.2589  0.5896 -1.2730
 5314WAT    EPW21978   0.746   6.127   6.306 -0.0614 -0.2448 -0.3148
 5315WAT      O21979   2.954   0.841   7.244 -0.4967  0.4809 -0.5399
 5315WAT     H121980   2.925   0.868   7.167 -1.8089 -0.8035 -0.5461
 5315WAT     H221981   2.907   0.888   7.301 -0.9575  0.0402 -0.5469
 5315WAT    EPW21982   2.943   0.852   7.241 -0.7586  0.2260 -0.5419
 5316WAT      O21983   5.960   6.121   5.119 -0.5602  0.4919  0.5169
 5316WAT     H121984   6.024   6.148   5.171 -0.0633  0.6610 -0.1712
 5316WAT     H221985   5.952   6.036   5.137 -1.3916  0.8379  1.9105
 5316WAT    EPW21986   5.968   6.112   5.129 -0.6096  0.5680  0.6211
 5317WAT      O21987   0.469   4.738   2.273 -0.5648 -0.4397  0.0202
 5317WAT     H121988   0.400   4.769   2.229 -0.1809  0.5809  0.0930
 5317WAT     H221989   0.527   4.803   2.268  1.3894 -2.2083 -2.1604
 5317WAT    EPW21990   0.468   4.752   2.266 -0.2194 -0.5502 -0.2912
 5318WAT      O21991   0.558   4.688   5.918 -0.6472  0.1521  0.3681
 5318WAT     H121992   0.575   4.603   5.918 -0.9001  0.0779 -0.8520
 5318WAT     H221993   0.626   4.723   5.960 -0.4074 -0.6311  0.6351
 5318WAT    EPW21994   0.571   4.681   5.924 -0.6491  0.0254  0.2273
 5319WAT      O21995   3.179   1.286   0.543  0.1854 -0.0281 -0.0858
 5319WAT     H121996   3.251   1.292   0.592  0.3817  0.5311 -0.4371
 5319WAT     H221997   3.185   1.206   0.510  0.1254 -0.3604  0.6767
 5319WAT    EPW21998   3.191   1.275   0.545  0.2055  0.0054 -0.0251
 5320WAT      O21999   0.682   3.034   7.113  0.8266 -0.1633  0.1763
 5320WAT     H122000   0.759   3.007   7.082 -0.1834 -1.5699 -1.3435
 5320WAT     H222001   0.625   2.984   7.070 -1.0718  2.2746 -0.3535
 5320WAT    EPW22002   0.685   3.022   7.102  0.3970 -0.0110 -0.1265
 5321WAT      O22003   0.668   5.838   0.058 -0.1179  0.0941  0.1316
 5321WAT     H122004   0.704   5.803   0.129 -2.2807  2.0166  2.3761
 5321WAT     H222005   0.731   5.832  -0.002  2.4908 -0.1267  2.6599
 5321WAT    EPW22006   0.683   5.832   0.060 -0.0520  0.3455  0.8366
 5322WAT      O22007   5.092   1.557   5.617 -0.1311 -0.3229  0.4157
 5322WAT     H122008   5.099   1.551   5.530  1.8721  1.3223  0.3588
 5322WAT     H222009   5.110   1.477   5.645 -2.9269 -1.4421 -0.6720
 5322WAT    EPW22010   5.096   1.544   5.608 -0.2482 -0.2452  0.2466
 5323WAT      O22011   1.340   0.233   6.577  0.4663  0.0862 -0.1381
 5323WAT     H122012   1.386   0.218   6.505  0.7091  0.1720 -0.0018
 5323WAT     H222013   1.357   0.316   6.596 -0.2350  0.3060 -0.4326
 5323WAT    EPW22014   1.349   0.243   6.569  0.3986  0.1313 -0.1615
 5324WAT      O22015   0.446   3.753   6.097  0.8595 -0.1563  0.3218
 5324WAT     H122016   0.481   3.832   6.104  1.5621 -0.2862 -1.2649
 5324WAT     H222017   0.418   3.735   6.178  0.1064  1.9436  0.5775
 5324WAT    EPW22018   0.447   3.762   6.110  0.8520  0.1347  0.1252
 5325WAT      O22019   0.352   5.007   4.931  0.0142 -0.1183 -0.4021
 5325WAT     H122020   0.287   5.065   4.935 -0.6513 -0.8185 -0.7549
 5325WAT     H222021   0.386   5.008   5.011  0.4268  1.2064 -0.5697
 5325WAT    EPW22022   0.348   5.015   4.943 -0.0232 -0.0261 -0.4790
 5326WAT      O22023   3.371   2.555   6.183  0.2609  0.1675 -0.5369
 5326WAT     H122024   3.335   2.630   6.207 -0.7980  0.1589 -1.9614
 5326WAT     H222025   3.389   2.515   6.259 -0.6488  1.1550  0.2283
 5326WAT    EPW22026   3.368   2.560   6.198 -0.0299  0.3121 -0.6343
 5327WAT      O22027   1.524   0.978   6.111 -0.2754 -0.1963 -0.0646
 5327WAT     H122028   1.591   1.027   6.137  0.1426  0.3602 -2.0182
 5327WAT     H222029   1.558   0.928   6.048 -1.1187 -1.7655  0.6534
 5327WAT    EPW22030   1.539   0.978   6.105 -0.3382 -0.3459 -0.2472
 5328WAT      O22031   3.326   3.063   0.120 -0.0108 -0.0107 -0.0303
 5328WAT     H122032   3.319   2.990   0.167  1.2176  1.0875  1.9996
 5328WAT     H222033   3.249   3.103   0.133 -0.0339 -0.1565  0.2847
 5328WAT    EPW22034   3.314   3.058   0.129  0.1672  0.1300  0.3161
 5329WAT      O22035   5.132   0.819   1.592  0.6512  0.5636  0.4412
 5329WAT     H122036   5.218   0.823   1.607  0.6978  1.5876  0.0021
 5329WAT     H222037   5.127   0.777   1.515  0.8871  1.9708 -0.3806
 5329WAT    EPW22038   5.144   0.814   1.583  0.6929  0.9227  0.2550
 5330WAT      O22039   1.691   7.094   1.179 -0.3422 -0.2978  0.4919
 5330WAT     H122040   1.769   7.097   1.140 -1.8113  0.4700 -2.7692
 5330WAT     H222041   1.661   7.015   1.158 -0.9030 -0.1429  0.6942
 5330WAT    EPW22042   1.698   7.083   1.170 -0.6420 -0.1615  0.0401
 5331WAT      O22043   4.095   1.403   3.789 -0.0471  0.2211 -0.4027
 5331WAT     H122044   4.066   1.481   3.763 -1.4082 -0.2810 -0.4490
 5331WAT     H222045   4.030   1.371   3.837  0.8171 -0.5654  0.3027
 5331WAT    EPW22046   4.081   1.409   3.792 -0.1205  0.0308 -0.3053
 5332WAT      O22047   1.222   5.610   6.944  0.3894  0.3817  0.4937
 5332WAT     H122048   1.170   5.578   7.006  1.6907 -0.5181  1.1529
 5332WAT     H222049   1.277   5.545   6.927  0.7990  1.0184 -0.7906
 5332WAT    EPW22050   1.222   5.596   6.950  0.6421  0.3429  0.4014
 5333WAT      O22051   0.620   6.168   0.399  0.6574 -0.3891  0.6996
 5333WAT     H122052   0.677   6.145   0.337  0.5420 -0.5014  0.6348
 5333WAT     H222053   0.589   6.244   0.371 -0.8808 -1.3790 -0.4040
 5333WAT    EPW22054   0.624   6.176   0.386  0.4131 -0.5520  0.5270
 5334WAT      O22055   6.815   2.056   3.046  0.1408 -0.3080 -0.2284
 5334WAT     H122056   6.801   2.044   3.131 -2.0542  0.3097 -0.4362
 5334WAT     H222057   6.901   2.042   3.037  0.5948  0.4071  2.2088
 5334WAT    EPW22058   6.826   2.052   3.057 -0.1164 -0.1111  0.1009
 5335WAT      O22059   1.149   6.216   6.633 -0.3993 -0.3341  0.4955
 5335WAT     H122060   1.106   6.155   6.679 -0.6806  0.0074  0.6842
 5335WAT     H222061   1.124   6.201   6.551  0.3427 -1.1466  0.4038
 5335WAT    EPW22062   1.139   6.205   6.628 -0.3313 -0.4037  0.5098
 5336WAT      O22063   5.321   5.287   3.879 -0.2918  0.6746 -0.9440
 5336WAT     H122064   5.316   5.223   3.938 -0.6153 -0.5449 -2.2424
 5336WAT     H222065   5.269   5.349   3.912 -0.6528 -0.0590 -0.0750
 5336WAT    EPW22066   5.313   5.287   3.893 -0.3930  0.3861 -1.0074
 5337WAT      O22067   0.790   3.246   3.675 -0.1562 -0.1932  0.2172
 5337WAT     H122068   0.859   3.287   3.640  0.3139 -0.9554  0.2272
 5337WAT     H222069   0.724   3.270   3.624  0.0818  0.6790  0.3045
 5337WAT    EPW22070   0.791   3.256   3.662 -0.0516 -0.1769  0.2316
 5338WAT      O22071   5.005   4.768   6.274 -0.3497  0.0205  0.0257
 5338WAT     H122072   5.013   4.806   6.196 -0.1240  0.7898  0.4200
 5338WAT     H222073   4.930   4.800   6.304 -0.2613 -0.0074  0.2759
 5338WAT    EPW22074   4.995   4.778   6.267 -0.3033  0.1300  0.1209
 5339WAT      O22075   0.865   6.286   2.007  0.3525 -0.3707  0.0517
 5339WAT     H122076   0.933   6.264   1.957  0.7683 -3.9212  1.8830
 5339WAT     H222077   0.796   6.265   1.958  0.4558  2.0166 -1.2905
 5339WAT    EPW22078   0.865   6.280   1.993  0.4292 -0.5426  0.1240
 5340WAT      O22079   6.927   3.314   1.383  0.0670  0.2073 -0.0247
 5340WAT     H122080   6.987   3.373   1.358  0.6041 -1.0100 -1.8642
 5340WAT     H222081   6.970   3.238   1.378 -0.9609 -0.4719  1.0290
 5340WAT    EPW22082   6.942   3.312   1.378 -0.0055 -0.0728 -0.1408
 5341WAT      O22083   3.188   5.757   0.857 -0.2192 -0.0317  0.2217
 5341WAT     H122084   3.210   5.724   0.779  0.8813  2.0218 -0.4235
 5341WAT     H222085   3.264   5.759   0.900 -0.5850  0.0440  0.8641
 5341WAT    EPW22086   3.202   5.753   0.852 -0.1107  0.2828  0.2213
 5342WAT      O22087   3.891   4.698   1.917 -0.2700 -0.1308 -0.1845
 5342WAT     H122088   3.966   4.702   1.873 -1.2489 -0.4357 -1.9672
 5342WAT     H222089   3.917   4.679   1.998  1.5035 -2.4278 -1.1513
 5342WAT    EPW22090   3.906   4.696   1.923 -0.1526 -0.5152 -0.5907
 5343WAT      O22091   3.979   4.844   2.860  0.4531 -0.3766  0.4266
 5343WAT     H122092   4.033   4.893   2.908 -0.2230  0.4296  0.3878
 5343WAT     H222093   4.021   4.768   2.854  1.5071  0.1742  0.5217
 5343WAT    EPW22094   3.993   4.840   2.866  0.5089 -0.1761  0.4350
 5344WAT      O22095   2.923   5.122   1.446  0.0784  0.1457 -0.4628
 5344WAT     H122096   2.954   5.146   1.524 -0.6629 -0.1688 -0.0675
 5344WAT     H222097   2.911   5.036   1.454 -0.7283  0.2308 -0.6633
 5344WAT    EPW22098   2.926   5.113   1.459 -0.1503  0.1119 -0.4340
 5345WAT      O22099   1.512   2.386   6.986 -0.0500  0.3206  0.4050
 5345WAT     H122100   1.473   2.327   6.936 -1.0749  0.0112  1.5325
 5345WAT     H222101   1.597   2.369   6.975 -0.1798  0.7971 -1.8226
 5345WAT    EPW22102   1.519   2.375   6.977 -0.2206  0.3453  0.2425
 5346WAT      O22103   6.302   6.162   6.688  0.1902  0.1563  0.3836
 5346WAT     H122104   6.278   6.086   6.724  1.2049 -0.3390  0.0589
 5346WAT     H222105   6.388   6.162   6.698  0.3331  0.6834 -0.7475
 5346WAT    EPW22106   6.311   6.151   6.694  0.3612  0.1610  0.1686
 5347WAT      O22107   4.051   3.810   0.981  0.0027 -0.1597 -0.2553
 5347WAT     H122108   3.965   3.821   0.968  0.0973 -0.2350 -0.9620
 5347WAT     H222109   4.069   3.870   1.042 -0.6061 -0.3501  0.1267
 5347WAT    EPW22110   4.041   3.821   0.988 -0.0733 -0.1989 -0.3033
 5348WAT      O22111   6.589   2.410   0.183  0.4880  0.4843 -0.1826
 5348WAT     H122112   6.666   2.437   0.153 -0.9367  2.8421 -2.1236
 5348WAT     H222113   6.552   2.371   0.115 -1.3418  2.5661 -0.5122
 5348WAT    EPW22114   6.595   2.408   0.169  0.0072  1.1401 -0.5180
 5349WAT      O22115   6.539   4.874   1.709 -0.5219  0.4614 -0.5980
 5349WAT     H122116   6.626   4.874   1.708 -0.5163  1.0169 -1.6684
 5349WAT     H222117   6.520   4.896   1.792  0.3140 -1.2424  0.0938
 5349WAT    EPW22118   6.549   4.877   1.721 -0.3976  0.2918 -0.6540
 5350WAT      O22119   1.542   6.098   4.657  0.3584  0.2809 -0.3447
 5350WAT     H122120   1.502   6.072   4.730  0.4385 -0.3272 -0.5176
 5350WAT     H222121   1.480   6.143   4.614 -0.4445 -1.4206 -1.0388
 5350WAT    EPW22122   1.527   6.101   4.661  0.2516 -0.0603 -0.4728
 5351WAT      O22123   4.584   3.978   6.798 -0.2175 -0.1397 -0.0735
 5351WAT     H122124   4.598   3.920   6.861 -0.0597 -1.7543 -1.5284
 5351WAT     H222125   4.665   3.997   6.769 -0.3835 -2.2075 -2.1481
 5351WAT    EPW22126   4.598   3.972   6.803 -0.2187 -0.6836 -0.5949
 5352WAT      O22127   2.247   4.200   2.435  0.1344  0.0405 -0.0736
 5352WAT     H122128   2.293   4.157   2.374  0.9199  0.0284  0.5218
 5352WAT     H222129   2.208   4.137   2.479  0.1254  0.0148 -0.1179
 5352WAT    EPW22130   2.248   4.185   2.432  0.2491  0.0349  0.0078
 5353WAT      O22131   1.288   6.932   5.859 -0.3528  0.3549  0.0174
 5353WAT     H122132   1.211   6.960   5.832 -0.0504 -0.2517 -1.5662
 5353WAT     H222133   1.269   6.883   5.928 -1.3459  0.4759 -0.1598
 5353WAT    EPW22134   1.274   6.929   5.865 -0.4548  0.2832 -0.2427
 5354WAT      O22135   7.211   7.129   2.780  0.3068 -0.9646  0.1422
 5354WAT     H122136   7.290   7.152   2.810 -0.2778 -1.0695  1.9147
 5354WAT     H222137   7.216   7.144   2.694  1.5679  1.0012  0.4950
 5354WAT    EPW22138   7.224   7.135   2.772  0.4067 -0.6897  0.4561
 5355WAT      O22139   7.291   4.615   5.056  1.0618 -0.3391  0.2951
 5355WAT     H122140   7.287   4.610   4.969 -1.1929 -1.1672  0.4039
 5355WAT     H222141   7.252   4.691   5.075  1.2924 -0.2934  0.6028
 5355WAT    EPW22142   7.285   4.625   5.046  0.7628 -0.4547  0.3567
 5356WAT      O22143   1.585   4.562   0.515  0.3408 -0.0501  0.6290
 5356WAT     H122144   1.553   4.642   0.505  0.5349 -0.0196  0.2415
 5356WAT     H222145   1.600   4.535   0.433  1.3873 -0.0294  0.8015
 5356WAT    EPW22146   1.583   4.570   0.501  0.5241 -0.0425  0.5972
 5357WAT      O22147   4.466   6.712   6.850  0.5141  0.4519  0.3940
 5357WAT     H122148   4.483   6.738   6.932  0.3536  0.0998  0.5438
 5357WAT     H222149   4.398   6.657   6.860  1.4255 -0.7535  0.2205
 5357WAT    EPW22150   4.458   6.708   6.864  0.6250  0.2218  0.3905
 5358WAT      O22151   5.552   2.666   2.173  0.3994  0.1413 -0.4753
 5358WAT     H122152   5.634   2.692   2.157  0.2962  0.7741 -0.0222
 5358WAT     H222153   5.558   2.628   2.252  0.7888 -2.3837 -1.6299
 5358WAT    EPW22154   5.565   2.664   2.183  0.4417 -0.1382 -0.5789
 5359WAT      O22155   2.466   5.286   0.869 -0.1244  0.0218 -0.4818
 5359WAT     H122156   2.530   5.345   0.862  0.8475 -0.6618  1.5871
 5359WAT     H222157   2.507   5.211   0.852 -1.0470 -0.1934 -1.8276
 5359WAT    EPW22158   2.482   5.284   0.866 -0.1171 -0.1110 -0.3750
 5360WAT      O22159   5.855   0.194   5.268  0.1765  0.6577  0.2136
 5360WAT     H122160   5.918   0.162   5.320 -0.4860  1.2797  1.4347
 5360WAT     H222161   5.847   0.277   5.294  0.2545  1.1716 -1.3230
 5360WAT    EPW22162   5.863   0.201   5.279  0.0901  0.8255  0.1670
 5361WAT      O22163   6.465   2.408   6.582  0.2150 -0.3310  0.4981
 5361WAT     H122164   6.506   2.330   6.584 -1.8214 -1.4532  1.3096
 5361WAT     H222165   6.487   2.440   6.504  0.7958 -1.9004 -0.0238
 5361WAT    EPW22166   6.475   2.401   6.571 -0.0001 -0.7286  0.5409
 5362WAT      O22167   2.187   4.550   4.046 -0.5602 -0.0851 -0.6141
 5362WAT     H122168   2.141   4.485   4.010 -0.4576  0.1821 -1.2528
 5362WAT     H222169   2.231   4.583   3.978 -2.0025  1.8399 -0.6956
 5362WAT    EPW22170   2.187   4.545   4.030 -0.7581  0.2387 -0.7205
 5363WAT      O22171   4.801   6.880   0.437  0.6433 -0.2868 -0.6967
 5363WAT     H122172   4.742   6.944   0.434  1.7067  0.8588  1.2143
 5363WAT     H222173   4.833   6.885   0.518  0.7533 -3.2854 -0.4442
 5363WAT    EPW22174   4.797   6.890   0.449  0.8166 -0.5605 -0.3771
 5364WAT      O22175   2.251   1.896   2.869  0.4074 -0.2004  0.2441
 5364WAT     H122176   2.183   1.886   2.814  1.2293  0.7747 -1.0171
 5364WAT     H222177   2.258   1.818   2.907 -0.5402 -0.7558 -0.6530
 5364WAT    EPW22178   2.242   1.883   2.866  0.3888 -0.1384 -0.0747
 5365WAT      O22179   7.005   5.919   0.231 -0.3177 -0.6969 -0.0315
 5365WAT     H122180   7.001   5.977   0.296 -1.6756 -1.6400  0.7998
 5365WAT     H222181   6.929   5.876   0.238  0.1776 -1.8513 -1.2847
 5365WAT    EPW22182   6.993   5.921   0.242 -0.4451 -1.0067 -0.0939
 5366WAT      O22183   0.061   0.372   4.972  0.1245  0.0749 -0.4945
 5366WAT     H122184  -0.006   0.374   5.029  0.7211  0.5241  0.2137
 5366WAT     H222185   0.090   0.454   4.972  0.3689 -0.0113 -1.1679
 5366WAT    EPW22186   0.055   0.384   4.981  0.2488  0.1285 -0.4894
 5367WAT      O22187   2.624   0.754   6.512 -0.0595 -0.0497 -0.7194
 5367WAT     H122188   2.640   0.703   6.580 -0.5896 -0.7477 -1.1082
 5367WAT     H222189   2.703   0.769   6.478  0.2962  0.9140  0.4523
 5367WAT    EPW22190   2.638   0.749   6.517 -0.0852 -0.0105 -0.6038
 5368WAT      O22191   3.338   6.845   5.692  0.1652  0.3149  0.0267
 5368WAT     H122192   3.267   6.884   5.659  0.5966 -0.0735 -1.3916
 5368WAT     H222193   3.379   6.814   5.622  2.3235  1.4489  0.7269
 5368WAT    EPW22194   3.333   6.846   5.677  0.5477  0.4250 -0.0794
 5369WAT      O22195   2.980   5.115   7.098  0.2892 -0.5124  0.4106
 5369WAT     H122196   3.006   5.160   7.168  3.5156 -1.3658 -0.0530
 5369WAT     H222197   3.013   5.035   7.112 -0.5355 -1.1908 -1.2560
 5369WAT    EPW22198   2.989   5.110   7.110  0.6439 -0.7387  0.0959
 5370WAT      O22199   1.595   3.307   5.008 -0.5586  0.7923  0.1911
 5370WAT     H122200   1.561   3.365   5.063 -2.1325  0.2270 -0.1338
 5370WAT     H222201   1.525   3.269   4.972  0.4238 -0.8972 -0.0386
 5370WAT    EPW22202   1.579   3.310   5.011 -0.6460  0.4592  0.1092
 5371WAT      O22203   4.361   4.310   6.420  0.1062  0.1708  0.0612
 5371WAT     H122204   4.286   4.344   6.449 -0.5469 -1.8874  0.9487
 5371WAT     H222205   4.409   4.301   6.492  0.5423 -0.1371 -0.2592
 5371WAT    EPW22206   4.357   4.314   6.435  0.0741 -0.1787  0.1449
 5372WAT      O22207   2.517   4.119   4.387  0.2117 -0.0790 -0.3435
 5372WAT     H122208   2.578   4.174   4.417  0.6596 -0.3996 -0.6491
 5372WAT     H222209   2.556   4.041   4.391  0.4193 -0.0952 -2.0892
 5372WAT    EPW22210   2.532   4.115   4.392  0.3085 -0.1287 -0.6465
 5373WAT      O22211   2.562   0.228   6.976  0.0908  0.1525 -0.3019
 5373WAT     H122212   2.576   0.304   7.017 -0.4808  0.2072 -0.2048
 5373WAT     H222213   2.596   0.169   7.030 -0.3980  0.2500  0.1122
 5373WAT    EPW22214   2.569   0.231   6.990 -0.0658  0.1750 -0.2264
 5374WAT      O22215   3.238   6.396   2.841  0.2452 -0.4340  0.0376
 5374WAT     H122216   3.289   6.380   2.772  2.0291 -0.7361  1.3681
 5374WAT     H222217   3.173   6.443   2.807  1.5477  0.2374 -1.7075
 5374WAT    EPW22218   3.236   6.401   2.826  0.7011 -0.3794 -0.0237
 5375WAT      O22219   4.736   0.915   7.297  0.0856 -0.0725 -0.3661
 5375WAT     H122220   4.773   0.877   7.366 -1.3528  1.1460  1.1591
 5375WAT     H222221   4.802   0.922   7.240  1.0629 -2.1289  0.3886
 5375WAT    EPW22222   4.751   0.910   7.299  0.0175 -0.1963 -0.0293
 5376WAT      O22223   5.131   5.210   0.399  0.3006 -0.4219  0.5177
 5376WAT     H122224   5.203   5.252   0.423  0.0794 -0.8333  2.0376
 5376WAT     H222225   5.119   5.234   0.316  1.8366  0.1163  0.4257
 5376WAT    EPW22226   5.140   5.220   0.390  0.4949 -0.4032  0.7287
 5377WAT      O22227   5.459   6.497   5.322 -0.2176  0.1929 -0.0326
 5377WAT     H122228   5.487   6.425   5.283  0.4693  1.1276 -1.3729
 5377WAT     H222229   5.532   6.533   5.353 -0.4803  0.5466  0.1901
 5377WAT    EPW22230   5.474   6.492   5.321 -0.1549  0.3832 -0.1977
 5378WAT      O22231   7.306   0.003   2.143  0.4315 -0.7231  0.4116
 5378WAT     H122232   7.313  -0.077   2.177  2.1714 -0.4120  0.8599
 5378WAT     H222233   7.388   0.027   2.128 -0.0089  1.2109  0.7974
 5378WAT    EPW22234   7.319  -0.005   2.146  0.6235 -0.3915  0.5348
 5379WAT      O22235   5.435   0.713   7.213 -0.0681 -0.1684 -0.2060
 5379WAT     H122236   5.456   0.705   7.129  0.6150 -1.0871  0.0396
 5379WAT     H222237   5.513   0.726   7.252 -0.5403  2.3760  0.0756
 5379WAT    EPW22238   5.450   0.714   7.206 -0.0370  0.0717 -0.1281
 5380WAT      O22239   2.980   0.576   2.975  0.1955 -0.7478 -0.0930
 5380WAT     H122240   2.971   0.655   3.013  0.4965 -1.0708  0.6703
 5380WAT     H222241   3.019   0.528   3.036  0.4988 -1.3541 -0.7450
 5380WAT    EPW22242   2.984   0.581   2.990  0.2848 -0.8851 -0.0766
 5381WAT      O22243   3.943   2.640   6.685  0.4179  0.2250 -0.2936
 5381WAT     H122244   3.908   2.609   6.611 -1.1062 -0.1594  0.5536
 5381WAT     H222245   3.914   2.585   6.746  0.9284  1.0429  0.7144
 5381WAT    EPW22246   3.933   2.628   6.683  0.2681  0.2891 -0.0195
 5382WAT      O22247   4.917   4.299   4.073 -0.0274 -1.2223 -0.7865
 5382WAT     H122248   4.955   4.359   4.124 -1.2120  0.1366 -1.4189
 5382WAT     H222249   4.975   4.234   4.070  0.9810 -0.4277  0.5406
 5382WAT    EPW22250   4.931   4.298   4.080 -0.0534 -0.9042 -0.6839
 5383WAT      O22251   4.309   5.064   2.334 -0.8026 -0.7077  0.5670
 5383WAT     H122252   4.226   5.080   2.354 -1.5048 -0.3652 -2.1995
 5383WAT     H222253   4.304   5.016   2.261  1.3817  0.8116 -0.7033
 5383WAT    EPW22254   4.296   5.059   2.326 -0.5837 -0.4327 -0.0293
 5384WAT      O22255   7.094   4.953   1.039  0.2564 -0.1596 -0.3726
 5384WAT     H122256   7.055   5.023   1.072 -1.1995 -1.4505  0.8192
 5384WAT     H222257   7.105   4.972   0.955 -0.8980  1.1548 -0.2493
 5384WAT    EPW22258   7.090   4.966   1.032 -0.1292 -0.1561 -0.1783
 5385WAT      O22259   4.929   5.749   0.663  0.5644 -0.2898  0.4292
 5385WAT     H122260   4.928   5.672   0.622 -1.2143 -0.6585  1.1028
 5385WAT     H222261   4.941   5.806   0.598 -4.2628 -0.6579 -1.1676
 5385WAT    EPW22262   4.931   5.746   0.647 -0.4114 -0.3987  0.2928
 5386WAT      O22263   3.359   6.822   6.139 -0.0828 -0.4373 -0.1836
 5386WAT     H122264   3.328   6.762   6.084 -0.1075 -1.4999  0.9456
 5386WAT     H222265   3.359   6.781   6.216 -0.1818  1.0432  0.6456
 5386WAT    EPW22266   3.354   6.807   6.143 -0.1011 -0.3756  0.1057
 5387WAT      O22267   0.280   0.920   7.177 -0.2410  0.3498  0.0752
 5387WAT     H122268   0.209   0.968   7.192  0.5708  1.9553 -0.9676
 5387WAT     H222269   0.322   0.922   7.254  0.7899  3.1784 -0.4272
 5387WAT    EPW22270   0.276   0.928   7.191  0.0312  1.0048 -0.1531
 5388WAT      O22271   6.872   5.410   6.343 -0.0886  0.2087 -0.3521
 5388WAT     H122272   6.822   5.391   6.274 -1.6489  2.2643  0.1059
 5388WAT     H222273   6.868   5.497   6.347  3.0592  0.4460  0.1374
 5388WAT    EPW22274   6.864   5.420   6.333  0.1459  0.5474 -0.2121
 5389WAT      O22275   0.398   4.579   0.804 -0.5507  0.7693  0.5879
 5389WAT     H122276   0.448   4.525   0.852  0.3710  1.9511  1.0155
 5389WAT     H222277   0.317   4.554   0.823 -0.1417 -0.7595  0.4148
 5389WAT    EPW22278   0.393   4.568   0.814 -0.3541  0.7180  0.6255
 5390WAT      O22279   0.728   7.122   2.449 -0.1514  0.2189 -0.0109
 5390WAT     H122280   0.657   7.083   2.416  0.1576 -0.6759  0.3582
 5390WAT     H222281   0.751   7.070   2.515  0.2412  1.0732  0.5356
 5390WAT    EPW22282   0.721   7.109   2.454 -0.0478  0.2129  0.1244
 5391WAT      O22283   5.253   3.284   4.830 -0.2335  0.4515  0.0183
 5391WAT     H122284   5.334   3.312   4.818  0.6770 -2.0503 -0.2097
 5391WAT     H222285   5.219   3.283   4.750  0.6789 -1.6130 -0.4042
 5391WAT    EPW22286   5.260   3.288   4.817  0.0358 -0.2230 -0.0778
 5392WAT      O22287   4.089   1.854   4.537 -0.0065  0.4806  0.6266
 5392WAT     H122288   4.164   1.820   4.566 -0.2257  0.5252  1.2490
 5392WAT     H222289   4.063   1.797   4.477  0.5119  0.4520  0.4206
 5392WAT    EPW22290   4.097   1.841   4.532  0.0377  0.4830  0.6881
 5393WAT      O22291   0.213   0.138   2.248 -0.0825  0.4490 -0.3754
 5393WAT     H122292   0.224   0.213   2.205 -1.5097  0.2691 -1.1225
 5393WAT     H222293   0.155   0.159   2.310  0.6769  0.3094  0.3875
 5393WAT    EPW22294   0.206   0.152   2.251 -0.1812  0.4018 -0.3731
 5394WAT      O22295   5.669   2.456   1.984 -0.4948  0.2942 -0.1957
 5394WAT     H122296   5.657   2.532   2.026 -2.1549  0.1308 -0.3024
 5394WAT     H222297   5.733   2.418   2.029 -0.1449  1.4355  0.3195
 5394WAT    EPW22298   5.676   2.462   1.997 -0.6883  0.4387 -0.1353
 5395WAT      O22299   3.895   0.019   5.477 -0.1845  0.1075 -0.2328
 5395WAT     H122300   3.827   0.036   5.529  0.9286 -1.0283  1.7565
 5395WAT     H222301   3.902  -0.068   5.482  2.2814  0.2813  0.9301
 5395WAT    EPW22302   3.886   0.009   5.486  0.3442 -0.0346  0.2328
 5396WAT      O22303   6.252   6.148   6.409 -0.0770 -0.0673 -0.0925
 5396WAT     H122304   6.169   6.123   6.420  0.3753 -1.5931 -0.0044
 5396WAT     H222305   6.271   6.187   6.485 -0.9803  1.1700 -0.4610
 5396WAT    EPW22306   6.242   6.150   6.422 -0.1437 -0.1099 -0.1339
 5397WAT      O22307   1.340   6.902   2.038  0.2036  0.3616 -0.2027
 5397WAT     H122308   1.300   6.956   2.093  0.4202 -0.1095  0.4165
 5397WAT     H222309   1.410   6.949   2.012 -0.2531  0.8352 -0.5959
 5397WAT    EPW22310   1.345   6.917   2.042  0.1682  0.3620 -0.1693
 5398WAT      O22311   2.404   0.738   5.369 -0.4676 -0.0121  0.2990
 5398WAT     H122312   2.471   0.683   5.366 -0.6356 -0.1978 -1.7816
 5398WAT     H222313   2.384   0.750   5.285 -0.5564  3.0718  0.6157
 5398WAT    EPW22314   2.411   0.732   5.356 -0.5056  0.4161  0.0384
 5399WAT      O22315   5.933   3.906   2.739  0.2951  0.5064  0.0814
 5399WAT     H122316   5.954   3.823   2.752  1.3898  0.8886  0.9399
 5399WAT     H222317   5.873   3.903   2.675 -0.5369 -1.0067  0.8815
 5399WAT    EPW22318   5.927   3.893   2.731  0.3339  0.3393  0.3264
 5400WAT      O22319   1.724   6.683   3.732  0.3674 -0.3281  0.2924
 5400WAT     H122320   1.788   6.687   3.791  0.0723  0.1263  0.5955
 5400WAT     H222321   1.689   6.604   3.743 -0.3348  0.1148  1.4400
 5400WAT    EPW22322   1.728   6.672   3.742  0.2201 -0.1955  0.5067
 5401WAT      O22323   3.552   1.118   0.688  0.2445  0.3788 -0.3140
 5401WAT     H122324   3.550   1.105   0.602  1.9821  0.3555 -0.3746
 5401WAT     H222325   3.558   1.037   0.721 -1.4194  0.3020 -0.0732
 5401WAT    EPW22326   3.552   1.104   0.680  0.2554  0.3640 -0.2874
 5402WAT      O22327   4.992   6.686   3.569 -0.5065 -0.1644  0.0220
 5402WAT     H122328   4.945   6.751   3.535 -1.8028 -1.2167 -0.2896
 5402WAT     H222329   4.972   6.618   3.518  0.2183 -0.9917  0.8116
 5402WAT    EPW22330   4.982   6.685   3.556 -0.5909 -0.4421  0.0926
 5403WAT      O22331   7.145   0.818   1.228  0.1654  0.1549 -0.4090
 5403WAT     H122332   7.129   0.904   1.225  1.4603  0.4986  1.0798
 5403WAT     H222333   7.147   0.794   1.144  1.0778  1.8501 -0.9151
 5403WAT    EPW22334   7.143   0.827   1.215  0.4915  0.4561 -0.2638
 5404WAT      O22335   6.768   4.685   3.015 -0.0940 -0.4674 -0.5017
 5404WAT     H122336   6.729   4.617   3.053 -0.9167  0.6188  0.6564
 5404WAT     H222337   6.702   4.727   2.976 -0.2982  1.6818  1.9204
 5404WAT    EPW22338   6.752   4.681   3.015 -0.2457  0.0106  0.0272
 5405WAT      O22339   3.748   4.291   0.855  0.1390 -0.0183 -0.7122
 5405WAT     H122340   3.804   4.320   0.915  0.6667 -0.9520 -0.7342
 5405WAT     H222341   3.799   4.253   0.796 -0.5297 -1.3120 -0.4884
 5405WAT    EPW22342   3.764   4.290   0.855  0.1182 -0.3474 -0.6824
 5406WAT      O22343   1.249   6.562   4.943 -0.4082  0.2707 -0.5663
 5406WAT     H122344   1.282   6.597   4.870  0.0936  0.0086 -0.4737
 5406WAT     H222345   1.320   6.549   4.993 -0.4811 -1.4854 -0.8510
 5406WAT    EPW22346   1.264   6.565   4.940 -0.3448 -0.0274 -0.5946
 5407WAT      O22347   3.719   5.415   7.162 -0.0440  0.0948 -0.5228
 5407WAT     H122348   3.764   5.483   7.133 -0.5536 -0.3496 -2.5346
 5407WAT     H222349   3.740   5.351   7.106 -1.3695 -0.7318 -0.1350
 5407WAT    EPW22350   3.729   5.415   7.149 -0.3151 -0.0930 -0.7627
 5408WAT      O22351   4.851   3.426   4.321 -0.1699 -0.1162 -0.0073
 5408WAT     H122352   4.891   3.454   4.394 -0.1196  0.7487 -0.3528
 5408WAT     H222353   4.872   3.341   4.317  0.4452 -0.0017  0.5852
 5408WAT    EPW22354   4.860   3.417   4.331 -0.0716  0.0285  0.0292
 5409WAT      O22355   4.606   0.012   1.520  0.5761  0.3190 -0.5371
 5409WAT     H122356   4.531   0.041   1.487 -0.6445 -1.1037  0.7987
 5409WAT     H222357   4.644   0.083   1.554  1.1231  1.5231 -3.4214
 5409WAT    EPW22358   4.601   0.027   1.520  0.4766  0.2867 -0.7658
 5410WAT      O22359   3.048   5.260   2.429  0.0798 -0.3157 -0.3134
 5410WAT     H122360   3.075   5.228   2.506  1.2864 -1.1806 -1.0610
 5410WAT     H222361   3.037   5.345   2.446  0.3996 -0.4725  0.7964
 5410WAT    EPW22362   3.050   5.268   2.443  0.3052 -0.4666 -0.2599
 5411WAT      O22363   2.466   5.008   0.521  0.2031 -0.1903  0.2667
 5411WAT     H122364   2.480   4.954   0.588  1.2322  1.8386  1.7890
 5411WAT     H222365   2.530   5.067   0.527 -1.0532  1.4249 -1.0764
 5411WAT    EPW22366   2.477   5.009   0.532  0.1696  0.3480  0.2932
 5412WAT      O22367   5.563   1.424   7.187 -0.6223 -0.0577 -0.2772
 5412WAT     H122368   5.519   1.469   7.247  0.1043 -2.0104  1.8772
 5412WAT     H222369   5.526   1.345   7.188  2.6017 -1.7499  1.5271
 5412WAT    EPW22370   5.551   1.419   7.196 -0.0387 -0.5961  0.3076
 5413WAT      O22371   1.829   1.544   5.247  0.1827  0.2197  0.1385
 5413WAT     H122372   1.883   1.612   5.239  0.9305  0.0377  2.7640
 5413WAT     H222373   1.750   1.580   5.240  0.5656  0.7646 -2.0263
 5413WAT    EPW22374   1.825   1.559   5.245  0.3497  0.2733  0.2065
 5414WAT      O22375   6.360   4.543   3.985 -0.4592 -0.3691  0.3280
 5414WAT     H122376   6.317   4.591   4.043 -3.3266 -1.5312 -0.6555
 5414WAT     H222377   6.427   4.594   3.962 -3.0807  3.0817 -0.4291
 5414WAT    EPW22378   6.364   4.558   3.990 -1.2700 -0.0310  0.0709
 5415WAT      O22379   5.204   2.663   2.672 -0.0122  0.0970 -0.3821
 5415WAT     H122380   5.283   2.626   2.675 -0.0490  0.0488  0.5532
 5415WAT     H222381   5.176   2.656   2.755 -1.4272 -0.8243 -0.8948
 5415WAT    EPW22382   5.211   2.657   2.685 -0.2267 -0.0462 -0.3197
 5416WAT      O22383   6.646   1.497   2.289 -0.0068 -0.3338 -0.5130
 5416WAT     H122384   6.612   1.446   2.351 -1.2352  0.2018 -0.7302
 5416WAT     H222385   6.716   1.532   2.327 -1.9768  1.8320  1.4456
 5416WAT    EPW22386   6.651   1.494   2.304 -0.4792  0.0653 -0.2558
 5417WAT      O22387   1.750   4.416   3.694  0.0416  0.6279 -0.6610
 5417WAT     H122388   1.799   4.398   3.764 -1.6499 -0.7653  0.2450
 5417WAT     H222389   1.717   4.494   3.711 -0.4748  0.2370  0.2060
 5417WAT    EPW22390   1.752   4.425   3.706 -0.2846  0.3643 -0.3991
 5418WAT      O22391   4.953   0.465   1.891  0.0252 -0.3759 -0.2139
 5418WAT     H122392   4.867   0.476   1.894  0.0526  0.0520 -0.8437
 5418WAT     H222393   4.969   0.409   1.956 -0.5918  0.3658  0.5891
 5418WAT    EPW22394   4.943   0.458   1.901 -0.0619 -0.2031 -0.1883
 5419WAT      O22395   0.571   0.430   2.366 -0.2709  0.1255 -0.2402
 5419WAT     H122396   0.567   0.355   2.322 -0.1571  0.2140 -0.3993
 5419WAT     H222397   0.572   0.404   2.450 -0.4387 -0.0416 -0.2880
 5419WAT    EPW22398   0.570   0.415   2.372 -0.2788  0.1139 -0.2707
 5420WAT      O22399   5.524   0.174   5.105 -0.1922  0.2553 -0.5429
 5420WAT     H122400   5.602   0.202   5.079  0.3213  0.8662  1.5018
 5420WAT     H222401   5.475   0.246   5.102  1.0864  1.7634  4.5481
 5420WAT    EPW22402   5.528   0.189   5.101  0.0725  0.5683  0.5112
 5421WAT      O22403   7.184   1.622   7.208 -0.0513  0.5677 -0.1940
 5421WAT     H122404   7.181   1.535   7.202 -0.4822  0.4520  1.3686
 5421WAT     H222405   7.249   1.637   7.264 -0.8219  1.1833  0.5647
 5421WAT    EPW22406   7.193   1.611   7.215 -0.2288  0.6415  0.1489
 5422WAT      O22407   1.577   4.049   1.794  0.0554 -0.6090 -0.4773
 5422WAT     H122408   1.499   4.014   1.813  1.0521 -1.1140  3.8815
 5422WAT     H222409   1.557   4.126   1.759 -2.4285 -0.8340  0.2588
 5422WAT    EPW22410   1.563   4.055   1.792 -0.1643 -0.7169  0.2753
 5423WAT      O22411   6.847   1.653   0.435 -0.3773  0.8101 -0.8562
 5423WAT     H122412   6.868   1.733   0.408  0.5863  1.2686  1.1332
 5423WAT     H222413   6.843   1.660   0.522  2.5014 -1.8596 -0.3286
 5423WAT    EPW22414   6.850   1.666   0.444  0.1903  0.4834 -0.4844
 5424WAT      O22415   2.902   4.915   6.855 -0.1614  0.6156  0.0162
 5424WAT     H122416   2.854   4.844   6.867 -0.8125  1.3289  2.0957
 5424WAT     H222417   2.965   4.908   6.915 -0.2495  1.7720  0.2691
 5424WAT    EPW22418   2.904   4.904   6.866 -0.2706  0.8918  0.3608
 5425WAT      O22419   0.463   2.395   6.036  0.1794 -0.0648  0.4656
 5425WAT     H122420   0.478   2.310   6.052  1.6798 -0.2624 -1.5464
 5425WAT     H222421   0.377   2.398   6.022  0.1684 -1.3826  0.0398
 5425WAT    EPW22422   0.453   2.383   6.036  0.3994 -0.2886  0.1055
 5426WAT      O22423   3.118   4.051   1.942 -0.2952  0.0283  0.4735
 5426WAT     H122424   3.178   4.010   1.894 -1.2504  0.1043 -0.8529
 5426WAT     H222425   3.045   4.007   1.924 -0.4985 -0.8273  2.9620
 5426WAT    EPW22426   3.116   4.038   1.932 -0.4664 -0.0868  0.6452
 5427WAT      O22427   3.013   6.328   0.085  0.0051  0.1126  0.4754
 5427WAT     H122428   2.966   6.350   0.155  1.4598 -0.0069  1.5155
 5427WAT     H222429   3.050   6.253   0.107  3.6578  1.9027  1.2660
 5427WAT    EPW22430   3.011   6.320   0.099  0.7596  0.3594  0.7459
 5428WAT      O22431   7.227   0.088   4.782 -0.2163 -0.0221  0.0507
 5428WAT     H122432   7.306   0.121   4.765 -0.2897  0.0416 -0.1702
 5428WAT     H222433   7.198   0.063   4.704 -0.4211 -0.0340  0.1295
 5428WAT    EPW22434   7.234   0.089   4.768 -0.2574 -0.0145  0.0297
 5429WAT      O22435   7.001   6.922   5.004  0.0243  0.3815  0.2001
 5429WAT     H122436   7.039   6.847   4.981  0.1814  0.4795  0.1362
 5429WAT     H222437   7.068   6.972   5.030 -0.1456  0.2782  0.8632
 5429WAT    EPW22438   7.017   6.919   5.005  0.0224  0.3807  0.2886
 5430WAT      O22439   4.060   6.025   5.100  0.7756 -0.2557  0.1714
 5430WAT     H122440   4.030   6.004   5.179 -0.5538  0.9712  0.0254
 5430WAT     H222441   4.144   6.043   5.114  0.2880  1.1171  1.5565
 5430WAT    EPW22442   4.068   6.024   5.113  0.5072  0.1283  0.3544
 5431WAT      O22443   5.337   6.623   0.601 -0.1040 -0.0123 -0.0474
 5431WAT     H122444   5.264   6.636   0.555 -0.9482 -0.1380  1.1895
 5431WAT     H222445   5.308   6.587   0.675  1.3937 -1.8505 -0.2672
 5431WAT    EPW22446   5.322   6.619   0.606 -0.0074 -0.3024  0.1029
 5432WAT      O22447   2.462   5.882   2.915 -0.1568 -0.0210  0.4609
 5432WAT     H122448   2.456   5.796   2.925  0.6899  0.0214  1.5099
 5432WAT     H222449   2.401   5.900   2.855  1.1611 -1.6418 -1.5029
 5432WAT    EPW22450   2.452   5.872   2.907  0.1630 -0.2541  0.3258
 5433WAT      O22451   0.487   1.612   2.237  0.4535 -0.2071 -0.3820
 5433WAT     H122452   0.508   1.621   2.153 -0.7514 -0.4274 -0.7222
 5433WAT     H222453   0.451   1.689   2.257  1.2759  0.0630  0.1133
 5433WAT    EPW22454   0.485   1.625   2.228  0.3970 -0.1998 -0.3591
 5434WAT      O22455   5.174   1.234   4.110 -0.2486  0.2947  0.1180
 5434WAT     H122456   5.229   1.291   4.074  2.3933 -1.8486  0.5065
 5434WAT     H222457   5.183   1.248   4.196  0.4394 -0.6527  0.2182
 5434WAT    EPW22458   5.183   1.244   4.118  0.2433 -0.1618  0.1902
 5435WAT      O22459   0.075   2.476   5.280  0.0385 -0.3746  0.4915
 5435WAT     H122460   0.121   2.494   5.351  0.7426 -0.7314  0.1388
 5435WAT     H222461   0.037   2.552   5.260  2.1288  0.5163 -0.4018
 5435WAT    EPW22462   0.076   2.490   5.287  0.4513 -0.2957  0.3074
 5436WAT      O22463   5.459   1.092   4.895 -0.5371  0.2262  0.9461
 5436WAT     H122464   5.489   1.161   4.851  0.3852 -1.0340 -0.4955
 5436WAT     H222465   5.376   1.113   4.911 -0.0084  2.0974  1.4727
 5436WAT    EPW22466   5.451   1.106   4.891 -0.3228  0.3165  0.8110
 5437WAT      O22467   0.093   3.316   5.610 -0.2320  0.3220  0.2669
 5437WAT     H122468   0.054   3.356   5.543 -1.1429  1.5393  1.4653
 5437WAT     H222469   0.047   3.243   5.619 -1.4368  1.1053  0.8016
 5437WAT    EPW22470   0.080   3.311   5.601 -0.5446  0.6175  0.5229
 5438WAT      O22471   6.823   1.403   0.289 -0.1663 -0.5894 -0.5261
 5438WAT     H122472   6.766   1.420   0.225 -1.1034 -0.6186  0.2746
 5438WAT     H222473   6.834   1.481   0.327 -0.8283 -0.8573  0.2356
 5438WAT    EPW22474   6.816   1.417   0.285 -0.4025 -0.6333 -0.2953
 5439WAT      O22475   3.541   0.924   4.378 -0.5245 -0.3470 -0.1348
 5439WAT     H122476   3.568   0.861   4.324 -0.4064 -0.8285  0.4864
 5439WAT     H222477   3.613   0.972   4.391 -0.9761  0.9944 -1.9994
 5439WAT    EPW22478   3.556   0.922   4.372 -0.5738 -0.2199 -0.3185
 5440WAT      O22479   2.959   2.920   0.142 -0.6467  0.5253  0.3351
 5440WAT     H122480   3.001   2.992   0.168 -1.2508  0.8217  0.5065
 5440WAT     H222481   2.922   2.945   0.067  1.0224 -0.2973 -0.8304
 5440WAT    EPW22482   2.960   2.935   0.135 -0.4894  0.4476  0.1883
 5441WAT      O22483   0.291   3.928   4.578  0.4064  0.0350 -0.7561
 5441WAT     H122484   0.318   3.850   4.550  2.2267  0.0265  0.7996
 5441WAT     H222485   0.327   3.935   4.658 -0.2554  2.1758 -0.5773
 5441WAT    EPW22486   0.300   3.918   4.586  0.5775  0.3500 -0.4998
 5442WAT      O22487   1.252   3.827   4.477 -0.5772  0.4520  0.3468
 5442WAT     H122488   1.228   3.744   4.483  0.3165  0.1648  0.1515
 5442WAT     H222489   1.239   3.846   4.393 -0.7110  0.4899  0.3757
 5442WAT    EPW22490   1.247   3.818   4.465 -0.4650  0.4152  0.3222
 5443WAT      O22491   7.316   4.874   6.035 -0.7314 -0.2442 -0.8358
 5443WAT     H122492   7.304   4.943   6.087  2.1393  0.3409 -0.7596
 5443WAT     H222493   7.341   4.909   5.959  0.5964 -1.1446 -0.8501
 5443WAT    EPW22494   7.318   4.889   6.032 -0.1112 -0.2908 -0.8266
 5444WAT      O22495   2.195   5.439   0.802 -0.0657  0.0387  1.0043
 5444WAT     H122496   2.276   5.465   0.782  0.7018 -1.5065  1.8583
 5444WAT     H222497   2.189   5.361   0.763 -0.2676 -0.8850  2.7679
 5444WAT    EPW22498   2.206   5.431   0.794  0.0178 -0.3260  1.3910
 5445WAT      O22499   2.303   4.071   0.575  0.1030 -0.8093  0.3184
 5445WAT     H122500   2.256   4.144   0.586 -0.6753 -1.0895 -1.0017
 5445WAT     H222501   2.380   4.092   0.610  0.8778  1.7363 -2.4222
 5445WAT    EPW22502   2.308   4.085   0.582  0.1025 -0.4747 -0.2814
 5446WAT      O22503   0.846   3.888   5.789  0.5145 -0.2852  0.4451
 5446WAT     H122504   0.841   3.808   5.754 -0.6767  0.4186 -1.1457
 5446WAT     H222505   0.898   3.878   5.858  0.6725 -2.3535  0.0724
 5446WAT    EPW22506   0.853   3.875   5.794  0.3619 -0.4867  0.1551
 5447WAT      O22507   6.651   4.322   6.974  0.2061  0.1598 -0.0927
 5447WAT     H122508   6.699   4.249   6.974  0.8187  0.5418 -0.8931
 5447WAT     H222509   6.709   4.385   6.989 -0.1770  0.5571 -0.2480
 5447WAT    EPW22510   6.666   4.321   6.976  0.2400  0.2749 -0.2339
 5448WAT      O22511   3.060   3.677   1.312 -0.0105  0.5917 -0.1052
 5448WAT     H122512   3.046   3.611   1.368 -0.1898  1.3535  0.7626
 5448WAT     H222513   3.020   3.650   1.239 -1.9824  0.6309  0.8706
 5448WAT    EPW22514   3.052   3.663   1.309 -0.3283  0.7100  0.1671
 5449WAT      O22515   0.985   5.787   3.592 -0.1297  0.1490  0.4014
 5449WAT     H122516   0.991   5.820   3.511 -0.4586  0.0610  0.3377
 5449WAT     H222517   1.020   5.707   3.584 -3.3359 -1.3614 -0.5556
 5449WAT    EPW22518   0.991   5.780   3.579 -0.6519 -0.0871  0.2506
 5450WAT      O22519   0.207   1.236   6.298 -1.2136 -0.0122 -0.2730
 5450WAT     H122520   0.212   1.296   6.235 -0.4349 -0.8849 -1.0906
 5450WAT     H222521   0.288   1.231   6.329 -0.8652 -1.7392 -1.3264
 5450WAT    EPW22522   0.220   1.244   6.293 -1.0471 -0.3962 -0.5494
 5451WAT      O22523   2.643   2.424   7.387  0.0896 -0.2546  0.4123
 5451WAT     H122524   2.663   2.384   7.462  0.0951 -0.1528  0.4671
 5451WAT     H222525   2.650   2.509   7.408 -3.5537 -0.0114  1.3905
 5451WAT    EPW22526   2.647   2.431   7.401 -0.4478 -0.2036  0.5649
 5452WAT      O22527   4.783   6.868   3.803 -0.3185  0.0592  0.5780
 5452WAT     H122528   4.837   6.808   3.770  0.6074  0.4532  1.3210
 5452WAT     H222529   4.837   6.931   3.831 -1.2927  1.5844 -0.8089
 5452WAT    EPW22530   4.799   6.869   3.803 -0.3256  0.3427  0.4828
 5453WAT      O22531   6.559   4.583   5.151 -0.3347 -0.2726  0.1118
 5453WAT     H122532   6.607   4.600   5.222 -1.0029 -2.2390  1.1201
 5453WAT     H222533   6.590   4.639   5.091  0.1596  1.5696  1.9554
 5453WAT    EPW22534   6.571   4.594   5.153 -0.3604 -0.2910  0.5331
 5454WAT      O22535   0.126   2.509   0.323 -0.8161  0.4038 -0.3702
 5454WAT     H122536   0.069   2.506   0.257 -3.8101  0.7511  1.9801
 5454WAT     H222537   0.114   2.588   0.358 -0.5356 -0.3404  1.5520
 5454WAT    EPW22538   0.116   2.520   0.319 -1.2169  0.3452  0.2609
 5455WAT      O22539   1.552   7.213   3.041  0.4671  0.7985 -0.2817
 5455WAT     H122540   1.638   7.199   3.044  0.3326 -0.0917 -0.3692
 5455WAT     H222541   1.539   7.269   3.107  1.1785  1.3493 -0.5938
 5455WAT    EPW22542   1.563   7.219   3.052  0.5523  0.7484 -0.3407
 5456WAT      O22543   1.380   2.919   2.349 -0.1762  0.2191 -0.2461
 5456WAT     H122544   1.398   2.837   2.324  0.3947 -0.0904  1.1011
 5456WAT     H222545   1.458   2.953   2.365 -0.4789  0.6217  0.4020
 5456WAT    EPW22546   1.394   2.912   2.347 -0.1366  0.2328  0.0487
 5457WAT      O22547   4.963   0.168   5.731 -0.3586 -0.2503  0.0691
 5457WAT     H122548   4.913   0.189   5.663 -0.8019 -1.3418  0.0308
 5457WAT     H222549   5.004   0.096   5.705 -0.0369 -0.3068  0.7155
 5457WAT    EPW22550   4.962   0.160   5.717 -0.3766 -0.4199  0.1589
 5458WAT      O22551   2.234   6.353   4.824 -0.1031  0.0673  0.1562
 5458WAT     H122552   2.228   6.434   4.791  0.5374 -0.7998 -2.3227
 5458WAT     H222553   2.298   6.359   4.883  2.5409  0.7315 -2.5200
 5458WAT    EPW22554   2.242   6.366   4.828  0.3821  0.0373 -0.6053
 5459WAT      O22555   0.108   4.430   6.201  0.2558 -0.2376  0.2613
 5459WAT     H122556   0.062   4.386   6.141  0.1993 -0.1817  0.2631
 5459WAT     H222557   0.139   4.499   6.157  0.8027 -0.5630  0.1222
 5459WAT    EPW22558   0.106   4.434   6.185  0.3282 -0.2774  0.2410
 5460WAT      O22559   4.603   5.584   6.633 -0.2371  0.6279  0.2382
 5460WAT     H122560   4.536   5.606   6.583  1.5625  2.5389 -1.5442
 5460WAT     H222561   4.584   5.617   6.711 -0.5017  3.0147 -0.7645
 5460WAT    EPW22562   4.591   5.592   6.637 -0.0104  1.2627 -0.1732
 5461WAT      O22563   6.173   1.315   2.021 -0.4471  0.0303 -0.0250
 5461WAT     H122564   6.216   1.283   2.090  1.5099 -0.0132 -1.1761
 5461WAT     H222565   6.131   1.246   1.989 -0.3618 -0.2177  0.3882
 5461WAT    EPW22566   6.173   1.300   2.027 -0.1454 -0.0127 -0.1340
 5462WAT      O22567   1.049   0.854   7.399  0.3482  0.2310  0.4017
 5462WAT     H122568   0.994   0.785   7.398 -0.4580  0.8614  0.1248
 5462WAT     H222569   1.126   0.818   7.416  0.2053 -0.9534 -1.1490
 5462WAT    EPW22570   1.052   0.838   7.401  0.2080  0.1492  0.1317
 5463WAT      O22571   5.518   0.828   1.930  0.0964  0.2007 -0.0715
 5463WAT     H122572   5.513   0.902   1.885  0.1462  0.5181  0.4376
 5463WAT     H222573   5.435   0.803   1.938  0.0182  0.5930  0.3881
 5463WAT    EPW22574   5.505   0.835   1.925  0.0922  0.3056  0.0716
 5464WAT      O22575   4.126   2.706   4.984 -0.4419  0.0796 -0.0285
 5464WAT     H122576   4.178   2.683   4.918  0.2524 -0.2181  0.6083
 5464WAT     H222577   4.166   2.775   5.019 -0.7087  0.1265  0.1897
 5464WAT    EPW22578   4.140   2.713   4.980 -0.3787  0.0426  0.0978
 5465WAT      O22579   0.241   5.451   1.285  0.0059  0.2520 -0.4152
 5465WAT     H122580   0.161   5.430   1.258 -0.0755 -0.5242  0.3747
 5465WAT     H222581   0.287   5.378   1.276  0.0833  0.0784  1.0415
 5465WAT    EPW22582   0.236   5.437   1.280  0.0053  0.1117 -0.0833
 5466WAT      O22583   6.701   4.179   6.713  0.0685 -0.1236  0.5019
 5466WAT     H122584   6.749   4.148   6.779  0.0595 -1.8580 -0.2616
 5466WAT     H222585   6.620   4.181   6.745  0.4134  1.6456  1.3906
 5466WAT    EPW22586   6.696   4.174   6.727  0.1181 -0.1184  0.5204
 5467WAT      O22587   1.785   0.136   5.157  0.2984 -0.8413  0.2797
 5467WAT     H122588   1.766   0.052   5.171  1.3728 -1.1284  0.1045
 5467WAT     H222589   1.725   0.161   5.099 -0.8681 -1.1037  1.3244
 5467WAT    EPW22590   1.774   0.127   5.150  0.2848 -0.9225  0.4081
 5468WAT      O22591   6.365   4.730   1.533 -0.0612 -0.1544 -0.6958
 5468WAT     H122592   6.422   4.752   1.595 -0.1836 -0.1946 -0.5700
 5468WAT     H222593   6.389   4.649   1.511 -1.3827 -1.0228  0.8603
 5468WAT    EPW22594   6.377   4.721   1.539 -0.2745 -0.2886 -0.4473
 5469WAT      O22595   5.063   1.671   2.130 -0.1057  0.4671  0.1095
 5469WAT     H122596   5.083   1.656   2.046 -0.3044 -0.4461  0.2203
 5469WAT     H222597   5.141   1.671   2.169 -0.1113 -0.4811  0.1336
 5469WAT    EPW22598   5.078   1.669   2.123 -0.1359  0.1921  0.1294
 5470WAT      O22599   4.212   1.452   5.417 -0.0359 -0.2275  0.3801
 5470WAT     H122600   4.152   1.497   5.462  3.0141  2.1364  2.5168
 5470WAT     H222601   4.240   1.392   5.473 -0.8345 -1.8300 -0.8580
 5470WAT    EPW22602   4.207   1.450   5.432  0.2967 -0.1150  0.5129
 5471WAT      O22603   4.588   3.262   4.761  0.6764 -0.0338  0.0870
 5471WAT     H122604   4.533   3.195   4.749 -1.0595  1.2314  0.5437
 5471WAT     H222605   4.585   3.305   4.685  2.9726 -1.1962 -0.7736
 5471WAT    EPW22606   4.579   3.258   4.748  0.7592 -0.0186  0.0273
 5472WAT      O22607   0.966   6.440   5.320 -0.3176  0.1266  0.0549
 5472WAT     H122608   0.936   6.491   5.384  1.2447 -0.4969  1.3386
 5472WAT     H222609   0.995   6.498   5.261 -0.7930  0.7073  0.3750
 5472WAT    EPW22610   0.966   6.456   5.320 -0.1571  0.1203  0.2918
 5473WAT      O22611   6.412   1.455   5.909  0.0480 -0.5577 -0.3121
 5473WAT     H122612   6.347   1.463   5.966 -0.2149  0.8458 -0.7812
 5473WAT     H222613   6.483   1.445   5.959  0.0455  2.1703  0.3619
 5473WAT    EPW22614   6.413   1.454   5.925  0.0088  0.0526 -0.2818
 5474WAT      O22615   7.286   0.476   5.831  0.3555 -0.2908 -0.5743
 5474WAT     H122616   7.323   0.504   5.757  1.9135 -0.7762 -0.0247
 5474WAT     H222617   7.211   0.441   5.804  2.4133 -3.8040 -2.5427
 5474WAT    EPW22618   7.281   0.475   5.816  0.8896 -0.8815 -0.7839
 5475WAT      O22619   4.739   2.398   3.887  0.2186 -0.0947 -0.5511
 5475WAT     H122620   4.713   2.332   3.937  1.3030 -1.3726 -1.6150
 5475WAT     H222621   4.664   2.438   3.865 -0.3147  0.3228  1.7382
 5475WAT    EPW22622   4.724   2.394   3.891  0.3000 -0.2218 -0.3701
 5476WAT      O22623   5.938   1.692   3.229 -0.4375  0.1673 -0.8805
 5476WAT     H122624   5.984   1.621   3.249 -1.4007 -0.0124  0.8617
 5476WAT     H222625   5.942   1.695   3.142  0.0268 -1.7343 -0.9626
 5476WAT    EPW22626   5.946   1.682   3.219 -0.5112 -0.1401 -0.6353
 5477WAT      O22627   3.817   5.894   6.777 -0.4206 -0.5283  0.6751
 5477WAT     H122628   3.786   5.855   6.849  1.7640 -1.1704  1.3345
 5477WAT     H222629   3.899   5.912   6.796 -0.4341  1.5285 -0.8338
 5477WAT    EPW22630   3.824   5.891   6.790 -0.0999 -0.3193  0.5496
 5478WAT      O22631   7.045   4.544   1.288 -0.0409 -0.3011 -0.5458
 5478WAT     H122632   7.071   4.550   1.205 -0.8042 -1.6409 -0.9121
 5478WAT     H222633   7.081   4.469   1.315 -0.2942 -0.1777  0.1536
 5478WAT    EPW22634   7.054   4.534   1.280 -0.1911 -0.4808 -0.4966
 5479WAT      O22635   2.891   2.701   6.077  0.2590  1.3601  0.0930
 5479WAT     H122636   2.837   2.637   6.101  0.9397  0.9849  0.6739
 5479WAT     H222637   2.967   2.660   6.065  0.5869  1.9847 -0.0057
 5479WAT    EPW22638   2.894   2.686   6.079  0.4080  1.3970  0.1642
 5480WAT      O22639   3.091   0.590   3.776 -0.3806  0.6473  0.5032
 5480WAT     H122640   3.088   0.591   3.863 -0.8079 -0.9005  0.5301
 5480WAT     H222641   3.072   0.672   3.754  1.2218  1.4468  1.8901
 5480WAT    EPW22642   3.088   0.602   3.786 -0.2070  0.5367  0.7120
 5481WAT      O22643   6.486   6.328   2.244  0.1550  0.2643  0.1834
 5481WAT     H122644   6.468   6.279   2.314 -1.6505  0.2973 -0.2089
 5481WAT     H222645   6.554   6.287   2.207 -1.7181 -2.4466 -0.5308
 5481WAT    EPW22646   6.494   6.315   2.249 -0.3884 -0.1313  0.0199
 5482WAT      O22647   5.199   5.945   5.914 -0.1298 -0.0185  0.2695
 5482WAT     H122648   5.117   5.919   5.905 -0.4154  1.3834 -1.7769
 5482WAT     H222649   5.236   5.881   5.960 -2.1741 -1.0082  0.6360
 5482WAT    EPW22650   5.192   5.932   5.920 -0.4740  0.0424  0.0213
 5483WAT      O22651   0.173   2.153   7.201  0.0626  0.1593  0.3442
 5483WAT     H122652   0.150   2.181   7.281  2.8177  0.6969  1.0482
 5483WAT     H222653   0.097   2.125   7.167 -1.5185  1.5103  2.4664
 5483WAT    EPW22654   0.158   2.153   7.208  0.2360  0.4383  0.7617
 5484WAT      O22655   1.871   2.214   4.070 -0.0671  0.3203 -0.2058
 5484WAT     H122656   1.939   2.160   4.073 -0.2929  0.0927  1.9859
 5484WAT     H222657   1.824   2.183   4.003  1.3370 -0.2539 -0.9762
 5484WAT    EPW22658   1.874   2.202   4.060  0.1069  0.2019  0.0041
 5485WAT      O22659   1.049   3.543   3.390  0.2397  0.1474 -0.7484
 5485WAT     H122660   1.135   3.554   3.393  0.4677 -1.5234  0.1087
 5485WAT     H222661   1.018   3.612   3.432  1.2395  0.1275  0.0549
 5485WAT    EPW22662   1.057   3.554   3.396  0.4211 -0.1023 -0.5031
 5486WAT      O22663   5.817   2.820   6.124 -0.1749  0.2336 -0.0876
 5486WAT     H122664   5.866   2.875   6.078 -1.2472  0.6447 -0.7576
 5486WAT     H222665   5.794   2.759   6.066  0.9407 -0.9405  0.6219
 5486WAT    EPW22666   5.821   2.819   6.108 -0.1685  0.1209 -0.0817
 5487WAT      O22667   3.419   1.291   7.271 -0.0328 -0.1641  0.0058
 5487WAT     H122668   3.422   1.291   7.358 -1.1516  0.9156  0.0712
 5487WAT     H222669   3.397   1.209   7.251  1.3261 -0.7129  0.6686
 5487WAT    EPW22670   3.416   1.279   7.281  0.0027 -0.0857  0.1134
 5488WAT      O22671   7.314   2.981   0.307 -0.2166  0.9361 -0.0336
 5488WAT     H122672   7.319   2.958   0.391  1.7486 -0.4562 -0.4491
 5488WAT     H222673   7.351   3.060   0.305  0.6802  0.5384  0.3023
 5488WAT    EPW22674   7.321   2.989   0.319  0.2062  0.6717 -0.0454
 5489WAT      O22675   5.096   1.712   3.666  0.1362  0.5840 -0.2943
 5489WAT     H122676   5.022   1.667   3.653 -0.4718  0.5009  2.6552
 5489WAT     H222677   5.069   1.792   3.685  0.9921  1.1914 -1.5134
 5489WAT    EPW22678   5.081   1.717   3.667  0.1728  0.6614 -0.0387
 5490WAT      O22679   5.652   1.968   3.809  0.4396 -0.1579 -0.0785
 5490WAT     H122680   5.676   1.995   3.889 -1.4720 -1.0646  0.8592
 5490WAT     H222681   5.566   1.956   3.816  0.4179 -1.4938 -1.9105
 5490WAT    EPW22682   5.643   1.970   3.822  0.1540 -0.4891 -0.2106
 5491WAT      O22683   5.157   2.566   2.266  0.2823 -0.1817 -0.4058
 5491WAT     H122684   5.130   2.631   2.215  2.0051 -0.3111 -1.5818
 5491WAT     H222685   5.204   2.516   2.212  0.6738 -1.3119  0.9237
 5491WAT    EPW22686   5.160   2.568   2.250  0.5946 -0.3678 -0.3831
 5492WAT      O22687   1.791   5.782   3.640 -0.1892  0.3074 -0.0599
 5492WAT     H122688   1.844   5.838   3.599 -0.0303  1.3158  1.4833
 5492WAT     H222689   1.846   5.735   3.689 -0.6175  0.6725  0.7690
 5492WAT    EPW22690   1.807   5.783   3.641 -0.2290  0.5103  0.2905
 5493WAT      O22691   0.597   2.003   6.672 -0.7624  0.1290  0.5549
 5493WAT     H122692   0.526   2.053   6.659  0.4457  1.7921  0.0766
 5493WAT     H222693   0.624   1.984   6.591  0.6873  1.5827  0.6366
 5493WAT    EPW22694   0.590   2.008   6.658 -0.3698  0.5894  0.4963
 5494WAT      O22695   5.780   5.617   0.676  0.5787  0.6996  0.0334
 5494WAT     H122696   5.818   5.598   0.600  1.6844 -1.2713  0.9836
 5494WAT     H222697   5.847   5.637   0.728 -0.0127  0.6434  0.8432
 5494WAT    EPW22698   5.796   5.617   0.673  0.6547  0.4002  0.2934
 5495WAT      O22699   2.418   1.711   4.577 -0.3652  0.5625 -0.5495
 5495WAT     H122700   2.364   1.675   4.519 -1.0794 -0.6718  0.8125
 5495WAT     H222701   2.381   1.788   4.595 -1.5014 -0.1111  0.0870
 5495WAT    EPW22702   2.405   1.717   4.571 -0.6386  0.2807 -0.2543
 5496WAT      O22703   4.287   0.425   0.911  0.4671 -0.2814 -0.3265
 5496WAT     H122704   4.350   0.416   0.970  0.5541 -0.6257 -0.4659
 5496WAT     H222705   4.240   0.493   0.940  1.5183  0.6716 -0.7949
 5496WAT    EPW22706   4.289   0.433   0.924  0.6352 -0.1915 -0.4163
 5497WAT      O22707   4.958   7.159   2.974  0.0181  0.0112  0.0745
 5497WAT     H122708   4.899   7.122   2.921  1.0110  0.4275 -1.3827
 5497WAT     H222709   4.970   7.238   2.939 -0.4101  0.8982  1.8394
 5497WAT    EPW22710   4.951   7.165   2.961  0.1015  0.2037  0.1200
 5498WAT      O22711   7.058   1.946   1.805  0.0224 -0.7082  0.3119
 5498WAT     H122712   6.987   1.956   1.854 -0.3892  0.3362 -0.4752
 5498WAT     H222713   7.113   1.904   1.858 -1.2950 -1.8958  0.8128
 5498WAT    EPW22714   7.056   1.941   1.820 -0.2330 -0.7293  0.2696
 5499WAT      O22715   6.681   0.595   3.438  0.1693 -0.2609 -0.0262
 5499WAT     H122716   6.694   0.646   3.368  0.4346  0.0135  0.2157
 5499WAT     H222717   6.595   0.598   3.450  0.2554  0.7405  0.4235
 5499WAT    EPW22718   6.670   0.603   3.430  0.2212 -0.0724  0.0760
 5500WAT      O22719   4.096   0.588   0.145 -0.2461  0.1423 -0.5648
 5500WAT     H122720   4.049   0.515   0.153  1.1229 -0.5788  2.5912
 5500WAT     H222721   4.168   0.562   0.103  0.2475 -0.3748  0.5725
 5500WAT    EPW22722   4.100   0.574   0.140  0.0290 -0.0406  0.0695
 5501WAT      O22723   4.084   2.095   4.120  0.1536 -0.0901  0.4055
 5501WAT     H122724   4.078   2.139   4.045 -0.0704  0.7323  0.9001
 5501WAT     H222725   4.068   2.155   4.181 -2.3280 -1.2468  1.0282
 5501WAT    EPW22726   4.080   2.110   4.118 -0.2461 -0.1395  0.5705
 5502WAT      O22727   4.636   2.888   6.234 -0.1512  0.3013  0.3540
 5502WAT     H122728   4.552   2.863   6.236  0.1153 -0.6400  0.4844
 5502WAT     H222729   4.673   2.840   6.297  0.3098  1.4205  0.9629
 5502WAT    EPW22730   4.629   2.877   6.244 -0.0437  0.3276  0.4632
 5503WAT      O22731   1.996   7.089   1.091 -0.1487  0.6689  0.2509
 5503WAT     H122732   2.010   7.175   1.091  0.3882  0.5947  1.0855
 5503WAT     H222733   2.073   7.055   1.071 -0.0963  0.3604  0.9299
 5503WAT    EPW22734   2.009   7.097   1.088 -0.0616  0.6124  0.4745
 5504WAT      O22735   4.398   2.324   6.167 -0.0382 -0.4632  0.0208
 5504WAT     H122736   4.361   2.276   6.230 -1.1485 -0.1758 -0.3935
 5504WAT     H222737   4.330   2.361   6.127  0.8010  1.6335  0.4507
 5504WAT    EPW22738   4.383   2.322   6.170 -0.0782 -0.1111  0.0231
 5505WAT      O22739   4.435   1.061   1.483 -0.0753  0.1770  0.1723
 5505WAT     H122740   4.484   1.133   1.479 -1.0984  1.0180  1.8072
 5505WAT     H222741   4.413   1.047   1.400  1.8405  0.5072 -0.4425
 5505WAT    EPW22742   4.439   1.069   1.470  0.0565  0.3500  0.3230
 5506WAT      O22743   0.964   0.137   4.179 -0.7022 -0.0512  0.2466
 5506WAT     H122744   0.948   0.140   4.265 -0.8535  0.2597  0.2068
 5506WAT     H222745   0.926   0.062   4.154  0.4042 -0.7849  0.6713
 5506WAT    EPW22746   0.956   0.126   4.188 -0.5611 -0.1137  0.3035
 5507WAT      O22747   2.150   5.199   5.637  0.6633 -0.3621 -0.0513
 5507WAT     H122748   2.067   5.201   5.611  0.7261  0.5515 -0.2179
 5507WAT     H222749   2.174   5.282   5.634  1.4215 -0.5517  0.5422
 5507WAT    EPW22750   2.141   5.211   5.632  0.7846 -0.2551  0.0118
 5508WAT      O22751   0.095   1.042   4.782 -0.2503  0.2046 -0.3679
 5508WAT     H122752   0.150   0.975   4.768  1.1813  1.5928 -1.8173
 5508WAT     H222753   0.024   1.019   4.738  0.2053 -0.3785 -0.8281
 5508WAT    EPW22754   0.093   1.028   4.774  0.0285  0.3235 -0.6500
 5509WAT      O22755   6.916   5.652   0.756  0.1511  0.1616 -0.5853
 5509WAT     H122756   6.921   5.637   0.670  0.4906  0.3018 -0.5897
 5509WAT     H222757   6.830   5.657   0.770  0.1033  0.5687 -0.9917
 5509WAT    EPW22758   6.904   5.650   0.745  0.1942  0.2424 -0.6460
 5510WAT      O22759   5.338   0.251   1.731  0.0676  0.5041 -0.3382
 5510WAT     H122760   5.370   0.192   1.785  2.1339  1.0448 -0.8885
 5510WAT     H222761   5.402   0.263   1.672 -1.1753  1.6047 -1.5530
 5510WAT    EPW22762   5.352   0.244   1.730  0.1892  0.7465 -0.5989
 5511WAT      O22763   7.041   4.732   2.180  0.2612 -0.0620  0.1450
 5511WAT     H122764   6.960   4.699   2.172  0.0665 -0.2546  2.2894
 5511WAT     H222765   7.029   4.804   2.228  1.2020  0.8472 -0.9182
 5511WAT    EPW22766   7.027   4.738   2.186  0.3714  0.0438  0.3047
 5512WAT      O22767   4.804   2.372   4.459 -0.0054  0.2626  0.0027
 5512WAT     H122768   4.796   2.398   4.542 -0.8127 -0.7453  0.2644
 5512WAT     H222769   4.749   2.424   4.415 -2.4547 -1.5714  0.6755
 5512WAT    EPW22770   4.795   2.383   4.465 -0.4865 -0.1572  0.1407
 5513WAT      O22771   5.057   0.361   5.399 -0.0775  0.2420  0.5893
 5513WAT     H122772   5.108   0.291   5.402  0.9272  0.9707  1.8590
 5513WAT     H222773   5.005   0.352   5.468 -1.6196 -0.4173 -0.6100
 5513WAT    EPW22774   5.057   0.350   5.410 -0.1569  0.2522  0.5997
 5514WAT      O22775   2.087   3.123   3.193 -0.4417 -0.4532 -0.0859
 5514WAT     H122776   2.069   3.128   3.108  2.0921  0.2496 -0.6892
 5514WAT     H222777   2.038   3.186   3.229  0.0069  0.6974 -1.3871
 5514WAT    EPW22778   2.077   3.133   3.186 -0.0011 -0.1794 -0.3673
 5515WAT      O22779   2.826   6.349   4.663  0.1360 -0.1119  0.1477
 5515WAT     H122780   2.819   6.276   4.616 -1.5124  1.7123 -2.7840
 5515WAT     H222781   2.763   6.341   4.723 -0.9434 -0.6300 -0.9966
 5515WAT    EPW22782   2.816   6.337   4.665 -0.2670  0.0810 -0.4544
 5516WAT      O22783   3.534   3.346   5.606 -0.5706  0.5090  0.3289
 5516WAT     H122784   3.459   3.310   5.581 -0.7980 -0.4095  2.1803
 5516WAT     H222785   3.592   3.317   5.546 -1.2193 -0.8995  0.3453
 5516WAT    EPW22786   3.532   3.336   5.593 -0.7000  0.1652  0.6048
 5517WAT      O22787   2.870   4.691   7.353 -0.8048 -0.2513  0.8234
 5517WAT     H122788   2.810   4.629   7.368 -1.5670 -0.3761 -2.1514
 5517WAT     H222789   2.844   4.727   7.278  1.6804  1.1967  0.5460
 5517WAT    EPW22790   2.857   4.687   7.344 -0.5503 -0.0558  0.3430
 5518WAT      O22791   5.184   1.878   3.431  0.4445 -0.6963 -0.1496
 5518WAT     H122792   5.259   1.913   3.459 -0.4620  1.6952 -0.5095
 5518WAT     H222793   5.158   1.829   3.498  1.4748 -0.2209  0.6285
 5518WAT    EPW22794   5.191   1.876   3.445  0.4628 -0.2728 -0.0878
 5519WAT      O22795   3.454   5.572   6.006  0.3061  0.1406  0.0494
 5519WAT     H122796   3.372   5.594   5.985 -0.2240 -0.6862  1.1822
 5519WAT     H222797   3.463   5.493   5.970  0.8293  0.4888 -0.5991
 5519WAT    EPW22798   3.443   5.563   5.997  0.3051  0.0699  0.1209
 5520WAT      O22799   0.746   6.782   5.842  0.4309 -0.8129 -0.3284
 5520WAT     H122800   0.791   6.825   5.902 -1.0233 -1.0061  0.9673
 5520WAT     H222801   0.731   6.704   5.878  1.2264 -1.6829 -1.7783
 5520WAT    EPW22802   0.750   6.777   5.856  0.3336 -0.9699 -0.3512
 5521WAT      O22803   3.639   0.100   2.088 -0.6422 -0.5492 -0.1390
 5521WAT     H122804   3.623   0.014   2.091 -0.5764 -0.5522  0.1410
 5521WAT     H222805   3.561   0.135   2.069 -0.3126 -0.7949 -2.1983
 5521WAT    EPW22806   3.625   0.092   2.085 -0.5838 -0.5859 -0.4018
 5522WAT      O22807   4.631   7.093   0.382  0.3655 -0.0516  0.6507
 5522WAT     H122808   4.687   7.160   0.384  1.4512 -0.9347  1.9041
 5522WAT     H222809   4.573   7.114   0.443  2.1729 -1.3589  2.9914
 5522WAT    EPW22810   4.631   7.106   0.391  0.7929 -0.3752  1.1816
 5523WAT      O22811   5.005   2.262   2.477  0.3121 -0.2697 -0.1785
 5523WAT     H122812   5.062   2.254   2.412  0.6167  0.7699 -0.0657
 5523WAT     H222813   4.990   2.348   2.481 -2.0127 -0.5662 -0.8200
 5523WAT    EPW22814   5.011   2.274   2.468  0.0137 -0.1599 -0.2566
 5524WAT      O22815   3.897   1.231   6.157  0.4001  0.1559  0.0229
 5524WAT     H122816   3.824   1.271   6.184 -0.2307 -0.9051 -0.0684
 5524WAT     H222817   3.961   1.281   6.190 -0.3263  1.8505 -0.9780
 5524WAT    EPW22818   3.896   1.244   6.166  0.1996  0.2495 -0.1384
 5525WAT      O22819   6.816   7.215   2.414  0.0681 -0.1437  0.0220
 5525WAT     H122820   6.770   7.282   2.445 -0.6028 -0.4466 -0.2775
 5525WAT     H222821   6.881   7.252   2.370 -0.5048  0.3258 -0.4554
 5525WAT    EPW22822   6.819   7.230   2.412 -0.1157 -0.1191 -0.0928
 5526WAT      O22823   2.726   0.827   5.165  0.2926  0.0529 -0.2526
 5526WAT     H122824   2.724   0.884   5.231  0.3130 -0.1650 -0.0614
 5526WAT     H222825   2.806   0.837   5.132 -0.5381  1.9885 -1.8779
 5526WAT    EPW22826   2.738   0.837   5.170  0.1729  0.3066 -0.4644
 5527WAT      O22827   5.144   5.616   3.353  0.4504 -0.6135  0.8540
 5527WAT     H122828   5.081   5.572   3.312  0.6333 -0.3916  0.3246
 5527WAT     H222829   5.123   5.608   3.437 -0.6482  0.0157  0.6608
 5527WAT    EPW22830   5.132   5.608   3.359  0.3151 -0.4878  0.7473
 5528WAT      O22831   5.063   4.480   3.639  0.1220 -0.0146  0.0503
 5528WAT     H122832   5.070   4.561   3.608 -0.7315  0.3311  0.7184
 5528WAT     H222833   5.108   4.483   3.714 -0.5531  0.0661  0.4602
 5528WAT    EPW22834   5.070   4.492   3.646 -0.1038  0.0484  0.2096
 5529WAT      O22835   3.865   7.192   1.925 -0.1613  0.4616 -0.6888
 5529WAT     H122836   3.824   7.125   1.962  0.7636  0.1253 -0.2401
 5529WAT     H222837   3.891   7.240   1.993 -0.5022  1.0872 -0.9929
 5529WAT    EPW22838   3.863   7.189   1.940 -0.0750  0.5043 -0.6675
 5530WAT      O22839   4.263   6.089   4.428 -0.3292 -0.3121  0.4789
 5530WAT     H122840   4.197   6.117   4.478 -0.5679 -1.2953  0.7324
 5530WAT     H222841   4.329   6.141   4.450 -1.6382  2.5692 -1.7225
 5530WAT    EPW22842   4.263   6.101   4.439 -0.5578 -0.0317  0.1912
 5531WAT      O22843   2.705   6.446   3.512 -0.1748 -0.7521 -0.0617
 5531WAT     H122844   2.778   6.493   3.514  0.1763 -1.2834  1.3635
 5531WAT     H222845   2.650   6.490   3.564 -0.9328 -0.2864 -1.2261
 5531WAT    EPW22846   2.707   6.459   3.520 -0.2349 -0.7618 -0.0232
 5532WAT      O22847   5.800   4.589   5.296  0.5876  0.3344  0.4662
 5532WAT     H122848   5.816   4.519   5.346 -1.3641 -0.2530  0.3495
 5532WAT     H222849   5.728   4.567   5.251  0.7204  1.8887 -0.6061
 5532WAT    EPW22850   5.792   4.576   5.297  0.3189  0.4773  0.2905
 5533WAT      O22851   3.424   2.862   1.327 -0.6471  0.1010 -0.4892
 5533WAT     H122852   3.415   2.859   1.413 -1.4443 -0.2306 -0.5689
 5533WAT     H222853   3.396   2.783   1.301  2.4828 -1.0534 -0.8381
 5533WAT    EPW22854   3.419   2.850   1.336 -0.3025 -0.1185 -0.5525
 5534WAT      O22855   7.228   1.962   6.595  0.2873  0.0073 -0.5260
 5534WAT     H122856   7.169   1.898   6.604 -0.7289  1.0730  0.7686
 5534WAT     H222857   7.284   1.947   6.659  0.1224  0.3249 -0.3042
 5534WAT    EPW22858   7.227   1.950   6.605  0.1129  0.2117 -0.3020
 5535WAT      O22859   3.929   4.211   4.619 -0.5258 -0.3092 -0.1506
 5535WAT     H122860   3.966   4.251   4.688 -0.6104  1.0323 -0.8458
 5535WAT     H222861   3.860   4.170   4.654  0.1327 -0.6840  0.7514
 5535WAT    EPW22862   3.924   4.211   4.634 -0.4410 -0.1664 -0.1200
 5536WAT      O22863   2.454   1.986   4.623  0.1832 -0.5879 -0.6126
 5536WAT     H122864   2.538   2.007   4.610  0.0335 -0.4222 -1.3295
 5536WAT     H222865   2.437   2.018   4.703  1.1170 -1.6420  0.0421
 5536WAT    EPW22866   2.464   1.994   4.633  0.2990 -0.7191 -0.6218
 5537WAT      O22867   6.701   6.608   0.048  0.0282 -0.3589  0.3226
 5537WAT     H122868   6.741   6.610   0.125  1.6125  1.6188 -0.4482
 5537WAT     H222869   6.744   6.547   0.004  1.6771  1.0855 -0.1744
 5537WAT    EPW22870   6.713   6.600   0.053  0.5058  0.1466  0.1353
 5538WAT      O22871   1.491   2.669   6.990 -0.5322 -0.2973  0.3670
 5538WAT     H122872   1.490   2.701   7.071 -0.0016 -0.0238  0.2730
 5538WAT     H222873   1.502   2.583   7.003 -0.0315 -0.2075  0.5804
 5538WAT    EPW22874   1.493   2.661   7.004 -0.3799 -0.2437  0.3846
 5539WAT      O22875   5.921   1.677   5.818  0.0340 -0.1743 -0.0739
 5539WAT     H122876   5.957   1.598   5.811 -1.1139 -0.6021 -2.7754
 5539WAT     H222877   5.990   1.731   5.818  0.8045 -1.1029 -1.0628
 5539WAT    EPW22878   5.936   1.674   5.817 -0.0218 -0.3747 -0.6190
 5540WAT      O22879   2.075   0.830   3.251 -0.0138  0.4905  0.1480
 5540WAT     H122880   2.103   0.839   3.333  2.5003  1.7640 -0.7187
 5540WAT     H222881   2.068   0.744   3.241 -1.9215  0.3449  2.0964
 5540WAT    EPW22882   2.078   0.818   3.262  0.0758  0.6571  0.3078
 5541WAT      O22883   5.335   2.840   6.538  0.1200 -0.2583 -0.2974
 5541WAT     H122884   5.369   2.893   6.477  1.4348 -0.5613  0.1571
 5541WAT     H222885   5.254   2.871   6.548  0.9237  1.8525  0.1283
 5541WAT    EPW22886   5.328   2.853   6.531  0.4330  0.0087 -0.1674
 5542WAT      O22887   4.261   6.441   6.354 -0.5063 -1.1655  0.2833
 5542WAT     H122888   4.279   6.359   6.377 -0.7887 -0.9838  1.1993
 5542WAT     H222889   4.181   6.434   6.318 -1.1792 -1.1124  1.6717
 5542WAT    EPW22890   4.252   6.428   6.352 -0.6474 -1.1308  0.6237
 5543WAT      O22891   6.694   3.299   1.541  0.3123  0.0239 -0.7834
 5543WAT     H122892   6.715   3.370   1.588 -1.5443  0.0748  0.0508
 5543WAT     H222893   6.770   3.276   1.505  1.7222  0.3753  1.7106
 5543WAT    EPW22894   6.708   3.306   1.543  0.2463  0.0833 -0.2918
 5544WAT      O22895   3.980   7.252   0.199 -0.6245  0.2664  0.4074
 5544WAT     H122896   3.951   7.280   0.277  1.1345  0.4025  1.0578
 5544WAT     H222897   4.024   7.179   0.218 -0.2302  0.2621 -0.4705
 5544WAT    EPW22898   3.982   7.246   0.213 -0.3064  0.2859  0.3738
 5545WAT      O22899   4.819   2.742   3.873 -0.6634 -0.0015  0.4665
 5545WAT     H122900   4.743   2.729   3.913 -0.3409 -0.3209  0.9866
 5545WAT     H222901   4.799   2.738   3.788 -0.9884 -1.5637  0.5872
 5545WAT    EPW22902   4.805   2.740   3.866 -0.6638 -0.2794  0.5612
 5546WAT      O22903   1.600   5.661   6.597 -0.2472 -0.0139 -0.0153
 5546WAT     H122904   1.578   5.723   6.654 -0.4699  1.3290 -1.4903
 5546WAT     H222905   1.564   5.688   6.522  1.7802 -0.5622 -1.2914
 5546WAT    EPW22906   1.592   5.674   6.594  0.0194  0.1034 -0.4217
 5547WAT      O22907   1.909   0.916   3.008 -0.1985 -0.5791 -0.4585
 5547WAT     H122908   1.942   0.883   2.934  0.8601  0.9071 -0.7047
 5547WAT     H222909   1.960   0.883   3.070  0.4045 -0.0064 -0.6359
 5547WAT    EPW22910   1.921   0.906   3.006  0.0470 -0.2750 -0.5210
 5548WAT      O22911   5.757   2.175   0.217 -0.4659 -0.2981  0.1891
 5548WAT     H122912   5.817   2.113   0.231  0.8109  0.7479 -0.4134
 5548WAT     H222913   5.718   2.150   0.143  0.2083 -0.2939 -0.1793
 5548WAT    EPW22914   5.761   2.162   0.208 -0.1777 -0.1429  0.0457
 5549WAT      O22915   5.217   3.478   3.028 -0.5076  0.0527 -0.0792
 5549WAT     H122916   5.271   3.469   2.961 -1.0334 -1.2683 -0.3661
 5549WAT     H222917   5.183   3.398   3.038 -1.2457  0.4754  1.0683
 5549WAT    EPW22918   5.220   3.465   3.020 -0.6943 -0.0800  0.0479
 5550WAT      O22919   5.150   1.116   3.778 -0.2318  0.0671  0.0551
 5550WAT     H122920   5.105   1.126   3.852 -1.3337 -0.4353 -0.5117
 5550WAT     H222921   5.125   1.037   3.750  0.4271  0.1050 -0.6741
 5550WAT    EPW22922   5.139   1.106   3.785 -0.2973 -0.0015 -0.1363
 5551WAT      O22923   3.362   2.026   2.615 -0.0087  0.2954 -0.4805
 5551WAT     H122924   3.292   2.075   2.598  0.7509  1.5898 -0.0407
 5551WAT     H222925   3.364   2.021   2.702 -0.7802 -1.6378 -0.5283
 5551WAT    EPW22926   3.352   2.033   2.625 -0.0104  0.2010 -0.4226
 5552WAT      O22927   6.187   2.632   0.578  0.3241 -0.0165 -0.6249
 5552WAT     H122928   6.126   2.666   0.526  0.6651  1.1019 -0.3130
 5552WAT     H222929   6.232   2.701   0.605 -0.2486 -0.4857  1.7100
 5552WAT    EPW22930   6.185   2.647   0.574  0.2899  0.0794 -0.2339
 5553WAT      O22931   4.857   1.729   6.956  0.4501 -0.0623  0.6229
 5553WAT     H122932   4.878   1.810   6.982  0.2647 -0.5645  2.4625
 5553WAT     H222933   4.933   1.694   6.934  0.8940 -0.1291  2.1329
 5553WAT    EPW22934   4.871   1.736   6.957  0.4883 -0.1464  1.1177
 5554WAT      O22935   3.361   4.005   3.423 -0.3262 -0.6190 -0.4531
 5554WAT     H122936   3.320   4.021   3.347  0.1320 -1.3342 -0.8663
 5554WAT     H222937   3.296   4.002   3.481 -0.5867  0.9027 -0.6446
 5554WAT    EPW22938   3.345   4.007   3.420 -0.2970 -0.4999 -0.5424
 5555WAT      O22939   5.685   4.047   4.425  0.0670 -0.1973  0.7842
 5555WAT     H122940   5.641   4.057   4.350  3.1126 -1.8831 -1.4063
 5555WAT     H222941   5.686   3.961   4.438  1.9130 -0.1458  1.2399
 5555WAT    EPW22942   5.678   4.036   4.416  0.7896 -0.4387  0.5279
 5556WAT      O22943   0.578   1.555   4.705  0.0062 -0.4538  0.2831
 5556WAT     H122944   0.538   1.492   4.751  1.2050 -0.7494  0.9608
 5556WAT     H222945   0.660   1.527   4.698  0.1316  0.1571 -1.0542
 5556WAT    EPW22946   0.584   1.542   4.711  0.2018 -0.4072  0.1856
 5557WAT      O22947   6.542   5.286   2.718 -0.1929  0.3622 -0.1830
 5557WAT     H122948   6.498   5.252   2.786 -0.3985  0.5784 -0.2077
 5557WAT     H222949   6.485   5.341   2.682 -0.2081 -0.0141 -0.7462
 5557WAT    EPW22950   6.527   5.289   2.723 -0.2255  0.3385 -0.2698
 5558WAT      O22951   6.275   5.967   4.721 -0.3199  0.5668 -0.0509
 5558WAT     H122952   6.271   5.891   4.680  0.5415  0.7751 -0.5410
 5558WAT     H222953   6.232   5.952   4.796  1.4668 -0.9952  0.7461
 5558WAT    EPW22954   6.268   5.954   4.726  0.0713  0.3668 -0.0056
 5559WAT      O22955   5.545   3.183   2.207 -0.3950  0.0506 -0.1980
 5559WAT     H122956   5.474   3.176   2.156  0.1610 -0.3947 -0.9338
 5559WAT     H222957   5.513   3.175   2.288 -1.3236  0.9534 -0.4457
 5559WAT    EPW22958   5.530   3.181   2.211 -0.4500  0.1182 -0.3433
 5560WAT      O22959   6.391   4.022   0.174 -0.0632 -0.2821 -0.3478
 5560WAT     H122960   6.331   3.986   0.121  0.0399 -0.6602 -0.2138
 5560WAT     H222961   6.366   4.105   0.180  1.1320  0.3143 -2.6836
 5560WAT    EPW22962   6.378   4.029   0.167  0.1286 -0.2499 -0.6731
 5561WAT      O22963   4.277   1.489   3.320 -0.6081  0.5338 -0.0248
 5561WAT     H122964   4.214   1.545   3.342 -0.8995 -0.3769  1.5860
 5561WAT     H222965   4.340   1.504   3.377 -0.6207 -0.6119  0.3298
 5561WAT    EPW22966   4.277   1.499   3.331 -0.6530  0.2301  0.2655
 5562WAT      O22967   0.843   6.636   3.841 -0.1080 -0.3495  0.5160
 5562WAT     H122968   0.806   6.692   3.896  1.2940  1.3947 -0.1886
 5562WAT     H222969   0.906   6.684   3.803  0.2583 -2.0245 -1.1475
 5562WAT    EPW22970   0.847   6.652   3.843  0.1532 -0.3393  0.1662
 5563WAT      O22971   3.158   2.490   6.764 -0.0395  0.5127  0.5429
 5563WAT     H122972   3.077   2.457   6.762  0.2536 -0.1793 -1.0261
 5563WAT     H222973   3.148   2.566   6.807 -1.5237  0.4838  0.2981
 5563WAT    EPW22974   3.145   2.497   6.770 -0.2154  0.4062  0.2749
 5564WAT      O22975   1.771   0.932   2.610  0.0356 -0.0466 -0.2344
 5564WAT     H122976   1.709   0.913   2.668 -0.0209  0.6121 -0.0750
 5564WAT     H222977   1.819   0.993   2.650 -0.0924  0.5197 -0.9324
 5564WAT    EPW22978   1.769   0.938   2.625  0.0083  0.1344 -0.3140
 5565WAT      O22979   3.408   0.535   4.061  0.1637  0.3375 -0.0244
 5565WAT     H122980   3.390   0.456   4.092  0.0554  0.3705 -0.0025
 5565WAT     H222981   3.482   0.524   4.016  0.2707  0.2703  0.1671
 5565WAT    EPW22982   3.416   0.522   4.059  0.1635  0.3325  0.0071
 5566WAT      O22983   2.756   4.158   5.087 -0.1623  0.2188 -0.3546
 5566WAT     H122984   2.827   4.114   5.113 -0.3929 -0.3346 -0.6502
 5566WAT     H222985   2.789   4.231   5.053  0.2714 -0.0166 -0.4505
 5566WAT    EPW22986   2.771   4.162   5.086 -0.1323  0.1023 -0.4124
 5567WAT      O22987   6.340   1.924   3.259  0.6804 -0.4265  0.0911
 5567WAT     H122988   6.383   1.849   3.251  0.0998 -0.6478 -1.1581
 5567WAT     H222989   6.269   1.902   3.305 -1.5120 -1.6164 -3.4127
 5567WAT    EPW22990   6.336   1.910   3.265  0.2708 -0.6350 -0.6110
 5568WAT      O22991   4.083   6.624   5.499 -1.0619 -0.0268  0.1200
 5568WAT     H122992   4.113   6.548   5.529  0.6398  0.8984  0.9348
 5568WAT     H222993   4.102   6.681   5.563 -1.0448  1.2963 -1.0019
 5568WAT    EPW22994   4.090   6.621   5.513 -0.8080  0.3053  0.0746
 5569WAT      O22995   6.064   2.441   2.825 -0.1434 -0.0601  0.1065
 5569WAT     H122996   6.049   2.486   2.898 -1.6124  0.0838 -0.2495
 5569WAT     H222997   6.077   2.359   2.853  0.3951  0.1824  0.5937
 5569WAT    EPW22998   6.064   2.435   2.840 -0.2809 -0.0030  0.1259
 5570WAT      O22999   2.789   6.619   6.218 -0.7741 -0.6592 -0.0307
 5570WAT     H123000   2.732   6.648   6.277 -0.0176  0.2665  0.2838
 5570WAT     H223001   2.804   6.536   6.241 -0.9428 -0.4830  0.7132
 5570WAT    EPW23002   2.783   6.611   6.230 -0.6872 -0.4965  0.1256
 5571WAT      O23003   6.523   4.092   1.619  0.3904  0.3995 -0.3970
 5571WAT     H123004   6.555   4.012   1.607 -0.6398 -0.0383 -0.2413
 5571WAT     H223005   6.449   4.093   1.573 -0.6333  0.5940  1.1874
 5571WAT    EPW23006   6.517   4.080   1.610  0.0870  0.3635 -0.1400
 5572WAT      O23007   2.283   5.451   4.116  0.0632  0.0343  0.3512
 5572WAT     H123008   2.337   5.392   4.082  0.8360  0.6922  0.4150
 5572WAT     H223009   2.216   5.453   4.060 -0.1990 -1.2300  0.5941
 5572WAT    EPW23010   2.281   5.443   4.103  0.1387 -0.0553  0.3965
 5573WAT      O23011   2.295   4.312   0.282 -0.1356  0.2364  0.1134
 5573WAT     H123012   2.323   4.230   0.293 -2.0643 -0.4604  0.2278
 5573WAT     H223013   2.241   4.306   0.214  0.7069  1.7108 -0.7447
 5573WAT    EPW23014   2.291   4.299   0.274 -0.2960  0.3512  0.0036
 5574WAT      O23015   4.640   4.370   2.407  1.3370  0.0921  0.5702
 5574WAT     H123016   4.638   4.410   2.329 -0.3191 -0.6548  0.1789
 5574WAT     H223017   4.718   4.392   2.439  1.1554  2.3007 -0.2986
 5574WAT    EPW23018   4.651   4.379   2.400  1.0655  0.3080  0.3840
 5575WAT      O23019   5.068   4.527   3.101 -0.4017  0.3611  0.7649
 5575WAT     H123020   5.002   4.540   3.157 -0.0915  0.6626  1.0679
 5575WAT     H223021   5.051   4.449   3.066 -0.5633  0.1362  1.3338
 5575WAT    EPW23022   5.056   4.517   3.104 -0.3797  0.3724  0.8937
 5576WAT      O23023   3.895   5.574   5.636 -0.4867  0.2661  0.5021
 5576WAT     H123024   3.835   5.514   5.618 -1.1124  1.1357 -0.3644
 5576WAT     H223025   3.893   5.579   5.724  0.3125 -1.6824  0.6731
 5576WAT    EPW23026   3.886   5.566   5.647 -0.4610  0.1067  0.3994
 5577WAT      O23027   4.700   3.560   3.346 -0.0416  0.0574 -0.6711
 5577WAT     H123028   4.631   3.528   3.303  0.3000 -0.8310 -0.5862
 5577WAT     H223029   4.711   3.502   3.411  0.8303  0.1388 -0.7380
 5577WAT    EPW23030   4.692   3.546   3.349  0.1377 -0.0618 -0.6684
 5578WAT      O23031   0.941   3.815   1.591  0.0518  0.2216 -0.1011
 5578WAT     H123032   0.987   3.766   1.535  0.5632 -1.2405  1.4989
 5578WAT     H223033   1.002   3.862   1.632  0.0828 -0.9152  1.2581
 5578WAT    EPW23034   0.957   3.815   1.589  0.1319 -0.1623  0.3360
 5579WAT      O23035   5.151   0.759   4.532 -0.3184 -0.1546  0.0275
 5579WAT     H123036   5.104   0.818   4.489 -1.2064 -0.7606  0.1538
 5579WAT     H223037   5.099   0.735   4.598  0.4479 -0.3023  0.5943
 5579WAT    EPW23038   5.137   0.764   4.536 -0.3364 -0.2659  0.1299
 5580WAT      O23039   0.507   2.281   0.263  0.1277 -0.3269  0.4732
 5580WAT     H123040   0.543   2.220   0.313 -0.8526 -1.0503  0.3274
 5580WAT     H223041   0.425   2.253   0.252  0.5789 -0.8141 -2.4695
 5580WAT    EPW23042   0.500   2.268   0.269  0.0496 -0.5057  0.0169
 5581WAT      O23043   2.639   1.029   6.722  0.0058 -0.6703  0.1136
 5581WAT     H123044   2.553   1.023   6.708 -0.3973 -0.7481  2.3225
 5581WAT     H223045   2.671   0.959   6.682 -1.1348 -1.3544  0.3531
 5581WAT    EPW23046   2.631   1.018   6.714 -0.2222 -0.7828  0.4752
 5582WAT      O23047   2.528   5.445   5.804  0.6831  0.3898 -0.0354
 5582WAT     H123048   2.469   5.480   5.858  0.3095  1.3061 -0.9976
 5582WAT     H223049   2.506   5.360   5.802  0.0338  0.5422  0.4080
 5582WAT    EPW23050   2.516   5.437   5.811  0.5320  0.5477 -0.1120
 5583WAT      O23051   7.288   6.273   0.046 -0.1090  0.7888  0.1773
 5583WAT     H123052   7.322   6.221  -0.015 -0.2248 -1.1049  1.6212
 5583WAT     H223053   7.203   6.271   0.030 -0.2125 -0.2788  0.7811
 5583WAT    EPW23054   7.281   6.265   0.035 -0.1414  0.3514  0.4798
 5584WAT      O23055   0.301   0.944   1.578  0.1140  0.1132  0.3677
 5584WAT     H123056   0.320   0.912   1.657  1.2327  1.3449  0.6256
 5584WAT     H223057   0.334   0.884   1.523 -1.1196 -1.0138  0.7756
 5584WAT    EPW23058   0.309   0.930   1.582  0.0970  0.1286  0.4661
 5585WAT      O23059   4.852   5.237   0.722  0.0969 -0.0630 -0.1117
 5585WAT     H123060   4.931   5.204   0.710  0.3053 -0.3572  1.7341
 5585WAT     H223061   4.806   5.170   0.753 -1.4944 -0.4493 -2.9542
 5585WAT    EPW23062   4.857   5.222   0.725 -0.1074 -0.1635 -0.2589
 5586WAT      O23063   0.033   7.112   5.714  0.1795  0.0663  0.4838
 5586WAT     H123064   0.095   7.072   5.761 -1.1648 -1.9144  0.6922
 5586WAT     H223065   0.059   7.101   5.632  0.5710  0.1159  0.5978
 5586WAT    EPW23066   0.046   7.105   5.709  0.0387 -0.2190  0.5314
 5587WAT      O23067   7.159   5.278   3.934 -0.3215  0.7111  0.5180
 5587WAT     H123068   7.226   5.234   3.900 -0.0194 -0.0619  1.9882
 5587WAT     H223069   7.145   5.343   3.878  1.1851  0.4563 -0.1907
 5587WAT    EPW23070   7.167   5.281   3.921 -0.0543  0.5593  0.6305
 5588WAT      O23071   4.462   2.461   3.845  0.6948 -0.2123  1.0195
 5588WAT     H123072   4.393   2.421   3.880 -0.0486 -0.8700 -1.0393
 5588WAT     H223073   4.495   2.508   3.911  0.3276 -2.5319  2.9963
 5588WAT    EPW23074   4.457   2.462   3.860  0.5307 -0.6521  1.0074
 5589WAT      O23075   3.498   2.410   2.015 -0.2630  0.2063 -1.2240
 5589WAT     H123076   3.490   2.381   1.933 -0.2880  0.0693 -1.1735
 5589WAT     H223077   3.462   2.347   2.062 -1.6416  0.9820 -1.2073
 5589WAT    EPW23078   3.492   2.396   2.010 -0.4703  0.3007 -1.2141
 5590WAT      O23079   0.818   2.252   4.835 -0.2463  0.4678 -0.2754
 5590WAT     H123080   0.774   2.323   4.860  0.1681  1.1450 -1.3787
 5590WAT     H223081   0.793   2.191   4.892  2.2685  2.3687  3.2437
 5590WAT    EPW23082   0.808   2.254   4.847  0.1864  0.8487  0.0815
 5591WAT      O23083   1.841   3.575   4.386  0.1544  0.0280 -0.1328
 5591WAT     H123084   1.897   3.565   4.320 -1.1456 -0.9882 -1.1523
 5591WAT     H223085   1.817   3.659   4.379  1.5420  0.5019  0.3729
 5591WAT    EPW23086   1.846   3.586   4.375  0.1673 -0.0521 -0.2087
 5592WAT      O23087   2.270   6.643   3.127  0.0522  0.0289 -0.5865
 5592WAT     H123088   2.315   6.595   3.070  2.9061  0.1190  1.3381
 5592WAT     H223089   2.194   6.658   3.087  0.8730 -2.0422 -3.2075
 5592WAT    EPW23090   2.266   6.638   3.113  0.5951 -0.2637 -0.6893
 5593WAT      O23091   0.206   0.833   0.114  0.3972  0.0176  0.5647
 5593WAT     H123092   0.132   0.845   0.069  0.4606 -1.4980 -0.0145
 5593WAT     H223093   0.269   0.858   0.059  0.4997 -2.1825 -0.4342
 5593WAT    EPW23094   0.204   0.838   0.100  0.4217 -0.5313  0.3316
 5594WAT      O23095   3.521   3.498  -0.001 -0.1343  0.6390  0.1928
 5594WAT     H123096   3.584   3.439   0.014  0.3218  1.5776  2.4385
 5594WAT     H223097   3.552   3.571   0.036 -1.7889  1.5974 -0.2079
 5594WAT    EPW23098   3.535   3.500   0.007 -0.3114  0.9192  0.4654
 5595WAT      O23099   5.305   1.655   3.330 -0.3894 -0.2304 -0.0782
 5595WAT     H123100   5.380   1.653   3.375  0.3890 -0.1924 -1.3176
 5595WAT     H223101   5.272   1.734   3.347  0.0546 -0.0967  0.1616
 5595WAT    EPW23102   5.311   1.666   3.339 -0.2088 -0.2051 -0.2259
 5596WAT      O23103   4.660   6.776   6.434 -0.1095 -0.3822  0.1189
 5596WAT     H123104   4.592   6.811   6.475 -0.0700  0.7193 -0.7259
 5596WAT     H223105   4.706   6.845   6.406  1.8786 -1.0468  1.4522
 5596WAT    EPW23106   4.657   6.791   6.436  0.1901 -0.3177  0.1911
 5597WAT      O23107   2.194   3.051   4.309  0.2413  0.4982 -0.3119
 5597WAT     H123108   2.207   3.076   4.227 -0.2196  1.1657 -0.1915
 5597WAT     H223109   2.262   3.085   4.352  0.5510  0.0405 -0.4293
 5597WAT    EPW23110   2.206   3.060   4.303  0.2190  0.5292 -0.3115
 5598WAT      O23111   6.332   1.911   3.624  0.2127  0.0139 -0.0274
 5598WAT     H123112   6.278   1.848   3.650  0.1777  0.1151  0.1500
 5598WAT     H223113   6.283   1.983   3.629 -0.6343 -0.2272 -2.8134
 5598WAT    EPW23114   6.316   1.912   3.628  0.0824 -0.0068 -0.4128
 5599WAT      O23115   6.423   4.183   0.864 -0.1054  0.4591  0.1660
 5599WAT     H123116   6.342   4.155   0.848  0.1301 -0.2444  0.1773
 5599WAT     H223117   6.470   4.145   0.801  0.7630 -1.9058  2.0766
 5599WAT    EPW23118   6.418   4.173   0.852  0.0577  0.0059  0.4499
 5600WAT      O23119   5.067   2.885   0.627  0.2387 -0.0819  0.1043
 5600WAT     H123120   5.146   2.913   0.604  0.0016 -1.6536 -3.3357
 5600WAT     H223121   5.016   2.956   0.616  0.9931  0.7582  1.7139
 5600WAT    EPW23122   5.071   2.900   0.622  0.3151 -0.1900 -0.1661
 5601WAT      O23123   2.698   3.759   1.565  0.4194  0.0164 -0.3775
 5601WAT     H123124   2.740   3.727   1.495 -0.7786 -1.1630 -0.5945
 5601WAT     H223125   2.644   3.695   1.587  1.0573  0.1911  1.9255
 5601WAT    EPW23126   2.697   3.745   1.558  0.3367 -0.1320 -0.0694
 5602WAT      O23127   6.124   6.366   2.388  0.0732 -0.4990  0.1218
 5602WAT     H123128   6.140   6.425   2.325  0.4354 -1.5532 -0.8076
 5602WAT     H223129   6.203   6.338   2.411 -0.1273 -1.3605 -0.1913
 5602WAT    EPW23130   6.138   6.371   2.382  0.0971 -0.7820 -0.0617
 5603WAT      O23131   3.737   2.055   3.898 -0.5129  0.1362 -0.6175
 5603WAT     H123132   3.783   1.998   3.851 -0.1919 -1.1541  1.1675
 5603WAT     H223133   3.797   2.111   3.927 -0.4201 -0.1587 -0.2335
 5603WAT    EPW23134   3.752   2.055   3.896 -0.4518 -0.0979 -0.2971
 5604WAT      O23135   5.561   6.935   5.627 -0.1274  0.2785  0.5096
 5604WAT     H123136   5.623   6.876   5.641 -1.2417 -0.8943  0.7273
 5604WAT     H223137   5.563   6.947   5.541  1.9020  2.0223  0.7214
 5604WAT    EPW23138   5.570   6.928   5.617  0.0078  0.3628  0.5730
 5605WAT      O23139   1.210   3.236   5.441 -0.1834 -0.2657  0.3842
 5605WAT     H123140   1.202   3.184   5.372  1.3831 -1.6043  1.1443
 5605WAT     H223141   1.231   3.314   5.407 -0.7216 -0.5754 -0.6832
 5605WAT    EPW23142   1.212   3.240   5.426 -0.0315 -0.5092  0.3388
 5606WAT      O23143   5.222   1.090   1.378  0.1666 -0.5978  0.2883
 5606WAT     H123144   5.195   1.052   1.304 -0.8967 -0.3054  0.5110
 5606WAT     H223145   5.157   1.075   1.434 -0.5213  1.8832  0.2697
 5606WAT    EPW23146   5.208   1.082   1.375 -0.0921 -0.1881  0.3184
 5607WAT      O23147   0.775   3.122   6.733 -0.4455  0.6159  0.0934
 5607WAT     H123148   0.730   3.047   6.732  1.9285 -0.9440  1.1245
 5607WAT     H223149   0.753   3.159   6.809 -1.3639  0.8388 -0.2665
 5607WAT    EPW23150   0.765   3.117   6.744 -0.2305  0.4184  0.1925
 5608WAT      O23151   4.569   2.787   1.901  0.0341  0.5262  0.2862
 5608WAT     H123152   4.602   2.707   1.917  0.1535  0.0134 -2.1390
 5608WAT     H223153   4.632   2.840   1.929  0.9109 -0.3258  0.0178
 5608WAT    EPW23154   4.584   2.783   1.907  0.1813  0.3246 -0.1117
 5609WAT      O23155   3.594   2.182   4.169 -0.2116  0.1555 -0.1505
 5609WAT     H123156   3.602   2.107   4.127  2.5521  1.1650 -1.6756
 5609WAT     H223157   3.562   2.236   4.109  0.8984  0.9205 -0.0785
 5609WAT    EPW23158   3.591   2.179   4.154  0.3606  0.4176 -0.3652
 5610WAT      O23159   4.015   5.107   5.343 -0.0423 -0.4928 -0.4631
 5610WAT     H123160   3.996   5.133   5.262 -0.0616 -1.7908 -0.9028
 5610WAT     H223161   3.998   5.178   5.392  0.5675  0.5098 -1.6469
 5610WAT    EPW23162   4.009   5.121   5.338  0.0449 -0.5365 -0.7029
 5611WAT      O23163   3.634   0.691   1.081  0.1006 -0.2219  0.5361
 5611WAT     H123164   3.695   0.634   1.055  0.1747  0.5052 -0.9433
 5611WAT     H223165   3.623   0.743   1.012 -1.9228 -0.0869  0.8890
 5611WAT    EPW23166   3.641   0.690   1.067 -0.1873 -0.0945  0.3697
 5612WAT      O23167   3.569   6.489   0.751  0.2033  0.1977 -0.8846
 5612WAT     H123168   3.525   6.556   0.716  0.1769  0.1766 -0.8910
 5612WAT     H223169   3.521   6.420   0.729 -1.6146  0.4156  1.8899
 5612WAT    EPW23170   3.556   6.489   0.742 -0.0692  0.2268 -0.4757
 5613WAT      O23171   4.789   5.260   3.380  0.1486  0.3453  0.3641
 5613WAT     H123172   4.711   5.228   3.402 -0.6371  1.3985 -0.7577
 5613WAT     H223173   4.823   5.198   3.329 -0.3464  0.2704  0.1215
 5613WAT    EPW23174   4.782   5.246   3.376 -0.0406  0.4898  0.1625
 5614WAT      O23175   5.275   4.942   3.167 -0.0745  0.0338  0.2053
 5614WAT     H123176   5.297   4.991   3.098  0.5088 -0.9823 -0.3557
 5614WAT     H223177   5.270   4.861   3.134 -0.9094 -0.3137  1.1327
 5614WAT    EPW23178   5.277   4.937   3.152 -0.1117 -0.1677  0.2595
 5615WAT      O23179   6.269   6.389   6.838  0.4040  0.5730  0.5398
 5615WAT     H123180   6.264   6.368   6.922  0.7925  1.5033  0.8003
 5615WAT     H223181   6.262   6.312   6.797 -1.8344  0.2717  1.3295
 5615WAT    EPW23182   6.267   6.375   6.844  0.1308  0.6659  0.6949
 5616WAT      O23183   3.235   1.483   6.119 -0.9932  0.0857 -0.3939
 5616WAT     H123184   3.246   1.419   6.060 -1.6754 -0.6344  0.2247
 5616WAT     H223185   3.149   1.482   6.133 -1.2525  2.1753 -1.4696
 5616WAT    EPW23186   3.224   1.473   6.112 -1.1323  0.2880 -0.4614
 5617WAT      O23187   4.907   1.385   2.417  0.4572  0.0159  0.2981
 5617WAT     H123188   4.934   1.303   2.432  2.5664  0.1745 -2.0520
 5617WAT     H223189   4.827   1.373   2.384  1.2856 -1.3011 -1.4155
 5617WAT    EPW23190   4.899   1.371   2.415  0.8911 -0.1553 -0.3022
 5618WAT      O23191   6.419   1.862   4.879 -0.4727  0.0180  0.3175
 5618WAT     H123192   6.387   1.820   4.810  1.3659  0.4694 -0.8884
 5618WAT     H223193   6.389   1.816   4.947 -1.0860 -1.3484 -0.8279
 5618WAT    EPW23194   6.410   1.849   4.879 -0.2917 -0.1172 -0.0298
 5619WAT      O23195   3.675   1.294   7.191  0.0850 -0.5436  0.0669
 5619WAT     H123196   3.672   1.329   7.111  0.4285 -0.1215  0.2361
 5619WAT     H223197   3.593   1.301   7.220 -0.0991 -0.9319 -0.3429
 5619WAT    EPW23198   3.662   1.300   7.183  0.1085 -0.5386  0.0314
 5620WAT      O23199   3.054   3.334   6.977  0.3724 -0.2253 -0.3292
 5620WAT     H123200   2.967   3.324   6.973  0.2450  1.1092 -2.0910
 5620WAT     H223201   3.078   3.279   7.041 -1.6668 -1.1783 -0.3026
 5620WAT    EPW23202   3.044   3.324   6.986  0.0523 -0.1689 -0.5855
 5621WAT      O23203   0.399   0.590   2.073  0.9879 -0.0947  0.4115
 5621WAT     H123204   0.463   0.628   2.029  0.9941  0.3219  0.7734
 5621WAT     H223205   0.408   0.622   2.154 -0.2746  0.7427  0.2437
 5621WAT    EPW23206   0.410   0.601   2.078  0.8023  0.0905  0.4401
 5622WAT      O23207   1.534   6.088   1.350 -0.0274  0.0721 -0.2729
 5622WAT     H123208   1.492   6.016   1.324  1.2187 -0.0202 -2.3002
 5622WAT     H223209   1.508   6.148   1.293 -0.8937  1.2520  1.2770
 5622WAT    EPW23210   1.524   6.086   1.338  0.0287  0.2327 -0.3434
 5623WAT      O23211   4.617   6.038   3.193 -0.6138 -0.2871 -1.0042
 5623WAT     H123212   4.675   6.021   3.256  0.0507  2.6280 -0.7011
 5623WAT     H223213   4.667   6.053   3.123 -0.5927  4.0974 -0.3360
 5623WAT    EPW23214   4.633   6.038   3.192 -0.5125  0.7912 -0.8607
 5624WAT      O23215   2.062   7.040   5.805  0.3527 -0.4640 -0.0435
 5624WAT     H123216   2.060   7.110   5.752  2.7219 -0.7615 -0.6542
 5624WAT     H223217   2.001   7.057   5.864 -1.3781  0.5963 -2.0110
 5624WAT    EPW23218   2.053   7.053   5.806  0.4470 -0.3513 -0.4243
 5625WAT      O23219   6.008   5.628   4.730  0.5243 -0.7595  0.2496
 5625WAT     H123220   5.989   5.555   4.686 -0.1394  0.1962 -1.1276
 5625WAT     H223221   6.094   5.636   4.721  0.3610 -0.3406 -1.3802
 5625WAT    EPW23222   6.018   5.619   4.722  0.4022 -0.5564 -0.1946
 5626WAT      O23223   5.908   3.291   1.597 -0.2412 -0.1405  0.1333
 5626WAT     H123224   5.968   3.228   1.598  0.8865  0.7469 -2.4979
 5626WAT     H223225   5.955   3.364   1.612 -0.7019  0.4971 -1.3107
 5626WAT    EPW23226   5.924   3.293   1.600 -0.1427  0.0848 -0.4687
 5627WAT      O23227   0.741   0.879   1.614 -0.5103  0.1081  0.0265
 5627WAT     H123228   0.812   0.891   1.663 -0.8749 -1.1586  0.9312
 5627WAT     H223229   0.704   0.958   1.611  0.2997  0.5219  0.5566
 5627WAT    EPW23230   0.746   0.892   1.621 -0.4445 -0.0179  0.2384
 5628WAT      O23231   3.590   2.811   5.312 -0.2892  0.4429  0.9156
 5628WAT     H123232   3.507   2.819   5.284  0.0143  0.1802 -0.1136
 5628WAT     H223233   3.636   2.843   5.246  0.4563  0.1756  1.3021
 5628WAT    EPW23234   3.584   2.817   5.298 -0.1343  0.3646  0.8207
 5629WAT      O23235   0.562   1.849   7.271 -0.8575  0.0359 -0.0637
 5629WAT     H123236   0.646   1.873   7.270 -0.3982 -1.0526  2.5484
 5629WAT     H223237   0.520   1.924   7.285 -0.1393  0.3583  0.4237
 5629WAT    EPW23238   0.568   1.864   7.273 -0.6836 -0.0773  0.3942
 5630WAT      O23239   2.169   2.311   5.066 -0.7223  0.4537 -0.2469
 5630WAT     H123240   2.125   2.376   5.027  1.4528  2.4725  0.4451
 5630WAT     H223241   2.231   2.352   5.111  0.5054 -2.1266  0.6082
 5630WAT    EPW23242   2.171   2.327   5.067 -0.2197  0.3708 -0.0184
 5631WAT      O23243   5.409   4.288   3.355  0.7795 -0.2166 -0.6521
 5631WAT     H123244   5.440   4.224   3.407 -2.2909 -1.0320  0.4131
 5631WAT     H223245   5.443   4.360   3.390  0.1406 -0.8877  1.5206
 5631WAT    EPW23246   5.419   4.289   3.368  0.2316 -0.4362 -0.1738
 5632WAT      O23247   2.357   1.040   4.289 -0.8608  0.4649 -0.3250
 5632WAT     H123248   2.410   0.972   4.281 -0.2316  0.9104 -0.0571
 5632WAT     H223249   2.411   1.109   4.286 -1.5822  1.0288 -1.9085
 5632WAT    EPW23250   2.373   1.040   4.287 -0.8744  0.6140 -0.5193
 5633WAT      O23251   6.336   4.282   0.198 -0.0117 -0.4388  0.3450
 5633WAT     H123252   6.333   4.339   0.264 -1.5958  1.6969 -1.3911
 5633WAT     H223253   6.386   4.323   0.138 -1.3723 -0.6927 -1.0328
 5633WAT    EPW23254   6.343   4.297   0.199 -0.4467 -0.1609 -0.1150
 5634WAT      O23255   0.447   2.216   4.871  0.1933  0.0422 -0.3626
 5634WAT     H123256   0.396   2.170   4.925  1.9329  0.9455  2.2016
 5634WAT     H223257   0.521   2.170   4.868  1.0947  1.3990  0.2860
 5634WAT    EPW23258   0.450   2.202   4.879  0.5834  0.3760  0.1120
 5635WAT      O23259   5.894   1.895   1.278 -0.1375 -0.3116  0.5164
 5635WAT     H123260   5.979   1.884   1.290 -0.0533 -0.1461  0.0964
 5635WAT     H223261   5.862   1.900   1.359  0.8286  4.0550  0.8907
 5635WAT    EPW23262   5.902   1.894   1.291  0.0177  0.3579  0.5096
 5636WAT      O23263   3.686   0.700   2.761 -0.0977 -0.2159 -0.6858
 5636WAT     H123264   3.762   0.732   2.790 -1.8826  1.7505  2.4563
 5636WAT     H223265   3.637   0.771   2.747 -2.0234 -1.4151 -0.4830
 5636WAT    EPW23266   3.690   0.715   2.764 -0.6459 -0.1026 -0.1917
 5637WAT      O23267   3.292   3.259   5.508  0.1177  0.1454  0.2527
 5637WAT     H123268   3.204   3.255   5.506 -0.0838  2.6112 -0.5866
 5637WAT     H223269   3.315   3.214   5.437 -0.7010  1.5451 -0.9748
 5637WAT    EPW23270   3.282   3.252   5.497 -0.0330  0.7164 -0.0526
 5638WAT      O23271   1.960   1.945   4.840  0.1624 -0.6212  0.9062
 5638WAT     H123272   1.987   1.996   4.905  1.6731 -0.0719 -0.1177
 5638WAT     H223273   1.941   2.001   4.776 -1.1922 -1.1650  0.7908
 5638WAT    EPW23274   1.961   1.961   4.840  0.1854 -0.6204  0.7379
 5639WAT      O23275   6.093   2.989   4.683 -0.1184  0.0347  0.2439
 5639WAT     H123276   6.115   3.026   4.759  0.1950  2.4828 -0.9415
 5639WAT     H223277   6.169   2.958   4.653  0.3306  1.5935 -0.3158
 5639WAT    EPW23278   6.108   2.990   4.690 -0.0058  0.6266 -0.0139
 5640WAT      O23279   3.817   5.540   2.027  0.0057 -0.1874  0.1242
 5640WAT     H123280   3.734   5.529   2.002  0.2956  0.6093 -1.3343
 5640WAT     H223281   3.848   5.458   2.031 -0.3813 -0.4315 -1.1768
 5640WAT    EPW23282   3.810   5.526   2.024 -0.0086 -0.1058 -0.2834
 5641WAT      O23283   0.349   5.807   5.999 -0.0227  1.3911 -0.4981
 5641WAT     H123284   0.393   5.809   6.074 -0.7500  1.3410 -0.0656
 5641WAT     H223285   0.381   5.876   5.955  2.3638 -0.1013 -1.3018
 5641WAT    EPW23286   0.360   5.817   6.003  0.2224  1.1632 -0.5530
 5642WAT      O23287   5.271   3.900   2.312  0.2992 -0.0877 -0.4382
 5642WAT     H123288   5.316   3.935   2.377  2.9196 -2.4195 -0.8004
 5642WAT     H223289   5.289   3.952   2.244  1.3993 -0.2371 -0.2787
 5642WAT    EPW23290   5.280   3.913   2.312  0.8488 -0.4542 -0.4681
 5643WAT      O23291   4.744   6.657   6.775 -0.4939 -0.3237 -0.9145
 5643WAT     H123292   4.782   6.610   6.838  0.6941  1.9895  0.2368
 5643WAT     H223293   4.660   6.660   6.799 -0.1046  0.3096  0.5067
 5643WAT    EPW23294   4.738   6.651   6.788 -0.2609  0.1116 -0.5345
 5644WAT      O23295   1.229   3.741   2.210 -0.3824 -0.0769  0.1684
 5644WAT     H123296   1.278   3.672   2.189  0.2018  0.4908 -0.3551
 5644WAT     H223297   1.287   3.799   2.242 -0.2573  1.5802 -2.7405
 5644WAT    EPW23298   1.245   3.740   2.212 -0.2777  0.2517 -0.3386
 5645WAT      O23299   2.123   3.895   5.616 -0.0171  0.9562  0.3050
 5645WAT     H123300   2.053   3.860   5.653 -1.2056  0.5201 -2.1752
 5645WAT     H223301   2.175   3.827   5.602  0.1071  1.0131  0.4825
 5645WAT    EPW23302   2.121   3.880   5.619 -0.1743  0.9002 -0.0352
 5646WAT      O23303   3.231   5.781   4.698 -0.4245 -0.5226  0.5897
 5646WAT     H123304   3.190   5.858   4.696 -1.7922 -1.1571  2.1546
 5646WAT     H223305   3.237   5.763   4.783  1.5348 -1.3235  0.3421
 5646WAT    EPW23306   3.226   5.790   4.710 -0.3371 -0.7346  0.7843
 5647WAT      O23307   4.619   4.549   2.720 -0.1147 -0.1165 -0.3286
 5647WAT     H123308   4.567   4.480   2.724  0.1524 -0.2424  1.8673
 5647WAT     H223309   4.696   4.519   2.748 -0.2404  1.2372  1.6492
 5647WAT    EPW23310   4.623   4.534   2.725 -0.0938  0.0649  0.2879
 5648WAT      O23311   0.503   7.197   0.694  0.2763  0.0267  0.7749
 5648WAT     H123312   0.483   7.211   0.610 -0.5374  0.9642  1.0986
 5648WAT     H223313   0.544   7.120   0.693 -0.9455 -0.6513 -0.3139
 5648WAT    EPW23314   0.506   7.188   0.682 -0.0244  0.0650  0.6618
 5649WAT      O23315   5.372   7.004   2.608 -0.3355 -0.7009 -0.7359
 5649WAT     H123316   5.446   7.025   2.650 -0.8142 -0.5563  0.0530
 5649WAT     H223317   5.313   6.998   2.672 -0.9157 -1.2558 -1.3070
 5649WAT    EPW23318   5.374   7.006   2.624 -0.4919 -0.7615 -0.7038
 5650WAT      O23319   2.166   1.342   5.998  0.2571 -0.0944  0.1381
 5650WAT     H123320   2.093   1.349   6.047  0.6936  2.6289  0.5887
 5650WAT     H223321   2.205   1.271   6.030 -1.4266 -0.7212  0.9531
 5650WAT    EPW23322   2.161   1.333   6.010  0.0729  0.2153  0.3250
 5651WAT      O23323   6.058   1.134   4.947 -0.7342 -0.0562 -0.4512
 5651WAT     H123324   6.000   1.130   4.882 -0.2820 -0.3407 -0.8383
 5651WAT     H223325   6.034   1.068   4.999 -0.5809 -0.3572 -0.7608
 5651WAT    EPW23326   6.046   1.123   4.945 -0.6447 -0.1427 -0.5541
 5652WAT      O23327   5.622   0.232   6.080 -0.8592  0.1796 -0.0867
 5652WAT     H123328   5.610   0.236   6.166  0.2555  0.4242  0.0678
 5652WAT     H223329   5.695   0.277   6.067  0.0165 -1.4008 -0.9378
 5652WAT    EPW23330   5.631   0.239   6.091 -0.5652 -0.0177 -0.1896
 5653WAT      O23331   5.497   4.056   0.462 -0.4818  0.4622 -0.8176
 5653WAT     H123332   5.416   4.085   0.445 -1.2985 -0.5354  1.0219
 5653WAT     H223333   5.530   4.118   0.514 -0.4957  0.3517 -0.6749
 5653WAT    EPW23334   5.490   4.070   0.467 -0.6045  0.2985 -0.5248
 5654WAT      O23335   1.557   0.548   2.910  0.2712 -0.1029 -0.4206
 5654WAT     H123336   1.564   0.618   2.858 -0.9875 -0.4440 -1.0941
 5654WAT     H223337   1.479   0.557   2.947  0.0193 -1.2251 -0.6432
 5654WAT    EPW23338   1.547   0.559   2.908  0.0481 -0.3191 -0.5530
 5655WAT      O23339   4.474   1.148   6.174  0.1313  0.1227 -0.2935
 5655WAT     H123340   4.457   1.111   6.097  0.8753  0.9450 -0.8723
 5655WAT     H223341   4.555   1.178   6.165 -0.0291  0.8557  0.5611
 5655WAT    EPW23342   4.483   1.147   6.162  0.2175  0.3524 -0.2528
 5656WAT      O23343   6.148   2.439   7.214  0.3455  0.3570 -0.2667
 5656WAT     H123344   6.147   2.526   7.206  0.9013  0.6421  1.9598
 5656WAT     H223345   6.188   2.426   7.291 -1.0769 -1.7965  0.2141
 5656WAT    EPW23346   6.154   2.450   7.224  0.2175  0.0810  0.1332
 5657WAT      O23347   3.167   6.457   7.313 -0.2583 -0.2325 -0.0821
 5657WAT     H123348   3.230   6.511   7.339 -1.5326  0.8346  0.8983
 5657WAT     H223349   3.131   6.430   7.388 -2.5875  1.1958 -0.5852
 5657WAT    EPW23350   3.171   6.461   7.328 -0.7906  0.1362 -0.0116
 5658WAT      O23351   5.247   3.681   0.973 -0.2396  0.8205 -0.3368
 5658WAT     H123352   5.218   3.654   0.895 -0.2806  0.6752 -0.2714
 5658WAT     H223353   5.222   3.618   1.027 -1.1863  1.4540 -0.0221
 5658WAT    EPW23354   5.239   3.668   0.969 -0.3855  0.8926 -0.2807
 5659WAT      O23355   5.918   2.856   6.524 -0.1900  0.0476  0.1192
 5659WAT     H123356   5.851   2.806   6.498  0.2805 -1.5875  1.7650
 5659WAT     H223357   5.903   2.866   6.610  1.3876  0.0548  0.4232
 5659WAT    EPW23358   5.906   2.850   6.533  0.1125 -0.1929  0.4072
 5660WAT      O23359   5.613   5.466   4.655  0.0355  0.2562  0.5292
 5660WAT     H123360   5.549   5.508   4.696 -0.0849 -0.2846  0.8974
 5660WAT     H223361   5.600   5.382   4.676  0.4315  0.0611  0.0175
 5660WAT    EPW23362   5.602   5.460   4.664  0.0762  0.1475  0.5080
 5661WAT      O23363   4.516   5.806   2.157  0.0509  0.3271 -0.1861
 5661WAT     H123364   4.440   5.778   2.188  1.3310 -1.2672  1.7452
 5661WAT     H223365   4.539   5.745   2.099  1.0169 -0.6923  1.1825
 5661WAT    EPW23366   4.508   5.793   2.153  0.3827 -0.0590  0.3013
 5662WAT      O23367   1.318   3.116   3.000 -0.0178  0.0635 -0.4987
 5662WAT     H123368   1.253   3.137   2.946 -0.5375 -0.4878 -0.0946
 5662WAT     H223369   1.302   3.033   3.022  0.4497  0.1244  0.1201
 5662WAT    EPW23370   1.306   3.107   2.995 -0.0255 -0.0090 -0.3476
 5663WAT      O23371   2.676   2.515   4.411 -0.4000 -0.1923  0.4264
 5663WAT     H123372   2.736   2.465   4.448  0.3342 -0.3716 -0.9352
 5663WAT     H223373   2.623   2.457   4.371 -0.6212  0.0359  0.3838
 5663WAT    EPW23374   2.677   2.499   4.410 -0.3242 -0.1851  0.2190
 5664WAT      O23375   5.196   5.147   6.646  0.4015 -0.2990 -0.2051
 5664WAT     H123376   5.251   5.198   6.601  0.6545 -0.9516 -0.6699
 5664WAT     H223377   5.146   5.112   6.583 -0.3464  0.0643  0.1906
 5664WAT    EPW23378   5.197   5.149   6.630  0.3284 -0.3417 -0.2153
 5665WAT      O23379   0.254   1.589   6.587 -0.0737  0.3702  0.4902
 5665WAT     H123380   0.201   1.602   6.519  0.4716 -0.8144 -0.2011
 5665WAT     H223381   0.204   1.604   6.656 -0.7984  1.0549 -0.1700
 5665WAT    EPW23382   0.239   1.593   6.587 -0.1002  0.2964  0.2906
 5666WAT      O23383   1.363   1.224   2.164 -0.0598 -0.1990  0.4485
 5666WAT     H123384   1.413   1.207   2.094  1.3458 -0.3346  1.4279
 5666WAT     H223385   1.343   1.308   2.156 -0.4933 -0.3798 -0.4587
 5666WAT    EPW23386   1.368   1.234   2.152  0.0838 -0.2457  0.4591
 5667WAT      O23387   6.511   5.601   6.989 -0.3268 -0.3603  0.0499
 5667WAT     H123388   6.512   5.687   6.978 -1.0252 -0.4998 -1.3829
 5667WAT     H223389   6.583   5.585   7.035 -0.4363  1.0285  0.7374
 5667WAT    EPW23390   6.522   5.611   6.994 -0.4461 -0.1757 -0.0602
 5668WAT      O23391   6.954   5.710   1.342 -0.2908  0.1216 -0.0793
 5668WAT     H123392   6.964   5.624   1.348 -0.4829 -0.0453 -1.6656
 5668WAT     H223393   7.028   5.737   1.303 -0.3586  0.6395  0.1345
 5668WAT    EPW23394   6.967   5.702   1.337 -0.3292  0.1734 -0.2821
 5669WAT      O23395   1.996   2.045   1.261 -0.1232  0.0236  0.0322
 5669WAT     H123396   2.023   2.122   1.290 -1.5382  0.2890  0.7223
 5669WAT     H223397   1.909   2.051   1.263 -0.3180 -2.1643  1.7909
 5669WAT    EPW23398   1.987   2.057   1.265 -0.3610 -0.2604  0.3939
 5670WAT      O23399   3.976   0.695   6.016 -0.3321 -0.5208 -0.7416
 5670WAT     H123400   3.903   0.742   6.006 -0.7846 -0.8362  0.8064
 5670WAT     H223401   3.960   0.622   5.972 -1.5960 -1.2215  0.7625
 5670WAT    EPW23402   3.963   0.691   6.008 -0.5856 -0.6709 -0.2907
 5671WAT      O23403   6.933   0.688   4.075  0.1261 -0.0522  0.5767
 5671WAT     H123404   6.980   0.719   4.142  1.5638 -0.2237 -0.3149
 5671WAT     H223405   6.857   0.667   4.112 -0.1395  2.4493  1.6314
 5671WAT    EPW23406   6.929   0.689   4.091  0.2993  0.2920  0.6008
 5672WAT      O23407   7.025   3.738   1.651  0.1199 -0.0086 -0.6790
 5672WAT     H123408   7.025   3.651   1.659 -2.1782 -0.0534 -0.6178
 5672WAT     H223409   7.022   3.750   1.564  1.7854  0.0822 -0.7600
 5672WAT    EPW23410   7.025   3.727   1.639  0.0264 -0.0018 -0.6820
 5673WAT      O23411   0.164   0.868   6.917 -0.2309 -0.6664  0.0179
 5673WAT     H123412   0.208   0.902   6.984 -0.5404  0.0031 -0.1107
 5673WAT     H223413   0.207   0.897   6.847 -3.1968  3.7513 -0.3819
 5673WAT    EPW23414   0.177   0.878   6.916 -0.7148  0.0851 -0.0602
 5674WAT      O23415   3.791   2.201   6.162  0.2923  0.2285 -0.0986
 5674WAT     H123416   3.869   2.221   6.195  1.0716 -2.7980  0.2404
 5674WAT     H223417   3.749   2.163   6.229  0.3644 -2.3335 -1.3647
 5674WAT    EPW23418   3.796   2.198   6.177  0.4181 -0.5971 -0.2355
 5675WAT      O23419   5.442   3.102   2.467 -0.1537 -0.6902 -0.1980
 5675WAT     H123420   5.497   3.036   2.481 -0.9904 -1.6618 -1.2847
 5675WAT     H223421   5.363   3.064   2.472 -0.6307 -0.0552 -1.9734
 5675WAT    EPW23422   5.438   3.087   2.470 -0.3477 -0.7399 -0.6208
 5676WAT      O23423   3.524   0.311   6.385  0.3037 -0.6480  0.1856
 5676WAT     H123424   3.554   0.283   6.462  1.2913 -0.1652 -0.0183
 5676WAT     H223425   3.593   0.347   6.347 -0.4520  0.1971 -0.4359
 5676WAT    EPW23426   3.538   0.312   6.391  0.3379 -0.4518  0.0637
 5677WAT      O23427   4.884   3.971   4.141  0.0007  0.0471  0.3923
 5677WAT     H123428   4.848   4.015   4.208  0.0502  0.5502  0.0907
 5677WAT     H223429   4.891   3.889   4.172 -1.8529 -0.1906  0.3144
 5677WAT    EPW23430   4.879   3.965   4.155 -0.2658  0.0863  0.3363
 5678WAT      O23431   2.637   7.107   5.047 -0.4008  0.0506  1.2201
 5678WAT     H123432   2.656   7.125   4.964 -1.4706 -0.0098  0.9400
 5678WAT     H223433   2.656   7.181   5.089  0.1744  0.0705  0.9343
 5678WAT    EPW23434   2.643   7.121   5.041 -0.4739  0.0446  1.1365
 5679WAT      O23435   6.672   0.668   4.166  0.2074  0.4094  0.6180
 5679WAT     H123436   6.659   0.753   4.151 -3.3341 -0.1232 -0.2098
 5679WAT     H223437   6.637   0.656   4.245  0.6462 -0.2997  0.7153
 5679WAT    EPW23438   6.665   0.679   4.176 -0.2509  0.2260  0.5101
 5680WAT      O23439   4.242   3.612   2.189  0.0217 -0.2413  0.5010
 5680WAT     H123440   4.274   3.692   2.203 -0.0716  0.0646 -0.8561
 5680WAT     H223441   4.189   3.598   2.257  1.0745  0.2824  1.4516
 5680WAT    EPW23442   4.239   3.622   2.201  0.1634 -0.1187  0.4410
 5681WAT      O23443   6.618   0.148   2.875 -0.2835  0.8096  0.6197
 5681WAT     H123444   6.693   0.119   2.908 -1.0380 -0.9339  0.9081
 5681WAT     H223445   6.643   0.197   2.808  1.1069 -0.7406 -0.0604
 5681WAT    EPW23446   6.633   0.151   2.870 -0.1896  0.3231  0.5619
 5682WAT      O23447   5.032   5.652   1.733  0.2508 -0.0600  0.5491
 5682WAT     H123448   5.001   5.619   1.807  0.2038 -0.4680  0.3500
 5682WAT     H223449   5.013   5.591   1.674 -1.4846  1.0740 -0.1648
 5682WAT    EPW23450   5.025   5.638   1.735 -0.0125  0.0472  0.4143
 5683WAT      O23451   1.243   2.190   0.698 -0.0631 -0.2693 -0.4966
 5683WAT     H123452   1.235   2.134   0.631 -0.7789  0.5131 -1.0909
 5683WAT     H223453   1.329   2.195   0.710  0.0549 -0.7818 -1.0532
 5683WAT    EPW23454   1.254   2.182   0.690 -0.1514 -0.2294 -0.6666
 5684WAT      O23455   6.221   4.300   5.264 -0.2591 -0.0416  0.1869
 5684WAT     H123456   6.284   4.241   5.267 -0.7370 -0.6046 -0.5424
 5684WAT     H223457   6.204   4.309   5.179 -0.5068  0.8086  0.3094
 5684WAT    EPW23458   6.228   4.293   5.252 -0.3663  0.0008  0.0973
 5685WAT      O23459   0.177   0.817   2.099  0.1192 -0.2495  0.0728
 5685WAT     H123460   0.219   0.884   2.137 -1.1075  1.0905 -0.8428
 5685WAT     H223461   0.241   0.760   2.082  1.1481  0.5165  1.2082
 5685WAT    EPW23462   0.193   0.818   2.102  0.0900  0.0616  0.1053
 5686WAT      O23463   6.902   6.298   6.251 -0.0760 -0.1024  0.5078
 5686WAT     H123464   6.817   6.283   6.241 -0.0997  1.1719 -1.8995
 5686WAT     H223465   6.939   6.227   6.218 -0.2054 -0.2698  0.7223
 5686WAT    EPW23466   6.895   6.285   6.244 -0.0986  0.0611  0.1839
 5687WAT      O23467   4.686   4.079   5.636  0.5410 -0.1573  0.1596
 5687WAT     H123468   4.710   4.153   5.595 -1.5632 -0.1042 -1.1695
 5687WAT     H223469   4.628   4.107   5.695 -0.4532 -0.7197 -0.5184
 5687WAT    EPW23470   4.681   4.094   5.639  0.0833 -0.2325 -0.1369
 5688WAT      O23471   3.764   1.780   0.875 -0.0340 -0.2966  0.0382
 5688WAT     H123472   3.744   1.702   0.908  2.1353 -0.2303  1.7515
 5688WAT     H223473   3.834   1.764   0.825  0.5856  0.5428  0.5949
 5688WAT    EPW23474   3.772   1.766   0.872  0.3780 -0.1628  0.3735
 5689WAT      O23475   5.565   5.375   3.825 -0.0783  0.3293  0.2115
 5689WAT     H123476   5.606   5.306   3.792  0.9718  1.7705 -1.7533
 5689WAT     H223477   5.487   5.344   3.848  0.4809 -1.5661 -0.2429
 5689WAT    EPW23478   5.560   5.360   3.823  0.1594  0.2622 -0.1458
 5690WAT      O23479   3.553   7.019   3.944  0.3982 -0.5911  0.3380
 5690WAT     H123480   3.520   7.014   4.025  0.7547  1.0770  0.6266
 5690WAT     H223481   3.504   6.963   3.898 -1.8320  0.6734  1.0543
 5690WAT    EPW23482   3.541   7.010   3.949  0.1214 -0.1579  0.4864
 5691WAT      O23483   4.915   6.120   0.166 -0.0582 -0.0622 -0.3132
 5691WAT     H123484   4.895   6.047   0.208  1.8221  0.0096  0.7970
 5691WAT     H223485   4.981   6.097   0.114 -0.0965  0.6387 -0.6903
 5691WAT    EPW23486   4.922   6.106   0.165  0.2139  0.0519 -0.2049
 5692WAT      O23487   7.280   2.690   4.152  0.2231  0.2679 -0.3657
 5692WAT     H123488   7.332   2.651   4.093  0.6804 -0.9379  0.7994
 5692WAT     H223489   7.202   2.653   4.138  0.4380 -0.3643  0.0953
 5692WAT    EPW23490   7.276   2.679   4.141  0.3224 -0.0036 -0.1255
 5693WAT      O23491   6.136   0.877   2.635  0.2400 -0.2434 -1.5881
 5693WAT     H123492   6.186   0.809   2.612  0.2519 -1.0205  0.5157
 5693WAT     H223493   6.055   0.845   2.635  0.0864  0.1339 -1.9201
 5693WAT    EPW23494   6.132   0.862   2.631  0.2190 -0.3025 -1.3264
 5694WAT      O23495   4.622   3.560   7.258 -0.5496 -0.3287 -0.0802
 5694WAT     H123496   4.679   3.566   7.324 -0.2571  0.5812 -0.4047
 5694WAT     H223497   4.551   3.601   7.288 -1.2197 -1.8071  0.4780
 5694WAT    EPW23498   4.620   3.567   7.273 -0.6054 -0.4127 -0.0457
 5695WAT      O23499   4.296   2.747   3.909  0.2223  0.6595  0.1021
 5695WAT     H123500   4.261   2.707   3.840  0.7452  0.8788 -0.3017
 5695WAT     H223501   4.243   2.726   3.975 -0.5619  0.8384 -0.4575
 5695WAT    EPW23502   4.283   2.738   3.909  0.1837  0.7183 -0.0402
 5696WAT      O23503   5.331   1.260   2.009 -0.7969 -0.2880 -0.4945
 5696WAT     H123504   5.286   1.326   2.044 -0.0660 -1.0664  2.1903
 5696WAT     H223505   5.273   1.195   2.005 -0.7820 -0.3199 -0.2429
 5696WAT    EPW23506   5.316   1.260   2.014 -0.6867 -0.4077 -0.0608
 5697WAT      O23507   4.769   5.888   2.503  0.5219 -0.4995  0.0192
 5697WAT     H123508   4.694   5.848   2.484 -0.4296  1.0166  0.3817
 5697WAT     H223509   4.767   5.898   2.589  0.0382  1.4908 -0.1624
 5697WAT    EPW23510   4.757   5.884   2.513  0.3099  0.0184  0.0459
 5698WAT      O23511   1.085   3.590   6.658  0.2313  0.8890 -0.2270
 5698WAT     H123512   1.116   3.509   6.654  1.3942  1.1919  1.5133
 5698WAT     H223513   1.075   3.613   6.575 -2.2914 -1.7840 -0.8043
 5698WAT    EPW23514   1.088   3.581   6.645  0.0304  0.5389 -0.0552
 5699WAT      O23515   2.559   2.293   2.795  0.2174  0.6695  0.0241
 5699WAT     H123516   2.568   2.245   2.722 -1.7267  0.2892 -0.0286
 5699WAT     H223517   2.627   2.268   2.844  0.0886 -1.0904 -0.6005
 5699WAT    EPW23518   2.571   2.282   2.791 -0.0888  0.3534 -0.0759
 5700WAT      O23519   6.725   5.791   1.121 -0.0913  0.3590  0.6586
 5700WAT     H123520   6.795   5.747   1.149 -0.9473 -0.3964  1.7241
 5700WAT     H223521   6.753   5.873   1.114  1.2293 -0.1366 -0.2264
 5700WAT    EPW23522   6.739   5.797   1.124 -0.0227  0.1742  0.6853
 5701WAT      O23523   3.651   5.258   2.272 -0.6716  0.4583 -0.1381
 5701WAT     H123524   3.638   5.209   2.344  3.3341  1.5093  1.5731
 5701WAT     H223525   3.711   5.213   2.227 -0.8632  1.3165 -1.2940
 5701WAT    EPW23526   3.658   5.244   2.276 -0.1082  0.7404 -0.0561
 5702WAT      O23527   6.896   6.313   1.252 -0.4240  0.2678 -0.2066
 5702WAT     H123528   6.815   6.315   1.285  0.0010 -1.6203  1.1707
 5702WAT     H223529   6.915   6.228   1.252  1.7078  0.6963 -0.1019
 5702WAT    EPW23530   6.887   6.300   1.257 -0.0463  0.0522  0.0123
 5703WAT      O23531   7.029   3.550   6.633  0.3837 -0.3869  0.4092
 5703WAT     H123532   6.971   3.608   6.662  0.3557  1.2285 -2.5037
 5703WAT     H223533   7.105   3.592   6.638  0.3056  0.2336 -2.1832
 5703WAT    EPW23534   7.032   3.565   6.638  0.3680 -0.0566 -0.4040
 5704WAT      O23535   5.397   3.908   7.086 -0.2608  0.0538  0.1768
 5704WAT     H123536   5.398   3.996   7.086  1.0181  0.1238 -2.2853
 5704WAT     H223537   5.313   3.889   7.075 -0.3064  1.1083 -1.8534
 5704WAT    EPW23538   5.385   3.918   7.085 -0.0786  0.2199 -0.4868
 5705WAT      O23539   7.048   4.159   4.060 -0.3280  0.4639 -0.1048
 5705WAT     H123540   7.085   4.131   3.986 -0.6801 -0.3380  0.0124
 5705WAT     H223541   7.111   4.204   4.099  0.1990 -0.0044 -0.4025
 5705WAT    EPW23542   7.063   4.162   4.055 -0.3022  0.2763 -0.1314
 5706WAT      O23543   5.911   4.582   3.843 -0.2091  0.5217  0.2810
 5706WAT     H123544   5.896   4.552   3.924 -0.9349  0.8642  0.2837
 5706WAT     H223545   5.956   4.656   3.857  0.1239  0.3062  0.3485
 5706WAT    EPW23546   5.915   4.589   3.857 -0.2671  0.5405  0.2914
 5707WAT      O23547   7.138   4.030   3.818 -0.5047 -0.1396 -0.5822
 5707WAT     H123548   7.215   4.017   3.779  0.6053  2.6167  0.4321
 5707WAT     H223549   7.116   4.110   3.792 -1.8113  0.0979  1.1237
 5707WAT    EPW23550   7.146   4.040   3.808 -0.5338  0.3026 -0.1804
 5708WAT      O23551   3.330   5.076   1.152  0.7662  1.3047 -0.1764
 5708WAT     H123552   3.349   4.994   1.129  0.3046  1.1965 -0.1787
 5708WAT     H223553   3.347   5.078   1.237  0.1439  1.0122 -0.0386
 5708WAT    EPW23554   3.335   5.064   1.161  0.6061  1.2455 -0.1564
 5709WAT      O23555   0.751   5.729   5.331  0.1084  0.0082 -0.1561
 5709WAT     H123556   0.836   5.731   5.350 -0.4330  1.2642  2.6168
 5709WAT     H223557   0.712   5.735   5.409 -2.5051  2.2751 -1.4476
 5709WAT    EPW23558   0.758   5.730   5.345 -0.3577  0.5286  0.0628
 5710WAT      O23559   6.140   2.443   3.598 -0.2909  0.0273 -0.1516
 5710WAT     H123560   6.090   2.480   3.537 -0.9997  0.0221  0.4210
 5710WAT     H223561   6.182   2.511   3.633  1.3486 -0.1105 -1.6936
 5710WAT    EPW23562   6.139   2.459   3.594 -0.1534  0.0061 -0.2948
 5711WAT      O23563   1.763   3.902   2.713  0.8281  0.0819  0.1234
 5711WAT     H123564   1.682   3.871   2.722  0.6007  0.4183 -0.6822
 5711WAT     H223565   1.804   3.841   2.667  0.9958 -0.0242  0.4114
 5711WAT    EPW23566   1.757   3.889   2.708  0.8193  0.1159  0.0470
 5712WAT      O23567   7.188   2.846   7.406 -0.3369  0.1015  0.8841
 5712WAT     H123568   7.120   2.871   7.358 -1.1657  1.3833  2.5975
 5712WAT     H223569   7.184   2.899   7.476  2.4006  0.1899  1.0725
 5712WAT    EPW23570   7.177   2.858   7.409 -0.0549  0.3039  1.1650
 5713WAT      O23571   6.273   7.082   0.880 -0.2594  0.5259  0.4291
 5713WAT     H123572   6.297   7.016   0.932  2.5295  1.6532  0.7633
 5713WAT     H223573   6.315   7.066   0.805 -0.9152  1.0280 -0.0545
 5713WAT    EPW23574   6.283   7.070   0.877  0.0557  0.7666  0.4070
 5714WAT      O23575   1.193   0.156   4.930  0.3820  0.3119  0.4103
 5714WAT     H123576   1.232   0.213   4.878  0.1018 -0.2900 -0.4722
 5714WAT     H223577   1.243   0.157   5.002  1.0925  0.7312 -0.0788
 5714WAT    EPW23578   1.206   0.165   4.933  0.4456  0.2849  0.2077
 5715WAT      O23579   7.287   4.840   1.195 -0.3955 -0.4708  0.2515
 5715WAT     H123580   7.289   4.908   1.249 -1.7955  0.6142 -0.9796
 5715WAT     H223581   7.217   4.855   1.146  0.3685 -1.8009 -1.3514
 5715WAT    EPW23582   7.277   4.852   1.196 -0.4894 -0.5070 -0.1671
 5716WAT      O23583   4.220   0.867   3.542 -0.1027  0.0434 -0.2164
 5716WAT     H123584   4.262   0.795   3.567 -0.6700 -0.1168  0.3119
 5716WAT     H223585   4.246   0.879   3.460  0.4479 -0.4290 -0.1166
 5716WAT    EPW23586   4.230   0.858   3.534 -0.1052 -0.0500 -0.1236
 5717WAT      O23587   3.447   4.677   2.004 -0.1573  0.4134  0.6118
 5717WAT     H123588   3.376   4.723   2.025 -0.7840 -0.4837  0.4795
 5717WAT     H223589   3.493   4.732   1.954 -1.7487  0.2838 -1.0672
 5717WAT    EPW23590   3.443   4.692   2.000 -0.4849  0.2618  0.3443
 5718WAT      O23591   0.864   2.535   2.580 -0.5494  0.2836 -0.2057
 5718WAT     H123592   0.916   2.598   2.609  1.2165 -0.6943 -1.0816
 5718WAT     H223593   0.901   2.511   2.505  0.1950 -3.2691  1.1026
 5718WAT    EPW23594   0.877   2.541   2.573 -0.1786 -0.3856 -0.1418
 5719WAT      O23595   0.323   0.035   2.957 -0.2437  0.2748 -0.4232
 5719WAT     H123596   0.308   0.114   2.991  1.3136  0.0430  0.9527
 5719WAT     H223597   0.304   0.045   2.872 -1.8429  1.5916  0.0428
 5719WAT    EPW23598   0.318   0.048   2.949 -0.2499  0.4351 -0.1511
 5720WAT      O23599   7.075   2.075   6.106 -0.1716  0.4927 -0.3824
 5720WAT     H123600   7.065   1.993   6.135  0.2395  0.5932  0.0723
 5720WAT     H223601   7.070   2.067   6.019 -0.9949  0.1166 -0.3130
 5720WAT    EPW23602   7.073   2.061   6.097 -0.2325  0.4520 -0.3050
 5721WAT      O23603   1.662   2.590   4.142  0.1231 -0.3392 -0.1251
 5721WAT     H123604   1.638   2.538   4.076  1.4828 -0.8590 -0.2551
 5721WAT     H223605   1.746   2.568   4.155 -0.2217 -0.5656  2.0785
 5721WAT    EPW23606   1.671   2.579   4.134  0.2730 -0.4494  0.1812
 5722WAT      O23607   2.243   5.575   1.588  0.0882 -0.5667  0.2276
 5722WAT     H123608   2.207   5.602   1.663 -0.3556  0.5111 -0.3464
 5722WAT     H223609   2.305   5.636   1.573 -0.3639 -0.3207 -0.6792
 5722WAT    EPW23610   2.247   5.588   1.597 -0.0441 -0.3712  0.0089
 5723WAT      O23611   2.281   1.111   2.430 -0.4780 -0.0362  0.2190
 5723WAT     H123612   2.326   1.172   2.386 -1.6317 -0.6066 -1.9129
 5723WAT     H223613   2.235   1.071   2.367 -2.5985 -0.6466  2.0211
 5723WAT    EPW23614   2.281   1.114   2.414 -0.9617 -0.2107  0.1703
 5724WAT      O23615   1.555   4.593   4.442 -0.4530 -0.5575 -0.2652
 5724WAT     H123616   1.514   4.655   4.488  0.9360 -0.5467  1.0412
 5724WAT     H223617   1.501   4.525   4.447 -1.2956  0.0859 -0.4084
 5724WAT    EPW23618   1.541   4.592   4.450 -0.3722 -0.4609 -0.0933
 5725WAT      O23619   4.464   3.837   1.095 -0.3165 -0.1888  0.6489
 5725WAT     H123620   4.504   3.852   1.171 -0.5619  1.3957  0.4984
 5725WAT     H223621   4.385   3.871   1.106 -0.6929 -0.8398  0.0128
 5725WAT    EPW23622   4.458   3.845   1.108 -0.4084 -0.0509  0.5327
 5726WAT      O23623   2.577   3.226   2.908  0.1161  0.2432 -0.0747
 5726WAT     H123624   2.553   3.310   2.908  1.5613  0.6988  0.7259
 5726WAT     H223625   2.639   3.223   2.848 -0.4132 -0.4214 -0.5927
 5726WAT    EPW23626   2.583   3.238   2.899  0.2514  0.2123 -0.0330
 5727WAT      O23627   6.832   1.877   6.947 -0.2645  0.0113 -0.4955
 5727WAT     H123628   6.871   1.799   6.944  0.1105  0.1412  0.4714
 5727WAT     H223629   6.763   1.862   6.999 -1.6364 -0.2522 -2.3002
 5727WAT    EPW23630   6.828   1.863   6.954 -0.4118 -0.0084 -0.6192
 5728WAT      O23631   3.521   1.430   6.685 -0.1270 -0.2447  0.0582
 5728WAT     H123632   3.456   1.373   6.700  0.1630 -0.9222 -1.1347
 5728WAT     H223633   3.569   1.390   6.624  0.3283  1.1074 -0.4894
 5728WAT    EPW23634   3.519   1.415   6.679 -0.0169 -0.1450 -0.1989
 5729WAT      O23635   3.864   5.236   3.468 -0.4646 -0.3210  0.7293
 5729WAT     H123636   3.787   5.277   3.469 -0.9166 -0.9480 -1.4558
 5729WAT     H223637   3.843   5.153   3.449  0.6659 -0.8449  1.6283
 5729WAT    EPW23638   3.849   5.230   3.465 -0.3644 -0.4910  0.5393
 5730WAT      O23639   6.611   1.730   3.021  0.5677  0.2996  0.2853
 5730WAT     H123640   6.694   1.704   3.029  0.2829 -1.3298 -1.4520
 5730WAT     H223641   6.579   1.723   3.101  1.6758 -0.6557  0.6637
 5730WAT    EPW23642   6.618   1.725   3.034  0.6893 -0.0822  0.0845
 5731WAT      O23643   4.348   2.840   0.865 -0.0321  0.0112 -0.7109
 5731WAT     H123644   4.300   2.854   0.937  1.2315 -0.0271  0.1758
 5731WAT     H223645   4.345   2.917   0.823  1.1413  0.8475  0.6130
 5731WAT    EPW23646   4.341   2.854   0.869  0.3279  0.1291 -0.3844
 5732WAT      O23647   0.074   1.687   3.268  0.2501 -0.2534 -0.5155
 5732WAT     H123648   0.132   1.628   3.298 -0.5908 -1.2278 -0.7507
 5732WAT     H223649   0.124   1.753   3.242  1.3722 -1.5564 -1.8537
 5732WAT    EPW23650   0.090   1.688   3.269  0.2917 -0.5898 -0.7479
 5733WAT      O23651   2.328   2.551   2.115  0.5052 -0.2208  0.0817
 5733WAT     H123652   2.293   2.480   2.079 -0.1679  0.2572 -0.2514
 5733WAT     H223653   2.278   2.616   2.084 -0.4934  0.1681  2.3118
 5733WAT    EPW23654   2.315   2.550   2.105  0.2583 -0.0927  0.3619
 5734WAT      O23655   6.679   6.487   4.948  0.0036  0.1234  0.5778
 5734WAT     H123656   6.701   6.566   4.920 -2.9051  0.4031 -1.4236
 5734WAT     H223657   6.636   6.502   5.023 -0.0349  0.3973  0.4996
 5734WAT    EPW23658   6.676   6.501   4.955 -0.4317  0.2051  0.2706
 5735WAT      O23659   5.692   6.006   4.509 -0.3387  0.2021 -0.3495
 5735WAT     H123660   5.656   5.960   4.444  1.0806 -1.0635 -0.3185
 5735WAT     H223661   5.763   5.960   4.529  0.3752  1.6738  0.7119
 5735WAT    EPW23662   5.697   5.992   4.502 -0.0236  0.2325 -0.1881
 5736WAT      O23663   3.278   2.907   0.579 -0.0756  0.3956  0.1243
 5736WAT     H123664   3.270   2.976   0.526 -1.4095 -0.9085 -1.4844
 5736WAT     H223665   3.350   2.924   0.624  0.4410  2.1570 -1.2575
 5736WAT    EPW23666   3.287   2.920   0.578 -0.1963  0.4632 -0.3175
 5737WAT      O23667   1.695   2.350   1.503 -0.1609  0.6375 -0.5482
 5737WAT     H123668   1.702   2.399   1.574 -0.2233 -0.5822  0.3335
 5737WAT     H223669   1.656   2.277   1.532  0.7737 -0.3309 -1.5966
 5737WAT    EPW23670   1.690   2.346   1.518 -0.0321  0.3143 -0.5728
 5738WAT      O23671   2.108   0.526   6.434 -0.6439 -0.2300 -0.7468
 5738WAT     H123672   2.066   0.528   6.511  0.2239 -0.5452 -0.2560
 5738WAT     H223673   2.192   0.521   6.456 -0.1578  2.2683 -1.6925
 5738WAT    EPW23674   2.114   0.526   6.448 -0.4439  0.0925 -0.8140
 5739WAT      O23675   1.083   5.685   1.620 -0.1757 -1.0260 -0.6713
 5739WAT     H123676   1.001   5.693   1.651  0.2033 -1.8474  0.6516
 5739WAT     H223677   1.119   5.762   1.636 -0.3905 -1.0014 -0.2961
 5739WAT    EPW23678   1.076   5.697   1.627 -0.1514 -1.1437 -0.4205
 5740WAT      O23679   6.930   1.253   2.295 -0.4480  0.1512 -0.9497
 5740WAT     H123680   6.904   1.170   2.300  0.8003 -0.2333 -0.1476
 5740WAT     H223681   6.911   1.285   2.374  3.5112 -0.8667  0.6738
 5740WAT    EPW23682   6.924   1.245   2.307  0.3213 -0.0560 -0.5913
 5741WAT      O23683   6.278   3.576   4.948 -0.5528 -0.1289 -0.6324
 5741WAT     H123684   6.272   3.495   4.918  1.6437 -0.1170 -1.2837
 5741WAT     H223685   6.351   3.606   4.911 -1.3308  2.1685 -0.4512
 5741WAT    EPW23686   6.288   3.569   4.938 -0.3433  0.2123 -0.7018
 5742WAT      O23687   3.140   2.606   6.032 -0.0647 -0.1125  0.4064
 5742WAT     H123688   3.169   2.635   5.955  1.3340  1.0265  1.3032
 5742WAT     H223689   3.210   2.571   6.069 -0.5070  0.0932  1.4855
 5742WAT    EPW23690   3.155   2.605   6.026  0.0766  0.0861  0.6983
 5743WAT      O23691   7.044   3.105   4.943  0.4863  0.4462 -0.3673
 5743WAT     H123692   7.093   3.035   4.964 -1.3401 -0.9796 -0.6041
 5743WAT     H223693   7.089   3.143   4.879  1.1440 -1.0023 -0.8158
 5743WAT    EPW23694   7.058   3.100   4.937  0.3136  0.0216 -0.4685
 5744WAT      O23695   5.128   5.073   2.593  0.6573  0.3379  0.1957
 5744WAT     H123696   5.149   5.064   2.677 -0.3757  1.4629  0.5951
 5744WAT     H223697   5.093   5.152   2.588 -0.7642 -0.3143 -0.9774
 5744WAT    EPW23698   5.126   5.083   2.605  0.2947  0.4077  0.0814
 5745WAT      O23699   5.738   4.660   4.596 -0.6477 -0.1098 -0.1227
 5745WAT     H123700   5.668   4.609   4.596  0.5798 -1.9008  0.9962
 5745WAT     H223701   5.802   4.608   4.567  0.4389  1.1357 -0.0688
 5745WAT    EPW23702   5.737   4.645   4.592 -0.3059 -0.1903  0.0505
 5746WAT      O23703   4.972   1.731   4.387 -0.1124 -0.2329 -0.1991
 5746WAT     H123704   4.894   1.758   4.359 -0.3028 -1.0312 -0.4734
 5746WAT     H223705   5.022   1.802   4.380 -0.5362 -0.0074 -1.0884
 5746WAT    EPW23706   4.968   1.745   4.382 -0.2032 -0.3175 -0.3709
 5747WAT      O23707   0.118   1.341   0.409  0.2896 -0.1596  0.0043
 5747WAT     H123708   0.193   1.298   0.419 -0.7133 -2.6700 -2.0223
 5747WAT     H223709   0.086   1.345   0.490  0.9248 -2.4589  0.4491
 5747WAT    EPW23710   0.124   1.335   0.423  0.2353 -0.8701 -0.2294
 5748WAT      O23711   4.561   6.531   1.508  0.1188 -0.2767 -0.0890
 5748WAT     H123712   4.633   6.485   1.526  0.9295  1.0690  0.2603
 5748WAT     H223713   4.549   6.518   1.422  1.6946  0.6693 -0.4994
 5748WAT    EPW23714   4.570   6.522   1.498  0.4713  0.0618 -0.0980
 5749WAT      O23715   2.822   2.115   3.755  0.9722 -0.4198 -0.0061
 5749WAT     H123716   2.775   2.147   3.689  1.6372 -1.5947 -1.0873
 5749WAT     H223717   2.901   2.150   3.742  0.7021  0.7050  1.1907
 5749WAT    EPW23718   2.827   2.125   3.743  1.0305 -0.4272  0.0110
 5750WAT      O23719   0.812   0.272   0.619 -0.2064 -0.2605  0.0898
 5750WAT     H123720   0.767   0.220   0.673 -0.8767  0.0925 -0.1081
 5750WAT     H223721   0.889   0.280   0.657  0.4199 -2.4909 -0.5459
 5750WAT    EPW23722   0.817   0.266   0.632 -0.2129 -0.5378 -0.0333
 5751WAT      O23723   6.791   2.076   3.344  0.1457 -0.5922  0.2627
 5751WAT     H123724   6.704   2.086   3.341  0.1452  0.1356  1.8605
 5751WAT     H223725   6.809   2.079   3.429  1.5672 -2.4863  0.0863
 5751WAT    EPW23726   6.781   2.078   3.356  0.3556 -0.7645  0.4726
 5752WAT      O23727   3.511   0.067   1.260 -0.1042  0.2388  0.2320
 5752WAT     H123728   3.517   0.024   1.184  2.0947 -1.4006  1.2096
 5752WAT     H223729   3.574   0.031   1.309 -1.5428  1.0684  2.9239
 5752WAT    EPW23730   3.521   0.055   1.256  0.0081  0.1192  0.7741
 5753WAT      O23731   5.626   2.600   1.699 -0.0208 -0.2237  0.8667
 5753WAT     H123732   5.569   2.665   1.691  0.8464  0.3615 -1.4523
 5753WAT     H223733   5.691   2.635   1.746  0.5520  0.7601 -0.5690
 5753WAT    EPW23734   5.627   2.615   1.705  0.1919  0.0081  0.3120
 5754WAT      O23735   1.720   6.404   5.232  0.0374 -0.0396 -0.3276
 5754WAT     H123736   1.797   6.423   5.195  0.5411  1.2002  1.2541
 5754WAT     H223737   1.727   6.319   5.251  0.8546 -0.0394 -0.5900
 5754WAT    EPW23738   1.732   6.394   5.229  0.2326  0.1436 -0.1327
 5755WAT      O23739   4.893   4.927   5.165  0.8226  0.5578 -0.2591
 5755WAT     H123740   4.840   4.991   5.192 -1.2765 -1.4756  0.8795
 5755WAT     H223741   4.942   4.911   5.235 -2.1569 -2.2941  1.4727
 5755WAT    EPW23742   4.892   4.934   5.180  0.0724 -0.1639  0.1650
 5756WAT      O23743   1.775   1.639   0.347 -0.1488  0.3512 -0.4812
 5756WAT     H123744   1.787   1.640   0.434 -1.1197  2.5142 -0.2990
 5756WAT     H223745   1.846   1.681   0.317  0.2845 -0.5713 -0.7714
 5756WAT    EPW23746   1.787   1.645   0.355 -0.2282  0.5344 -0.4971
 5757WAT      O23747   4.560   2.191   1.409  0.1223  0.1422 -0.1178
 5757WAT     H123748   4.554   2.113   1.448  0.6093  0.8330  1.4293
 5757WAT     H223749   4.574   2.171   1.325 -0.0359 -1.4248  0.1979
 5757WAT    EPW23750   4.561   2.177   1.402  0.1708  0.0128  0.1574
 5758WAT      O23751   6.235   3.656   3.104  0.1914 -0.0488 -0.0189
 5758WAT     H123752   6.273   3.602   3.047 -1.5023 -1.0138 -0.2873
 5758WAT     H223753   6.214   3.725   3.054  1.0454  0.2660  0.0251
 5758WAT    EPW23754   6.238   3.658   3.088  0.0673 -0.1449 -0.0521
 5759WAT      O23755   4.246   4.213   4.563  0.0712  0.5836 -0.8497
 5759WAT     H123756   4.227   4.211   4.478 -0.1075 -3.7577 -0.9475
 5759WAT     H223757   4.174   4.181   4.601  0.5767  1.3090  0.8402
 5759WAT    EPW23758   4.233   4.208   4.556  0.1195  0.0494 -0.6145
 5760WAT      O23759   1.931   1.274   0.339 -0.4111 -0.2397  0.2293
 5760WAT     H123760   1.985   1.334   0.372 -1.2200 -0.3519  1.8651
 5760WAT     H223761   1.979   1.200   0.341  0.0046  0.0150 -0.1486
 5760WAT    EPW23762   1.946   1.272   0.345 -0.4692 -0.2186  0.4151
 5761WAT      O23763   4.467   2.358   1.984  0.0474  0.4770  0.0331
 5761WAT     H123764   4.385   2.367   2.011 -0.2537 -0.9682 -0.2957
 5761WAT     H223765   4.460   2.358   1.897  0.5672  1.5820 -0.0248
 5761WAT    EPW23766   4.454   2.359   1.975  0.0797  0.4268 -0.0241
 5762WAT      O23767   5.835   1.333   0.420 -0.5236  0.3118  0.1582
 5762WAT     H123768   5.878   1.391   0.469 -1.0987 -0.8784  2.2170
 5762WAT     H223769   5.883   1.261   0.427 -1.4637 -0.3181  0.2998
 5762WAT    EPW23770   5.848   1.331   0.428 -0.7474  0.0430  0.4832
 5763WAT      O23771   5.354   6.598   2.462  0.0576  0.5461  0.3737
 5763WAT     H123772   5.379   6.519   2.435 -1.1007  0.5027 -0.6766
 5763WAT     H223773   5.427   6.632   2.496  1.6865  0.5262 -2.6811
 5763WAT    EPW23774   5.369   6.592   2.463  0.1271  0.5367 -0.2327
 5764WAT      O23775   2.082   6.679   4.955 -0.3219 -0.2314 -0.4417
 5764WAT     H123776   2.094   6.637   4.880 -1.6390 -2.1581  0.3550
 5764WAT     H223777   2.142   6.742   4.953  2.1122 -2.4201 -1.5105
 5764WAT    EPW23778   2.093   6.682   4.944 -0.1569 -0.8393 -0.4819
 5765WAT      O23779   4.592   5.707   4.903 -0.0026  0.1395  0.1087
 5765WAT     H123780   4.659   5.653   4.890 -0.5528 -0.2136 -1.3560
 5765WAT     H223781   4.531   5.656   4.938  0.7408  0.6458  2.3155
 5765WAT    EPW23782   4.593   5.691   4.907  0.0259  0.1621  0.2183
 5766WAT      O23783   1.278   0.644   3.852  0.5526 -0.4872 -0.2402
 5766WAT     H123784   1.297   0.725   3.877 -1.7115 -0.4373  1.7441
 5766WAT     H223785   1.320   0.594   3.910  0.6417 -0.6572 -0.4520
 5766WAT    EPW23786   1.287   0.649   3.865  0.2313 -0.5049  0.0216
 5767WAT      O23787   4.618   5.511   2.371  0.1614  1.0935 -0.2130
 5767WAT     H123788   4.605   5.425   2.366 -0.0920  1.0132  1.2005
 5767WAT     H223789   4.671   5.528   2.304 -1.0701  0.1281 -1.4808
 5767WAT    EPW23790   4.624   5.500   2.361 -0.0579  0.9390 -0.1915
 5768WAT      O23791   4.901   3.461   6.325 -0.1999  0.1339 -0.3959
 5768WAT     H123792   4.965   3.455   6.266 -0.3960 -1.3723 -0.4783
 5768WAT     H223793   4.855   3.530   6.298  0.3838  0.1698 -1.3318
 5768WAT    EPW23794   4.904   3.471   6.312 -0.1426 -0.0833 -0.5463
 5769WAT      O23795   6.628   5.365   3.893  0.0241 -0.0811 -0.2306
 5769WAT     H123796   6.609   5.376   3.809  2.2124 -0.7573 -0.8866
 5769WAT     H223797   6.684   5.297   3.893 -0.3712 -0.4824  1.8300
 5769WAT    EPW23798   6.634   5.357   3.881  0.2889 -0.2403 -0.0231
 5770WAT      O23799   2.654   0.591   5.308  0.1460  0.2812 -0.4633
 5770WAT     H123800   2.608   0.528   5.269  0.7233  0.1469 -0.9642
 5770WAT     H223801   2.680   0.640   5.241  0.2470  0.6760 -0.1349
 5770WAT    EPW23802   2.651   0.589   5.292  0.2462  0.3197 -0.4888
 5771WAT      O23803   3.059   7.074   2.028 -0.3440  0.3120  0.4450
 5771WAT     H123804   3.064   7.022   1.958 -1.3930  0.9337 -0.1104
 5771WAT     H223805   3.023   7.023   2.089 -1.7636  0.4703 -0.2204
 5771WAT    EPW23806   3.054   7.058   2.027 -0.7087  0.4272  0.2647
 5772WAT      O23807   4.420   1.365   2.916  0.1482 -0.2276  0.3216
 5772WAT     H123808   4.378   1.314   2.974  0.9248 -0.4320  0.7258
 5772WAT     H223809   4.390   1.445   2.933 -0.4300 -0.4313  0.2767
 5772WAT    EPW23810   4.409   1.369   2.927  0.1775 -0.2879  0.3747
 5773WAT      O23811   2.196   3.665   5.042 -0.2989  0.0644 -0.2549
 5773WAT     H123812   2.213   3.581   5.025 -0.8719  0.0156 -0.5918
 5773WAT     H223813   2.234   3.678   5.120  1.6094  0.0591 -1.1121
 5773WAT    EPW23814   2.204   3.654   5.051 -0.1017  0.0564 -0.4313
 5774WAT      O23815   7.063   5.295   3.143  0.0700 -0.1736 -0.5134
 5774WAT     H123816   6.992   5.246   3.133  0.8946 -1.7038  0.7911
 5774WAT     H223817   7.110   5.276   3.072  0.9015 -2.2820  0.5127
 5774WAT    EPW23818   7.060   5.285   3.131  0.3146 -0.7111 -0.1691
 5775WAT      O23819   6.556   6.353   3.159  0.7975  0.3467 -0.7252
 5775WAT     H123820   6.566   6.296   3.094  2.6450  0.4215 -0.5674
 5775WAT     H223821   6.523   6.423   3.120  1.3606  0.1999 -1.4982
 5775WAT    EPW23822   6.553   6.355   3.144  1.1536  0.3361 -0.8161
 5776WAT      O23823   1.646   0.248   6.953 -0.0037 -0.2019  0.3222
 5776WAT     H123824   1.726   0.249   6.919  0.4694 -1.4934  1.3219
 5776WAT     H223825   1.654   0.197   7.023 -1.7813 -0.6232  0.2595
 5776WAT    EPW23826   1.659   0.241   6.958 -0.1964 -0.4549  0.4606
 5777WAT      O23827   3.748   6.977   3.532 -0.1171  0.2055  0.5590
 5777WAT     H123828   3.802   6.941   3.473  1.2037  2.4725  0.2476
 5777WAT     H223829   3.760   6.929   3.603  1.8481  0.2009  0.2866
 5777WAT    EPW23830   3.758   6.965   3.534  0.3683  0.5397  0.4727
 5778WAT      O23831   1.927   1.162   5.130 -0.2907  0.2195 -0.0558
 5778WAT     H123832   1.859   1.108   5.140  0.0945 -0.2604  0.0284
 5778WAT     H223833   1.897   1.223   5.076 -0.6122 -0.3024 -0.4858
 5778WAT    EPW23834   1.913   1.163   5.124 -0.2813  0.0715 -0.1069
 5779WAT      O23835   6.142   2.753   5.676 -0.1946  0.0183 -0.1804
 5779WAT     H123836   6.182   2.676   5.685  1.9332  1.0377 -0.3959
 5779WAT     H223837   6.178   2.787   5.605 -1.1032  1.2237 -0.0988
 5779WAT    EPW23838   6.153   2.746   5.667 -0.0145  0.3469 -0.2002
 5780WAT      O23839   5.861   4.300   0.782  0.5529  0.4139  0.4709
 5780WAT     H123840   5.846   4.379   0.815  2.6710  1.1637 -0.2207
 5780WAT     H223841   5.909   4.260   0.843  2.2913  0.8959 -0.5027
 5780WAT    EPW23842   5.866   4.306   0.796  1.1226  0.5959  0.2249
 5781WAT      O23843   2.886   2.420   1.190  0.8330  0.3339 -0.0018
 5781WAT     H123844   2.903   2.346   1.146  1.4166  0.3469  0.1962
 5781WAT     H223845   2.869   2.392   1.271 -0.4799  0.2892 -0.2788
 5781WAT    EPW23846   2.886   2.405   1.196  0.7253  0.3293 -0.0135
 5782WAT      O23847   3.654   7.063   5.764 -0.1730  0.4696  0.0393
 5782WAT     H123848   3.666   7.002   5.703  0.3575 -0.3111  0.9005
 5782WAT     H223849   3.588   7.032   5.812  2.0992 -1.0857  2.4082
 5782WAT    EPW23850   3.646   7.050   5.762  0.2410  0.1245  0.5164
 5783WAT      O23851   6.111   3.296   1.336 -1.1294  0.0478 -0.4664
 5783WAT     H123852   6.101   3.225   1.286 -1.6719 -0.4396  0.3077
 5783WAT     H223853   6.172   3.342   1.295  2.6445 -2.9070  1.2325
 5783WAT    EPW23854   6.118   3.293   1.322 -0.6520 -0.4607 -0.1011
 5784WAT      O23855   0.764   4.448   1.580 -0.4326 -0.4159 -0.0198
 5784WAT     H123856   0.798   4.421   1.656 -1.5710  0.8834  0.9985
 5784WAT     H223857   0.723   4.378   1.550 -1.7109 -0.4260  1.6162
 5784WAT    EPW23858   0.763   4.434   1.587 -0.7896 -0.2255  0.3723
 5785WAT      O23859   7.105   3.052   0.153  0.2575  0.0805  0.3419
 5785WAT     H123860   7.039   3.000   0.176  0.1868 -0.8352 -1.6677
 5785WAT     H223861   7.170   3.026   0.205 -0.0256 -1.4526 -0.0163
 5785WAT    EPW23862   7.105   3.040   0.164  0.2053 -0.2812 -0.0079
 5786WAT      O23863   7.170   1.325   7.161 -0.3174  0.4054 -0.5331
 5786WAT     H123864   7.242   1.277   7.155 -0.8727 -0.3714 -1.2716
 5786WAT     H223865   7.151   1.344   7.077  0.0455  2.1624 -0.2552
 5786WAT    EPW23866   7.178   1.321   7.147 -0.3458  0.5502 -0.6011
 5787WAT      O23867   1.320   4.332   2.159  0.1406  0.0043 -0.2607
 5787WAT     H123868   1.400   4.360   2.181  1.7251 -3.2221 -1.3774
 5787WAT     H223869   1.290   4.294   2.231  0.5463 -0.6609 -0.4373
 5787WAT    EPW23870   1.328   4.331   2.173  0.4346 -0.5705 -0.4518
 5788WAT      O23871   4.878   3.853   1.218 -0.1262 -0.1480 -0.5455
 5788WAT     H123872   4.960   3.883   1.211 -0.7920  1.3697 -3.0874
 5788WAT     H223873   4.888   3.766   1.214  1.3434  0.0178 -1.0310
 5788WAT    EPW23874   4.892   3.844   1.217 -0.0075  0.1007 -0.9927
 5789WAT      O23875   3.787   1.142   1.581  0.5231 -0.1468  0.5230
 5789WAT     H123876   3.826   1.190   1.520  0.2247 -0.2929  0.2076
 5789WAT     H223877   3.843   1.141   1.647  1.4858 -1.1368 -0.2661
 5789WAT    EPW23878   3.801   1.149   1.582  0.6212 -0.3146  0.3599
 5790WAT      O23879   7.296   6.442   1.414 -0.3080 -0.2291 -0.1660
 5790WAT     H123880   7.327   6.381   1.359 -0.3296 -0.9450  0.5872
 5790WAT     H223881   7.368   6.484   1.441 -0.3787  0.7947 -1.4707
 5790WAT    EPW23882   7.311   6.439   1.410 -0.3216 -0.1836 -0.2475
 5791WAT      O23883   1.103   1.051   5.356  0.0801  0.1716 -0.2504
 5791WAT     H123884   1.042   1.081   5.409  0.1753  0.7124 -0.4439
 5791WAT     H223885   1.144   1.123   5.328  1.1730 -0.2046  0.3106
 5791WAT    EPW23886   1.100   1.066   5.359  0.2556  0.1959 -0.1961
 5792WAT      O23887   3.709   3.637   1.308  0.2980 -0.2949 -0.4446
 5792WAT     H123888   3.624   3.639   1.325  0.5330 -0.0735  0.7892
 5792WAT     H223889   3.735   3.559   1.336  0.3016 -0.8860 -1.9789
 5792WAT    EPW23890   3.700   3.626   1.314  0.3332 -0.3495 -0.4890
 5793WAT      O23891   6.618   6.193   2.948 -0.2435  0.3151  0.5379
 5793WAT     H123892   6.546   6.210   2.901  0.0080  2.0167  0.7140
 5793WAT     H223893   6.631   6.107   2.935 -1.7624  0.1676 -0.2425
 5793WAT    EPW23894   6.609   6.183   2.939 -0.4307  0.5446  0.4486
 5794WAT      O23895   2.228   2.435   5.346 -1.2327  0.0834 -0.0792
 5794WAT     H123896   2.247   2.423   5.430 -1.7638  0.1769  0.0593
 5794WAT     H223897   2.306   2.432   5.306 -1.0382 -0.5712  0.3356
 5794WAT    EPW23898   2.243   2.433   5.352 -1.2824  0.0005  0.0025
 5795WAT      O23899   0.925   6.251   4.127  0.2729 -0.0272 -0.0789
 5795WAT     H123900   0.920   6.326   4.171  2.6470  1.0103 -1.4017
 5795WAT     H223901   0.873   6.264   4.058  0.1008  0.1113  0.0766
 5795WAT    EPW23902   0.916   6.264   4.123  0.5982  0.1465 -0.2514
 5796WAT      O23903   3.539   0.076   3.623  0.4455  0.3433 -0.0326
 5796WAT     H123904   3.605   0.056   3.677  0.2264  0.2228  0.1922
 5796WAT     H223905   3.575   0.071   3.544  0.5267 -0.4266  0.0478
 5796WAT    EPW23906   3.555   0.072   3.620  0.4251  0.2117  0.0125
 5797WAT      O23907   4.650   2.169   4.057 -0.2751  0.1583  0.9796
 5797WAT     H123908   4.622   2.142   3.979 -0.6228 -0.0893  1.1869
 5797WAT     H223909   4.580   2.160   4.108 -0.9037  2.8850  0.7663
 5797WAT    EPW23910   4.636   2.164   4.053 -0.4193  0.5245  0.9787
 5798WAT      O23911   3.064   1.170   2.496  0.5543 -0.1558 -0.6198
 5798WAT     H123912   3.128   1.224   2.522 -0.7649  1.3546 -0.2934
 5798WAT     H223913   3.100   1.123   2.433  1.7406  1.2691 -1.0483
 5798WAT    EPW23914   3.078   1.171   2.491  0.5346  0.2778 -0.6349
 5799WAT      O23915   2.855   1.455   4.817 -0.8321 -0.4822  0.2601
 5799WAT     H123916   2.911   1.389   4.823 -2.0328 -1.5283  0.3728
 5799WAT     H223917   2.907   1.525   4.811  0.4649 -1.3084  1.2851
 5799WAT    EPW23918   2.871   1.456   4.817 -0.8179 -0.7587  0.4282
 5800WAT      O23919   3.204   0.763   3.984  0.5911 -0.1222 -0.2946
 5800WAT     H123920   3.206   0.766   3.897 -0.9287  0.2357 -0.3321
 5800WAT     H223921   3.265   0.704   4.003  0.4687 -0.7192 -1.6407
 5800WAT    EPW23922   3.214   0.755   3.974  0.3485 -0.1575 -0.4990
 5801WAT      O23923   0.331   5.312   6.574  0.1684  0.5386  0.0722
 5801WAT     H123924   0.352   5.292   6.656  2.4203  0.3563 -0.4764
 5801WAT     H223925   0.385   5.379   6.555 -1.2491  1.4666 -0.8407
 5801WAT    EPW23926   0.342   5.319   6.583  0.2917  0.6488 -0.1437
 5802WAT      O23927   6.247   0.076   2.799  0.1767 -0.2965 -0.2352
 5802WAT     H123928   6.294   0.097   2.870  1.0991  1.2754 -1.2401
 5802WAT     H223929   6.175   0.125   2.806  0.1023 -0.4142 -0.1890
 5802WAT    EPW23930   6.244   0.086   2.811  0.3020 -0.0817 -0.3768
 5803WAT      O23931   1.816   4.627   6.362  0.2319  0.0914 -0.3868
 5803WAT     H123932   1.774   4.617   6.438 -1.1632 -0.6649 -1.1999
 5803WAT     H223933   1.899   4.611   6.381 -0.1795 -0.6636  0.8660
 5803WAT    EPW23934   1.822   4.623   6.376 -0.0350 -0.1318 -0.3218
 5804WAT      O23935   1.865   6.786   4.738  0.0993  0.0594  0.3590
 5804WAT     H123936   1.889   6.868   4.757  2.3200 -0.1307 -1.3131
 5804WAT     H223937   1.858   6.786   4.651  0.1122 -1.5169  0.3214
 5804WAT    EPW23938   1.867   6.798   4.728  0.4292 -0.2015  0.1065
 5805WAT      O23939   5.344   2.387   6.428 -0.1434 -0.3421 -0.2742
 5805WAT     H123940   5.320   2.333   6.492 -1.3279  0.3898 -0.0633
 5805WAT     H223941   5.305   2.354   6.358  1.4353 -1.3406 -0.7189
 5805WAT    EPW23942   5.335   2.374   6.427 -0.0852 -0.3815 -0.3088
 5806WAT      O23943   3.381   4.472   6.514  0.4845  0.3084 -0.4909
 5806WAT     H123944   3.418   4.394   6.528  0.4936  0.5229  0.8051
 5806WAT     H223945   3.321   4.455   6.453  0.5533 -0.7025 -0.2931
 5806WAT    EPW23946   3.377   4.458   6.507  0.4960  0.1908 -0.2703
 5807WAT      O23947   0.638   6.593   1.249 -0.1938  0.1781  0.3363
 5807WAT     H123948   0.593   6.621   1.318 -2.0760 -0.4075 -0.5740
 5807WAT     H223949   0.576   6.572   1.191  1.2931  0.9881 -1.6872
 5807WAT    EPW23950   0.622   6.594   1.251 -0.2522  0.2112 -0.0971
 5808WAT      O23951   5.039   0.063   6.055 -0.5210 -0.0386  0.1910
 5808WAT     H123952   5.053  -0.005   6.001 -2.4873 -0.7522  0.5223
 5808WAT     H223953   5.076   0.130   6.012  0.7804 -1.1527 -0.5122
 5808WAT    EPW23954   5.047   0.063   6.040 -0.6192 -0.3086  0.1361
 5809WAT      O23955   4.458   5.014   5.302 -0.3062  0.1866 -0.2700
 5809WAT     H123956   4.425   5.057   5.233  0.6237 -0.5253 -1.1796
 5809WAT     H223957   4.544   5.029   5.297 -0.0605 -1.0394 -0.1089
 5809WAT    EPW23958   4.466   5.022   5.291 -0.1325 -0.0996 -0.3806
 5810WAT      O23959   2.453   5.229   4.017 -0.3052 -0.1690  0.2935
 5810WAT     H123960   2.422   5.232   3.936  1.4674  1.5305 -0.3954
 5810WAT     H223961   2.474   5.145   4.027  0.3379 -0.2476 -1.3827
 5810WAT    EPW23962   2.451   5.217   4.007  0.0517  0.0704 -0.0559
 5811WAT      O23963   4.490   2.244   4.899 -0.0500 -0.4909  0.1766
 5811WAT     H123964   4.465   2.323   4.872  0.8591 -0.6288 -1.1687
 5811WAT     H223965   4.576   2.243   4.881  0.1263 -1.4580  0.9955
 5811WAT    EPW23966   4.499   2.255   4.892  0.1103 -0.6541  0.0989
 5812WAT      O23967   7.096   4.604   3.605 -0.2953 -0.7180 -0.1210
 5812WAT     H123968   7.163   4.562   3.641  0.2520 -0.0406 -0.3375
 5812WAT     H223969   7.046   4.540   3.575  0.0161 -1.2467  0.4540
 5812WAT    EPW23970   7.098   4.589   3.606 -0.1684 -0.6960 -0.0680
 5813WAT      O23971   5.546   6.168   0.879  0.3910 -0.7541 -0.1129
 5813WAT     H123972   5.571   6.238   0.834  0.1733  0.4745  1.5825
 5813WAT     H223973   5.459   6.169   0.872  0.3834 -0.8204 -0.0310
 5813WAT    EPW23974   5.537   6.178   0.871  0.3577 -0.5824  0.1497
 5814WAT      O23975   0.104   3.313   1.868 -0.5706  0.4340  0.3173
 5814WAT     H123976   0.040   3.254   1.876  0.3050 -0.6396 -0.3226
 5814WAT     H223977   0.065   3.379   1.827 -0.9746 -0.7767 -1.3544
 5814WAT    EPW23978   0.089   3.314   1.863 -0.5010  0.0966 -0.0242
 5815WAT      O23979   3.552   5.306   2.682  0.0542  0.4458  0.0996
 5815WAT     H123980   3.493   5.351   2.637 -0.5059 -1.1481 -0.8418
 5815WAT     H223981   3.529   5.318   2.765  0.6192  2.7688 -0.0148
 5815WAT    EPW23982   3.540   5.314   2.688  0.0549  0.5535 -0.0563
 5816WAT      O23983   2.844   6.787   6.588  0.5845  0.0904 -0.3048
 5816WAT     H123984   2.878   6.861   6.555  1.9151  0.1729  1.1564
 5816WAT     H223985   2.763   6.811   6.611  1.5097  1.6402  1.6845
 5816WAT    EPW23986   2.837   6.802   6.587  0.9177  0.3315  0.2049
 5817WAT      O23987   0.866   3.001   2.983 -0.6744 -0.7820 -0.4493
 5817WAT     H123988   0.791   3.042   2.964 -0.0621 -0.2929 -1.9039
 5817WAT     H223989   0.927   3.054   2.951  0.4095 -0.5785  1.7104
 5817WAT    EPW23990   0.864   3.015   2.976 -0.4238 -0.6797 -0.3452
 5818WAT      O23991   4.099   7.098   5.291 -0.5028 -0.4883  0.1376
 5818WAT     H123992   4.134   7.177   5.284 -2.2835  0.4482  1.2180
 5818WAT     H223993   4.013   7.112   5.287 -0.9617 -2.1031  2.2614
 5818WAT    EPW23994   4.092   7.112   5.289 -0.8336 -0.5885  0.6109
 5819WAT      O23995   4.035   5.956   1.049 -0.2794 -0.5970 -0.4469
 5819WAT     H123996   4.010   5.974   0.967 -0.9269  1.2683  0.1069
 5819WAT     H223997   3.962   5.925   1.086 -0.8973  1.5031  0.2150
 5819WAT    EPW23998   4.020   5.954   1.042 -0.4664 -0.0113 -0.2673
 5820WAT      O23999   3.449   0.985   0.201 -0.1833 -0.0738 -0.2203
 5820WAT     H124000   3.376   0.942   0.181 -1.4928  2.0673 -0.4309
 5820WAT     H224001   3.466   0.959   0.283 -0.5960 -1.3435 -0.5166
 5820WAT    EPW24002   3.440   0.975   0.210 -0.4377  0.0549 -0.2952
 5821WAT      O24003   5.828   5.944   0.644 -0.1538 -0.1447 -0.0940
 5821WAT     H124004   5.907   5.914   0.623 -0.5994 -1.5894  0.1971
 5821WAT     H224005   5.774   5.883   0.614 -1.0784  0.1326  0.9267
 5821WAT    EPW24006   5.832   5.930   0.636 -0.3562 -0.3172  0.0998
 5822WAT      O24007   3.499   2.230   3.439  0.1489  0.5947 -0.3047
 5822WAT     H124008   3.547   2.300   3.417  0.1380  0.6754 -0.0709
 5822WAT     H224009   3.419   2.263   3.450 -0.2777  0.2555 -2.0248
 5822WAT    EPW24010   3.494   2.245   3.437  0.0842  0.5565 -0.5242
 5823WAT      O24011   0.649   0.376   2.617 -0.2434  0.2149  0.1942
 5823WAT     H124012   0.697   0.327   2.564 -0.7599  0.1931 -0.2646
 5823WAT     H224013   0.708   0.414   2.669  0.1173 -2.1785  1.7131
 5823WAT    EPW24014   0.665   0.374   2.617 -0.2664 -0.1419  0.3508
 5824WAT      O24015   4.328   5.320   7.026 -0.3336  0.1213 -0.1760
 5824WAT     H124016   4.333   5.285   6.946  0.6063 -4.2079  1.4984
 5824WAT     H224017   4.242   5.320   7.042 -0.5535  1.3291 -1.2495
 5824WAT    EPW24018   4.316   5.314   7.017 -0.2272 -0.3398 -0.0873
 5825WAT      O24019   5.837   3.349   3.267 -0.0178 -0.0300  0.6437
 5825WAT     H124020   5.889   3.419   3.272 -1.4233  1.0468  0.6289
 5825WAT     H224021   5.846   3.312   3.346  2.0292 -0.8395  0.0920
 5825WAT    EPW24022   5.846   3.354   3.280  0.0770  0.0095  0.5600
 5826WAT      O24023   1.856   5.533   0.581 -0.1220 -0.5875 -0.7470
 5826WAT     H124024   1.829   5.465   0.628 -0.7334  0.0711 -0.1298
 5826WAT     H224025   1.805   5.531   0.510 -0.6019 -0.3681 -0.4068
 5826WAT    EPW24026   1.844   5.523   0.577 -0.2832 -0.4578 -0.6056
 5827WAT      O24027   6.900   2.246   1.185 -0.2432  0.6589 -0.0324
 5827WAT     H124028   6.987   2.240   1.195 -0.0898  0.5744 -1.2339
 5827WAT     H224029   6.881   2.177   1.135 -0.9332  0.9661 -0.2046
 5827WAT    EPW24030   6.910   2.235   1.179 -0.3225  0.6918 -0.2353
 5828WAT      O24031   0.296   5.866   3.064 -0.4468 -0.2829  0.2621
 5828WAT     H124032   0.302   5.850   2.978  2.1720  1.0681  0.0956
 5828WAT     H224033   0.257   5.794   3.095  0.2749 -1.6873 -1.8262
 5828WAT    EPW24034   0.291   5.853   3.056  0.0466 -0.2908 -0.0710
 5829WAT      O24035   4.051   4.753   0.528  0.1831  0.4105 -0.4973
 5829WAT     H124036   4.071   4.679   0.486 -0.8591 -0.9799  1.3082
 5829WAT     H224037   3.969   4.741   0.553  0.5296  1.4337  1.3170
 5829WAT    EPW24038   4.042   4.741   0.526  0.0803  0.3562  0.0374
 5830WAT      O24039   6.288   4.295   3.815 -0.0138 -0.0236 -0.2460
 5830WAT     H124040   6.329   4.311   3.740 -1.8581 -0.1149 -1.3291
 5830WAT     H224041   6.289   4.372   3.856 -0.8279  0.5970 -1.3336
 5830WAT    EPW24042   6.295   4.309   3.810 -0.4065  0.0546 -0.5667
 5831WAT      O24043   3.133   1.192   1.019  0.1518 -0.7326 -0.3768
 5831WAT     H124044   3.162   1.223   0.943 -1.6226  0.6699 -0.5347
 5831WAT     H224045   3.205   1.186   1.068  1.0593  0.1177 -1.5669
 5831WAT    EPW24046   3.148   1.196   1.015  0.0238 -0.3998 -0.5759
 5832WAT      O24047   3.130   6.171   3.575  0.1379 -0.8286  0.1188
 5832WAT     H124048   3.191   6.220   3.536 -0.8173  0.3525  0.0518
 5832WAT     H224049   3.095   6.226   3.634  0.9746 -2.3013  2.1004
 5832WAT    EPW24050   3.134   6.187   3.578  0.1204 -0.8717  0.4016
 5833WAT      O24051   5.079   2.440   6.593  0.1642  0.1510  0.3187
 5833WAT     H124052   4.995   2.425   6.573 -0.1730  1.4694  0.6668
 5833WAT     H224053   5.118   2.442   6.515  0.0232 -1.2212  0.1930
 5833WAT    EPW24054   5.072   2.438   6.579  0.0936  0.1431  0.3515
 5834WAT      O24055   3.111   0.947   5.283  0.8155 -0.1268  0.2085
 5834WAT     H124056   3.147   1.026   5.282  1.1318 -0.2560 -1.1000
 5834WAT     H224057   3.028   0.962   5.259  1.2207 -0.3048 -1.4219
 5834WAT    EPW24058   3.104   0.961   5.279  0.9221 -0.1722 -0.2257
 5835WAT      O24059   0.144   2.230   6.450 -0.2140 -0.0188  0.6413
 5835WAT     H124060   0.149   2.297   6.395 -0.9283 -1.2094 -0.9784
 5835WAT     H224061   0.069   2.244   6.493 -0.1594  0.4195  0.5906
 5835WAT    EPW24062   0.134   2.242   6.448 -0.3115 -0.1299  0.3946
 5836WAT      O24063   4.306   2.489   1.094  0.5478 -0.4640  0.3442
 5836WAT     H124064   4.387   2.459   1.096 -0.3845 -3.4908 -1.6082
 5836WAT     H224065   4.294   2.513   1.011 -0.4155  0.5511  0.7319
 5836WAT    EPW24066   4.316   2.488   1.082  0.2678 -0.7612  0.1130
 5837WAT      O24067   3.039   3.800   7.261  0.3260  0.2426  0.3290
 5837WAT     H124068   3.096   3.863   7.280 -1.4414  2.2868 -0.6433
 5837WAT     H224069   3.007   3.825   7.183 -0.9585 -1.4887  0.2591
 5837WAT    EPW24070   3.043   3.813   7.252 -0.1248  0.2888  0.1750
 5838WAT      O24071   3.993   1.301   3.025  0.0282 -0.2679  0.1880
 5838WAT     H124072   3.930   1.241   3.036  0.4619 -0.7753 -0.0621
 5838WAT     H224073   4.013   1.294   2.941 -1.5567  1.8831 -0.4536
 5838WAT    EPW24074   3.986   1.291   3.014 -0.1419 -0.0251  0.0563
 5839WAT      O24075   3.001   2.002   4.265  0.2825 -0.1810 -0.3615
 5839WAT     H124076   3.052   2.070   4.248  0.2530  0.6084  2.2136
 5839WAT     H224077   2.928   2.038   4.296  0.9642 -1.2460  2.8993
 5839WAT    EPW24078   2.998   2.018   4.267  0.3788 -0.2217  0.5006
 5840WAT      O24079   2.599   2.426   5.395 -0.3068  0.8304 -0.2067
 5840WAT     H124080   2.678   2.462   5.409  0.2959 -0.1317 -1.0069
 5840WAT     H224081   2.571   2.466   5.323  0.0381  0.2468 -0.6723
 5840WAT    EPW24082   2.607   2.437   5.387 -0.1669  0.6021 -0.3937
 5841WAT      O24083   7.262   2.103   7.045 -0.4069 -0.1964  0.2590
 5841WAT     H124084   7.180   2.088   7.073 -0.0670  0.0670  1.4565
 5841WAT     H224085   7.259   2.185   7.017 -0.5924 -0.2277  0.1848
 5841WAT    EPW24086   7.249   2.113   7.045 -0.3841 -0.1621  0.4249
 5842WAT      O24087   7.118   3.386   2.143  0.1203  0.6617 -0.2884
 5842WAT     H124088   7.090   3.377   2.225 -0.2806  0.3385 -0.4610
 5842WAT     H224089   7.125   3.473   2.134 -0.8300  0.7520 -0.2422
 5842WAT    EPW24090   7.115   3.398   2.154 -0.0793  0.6273 -0.3070
 5843WAT      O24091   4.631   7.028   3.467  0.3340 -0.0716  0.1095
 5843WAT     H124092   4.572   7.057   3.410  2.0046  1.1648 -1.0867
 5843WAT     H224093   4.610   7.069   3.541  0.4682  1.4820 -0.6614
 5843WAT    EPW24094   4.620   7.039   3.470  0.6006  0.3406 -0.1811
 5844WAT      O24095   3.972   4.864   1.288  0.2961  0.1915 -0.3688
 5844WAT     H124096   3.893   4.898   1.272  0.0056  0.5082  1.4257
 5844WAT     H224097   4.026   4.912   1.239 -0.5653  0.3100 -1.2290
 5844WAT    EPW24098   3.968   4.876   1.279  0.1260  0.2558 -0.2308
 5845WAT      O24099   3.346   2.034   2.886 -0.0517 -0.1533  0.2332
 5845WAT     H124100   3.276   2.080   2.912  0.2710  0.9508 -0.7433
 5845WAT     H224101   3.412   2.091   2.894  0.3296 -0.3636 -1.1838
 5845WAT    EPW24102   3.345   2.049   2.891  0.0523 -0.0213 -0.1204
 5846WAT      O24103   0.409   0.590   6.061 -0.2331 -0.0563 -0.1411
 5846WAT     H124104   0.379   0.622   6.136  1.2030 -0.4418  0.6123
 5846WAT     H224105   0.427   0.507   6.079  1.2605  0.1554 -0.5634
 5846WAT    EPW24106   0.407   0.583   6.074  0.1997 -0.0820 -0.0922
 5847WAT      O24107   6.738   0.799   1.751 -0.5454 -0.6208  0.3754
 5847WAT     H124108   6.780   0.790   1.827  0.2437 -1.1847 -0.1020
 5847WAT     H224109   6.798   0.775   1.692 -0.4868  1.6171 -0.5863
 5847WAT    EPW24110   6.753   0.794   1.753 -0.4202 -0.3735  0.1628
 5848WAT      O24111   0.245   5.306   5.949  0.7256  0.1092  0.0223
 5848WAT     H124112   0.189   5.326   6.012  0.5217  0.3864 -0.2431
 5848WAT     H224113   0.262   5.383   5.912  0.8134 -0.0570 -0.2850
 5848WAT    EPW24114   0.239   5.321   5.953  0.7085  0.1256 -0.0623
 5849WAT      O24115   0.997   4.384   7.147 -0.3435 -0.6226  0.0871
 5849WAT     H124116   0.939   4.378   7.083 -1.1570  1.0619  0.5833
 5849WAT     H224117   1.053   4.445   7.119 -0.6305  0.0357  0.8860
 5849WAT    EPW24118   0.997   4.392   7.134 -0.5060 -0.2765  0.2784
 5850WAT      O24119   2.929   2.924   7.105 -0.1656 -0.1176  0.0636
 5850WAT     H124120   2.876   2.962   7.047  0.9166 -0.8916 -1.4968
 5850WAT     H224121   2.909   2.839   7.098  1.0532 -0.3933 -0.3449
 5850WAT    EPW24122   2.918   2.917   7.096  0.1743 -0.2727 -0.2272
 5851WAT      O24123   0.757   3.671   2.811 -0.0298  0.7621  0.3452
 5851WAT     H124124   0.787   3.746   2.843  2.3540  0.2486 -0.4809
 5851WAT     H224125   0.823   3.642   2.761 -1.8277 -0.6630 -1.3637
 5851WAT    EPW24126   0.771   3.678   2.809  0.0568  0.4757 -0.0293
 5852WAT      O24127   4.073   5.746   3.926 -0.1638 -0.7303 -0.5085
 5852WAT     H124128   4.107   5.742   4.006  1.1886 -2.5439 -1.0965
 5852WAT     H224129   4.002   5.696   3.931 -0.8816  0.2945 -0.1276
 5852WAT    EPW24130   4.068   5.738   3.939 -0.0701 -0.8468 -0.5391
 5853WAT      O24131   7.307   5.588   4.029  0.4316 -0.2221 -0.3161
 5853WAT     H124132   7.269   5.630   3.962 -1.2613 -1.6013 -0.3015
 5853WAT     H224133   7.272   5.625   4.099  0.6679 -0.1123 -0.2591
 5853WAT    EPW24134   7.296   5.599   4.029  0.2164 -0.4096 -0.3055
 5854WAT      O24135   3.229   0.314   3.016 -0.3016 -0.6769  0.4215
 5854WAT     H124136   3.162   0.259   3.023  0.0653 -1.0482  0.9858
 5854WAT     H224137   3.299   0.265   3.031  0.0495 -0.1179  0.6629
 5854WAT    EPW24138   3.229   0.299   3.019 -0.1955 -0.6492  0.5405
 5855WAT      O24139   1.083   5.005   2.782  0.1893  0.3290 -0.0325
 5855WAT     H124140   1.013   5.054   2.764  1.4273  2.4388  0.5967
 5855WAT     H224141   1.134   5.015   2.712  0.0847 -0.8603 -0.3031
 5855WAT    EPW24142   1.080   5.014   2.769  0.3568  0.4650  0.0205
 5856WAT      O24143   4.905   5.875   2.216 -0.3073 -0.1325 -0.3923
 5856WAT     H124144   4.858   5.918   2.157  0.0726  0.7056 -0.1007
 5856WAT     H224145   4.888   5.917   2.290  1.2095  0.4671 -0.3484
 5856WAT    EPW24146   4.896   5.888   2.218 -0.0271  0.0798 -0.3428
 5857WAT      O24147   3.694   4.912   2.928  0.4860  0.1184  0.4381
 5857WAT     H124148   3.781   4.918   2.929  0.4852  0.1365  1.4463
 5857WAT     H224149   3.669   4.980   2.976 -0.2001  1.4218 -1.6482
 5857WAT    EPW24150   3.703   4.923   2.936  0.3845  0.3136  0.2788
 5858WAT      O24151   2.229   4.148   5.672  0.4335 -0.0833 -0.4353
 5858WAT     H124152   2.308   4.142   5.636  0.9338 -0.6124  0.6918
 5858WAT     H224153   2.191   4.072   5.652 -0.1916  0.5508 -1.8095
 5858WAT    EPW24154   2.235   4.136   5.664  0.4151 -0.0678 -0.4718
 5859WAT      O24155   1.062   0.254   1.431  0.2027 -0.0551 -0.1114
 5859WAT     H124156   0.987   0.295   1.448 -0.2584 -1.0536  0.3643
 5859WAT     H224157   1.096   0.300   1.365 -1.4541 -0.3230 -1.2166
 5859WAT    EPW24158   1.056   0.266   1.424 -0.1101 -0.2422 -0.2044
 5860WAT      O24159   1.214   5.725   4.522  0.1697 -0.2227  0.1059
 5860WAT     H124160   1.242   5.793   4.474  0.7536 -0.0445  0.6870
 5860WAT     H224161   1.146   5.695   4.476  0.7572 -0.1015 -0.8761
 5860WAT    EPW24162   1.208   5.731   4.508  0.3427 -0.1784  0.0467
 5861WAT      O24163   6.180   0.067   1.793  0.0409 -0.3592  0.0814
 5861WAT     H124164   6.248   0.012   1.792  0.5616  0.2584 -1.8003
 5861WAT     H224165   6.144   0.053   1.871  1.0091 -2.3119  0.2379
 5861WAT    EPW24166   6.185   0.057   1.805  0.2608 -0.5564 -0.1735
 5862WAT      O24167   2.647   0.815   6.990  0.4043 -0.2053  0.4252
 5862WAT     H124168   2.655   0.745   7.042 -1.2776 -0.4864  0.3651
 5862WAT     H224169   2.715   0.865   7.013  1.2262 -1.5175  0.9896
 5862WAT    EPW24170   2.658   0.812   7.001  0.2773 -0.4406  0.4997
 5863WAT      O24171   5.079   1.002   1.121 -0.2183  0.1709 -0.0096
 5863WAT     H124172   5.054   1.085   1.110 -0.1769  0.2023  0.1324
 5863WAT     H224173   5.019   0.970   1.176 -1.1460 -0.3265 -1.2560
 5863WAT    EPW24174   5.066   1.009   1.127 -0.3492  0.1021 -0.1727
 5864WAT      O24175   1.398   6.000   5.578 -0.1835  0.0755  0.6819
 5864WAT     H124176   1.467   5.959   5.612 -0.5045 -1.2366 -0.1714
 5864WAT     H224177   1.431   6.044   5.511 -0.0954 -0.1621  0.5688
 5864WAT    EPW24178   1.413   6.000   5.573 -0.2179 -0.1534  0.5392
 5865WAT      O24179   1.741   3.026   0.306  0.2352 -0.0302 -0.1436
 5865WAT     H124180   1.720   2.962   0.361 -0.0316 -0.6932 -0.9936
 5865WAT     H224181   1.667   3.040   0.262 -0.3595  2.3855  1.4693
 5865WAT    EPW24182   1.727   3.018   0.308  0.1080  0.2287 -0.0309
 5866WAT      O24183   4.772   1.059   1.735 -0.0753 -0.2060  0.3179
 5866WAT     H124184   4.846   1.066   1.688  0.5343  0.2954  1.3085
 5866WAT     H224185   4.801   1.039   1.815 -1.1215 -1.6151  0.3794
 5866WAT    EPW24186   4.787   1.058   1.740 -0.1398 -0.3401  0.4733
 5867WAT      O24187   3.174   0.076   1.993 -0.5557  0.0974  0.1517
 5867WAT     H124188   3.153  -0.007   2.010  4.1010 -0.8827  3.2177
 5867WAT     H224189   3.181   0.112   2.072  2.8723  1.6221 -0.6436
 5867WAT    EPW24190   3.172   0.069   2.007  0.6386  0.1779  0.4871
 5868WAT      O24191   5.175   6.341   2.171 -0.3806  0.0101 -0.4847
 5868WAT     H124192   5.235   6.290   2.208  0.2718 -0.0934 -1.6438
 5868WAT     H224193   5.111   6.343   2.230  0.2738 -0.8038  0.2857
 5868WAT    EPW24194   5.174   6.334   2.185 -0.1876 -0.1254 -0.5421
 5869WAT      O24195   1.292   2.468   5.375 -0.0051  0.2449 -0.3115
 5869WAT     H124196   1.215   2.510   5.378 -0.4175 -0.3050 -2.0131
 5869WAT     H224197   1.350   2.533   5.365 -0.0616  0.7744  2.3051
 5869WAT    EPW24198   1.289   2.484   5.374 -0.0744  0.2419 -0.1764
 5870WAT      O24199   5.857   5.376   5.312 -0.2039 -0.2302 -0.1880
 5870WAT     H124200   5.910   5.308   5.297  0.2745  0.1008 -0.0264
 5870WAT     H224201   5.827   5.396   5.232 -1.2696 -1.3513 -0.1001
 5870WAT    EPW24202   5.860   5.369   5.298 -0.2907 -0.3469 -0.1511
 5871WAT      O24203   1.623   6.364   0.055 -0.1499 -0.0957 -0.5273
 5871WAT     H124204   1.630   6.364   0.142  0.9308  0.7898 -0.5943
 5871WAT     H224205   1.557   6.310   0.040  0.5693 -1.4193  0.7769
 5871WAT    EPW24206   1.615   6.356   0.065  0.1160 -0.1604 -0.3445
 5872WAT      O24207   2.516   6.296   4.577 -0.2089 -1.0568 -0.0003
 5872WAT     H124208   2.525   6.356   4.640  0.3856 -1.4621  0.3020
 5872WAT     H224209   2.430   6.296   4.562 -0.4222 -1.2465  1.1011
 5872WAT    EPW24210   2.504   6.305   4.584 -0.1526 -1.1447  0.2071
 5873WAT      O24211   2.775   2.964   1.946  0.5371  0.0423  0.4276
 5873WAT     H124212   2.754   3.049   1.953  0.7872  0.1373  0.0735
 5873WAT     H224213   2.703   2.923   1.972  0.4879  0.3666  0.8136
 5873WAT    EPW24214   2.761   2.971   1.951  0.5668  0.1042  0.4323
 5874WAT      O24215   2.321   3.117   2.929 -0.2414 -0.6424  0.2338
 5874WAT     H124216   2.397   3.160   2.930 -0.0351 -0.9201  2.6086
 5874WAT     H224217   2.336   3.050   2.876  0.8375 -0.1444 -0.1281
 5874WAT    EPW24218   2.335   3.114   2.921 -0.0516 -0.6098  0.5311
 5875WAT      O24219   5.251   3.889   3.301  0.0956 -0.2068  0.3951
 5875WAT     H124220   5.285   3.885   3.381 -0.9688  0.1898  0.8816
 5875WAT     H224221   5.187   3.831   3.303 -0.4121  0.3314  0.0673
 5875WAT    EPW24222   5.247   3.880   3.313 -0.1366 -0.0687  0.4185
 5876WAT      O24223   1.575   6.949   2.251  0.7919 -0.2285  0.0503
 5876WAT     H124224   1.623   7.006   2.296  0.8740  0.2111 -0.5879
 5876WAT     H224225   1.587   6.972   2.168 -0.9641  0.2668 -0.1176
 5876WAT    EPW24226   1.584   6.961   2.246  0.5446 -0.0904 -0.0688
 5877WAT      O24227   4.838   0.113   5.311  0.0463  0.4712 -0.0967
 5877WAT     H124228   4.828   0.027   5.305 -0.2561  0.5520 -1.0589
 5877WAT     H224229   4.918   0.127   5.281 -0.3994  0.6268 -1.2834
 5877WAT    EPW24230   4.848   0.102   5.306 -0.0642  0.5062 -0.4141
 5878WAT      O24231   3.741   2.616   1.087  0.1873 -0.0577 -0.2201
 5878WAT     H124232   3.717   2.686   1.133 -1.8685 -0.7931 -0.1120
 5878WAT     H224233   3.769   2.560   1.148  2.7356  0.8966 -0.3652
 5878WAT    EPW24234   3.742   2.618   1.103  0.2600 -0.0254 -0.2256
 5879WAT      O24235   3.838   7.227   2.509  0.0882 -0.6459 -0.2653
 5879WAT     H124236   3.781   7.236   2.575  3.2932 -1.1793  2.9158
 5879WAT     H224237   3.835   7.304   2.469 -0.0412  0.8931  2.4143
 5879WAT    EPW24238   3.829   7.240   2.513  0.5425 -0.4973  0.6005
 5880WAT      O24239   3.744   1.084   5.532 -0.0160 -0.1285  0.1066
 5880WAT     H124240   3.729   1.015   5.480 -1.6492  2.1480 -2.8013
 5880WAT     H224241   3.831   1.089   5.534  0.1206 -1.0297 -1.4379
 5880WAT    EPW24242   3.754   1.074   5.524 -0.2371  0.0747 -0.5511
 5881WAT      O24243   3.196   5.381   2.881  0.2445 -0.3513 -0.5994
 5881WAT     H124244   3.132   5.361   2.938  0.7785  0.0234  0.1465
 5881WAT     H224245   3.269   5.363   2.925  0.6828  0.7557 -0.8530
 5881WAT    EPW24246   3.197   5.375   2.896  0.3881 -0.1324 -0.5267
 5882WAT      O24247   1.782   7.216   6.772 -0.4414  0.9239  0.1303
 5882WAT     H124248   1.779   7.265   6.844 -0.0672  2.4643 -0.8693
 5882WAT     H224249   1.862   7.182   6.773 -0.3321  1.1858  0.2818
 5882WAT    EPW24250   1.793   7.218   6.783 -0.3699  1.1901  0.0050
 5883WAT      O24251   7.052   4.963   7.422  0.2319  0.1513  0.3923
 5883WAT     H124252   6.978   4.924   7.396  0.2910  0.5301 -0.3496
 5883WAT     H224253   7.096   4.977   7.348  0.0855  1.8927  0.5932
 5883WAT    EPW24254   7.048   4.959   7.407  0.2190  0.4645  0.3124
 5884WAT      O24255   5.976   3.313   3.771 -0.3732 -0.1960  0.4121
 5884WAT     H124256   6.028   3.246   3.794  0.9280  0.1670 -1.2450
 5884WAT     H224257   6.029   3.382   3.774 -1.0336  0.3593 -0.3081
 5884WAT    EPW24258   5.992   3.313   3.775 -0.2785 -0.0603  0.0609
 5885WAT      O24259   2.526   3.979   6.838  0.0687 -0.2874 -0.4749
 5885WAT     H124260   2.521   4.035   6.771 -0.2555  1.7155  1.1280
 5885WAT     H224261   2.469   3.916   6.816 -1.4222  1.2524 -1.2739
 5885WAT    EPW24262   2.517   3.978   6.825 -0.1994  0.2360 -0.3561
 5886WAT      O24263   4.051   2.984   5.237 -0.5755 -0.1342 -0.1875
 5886WAT     H124264   4.103   2.986   5.167  0.7047 -3.3779  0.5104
 5886WAT     H224265   3.974   2.958   5.205 -0.6085  0.4729 -0.6238
 5886WAT    EPW24266   4.047   2.981   5.222 -0.3913 -0.5236 -0.1488
 5887WAT      O24267   5.479   5.847   7.392 -0.0139  0.3920  0.0936
 5887WAT     H124268   5.480   5.760   7.394  1.1000  0.3976  1.4749
 5887WAT     H224269   5.455   5.865   7.310  0.8634 -1.2216 -0.5777
 5887WAT    EPW24270   5.476   5.837   7.380  0.2802  0.1545  0.1985
 5888WAT      O24271   4.378   6.059   1.462  0.4834 -0.0816 -0.5842
 5888WAT     H124272   4.410   6.111   1.524 -0.5504 -0.1862  0.0659
 5888WAT     H224273   4.386   5.979   1.497  0.7687 -0.2277 -0.9852
 5888WAT    EPW24274   4.384   6.055   1.477  0.3728 -0.1187 -0.5474
 5889WAT      O24275   4.460   6.203   4.132  0.0801  0.0180 -0.2353
 5889WAT     H124276   4.426   6.244   4.063  1.7511  1.8293 -0.0619
 5889WAT     H224277   4.447   6.258   4.198  1.6941 -0.0240  0.1542
 5889WAT    EPW24278   4.453   6.217   4.131  0.5653  0.2794 -0.1521
 5890WAT      O24279   5.237   6.301   6.276  0.0524 -0.4593 -0.0502
 5890WAT     H124280   5.306   6.249   6.263 -0.4352 -0.9521 -0.7721
 5890WAT     H224281   5.170   6.246   6.279 -0.2752 -0.0148  1.0472
 5890WAT    EPW24282   5.238   6.285   6.274 -0.0680 -0.4664  0.0053
 5891WAT      O24283   5.327   2.679   0.124  0.0524 -0.5647  0.2348
 5891WAT     H124284   5.314   2.624   0.058  0.1477 -1.5607  1.0331
 5891WAT     H224285   5.409   2.664   0.148  0.6277  1.0734 -0.5580
 5891WAT    EPW24286   5.337   2.669   0.118  0.1514 -0.4699  0.2356
 5892WAT      O24287   2.186   6.735   0.740  0.1399 -0.0439 -0.0122
 5892WAT     H124288   2.195   6.649   0.748 -0.6994 -0.0030  1.7421
 5892WAT     H224289   2.230   6.767   0.808 -0.0740  0.8803 -0.2880
 5892WAT    EPW24290   2.194   6.727   0.751 -0.0157  0.0987  0.2062
 5893WAT      O24291   4.712   2.695   6.433  0.4265  0.4992 -0.5783
 5893WAT     H124292   4.737   2.631   6.379 -0.7406  0.9015 -1.6251
 5893WAT     H224293   4.786   2.716   6.475  0.5264 -2.6973  1.1119
 5893WAT    EPW24294   4.727   2.689   6.432  0.2689  0.0865 -0.4832
 5894WAT      O24295   3.104   7.235   1.057  0.2294 -0.3389 -1.0107
 5894WAT     H124296   3.127   7.318   1.071 -0.5133 -0.1212 -1.0503
 5894WAT     H224297   3.165   7.190   1.100  1.0422  0.2008 -1.5735
 5894WAT    EPW24298   3.117   7.241   1.066  0.2397 -0.2270 -1.0997
 5895WAT      O24299   6.170   2.295   6.098  0.1829 -0.1788 -0.1280
 5895WAT     H124300   6.227   2.240   6.062 -1.1796 -1.2376 -0.7625
 5895WAT     H224301   6.205   2.312   6.176  1.3186 -0.8592 -0.4612
 5895WAT    EPW24302   6.184   2.289   6.104  0.1494 -0.4357 -0.2710
 5896WAT      O24303   1.458   1.796   2.500  0.6567  1.1434 -0.6571
 5896WAT     H124304   1.450   1.717   2.463 -0.2869  0.9414 -0.0619
 5896WAT     H224305   1.543   1.815   2.491  1.7893 -1.5678  2.3587
 5896WAT    EPW24306   1.469   1.787   2.494  0.6846  0.7131 -0.1237
 5897WAT      O24307   0.646   1.556   2.513 -0.4119  0.2029 -0.5402
 5897WAT     H124308   0.616   1.618   2.459  1.3726  0.9874 -0.6886
 5897WAT     H224309   0.634   1.482   2.468 -0.6956  0.6523 -1.2207
 5897WAT    EPW24310   0.640   1.554   2.498 -0.1902  0.3852 -0.6626
 5898WAT      O24311   0.262   0.088   4.477  0.0151 -0.3897 -0.0774
 5898WAT     H124312   0.287   0.065   4.558  0.5609 -1.1238 -0.4463
 5898WAT     H224313   0.291   0.169   4.469 -0.7402 -0.0237  0.7534
 5898WAT    EPW24314   0.270   0.096   4.488 -0.0158 -0.4441 -0.0092
 5899WAT      O24315   5.036   1.983   5.474  0.0927  0.3580 -0.3141
 5899WAT     H124316   5.094   1.955   5.415  0.6061  0.3770  0.1751
 5899WAT     H224317   5.021   2.066   5.450 -0.3303  0.1275 -0.8967
 5899WAT    EPW24318   5.042   1.992   5.462  0.1060  0.3268 -0.3279
 5900WAT      O24319   5.044   6.508   6.686 -0.4509  0.4173 -0.0709
 5900WAT     H124320   5.044   6.578   6.634  0.8817 -0.7829 -1.8030
 5900WAT     H224321   5.117   6.466   6.664  0.0904 -0.2921  2.6752
 5900WAT    EPW24322   5.055   6.512   6.675 -0.1741  0.1352  0.0789
 5901WAT      O24323   4.986   0.741   1.842 -0.3137  0.2200  0.6557
 5901WAT     H124324   5.026   0.758   1.767 -0.3378  0.3313  0.6675
 5901WAT     H224325   4.972   0.655   1.840  0.2999  0.1138  0.8358
 5901WAT    EPW24326   4.990   0.730   1.831 -0.2266  0.2207  0.6840
 5902WAT      O24327   1.476   6.751   3.908  0.4978  0.0481  0.1270
 5902WAT     H124328   1.548   6.783   3.871  0.5540 -0.9016 -0.6296
 5902WAT     H224329   1.491   6.665   3.911 -0.2214 -0.0636  0.8094
 5902WAT    EPW24330   1.489   6.743   3.903  0.3998 -0.1087  0.1160
 5903WAT      O24331   4.486   7.058   4.615 -0.0648  0.2287 -0.3273
 5903WAT     H124332   4.447   7.065   4.538  1.1343  2.3840 -0.7941
 5903WAT     H224333   4.561   7.101   4.605 -0.2141  1.2538  2.2435
 5903WAT    EPW24334   4.491   7.065   4.602  0.0903  0.6985 -0.0165
 5904WAT      O24335   1.801   6.811   2.362 -0.1182 -0.2097 -0.3093
 5904WAT     H124336   1.815   6.733   2.326 -1.1033 -0.5695  0.0485
 5904WAT     H224337   1.724   6.835   2.330 -1.0719 -0.5851  1.5806
 5904WAT    EPW24338   1.792   6.803   2.352 -0.4046 -0.3183  0.0228
 5905WAT      O24339   6.849   0.988   2.327  0.4325 -0.3078  0.0614
 5905WAT     H124340   6.873   1.001   2.410  1.8894  0.2062 -0.4001
 5905WAT     H224341   6.857   0.902   2.317 -0.3416 -0.4457  0.6215
 5905WAT    EPW24342   6.854   0.977   2.338  0.5333 -0.2522  0.0760
 5906WAT      O24343   3.374   4.834   2.295 -0.0109 -0.1484 -0.1897
 5906WAT     H124344   3.364   4.859   2.212  2.2424  1.0502 -0.1829
 5906WAT     H224345   3.364   4.747   2.292  0.4608 -0.1730 -1.7924
 5906WAT    EPW24346   3.371   4.825   2.282  0.3917  0.0250 -0.4254
 5907WAT      O24347   1.127   5.426   7.189 -0.5983  0.0935  0.7813
 5907WAT     H124348   1.194   5.373   7.209  0.3515  0.8320 -0.2616
 5907WAT     H224349   1.102   5.458   7.266  1.7008  1.4400  1.0843
 5907WAT    EPW24350   1.133   5.423   7.203 -0.1184  0.4015  0.6720
 5908WAT      O24351   1.547   2.439   1.280 -0.1185  0.1224 -0.1049
 5908WAT     H124352   1.532   2.524   1.285 -0.0744  0.2269 -1.5826
 5908WAT     H224353   1.592   2.423   1.354 -2.4442  0.8166  1.5837
 5908WAT    EPW24354   1.551   2.449   1.292 -0.4555  0.2404 -0.0737
 5909WAT      O24355   4.790   2.534   4.677  0.4754 -0.0000  0.4817
 5909WAT     H124356   4.727   2.589   4.652  0.9788 -0.1676 -1.2674
 5909WAT     H224357   4.864   2.576   4.657  0.8753 -0.9486 -0.0912
 5909WAT    EPW24358   4.792   2.549   4.670  0.6089 -0.1649  0.1387
 5910WAT      O24359   3.023   0.799   1.693  0.5093 -0.1195  0.2086
 5910WAT     H124360   3.095   0.757   1.718  1.7848  2.1368  0.6370
 5910WAT     H224361   2.993   0.834   1.767 -0.9433 -0.8658  0.0015
 5910WAT    EPW24362   3.029   0.798   1.708  0.4831  0.1036  0.2413
 5911WAT      O24363   5.106   4.212   5.893 -0.6355 -0.4117  0.1699
 5911WAT     H124364   5.037   4.165   5.868  0.5979 -3.1650  1.4567
 5911WAT     H224365   5.099   4.286   5.848 -4.0608 -0.8085 -0.1904
 5911WAT    EPW24366   5.095   4.216   5.883 -0.9592 -0.8771  0.3068
 5912WAT      O24367   6.562   1.059   4.485  0.0484  0.3174 -0.2651
 5912WAT     H124368   6.559   0.974   4.501 -2.2031  0.4076  0.1467
 5912WAT     H224369   6.611   1.090   4.550 -0.0707 -0.5560  0.2579
 5912WAT    EPW24370   6.569   1.051   4.497 -0.3018  0.2017 -0.1270
 5913WAT      O24371   5.325   4.927   3.667  0.3287 -0.0786  0.5236
 5913WAT     H124372   5.325   4.849   3.628  1.4252 -2.0300  3.9262
 5913WAT     H224373   5.240   4.946   3.674  0.0695 -0.1313 -1.6666
 5913WAT    EPW24374   5.313   4.918   3.662  0.4524 -0.3747  0.7027
 5914WAT      O24375   6.029   5.651   2.005 -0.0338  0.0597  0.6260
 5914WAT     H124376   6.010   5.659   1.920 -2.1651 -1.2542  0.9049
 5914WAT     H224377   5.951   5.657   2.044  0.8200  0.0166  2.4560
 5914WAT    EPW24378   6.014   5.653   1.998 -0.2225 -0.1408  0.9375
 5915WAT      O24379   2.767   4.044   6.999 -0.1382 -0.2521 -0.4885
 5915WAT     H124380   2.696   4.021   6.953 -0.2643  1.7974 -1.4057
 5915WAT     H224381   2.742   4.034   7.082 -1.1559 -0.5383 -0.8184
 5915WAT    EPW24382   2.753   4.039   7.005 -0.3072  0.0083 -0.6728
 5916WAT      O24383   1.308   3.412   6.987 -0.1913 -0.2456  1.0766
 5916WAT     H124384   1.384   3.411   6.945 -0.3435  0.4258  0.7637
 5916WAT     H224385   1.302   3.333   7.022  0.8333 -0.1679  1.4337
 5916WAT    EPW24386   1.318   3.400   6.986 -0.0624 -0.1349  1.0831
 5917WAT      O24387   2.157   0.898   1.625  0.9400  0.6677 -0.3013
 5917WAT     H124388   2.199   0.878   1.698  0.6855  0.6804 -0.1484
 5917WAT     H224389   2.136   0.982   1.635  0.7208  0.6144 -0.2923
 5917WAT    EPW24390   2.160   0.907   1.637  0.8700  0.6617 -0.2774
 5918WAT      O24391   2.012   5.994   0.528  0.0902  0.1311  0.3248
 5918WAT     H124392   1.972   6.069   0.505 -0.4553 -0.7730 -1.9246
 5918WAT     H224393   2.084   5.994   0.479 -0.1392 -1.0054 -0.0388
 5918WAT    EPW24394   2.017   6.005   0.518 -0.0243 -0.1704 -0.0612
 5919WAT      O24395   6.156   3.859   3.418 -0.2491 -0.1210  0.3327
 5919WAT     H124396   6.178   3.775   3.408 -0.8140 -0.6721  2.9287
 5919WAT     H224397   6.084   3.867   3.370  0.4593 -0.7833 -0.8711
 5919WAT    EPW24398   6.148   3.848   3.410 -0.2279 -0.3003  0.5384
 5920WAT      O24399   6.886   3.328   6.294 -0.0710 -0.0478  0.0896
 5920WAT     H124400   6.841   3.402   6.279 -0.0524  0.0711  0.6191
 5920WAT     H224401   6.938   3.322   6.223 -2.5593 -1.4596 -1.7431
 5920WAT    EPW24402   6.887   3.338   6.281 -0.4358 -0.2388 -0.1029
 5921WAT      O24403   4.400   5.343   3.810 -0.0242  0.5784  0.0680
 5921WAT     H124404   4.482   5.347   3.783 -0.3078  0.1812 -0.8970
 5921WAT     H224405   4.405   5.365   3.894  1.3238 -1.2307  0.5270
 5921WAT    EPW24406   4.413   5.347   3.818  0.1330  0.2525 -0.0067
 5922WAT      O24407   6.297   2.832   5.186 -0.1564 -0.2668  0.3370
 5922WAT     H124408   6.325   2.767   5.133 -0.2344 -0.5604  0.6526
 5922WAT     H224409   6.211   2.830   5.176 -0.0654  1.1413 -1.2275
 5922WAT    EPW24410   6.289   2.822   5.177 -0.1545 -0.1021  0.1525
 5923WAT      O24411   1.853   2.728   1.770 -0.5200 -0.2136 -0.0248
 5923WAT     H124412   1.789   2.779   1.740 -0.5541  2.0026  3.3068
 5923WAT     H224413   1.813   2.678   1.830  0.7347  1.1463  2.0521
 5923WAT    EPW24414   1.837   2.728   1.774 -0.3397  0.3147  0.7741
 5924WAT      O24415   6.177   3.539   0.321  0.3235  0.1499  0.1581
 5924WAT     H124416   6.148   3.598   0.264  0.4456  1.6672  1.5700
 5924WAT     H224417   6.114   3.536   0.381  0.9347 -0.0846  0.8093
 5924WAT    EPW24418   6.163   3.548   0.321  0.4318  0.3394  0.4629
 5925WAT      O24419   6.412   0.212   3.546 -0.0335 -0.5847  0.0019
 5925WAT     H124420   6.497   0.200   3.529 -0.1783 -0.8924 -0.5419
 5925WAT     H224421   6.382   0.130   3.557 -0.3891 -0.5182 -0.4702
 5925WAT    EPW24422   6.420   0.198   3.545 -0.1074 -0.6203 -0.1482
 5926WAT      O24423   2.132   2.757   0.403  0.2595 -0.4041 -0.3157
 5926WAT     H124424   2.188   2.812   0.364 -0.2142 -0.1258 -0.6263
 5926WAT     H224425   2.077   2.735   0.338 -0.4227 -0.0896  0.1327
 5926WAT    EPW24426   2.132   2.762   0.388  0.0887 -0.3166 -0.2954
 5927WAT      O24427   5.443   4.439   1.974 -0.3028  0.1607  0.1399
 5927WAT     H124428   5.452   4.381   1.910 -0.2104 -0.0123  0.3066
 5927WAT     H224429   5.484   4.510   1.944  0.9056 -0.3307  0.5285
 5927WAT    EPW24430   5.451   4.441   1.960 -0.1106  0.0625  0.2219
 5928WAT      O24431   0.583   2.968   3.708  0.3072  0.2184 -0.0843
 5928WAT     H124432   0.667   2.950   3.693  0.4063  0.9335 -0.4196
 5928WAT     H224433   0.541   2.896   3.682  0.8219 -0.1845  0.1824
 5928WAT    EPW24434   0.589   2.955   3.702  0.3979  0.2645 -0.0945
 5929WAT      O24435   6.256   1.506   2.476 -0.6542  0.2062 -0.6668
 5929WAT     H124436   6.191   1.448   2.471 -0.5728 -0.0716  1.0104
 5929WAT     H224437   6.229   1.563   2.537  0.4030  0.4185 -0.3742
 5929WAT    EPW24438   6.242   1.506   2.484 -0.4860  0.1966 -0.3758
 5930WAT      O24439   4.535   6.924   2.621 -0.0869  0.0437  0.6016
 5930WAT     H124440   4.559   6.845   2.649 -0.8523 -0.0145  1.1214
 5930WAT     H224441   4.451   6.928   2.643 -0.0399  1.0246  0.6233
 5930WAT    EPW24442   4.526   6.913   2.628 -0.1930  0.1800  0.6816
 5931WAT      O24443   2.814   1.823   4.769  0.3996  0.0604 -0.2928
 5931WAT     H124444   2.810   1.888   4.827  0.4186 -0.6679  0.5425
 5931WAT     H224445   2.785   1.860   4.696 -0.4757  0.7676  0.3820
 5931WAT    EPW24446   2.810   1.838   4.767  0.2731  0.0573 -0.0697
 5932WAT      O24447   4.168   6.126   2.359  0.4998  0.3243 -0.0665
 5932WAT     H124448   4.149   6.199   2.314 -0.6031  0.6492  0.8861
 5932WAT     H224449   4.135   6.062   2.310 -1.7678  0.7595  0.7743
 5932WAT    EPW24450   4.160   6.128   2.345  0.0019  0.4366  0.1984
 5933WAT      O24451   2.464   6.637   5.938 -0.4575  0.0748  0.1030
 5933WAT     H124452   2.535   6.586   5.948 -0.9596 -0.9732 -1.2998
 5933WAT     H224453   2.497   6.709   5.903 -0.0111 -0.2095 -0.0829
 5933WAT    EPW24454   2.480   6.640   5.934 -0.4657 -0.1220 -0.1317
 5934WAT      O24455   0.549   7.069   6.147 -0.2386 -0.5079 -0.2970
 5934WAT     H124456   0.502   7.068   6.074 -0.1248 -0.7531 -0.3665
 5934WAT     H224457   0.516   7.003   6.194 -0.7505  0.0542  0.1522
 5934WAT    EPW24458   0.537   7.059   6.143 -0.2974 -0.4611 -0.2409
 5935WAT      O24459   6.548   3.365   0.078 -0.4501  0.3765  0.0227
 5935WAT     H124460   6.623   3.321   0.086 -1.1111 -1.0304 -1.0976
 5935WAT     H224461   6.567   3.428   0.021 -0.3847 -0.7237 -1.2267
 5935WAT    EPW24462   6.562   3.368   0.071 -0.5381  0.0062 -0.3274
 5936WAT      O24463   4.348   1.318   3.804 -0.0011  0.1439  0.4009
 5936WAT     H124464   4.272   1.361   3.806  0.2325  0.5773  0.0035
 5936WAT     H224465   4.324   1.235   3.791 -0.3145  0.6310 -3.0558
 5936WAT    EPW24466   4.333   1.312   3.802 -0.0128  0.2799 -0.1684
 5937WAT      O24467   1.631   2.808   5.133 -0.6059 -0.2416  0.1297
 5937WAT     H124468   1.628   2.890   5.163  0.0272  0.1021 -0.7105
 5937WAT     H224469   1.716   2.787   5.141 -0.9832 -1.3177  1.6248
 5937WAT    EPW24470   1.643   2.817   5.139 -0.5681 -0.3498  0.2264
 5938WAT      O24471   2.299   2.687   5.996 -0.2598 -0.1250  0.2192
 5938WAT     H124472   2.355   2.754   5.995  1.7807 -1.6521 -3.0898
 5938WAT     H224473   2.333   2.632   6.054 -0.6924  0.6393  1.2412
 5938WAT    EPW24474   2.312   2.689   6.004 -0.0223 -0.2377 -0.1186
 5939WAT      O24475   3.378   7.062   5.365 -0.1414 -1.0418 -0.5709
 5939WAT     H124476   3.311   7.051   5.419  0.0159  2.7597  0.6950
 5939WAT     H224477   3.347   7.037   5.288 -3.8209  2.0388 -0.4055
 5939WAT    EPW24478   3.364   7.057   5.362 -0.6617 -0.0252 -0.3595
 5940WAT      O24479   0.014   5.091   3.873  0.1076  0.0032  0.3010
 5940WAT     H124480   0.065   5.080   3.944  0.0295  0.1724  0.3842
 5940WAT     H224481   0.068   5.074   3.807  0.1159 -0.4050  0.4095
 5940WAT    EPW24482   0.029   5.087   3.874  0.0973 -0.0321  0.3293
 5941WAT      O24483   6.074   6.953   5.174 -0.5049  0.3940  0.2010
 5941WAT     H124484   6.114   6.882   5.205 -0.7181  0.0156 -0.3623
 5941WAT     H224485   6.007   6.920   5.129  0.0750  0.8802 -1.0663
 5941WAT    EPW24486   6.070   6.937   5.172 -0.4507  0.4099 -0.0694
 5942WAT      O24487   5.036   4.917   5.703 -0.5401  0.4513 -0.5735
 5942WAT     H124488   5.003   4.995   5.679  0.9809  1.1576 -0.5270
 5942WAT     H224489   5.041   4.874   5.627 -0.6902  0.6808 -0.7187
 5942WAT    EPW24490   5.032   4.922   5.688 -0.3375  0.5895 -0.5881
 5943WAT      O24491   3.628   0.985   2.986  0.4021  0.4281  0.6658
 5943WAT     H124492   3.590   0.922   3.033 -0.4985  0.2609 -0.2396
 5943WAT     H224493   3.642   1.049   3.044  0.8567 -0.3947  1.4929
 5943WAT    EPW24494   3.624   0.985   3.001  0.3362  0.2818  0.6543
 5944WAT      O24495   2.811   0.966   0.006  0.7646  0.1510  0.0682
 5944WAT     H124496   2.819   0.954   0.092 -0.6574 -0.2192  0.1650
 5944WAT     H224497   2.803   1.053  -0.002  0.2531  0.1329  0.3720
 5944WAT    EPW24498   2.811   0.977   0.018  0.4790  0.0937  0.1274
 5945WAT      O24499   6.463   0.516   0.849 -0.5908 -0.5087  0.0556
 5945WAT     H124500   6.385   0.521   0.888 -0.3935  1.9341  0.2985
 5945WAT     H224501   6.447   0.542   0.768  0.0798  0.9037  0.3468
 5945WAT    EPW24502   6.449   0.521   0.843 -0.4626  0.0608  0.1345
 5946WAT      O24503   4.921   1.827   6.317  0.1501 -0.3042 -0.1316
 5946WAT     H124504   4.953   1.886   6.261 -2.1168  2.4603  1.1861
 5946WAT     H224505   4.857   1.789   6.272 -0.4894  0.6158 -0.0285
 5946WAT    EPW24506   4.916   1.830   6.302 -0.2792  0.2401  0.0783
 5947WAT      O24507   1.875   1.406   5.495 -0.1963 -0.1642  0.1594
 5947WAT     H124508   1.905   1.453   5.562 -0.7042  0.8901 -0.3310
 5947WAT     H224509   1.853   1.466   5.436 -3.5829 -0.7841  0.5813
 5947WAT    EPW24510   1.876   1.421   5.496 -0.7716 -0.1000  0.1493
 5948WAT      O24511   2.244   4.916   0.798 -0.0601 -0.2791  0.3046
 5948WAT     H124512   2.272   4.967   0.863 -0.1627  0.1438  0.0184
 5948WAT     H224513   2.238   4.837   0.836  1.5965 -0.4154  0.3399
 5948WAT    EPW24514   2.247   4.912   0.814  0.1695 -0.2367  0.2676
 5949WAT      O24515   1.852   5.536   4.639 -0.1336  0.0021  0.6976
 5949WAT     H124516   1.857   5.450   4.647  0.1170 -0.0006  0.5482
 5949WAT     H224517   1.849   5.564   4.722  1.7898 -0.0544  0.8347
 5949WAT    EPW24518   1.853   5.528   4.653  0.1876 -0.0067  0.6958
 5950WAT      O24519   6.278   1.361   5.467  0.0985 -0.1053  0.4376
 5950WAT     H124520   6.249   1.443   5.479  0.9393  0.4280 -0.9084
 5950WAT     H224521   6.276   1.327   5.547 -0.3678  1.2092  1.0201
 5950WAT    EPW24522   6.274   1.368   5.480  0.1538  0.1676  0.3248
 5951WAT      O24523   5.125   4.949   7.194 -0.6324 -0.4206 -0.5297
 5951WAT     H124524   5.055   4.899   7.205  0.3529 -1.4336  1.8206
 5951WAT     H224525   5.093   5.030   7.192 -1.9306 -0.9030 -0.1557
 5951WAT    EPW24526   5.110   4.954   7.195 -0.6787 -0.6415 -0.1273
 5952WAT      O24527   1.713   0.713   0.203  0.2503  0.2727 -0.0766
 5952WAT     H124528   1.792   0.683   0.222  0.9725  1.3202 -1.2093
 5952WAT     H224529   1.693   0.764   0.271 -0.8666 -2.3650  1.7204
 5952WAT    EPW24530   1.722   0.716   0.216  0.1920  0.0378  0.0215
 5953WAT      O24531   4.663   0.602   6.546  0.0903  0.0107 -0.5907
 5953WAT     H124532   4.658   0.641   6.468  0.4804 -1.7441 -1.5392
 5953WAT     H224533   4.581   0.605   6.575 -0.4462 -0.8467 -1.8843
 5953WAT    EPW24534   4.650   0.608   6.538  0.0687 -0.3752 -0.9219
 5954WAT      O24535   1.352   4.114   3.054 -0.0938  0.2896 -0.3844
 5954WAT     H124536   1.276   4.082   3.025  1.1547 -1.4651 -1.9788
 5954WAT     H224537   1.389   4.147   2.982  0.7005  1.0598  0.3529
 5954WAT    EPW24538   1.347   4.114   3.039  0.2079  0.1442 -0.5110
 5955WAT      O24539   1.981   1.532   6.346  0.2667 -0.3012 -0.1340
 5955WAT     H124540   1.956   1.484   6.278 -0.1184  2.1507 -1.8483
 5955WAT     H224541   1.927   1.507   6.410 -1.9618 -0.0515 -1.8069
 5955WAT    EPW24542   1.969   1.521   6.345 -0.1194  0.0979 -0.6344
 5956WAT      O24543   6.002   2.610   3.025 -0.3747 -0.2423 -0.0038
 5956WAT     H124544   5.967   2.680   2.988 -0.8517 -0.5130 -0.0815
 5956WAT     H224545   6.047   2.642   3.093 -0.4797  0.1445 -0.1162
 5956WAT    EPW24546   6.004   2.625   3.030 -0.4607 -0.2252 -0.0318
 5957WAT      O24547   3.686   2.861   1.216  0.2205  0.6587 -0.8613
 5957WAT     H124548   3.613   2.857   1.263 -0.6332 -0.2404 -2.2036
 5957WAT     H224549   3.683   2.941   1.181  1.6195  1.9498  1.6607
 5957WAT    EPW24550   3.675   2.873   1.218  0.3010  0.7166 -0.6870
 5958WAT      O24551   3.446   5.306   2.944 -0.2426  0.3488  0.1026
 5958WAT     H124552   3.488   5.327   3.017 -1.3767  0.8825  0.6378
 5958WAT     H224553   3.424   5.222   2.955 -0.5783  0.4826  0.4727
 5958WAT    EPW24554   3.449   5.297   2.956 -0.4597  0.4474  0.2364
 5959WAT      O24555   0.114   5.218   0.628 -0.1801 -0.1657  0.0507
 5959WAT     H124556   0.088   5.293   0.591 -0.3391  0.3254  1.1079
 5959WAT     H224557   0.187   5.198   0.585 -1.3237 -0.6169 -1.7536
 5959WAT    EPW24558   0.121   5.227   0.616 -0.3725 -0.1598 -0.0597
 5960WAT      O24559   3.374   2.007   5.395 -0.8421  0.0828 -0.2348
 5960WAT     H124560   3.343   1.970   5.468  0.3381 -1.7116 -0.5844
 5960WAT     H224561   3.305   2.051   5.363 -1.5505  0.3983  1.6130
 5960WAT    EPW24562   3.359   2.008   5.401 -0.7724 -0.1357 -0.0135
 5961WAT      O24563   5.913   6.044   5.400  0.1330 -0.5701  0.2037
 5961WAT     H124564   5.900   6.008   5.479 -3.4051  0.5945  0.3218
 5961WAT     H224565   5.950   6.120   5.419  2.3944 -1.6094  0.3608
 5961WAT    EPW24566   5.917   6.050   5.415 -0.0556 -0.5515  0.2443
 5962WAT      O24567   6.641   7.235   0.306  0.1544  0.1437  0.0038
 5962WAT     H124568   6.637   7.260   0.222 -0.3452 -0.6723 -0.2190
 5962WAT     H224569   6.726   7.242   0.325  0.1764  1.0422 -0.3374
 5962WAT    EPW24570   6.653   7.240   0.296  0.0839  0.1559 -0.0795
 5963WAT      O24571   1.173   6.793   6.684 -0.0656 -0.2284 -0.2772
 5963WAT     H124572   1.155   6.839   6.611  0.6696 -0.8383 -0.8620
 5963WAT     H224573   1.123   6.830   6.744 -0.6296  0.3562 -1.0793
 5963WAT    EPW24574   1.163   6.805   6.682 -0.0403 -0.2321 -0.4821
 5964WAT      O24575   1.599   2.622   1.882  0.0312  0.1516  0.2030
 5964WAT     H124576   1.521   2.645   1.853  0.9158  1.3149 -1.4242
 5964WAT     H224577   1.582   2.568   1.949 -2.1240 -0.3562 -0.6949
 5964WAT    EPW24578   1.585   2.617   1.888 -0.1565  0.2484 -0.1700
 5965WAT      O24579   1.828   0.503   2.842 -0.1103 -0.1203 -0.3024
 5965WAT     H124580   1.817   0.452   2.771  0.9216  1.5443 -1.7381
 5965WAT     H224581   1.746   0.525   2.863 -0.4588 -0.8715 -0.8105
 5965WAT    EPW24582   1.814   0.499   2.835 -0.0093  0.0146 -0.5895
 5966WAT      O24583   4.934   2.770   1.158  0.1581 -0.4060 -0.1168
 5966WAT     H124584   4.886   2.715   1.110 -0.6008  0.0311  0.1264
 5966WAT     H224585   4.976   2.818   1.098 -1.5780  0.8345 -0.3994
 5966WAT    EPW24586   4.933   2.769   1.142 -0.2105 -0.1582 -0.1226
 5967WAT      O24587   2.859   1.750   1.199  0.5024 -0.1430  0.2491
 5967WAT     H124588   2.796   1.702   1.162  2.1122 -1.5395 -0.8107
 5967WAT     H224589   2.819   1.787   1.267 -0.7351 -3.3687  1.4438
 5967WAT    EPW24590   2.844   1.748   1.204  0.5574 -0.8258  0.2690
 5968WAT      O24591   6.015   2.964   3.232  0.2481 -0.3038 -0.3036
 5968WAT     H124592   5.947   2.991   3.185  0.8136 -1.8943 -2.1986
 5968WAT     H224593   6.070   3.032   3.229 -0.6334  0.4338 -0.0364
 5968WAT    EPW24594   6.013   2.978   3.225  0.2014 -0.4298 -0.5441
 5969WAT      O24595   0.421   6.608   3.887 -0.2207  0.1592  0.4367
 5969WAT     H124596   0.478   6.614   3.821  0.8042  0.8132  1.3513
 5969WAT     H224597   0.387   6.528   3.877  0.0589  0.1685 -0.7568
 5969WAT    EPW24598   0.425   6.597   3.876 -0.0280  0.2572  0.3955
 5970WAT      O24599   4.880   5.786   2.986  0.3147  0.5442  0.1184
 5970WAT     H124600   4.916   5.709   2.967 -0.0003  0.4639 -0.1693
 5970WAT     H224601   4.949   5.839   2.994  0.6513 -0.1070  2.0270
 5970WAT    EPW24602   4.896   5.782   2.984  0.3179  0.4362  0.3578
 5971WAT      O24603   0.377   5.192   7.392 -0.0069  0.3865  0.9613
 5971WAT     H124604   0.450   5.177   7.438  0.7954 -0.7460 -0.5870
 5971WAT     H224605   0.369   5.120   7.343 -2.0762  0.5682  0.9294
 5971WAT    EPW24606   0.387   5.179   7.392 -0.1941  0.2460  0.7279
 5972WAT      O24607   1.308   1.265   5.333  0.1595 -0.2528 -0.3593
 5972WAT     H124608   1.315   1.234   5.415  0.1375  0.0015 -0.2600
 5972WAT     H224609   1.298   1.351   5.345  1.6027 -0.0022 -0.6730
 5972WAT    EPW24610   1.308   1.273   5.347  0.3695 -0.1782 -0.3910
 5973WAT      O24611   0.649   0.409   6.395 -0.5356 -0.2154 -0.0744
 5973WAT     H124612   0.615   0.410   6.475  0.2977  0.7929  0.2971
 5973WAT     H224613   0.647   0.493   6.371 -3.3785 -0.8164 -2.3085
 5973WAT    EPW24614   0.644   0.422   6.404 -0.8325 -0.1553 -0.3496
 5974WAT      O24615   4.152   2.031   1.572 -0.0027 -0.0252 -0.3154
 5974WAT     H124616   4.136   1.948   1.553 -0.3453 -0.5636  1.9722
 5974WAT     H224617   4.181   2.065   1.497 -0.8598 -1.9242 -1.5666
 5974WAT    EPW24618   4.154   2.024   1.558 -0.1799 -0.3852 -0.1623
 5975WAT      O24619   1.439   2.852   2.797 -1.2397  0.6771 -0.0803
 5975WAT     H124620   1.428   2.861   2.883  4.2563 -0.1178  1.0610
 5975WAT     H224621   1.449   2.934   2.769  0.8908  0.8272  0.9383
 5975WAT    EPW24622   1.439   2.866   2.805 -0.1131  0.5818  0.2388
 5976WAT      O24623   4.903   0.413   2.627 -0.1009  0.7001  0.0305
 5976WAT     H124624   4.857   0.454   2.688 -0.4993  0.6586 -0.2359
 5976WAT     H224625   4.983   0.448   2.634 -0.6793  2.3489 -0.9004
 5976WAT    EPW24626   4.908   0.424   2.637 -0.2452  0.9375 -0.1464
 5977WAT      O24627   5.546   1.312   2.206  0.2448  0.7390 -0.3678
 5977WAT     H124628   5.621   1.272   2.186  0.5429  0.8989  0.4185
 5977WAT     H224629   5.488   1.272   2.154  0.6746 -0.1634 -0.1874
 5977WAT    EPW24630   5.549   1.300   2.195  0.3523  0.6293 -0.2250
 5978WAT      O24631   2.230   6.907   4.886 -0.0969  0.0124 -0.5675
 5978WAT     H124632   2.266   6.894   4.808 -0.7922 -1.0046 -0.7391
 5978WAT     H224633   2.295   6.939   4.935  0.4295  0.3118 -1.4564
 5978WAT    EPW24634   2.245   6.910   4.882 -0.1218 -0.0936 -0.7241
 5979WAT      O24635   6.217   3.127   7.003  0.6768 -0.1829  0.2620
 5979WAT     H124636   6.206   3.043   6.980  0.2234  0.5463 -2.5184
 5979WAT     H224637   6.142   3.147   7.043 -0.2964 -0.4802 -1.3274
 5979WAT    EPW24638   6.204   3.117   7.006  0.4660 -0.1191 -0.3835
 5980WAT      O24639   2.002   2.282   6.743 -0.9022  0.3563  0.0005
 5980WAT     H124640   2.047   2.294   6.669 -0.8953  0.8917  0.0882
 5980WAT     H224641   2.045   2.330   6.802  1.0912 -2.6105  1.2216
 5980WAT    EPW24642   2.015   2.291   6.741 -0.6067 -0.0029  0.1938
 5981WAT      O24643   5.361   2.036   4.071  0.6318  0.4309  0.5958
 5981WAT     H124644   5.426   2.024   4.129  0.9048  0.9511  0.4043
 5981WAT     H224645   5.304   1.973   4.091  0.3944  1.0158  1.8972
 5981WAT    EPW24646   5.362   2.025   4.083  0.6370  0.5941  0.7597
 5982WAT      O24647   1.523   2.708   2.275  0.0017 -0.6768 -0.4587
 5982WAT     H124648   1.478   2.633   2.279  1.4343 -1.7080 -2.0040
 5982WAT     H224649   1.583   2.700   2.338  0.6568 -1.2194 -1.1354
 5982WAT    EPW24650   1.525   2.696   2.285  0.3101 -0.9093 -0.7869
 5983WAT      O24651   6.741   4.082   1.276  0.3983  0.6128 -0.1851
 5983WAT     H124652   6.715   4.080   1.193 -1.0656 -0.4520  0.2637
 5983WAT     H224653   6.753   3.998   1.295 -1.6392  0.5988  1.3529
 5983WAT    EPW24654   6.739   4.069   1.267 -0.1189  0.4534  0.1084
 5984WAT      O24655   1.911   1.686   2.584 -0.1602 -0.1151  0.3085
 5984WAT     H124656   1.970   1.630   2.552 -0.4294 -0.3018  0.1401
 5984WAT     H224657   1.865   1.637   2.640 -0.6671 -0.1737 -0.1491
 5984WAT    EPW24658   1.913   1.671   2.588 -0.2748 -0.1514  0.2160
 5985WAT      O24659   2.318   0.336   6.841  0.1107  0.0727 -0.0702
 5985WAT     H124660   2.372   0.390   6.798 -0.3596  0.3762 -0.2909
 5985WAT     H224661   2.372   0.284   6.886  0.5883  0.2930 -0.3815
 5985WAT    EPW24662   2.334   0.336   6.841  0.1118  0.1501 -0.1488
 5986WAT      O24663   2.971   4.742   5.433  0.1693 -0.1397 -0.2798
 5986WAT     H124664   2.968   4.829   5.441 -0.8885 -0.2577  1.0698
 5986WAT     H224665   3.046   4.721   5.473  0.4765  0.1615 -0.6974
 5986WAT    EPW24666   2.982   4.752   5.440  0.0584 -0.1126 -0.1421
 5987WAT      O24667   3.326   5.603   5.367  0.7136 -0.1393 -0.0056
 5987WAT     H124668   3.370   5.602   5.442  1.1039  1.4039 -0.1817
 5987WAT     H224669   3.377   5.649   5.313  0.3148 -0.9893 -1.1516
 5987WAT    EPW24670   3.340   5.609   5.370  0.7123 -0.0369 -0.2009
 5988WAT      O24671   4.198   2.322   4.793 -0.2989 -0.1251 -0.0411
 5988WAT     H124672   4.244   2.253   4.822  0.2479  0.3769  0.3084
 5988WAT     H224673   4.245   2.352   4.726 -0.2748  0.2095  0.1245
 5988WAT    EPW24674   4.212   2.316   4.788 -0.2145 -0.0015  0.0350
 5989WAT      O24675   6.881   5.815   6.485 -0.1995  1.1800 -0.1459
 5989WAT     H124676   6.847   5.791   6.562  0.0815 -0.3698 -0.4734
 5989WAT     H224677   6.836   5.768   6.427  1.4888  0.1813 -0.6930
 5989WAT    EPW24678   6.869   5.805   6.488  0.0914  0.8035 -0.2751
 5990WAT      O24679   5.100   1.520   5.353 -0.3466 -0.0360 -0.3437
 5990WAT     H124680   5.037   1.460   5.359 -0.6293  0.1616 -1.1333
 5990WAT     H224681   5.069   1.576   5.294  1.5252 -1.1546 -2.5493
 5990WAT    EPW24682   5.086   1.519   5.345 -0.1119 -0.1721 -0.7862
 5991WAT      O24683   2.791   0.934   0.295  0.1062 -0.4930  0.2476
 5991WAT     H124684   2.807   0.967   0.374 -1.0574 -0.7864  0.6226
 5991WAT     H224685   2.811   0.849   0.304 -0.3173 -0.5876  0.3256
 5991WAT    EPW24686   2.796   0.926   0.308 -0.1282 -0.5503  0.3145
 5992WAT      O24687   4.354   0.996   6.549 -0.4227 -0.5425  0.1392
 5992WAT     H124688   4.422   0.972   6.500 -1.0169  1.5025 -1.8321
 5992WAT     H224689   4.391   1.019   6.625  0.7333 -1.9422  0.0523
 5992WAT    EPW24690   4.369   0.996   6.553 -0.3397 -0.4472 -0.1648
 5993WAT      O24691   2.810   7.116   4.143 -0.1857  0.1106 -0.2954
 5993WAT     H124692   2.841   7.141   4.065 -2.5607  0.1289 -1.3178
 5993WAT     H224693   2.881   7.088   4.186  1.2153  0.2748 -2.3826
 5993WAT    EPW24694   2.826   7.116   4.138 -0.3296  0.1376 -0.7548
 5994WAT      O24695   5.898   0.284   6.785  0.4145  0.2672 -0.4853
 5994WAT     H124696   5.971   0.237   6.775  0.2979 -0.4051  1.3668
 5994WAT     H224697   5.912   0.355   6.737  1.6369 -0.5530 -1.3825
 5994WAT    EPW24698   5.911   0.287   6.776  0.5778  0.0467 -0.3442
 5995WAT      O24699   0.438   1.240   6.466 -0.5453  0.5602  0.0581
 5995WAT     H124700   0.522   1.254   6.447 -0.6490  0.8550 -0.1850
 5995WAT     H224701   0.426   1.285   6.540 -0.3006 -0.0876  0.5020
 5995WAT    EPW24702   0.449   1.249   6.474 -0.5245  0.5080  0.0877
 5996WAT      O24703   2.663   2.771   3.889 -0.2762  0.5352 -0.4273
 5996WAT     H124704   2.725   2.832   3.897  0.8172 -0.4019 -1.4875
 5996WAT     H224705   2.594   2.808   3.929  0.3742  2.4057 -0.9028
 5996WAT    EPW24706   2.662   2.786   3.896 -0.0186  0.6731 -0.6542
 5997WAT      O24707   3.327   2.101   3.261  0.3142  0.2358  0.0790
 5997WAT     H124708   3.402   2.136   3.291 -0.0372  1.9807 -0.9717
 5997WAT     H224709   3.296   2.162   3.208 -1.4527 -0.8326 -0.1718
 5997WAT    EPW24710   3.334   2.115   3.258  0.0013  0.3357 -0.1132
 5998WAT      O24711   3.798   2.422   5.214  0.4122 -0.4804  0.0592
 5998WAT     H124712   3.712   2.436   5.215  0.3704 -0.2289 -2.2013
 5998WAT     H224713   3.831   2.501   5.199  1.1173 -0.4818  1.4302
 5998WAT    EPW24714   3.790   2.436   5.212  0.5101 -0.4434 -0.0722
 5999WAT      O24715   3.420   5.683   2.418  0.8953  0.0823  0.2367
 5999WAT     H124716   3.442   5.642   2.492  0.2470 -1.9479 -0.6254
 5999WAT     H224717   3.483   5.658   2.362  1.0563  1.1339 -0.0732
 5999WAT    EPW24718   3.433   5.673   2.420  0.8233 -0.0623  0.0636
 6000WAT      O24719   6.660   6.335   3.856  0.0569 -0.5170 -0.4706
 6000WAT     H124720   6.680   6.372   3.779 -0.4402 -1.1140 -0.8940
 6000WAT     H224721   6.607   6.270   3.834 -1.0606  0.0431  0.4813
 6000WAT    EPW24722   6.655   6.331   3.841 -0.1816 -0.5224 -0.3925
 6001WAT      O24723   1.587   3.688   5.408 -0.3586  0.3781  0.1388
 6001WAT     H124724   1.643   3.736   5.362  0.0759 -0.2579  0.0086
 6001WAT     H224725   1.584   3.729   5.485  1.4604 -0.4236  0.6873
 6001WAT    EPW24726   1.595   3.701   5.412 -0.0257  0.1657  0.2006
 6002WAT      O24727   4.620   1.092   6.493  0.4633 -0.1785  0.0652
 6002WAT     H124728   4.628   1.046   6.567  0.7579 -0.5870 -0.2176
 6002WAT     H224729   4.672   1.049   6.437 -0.0443 -0.0861 -0.4789
 6002WAT    EPW24730   4.629   1.079   6.496  0.4318 -0.2252 -0.0570
 6003WAT      O24731   2.426   1.258   1.579 -0.1870  1.1264 -0.7717
 6003WAT     H124732   2.425   1.204   1.648  0.2120 -0.6932 -2.1013
 6003WAT     H224733   2.505   1.294   1.583  0.5724 -0.3973 -1.2609
 6003WAT    EPW24734   2.438   1.255   1.590 -0.0158  0.6325 -1.0404
 6004WAT      O24735   6.699   6.860   7.156 -0.4643  0.0105  0.2880
 6004WAT     H124736   6.709   6.919   7.219  1.0053 -0.9811  1.0265
 6004WAT     H224737   6.620   6.879   7.124 -1.4782  0.2916  2.6995
 6004WAT    EPW24738   6.688   6.872   7.161 -0.3970 -0.0944  0.7533
 6005WAT      O24739   3.492   2.307   5.079 -0.3581  0.7260  0.5595
 6005WAT     H124740   3.451   2.254   5.023  1.4136  0.3618 -0.4668
 6005WAT     H224741   3.451   2.292   5.154  0.2585 -2.4329  0.4137
 6005WAT    EPW24742   3.480   2.297   5.082 -0.0053  0.2055  0.3863
 6006WAT      O24743   6.235   1.316   4.349  0.2637 -0.0990  0.1915
 6006WAT     H124744   6.306   1.342   4.306  0.9719 -0.5376  1.0694
 6006WAT     H224745   6.223   1.234   4.322  0.4707 -0.2386  0.5180
 6006WAT    EPW24746   6.243   1.308   4.339  0.3989 -0.1844  0.3694
 6007WAT      O24747   4.416   2.717   1.693  0.0682  0.5949 -0.5996
 6007WAT     H124748   4.359   2.777   1.665 -2.7031 -0.4838  2.2470
 6007WAT     H224749   4.455   2.755   1.761  0.9946  0.4122 -1.0076
 6007WAT    EPW24750   4.413   2.732   1.699 -0.2043  0.4085 -0.2394
 6008WAT      O24751   4.914   6.990   3.185 -0.0008 -0.3811  0.8405
 6008WAT     H124752   4.857   6.932   3.155 -0.9296  0.3049  1.2252
 6008WAT     H224753   4.952   7.021   3.113 -1.0373  0.0683  0.4681
 6008WAT    EPW24754   4.911   6.986   3.170 -0.2911 -0.2134  0.8423
 6009WAT      O24755   7.251   4.689   5.748  0.5400 -0.3338  0.3000
 6009WAT     H124756   7.188   4.741   5.717  0.3506  0.6932  2.2715
 6009WAT     H224757   7.320   4.710   5.698 -0.6750 -1.7693 -2.1704
 6009WAT    EPW24758   7.252   4.700   5.736  0.3326 -0.3941  0.2263
 6010WAT      O24759   5.280   6.638   1.240  0.3244 -0.3253  0.1418
 6010WAT     H124760   5.246   6.612   1.316  1.4538 -0.9823  0.4429
 6010WAT     H224761   5.269   6.570   1.187  1.1172 -0.5474  0.2403
 6010WAT    EPW24762   5.274   6.624   1.243  0.6084 -0.4551  0.2008
 6011WAT      O24763   4.405   4.872   2.104  0.3383  0.0232  0.1316
 6011WAT     H124764   4.370   4.807   2.150 -1.6152  2.6877  2.7907
 6011WAT     H224765   4.340   4.897   2.051  0.9783  0.0062 -0.6776
 6011WAT    EPW24766   4.390   4.866   2.103  0.1443  0.4143  0.4049
 6012WAT      O24767   1.566   3.223   1.240 -0.0461  0.0273 -0.3120
 6012WAT     H124768   1.543   3.277   1.305  0.3696  0.2332 -0.3306
 6012WAT     H224769   1.559   3.144   1.276 -0.7125  0.0870 -0.3002
 6012WAT    EPW24770   1.561   3.220   1.255 -0.0831  0.0666 -0.3130
 6013WAT      O24771   6.292   6.760   3.667 -0.6938 -0.0601 -0.3067
 6013WAT     H124772   6.324   6.840   3.681 -1.9207  0.5076 -0.6197
 6013WAT     H224773   6.206   6.771   3.674 -0.8727 -1.3848 -0.2402
 6013WAT    EPW24774   6.284   6.774   3.670 -0.9014 -0.1719 -0.3431
 6014WAT      O24775   4.369   6.220   0.070 -0.1724  0.7851 -0.4307
 6014WAT     H124776   4.367   6.169  -0.001 -1.6984  1.6085 -1.0147
 6014WAT     H224777   4.454   6.228   0.087  0.1315 -1.5979 -0.5534
 6014WAT    EPW24778   4.381   6.214   0.062 -0.3529  0.5547 -0.5351
 6015WAT      O24779   6.761   0.785   2.795  0.0778 -0.5575 -0.0765
 6015WAT     H124780   6.830   0.811   2.841 -0.4588  0.3442  0.2162
 6015WAT     H224781   6.782   0.808   2.713  0.9294 -1.9604 -0.3024
 6015WAT    EPW24782   6.775   0.792   2.789  0.1244 -0.6315 -0.0667
 6016WAT      O24783   6.493   3.527   5.363 -0.1233  0.5356 -0.0946
 6016WAT     H124784   6.431   3.485   5.408 -0.3145  1.7968  0.8883
 6016WAT     H224785   6.520   3.468   5.305 -0.7554 -0.7462  0.8644
 6016WAT    EPW24786   6.488   3.512   5.361 -0.2449  0.5325  0.1922
 6017WAT      O24787   5.679   3.421   2.172 -0.3766  0.1186  0.2255
 6017WAT     H124788   5.737   3.422   2.238  0.0293  2.3161 -0.0766
 6017WAT     H224789   5.637   3.346   2.183  0.6437 -0.2460  2.1475
 6017WAT    EPW24790   5.682   3.410   2.184 -0.1659  0.3893  0.4648
 6018WAT      O24791   4.132   3.899   0.700  0.1144  0.2566 -0.0986
 6018WAT     H124792   4.099   3.824   0.669 -1.6401  1.2800 -0.8345
 6018WAT     H224793   4.153   3.879   0.783 -0.2598 -1.0729 -0.2973
 6018WAT    EPW24794   4.130   3.885   0.708 -0.2000  0.2114 -0.2367
 6019WAT      O24795   6.590   1.722   2.117  1.0006 -0.0760 -0.4171
 6019WAT     H124796   6.596   1.788   2.175  1.0541  0.2758 -0.8223
 6019WAT     H224797   6.609   1.652   2.165  1.2202  0.2337 -0.0442
 6019WAT    EPW24798   6.593   1.721   2.133  1.0410  0.0217 -0.4219
 6020WAT      O24799   6.964   1.234   5.181 -0.2614 -0.2457  0.1335
 6020WAT     H124800   6.962   1.319   5.202 -1.2731 -0.5205  1.2950
 6020WAT     H224801   6.884   1.218   5.152 -0.7423 -1.2190  1.8575
 6020WAT    EPW24802   6.952   1.245   5.180 -0.4819 -0.4301  0.5598
 6021WAT      O24803   4.332   3.106   1.030 -1.2353  0.1908  0.0002
 6021WAT     H124804   4.309   3.108   0.945 -0.0359 -2.3201 -0.4964
 6021WAT     H224805   4.261   3.135   1.071 -1.2158  3.3419 -1.8720
 6021WAT    EPW24806   4.318   3.110   1.023 -1.0553  0.2854 -0.3497
 6022WAT      O24807   5.353   0.965   0.135  0.2592  0.1489 -0.5542
 6022WAT     H124808   5.342   0.980   0.050 -1.0390 -0.9013 -0.6021
 6022WAT     H224809   5.317   0.886   0.147  0.2967  0.3288  0.9928
 6022WAT    EPW24810   5.346   0.956   0.124  0.0729  0.0203 -0.3328
 6023WAT      O24811   7.116   2.856   5.889  0.1908 -0.2623  0.3504
 6023WAT     H124812   7.047   2.806   5.911  0.1032 -0.6469 -0.7185
 6023WAT     H224813   7.118   2.917   5.951 -0.5973 -0.7510  0.8737
 6023WAT    EPW24814   7.106   2.857   5.902  0.0614 -0.3913  0.2698
 6024WAT      O24815   5.152   6.506   4.907 -0.5254 -0.0227 -0.3046
 6024WAT     H124816   5.087   6.563   4.891 -0.2421 -0.0750 -1.8478
 6024WAT     H224817   5.210   6.523   4.844  0.1621 -1.1445 -0.0047
 6024WAT    EPW24818   5.151   6.517   4.895 -0.3820 -0.1962 -0.4882
 6025WAT      O24819   2.648   5.262   1.526  0.0074 -0.0880  0.2731
 6025WAT     H124820   2.721   5.215   1.520 -0.3410 -0.8060  1.3792
 6025WAT     H224821   2.593   5.224   1.470 -0.2472 -0.9763  1.1065
 6025WAT    EPW24822   2.651   5.250   1.517 -0.0817 -0.3253  0.5596
 6026WAT      O24823   5.918   3.881   4.108 -0.4788  0.2244 -0.4545
 6026WAT     H124824   5.866   3.811   4.111  0.6694 -0.6303  0.7538
 6026WAT     H224825   5.986   3.855   4.060 -1.4486  1.6020 -2.7354
 6026WAT    EPW24826   5.920   3.867   4.102 -0.4524  0.3017 -0.6129
 6027WAT      O24827   1.963   2.085   3.505  0.0716  0.5229  0.2360
 6027WAT     H124828   2.001   2.096   3.582  2.7661 -0.0083 -0.9007
 6027WAT     H224829   1.990   2.154   3.459 -0.8977  0.4596 -0.4702
 6027WAT    EPW24830   1.972   2.097   3.509  0.3264  0.4351 -0.0362
 6028WAT      O24831   5.927   3.883   3.622 -0.3869  0.5446 -0.0229
 6028WAT     H124832   6.005   3.846   3.614  0.0491  1.7755 -2.1601
 6028WAT     H224833   5.894   3.846   3.694  1.6471 -0.8907  0.2495
 6028WAT    EPW24834   5.933   3.872   3.632 -0.0220  0.5144 -0.2984
 6029WAT      O24835   2.981   7.017   1.598 -0.1686  0.6848 -0.4508
 6029WAT     H124836   2.930   6.953   1.568 -0.3554  0.4598  0.3384
 6029WAT     H224837   3.003   6.990   1.678 -0.9860  2.0299  0.2647
 6029WAT    EPW24838   2.977   7.003   1.605 -0.3169  0.8502 -0.2285
 6030WAT      O24839   6.651   5.971   2.197  0.2265 -0.2751 -0.2961
 6030WAT     H124840   6.686   6.051   2.200 -0.1240 -0.1188  2.2230
 6030WAT     H224841   6.721   5.918   2.202  0.3319 -0.0302  1.1380
 6030WAT    EPW24842   6.667   5.975   2.198  0.1903 -0.2159  0.2879
 6031WAT      O24843   4.297   1.568   5.704 -0.0881  0.5689  0.1335
 6031WAT     H124844   4.328   1.490   5.680 -0.8310  0.2678  0.1031
 6031WAT     H224845   4.363   1.605   5.746  0.0300 -0.4083  0.8431
 6031WAT    EPW24846   4.311   1.562   5.707 -0.1804  0.3801  0.2338
 6032WAT      O24847   6.519   2.155   3.278 -0.2556  0.0930 -0.3404
 6032WAT     H124848   6.453   2.099   3.285 -1.4580  1.3657 -1.0234
 6032WAT     H224849   6.503   2.215   3.339  0.8166 -0.0674  0.1352
 6032WAT    EPW24850   6.507   2.156   3.288 -0.2748  0.2573 -0.3710
 6033WAT      O24851   2.762   4.805   7.103  0.0920  0.1664 -0.0828
 6033WAT     H124852   2.736   4.888   7.102  0.6197  0.3348 -0.3590
 6033WAT     H224853   2.688   4.760   7.116 -0.4101  0.6095 -1.2392
 6033WAT    EPW24854   2.747   4.810   7.105  0.0958  0.2567 -0.2944
 6034WAT      O24855   3.507   7.084   5.023 -0.2351 -0.0035 -0.4213
 6034WAT     H124856   3.429   7.071   5.059 -1.3202  1.4873 -2.0522
 6034WAT     H224857   3.563   7.076   5.090 -1.7833 -0.8050  0.8397
 6034WAT    EPW24858   3.504   7.081   5.038 -0.6241  0.0983 -0.4759
 6035WAT      O24859   2.774   5.710   6.654 -0.0759 -0.3497 -0.3768
 6035WAT     H124860   2.853   5.744   6.665  0.3611 -1.5177  0.3658
 6035WAT     H224861   2.738   5.717   6.734 -1.2774  1.4462 -1.0329
 6035WAT    EPW24862   2.780   5.716   6.668 -0.1888 -0.2570 -0.3640
 6036WAT      O24863   5.408   2.940   6.282  0.2072 -0.8759  0.4862
 6036WAT     H124864   5.399   2.902   6.205  1.4906 -0.0553 -0.1041
 6036WAT     H224865   5.344   3.000   6.283  1.3389  0.4364 -0.8193
 6036WAT    EPW24866   5.397   2.944   6.271  0.5639 -0.5608  0.2061
 6037WAT      O24867   4.091   6.741   7.413 -0.1981 -0.4863 -0.1498
 6037WAT     H124868   4.113   6.770   7.492  0.0331  0.5072 -0.5565
 6037WAT     H224869   4.011   6.773   7.400 -0.1056 -0.3646 -0.4423
 6037WAT    EPW24870   4.083   6.750   7.423 -0.1503 -0.3215 -0.2531
 6038WAT      O24871   5.841   4.578   4.134  0.1709  0.1534 -0.4593
 6038WAT     H124872   5.761   4.598   4.107  0.5066 -0.4267 -2.0319
 6038WAT     H224873   5.830   4.504   4.179  0.0494 -1.4243 -2.8725
 6038WAT    EPW24874   5.828   4.570   4.137  0.2026 -0.1654 -1.0481
 6039WAT      O24875   3.690   5.363   3.849  0.1218 -0.7221 -0.3248
 6039WAT     H124876   3.767   5.323   3.842  1.1845  1.0341  0.5225
 6039WAT     H224877   3.647   5.316   3.909  1.7119 -0.1335  1.3780
 6039WAT    EPW24878   3.695   5.350   3.857  0.5137 -0.3757  0.0519
 6040WAT      O24879   4.326   2.423   0.228 -0.1840 -0.6176 -0.1545
 6040WAT     H124880   4.308   2.366   0.165 -0.6147 -0.6279 -0.0220
 6040WAT     H224881   4.274   2.490   0.211  1.2016  0.2954 -1.0564
 6040WAT    EPW24882   4.316   2.425   0.217 -0.0429 -0.4842 -0.2682
 6041WAT      O24883   7.112   3.983   5.312 -0.5552  0.1841 -0.4032
 6041WAT     H124884   7.106   4.037   5.243  0.2298 -0.8998 -1.3653
 6041WAT     H224885   7.054   3.921   5.294  1.2766 -1.3621 -1.3263
 6041WAT    EPW24886   7.103   3.982   5.299 -0.1687 -0.2044 -0.6816
 6042WAT      O24887   6.148   4.894   4.735  0.2253  0.0355 -0.0789
 6042WAT     H124888   6.087   4.939   4.692  0.4551  0.5563  0.1379
 6042WAT     H224889   6.102   4.835   4.780 -0.1255  0.4781  0.1495
 6042WAT    EPW24890   6.132   4.892   4.735  0.2074  0.1778 -0.0132
 6043WAT      O24891   7.087   1.292   3.307  0.5147  0.1280  0.5169
 6043WAT     H124892   7.004   1.284   3.335  1.0191  0.5399  2.2894
 6043WAT     H224893   7.087   1.369   3.267 -0.0258 -0.0322  0.1889
 6043WAT    EPW24894   7.075   1.302   3.305  0.5094  0.1652  0.7303
 6044WAT      O24895   6.379   6.184   6.161 -0.0328  0.2949 -0.3053
 6044WAT     H124896   6.336   6.175   6.237 -0.5599 -0.7811 -0.7093
 6044WAT     H224897   6.316   6.200   6.103  0.4113  1.6062 -0.4706
 6044WAT    EPW24898   6.363   6.185   6.164 -0.0451  0.3296 -0.3894
 6045WAT      O24899   5.073   3.452   6.127  0.5394  0.4149  0.4914
 6045WAT     H124900   5.039   3.500   6.063 -1.7153 -0.4431  0.9695
 6045WAT     H224901   5.147   3.421   6.092 -0.4380  0.2497 -1.5545
 6045WAT    EPW24902   5.079   3.455   6.112  0.0619  0.2637  0.2598
 6046WAT      O24903   3.875   6.461   0.760 -0.6037  0.3470  0.0584
 6046WAT     H124904   3.791   6.472   0.737 -0.6165 -0.7471 -0.4847
 6046WAT     H224905   3.876   6.382   0.796  0.3095  0.1092 -0.4677
 6046WAT    EPW24906   3.862   6.451   0.762 -0.4707  0.1502 -0.0995
 6047WAT      O24907   1.537   2.393   3.960  0.2749  0.4750 -0.5310
 6047WAT     H124908   1.504   2.343   4.024  0.4146  0.5930 -0.3676
 6047WAT     H224909   1.478   2.385   3.896  0.6074 -0.4065 -0.7391
 6047WAT    EPW24910   1.523   2.384   3.960  0.3447  0.3622 -0.5376
 6048WAT      O24911   3.988   1.977   6.916 -0.2007  0.2452 -0.0209
 6048WAT     H124912   4.027   2.036   6.966 -1.6600 -0.0892  1.6180
 6048WAT     H224913   3.911   2.013   6.898  0.2048  0.2628 -1.9301
 6048WAT    EPW24914   3.982   1.991   6.921 -0.3563  0.1984 -0.0608
 6049WAT      O24915   7.271   7.147   3.656 -0.9473  0.5405  0.1338
 6049WAT     H124916   7.316   7.073   3.646  0.6705  1.4759  0.1835
 6049WAT     H224917   7.326   7.200   3.698 -2.1468  1.7148  0.3227
 6049WAT    EPW24918   7.285   7.144   3.661 -0.8855  0.8521  0.1690
 6050WAT      O24919   4.312   3.102   5.954 -0.6894 -0.1546 -0.1224
 6050WAT     H124920   4.248   3.158   5.974 -1.1748 -0.0828 -1.7449
 6050WAT     H224921   4.301   3.037   6.010 -1.1528  0.6051  0.6998
 6050WAT    EPW24922   4.301   3.101   5.965 -0.8296 -0.0318 -0.2406
 6051WAT      O24923   4.748   2.449   5.475 -0.3269 -0.3257 -0.0645
 6051WAT     H124924   4.673   2.477   5.509 -0.2820 -0.6245  0.2883
 6051WAT     H224925   4.742   2.362   5.480 -0.3967 -0.3895 -0.9943
 6051WAT    EPW24926   4.736   2.441   5.481 -0.3306 -0.3792 -0.1498
 6052WAT      O24927   5.858   2.476   5.767  0.0507 -0.6553 -0.2231
 6052WAT     H124928   5.877   2.523   5.696 -0.2439 -0.8352 -0.4240
 6052WAT     H224929   5.779   2.442   5.749 -0.2062 -0.3859  0.3518
 6052WAT    EPW24930   5.849   2.478   5.754 -0.0308 -0.6421 -0.1679
 6053WAT      O24931   4.298   7.152   3.906 -0.0330  0.1446 -0.2187
 6053WAT     H124932   4.272   7.071   3.927 -0.5853  0.7730  1.6850
 6053WAT     H224933   4.227   7.189   3.872 -0.3641  0.4145  0.7284
 6053WAT    EPW24934   4.284   7.145   3.904 -0.1635  0.2773  0.2024
 6054WAT      O24935   2.118   5.648   4.955  0.2088  0.0581  0.1108
 6054WAT     H124936   2.124   5.591   5.021  0.6869  0.3375  0.3090
 6054WAT     H224937   2.033   5.665   4.950  0.3083  1.1031  1.5647
 6054WAT    EPW24938   2.106   5.642   4.964  0.2941  0.2538  0.3549
 6055WAT      O24939   0.750   4.346   4.546 -0.4768 -0.5118  0.3520
 6055WAT     H124940   0.760   4.433   4.545  0.9338 -0.6156 -2.0139
 6055WAT     H224941   0.664   4.335   4.543 -0.6380  0.8429 -0.8369
 6055WAT    EPW24942   0.739   4.358   4.545 -0.2923 -0.3270 -0.1731
 6056WAT      O24943   3.782   2.439   2.023 -0.8177 -0.3359 -0.0886
 6056WAT     H124944   3.695   2.446   2.019 -0.7955  2.2068  1.6448
 6056WAT     H224945   3.797   2.398   2.098 -0.6042  3.3798  2.1286
 6056WAT    EPW24946   3.772   2.434   2.033 -0.7829  0.5886  0.4950
 6057WAT      O24947   0.043   4.448   5.523 -0.1046 -0.6031  0.1242
 6057WAT     H124948  -0.040   4.422   5.523 -0.7431  1.2444  1.0188
 6057WAT     H224949   0.083   4.389   5.572 -1.1880 -0.7476  0.8612
 6057WAT    EPW24950   0.037   4.436   5.530 -0.3590 -0.3515  0.3652
 6058WAT      O24951   4.336   4.647   4.344 -0.6595  0.1620 -0.1381
 6058WAT     H124952   4.356   4.568   4.312 -0.4908 -0.7625  2.0746
 6058WAT     H224953   4.253   4.639   4.369 -0.6330  0.6844  0.1272
 6058WAT    EPW24954   4.327   4.634   4.343 -0.6306  0.1026  0.2279
 6059WAT      O24955   5.223   5.427   6.357 -0.2328  0.3038 -0.3304
 6059WAT     H124956   5.184   5.504   6.340 -3.0710 -1.1446 -1.0320
 6059WAT     H224957   5.194   5.375   6.294  0.2070 -1.8039  1.1030
 6059WAT    EPW24958   5.213   5.431   6.346 -0.5871 -0.2215 -0.2223
 6060WAT      O24959   2.335   3.666   3.581  0.3902  0.2841  0.2061
 6060WAT     H124960   2.379   3.591   3.590  0.5143  0.2811 -0.3866
 6060WAT     H224961   2.398   3.725   3.568  0.2045  0.0674 -2.0962
 6060WAT    EPW24962   2.351   3.664   3.580  0.3811  0.2516 -0.2216
 6061WAT      O24963   2.624   2.214   3.586  0.0318 -0.5243  0.2653
 6061WAT     H124964   2.636   2.299   3.567  1.5284 -0.7860 -0.0622
 6061WAT     H224965   2.541   2.211   3.613  0.2674  1.2329  1.3395
 6061WAT    EPW24966   2.614   2.226   3.587  0.2877 -0.3034  0.3756
 6062WAT      O24967   3.699   5.902   1.927 -0.0663  0.3164  0.3704
 6062WAT     H124968   3.630   5.853   1.949 -0.4731  0.2332 -0.9441
 6062WAT     H224969   3.749   5.847   1.882 -0.3102  0.9503 -0.7353
 6062WAT    EPW24970   3.696   5.887   1.923 -0.1624  0.3977  0.0129
 6063WAT      O24971   2.220   6.450   0.954  0.1565 -0.3027 -0.4142
 6063WAT     H124972   2.204   6.447   0.868 -1.6119  1.7940 -0.2565
 6063WAT     H224973   2.144   6.478   0.987  0.5382 -1.8284  1.9634
 6063WAT    EPW24974   2.206   6.454   0.946 -0.0483 -0.2183 -0.0397
 6064WAT      O24975   6.427   0.444   5.475 -0.4240 -0.0509  0.5845
 6064WAT     H124976   6.480   0.487   5.420  0.3458 -0.5945  0.8815
 6064WAT     H224977   6.461   0.364   5.478 -1.7803 -0.6754  0.1241
 6064WAT    EPW24978   6.440   0.439   5.468 -0.5106 -0.2234  0.5604
 6065WAT      O24979   1.805   3.042   3.581 -0.1755  0.6679 -0.1121
 6065WAT     H124980   1.822   2.956   3.580  2.1917  1.0628  0.6713
 6065WAT     H224981   1.744   3.051   3.519  0.3878 -1.3938 -1.0644
 6065WAT    EPW24982   1.798   3.031   3.572  0.2574  0.4217 -0.1370
 6066WAT      O24983   3.648   2.519   2.567 -0.6431 -0.4611  0.2719
 6066WAT     H124984   3.564   2.542   2.574 -0.9237 -0.8993 -1.3624
 6066WAT     H224985   3.684   2.586   2.524 -0.6455 -1.2283 -0.9793
 6066WAT    EPW24986   3.641   2.533   2.562 -0.6849 -0.6392 -0.1543
 6067WAT      O24987   2.210   1.365   0.699 -0.6676 -0.2382 -1.0545
 6067WAT     H124988   2.295   1.374   0.682 -0.7231  0.4413 -1.0047
 6067WAT     H224989   2.187   1.443   0.730 -0.3987 -1.5193  2.9495
 6067WAT    EPW24990   2.219   1.378   0.701 -0.6360 -0.3271 -0.4557
 6068WAT      O24991   4.008   0.575   6.575 -0.4217  0.9047  0.3568
 6068WAT     H124992   3.948   0.605   6.519  0.3649  2.0266  0.0704
 6068WAT     H224993   4.065   0.641   6.580 -0.3691  0.7597  2.3328
 6068WAT    EPW24994   4.007   0.590   6.568 -0.2978  1.0490  0.6064
 6069WAT      O24995   3.024   2.415   2.232 -0.1250 -0.2186 -0.7106
 6069WAT     H124996   3.066   2.485   2.203  2.3763 -1.2636  0.1410
 6069WAT     H224997   3.041   2.354   2.171  1.2120 -1.1382  0.5068
 6069WAT    EPW24998   3.033   2.416   2.219  0.4420 -0.5088 -0.4050
 6070WAT      O24999   5.201   2.833   6.842  0.3289  0.7238  0.1412
 6070WAT     H125000   5.161   2.839   6.920 -1.4398  1.0356 -0.7340
 6070WAT     H225001   5.274   2.880   6.853  1.4276 -1.2495  2.3219
 6070WAT    EPW25002   5.206   2.841   6.855  0.2299  0.4784  0.3341
 6071WAT      O25003   5.897   4.931   5.345 -0.2615 -0.1358 -0.2332
 6071WAT     H125004   5.819   4.932   5.307 -0.7576 -0.6417  0.7442
 6071WAT     H225005   5.944   4.877   5.294 -0.1502  1.1069 -1.5201
 6071WAT    EPW25006   5.892   4.923   5.331 -0.3183 -0.0269 -0.2789
 6072WAT      O25007   3.749   5.244   7.398 -0.0285  0.6774  0.2416
 6072WAT     H125008   3.733   5.298   7.332 -0.9077  0.4555  0.2714
 6072WAT     H225009   3.673   5.203   7.412  0.5398 -0.3759  0.3990
 6072WAT    EPW25010   3.736   5.246   7.390 -0.0744  0.4890  0.2693
 6073WAT      O25011   1.130   5.183   0.393 -0.5213  0.2731 -0.3415
 6073WAT     H125012   1.195   5.240   0.405 -0.1345 -0.0212 -0.9778
 6073WAT     H225013   1.148   5.147   0.316 -1.0251 -0.3678 -0.1725
 6073WAT    EPW25014   1.142   5.186   0.383 -0.5386  0.1349 -0.4105
 6074WAT      O25015   2.358   2.525   1.558  0.0936  0.0141  0.0711
 6074WAT     H125016   2.325   2.463   1.610 -0.5224  0.8354  0.6960
 6074WAT     H225017   2.387   2.585   1.615  2.3952 -0.5161 -0.4648
 6074WAT    EPW25018   2.357   2.524   1.574  0.3426  0.0571  0.0842
 6075WAT      O25019   1.538   4.885   5.589 -0.5643  0.4352  0.2372
 6075WAT     H125020   1.557   4.943   5.652  1.0123  0.4855 -0.2316
 6075WAT     H225021   1.602   4.826   5.596 -1.7639 -0.8995  0.2618
 6075WAT    EPW25022   1.551   4.885   5.599 -0.5086  0.2455  0.1716
 6076WAT      O25023   4.172   6.638   5.875  0.2860 -0.4435  0.1707
 6076WAT     H125024   4.107   6.581   5.885  0.8514 -0.7920  2.4098
 6076WAT     H225025   4.244   6.589   5.877  0.7074  0.0758 -0.9629
 6076WAT    EPW25026   4.173   6.623   5.877  0.4318 -0.4182  0.3340
 6077WAT      O25027   7.061   3.495   7.277  0.2525  0.1380 -0.0927
 6077WAT     H125028   7.029   3.416   7.298  0.2530  1.0563  4.5067
 6077WAT     H225029   7.141   3.494   7.311  0.7886  1.7017 -1.2242
 6077WAT    EPW25030   7.068   3.483   7.285  0.3318  0.5046  0.4196
 6078WAT      O25031   2.535   1.512   0.057 -0.5079  0.1487  0.4062
 6078WAT     H125032   2.532   1.493  -0.028 -3.9144  1.3662  0.0883
 6078WAT     H225033   2.584   1.584   0.061  0.6303 -0.5535 -0.3009
 6078WAT    EPW25034   2.542   1.520   0.045 -0.8430  0.2248  0.2548
 6079WAT      O25035   7.087   1.732   6.671 -0.2828  0.0631 -0.1231
 6079WAT     H125036   7.053   1.738   6.751  0.4122 -1.9960  0.4069
 6079WAT     H225037   7.154   1.677   6.682 -1.2893 -1.7895 -2.4012
 6079WAT    EPW25038   7.092   1.725   6.684 -0.3288 -0.5148 -0.3813
 6080WAT      O25039   2.440   2.933   5.887  0.3399  0.0407  0.3032
 6080WAT     H125040   2.402   3.010   5.876  0.8074  0.1338 -0.7867
 6080WAT     H225041   2.511   2.951   5.934  0.8723  0.4123 -0.6241
 6080WAT    EPW25042   2.445   2.947   5.892  0.4876  0.1094  0.0052
 6081WAT      O25043   1.189   1.437   4.502  0.5012 -0.1318 -0.4757
 6081WAT     H125044   1.264   1.415   4.465  1.0990 -1.0576  1.1857
 6081WAT     H225045   1.186   1.523   4.494  1.4393 -0.1463 -1.0747
 6081WAT    EPW25046   1.199   1.446   4.495  0.7281 -0.2707 -0.3188
 6082WAT      O25047   6.021   4.802   7.425  0.5540  0.0814  0.2308
 6082WAT     H125048   6.037   4.866   7.367  1.4550 -0.9743 -0.7411
 6082WAT     H225049   6.092   4.752   7.420 -1.3951 -2.7859 -1.4694
 6082WAT    EPW25050   6.033   4.804   7.415  0.3992 -0.4981 -0.1639
 6083WAT      O25051   6.973   0.886   2.947  0.1314  0.4360 -0.3342
 6083WAT     H125052   7.007   0.824   2.998  0.3378  1.4606  0.8296
 6083WAT     H225053   6.955   0.950   3.003 -0.4273  1.2794 -1.4516
 6083WAT    EPW25054   6.976   0.886   2.963  0.0794  0.7119 -0.3274
 6084WAT      O25055   6.535   4.320   0.495 -0.8050 -0.2076 -0.1079
 6084WAT     H125056   6.599   4.290   0.444 -0.4261 -0.5321  0.5377
 6084WAT     H225057   6.573   4.386   0.538 -0.7039 -0.8052  0.7434
 6084WAT    EPW25058   6.550   4.326   0.494 -0.7341 -0.3438  0.1132
 6085WAT      O25059   1.033   1.153   6.095  0.3442 -0.1276 -0.2369
 6085WAT     H125060   0.990   1.083   6.122 -0.6259  0.7232  0.5191
 6085WAT     H225061   1.109   1.121   6.066 -0.0803 -1.4718  0.0706
 6085WAT    EPW25062   1.038   1.138   6.095  0.1382 -0.2005 -0.0798
 6086WAT      O25063   3.920   0.351   3.064 -0.6823  0.1026 -0.4357
 6086WAT     H125064   3.996   0.310   3.048 -1.4383 -1.1451 -0.9638
 6086WAT     H225065   3.944   0.435   3.073  0.8952 -0.4011  0.5063
 6086WAT    EPW25066   3.935   0.357   3.063 -0.5610 -0.1561 -0.3746
 6087WAT      O25067   0.555   0.022   1.265  0.1331  0.3829  0.3580
 6087WAT     H125068   0.537  -0.062   1.251  0.3561  0.4892 -0.6359
 6087WAT     H225069   0.490   0.049   1.315 -0.8411  0.0143 -0.6730
 6087WAT    EPW25070   0.543   0.014   1.270  0.0221  0.3442  0.0588
 6088WAT      O25071   1.881   3.797   3.162 -0.0119  0.7049  0.0234
 6088WAT     H125072   1.962   3.777   3.134 -1.2008 -2.3747 -1.7485
 6088WAT     H225073   1.894   3.865   3.214  3.3945  2.1256 -2.3007
 6088WAT    EPW25074   1.895   3.804   3.165  0.3157  0.4598 -0.5816
 6089WAT      O25075   2.059   2.763   5.856 -0.3512  0.0082 -0.1663
 6089WAT     H125076   2.133   2.746   5.899 -0.9555 -1.0597  0.4861
 6089WAT     H225077   2.054   2.699   5.797 -0.2911  0.6149 -0.8443
 6089WAT    EPW25078   2.069   2.751   5.854 -0.4316 -0.0599 -0.1701
 6090WAT      O25079   3.607   4.525   3.452  0.0117 -0.0789  0.1287
 6090WAT     H125080   3.555   4.480   3.398 -0.6746  0.4887  0.3035
 6090WAT     H225081   3.591   4.608   3.432  0.4926  0.1162  0.5226
 6090WAT    EPW25082   3.597   4.530   3.441 -0.0187  0.0337  0.2127
 6091WAT      O25083   3.943   6.575   4.086  0.3351 -0.9288  0.0713
 6091WAT     H125084   3.899   6.622   4.145  0.1511 -1.3652  0.2808
 6091WAT     H225085   3.898   6.501   4.080  1.9672 -2.1036  1.5446
 6091WAT    EPW25086   3.930   6.571   4.094  0.5490 -1.1668  0.3199
 6092WAT      O25087   0.639   2.321   0.908 -0.2773 -0.7635  0.1163
 6092WAT     H125088   0.575   2.349   0.855  0.5085 -1.0897 -1.0353
 6092WAT     H225089   0.607   2.336   0.988 -0.6164  1.7946 -0.4091
 6092WAT    EPW25090   0.624   2.327   0.912 -0.2113 -0.4338 -0.1314
 6093WAT      O25091   2.037   0.409   6.188 -0.5840 -0.2324  0.2828
 6093WAT     H125092   2.043   0.419   6.274  0.9146  0.8397  0.0975
 6093WAT     H225093   1.953   0.389   6.175 -1.0056  0.3322  1.9144
 6093WAT    EPW25094   2.025   0.408   6.199 -0.4249  0.0094  0.4965
 6094WAT      O25095   0.303   4.586   3.585 -0.3928 -0.2253  0.0860
 6094WAT     H125096   0.329   4.555   3.662  0.0549  1.3730  0.6162
 6094WAT     H225097   0.370   4.637   3.560 -0.8310 -0.1655 -1.0246
 6094WAT    EPW25098   0.317   4.589   3.592 -0.3914  0.0196  0.0003
 6095WAT      O25099   3.647   6.593   4.694  0.5641  0.2495  0.0783
 6095WAT     H125100   3.603   6.652   4.647 -0.3729 -0.8516 -0.4726
 6095WAT     H225101   3.584   6.553   4.739  1.2995  0.3074  1.1770
 6095WAT    EPW25102   3.631   6.596   4.694  0.5343  0.0954  0.1592
 6096WAT      O25103   5.728   0.012   6.326 -0.3169  0.2525 -0.3273
 6096WAT     H125104   5.680  -0.057   6.350 -0.7640  0.5653 -0.2998
 6096WAT     H225105   5.672   0.079   6.333  0.2281  0.6803  0.0770
 6096WAT    EPW25106   5.713   0.012   6.331 -0.3025  0.3619 -0.2635
 6097WAT      O25107   2.667   1.073   3.137  0.0964  0.1404 -0.3653
 6097WAT     H125108   2.703   1.108   3.208 -1.2528 -1.6375  1.3139
 6097WAT     H225109   2.611   1.134   3.110 -0.3249  0.3433  0.9074
 6097WAT    EPW25110   2.664   1.087   3.143 -0.1651 -0.0923  0.0707
 6098WAT      O25111   5.075   1.362   4.640  0.5260 -0.4201  0.6744
 6098WAT     H125112   5.058   1.366   4.555 -1.1020 -2.6608  0.8179
 6098WAT     H225113   5.041   1.436   4.671  1.6112  0.6865 -0.6233
 6098WAT    EPW25114   5.068   1.374   4.632  0.4458 -0.5876  0.5039
 6099WAT      O25115   1.080   2.923   1.646  0.0817 -0.3230  0.7485
 6099WAT     H125116   1.070   3.004   1.616  0.7325 -0.4964  0.0226
 6099WAT     H225117   1.094   2.876   1.573 -0.6373 -1.1414  1.1274
 6099WAT    EPW25118   1.081   2.928   1.631  0.0716 -0.4695  0.6972
 6100WAT      O25119   1.677   1.487   1.240  0.4659 -0.6127  0.1766
 6100WAT     H125120   1.659   1.523   1.162  1.0871 -2.1708 -0.7404
 6100WAT     H225121   1.658   1.550   1.297 -0.6010  0.3681 -1.1966
 6100WAT    EPW25122   1.671   1.502   1.237  0.4001 -0.6980 -0.1617
 6101WAT      O25123   1.306   7.025   5.457 -0.0692  0.6187 -0.5518
 6101WAT     H125124   1.371   6.972   5.481  0.8317  0.7775 -2.4216
 6101WAT     H225125   1.321   7.097   5.504  1.8425  1.0672 -1.7233
 6101WAT    EPW25126   1.318   7.028   5.468  0.3463  0.7084 -1.0011
 6102WAT      O25127   4.535   7.115   2.972 -0.2350  0.4117 -0.2418
 6102WAT     H125128   4.506   7.033   2.965 -0.8916  0.7195 -1.4612
 6102WAT     H225129   4.612   7.106   3.013  0.5439 -1.0264 -1.8774
 6102WAT    EPW25130   4.542   7.102   2.977 -0.2170  0.2447 -0.6635
 6103WAT      O25131   0.158   3.428   5.865 -0.2973  0.3536  0.4061
 6103WAT     H125132   0.100   3.487   5.891 -0.4055 -0.1646  1.4080
 6103WAT     H225133   0.141   3.417   5.780 -1.1851  0.7387  0.5321
 6103WAT    EPW25134   0.147   3.435   5.856 -0.4445  0.3339  0.5727
 6104WAT      O25135   1.513   0.103   6.407  0.3943  0.2713 -0.0759
 6104WAT     H125136   1.482   0.022   6.398  1.1647  0.0784 -1.1426
 6104WAT     H225137   1.576   0.093   6.467 -0.5014  0.3744  0.9080
 6104WAT    EPW25138   1.518   0.090   6.415  0.3758  0.2580 -0.0881
 6105WAT      O25139   3.800   6.602   2.282  0.2478 -0.2407  0.6294
 6105WAT     H125140   3.803   6.532   2.334  1.8615 -0.4944  0.2356
 6105WAT     H225141   3.883   6.615   2.260 -0.2541  0.6130 -0.9019
 6105WAT    EPW25142   3.813   6.594   2.286  0.4121 -0.1521  0.3450
 6106WAT      O25143   7.014   1.169   3.695 -0.2692 -0.7083  0.1820
 6106WAT     H125144   6.935   1.189   3.663 -0.4613 -1.4588  0.1662
 6106WAT     H225145   7.045   1.113   3.636 -0.2264 -1.3590  0.8183
 6106WAT    EPW25146   7.007   1.164   3.681 -0.2913 -0.9153  0.2737
 6107WAT      O25147   5.357   6.137   2.235 -0.3820 -0.0269 -0.2896
 6107WAT     H125148   5.420   6.110   2.180  0.5382  0.5594  0.4267
 6107WAT     H225149   5.300   6.072   2.236  0.0824 -0.4634 -1.1847
 6107WAT    EPW25150   5.358   6.124   2.227 -0.1775 -0.0048 -0.3160
 6108WAT      O25151   1.936   2.825   4.114  0.1240 -0.3396 -0.0918
 6108WAT     H125152   1.875   2.800   4.057  1.2316 -1.5316 -0.8087
 6108WAT     H225153   1.962   2.903   4.084  0.0252 -0.5280 -0.6685
 6108WAT    EPW25154   1.931   2.833   4.101  0.2730 -0.5435 -0.2829
 6109WAT      O25155   6.876   1.204   6.447 -0.2707 -0.2322  0.0555
 6109WAT     H125156   6.914   1.144   6.397  1.0636  0.3511  0.3400
 6109WAT     H225157   6.940   1.260   6.464 -1.4148  1.1149  0.0538
 6109WAT    EPW25158   6.891   1.203   6.442 -0.2426  0.0529  0.0973
 6110WAT      O25159   4.823   0.827   2.592 -0.7928  0.2992  0.0555
 6110WAT     H125160   4.773   0.898   2.600 -0.4183  0.4825  0.8345
 6110WAT     H225161   4.904   0.857   2.605 -0.5167 -0.0900 -0.6794
 6110WAT    EPW25162   4.828   0.842   2.595 -0.6967  0.2688  0.0620
 6111WAT      O25163   6.122   0.918   6.754 -0.1308  0.3200  0.5762
 6111WAT     H125164   6.105   0.901   6.670  1.0475 -1.0594  0.5760
 6111WAT     H225165   6.135   1.004   6.755  0.9656  0.2205 -0.9075
 6111WAT    EPW25166   6.121   0.928   6.741  0.2052  0.1015  0.3570
 6112WAT      O25167   0.609   1.344   3.620 -0.5689  0.2448  0.2444
 6112WAT     H125168   0.555   1.280   3.644  0.7001 -0.9414  0.0677
 6112WAT     H225169   0.597   1.349   3.534  0.6774 -1.1188 -0.0531
 6112WAT    EPW25170   0.599   1.335   3.611 -0.1973 -0.1318  0.1743
 6113WAT      O25171   3.743   2.039   5.946  0.0677  0.5299 -0.0561
 6113WAT     H125172   3.745   2.103   6.005  0.9797 -1.3319  2.1021
 6113WAT     H225173   3.827   2.028   5.925  0.1502 -0.9963  0.9039
 6113WAT    EPW25174   3.756   2.047   5.951  0.2146  0.0294  0.4045
 6114WAT      O25175   3.165   6.138   6.048  0.0585  0.1450 -0.0423
 6114WAT     H125176   3.235   6.135   5.995 -0.8760  2.9563 -1.6266
 6114WAT     H225177   3.119   6.068   6.025  1.2902 -0.5546 -0.5049
 6114WAT    EPW25178   3.169   6.127   6.037  0.1024  0.4569 -0.3446
 6115WAT      O25179   5.511   0.034   2.636  0.0050 -0.3692 -0.2450
 6115WAT     H125180   5.551  -0.032   2.676  1.2376  0.5342  0.0620
 6115WAT     H225181   5.560   0.049   2.566  1.0015  1.5622  0.7844
 6115WAT    EPW25182   5.524   0.026   2.631  0.3343  0.0496 -0.0476
 6116WAT      O25183   0.766   3.600   5.724 -0.2148 -0.5521  0.2563
 6116WAT     H125184   0.751   3.554   5.797 -1.2315  0.0825  0.4761
 6116WAT     H225185   0.687   3.633   5.705 -0.1198 -1.2582 -1.5273
 6116WAT    EPW25186   0.752   3.598   5.732 -0.3509 -0.5627  0.0253
 6117WAT      O25187   1.606   4.613   7.273  0.4719 -0.0187  0.0187
 6117WAT     H125188   1.645   4.545   7.236 -0.3034  0.1892 -1.2299
 6117WAT     H225189   1.672   4.655   7.313  1.6453  0.5325 -2.3316
 6117WAT    EPW25190   1.622   4.609   7.273  0.5307  0.0934 -0.5129
 6118WAT      O25191   3.128   1.075   5.992 -0.0345  0.3198  0.0917
 6118WAT     H125192   3.180   1.062   6.061  0.1644  2.5872  0.4646
 6118WAT     H225193   3.089   1.151   6.011 -2.4220 -0.5967 -0.8391
 6118WAT    EPW25194   3.130   1.085   6.005 -0.3578  0.5194  0.0093
 6119WAT      O25195   6.956   3.348   6.868  0.1125 -0.3427  0.2770
 6119WAT     H125196   7.031   3.331   6.826 -0.8433 -0.5291 -1.4434
 6119WAT     H225197   6.971   3.424   6.907  0.4765  0.7804 -1.9239
 6119WAT    EPW25198   6.969   3.357   6.868  0.0251 -0.2044 -0.3023
 6120WAT      O25199   1.102   3.394   2.874  0.1116  0.1600  0.1384
 6120WAT     H125200   1.032   3.401   2.924  0.3855 -1.8144  0.9086
 6120WAT     H225201   1.093   3.459   2.816 -0.6184  2.0130  2.2097
 6120WAT    EPW25202   1.090   3.405   2.873  0.0443  0.1421  0.5581
 6121WAT      O25203   0.602   4.488   6.992  0.3776  0.4885  0.0782
 6121WAT     H125204   0.614   4.504   7.077 -0.7998 -1.0970  0.5869
 6121WAT     H225205   0.635   4.559   6.953  3.6865 -0.0048  1.6364
 6121WAT    EPW25206   0.608   4.501   6.999  0.6925  0.1814  0.3835
 6122WAT      O25207   3.213   1.424   2.231 -0.1164 -0.8661 -0.0368
 6122WAT     H125208   3.242   1.402   2.152  1.0349  2.8800 -0.8619
 6122WAT     H225209   3.283   1.416   2.282  0.3235  0.6993 -0.3526
 6122WAT    EPW25210   3.227   1.419   2.227  0.1186 -0.0815 -0.2053
 6123WAT      O25211   5.656   0.627   3.624 -0.6739  0.0437  0.0622
 6123WAT     H125212   5.676   0.542   3.622 -1.0020 -0.1520  2.1770
 6123WAT     H225213   5.679   0.656   3.545  0.9839 -1.6613 -0.1489
 6123WAT    EPW25214   5.662   0.619   3.612 -0.4774 -0.2371  0.3434
 6124WAT      O25215   6.799   0.054   1.301  0.0179 -0.0898 -0.4057
 6124WAT     H125216   6.886   0.050   1.307 -0.0494 -0.7923  0.1994
 6124WAT     H225217   6.779   0.129   1.341  0.2320 -0.7239  0.9570
 6124WAT    EPW25218   6.809   0.065   1.308  0.0396 -0.2873 -0.1150
 6125WAT      O25219   2.350   1.312   2.032  0.5504  0.0273  0.2650
 6125WAT     H125220   2.364   1.228   2.014 -1.1935 -0.1345 -0.4776
 6125WAT     H225221   2.272   1.329   1.997  0.2382  1.6030  1.5576
 6125WAT    EPW25222   2.341   1.302   2.024  0.2467  0.2361  0.3462
 6126WAT      O25223   1.720   2.514   0.321 -0.5552  0.0148  0.0974
 6126WAT     H125224   1.678   2.589   0.338  2.0639  1.5424  0.4049
 6126WAT     H225225   1.801   2.541   0.300  0.5224 -2.7638  0.3487
 6126WAT    EPW25226   1.726   2.529   0.320 -0.0091 -0.1700  0.1799
 6127WAT      O25227   2.190   0.243   4.045 -0.1360 -0.1503 -0.3738
 6127WAT     H125228   2.184   0.203   4.122  2.6283  0.5366  0.2861
 6127WAT     H225229   2.253   0.301   4.056 -2.1002  2.5522 -2.1345
 6127WAT    EPW25230   2.199   0.245   4.058 -0.0178  0.3504 -0.5364
 6128WAT      O25231   5.044   6.090   2.698  0.1393  0.3347  0.2360
 6128WAT     H125232   5.014   6.172   2.695 -0.9077 -0.0211  0.7383
 6128WAT     H225233   5.033   6.068   2.782  1.8098  0.1756  0.4525
 6128WAT    EPW25234   5.038   6.099   2.710  0.2314  0.2586  0.3421
 6129WAT      O25235   0.410   3.518   1.817  0.1763 -0.3148  0.0489
 6129WAT     H125236   0.470   3.580   1.805 -0.5454  0.5204  0.6355
 6129WAT     H225237   0.439   3.451   1.768  0.6123  0.7275 -1.1617
 6129WAT    EPW25238   0.423   3.517   1.808  0.1341 -0.0374 -0.0433
 6130WAT      O25239   3.944   3.793   1.289  0.5481  0.5577 -0.0518
 6130WAT     H125240   3.866   3.754   1.285  0.3042  0.8752  1.2065
 6130WAT     H225241   3.943   3.833   1.367  1.3723  1.8438 -0.6754
 6130WAT    EPW25242   3.932   3.793   1.300  0.6338  0.7946  0.0420
 6131WAT      O25243   5.591   5.397   6.289  0.2455  0.3452  0.7344
 6131WAT     H125244   5.532   5.456   6.315 -1.0861 -1.1603  1.3197
 6131WAT     H225245   5.587   5.335   6.350  0.9207 -0.7829 -0.3147
 6131WAT    EPW25246   5.582   5.396   6.302  0.1485 -0.0439  0.6659
 6132WAT      O25247   2.429   4.549   3.177  0.1843  0.6043  0.3848
 6132WAT     H125248   2.478   4.529   3.247 -0.4522 -0.2870  0.5868
 6132WAT     H225249   2.362   4.493   3.182 -0.4335  1.2585 -0.3437
 6132WAT    EPW25250   2.427   4.538   3.188 -0.0010  0.5693  0.3070
 6133WAT      O25251   0.933   3.740   1.198 -0.1549 -0.3729  0.1247
 6133WAT     H125252   0.851   3.764   1.183  0.0085  0.0903 -0.0666
 6133WAT     H225253   0.950   3.683   1.134  0.0841  0.5263 -0.6375
 6133WAT    EPW25254   0.924   3.735   1.186 -0.0954 -0.1716 -0.0161
 6134WAT      O25255   0.076   5.451   0.469 -0.0280  0.2793 -0.5745
 6134WAT     H125256   0.012   5.433   0.413 -1.2016 -1.1640  1.1186
 6134WAT     H225257   0.148   5.441   0.422 -0.9080 -2.2641 -1.5533
 6134WAT    EPW25258   0.077   5.447   0.454 -0.3314 -0.3096 -0.4690
 6135WAT      O25259   1.722   4.903   6.375 -0.0412 -0.1938 -0.1782
 6135WAT     H125260   1.754   4.824   6.357 -1.1331 -0.7353  0.1325
 6135WAT     H225261   1.776   4.958   6.334  1.0919 -1.0653  0.1076
 6135WAT    EPW25262   1.735   4.899   6.366 -0.0351 -0.4025 -0.0901
 6136WAT      O25263   0.028   6.922   5.275 -0.2720  0.2378 -0.1137
 6136WAT     H125264   0.113   6.909   5.261 -0.4257 -1.6739  0.5447
 6136WAT     H225265   0.008   6.867   5.340 -1.5912  2.1374  1.2002
 6136WAT    EPW25266   0.037   6.912   5.282 -0.4896  0.2360  0.1776
 6137WAT      O25267   2.482   7.154   1.532  0.0974  0.0322 -0.0096
 6137WAT     H125268   2.562   7.160   1.567  0.0248 -1.0901  0.3544
 6137WAT     H225269   2.483   7.077   1.492 -0.3732  0.5846 -1.1481
 6137WAT    EPW25270   2.494   7.144   1.531  0.0171 -0.0520 -0.1240
 6138WAT      O25271   2.157   2.289   1.330  0.5035  0.3121 -0.1626
 6138WAT     H125272   2.239   2.286   1.358  1.6935 -0.7150 -3.3547
 6138WAT     H225273   2.114   2.325   1.397  3.2311 -0.5282  2.2449
 6138WAT    EPW25274   2.163   2.294   1.344  1.0822  0.0362 -0.2785
 6139WAT      O25275   4.466   1.465   3.521  0.0067  0.3267  0.0172
 6139WAT     H125276   4.409   1.399   3.524 -1.1757  1.2843 -0.8739
 6139WAT     H225277   4.537   1.428   3.487 -1.5642  0.0654 -3.3207
 6139WAT    EPW25278   4.468   1.450   3.517 -0.4000  0.4295 -0.6075
 6140WAT      O25279   4.756   2.444   3.467 -0.1956 -0.2505 -0.0067
 6140WAT     H125280   4.672   2.466   3.476 -0.2743 -0.4926 -0.1421
 6140WAT     H225281   4.764   2.373   3.518 -0.3925 -1.0130 -0.9919
 6140WAT    EPW25282   4.745   2.436   3.476 -0.2363 -0.3989 -0.1722
 6141WAT      O25283   0.884   2.797   0.908  0.7973 -0.5961 -0.5745
 6141WAT     H125284   0.877   2.884   0.901  0.5143 -0.2342  2.8030
 6141WAT     H225285   0.967   2.785   0.933  0.5198 -1.1763  0.0980
 6141WAT    EPW25286   0.895   2.808   0.910  0.7145 -0.6283  0.0238
 6142WAT      O25287   3.877   5.434   6.777  0.0525  0.7537  0.1079
 6142WAT     H125288   3.871   5.487   6.846 -0.7801 -0.2630  0.8449
 6142WAT     H225289   3.803   5.448   6.734 -0.1668  0.1986  0.3019
 6142WAT    EPW25290   3.865   5.444   6.781 -0.1029  0.5215  0.2455
 6143WAT      O25291   2.385   1.717   0.313  0.4396 -0.4227 -0.4488
 6143WAT     H125292   2.427   1.793   0.312  0.0647 -0.1219  1.9389
 6143WAT     H225293   2.378   1.698   0.398 -0.5603 -2.5193 -0.9335
 6143WAT    EPW25294   2.390   1.725   0.325  0.2365 -0.6880 -0.1677
 6144WAT      O25295   0.807   4.794   2.508 -0.5141  0.2721  0.8626
 6144WAT     H125296   0.753   4.749   2.560 -1.5403  1.0905  0.5399
 6144WAT     H225297   0.818   4.742   2.439  0.0727 -0.4010  1.4454
 6144WAT    EPW25298   0.801   4.780   2.506 -0.5790  0.2936  0.9010
 6145WAT      O25299   6.571   5.225   1.964 -0.0117  0.3457 -0.1072
 6145WAT     H125300   6.652   5.244   1.989 -0.2084  0.1085  0.7384
 6145WAT     H225301   6.537   5.303   1.942  0.1536  0.5619  0.4081
 6145WAT    EPW25302   6.578   5.239   1.964 -0.0164  0.3426  0.0938
 6146WAT      O25303   4.161   1.862   0.593  0.1327  0.5785 -0.5580
 6146WAT     H125304   4.243   1.839   0.608 -0.7255 -0.5696  4.0636
 6146WAT     H225305   4.161   1.948   0.606  0.5100  0.4454  0.4142
 6146WAT    EPW25306   4.173   1.871   0.597  0.0617  0.3892  0.2684
 6147WAT      O25307   3.112   1.709   3.210  0.2982 -0.3872 -0.4878
 6147WAT     H125308   3.134   1.779   3.257  0.6729 -0.2832 -0.8133
 6147WAT     H225309   3.051   1.738   3.156  1.1773 -0.0627 -1.3185
 6147WAT    EPW25310   3.106   1.723   3.209  0.4834 -0.3239 -0.6586
 6148WAT      O25311   2.964   6.541   4.777  0.4630  0.5934  0.1183
 6148WAT     H125312   3.023   6.506   4.830  0.2907  0.6728  0.3628
 6148WAT     H225313   2.911   6.475   4.758 -1.4129  1.2215  2.6523
 6148WAT    EPW25314   2.965   6.526   4.782  0.1605  0.6979  0.5288
 6149WAT      O25315   1.969   3.566   6.401  0.3812 -0.5277  0.3848
 6149WAT     H125316   1.991   3.487   6.374  1.3498  0.1710 -1.0133
 6149WAT     H225317   1.959   3.557   6.488 -0.1455 -2.2741  0.1664
 6149WAT    EPW25318   1.971   3.553   6.410  0.4465 -0.6825  0.1460
 6150WAT      O25319   4.210   1.072   6.077  0.1365  0.5840  0.1345
 6150WAT     H125320   4.129   1.085   6.049 -0.2151  2.5910  1.8481
 6150WAT     H225321   4.254   1.142   6.049  0.7769  0.5170  0.9171
 6150WAT    EPW25322   4.205   1.084   6.069  0.1792  0.8706  0.5032
 6151WAT      O25323   5.437   3.967   5.722  0.0238  0.5062 -0.1325
 6151WAT     H125324   5.486   3.932   5.785  0.3019  0.9450 -0.0942
 6151WAT     H225325   5.455   3.918   5.652  1.6604  1.5168 -0.4890
 6151WAT    EPW25326   5.447   3.955   5.721  0.3067  0.7203 -0.1795
 6152WAT      O25327   3.325   1.949   6.083 -0.2168 -0.5812  0.3839
 6152WAT     H125328   3.288   1.911   6.153 -3.2830 -1.1315 -1.3452
 6152WAT     H225329   3.295   2.031   6.087  1.4663  0.0429  0.8699
 6152WAT    EPW25330   3.315   1.955   6.094 -0.4211 -0.5703  0.2003
 6153WAT      O25331   6.133   2.377   2.548 -0.4338 -0.6659  0.1465
 6153WAT     H125332   6.090   2.417   2.612 -0.2672  1.1413 -0.8072
 6153WAT     H225333   6.186   2.321   2.590 -0.0074  0.7809  1.6128
 6153WAT    EPW25334   6.135   2.374   2.564 -0.3462 -0.1852  0.2222
 6154WAT      O25335   0.187   6.134   3.017 -0.1210 -0.1282 -0.2901
 6154WAT     H125336   0.101   6.132   3.031  0.1166 -0.3715  1.3162
 6154WAT     H225337   0.209   6.049   3.013 -0.2976 -0.1462 -3.4709
 6154WAT    EPW25338   0.178   6.121   3.018 -0.1120 -0.1668 -0.5227
 6155WAT      O25339   1.188   3.011   5.758  0.0549 -0.3512 -0.1034
 6155WAT     H125340   1.260   3.036   5.715  0.2553  1.7669  1.2699
 6155WAT     H225341   1.143   3.086   5.767 -1.7278 -1.4025  0.1575
 6155WAT    EPW25342   1.192   3.026   5.753 -0.1789 -0.1936  0.1380
 6156WAT      O25343   2.721   0.166   5.434  0.2610  0.0068 -0.3907
 6156WAT     H125344   2.706   0.247   5.464  1.7435  0.1027  0.1456
 6156WAT     H225345   2.661   0.118   5.476  1.5732  0.3113  1.9918
 6156WAT    EPW25346   2.710   0.171   5.445  0.6738  0.0659  0.0405
 6157WAT      O25347   2.771   1.486   5.211 -0.4662  0.4008  0.0603
 6157WAT     H125348   2.781   1.440   5.284 -1.6637 -0.8437 -0.5137
 6157WAT     H225349   2.685   1.501   5.208 -0.1195  2.8157  0.2615
 6157WAT    EPW25350   2.759   1.481   5.221 -0.5919  0.5737  0.0052
 6158WAT      O25351   1.966   3.719   6.175 -0.4415  0.4166 -0.0359
 6158WAT     H125352   1.910   3.663   6.138  0.5425 -0.8557  0.3426
 6158WAT     H225353   1.990   3.679   6.248  1.9943  0.2734 -0.8280
 6158WAT    EPW25354   1.961   3.705   6.180  0.0637  0.2075 -0.0970
 6159WAT      O25355   1.853   4.335   2.080 -0.1841  0.6356  0.1913
 6159WAT     H125356   1.919   4.392   2.080  0.2816  0.1076  0.7660
 6159WAT     H225357   1.877   4.276   2.021  0.9757 -0.7860  1.9750
 6159WAT    EPW25358   1.866   4.335   2.071  0.0560  0.3476  0.5397
 6160WAT      O25359   5.902   1.891   0.791  0.4790  0.4179  0.0476
 6160WAT     H125360   5.945   1.886   0.867  0.3574 -0.9797  0.0427
 6160WAT     H225361   5.827   1.930   0.812 -0.2178 -1.3377  0.9656
 6160WAT    EPW25362   5.897   1.896   0.805  0.3581 -0.0479  0.1825
 6161WAT      O25363   3.307   6.817   4.909  0.7161 -0.1825 -0.5071
 6161WAT     H125364   3.279   6.852   4.984 -0.3314  0.4030 -1.1557
 6161WAT     H225365   3.299   6.882   4.852  2.3981 -0.3403 -0.9590
 6161WAT    EPW25366   3.302   6.832   4.912  0.8098 -0.1193 -0.6697
 6162WAT      O25367   7.092   3.347   5.759 -0.1679 -0.2945  0.1223
 6162WAT     H125368   7.083   3.434   5.764  0.5121 -0.1458 -0.9326
 6162WAT     H225369   7.040   3.318   5.822 -1.4788  0.8302 -0.3775
 6162WAT    EPW25370   7.083   3.356   5.769 -0.2611 -0.1064 -0.1073
 6163WAT      O25371   3.455   2.205   3.864 -0.6199 -0.1195  0.2282
 6163WAT     H125372   3.404   2.203   3.793 -0.9015 -0.9891  0.4489
 6163WAT     H225373   3.443   2.285   3.895  0.0698  0.5482 -1.1033
 6163WAT    EPW25374   3.446   2.216   3.858 -0.5596 -0.1493  0.0641
 6164WAT      O25375   3.587   5.271   1.838 -0.4103  0.0081  0.2189
 6164WAT     H125376   3.544   5.336   1.877 -0.8888 -0.1137 -0.0852
 6164WAT     H225377   3.523   5.220   1.807 -0.0644 -1.1075  1.2559
 6164WAT    EPW25378   3.571   5.273   1.839 -0.4299 -0.1747  0.3272
 6165WAT      O25379   6.114   5.365   4.590 -0.1987 -0.1207  0.1847
 6165WAT     H125380   6.032   5.369   4.561 -0.7557  1.5784  1.8031
 6165WAT     H225381   6.157   5.421   4.538 -0.6921  1.0885  1.0213
 6165WAT    EPW25382   6.108   5.374   4.578 -0.3538  0.3089  0.5473
 6166WAT      O25383   4.189   4.909   3.048  0.3691 -1.0112  0.0159
 6166WAT     H125384   4.264   4.950   3.031  0.2948 -0.1044  1.7237
 6166WAT     H225385   4.215   4.834   3.085  0.4276 -1.1644 -0.3228
 6166WAT    EPW25386   4.204   4.904   3.051  0.3668 -0.8999  0.2182
 6167WAT      O25387   4.694   3.939   0.117  0.0994 -0.0375  0.0668
 6167WAT     H125388   4.714   3.904   0.194  0.7294  1.4029  0.5837
 6167WAT     H225389   4.607   3.946   0.120 -0.0788 -1.7073 -0.1516
 6167WAT    EPW25390   4.684   3.934   0.129  0.1661 -0.0714  0.1109
 6168WAT      O25391   0.587   4.985   2.590 -0.0454 -0.0779  0.1452
 6168WAT     H125392   0.590   5.010   2.507  0.4334 -0.3685  0.0710
 6168WAT     H225393   0.524   5.034   2.624 -1.2904 -1.0219 -0.7299
 6168WAT    EPW25394   0.578   4.996   2.583 -0.1586 -0.2603  0.0049
 6169WAT      O25395   0.570   3.458   1.464 -0.3007  0.2345  0.4369
 6169WAT     H125396   0.543   3.383   1.499  0.5270 -1.1907 -1.7402
 6169WAT     H225397   0.558   3.446   1.378  3.7737  0.8063 -0.4156
 6169WAT    EPW25398   0.565   3.445   1.456  0.4234  0.1085 -0.0106
 6170WAT      O25399   1.324   2.169   5.326  0.0191 -0.3899  0.3621
 6170WAT     H125400   1.273   2.161   5.256  0.3421  0.4195  0.0258
 6170WAT     H225401   1.339   2.254   5.332  1.3522 -0.5961  0.4279
 6170WAT    EPW25402   1.319   2.180   5.317  0.2637 -0.3008  0.3222
 6171WAT      O25403   4.039   6.326   1.185 -0.2033 -0.1253  0.5965
 6171WAT     H125404   4.099   6.328   1.122 -1.9685 -1.2125 -1.2105
 6171WAT     H225405   4.068   6.263   1.239 -0.0647 -1.2032 -0.6822
 6171WAT    EPW25406   4.052   6.317   1.184 -0.4436 -0.4451  0.1407
 6172WAT      O25407   5.034   3.705   0.370 -0.0698 -0.9149  0.2940
 6172WAT     H125408   5.119   3.688   0.378  0.0127  0.1559  2.6782
 6172WAT     H225409   5.024   3.723   0.285  1.9917 -1.4368 -0.1134
 6172WAT    EPW25410   5.045   3.705   0.359  0.2469 -0.8338  0.5860
 6173WAT      O25411   4.936   3.349   0.947  0.2371  0.1373  0.3066
 6173WAT     H125412   4.902   3.426   0.971 -0.6477 -0.4569  1.0372
 6173WAT     H225413   4.867   3.305   0.917  0.7453 -0.3672 -0.1477
 6173WAT    EPW25414   4.921   3.354   0.946  0.1815 -0.0250  0.3474
 6174WAT      O25415   1.202   4.320   5.016  0.2861 -0.2953 -0.1372
 6174WAT     H125416   1.119   4.336   4.995  0.1570 -1.0426 -0.2533
 6174WAT     H225417   1.198   4.245   5.061  0.6953  0.6807  1.5855
 6174WAT    EPW25418   1.189   4.311   5.020  0.3275 -0.2615  0.1001
 6175WAT      O25419   0.429   5.987   5.406  0.1259 -0.0215  0.1756
 6175WAT     H125420   0.468   5.916   5.437 -0.4921  0.0075  1.0393
 6175WAT     H225421   0.489   6.049   5.415  0.6780 -0.4141 -0.6031
 6175WAT    EPW25422   0.443   5.985   5.412  0.1162 -0.0752  0.1882
 6176WAT      O25423   6.968   1.629   6.937 -0.8811 -0.1697  0.4136
 6176WAT     H125424   7.036   1.581   6.910 -0.5840  0.2224  0.4505
 6176WAT     H225425   6.930   1.580   6.998  0.2658  0.2282  1.4981
 6176WAT    EPW25426   6.973   1.615   6.942 -0.6678 -0.0530  0.5793
 6177WAT      O25427   6.035   6.151   3.290  0.0971  0.2089  0.1562
 6177WAT     H125428   6.105   6.144   3.238 -1.0754  1.0459 -1.6558
 6177WAT     H225429   6.047   6.227   3.330 -0.4311  1.0820 -1.2735
 6177WAT    EPW25430   6.047   6.161   3.288 -0.1542  0.4615 -0.3227
 6178WAT      O25431   5.869   1.002   2.807  0.0547 -0.3431  0.8485
 6178WAT     H125432   5.946   1.000   2.846  1.1786  1.6197 -1.0380
 6178WAT     H225433   5.833   1.077   2.835 -0.0699 -0.0145 -0.1562
 6178WAT    EPW25434   5.875   1.013   2.817  0.2023 -0.0046  0.4214
 6179WAT      O25435   2.505   2.024   1.606  0.5326 -0.6735 -0.5617
 6179WAT     H125436   2.570   2.066   1.566  0.6610 -0.6874 -0.3749
 6179WAT     H225437   2.494   2.069   1.680 -1.3388  0.7943 -1.6799
 6179WAT    EPW25438   2.513   2.037   1.611  0.2751 -0.4587 -0.6993
 6180WAT      O25439   5.363   2.231   0.290 -0.0816  0.0481  0.5907
 6180WAT     H125440   5.298   2.250   0.235  0.6545 -0.6345 -0.5796
 6180WAT     H225441   5.424   2.291   0.271  0.0009  0.0969  0.9997
 6180WAT    EPW25442   5.363   2.243   0.279  0.0393 -0.0456  0.4782
 6181WAT      O25443   1.518   6.005   6.483  0.7392 -0.0588  0.4167
 6181WAT     H125444   1.590   6.010   6.433  1.9901  1.3262  2.2447
 6181WAT     H225445   1.497   6.088   6.496 -2.5382 -0.3651 -1.7513
 6181WAT    EPW25446   1.526   6.018   6.477  0.4398  0.1006  0.3665
 6182WAT      O25447   3.831   3.356   6.182 -0.4613 -0.0676 -0.6208
 6182WAT     H125448   3.750   3.387   6.170 -1.5377 -1.8943  1.1115
 6182WAT     H225449   3.853   3.387   6.260  0.1194 -0.3551 -0.6672
 6182WAT    EPW25450   3.822   3.365   6.192 -0.5346 -0.3800 -0.3718
 6183WAT      O25451   0.989   5.977   6.677  0.0559  0.2346 -0.0072
 6183WAT     H125452   1.051   5.924   6.708  0.2414  0.6191  0.2910
 6183WAT     H225453   0.958   5.935   6.608  1.0558  0.2911 -0.5056
 6183WAT    EPW25454   0.994   5.963   6.672  0.2310  0.2997 -0.0368
 6184WAT      O25455   2.967   6.065   0.350 -0.0766  0.3201  0.4711
 6184WAT     H125456   2.908   6.119   0.386 -1.5840 -2.0360  1.7591
 6184WAT     H225457   2.918   6.007   0.308  1.4904 -0.1701 -0.7551
 6184WAT    EPW25458   2.951   6.064   0.349 -0.0678 -0.1003  0.4802
 6185WAT      O25459   4.589   2.073   3.799  0.1671 -0.0482 -0.0277
 6185WAT     H125460   4.531   2.087   3.735 -1.2060  0.7068  1.2936
 6185WAT     H225461   4.617   1.992   3.784 -0.7510 -0.1986 -1.0994
 6185WAT    EPW25462   4.584   2.063   3.788 -0.1714  0.0411  0.0092
 6186WAT      O25463   3.594   4.748   5.988 -1.2662  0.0490 -0.2597
 6186WAT     H125464   3.515   4.782   5.976 -1.2700 -0.1841 -0.9300
 6186WAT     H225465   3.591   4.672   5.945 -0.7951 -0.1287  0.0098
 6186WAT    EPW25466   3.582   4.742   5.980 -1.1972 -0.0117 -0.3189
 6187WAT      O25467   4.833   1.196   4.683  0.6496 -0.5487 -0.0689
 6187WAT     H125468   4.917   1.214   4.666  0.1670  0.4335 -1.7341
 6187WAT     H225469   4.790   1.245   4.624 -1.0817 -1.2268  0.5709
 6187WAT    EPW25470   4.839   1.206   4.671  0.3226 -0.5038 -0.2204
 6188WAT      O25471   4.122   0.176   3.065  0.2381  0.3403  0.3216
 6188WAT     H125472   4.198   0.165   3.107 -0.8710  0.8234  2.5651
 6188WAT     H225473   4.144   0.163   2.981  2.6529 -0.1962  0.9476
 6188WAT    EPW25474   4.137   0.172   3.059  0.4310  0.3324  0.7455
 6189WAT      O25475   3.724   5.071   6.636  0.0026  0.0110 -0.3031
 6189WAT     H125476   3.652   5.101   6.675  0.0587  2.9060 -2.0748
 6189WAT     H225477   3.695   5.009   6.583 -0.5935 -1.3386  1.5114
 6189WAT    EPW25478   3.709   5.066   6.634 -0.0772  0.2393 -0.2968
 6190WAT      O25479   5.629   2.935   4.906 -0.2174 -0.1735  0.4050
 6190WAT     H125480   5.654   2.989   4.969 -2.6902 -1.0747  2.3718
 6190WAT     H225481   5.669   2.860   4.925  1.5488  0.3210 -1.0818
 6190WAT    EPW25482   5.638   2.932   4.918 -0.3217 -0.2336  0.4759
 6191WAT      O25483   6.849   6.534   1.834 -0.4581  0.0603  0.1380
 6191WAT     H125484   6.840   6.540   1.747 -1.5102 -0.1094  0.2170
 6191WAT     H225485   6.915   6.588   1.852  0.4384 -0.6585 -0.8713
 6191WAT    EPW25486   6.857   6.543   1.824 -0.4811 -0.0709  0.0005
 6192WAT      O25487   4.316   3.930   1.867  0.6904 -0.2593  0.1205
 6192WAT     H125488   4.300   3.846   1.847  1.0872 -0.2174 -0.4203
 6192WAT     H225489   4.262   3.946   1.932  0.1848 -0.7688 -0.1584
 6192WAT    EPW25490   4.306   3.920   1.873  0.6743 -0.3284 -0.0006
 6193WAT      O25491   6.470   5.811   0.045 -0.0877 -0.0507  0.2223
 6193WAT     H125492   6.417   5.847   0.105  0.3786  1.5617 -0.2878
 6193WAT     H225493   6.519   5.756   0.092 -0.6937  0.1025  1.0698
 6193WAT    EPW25494   6.470   5.808   0.061 -0.1084  0.2101  0.2721
 6194WAT      O25495   2.315   3.582   6.404  0.5720 -0.5675 -0.2695
 6194WAT     H125496   2.228   3.586   6.409  0.6210 -1.0433  1.4344
 6194WAT     H225497   2.338   3.664   6.386 -0.3093 -0.9048 -3.7653
 6194WAT    EPW25498   2.306   3.595   6.402  0.4490 -0.6876 -0.5342
 6195WAT      O25499   3.018   6.708   3.298 -0.1488 -0.2121  0.4811
 6195WAT     H125500   3.087   6.681   3.252  0.2746 -1.2192  1.6381
 6195WAT     H225501   3.048   6.778   3.341 -0.6122  0.8721 -0.8831
 6195WAT    EPW25502   3.032   6.714   3.297 -0.1547 -0.2007  0.4505
 6196WAT      O25503   1.273   2.951   1.120 -0.0947 -0.2547 -0.0327
 6196WAT     H125504   1.304   2.986   1.046 -0.0065 -0.0043  0.1201
 6196WAT     H225505   1.261   3.020   1.172 -1.8690 -0.2117 -0.4163
 6196WAT    EPW25506   1.276   2.966   1.117 -0.3438 -0.2114 -0.0668
 6197WAT      O25507   5.646   2.920   0.325 -0.1578  0.8769 -0.0298
 6197WAT     H125508   5.662   2.895   0.407 -0.2840 -0.7445 -0.4587
 6197WAT     H225509   5.615   2.848   0.287 -0.1363  1.5928 -1.5062
 6197WAT    EPW25510   5.644   2.906   0.331 -0.1732  0.7431 -0.3113
 6198WAT      O25511   7.241   5.033   4.339  0.5831 -0.0502 -0.2261
 6198WAT     H125512   7.175   4.985   4.308 -0.1773  0.7235  0.1172
 6198WAT     H225513   7.214   5.115   4.324  2.6434  0.3160 -2.4847
 6198WAT    EPW25514   7.227   5.038   4.332  0.7751  0.1182 -0.5090
 6199WAT      O25515   4.083   0.234   4.758 -0.5019  0.1677  0.2629
 6199WAT     H125516   4.166   0.259   4.765 -0.9821  1.4246  2.0842
 6199WAT     H225517   4.076   0.169   4.816 -1.0568  0.8389  0.9562
 6199WAT    EPW25518   4.094   0.228   4.768 -0.6548  0.4525  0.6344
 6200WAT      O25519   3.695   5.775   5.227  0.5827  0.1152 -0.7242
 6200WAT     H125520   3.612   5.775   5.202  0.0007 -2.2482  0.7862
 6200WAT     H225521   3.732   5.713   5.177  0.7892 -0.5886  0.2656
 6200WAT    EPW25522   3.688   5.766   5.216  0.5273 -0.3379 -0.3548
 6201WAT      O25523   2.744   2.292   0.209  0.0782 -0.2317 -0.2160
 6201WAT     H125524   2.817   2.319   0.248  1.1754  0.5167 -2.6147
 6201WAT     H225525   2.680   2.328   0.257  1.3914  2.9281 -0.6371
 6201WAT    EPW25526   2.745   2.301   0.222  0.4343  0.3457 -0.6326
 6202WAT      O25527   4.188   6.333   1.517  0.4368  1.0583 -0.4261
 6202WAT     H125528   4.139   6.309   1.449 -2.3840  3.4001  0.5979
 6202WAT     H225529   4.164   6.416   1.531  2.5072  1.3325  2.1077
 6202WAT    EPW25530   4.177   6.342   1.509  0.3259  1.4447  0.0995
 6203WAT      O25531   7.063   3.807   4.745  0.1484  0.1467  0.2728
 6203WAT     H125532   7.149   3.811   4.759  0.2304  3.1606 -0.4020
 6203WAT     H225533   7.055   3.747   4.681  2.1621  1.8945 -1.7953
 6203WAT    EPW25534   7.074   3.799   4.737  0.4580  0.8501 -0.1324
 6204WAT      O25535   0.560   0.474   7.386  0.0775 -0.3269 -0.0874
 6204WAT     H125536   0.576   0.516   7.460  0.0883  0.3877 -0.4881
 6204WAT     H225537   0.637   0.436   7.366  0.4060  0.4511 -0.3388
 6204WAT    EPW25538   0.574   0.474   7.394  0.1276 -0.1064 -0.1838
 6205WAT      O25539   2.987   0.613   6.738  0.5237 -0.0510  0.2651
 6205WAT     H125540   3.034   0.592   6.668  0.8783  1.1831  0.0959
 6205WAT     H225541   3.005   0.550   6.795 -0.6229 -1.6762 -1.0973
 6205WAT    EPW25542   2.996   0.601   6.736  0.4067 -0.1088  0.0389
 6206WAT      O25543   2.438   1.815   7.109  0.3136 -0.3026  0.3437
 6206WAT     H125544   2.474   1.737   7.120  1.1626  0.0662  0.2329
 6206WAT     H225545   2.442   1.851   7.188  0.2005 -0.2479  0.3258
 6206WAT    EPW25546   2.444   1.809   7.122  0.4223 -0.2400  0.3247
 6207WAT      O25547   2.688   2.149   1.441  0.5806  0.0413  0.3984
 6207WAT     H125548   2.713   2.153   1.358 -0.4790  0.3968  0.0887
 6207WAT     H225549   2.730   2.216   1.478 -0.6626  1.2467 -0.3256
 6207WAT    EPW25550   2.698   2.159   1.434  0.2404  0.2719  0.2457
 6208WAT      O25551   4.671   6.964   4.810  0.0042  0.1467 -0.3892
 6208WAT     H125552   4.669   6.877   4.810  0.7318  0.1155 -0.9133
 6208WAT     H225553   4.598   6.986   4.768 -0.4826 -0.1887  0.2701
 6208WAT    EPW25554   4.660   6.954   4.803  0.0398  0.0925 -0.3692
 6209WAT      O25555   1.565   1.746   5.032 -0.0589 -0.2616 -1.0126
 6209WAT     H125556   1.520   1.713   4.965 -0.5941 -3.2369  0.6660
 6209WAT     H225557   1.528   1.824   5.045 -1.4907 -0.5964 -2.7125
 6209WAT    EPW25558   1.553   1.753   5.024 -0.3495 -0.7506 -1.0157
 6210WAT      O25559   3.840   5.944   4.184 -0.1574 -0.0665 -0.3674
 6210WAT     H125560   3.917   5.904   4.177 -0.3446 -0.4075 -0.4831
 6210WAT     H225561   3.850   5.995   4.254 -0.4381 -1.4798  0.7512
 6210WAT    EPW25562   3.853   5.946   4.193 -0.2265 -0.3257 -0.2192
 6211WAT      O25563   6.943   1.414   0.652  0.5025 -0.1495  0.4513
 6211WAT     H125564   6.922   1.358   0.589  0.5824 -0.5416  0.7708
 6211WAT     H225565   6.930   1.369   0.725 -4.3696  1.7031  1.0924
 6211WAT    EPW25566   6.938   1.399   0.654 -0.2054  0.0662  0.5932
 6212WAT      O25567   4.869   2.652   5.630  0.4058  0.0242 -0.1586
 6212WAT     H125568   4.850   2.576   5.591 -0.0255 -0.1770  0.4296
 6212WAT     H225569   4.834   2.643   5.709  1.8193  0.1564  0.5263
 6212WAT    EPW25570   4.861   2.639   5.636  0.5509  0.0140  0.0295
 6213WAT      O25571   2.276   5.388   2.204  0.2969  0.1472  0.1551
 6213WAT     H125572   2.335   5.325   2.192 -0.4662 -0.9124  1.7442
 6213WAT     H225573   2.325   5.457   2.227  1.0705 -0.0883 -0.7454
 6213WAT    EPW25574   2.292   5.389   2.206  0.2984 -0.0441  0.2568
 6214WAT      O25575   6.109   3.535   3.914 -0.2345  0.4339 -0.4250
 6214WAT     H125576   6.100   3.535   4.001 -0.7949  1.0561 -0.4740
 6214WAT     H225577   6.195   3.530   3.902 -0.1853 -0.1914  0.1592
 6214WAT    EPW25578   6.121   3.534   3.925 -0.3100  0.4334 -0.3460
 6215WAT      O25579   2.529   3.515   1.607 -0.7160 -0.0075  0.3284
 6215WAT     H125580   2.454   3.511   1.562  0.8506  0.9233 -2.6538
 6215WAT     H225581   2.583   3.464   1.561  1.2593  1.7351  0.5495
 6215WAT    EPW25582   2.526   3.507   1.593 -0.1928  0.3874 -0.0795
 6216WAT      O25583   5.211   1.322   6.634  0.8821  0.2395 -0.3053
 6216WAT     H125584   5.277   1.294   6.583  1.0797  0.7075 -0.3084
 6216WAT     H225585   5.184   1.394   6.594  0.1324 -0.1359 -0.4923
 6216WAT    EPW25586   5.217   1.328   6.620  0.8005  0.2532 -0.3333
 6217WAT      O25587   7.021   6.768   1.919  0.4510 -0.2827 -0.1982
 6217WAT     H125588   7.073   6.709   1.883 -0.0624 -2.5056  2.4454
 6217WAT     H225589   7.062   6.792   1.991 -1.1051 -0.3939  0.7794
 6217WAT    EPW25590   7.035   6.763   1.924  0.1453 -0.6275  0.3367
 6218WAT      O25591   2.506   7.271   6.479  0.0696  0.0791 -0.1632
 6218WAT     H125592   2.465   7.242   6.408  1.8418  0.4921 -1.3876
 6218WAT     H225593   2.584   7.232   6.476  0.3737  0.5088  1.2832
 6218WAT    EPW25594   2.511   7.261   6.468  0.3763  0.2036 -0.1304
 6219WAT      O25595   7.032   3.241   2.696  0.6288 -0.0257  0.2996
 6219WAT     H125596   6.948   3.218   2.703  0.6222  0.0141  0.3526
 6219WAT     H225597   7.046   3.240   2.610  0.7398 -0.6200  0.3183
 6219WAT    EPW25598   7.022   3.237   2.684  0.6442 -0.1076  0.3102
 6220WAT      O25599   6.930   2.782   3.658  0.1906  0.3509 -0.0929
 6220WAT     H125600   6.962   2.755   3.581 -0.6392 -1.0988  0.0320
 6220WAT     H225601   6.979   2.740   3.717 -0.6705 -0.4036  0.1156
 6220WAT    EPW25602   6.942   2.772   3.655 -0.0592  0.0253 -0.0436
 6221WAT      O25603   0.633   0.947   3.702  0.1109  0.1599 -0.1399
 6221WAT     H125604   0.682   0.999   3.653 -2.0527  1.2782 -1.2988
 6221WAT     H225605   0.572   0.919   3.647 -0.4800 -1.2774  1.1649
 6221WAT    EPW25606   0.631   0.951   3.687 -0.2960  0.1128 -0.1183
 6222WAT      O25607   0.880   0.537   7.109  0.2215 -0.2039  0.1283
 6222WAT     H125608   0.808   0.567   7.070 -0.3858 -1.0568  0.5500
 6222WAT     H225609   0.852   0.466   7.151  1.1809 -0.1734  0.8484
 6222WAT    EPW25610   0.865   0.531   7.109  0.2735 -0.3254  0.2969
 6223WAT      O25611   1.856   4.321   4.165  0.0775 -0.4803 -0.4371
 6223WAT     H125612   1.914   4.368   4.210 -0.6717 -0.5123  0.6016
 6223WAT     H225613   1.780   4.342   4.202 -0.6160 -0.2096 -1.9682
 6223WAT    EPW25614   1.853   4.331   4.177 -0.1356 -0.4451 -0.5099
 6224WAT      O25615   6.299   1.018   3.393  0.2656  0.2546  0.5263
 6224WAT     H125616   6.369   0.990   3.437 -0.6252  0.5195  2.1738
 6224WAT     H225617   6.249   0.947   3.387 -0.8088  0.8001  2.3686
 6224WAT    EPW25618   6.302   1.003   3.398 -0.0247  0.3743  1.0418
 6225WAT      O25619   4.997   5.180   5.645 -0.2054  0.0787 -0.0051
 6225WAT     H125620   4.923   5.223   5.629  0.5853  2.2203  1.5097
 6225WAT     H225621   5.045   5.195   5.574 -0.6834 -0.0823 -0.3677
 6225WAT    EPW25622   4.993   5.189   5.632 -0.1592  0.3713  0.1651
 6226WAT      O25623   1.726   0.621   4.072  0.0103  0.2811  0.1927
 6226WAT     H125624   1.764   0.563   4.126 -1.1918  0.1481  0.9340
 6226WAT     H225625   1.714   0.691   4.123 -2.7028 -0.4210  0.7040
 6226WAT    EPW25626   1.730   0.623   4.088 -0.5681  0.1577  0.3777
 6227WAT      O25627   3.184   1.170   3.769  0.1340  0.5481  0.2910
 6227WAT     H125628   3.215   1.091   3.750 -0.7658  0.1472  0.4292
 6227WAT     H225629   3.116   1.179   3.715  0.9481  1.7313 -0.5656
 6227WAT    EPW25630   3.178   1.160   3.759  0.1213  0.6637  0.1849
 6228WAT      O25631   2.823   1.072   2.586 -0.3818 -0.4211 -0.6281
 6228WAT     H125632   2.895   1.114   2.562  0.6385 -1.2264  0.8586
 6228WAT     H225633   2.759   1.130   2.572  0.8730  1.3487  0.6553
 6228WAT    EPW25634   2.824   1.087   2.580 -0.0457 -0.2786 -0.2189
 6229WAT      O25635   6.615   3.239   3.667 -0.3152  0.6864  0.0625
 6229WAT     H125636   6.658   3.287   3.725 -0.5171 -0.6752  1.4034
 6229WAT     H225637   6.669   3.172   3.652 -1.3267 -0.2855  0.6423
 6229WAT    EPW25638   6.629   3.236   3.673 -0.4944  0.3417  0.3462
 6230WAT      O25639   1.647   5.894   2.709 -0.1926  0.1426  0.1557
 6230WAT     H125640   1.716   5.894   2.655 -2.0194  1.0951 -2.3549
 6230WAT     H225641   1.614   5.813   2.700 -0.4182  0.2569 -0.0462
 6230WAT    EPW25642   1.653   5.882   2.700 -0.4958  0.3002 -0.2450
 6231WAT      O25643   6.008   1.376   2.479  0.3473 -0.2295 -0.2410
 6231WAT     H125644   5.967   1.393   2.403  4.4052 -0.8135 -2.8593
 6231WAT     H225645   5.989   1.292   2.493 -1.1482  0.1075 -0.0453
 6231WAT    EPW25646   5.999   1.366   2.470  0.7258 -0.2660 -0.5989
 6232WAT      O25647   2.667   4.398   4.132 -0.0507 -0.7698  0.1820
 6232WAT     H125648   2.738   4.449   4.124 -0.3022 -0.3213  0.7181
 6232WAT     H225649   2.641   4.386   4.050  0.2365 -0.3471  0.0234
 6232WAT    EPW25650   2.674   4.404   4.119 -0.0454 -0.6411  0.2378
 6233WAT      O25651   0.387   1.922   1.367 -0.2547 -0.9710  0.0448
 6233WAT     H125652   0.457   1.972   1.350 -1.6997  0.7432 -1.1552
 6233WAT     H225653   0.415   1.842   1.345  1.8901 -0.6746  1.3447
 6233WAT    EPW25654   0.402   1.918   1.361 -0.1513 -0.6740  0.0595
 6234WAT      O25655   6.228   0.499   2.793 -0.1769 -0.4610 -0.2443
 6234WAT     H125656   6.189   0.433   2.835  1.3911  0.2149  2.4847
 6234WAT     H225657   6.290   0.459   2.746 -1.1829 -1.1285 -1.0654
 6234WAT    EPW25658   6.232   0.483   2.792 -0.0939 -0.4598  0.0376
 6235WAT      O25659   6.550   3.867   6.057 -0.1040 -0.4135 -0.3147
 6235WAT     H125660   6.480   3.851   6.106 -0.2987 -0.5397 -0.6354
 6235WAT     H225661   6.545   3.952   6.040  0.5899 -0.1056  0.8548
 6235WAT    EPW25662   6.539   3.877   6.062 -0.0303 -0.3867 -0.1893
 6236WAT      O25663   2.321   5.989   2.676 -0.4024  0.2414  0.3735
 6236WAT     H125664   2.326   6.052   2.615  0.7281 -0.4085 -0.2336
 6236WAT     H225665   2.236   5.987   2.696 -0.6145  1.2573 -0.3360
 6236WAT    EPW25666   2.309   5.998   2.670 -0.2667  0.2955  0.1790
 6237WAT      O25667   4.930   1.140   2.193  0.1911  0.4731 -0.2937
 6237WAT     H125668   4.994   1.127   2.251  1.2409  0.0570 -1.4963
 6237WAT     H225669   4.857   1.129   2.240  0.9916  0.9569  1.1167
 6237WAT    EPW25670   4.929   1.136   2.209  0.4644  0.4831 -0.2630
 6238WAT      O25671   6.182   4.976   5.610  0.4289  0.0522 -0.0017
 6238WAT     H125672   6.103   4.938   5.605  0.1569  0.4027  1.3380
 6238WAT     H225673   6.236   4.915   5.580 -0.1074 -1.0189  1.1412
 6238WAT    EPW25674   6.178   4.962   5.605  0.3095 -0.0543  0.3650
 6239WAT      O25675   6.700   1.176   5.138  0.0860  0.8625  0.2150
 6239WAT     H125676   6.651   1.154   5.207  0.2486  2.6144  0.9216
 6239WAT     H225677   6.685   1.111   5.081 -1.6951  0.4604  1.0754
 6239WAT    EPW25678   6.691   1.163   5.139 -0.1531  1.0619  0.4465
 6240WAT      O25679   4.616   3.000   0.612  0.5008 -0.4775 -0.3103
 6240WAT     H125680   4.547   3.015   0.561  0.4276  2.1188  0.3943
 6240WAT     H225681   4.684   3.009   0.558  0.3688  0.2862 -0.3564
 6240WAT    EPW25682   4.616   3.004   0.597  0.4705  0.0189 -0.2130
 6241WAT      O25683   1.594   4.096   4.775 -0.8109  0.4458 -0.1949
 6241WAT     H125684   1.545   4.079   4.705 -0.7058 -0.4931 -0.0468
 6241WAT     H225685   1.659   4.039   4.769 -1.4677 -0.5242  1.3265
 6241WAT    EPW25686   1.596   4.085   4.764 -0.8924  0.1638  0.0517
 6242WAT      O25687   1.407   5.836   1.057 -0.2863  0.1996  0.2476
 6242WAT     H125688   1.423   5.786   0.988 -0.5462 -0.8525  0.9353
 6242WAT     H225689   1.336   5.882   1.034 -0.5429 -0.3585 -0.0806
 6242WAT    EPW25690   1.398   5.835   1.044 -0.3626 -0.0382  0.3007
 6243WAT      O25691   2.854   2.651   5.333  0.1066 -0.1261 -0.1255
 6243WAT     H125692   2.898   2.641   5.258 -0.6260  0.4532 -0.6474
 6243WAT     H225693   2.882   2.584   5.382  1.1090 -0.1217 -0.6579
 6243WAT    EPW25694   2.864   2.639   5.329  0.1465 -0.0399 -0.2812
 6244WAT      O25695   6.721   1.005   4.922  0.7829  0.5048  0.8970
 6244WAT     H125696   6.791   0.954   4.912  0.4752  0.1285  0.6560
 6244WAT     H225697   6.730   1.064   4.858  1.1150  0.7354  1.1498
 6244WAT    EPW25698   6.733   1.006   4.911  0.7865  0.4833  0.8987
 6245WAT      O25699   7.101   5.786   0.909  0.4025  0.3415 -0.3091
 6245WAT     H125700   7.072   5.867   0.898 -0.7378  0.2150  1.3066
 6245WAT     H225701   7.055   5.739   0.852  0.3361  0.6965 -0.5462
 6245WAT    EPW25702   7.090   5.791   0.899  0.2242  0.3752 -0.1055
 6246WAT      O25703   1.082   5.261   4.897  0.5924  0.0110 -0.5819
 6246WAT     H125704   1.130   5.333   4.885  0.7115 -0.2106 -1.5739
 6246WAT     H225705   1.032   5.280   4.965  1.1720  0.7401 -0.3509
 6246WAT    EPW25706   1.082   5.274   4.905  0.6956  0.0860 -0.6943
 6247WAT      O25707   2.863   4.045   5.799  0.4476 -0.6530 -0.7120
 6247WAT     H125708   2.777   4.048   5.815  0.4963 -2.1540 -0.0116
 6247WAT     H225709   2.899   4.038   5.878  1.3310  1.0893 -0.8995
 6247WAT    EPW25710   2.856   4.045   5.813  0.5853 -0.6173 -0.6362
 6248WAT      O25711   0.054   2.732   5.882 -0.3396  0.2319  0.4476
 6248WAT     H125712   0.062   2.747   5.968 -0.2493  0.1973  0.4450
 6248WAT     H225713  -0.021   2.772   5.862 -0.4341  0.1187  0.5706
 6248WAT    EPW25714   0.044   2.740   5.892 -0.3402  0.2101  0.4654
 6249WAT      O25715   2.773   7.146   2.497  0.0274 -0.7057 -0.1688
 6249WAT     H125716   2.702   7.128   2.545  0.2066  0.7667  0.7082
 6249WAT     H225717   2.741   7.173   2.421 -0.2804 -2.1276 -0.5752
 6249WAT    EPW25718   2.758   7.147   2.493  0.0084 -0.6982 -0.0992
 6250WAT      O25719   1.794   0.334   3.435  0.7041  0.4091 -0.5443
 6250WAT     H125720   1.868   0.377   3.421 -0.9153  3.1040 -1.3956
 6250WAT     H225721   1.747   0.389   3.485 -0.0968 -1.9839  1.5866
 6250WAT    EPW25722   1.798   0.348   3.441  0.3465  0.4537 -0.3553
 6251WAT      O25723   3.973   3.259   4.870 -0.5609 -0.2985  0.6975
 6251WAT     H125724   3.910   3.314   4.847 -0.4181  0.2152  1.4732
 6251WAT     H225725   3.931   3.198   4.916 -0.5154 -0.0211  1.1119
 6251WAT    EPW25726   3.958   3.258   4.873 -0.5331 -0.1816  0.8733
 6252WAT      O25727   6.268   2.008   4.090 -0.2943  0.1089 -0.0888
 6252WAT     H125728   6.219   1.936   4.101 -0.0962 -0.1083 -0.6102
 6252WAT     H225729   6.324   1.985   4.027 -0.2012  0.7130 -0.2275
 6252WAT    EPW25730   6.269   1.994   4.083 -0.2513  0.1660 -0.1863
 6253WAT      O25731   0.290   7.053   1.443 -0.3027 -0.4945  0.7327
 6253WAT     H125732   0.236   7.116   1.415 -0.5882  0.4916  3.2529
 6253WAT     H225733   0.245   6.980   1.428 -0.4553 -0.0731 -1.1828
 6253WAT    EPW25734   0.275   7.052   1.436 -0.3674 -0.2866  0.8220
 6254WAT      O25735   5.614   2.445   7.304 -0.5167  0.1608  0.0998
 6254WAT     H125736   5.630   2.371   7.261  0.5151  0.1280  0.5189
 6254WAT     H225737   5.611   2.505   7.241 -1.7320 -0.2755 -0.2812
 6254WAT    EPW25738   5.616   2.443   7.289 -0.5438  0.0915  0.1055
 6255WAT      O25739   6.901   3.227   4.002  0.4751 -0.4439  0.7486
 6255WAT     H125740   6.961   3.193   3.950 -0.4046  0.6136 -1.0431
 6255WAT     H225741   6.922   3.312   4.005 -0.3952 -0.2198  0.8286
 6255WAT    EPW25742   6.913   3.234   3.995  0.2166 -0.2546  0.4957
 6256WAT      O25743   0.831   6.566   5.543 -0.5152  0.1109 -0.2254
 6256WAT     H125744   0.872   6.531   5.612  0.4426 -1.1663 -1.3909
 6256WAT     H225745   0.855   6.650   5.545  0.7438 -0.2326  0.1305
 6256WAT    EPW25746   0.840   6.573   5.554 -0.1878 -0.1285 -0.3450
 6257WAT      O25747   2.401   1.420   6.749 -0.6187  0.2435  0.1548
 6257WAT     H125748   2.415   1.496   6.709  0.6384 -0.7378 -1.4043
 6257WAT     H225749   2.480   1.384   6.755 -1.4078 -2.2374 -2.0280
 6257WAT    EPW25750   2.414   1.426   6.744 -0.5496 -0.2679 -0.3979
 6258WAT      O25751   0.382   4.097   0.424 -0.6685 -0.3008 -0.4709
 6258WAT     H125752   0.412   4.116   0.503 -2.0856  3.4638 -0.6614
 6258WAT     H225753   0.447   4.120   0.371 -0.4557 -1.0052 -0.5317
 6258WAT    EPW25754   0.396   4.103   0.428 -0.8464  0.1512 -0.5080
 6259WAT      O25755   2.688   3.952   2.037 -0.1394  0.2598  0.0284
 6259WAT     H125756   2.712   4.026   1.996 -0.2311  1.3734  1.8463
 6259WAT     H225757   2.684   3.977   2.121 -0.5315 -1.7511  0.6400
 6259WAT    EPW25758   2.691   3.967   2.044 -0.2109  0.1273  0.3873
 6260WAT      O25759   5.559   3.737   0.256 -0.4097  0.2842  0.3606
 6260WAT     H125760   5.558   3.813   0.214 -0.7574 -0.5432 -1.2287
 6260WAT     H225761   5.589   3.681   0.196 -0.5361 -0.9088  1.3603
 6260WAT    EPW25762   5.564   3.740   0.241 -0.4797 -0.0143  0.2735
 6261WAT      O25763   4.373   1.448   1.293 -0.4224  0.1601 -0.1445
 6261WAT     H125764   4.407   1.501   1.233 -0.7106  1.6304  0.9592
 6261WAT     H225765   4.366   1.498   1.364  0.5328 -1.7025  1.3524
 6261WAT    EPW25766   4.377   1.463   1.294 -0.3239  0.1022  0.2397
 6262WAT      O25767   3.954   6.970   2.139  0.0284  0.4408 -0.0632
 6262WAT     H125768   4.029   7.006   2.167 -0.1078  0.0089  0.9317
 6262WAT     H225769   3.909   6.958   2.213 -1.9545  2.6369 -0.7723
 6262WAT    EPW25770   3.958   6.974   2.154 -0.2847  0.7014 -0.0210
 6263WAT      O25771   4.132   2.546   4.517  0.1543 -0.9689  0.3006
 6263WAT     H125772   4.125   2.558   4.431 -0.0198 -2.9843 -0.0151
 6263WAT     H225773   4.057   2.508   4.539 -0.9116  1.7804  1.8557
 6263WAT    EPW25774   4.120   2.542   4.508 -0.0289 -0.8605  0.4837
 6264WAT      O25775   5.780   1.260   2.874 -0.2152  0.2413 -0.1695
 6264WAT     H125776   5.739   1.314   2.928 -1.7004  1.4850 -2.4309
 6264WAT     H225777   5.818   1.313   2.816  0.9868 -1.0659 -0.6488
 6264WAT    EPW25778   5.780   1.275   2.873 -0.2571  0.2319 -0.5743
 6265WAT      O25779   6.549   6.966   2.470 -0.1337  0.1024 -0.2126
 6265WAT     H125780   6.606   7.015   2.514 -0.5867 -1.8456  2.8555
 6265WAT     H225781   6.475   6.974   2.516 -0.4920 -2.5242 -0.1814
 6265WAT    EPW25782   6.547   6.974   2.483 -0.2535 -0.5734  0.2452
 6266WAT      O25783   6.637   1.996   4.791 -0.2046  0.0628  0.3208
 6266WAT     H125784   6.589   1.944   4.843 -0.9130 -0.4021 -0.7600
 6266WAT     H225785   6.716   1.995   4.829 -0.6738 -0.3340  1.3301
 6266WAT    EPW25786   6.642   1.988   4.804 -0.3785 -0.0645  0.3102
 6267WAT      O25787   1.068   7.028   3.916 -0.5297 -0.1158  0.3335
 6267WAT     H125788   1.089   6.990   3.991 -0.2620  1.3633  1.0611
 6267WAT     H225789   1.139   7.074   3.895 -1.5553  1.7904  0.7387
 6267WAT    EPW25790   1.081   7.029   3.924 -0.6416  0.3843  0.5008
 6268WAT      O25791   3.352   5.432   1.558 -0.0894 -0.1908  0.5700
 6268WAT     H125792   3.274   5.437   1.597 -0.8812  1.3699 -1.0656
 6268WAT     H225793   3.402   5.485   1.606  0.4970 -2.3651  2.5560
 6268WAT    EPW25794   3.348   5.440   1.571 -0.1197 -0.2815  0.6217
 6269WAT      O25795   4.376   4.737   7.230 -0.6206  0.0929 -0.0773
 6269WAT     H125796   4.325   4.806   7.212 -0.6591 -0.2810 -1.4957
 6269WAT     H225797   4.393   4.703   7.152  0.3501 -0.8440  0.5178
 6269WAT    EPW25798   4.371   4.743   7.216 -0.4829 -0.1007 -0.1989
 6270WAT      O25799   3.876   2.842   7.048  0.5080 -0.0366  0.5264
 6270WAT     H125800   3.878   2.862   6.963  1.1348  1.2460  0.8142
 6270WAT     H225801   3.923   2.769   7.053 -2.0357 -1.9082 -0.5969
 6270WAT    EPW25802   3.883   2.835   7.036  0.2249 -0.1236  0.4029
 6271WAT      O25803   7.088   0.557   6.569  0.2275  0.2125 -0.2941
 6271WAT     H125804   7.003   0.545   6.556 -0.1996  2.4130  0.1312
 6271WAT     H225805   7.098   0.545   6.655 -0.3722  3.2305  0.3062
 6271WAT    EPW25806   7.077   0.553   6.580  0.0758  0.9834 -0.1426
 6272WAT      O25807   3.500   6.116   1.942  1.2620 -0.2276 -0.3441
 6272WAT     H125808   3.555   6.052   1.923 -0.4418 -1.8007 -0.2601
 6272WAT     H225809   3.442   6.114   1.877  0.0909 -0.0772  0.6593
 6272WAT    EPW25810   3.499   6.106   1.929  0.8373 -0.4377 -0.1835
 6273WAT      O25811   0.399   4.738   6.502  0.2499 -0.2597  0.5196
 6273WAT     H125812   0.454   4.726   6.436  0.1790 -0.1191  0.4346
 6273WAT     H225813   0.366   4.658   6.516  0.0689 -0.2416  0.2109
 6273WAT    EPW25814   0.402   4.725   6.494  0.2126 -0.2362  0.4614
 6274WAT      O25815   5.425   2.032   2.122 -0.0546  0.4691  0.5435
 6274WAT     H125816   5.447   1.952   2.093  0.6743  1.3140 -1.3928
 6274WAT     H225817   5.456   2.085   2.060  0.3870  2.3543  2.2902
 6274WAT    EPW25818   5.433   2.028   2.108  0.1183  0.8724  0.5154
 6275WAT      O25819   6.389   1.451   0.312 -0.0260 -0.0178  0.3146
 6275WAT     H125820   6.437   1.516   0.278 -1.6963  0.6246 -0.9743
 6275WAT     H225821   6.311   1.462   0.275 -0.2525 -3.0995 -0.3952
 6275WAT    EPW25822   6.385   1.462   0.301 -0.3062 -0.3781  0.0193
 6276WAT      O25823   4.434   7.091   0.570  0.4972 -0.1529 -0.6553
 6276WAT     H125824   4.434   7.061   0.652 -1.8782  1.0316 -0.1281
 6276WAT     H225825   4.377   7.040   0.529 -1.0022  1.3892 -0.6042
 6276WAT    EPW25826   4.426   7.079   0.576 -0.0752  0.2499 -0.5699
 6277WAT      O25827   1.001   0.400   4.097  0.1188  0.4827  0.3903
 6277WAT     H125828   0.995   0.315   4.116  0.8348 -0.4794 -2.8775
 6277WAT     H225829   0.924   0.419   4.062  0.2540  0.9193  0.3202
 6277WAT    EPW25830   0.989   0.390   4.094  0.2445  0.4051 -0.1028
 6278WAT      O25831   6.203   3.232   4.510  0.2929  0.2169  0.1271
 6278WAT     H125832   6.200   3.157   4.464  1.1518  0.5813 -0.5641
 6278WAT     H225833   6.235   3.289   4.453 -1.4074  1.4075  0.3035
 6278WAT    EPW25834   6.208   3.229   4.495  0.1686  0.4466  0.0511
 6279WAT      O25835   5.759   4.554   0.870  0.1388 -0.5894  0.0061
 6279WAT     H125836   5.701   4.554   0.805 -0.0654  0.1246  0.1821
 6279WAT     H225837   5.709   4.547   0.942  0.2373  0.3784  0.1780
 6279WAT    EPW25838   5.743   4.553   0.871  0.1232 -0.3409  0.0575
 6280WAT      O25839   6.460   1.671   5.711  0.7685 -0.2043  0.4473
 6280WAT     H125840   6.447   1.607   5.768 -0.6850 -0.1260  0.2281
 6280WAT     H225841   6.520   1.639   5.657 -1.2170 -2.1513 -0.7513
 6280WAT    EPW25842   6.467   1.657   5.712  0.2605 -0.4804  0.2379
 6281WAT      O25843   5.357   6.279   5.127 -0.3097  0.2783  0.3037
 6281WAT     H125844   5.301   6.347   5.129  0.5110  0.9553  1.0618
 6281WAT     H225845   5.385   6.278   5.045  0.5708  1.6429  0.5568
 6281WAT    EPW25846   5.353   6.289   5.115 -0.0584  0.5799  0.4531
 6282WAT      O25847   0.152   0.699   2.894 -0.7337  0.3261 -0.0369
 6282WAT     H125848   0.091   0.752   2.926  0.0154  0.8422  0.5564
 6282WAT     H225849   0.200   0.751   2.843 -0.2869  0.1151  0.1592
 6282WAT    EPW25850   0.150   0.714   2.891 -0.5570  0.3712  0.0797
 6283WAT      O25851   4.377   4.455   0.896 -0.3868  1.0184 -0.1545
 6283WAT     H125852   4.395   4.426   0.977 -1.7372 -0.8499 -0.4514
 6283WAT     H225853   4.409   4.536   0.896  0.9673  0.5593  1.7604
 6283WAT    EPW25854   4.384   4.463   0.908 -0.3863  0.6746  0.0845
 6284WAT      O25855   4.063   2.304   0.392 -0.0431 -0.2914  0.1634
 6284WAT     H125856   4.145   2.291   0.420 -0.0492  0.0480  0.3331
 6284WAT     H225857   4.057   2.390   0.384 -0.6436 -0.2603  0.9219
 6284WAT    EPW25858   4.075   2.315   0.395 -0.1327 -0.2366  0.3005
 6285WAT      O25859   3.448   0.891   5.522 -0.1614  0.2197  0.0570
 6285WAT     H125860   3.519   0.892   5.471  0.6702 -0.9479  1.1303
 6285WAT     H225861   3.389   0.848   5.474 -0.0171  0.8089 -0.6640
 6285WAT    EPW25862   3.449   0.884   5.507 -0.0173  0.1342  0.1091
 6286WAT      O25863   0.418   4.783   2.740  0.4454  0.0259 -0.5098
 6286WAT     H125864   0.410   4.824   2.663  0.6792  1.4284  0.2028
 6286WAT     H225865   0.466   4.712   2.720 -0.0783  0.0038 -1.7737
 6286WAT    EPW25866   0.424   4.778   2.725  0.4026  0.2298 -0.5913
 6287WAT      O25867   5.823   1.867   1.545 -0.0591 -0.1874 -0.1455
 6287WAT     H125868   5.853   1.900   1.620 -1.2665  1.1065 -0.1868
 6287WAT     H225869   5.830   1.781   1.556  1.9415  0.0012  0.5145
 6287WAT    EPW25870   5.828   1.859   1.557  0.0581  0.0316 -0.0541
 6288WAT      O25871   7.104   3.380   0.646 -0.5623 -0.3879 -0.0773
 6288WAT     H125872   7.150   3.381   0.572  1.7631  0.2809  1.2739
 6288WAT     H225873   7.090   3.465   0.662  0.6351 -0.3892  1.1637
 6288WAT    EPW25874   7.108   3.393   0.637 -0.0419 -0.2893  0.3056
 6289WAT      O25875   2.801   6.186   3.510 -0.6687  0.4282  0.1448
 6289WAT     H125876   2.784   6.271   3.520 -3.6892  0.3533 -2.4784
 6289WAT     H225877   2.871   6.185   3.458 -1.1649  1.3756 -0.5722
 6289WAT    EPW25878   2.809   6.198   3.503 -1.1882  0.5571 -0.3486
 6290WAT      O25879   5.774   0.185   4.249 -0.4584 -0.1485  0.6736
 6290WAT     H125880   5.845   0.236   4.243 -0.4592 -0.1093  0.9942
 6290WAT     H225881   5.716   0.225   4.197 -0.3678  0.0241  0.7053
 6290WAT    EPW25882   5.776   0.199   4.241 -0.4451 -0.1172  0.7256
 6291WAT      O25883   2.856   2.924   4.021 -0.0504 -0.1700 -0.1839
 6291WAT     H125884   2.814   2.990   4.060 -2.9343 -2.4134  0.8788
 6291WAT     H225885   2.940   2.944   4.032 -0.7791  2.8837  0.7719
 6291WAT    EPW25886   2.862   2.936   4.028 -0.5841 -0.0503  0.1143
 6292WAT      O25887   3.197   2.289   1.309 -0.8540  0.1380  0.2097
 6292WAT     H125888   3.184   2.354   1.365 -1.6754  0.2383 -0.0728
 6292WAT     H225889   3.236   2.228   1.358  0.8912  1.1983  0.2248
 6292WAT    EPW25890   3.200   2.289   1.325 -0.7175  0.3094  0.1702
 6293WAT      O25891   6.599   3.545   3.814 -0.3499 -0.3255  0.2047
 6293WAT     H125892   6.574   3.625   3.839 -0.5153 -0.2498 -0.1842
 6293WAT     H225893   6.530   3.495   3.832 -0.9837 -0.0409 -1.2605
 6293WAT    EPW25894   6.585   3.549   3.820 -0.4679 -0.2723 -0.0692
 6294WAT      O25895   3.716   5.202   1.019  0.1638 -0.1555 -0.8705
 6294WAT     H125896   3.711   5.141   1.080  0.3877  0.0458 -0.6513
 6294WAT     H225897   3.661   5.264   1.046 -0.5358 -0.5319 -1.4065
 6294WAT    EPW25898   3.707   5.202   1.032  0.0935 -0.1813 -0.9173
 6295WAT      O25899   6.275   3.453   5.526 -0.1060 -0.4328  0.0957
 6295WAT     H125900   6.292   3.470   5.610 -0.9869 -0.9444  0.3977
 6295WAT     H225901   6.199   3.409   5.530 -0.2338 -0.3234 -0.9784
 6295WAT    EPW25902   6.266   3.449   5.539 -0.2550 -0.4922 -0.0184
 6296WAT      O25903   6.017   4.583   5.587  0.1227 -0.0781  0.3332
 6296WAT     H125904   5.984   4.510   5.621  1.1646 -0.9882 -0.5519
 6296WAT     H225905   6.074   4.555   5.528  1.6655  1.4369  1.0019
 6296WAT    EPW25906   6.021   4.568   5.584  0.5045  0.0112  0.3012
 6297WAT      O25907   2.661   6.224   1.035 -0.5693 -0.0153 -0.3631
 6297WAT     H125908   2.592   6.277   1.043 -0.1222  0.4644  0.4901
 6297WAT     H225909   2.728   6.279   1.034 -0.0885 -0.5682  0.6235
 6297WAT    EPW25910   2.660   6.240   1.036 -0.4322 -0.0261 -0.0913
 6298WAT      O25911   7.207   2.549   6.163  0.0874  0.0619  0.3057
 6298WAT     H125912   7.166   2.523   6.090  1.3012  0.9079 -0.7122
 6298WAT     H225913   7.195   2.482   6.218 -0.7297 -0.6555 -0.7174
 6298WAT    EPW25914   7.199   2.535   6.160  0.1460  0.0809  0.0042
 6299WAT      O25915   6.394   6.225   2.495  0.5996  0.4382 -0.2196
 6299WAT     H125916   6.413   6.241   2.579  0.3529  0.4444 -0.1628
 6299WAT     H225917   6.420   6.143   2.483  0.2608  0.3007 -0.0220
 6299WAT    EPW25918   6.400   6.215   2.506  0.5131  0.4188 -0.1820
 6300WAT      O25919   3.385   2.430   5.842  0.4097 -0.2447 -0.1245
 6300WAT     H125920   3.425   2.502   5.870  1.2864 -0.8201  0.1417
 6300WAT     H225921   3.347   2.455   5.768  0.7243  0.4811 -0.0474
 6300WAT    EPW25922   3.385   2.444   5.835  0.5857 -0.2225 -0.0738
 6301WAT      O25923   0.041   7.038   2.259  0.0476  0.0220  0.6100
 6301WAT     H125924   0.123   7.035   2.231 -0.4146  2.4662 -1.3589
 6301WAT     H225925  -0.006   7.008   2.192 -0.7526  0.5739  0.8953
 6301WAT    EPW25926   0.046   7.033   2.245 -0.1389  0.4646  0.3613
 6302WAT      O25927   3.116   1.131   7.208 -0.2868  0.2494 -0.4020
 6302WAT     H125928   3.085   1.173   7.277  0.0478  1.1674 -0.8011
 6302WAT     H225929   3.045   1.109   7.164 -0.4677  0.3276 -0.1517
 6302WAT    EPW25930   3.101   1.134   7.212 -0.2641  0.3965 -0.4240
 6303WAT      O25931   6.469   4.655   5.758 -0.2965  0.6156  0.0260
 6303WAT     H125932   6.552   4.633   5.739 -0.1357  0.2478  1.1003
 6303WAT     H225933   6.478   4.731   5.799 -0.6105  1.2166 -0.9911
 6303WAT    EPW25934   6.483   4.663   5.761 -0.3191  0.6501  0.0344
 6304WAT      O25935   0.829   1.863   7.230  0.1091 -0.3090  0.2009
 6304WAT     H125936   0.892   1.885   7.286 -1.2335  3.3317  0.5473
 6304WAT     H225937   0.861   1.792   7.190  2.3460 -1.4562  3.5242
 6304WAT    EPW25938   0.843   1.856   7.233  0.2412  0.0594  0.7430
 6305WAT      O25939   5.286   1.723   0.172 -0.0343 -0.1662 -0.2172
 6305WAT     H125940   5.230   1.710   0.238  0.8937 -0.4856  0.5275
 6305WAT     H225941   5.319   1.802   0.188 -1.7187  0.9412 -1.7826
 6305WAT    EPW25942   5.283   1.732   0.184 -0.1460 -0.0498 -0.3384
 6306WAT      O25943   0.032   3.076   6.208  0.2505 -0.0925  0.0094
 6306WAT     H125944   0.041   3.135   6.272  0.4448  0.2096 -0.2892
 6306WAT     H225945   0.054   3.121   6.137  1.0493 -0.7184 -0.1503
 6306WAT    EPW25946   0.036   3.092   6.207  0.3972 -0.1404 -0.0583
 6307WAT      O25947   4.806   3.288   6.126 -0.4959  0.3424  0.3455
 6307WAT     H125948   4.837   3.362   6.161 -0.5700  0.6840 -0.2931
 6307WAT     H225949   4.805   3.305   6.040 -0.2961 -0.4821  0.1732
 6307WAT    EPW25950   4.810   3.301   6.118 -0.4773  0.2710  0.2257
 6308WAT      O25951   2.832   1.476   3.214 -0.5194 -0.6466  0.0042
 6308WAT     H125952   2.757   1.475   3.169 -0.6055 -2.1138  0.1153
 6308WAT     H225953   2.886   1.520   3.162 -1.0711 -0.8447 -0.7668
 6308WAT    EPW25954   2.829   1.482   3.200 -0.6136 -0.8926 -0.0933
 6309WAT      O25955   3.608   2.299   2.401 -0.3508  0.6746  0.3043
 6309WAT     H125956   3.625   2.225   2.445  1.6269  0.5672 -0.5246
 6309WAT     H225957   3.626   2.361   2.460 -3.3252  0.5914  1.4557
 6309WAT    EPW25958   3.613   2.297   2.416 -0.4980  0.6465  0.3520
 6310WAT      O25959   6.218   2.807   5.939 -0.0464 -0.3532 -0.3130
 6310WAT     H125960   6.196   2.727   5.967 -3.1050  0.1691 -0.8844
 6310WAT     H225961   6.215   2.800   5.852  2.5733 -0.2490 -0.4949
 6310WAT    EPW25962   6.214   2.794   5.930 -0.1112 -0.2606 -0.4242
 6311WAT      O25963   6.689   4.074   0.304 -0.7817 -0.5594  0.0661
 6311WAT     H125964   6.699   4.153   0.268 -0.6007 -0.3883  0.4795
 6311WAT     H225965   6.627   4.037   0.255  0.1003 -0.6876 -0.9879
 6311WAT    EPW25966   6.681   4.080   0.291 -0.6247 -0.5530 -0.0285
 6312WAT      O25967   1.565   3.551   3.090  0.3144  0.0536  0.6066
 6312WAT     H125968   1.544   3.471   3.062  1.1037 -0.2034  0.7246
 6312WAT     H225969   1.631   3.537   3.145  1.6723  0.9275 -0.7194
 6312WAT    EPW25970   1.572   3.537   3.094  0.6316  0.1448  0.4281
 6313WAT      O25971   6.257   5.282   1.357 -0.5313 -0.2901  0.0329
 6313WAT     H125972   6.292   5.236   1.423  1.4870  1.7704  0.5252
 6313WAT     H225973   6.320   5.281   1.296 -1.4290 -0.1628 -0.9181
 6313WAT    EPW25974   6.271   5.275   1.358 -0.3658  0.0331 -0.0348
 6314WAT      O25975   1.318   3.227   0.909  0.2979  0.6210  0.4070
 6314WAT     H125976   1.328   3.151   0.868 -1.0540 -0.8264  2.5687
 6314WAT     H225977   1.277   3.277   0.850 -0.9991 -1.1502 -0.2885
 6314WAT    EPW25978   1.313   3.223   0.895 -0.0934  0.1456  0.6236
 6315WAT      O25979   1.729   4.661   3.317 -0.5828  0.3131  0.0458
 6315WAT     H125980   1.726   4.690   3.399 -0.7344 -0.9097  0.4927
 6315WAT     H225981   1.805   4.619   3.312  0.7408  2.6513 -1.2837
 6315WAT    EPW25982   1.739   4.659   3.329 -0.4096  0.4779 -0.0846
 6316WAT      O25983   6.317   2.197   2.658  0.1475 -0.0218 -0.3699
 6316WAT     H125984   6.392   2.208   2.702  0.8463  1.9144 -1.9077
 6316WAT     H225985   6.315   2.112   2.642  1.0096 -0.4156  1.3844
 6316WAT    EPW25986   6.328   2.186   2.662  0.3781  0.2060 -0.3379
 6317WAT      O25987   3.954   3.262   4.573 -0.8005  0.4977 -0.3135
 6317WAT     H125988   4.028   3.238   4.533 -0.8823  1.0355 -0.8124
 6317WAT     H225989   3.929   3.190   4.616  1.3036  0.9821  1.9298
 6317WAT    EPW25990   3.961   3.248   4.573 -0.5017  0.6487 -0.0558
 6318WAT      O25991   5.082   3.468   2.165  0.2839 -0.3586  0.4072
 6318WAT     H125992   5.006   3.449   2.126  1.1417  0.7120 -2.0305
 6318WAT     H225993   5.102   3.395   2.208 -0.3864 -2.0854 -1.9597
 6318WAT    EPW25994   5.074   3.454   2.165  0.3116 -0.4555 -0.3026
 6319WAT      O25995   6.401   7.172   5.383 -0.7042  0.4761  0.0821
 6319WAT     H125996   6.345   7.152   5.447 -0.0703 -1.5701  0.0682
 6319WAT     H225997   6.359   7.146   5.311 -0.2925  0.1978 -0.0583
 6319WAT    EPW25998   6.387   7.165   5.382 -0.5498  0.1327  0.0593
 6320WAT      O25999   4.721   0.349   6.576 -0.5625 -0.3063  0.1959
 6320WAT     H126000   4.713   0.431   6.548  0.9434 -0.0866  0.3387
 6320WAT     H226001   4.649   0.310   6.544 -0.4903  0.6777 -1.2834
 6320WAT    EPW26002   4.709   0.355   6.567 -0.3293 -0.1285 -0.0015
 6321WAT      O26003   7.018   2.777   6.249 -0.6166  0.8872  0.3371
 6321WAT     H126004   7.059   2.715   6.203 -0.3289 -0.2916  2.0508
 6321WAT     H226005   7.029   2.849   6.202 -2.0874 -0.5314 -2.4500
 6321WAT    EPW26006   7.025   2.778   6.235 -0.7914  0.5035  0.1785
 6322WAT      O26007   3.979   6.925   1.175 -0.1914  0.0322  0.1389
 6322WAT     H126008   4.002   7.001   1.213 -1.2254  1.0340 -1.1546
 6322WAT     H226009   4.049   6.905   1.127 -0.0246  0.3317  0.2531
 6322WAT    EPW26010   3.993   6.933   1.174 -0.3195  0.2244 -0.0353
 6323WAT      O26011   5.999   4.749   2.580 -0.6518  0.1393  0.3369
 6323WAT     H126012   5.976   4.709   2.654  0.4743 -0.1957  0.5346
 6323WAT     H226013   6.007   4.685   2.522  0.3037  0.1483  0.4311
 6323WAT    EPW26014   5.997   4.734   2.583 -0.3443  0.0911  0.3800
 6324WAT      O26015   7.176   1.041   0.109  0.1055 -0.1064 -0.0401
 6324WAT     H126016   7.193   1.106   0.164  0.5594 -1.2913  1.2960
 6324WAT     H226017   7.183   0.970   0.159  0.4685 -1.2419 -1.6266
 6324WAT    EPW26018   7.179   1.040   0.125  0.2262 -0.4492 -0.0771
 6325WAT      O26019   0.753   3.137   0.187 -0.2863  0.3237 -0.2150
 6325WAT     H126020   0.677   3.154   0.226 -1.2139 -3.2951 -0.0679
 6325WAT     H226021   0.731   3.121   0.104  0.2213 -0.8420 -0.1517
 6325WAT    EPW26022   0.739   3.137   0.180 -0.3483 -0.3831 -0.1839
 6326WAT      O26023   4.120   1.653   1.904 -0.5390 -0.2800 -0.3896
 6326WAT     H126024   4.096   1.645   1.820 -1.2099 -1.3460 -0.1218
 6326WAT     H226025   4.199   1.688   1.900 -0.5434 -0.3731 -1.4807
 6326WAT    EPW26026   4.128   1.657   1.891 -0.6388 -0.4513 -0.5112
 6327WAT      O26027   0.185   0.629   0.585  0.3121  0.8551 -0.1904
 6327WAT     H126028   0.109   0.596   0.559 -0.4531  2.6209 -0.3533
 6327WAT     H226029   0.237   0.560   0.590 -0.2976 -0.0236 -3.5341
 6327WAT    EPW26030   0.181   0.614   0.582  0.1090  0.9862 -0.7084
 6328WAT      O26031   3.186   6.911   3.941  0.7710  0.8219 -0.1378
 6328WAT     H126032   3.129   6.848   3.961  0.9012  1.2861  1.9010
 6328WAT     H226033   3.236   6.875   3.880  1.3219 -1.3674  1.4798
 6328WAT    EPW26034   3.185   6.897   3.935  0.8716  0.5671  0.4023
 6329WAT      O26035   1.505   3.401   3.347 -0.3831 -0.3697 -0.0408
 6329WAT     H126036   1.579   3.377   3.388  0.3030 -0.8773 -1.5214
 6329WAT     H226037   1.463   3.326   3.336 -0.1956 -0.3453 -0.9532
 6329WAT    EPW26038   1.510   3.386   3.351 -0.2541 -0.4411 -0.3943
 6330WAT      O26039   3.386   1.579   4.362 -0.3457 -0.0292  0.3014
 6330WAT     H126040   3.401   1.539   4.286 -3.3338 -2.0796  0.5697
 6330WAT     H226041   3.436   1.650   4.359  1.6618 -1.3782 -2.3851
 6330WAT    EPW26042   3.396   1.583   4.350 -0.4905 -0.5314 -0.0558
 6331WAT      O26043   5.127   1.439   3.407  0.1846  0.2000  0.5629
 6331WAT     H126044   5.096   1.430   3.326  0.2011  0.0090  0.5773
 6331WAT     H226045   5.182   1.506   3.401  1.3401 -0.7595  0.0820
 6331WAT    EPW26046   5.131   1.447   3.394  0.3577  0.0300  0.4940
 6332WAT      O26047   6.648   6.609   5.551  0.2785  0.9464 -0.8190
 6332WAT     H126048   6.691   6.537   5.575  0.2978  1.5635  1.2220
 6332WAT     H226049   6.564   6.586   5.555  0.3081  0.8266 -0.8938
 6332WAT    EPW26050   6.642   6.595   5.555  0.2857  1.0199 -0.5285
 6333WAT      O26051   3.973   2.445   1.695  0.0710  0.0225 -0.1330
 6333WAT     H126052   4.003   2.444   1.613 -2.0233 -0.7244 -0.9508
 6333WAT     H226053   3.981   2.529   1.718  3.5645 -0.2243  0.1187
 6333WAT    EPW26054   3.979   2.457   1.686  0.2777 -0.1243 -0.2166
 6334WAT      O26055   0.561   4.302   0.732  0.5034  0.0495  0.1534
 6334WAT     H126056   0.493   4.247   0.726 -0.8635  1.5230  1.3085
 6334WAT     H226057   0.588   4.292   0.815  0.9583  0.3180  0.0407
 6334WAT    EPW26058   0.555   4.292   0.744  0.3687  0.3069  0.3074
 6335WAT      O26059   6.290   3.670   0.057  0.0727  0.3473  0.1860
 6335WAT     H126060   6.254   3.601   0.018  0.4181  1.1021 -1.5519
 6335WAT     H226061   6.250   3.738   0.020  2.5423  1.2060 -1.1402
 6335WAT    EPW26062   6.279   3.670   0.046  0.4885  0.5857 -0.2666
 6336WAT      O26063   5.292   7.071   6.555 -0.3742  0.1539  0.6773
 6336WAT     H126064   5.256   7.046   6.631 -0.7718 -1.9133 -0.1472
 6336WAT     H226065   5.234   7.045   6.496  0.8032  0.0658 -0.4645
 6336WAT    EPW26066   5.278   7.064   6.558 -0.2590 -0.1645  0.3869
 6337WAT      O26067   5.634   4.204   2.629  0.1638 -0.0224 -0.6235
 6337WAT     H126068   5.620   4.167   2.706  1.1741  0.4084 -0.2174
 6337WAT     H226069   5.699   4.260   2.644  0.7192 -0.2854 -1.8872
 6337WAT    EPW26070   5.641   4.207   2.642  0.3951  0.0024 -0.7502
 6338WAT      O26071   3.506   2.647   0.899  0.9694 -0.5016 -0.2825
 6338WAT     H126072   3.557   2.644   0.969 -1.7543  0.3846  1.9246
 6338WAT     H226073   3.507   2.565   0.869  1.3011 -1.2058  1.5252
 6338WAT    EPW26074   3.513   2.634   0.905  0.6160 -0.4747  0.3106
 6339WAT      O26075   1.412   2.046   3.930 -0.4594 -0.0326 -0.6797
 6339WAT     H126076   1.401   2.099   3.998  1.0176  0.1743 -0.5703
 6339WAT     H226077   1.386   2.095   3.862 -0.6748  0.2439 -0.3983
 6339WAT    EPW26078   1.407   2.061   3.930 -0.2731  0.0388 -0.6220
 6340WAT      O26079   2.472   1.542   1.267 -0.1848  0.2441  0.3838
 6340WAT     H126080   2.525   1.557   1.200  1.2700 -0.5974  1.2670
 6340WAT     H226081   2.502   1.467   1.300 -1.8609 -0.1887  1.0269
 6340WAT    EPW26082   2.484   1.533   1.262 -0.2175  0.0559  0.6093
 6341WAT      O26083   3.508   5.986   6.518  0.3693 -0.4652 -0.3877
 6341WAT     H126084   3.525   5.900   6.518 -1.1127 -0.8531 -2.7167
 6341WAT     H226085   3.580   6.021   6.484  0.3798 -0.9790 -0.9190
 6341WAT    EPW26086   3.521   5.978   6.513  0.1520 -0.5984 -0.8102
 6342WAT      O26087   2.187   0.300   0.110  0.0296 -0.1710  0.2339
 6342WAT     H126088   2.256   0.346   0.083 -0.8966  0.9698 -0.2969
 6342WAT     H226089   2.167   0.335   0.187  0.6405 -1.1896  0.8774
 6342WAT    EPW26090   2.194   0.312   0.117 -0.0170 -0.1529  0.2505
 6343WAT      O26091   1.652   6.763   4.918  0.0991 -0.3796 -0.4920
 6343WAT     H126092   1.692   6.766   4.841  1.0390  0.0269 -0.0117
 6343WAT     H226093   1.714   6.787   4.974 -1.5046  3.0499  0.0453
 6343WAT    EPW26094   1.667   6.767   4.915  0.0011  0.1870 -0.3417
 6344WAT      O26095   5.292   1.678   3.857  0.7318 -0.4359  0.5805
 6344WAT     H126096   5.245   1.673   3.784  1.7890  1.9122 -0.3623
 6344WAT     H226097   5.371   1.652   3.833  1.1887  0.7417  0.7251
 6344WAT    EPW26098   5.297   1.674   3.843  0.9555  0.0849  0.4626
 6345WAT      O26099   1.201   6.306   3.728 -0.3158  0.2050  0.0591
 6345WAT     H126100   1.207   6.386   3.760  2.3053  0.4048 -0.7231
 6345WAT     H226101   1.242   6.256   3.786  0.1457 -0.1870 -0.5840
 6345WAT    EPW26102   1.208   6.310   3.741  0.1396  0.1766 -0.1515
 6346WAT      O26103   4.685   1.404   3.151  0.4317 -0.6954  0.2792
 6346WAT     H126104   4.736   1.359   3.096  0.4801  1.5429 -1.6806
 6346WAT     H226105   4.639   1.456   3.099 -0.6476  0.5173  2.2972
 6346WAT    EPW26106   4.686   1.405   3.135  0.2794 -0.1856  0.2878
 6347WAT      O26107   1.042   6.832   4.423 -0.9903 -0.2162  0.2997
 6347WAT     H126108   1.096   6.764   4.426  0.7303  1.1025  1.3830
 6347WAT     H226109   1.088   6.896   4.461 -2.8234  1.3472  0.0336
 6347WAT    EPW26110   1.057   6.831   4.429 -1.0069  0.2096  0.4204
 6348WAT      O26111   3.428   6.682   3.410 -0.2793 -0.0698 -0.1521
 6348WAT     H126112   3.492   6.623   3.421 -0.9041 -0.8005 -0.3316
 6348WAT     H226113   3.393   6.659   3.334  0.1822  1.2543 -0.7894
 6348WAT    EPW26114   3.433   6.670   3.401 -0.3034  0.0179 -0.2728
 6349WAT      O26115   4.150   2.136   0.658  0.1170 -0.1936  0.1254
 6349WAT     H126116   4.206   2.200   0.642 -1.4190  1.0187 -0.6937
 6349WAT     H226117   4.078   2.160   0.616 -1.0164 -1.7055  1.0637
 6349WAT    EPW26118   4.147   2.149   0.650 -0.2773 -0.2379  0.1430
 6350WAT      O26119   4.330   3.275   0.420  0.4396 -0.1872  0.1059
 6350WAT     H126120   4.299   3.352   0.445 -2.7524 -0.9461 -1.0148
 6350WAT     H226121   4.310   3.222   0.487  1.3457 -0.3093  0.2859
 6350WAT    EPW26122   4.322   3.279   0.434  0.1020 -0.3174 -0.0331
 6351WAT      O26123   4.750   6.546   6.537  0.4972 -0.8783  0.2279
 6351WAT     H126124   4.719   6.612   6.489  1.7868  0.0797  0.6621
 6351WAT     H226125   4.764   6.582   6.615 -1.4796 -2.3804  1.3995
 6351WAT    EPW26126   4.747   6.561   6.541  0.3957 -0.9586  0.4651
 6352WAT      O26127   4.377   6.382   7.161  0.6140  0.2837 -0.3304
 6352WAT     H126128   4.393   6.382   7.075  0.4765  0.1424 -0.3546
 6352WAT     H226129   4.292   6.401   7.167  1.0368  2.3845 -0.1538
 6352WAT    EPW26130   4.367   6.385   7.149  0.6562  0.5732 -0.3079
 6353WAT      O26131   5.980   3.575   0.529 -0.0386  0.2368  0.0268
 6353WAT     H126132   5.896   3.599   0.519 -0.4220 -1.6011 -1.5934
 6353WAT     H226133   5.976   3.514   0.590  0.3606  1.1307  0.9832
 6353WAT    EPW26134   5.967   3.570   0.537 -0.0362  0.0973 -0.0712
 6354WAT      O26135   0.676   0.856   0.053  0.2012  0.2797 -0.2353
 6354WAT     H126136   0.653   0.843   0.136 -1.2931 -0.8261 -0.7965
 6354WAT     H226137   0.750   0.810   0.045  1.6594  2.2105  1.0254
 6354WAT    EPW26138   0.684   0.847   0.064  0.1959  0.4016 -0.1320
 6355WAT      O26139   2.208   6.842   2.781 -0.0528  0.1640 -0.4290
 6355WAT     H126140   2.234   6.875   2.858  3.3222 -0.1542 -1.2662
 6355WAT     H226141   2.176   6.764   2.802  0.5583  0.1942  0.7111
 6355WAT    EPW26142   2.207   6.835   2.796  0.5360  0.1215 -0.3843
 6356WAT      O26143   6.684   1.057   6.564  0.2016  0.3656  0.1854
 6356WAT     H126144   6.646   1.115   6.618  2.1585 -0.8336  3.1007
 6356WAT     H226145   6.734   1.107   6.513 -0.1498  1.4362  0.8461
 6356WAT    EPW26146   6.686   1.073   6.564  0.4387  0.3466  0.7137
 6357WAT      O26147   5.352   2.720   3.916  0.0306 -0.5880 -0.7579
 6357WAT     H126148   5.281   2.770   3.922 -0.1455 -0.8966 -0.1836
 6357WAT     H226149   5.350   2.692   3.833  0.7320  1.1984 -1.4429
 6357WAT    EPW26150   5.341   2.723   3.905  0.1082 -0.3697 -0.7743
 6358WAT      O26151   6.075   1.018   2.976 -0.0669 -0.1418 -0.3310
 6358WAT     H126152   6.158   0.991   2.975 -0.3228 -0.9393 -0.7664
 6358WAT     H226153   6.068   1.059   3.053  1.4493  2.3210 -1.3832
 6358WAT    EPW26154   6.086   1.020   2.987  0.1193  0.1042 -0.5507
 6359WAT      O26155   4.395   6.062   6.900 -0.2978 -0.1388 -0.7507
 6359WAT     H126156   4.409   5.987   6.859 -1.1477 -0.5951 -0.2249
 6359WAT     H226157   4.431   6.050   6.979 -1.8034 -0.5932 -0.1010
 6359WAT    EPW26158   4.402   6.049   6.905 -0.6458 -0.2733 -0.5771
 6360WAT      O26159   3.800   1.514   1.236  0.6593 -0.4799  0.4185
 6360WAT     H126160   3.727   1.531   1.280  1.2582  1.2439  0.8419
 6360WAT     H226161   3.772   1.501   1.154 -0.0086  2.7970 -0.0136
 6360WAT    EPW26162   3.785   1.515   1.230  0.6491  0.2588  0.4172
 6361WAT      O26163   4.909   2.111   1.417 -0.5234  0.0990 -0.1202
 6361WAT     H126164   4.993   2.135   1.410  0.3509 -2.3132  0.9442
 6361WAT     H226165   4.871   2.180   1.454  1.3586  0.6358  0.9367
 6361WAT    EPW26166   4.916   2.125   1.421 -0.1163 -0.1780  0.1932
 6362WAT      O26167   1.431   5.102   4.763 -0.0701 -0.7873 -0.4459
 6362WAT     H126168   1.346   5.083   4.753 -1.2342  2.2989  1.7723
 6362WAT     H226169   1.451   5.142   4.688 -1.0481 -0.3028 -0.4790
 6362WAT    EPW26170   1.421   5.105   4.750 -0.3866 -0.2598 -0.1231
 6363WAT      O26171   5.725   4.610   5.968 -0.0729  0.0741 -0.2813
 6363WAT     H126172   5.662   4.579   6.019 -1.9115  0.6863 -2.0368
 6363WAT     H226173   5.783   4.545   5.965 -1.1899 -0.9967  0.4370
 6363WAT    EPW26174   5.724   4.596   5.975 -0.5095  0.0064 -0.4345
 6364WAT      O26175   5.891   2.363   2.157  0.2394 -0.0470  0.5882
 6364WAT     H126176   5.958   2.407   2.122 -0.8864  0.6517 -0.8007
 6364WAT     H226177   5.925   2.329   2.230  1.9701  0.6545  0.1716
 6364WAT    EPW26178   5.906   2.365   2.162  0.3288  0.1598  0.3215
 6365WAT      O26179   3.875   0.434   4.741 -0.3961 -0.1077  0.0047
 6365WAT     H126180   3.836   0.392   4.675  1.0723 -1.5660  0.0236
 6365WAT     H226181   3.938   0.380   4.766  0.3310  1.2828  1.3340
 6365WAT    EPW26182   3.878   0.420   4.735 -0.0718 -0.1177  0.2038
 6366WAT      O26183   7.294   7.066   6.533 -0.0856  0.4708 -0.1492
 6366WAT     H126184   7.228   7.108   6.495  0.0071  1.0754  0.3435
 6366WAT     H226185   7.259   7.033   6.606  0.0679  0.4980 -0.0614
 6366WAT    EPW26186   7.279   7.067   6.538 -0.0493  0.5641 -0.0634
 6367WAT      O26187   6.835   1.148   6.093 -0.2967 -0.3408  0.0019
 6367WAT     H126188   6.783   1.078   6.090 -0.2295 -0.4232  0.6798
 6367WAT     H226189   6.909   1.118   6.128  0.3621 -0.3071 -1.3072
 6367WAT    EPW26190   6.838   1.133   6.098 -0.1894 -0.3480 -0.0913
 6368WAT      O26191   1.216   6.680   1.922  0.0730 -0.4030  0.1460
 6368WAT     H126192   1.256   6.754   1.944  0.3158 -0.2035 -0.8957
 6368WAT     H226193   1.145   6.679   1.973  0.5021  0.1084  0.7765
 6368WAT    EPW26194   1.211   6.691   1.933  0.1722 -0.2980  0.0853
 6369WAT      O26195   3.151   5.774   2.349  0.1078  0.1611 -0.7099
 6369WAT     H126196   3.144   5.859   2.371 -1.6264 -0.0826 -0.1356
 6369WAT     H226197   3.232   5.753   2.373 -1.0479  0.2390  4.7744
 6369WAT    EPW26198   3.162   5.784   2.356 -0.3191  0.1366  0.1851
 6370WAT      O26199   1.923   1.880   6.759  0.2858  0.2194  0.1062
 6370WAT     H126200   1.857   1.937   6.752 -2.0103 -1.8223  2.8158
 6370WAT     H226201   1.916   1.831   6.687 -1.2140  0.0500  0.3282
 6370WAT    EPW26202   1.912   1.881   6.747 -0.2749 -0.1072  0.5393
 6371WAT      O26203   3.699   4.163   7.344 -0.0374 -0.2117  0.6915
 6371WAT     H126204   3.705   4.205   7.268 -0.6450 -0.3202  0.5739
 6371WAT     H226205   3.766   4.107   7.343 -0.7403 -1.0669 -0.3107
 6371WAT    EPW26206   3.710   4.161   7.333 -0.2310 -0.3541  0.5261
 6372WAT      O26207   3.508   6.510   0.136  0.1200  0.0320  0.0640
 6372WAT     H126208   3.517   6.441   0.189 -0.5966 -0.8154 -0.8787
 6372WAT     H226209   3.589   6.544   0.134  0.4648 -0.7068  0.6461
 6372WAT    EPW26210   3.522   6.505   0.143  0.0651 -0.2023  0.0107
 6373WAT      O26211   2.531   0.924   7.293  0.0975 -0.5082  0.2861
 6373WAT     H126212   2.608   0.917   7.334 -0.1803  1.7888  1.3213
 6373WAT     H226213   2.552   0.914   7.209  1.6571  0.6920  0.4825
 6373WAT    EPW26214   2.545   0.921   7.287  0.2868  0.0084  0.4681
 6374WAT      O26215   5.350   5.768   6.035  0.6598  0.4705  0.0309
 6374WAT     H126216   5.349   5.706   5.974  0.1011  0.7722 -0.2709
 6374WAT     H226217   5.306   5.732   6.101 -0.6552  0.9499 -0.5581
 6374WAT    EPW26218   5.344   5.753   6.036  0.3830  0.5859 -0.1007
 6375WAT      O26219   1.389   4.889   3.176  0.3257  0.4014  0.2111
 6375WAT     H126220   1.371   4.974   3.167  0.6997  0.6024  1.1967
 6375WAT     H226221   1.474   4.883   3.154  0.3108  0.2985  0.1804
 6375WAT    EPW26222   1.399   4.900   3.172  0.3788  0.4159  0.3521
 6376WAT      O26223   2.023   5.244   0.416  0.7577 -0.0113  0.2006
 6376WAT     H126224   2.085   5.186   0.395  0.0697 -0.1846 -1.4886
 6376WAT     H226225   2.041   5.263   0.499  1.2368 -2.3784  0.7345
 6376WAT    EPW26226   2.035   5.238   0.425  0.7269 -0.3866  0.0300
 6377WAT      O26227   7.219   2.974   0.582 -0.4995 -0.2835 -0.2393
 6377WAT     H126228   7.196   2.946   0.662 -0.5698  0.7307  0.1184
 6377WAT     H226229   7.160   3.036   0.565 -1.5286 -1.6507 -1.8335
 6377WAT    EPW26230   7.207   2.979   0.591 -0.6619 -0.3357 -0.4219
 6378WAT      O26231   5.172   0.159   1.468  0.3243  0.3005  0.1150
 6378WAT     H126232   5.140   0.222   1.518 -2.4107  0.7327 -1.9718
 6378WAT     H226233   5.130   0.087   1.495 -1.3868  0.5842 -1.5835
 6378WAT    EPW26234   5.161   0.157   1.479 -0.3325  0.4063 -0.4441
 6379WAT      O26235   4.810   3.300   5.184  0.2660 -0.0029  0.2693
 6379WAT     H126236   4.726   3.289   5.205  0.5908 -0.6780  1.3263
 6379WAT     H226237   4.813   3.282   5.099 -0.8878  1.4532 -0.1131
 6379WAT    EPW26238   4.798   3.296   5.175  0.1435  0.1125  0.3690
 6380WAT      O26239   0.417   2.338   4.417 -0.0877  0.0267  0.4181
 6380WAT     H126240   0.365   2.328   4.487  1.5051 -0.8196  1.5478
 6380WAT     H226241   0.361   2.356   4.352 -1.8141 -1.0519  1.5243
 6380WAT    EPW26242   0.401   2.339   4.418 -0.1074 -0.2577  0.7484
 6381WAT      O26243   6.016   4.488   2.449  0.2062 -0.5117 -0.4957
 6381WAT     H126244   6.073   4.438   2.493  0.2525 -1.5280 -1.6692
 6381WAT     H226245   6.027   4.464   2.366  0.8046  2.0179 -1.2488
 6381WAT    EPW26246   6.026   4.477   2.443  0.3014 -0.2881 -0.7803
 6382WAT      O26247   5.509   6.310   4.894 -0.0050  0.2907  0.0097
 6382WAT     H126248   5.574   6.264   4.930  0.2255  0.6837  0.1025
 6382WAT     H226249   5.550   6.375   4.853 -0.3562  0.7300  0.3374
 6382WAT    EPW26250   5.525   6.313   4.893 -0.0228  0.4137  0.0718
 6383WAT      O26251   5.017   0.098   6.664 -0.1154 -0.1190  0.3972
 6383WAT     H126252   4.982   0.166   6.707 -0.0176  0.0294  0.2423
 6383WAT     H226253   4.947   0.052   6.638 -0.1997 -1.7359  3.0887
 6383WAT    EPW26254   5.002   0.101   6.667 -0.1134 -0.3359  0.7719
 6384WAT      O26255   6.659   6.613   6.374  0.6433  0.2254  0.5746
 6384WAT     H126256   6.688   6.651   6.301  1.1282 -0.9186  0.1587
 6384WAT     H226257   6.605   6.673   6.408 -0.4188  0.3959 -1.2634
 6384WAT    EPW26258   6.655   6.628   6.368  0.5580  0.0816  0.2417
 6385WAT      O26259   3.310   1.075   6.199 -0.2226 -0.5266 -0.1094
 6385WAT     H126260   3.288   1.131   6.262  0.2437 -1.2837  0.7486
 6385WAT     H226261   3.372   1.117   6.155  0.0524 -0.3100  0.4687
 6385WAT    EPW26262   3.316   1.089   6.202 -0.1131 -0.6064  0.1028
 6386WAT      O26263   1.916   6.921   6.590  0.0752  0.3273 -0.2160
 6386WAT     H126264   1.964   6.993   6.583 -1.1990  1.5850  2.5666
 6386WAT     H226265   1.834   6.951   6.591 -0.5137 -1.2118  0.4211
 6386WAT    EPW26266   1.911   6.936   6.589 -0.2000  0.2857  0.2891
 6387WAT      O26267   0.475   6.698   1.466 -0.4114  0.4658 -0.1675
 6387WAT     H126268   0.487   6.765   1.520 -1.3100  0.8366 -0.4086
 6387WAT     H226269   0.429   6.642   1.512 -1.2333  0.8090 -0.5531
 6387WAT    EPW26270   0.470   6.700   1.481 -0.6656  0.5713 -0.2600
 6388WAT      O26271   1.072   5.700   0.726  0.6164  0.1519  0.5889
 6388WAT     H126272   0.985   5.697   0.731  0.5855  1.1426  1.0161
 6388WAT     H226273   1.094   5.621   0.697 -0.3506 -0.4915  1.5211
 6388WAT    EPW26274   1.062   5.688   0.723  0.4690  0.2032  0.7897
 6389WAT      O26275   6.006   6.733   0.721  0.3759 -0.0699  0.0727
 6389WAT     H126276   6.034   6.763   0.644  1.1416 -0.9519 -0.0049
 6389WAT     H226277   5.935   6.686   0.699  1.3990 -1.4975 -0.2970
 6389WAT    EPW26278   5.999   6.730   0.706  0.6402 -0.4111  0.0066
 6390WAT      O26279   3.404   0.318   1.299 -0.3157 -0.6874  0.2485
 6390WAT     H126280   3.381   0.346   1.220  1.0287  0.7624  0.3326
 6390WAT     H226281   3.451   0.246   1.282  0.3877 -0.1039 -0.3041
 6390WAT    EPW26282   3.407   0.311   1.285 -0.0132 -0.3870  0.1793
 6391WAT      O26283   0.149   0.511   6.993  0.9324 -0.1461  0.4611
 6391WAT     H126284   0.160   0.547   7.071  0.9221  1.1752 -0.1236
 6391WAT     H226285   0.189   0.566   6.939 -1.7197  0.6721 -0.8335
 6391WAT    EPW26286   0.156   0.525   6.996  0.5391  0.1699  0.1834
 6392WAT      O26287   7.312   2.574   3.357  0.1532  0.0006 -0.4757
 6392WAT     H126288   7.305   2.610   3.278  1.6280 -0.7062 -0.9601
 6392WAT     H226289   7.322   2.489   3.340 -0.6419 -0.3152  0.5361
 6392WAT    EPW26290   7.313   2.567   3.343  0.2536 -0.1504 -0.3978
 6393WAT      O26291   4.309   1.828   1.250  0.1633 -0.0403  0.2262
 6393WAT     H126292   4.348   1.758   1.215  1.7507  1.6004 -1.5230
 6393WAT     H226293   4.372   1.865   1.297  0.4870  2.0383 -1.7021
 6393WAT    EPW26294   4.324   1.823   1.252  0.4456  0.5091 -0.3170
 6394WAT      O26295   6.817   0.490   6.513  0.5306  0.4045  0.5318
 6394WAT     H126296   6.769   0.545   6.559 -1.7026 -0.5669 -0.4971
 6394WAT     H226297   6.819   0.526   6.433  1.4050  0.3375  0.5060
 6394WAT    EPW26298   6.810   0.504   6.508  0.3298  0.2511  0.3760
 6395WAT      O26299   6.190   4.931   6.982 -0.0183 -0.0312  0.2683
 6395WAT     H126300   6.171   4.987   6.918  1.4327 -1.3937 -1.4588
 6395WAT     H226301   6.171   4.853   6.948 -2.1504 -0.6939  2.6643
 6395WAT    EPW26302   6.184   4.928   6.968 -0.1189 -0.3303  0.3671
 6396WAT      O26303   0.906   6.861   1.843  0.3736  0.2409  0.2140
 6396WAT     H126304   0.963   6.927   1.840  0.6559 -0.0388 -0.7231
 6396WAT     H226305   0.931   6.817   1.914  1.5279 -0.0438 -0.3431
 6396WAT    EPW26306   0.919   6.864   1.853  0.5858  0.1575 -0.0067
 6397WAT      O26307   6.294   3.433   2.390  0.3443 -0.2277 -0.2097
 6397WAT     H126308   6.224   3.422   2.340 -0.5496  0.1733  0.8966
 6397WAT     H226309   6.295   3.519   2.406 -0.7489 -0.5698  2.2314
 6397WAT    EPW26310   6.284   3.444   2.385  0.0508 -0.2190  0.3143
 6398WAT      O26311   6.060   6.539   3.012 -0.6685  0.7001  0.3665
 6398WAT     H126312   6.005   6.525   2.946 -0.0232 -1.3420  0.1871
 6398WAT     H226313   6.015   6.512   3.082  0.4391 -2.2431  0.0709
 6398WAT    EPW26314   6.045   6.533   3.013 -0.4095 -0.0364  0.2963
 6399WAT      O26315   5.797   6.825   3.038  0.3360  0.0318 -0.2306
 6399WAT     H126316   5.838   6.899   3.016 -0.3256  0.1367 -1.1382
 6399WAT     H226317   5.789   6.782   2.963  1.1458 -1.2012  0.3533
 6399WAT    EPW26318   5.802   6.829   3.024  0.3579 -0.1348 -0.2784
 6400WAT      O26319   6.755   0.901   6.797  0.3873  0.6516 -0.0190
 6400WAT     H126320   6.737   0.969   6.746 -2.8904  1.3170  1.7518
 6400WAT     H226321   6.724   0.925   6.875  0.3318 -2.3365  0.9987
 6400WAT    EPW26322   6.748   0.914   6.801 -0.1051  0.3085  0.3929
 6401WAT      O26323   1.403   0.887   3.572  0.1972  0.4322 -0.1946
 6401WAT     H126324   1.431   0.904   3.491  1.1658  2.5953  0.5295
 6401WAT     H226325   1.473   0.905   3.622 -1.1537  1.7196  1.3201
 6401WAT    EPW26326   1.418   0.892   3.568  0.1407  0.9420  0.1361
 6402WAT      O26327   4.371   5.817   6.165  0.3122  0.6113 -0.3736
 6402WAT     H126328   4.404   5.824   6.245 -0.4379  1.4149 -0.1114
 6402WAT     H226329   4.359   5.900   6.140 -1.0321  0.3637 -0.6318
 6402WAT    EPW26330   4.374   5.830   6.173  0.0028  0.6934 -0.3730
 6403WAT      O26331   2.396   4.711   3.929  0.2654 -0.1392 -0.1301
 6403WAT     H126332   2.476   4.682   3.910  0.9545  0.8118  1.0939
 6403WAT     H226333   2.386   4.780   3.877 -0.5609 -1.3370 -1.6232
 6403WAT    EPW26334   2.406   4.717   3.919  0.2452 -0.1757 -0.1698
 6404WAT      O26335   4.429   2.327   6.996  0.0026 -0.1102  0.5970
 6404WAT     H126336   4.383   2.257   7.020 -0.5181  0.2042  0.5327
 6404WAT     H226337   4.471   2.301   6.924 -1.5887  0.1731 -0.4788
 6404WAT    EPW26338   4.428   2.313   6.989 -0.3094 -0.0219  0.4286
 6405WAT      O26339   1.911   4.122   6.690 -0.2682  0.1615  0.4318
 6405WAT     H126340   1.975   4.066   6.671 -1.4634 -1.0517 -0.1564
 6405WAT     H226341   1.906   4.119   6.777  0.5155  0.3394  0.4917
 6405WAT    EPW26342   1.919   4.114   6.700 -0.3290  0.0086  0.3537
 6406WAT      O26343   3.747   5.362   5.532  0.2791 -0.0400  0.1898
 6406WAT     H126344   3.771   5.290   5.576  1.1670 -0.6600 -1.2432
 6406WAT     H226345   3.737   5.334   5.450 -1.3179  1.0947 -0.0533
 6406WAT    EPW26346   3.749   5.348   5.527  0.1743  0.0360 -0.0578
 6407WAT      O26347   5.876   1.708   1.988  0.1997  0.1588 -0.2878
 6407WAT     H126348   5.897   1.792   1.995 -0.2459  0.2004  0.9455
 6407WAT     H226349   5.938   1.668   2.035  0.6983 -0.2659 -1.2800
 6407WAT    EPW26350   5.888   1.714   1.996  0.2075  0.1022 -0.2522
 6408WAT      O26351   5.202   4.242   5.315  0.0957  0.2580  0.1032
 6408WAT     H126352   5.175   4.229   5.397 -1.1871 -0.1666 -0.3521
 6408WAT     H226353   5.264   4.183   5.304 -0.0549 -0.0066  0.6208
 6408WAT    EPW26354   5.207   4.231   5.325 -0.1160  0.1562  0.1124
 6409WAT      O26355   4.360   1.443   0.159 -0.4626  0.3365 -0.3817
 6409WAT     H126356   4.326   1.426   0.081  0.2023  0.6627 -0.7427
 6409WAT     H226357   4.366   1.364   0.196 -0.4156  0.1423 -0.8040
 6409WAT    EPW26358   4.356   1.429   0.153 -0.3575  0.3560 -0.4974
 6410WAT      O26359   5.239   2.413   1.079  0.2530 -0.3967  0.1480
 6410WAT     H126360   5.194   2.467   1.132  1.1901  0.4619  0.0907
 6410WAT     H226361   5.280   2.467   1.024  1.4727 -1.1407  0.2930
 6410WAT    EPW26362   5.238   2.429   1.079  0.5716 -0.3798  0.1610
 6411WAT      O26363   2.590   5.770   1.949 -0.0213 -0.1256  0.4545
 6411WAT     H126364   2.619   5.793   1.870  1.4075 -0.4317  0.8555
 6411WAT     H226365   2.587   5.845   1.992 -1.4572  0.1402 -0.0651
 6411WAT    EPW26366   2.594   5.784   1.943 -0.0223 -0.1316  0.4370
 6412WAT      O26367   0.854   0.727   5.652 -1.0084 -0.1319 -0.0268
 6412WAT     H126368   0.876   0.724   5.737  0.3328  1.9987 -0.2417
 6412WAT     H226369   0.930   0.741   5.612 -1.5656 -1.5144 -1.6790
 6412WAT    EPW26370   0.869   0.728   5.659 -0.8926 -0.0214 -0.3026
 6413WAT      O26371   5.785   6.202   2.128 -0.5409 -0.1280  0.0483
 6413WAT     H126372   5.848   6.169   2.179 -1.2117 -0.7586  0.4798
 6413WAT     H226373   5.827   6.263   2.081  0.3299 -0.3409  0.5282
 6413WAT    EPW26374   5.801   6.206   2.129 -0.5113 -0.2526  0.1829
 6414WAT      O26375   0.067   4.570   3.035 -0.0570 -0.2301  0.6078
 6414WAT     H126376  -0.006   4.610   3.009  1.2502  0.0708 -3.1933
 6414WAT     H226377   0.042   4.487   3.047 -0.6212 -0.9952 -4.1578
 6414WAT    EPW26378   0.053   4.564   3.033  0.0527 -0.2987 -0.6577
 6415WAT      O26379   2.236   4.825   2.067  0.6359 -0.0409 -0.3187
 6415WAT     H126380   2.233   4.762   2.128 -0.4664 -0.8723 -1.1836
 6415WAT     H226381   2.299   4.799   2.013 -0.4241 -0.9458 -1.1831
 6415WAT    EPW26382   2.245   4.812   2.068  0.3165 -0.2974 -0.5742
 6416WAT      O26383   0.365   6.992   6.875  0.0423 -0.2010  0.1691
 6416WAT     H126384   0.296   6.939   6.883 -0.9255  0.8678 -0.5911
 6416WAT     H226385   0.417   6.949   6.820 -0.5564 -0.5454 -0.1474
 6416WAT    EPW26386   0.362   6.978   6.868 -0.1891 -0.0940  0.0100
 6417WAT      O26387   0.259   2.386   1.089 -0.1701  0.0080 -0.1486
 6417WAT     H126388   0.342   2.361   1.099  0.0649  1.2145  1.1441
 6417WAT     H226389   0.226   2.325   1.035  2.3130  1.1492 -3.3120
 6417WAT    EPW26390   0.267   2.373   1.082  0.2314  0.3548 -0.4249
 6418WAT      O26391   0.281   0.694   6.320 -0.3778 -0.5140 -0.1479
 6418WAT     H126392   0.337   0.760   6.333 -0.1873 -0.6437 -0.2932
 6418WAT     H226393   0.205   0.733   6.306 -0.6011 -0.3492  1.3320
 6418WAT    EPW26394   0.278   0.709   6.320 -0.3827 -0.5088  0.0492
 6419WAT      O26395   5.051   3.734   2.242  0.3442 -0.2812 -0.3759
 6419WAT     H126396   5.129   3.767   2.264 -0.3471  1.0169  0.2813
 6419WAT     H226397   5.067   3.649   2.230  1.3193 -0.6511  2.6813
 6419WAT    EPW26398   5.065   3.727   2.243  0.3861 -0.1441  0.1728
 6420WAT      O26399   5.040   6.114   5.632 -0.1256 -0.2564 -0.2005
 6420WAT     H126400   4.976   6.116   5.690  0.0515  1.4614  0.0143
 6420WAT     H226401   5.019   6.179   5.577  1.3479  0.3062 -0.1543
 6420WAT    EPW26402   5.028   6.124   5.633  0.1183  0.0805 -0.1620
 6421WAT      O26403   2.773   2.171   1.795  0.2144  0.5830  0.3257
 6421WAT     H126404   2.763   2.087   1.819 -0.6239  0.1419 -1.3829
 6421WAT     H226405   2.833   2.166   1.732  1.2139  1.4867  1.1701
 6421WAT    EPW26406   2.781   2.158   1.789  0.2382  0.6514  0.1981
 6422WAT      O26407   5.367   1.532   4.468 -0.0448 -0.4642  0.6584
 6422WAT     H126408   5.451   1.548   4.484  0.3336 -2.3926  0.7844
 6422WAT     H226409   5.330   1.539   4.546 -0.1062  0.7586  0.5463
 6422WAT    EPW26410   5.374   1.536   4.482  0.0020 -0.5684  0.6604
 6423WAT      O26411   4.673   6.913   0.938 -0.3919 -0.3141  0.0066
 6423WAT     H126412   4.639   6.923   1.017 -0.9307  1.0429 -0.3609
 6423WAT     H226413   4.637   6.839   0.909  1.0830 -1.7683  1.6057
 6423WAT    EPW26414   4.663   6.904   0.945 -0.2536 -0.3285  0.1885
 6424WAT      O26415   4.386   2.053   4.642  0.1104  0.2691  0.6573
 6424WAT     H126416   4.343   2.031   4.714 -1.1031  0.4710  0.0200
 6424WAT     H226417   4.470   2.034   4.661 -0.3505 -0.9216  1.6195
 6424WAT    EPW26418   4.392   2.047   4.655 -0.1369  0.1230  0.7053
 6425WAT      O26419   5.260   3.399   5.861 -0.2604  0.3474  0.1529
 6425WAT     H126420   5.248   3.390   5.775  1.5315 -2.6979  0.0344
 6425WAT     H226421   5.286   3.481   5.870 -1.5394  1.0754 -2.0499
 6425WAT    EPW26422   5.262   3.410   5.850 -0.1846  0.0051 -0.1900
 6426WAT      O26423   4.135   7.215   7.392  0.7923  0.2515  0.2091
 6426WAT     H126424   4.177   7.146   7.423  0.4701 -0.3281 -0.6135
 6426WAT     H226425   4.094   7.247   7.462  1.4172 -0.0320  0.7161
 6426WAT    EPW26426   4.135   7.210   7.407  0.8370  0.1240  0.1625
 6427WAT      O26427   2.544   0.640   2.308 -0.4097  0.3476  0.5594
 6427WAT     H126428   2.602   0.597   2.357 -0.1671  0.2232  0.1636
 6427WAT     H226429   2.543   0.720   2.343 -1.9012 -0.3426  2.1993
 6427WAT    EPW26430   2.553   0.646   2.320 -0.5942  0.2273  0.7432
 6428WAT      O26431   0.605   7.178   4.653  0.1618  0.7510 -0.0458
 6428WAT     H126432   0.657   7.173   4.722  0.6187 -1.1961 -0.4869
 6428WAT     H226433   0.546   7.238   4.676  0.0459 -0.1529  2.1963
 6428WAT    EPW26434   0.604   7.186   4.666  0.2122  0.3299  0.2203
 6429WAT      O26435   0.681   5.178   4.569 -0.1811  0.0304 -0.1823
 6429WAT     H126436   0.735   5.130   4.618  1.4450  2.6228  0.7727
 6429WAT     H226437   0.625   5.212   4.627 -0.6993  0.0761 -0.7021
 6429WAT    EPW26438   0.681   5.176   4.585 -0.0174  0.4201 -0.1180
 6430WAT      O26439   2.558   6.137   3.665  0.4485 -0.0469 -0.2944
 6430WAT     H126440   2.614   6.166   3.605  1.2239 -2.0291 -0.6210
 6430WAT     H226441   2.609   6.092   3.720 -0.2001  1.8523  2.0173
 6430WAT    EPW26442   2.574   6.135   3.665  0.4673 -0.0591 -0.0012
 6431WAT      O26443   5.069   0.049   4.134  0.1856  0.2318 -0.6711
 6431WAT     H126444   4.987   0.062   4.105  0.4524  0.2141 -1.4584
 6431WAT     H226445   5.118   0.072   4.066  0.8981  1.6492  0.2840
 6431WAT    EPW26446   5.064   0.054   4.120  0.3302  0.4386 -0.6463
 6432WAT      O26447   5.163   6.357   3.467 -0.1095 -0.6054 -0.5017
 6432WAT     H126448   5.153   6.345   3.553 -2.1406  1.6243 -0.3322
 6432WAT     H226449   5.243   6.392   3.461  0.4032 -1.5478  0.3346
 6432WAT    EPW26450   5.174   6.361   3.479 -0.3338 -0.4152 -0.3531
 6433WAT      O26451   1.229   0.893   6.992 -0.1698  0.2912  0.8677
 6433WAT     H126452   1.173   0.946   7.033  2.3152  3.8451  0.1715
 6433WAT     H226453   1.304   0.906   7.034  1.1954 -0.4119 -1.2201
 6433WAT    EPW26454   1.232   0.903   7.004  0.3990  0.7123  0.4564
 6434WAT      O26455   0.350   0.217   1.393  0.0971 -0.6237  0.1179
 6434WAT     H126456   0.335   0.262   1.466  0.7924  0.3857 -0.3395
 6434WAT     H226457   0.271   0.186   1.372 -0.7083  1.4632 -0.2183
 6434WAT    EPW26458   0.336   0.219   1.401  0.0808 -0.1663  0.0007
 6435WAT      O26459   6.041   6.616   0.268 -0.7388 -0.1482 -0.0602
 6435WAT     H126460   6.016   6.653   0.193 -2.0641 -1.7134 -0.4681
 6435WAT     H226461   6.099   6.556   0.243  0.2115  0.5523  0.4047
 6435WAT    EPW26462   6.045   6.612   0.253 -0.7942 -0.2759 -0.0517
 6436WAT      O26463   1.616   3.290   2.243 -0.0950 -0.2149 -0.1284
 6436WAT     H126464   1.591   3.357   2.292 -0.3773  1.4277 -2.3483
 6436WAT     H226465   1.693   3.316   2.210 -0.1492 -1.0108 -0.9475
 6436WAT    EPW26466   1.624   3.303   2.245 -0.1447 -0.0898 -0.5773
 6437WAT      O26467   0.199   3.290   6.396  0.1766 -0.3388 -0.2235
 6437WAT     H126468   0.266   3.328   6.354 -0.5147  0.5150 -0.5954
 6437WAT     H226469   0.179   3.349   6.458 -1.3732  0.2780 -1.2577
 6437WAT    EPW26470   0.206   3.304   6.399 -0.1545 -0.1215 -0.4312
 6438WAT      O26471   4.879   3.272   4.924  0.0853  0.4127 -0.1370
 6438WAT     H126472   4.903   3.353   4.906  0.0663  0.5246  0.3125
 6438WAT     H226473   4.812   3.257   4.871  1.0739  0.1223 -1.3567
 6438WAT    EPW26474   4.873   3.281   4.914  0.2285  0.3864 -0.2508
 6439WAT      O26475   0.409   5.412   5.093  0.5282 -0.2002  0.3795
 6439WAT     H126476   0.447   5.376   5.162  1.0703 -0.3457  0.0097
 6439WAT     H226477   0.465   5.396   5.028 -0.1551 -0.3948 -0.1691
 6439WAT    EPW26478   0.423   5.405   5.094  0.5073 -0.2505  0.2438
 6440WAT      O26479   6.154   3.905   3.006  0.3259 -0.3950  0.4238
 6440WAT     H126480   6.080   3.951   2.994  0.6036  0.4638  1.7911
 6440WAT     H226481   6.214   3.952   2.963  0.5526  0.3974  1.5651
 6440WAT    EPW26482   6.152   3.919   2.998  0.4004 -0.1511  0.7944
 6441WAT      O26483   1.654   2.708   7.293  0.1301 -0.5716 -0.3634
 6441WAT     H126484   1.685   2.721   7.374 -1.1931 -1.2282  0.2952
 6441WAT     H226485   1.691   2.633   7.268  0.2035 -0.5978 -0.1746
 6441WAT    EPW26486   1.664   2.699   7.301 -0.0545 -0.6724 -0.2382
 6442WAT      O26487   5.763   1.951   6.761 -0.1553  0.3771  0.2196
 6442WAT     H126488   5.700   1.920   6.813  1.8250 -2.0439  1.4232
 6442WAT     H226489   5.721   1.973   6.688 -2.6844  1.3332  1.8413
 6442WAT    EPW26490   5.747   1.950   6.758 -0.2364  0.1607  0.6370
 6443WAT      O26491   6.326   3.326   0.773 -0.5841  0.3922 -0.5153
 6443WAT     H126492   6.312   3.408   0.746 -1.4118  0.3608 -0.2436
 6443WAT     H226493   6.398   3.332   0.822 -1.2935  1.2041  0.4776
 6443WAT    EPW26494   6.334   3.339   0.777 -0.8112  0.5075 -0.3285
 6444WAT      O26495   3.349   0.553   3.673 -1.1681 -0.0165 -0.6197
 6444WAT     H126496   3.384   0.488   3.720 -0.4866 -0.0979 -1.2261
 6444WAT     H226497   3.268   0.560   3.705 -0.8871 -0.4130  0.2120
 6444WAT    EPW26498   3.342   0.544   3.684 -1.0259 -0.0871 -0.5864
 6445WAT      O26499   2.487   0.806   2.639 -0.9502 -0.0477  0.3361
 6445WAT     H126500   2.536   0.850   2.582  1.8278 -1.9114  1.0573
 6445WAT     H226501   2.474   0.863   2.704  1.3389  0.2799  0.6099
 6445WAT    EPW26502   2.492   0.821   2.640 -0.2017 -0.2746  0.4831
 6446WAT      O26503   5.988   5.357   5.834 -0.7426 -0.2088  0.2509
 6446WAT     H126504   6.000   5.315   5.759 -1.0139  0.5466 -0.2278
 6446WAT     H226505   6.015   5.300   5.894 -0.1707 -0.6831 -0.4395
 6446WAT    EPW26506   5.994   5.342   5.832 -0.6982 -0.1673  0.0782
 6447WAT      O26507   5.792   4.865   5.835  0.1543 -0.0160  0.0066
 6447WAT     H126508   5.740   4.799   5.859 -0.4743  0.1495 -0.8536
 6447WAT     H226509   5.811   4.847   5.752 -1.4451  1.7238 -0.8290
 6447WAT    EPW26510   5.787   4.852   5.826 -0.1748  0.2654 -0.2439
 6448WAT      O26511   6.806   4.161   4.761  0.2415  0.0058  0.2201
 6448WAT     H126512   6.748   4.100   4.785 -1.4541  0.7527 -1.6662
 6448WAT     H226513   6.857   4.170   4.831  0.9224 -3.9217  0.4156
 6448WAT    EPW26514   6.805   4.154   4.775  0.0916 -0.4641 -0.0297
 6449WAT      O26515   5.826   2.711   5.000 -0.1264  0.4291  0.9758
 6449WAT     H126516   5.864   2.755   5.066  0.8680  1.1316 -0.0304
 6449WAT     H226517   5.863   2.744   4.929 -1.6045  0.0972  0.0038
 6449WAT    EPW26518   5.837   2.722   4.999 -0.1978  0.4838  0.6836
 6450WAT      O26519   6.804   1.621   6.682  0.1186  0.5742 -0.6576
 6450WAT     H126520   6.812   1.546   6.726 -0.2962  1.6392  1.4111
 6450WAT     H226521   6.886   1.639   6.657  0.7749  0.8772  1.4965
 6450WAT    EPW26522   6.817   1.613   6.685  0.1542  0.7763 -0.0338
 6451WAT      O26523   4.290   0.426   6.790  0.3990 -0.1974  0.2887
 6451WAT     H126524   4.249   0.384   6.725  1.7167 -0.6410 -0.2823
 6451WAT     H226525   4.258   0.388   6.862 -1.0142  0.2373 -0.0683
 6451WAT    EPW26526   4.279   0.414   6.791  0.3849 -0.1987  0.1516
 6452WAT      O26527   3.106   5.329   0.445  0.3912 -0.3748 -0.4418
 6452WAT     H126528   3.144   5.282   0.507 -0.5395 -1.9997 -1.0448
 6452WAT     H226529   3.169   5.340   0.385  1.3098  1.2525  0.7266
 6452WAT    EPW26530   3.121   5.324   0.445  0.3894 -0.3744 -0.3583
 6453WAT      O26531   7.284   6.433   0.998  0.4250  0.4617  0.3415
 6453WAT     H126532   7.304   6.514   0.974  1.2541  0.7874  2.0005
 6453WAT     H226533   7.345   6.413   1.057 -0.0294 -1.2100  0.3062
 6453WAT    EPW26534   7.296   6.442   1.003  0.4804  0.2629  0.5813
 6454WAT      O26535   6.340   1.149   2.174  0.5905  0.0898 -0.3430
 6454WAT     H126536   6.406   1.173   2.226  0.4446  1.0772 -0.6042
 6454WAT     H226537   6.370   1.077   2.135  0.6865 -0.7176  1.1352
 6454WAT    EPW26538   6.354   1.142   2.176  0.5832  0.1164 -0.1632
 6455WAT      O26539   1.878   4.957   5.930  0.1606  0.3700  0.6542
 6455WAT     H126540   1.951   5.004   5.930  0.5743 -0.1746 -1.1731
 6455WAT     H226541   1.880   4.917   5.853 -2.9472  1.7324 -0.3071
 6455WAT    EPW26542   1.889   4.958   5.919 -0.2373  0.4908  0.2423
 6456WAT      O26543   3.207   0.978   2.341  0.0615  0.0527  0.3336
 6456WAT     H126544   3.204   0.897   2.372  1.6870 -0.2262 -0.1335
 6456WAT     H226545   3.291   1.000   2.350 -0.4699  1.9517  1.0809
 6456WAT    EPW26546   3.219   0.969   2.347  0.2231  0.2920  0.3750
 6457WAT      O26547   6.339   3.890   6.512  0.0842  0.1850  0.1898
 6457WAT     H126548   6.357   3.806   6.494  0.4711 -0.1704  2.0079
 6457WAT     H226549   6.263   3.904   6.471 -0.4265 -1.3409  0.5344
 6457WAT    EPW26550   6.330   3.879   6.503  0.0659 -0.0929  0.5093
 6458WAT      O26551   0.155   3.185   4.627  0.5039 -0.2159 -0.5877
 6458WAT     H126552   0.233   3.206   4.593  1.6436 -1.4430  1.0685
 6458WAT     H226553   0.111   3.153   4.559  1.3402  0.7223 -1.6177
 6458WAT    EPW26554   0.160   3.183   4.612  0.7958 -0.2586 -0.4952
 6459WAT      O26555   2.558   6.344   6.520  0.3843 -0.2883 -0.4968
 6459WAT     H126556   2.492   6.321   6.572 -0.0353  0.2949 -0.7619
 6459WAT     H226557   2.622   6.290   6.543  0.5220  0.5811  1.2902
 6459WAT    EPW26558   2.557   6.333   6.531  0.3427 -0.0737 -0.2720
 6460WAT      O26559   0.444   0.513   7.004 -0.3580 -0.6709 -0.4805
 6460WAT     H126560   0.465   0.437   7.042  0.4330 -0.3766 -0.3081
 6460WAT     H226561   0.362   0.500   6.977 -0.5610 -1.2630  0.3653
 6460WAT    EPW26562   0.435   0.500   7.006 -0.2711 -0.7149 -0.3301
 6461WAT      O26563   5.183   0.480   2.637  0.3059 -0.0691  0.6196
 6461WAT     H126564   5.215   0.491   2.717 -3.2417  0.9118  2.1246
 6461WAT     H226565   5.229   0.536   2.588  0.5617  1.6121  2.6498
 6461WAT    EPW26566   5.194   0.490   2.641 -0.1803  0.3241  1.1418
 6462WAT      O26567   3.821   7.231   5.234  0.3681 -0.1410  0.2368
 6462WAT     H126568   3.834   7.268   5.312  0.1286  2.4338 -0.8491
 6462WAT     H226569   3.749   7.182   5.246 -2.8805  4.1210  0.5852
 6462WAT    EPW26570   3.812   7.229   5.248 -0.1472  0.8690  0.1278
 6463WAT      O26571   4.027   1.677   4.348  0.0969 -0.7063  0.3998
 6463WAT     H126572   4.010   1.723   4.276  1.0662  2.8487  2.2595
 6463WAT     H226573   4.095   1.627   4.325 -0.2931 -0.4860 -1.3917
 6463WAT    EPW26574   4.034   1.676   4.334  0.1825 -0.1486  0.4099
 6464WAT      O26575   6.286   4.328   1.860  0.0301  0.0723 -0.3507
 6464WAT     H126576   6.269   4.335   1.775  0.5894  1.8282 -0.3626
 6464WAT     H226577   6.268   4.407   1.891  0.4384 -0.3562  1.0602
 6464WAT    EPW26578   6.281   4.341   1.852  0.1731  0.2684 -0.1441
 6465WAT      O26579   4.007   6.381   0.537 -0.7552 -0.3523 -0.0053
 6465WAT     H126580   4.049   6.438   0.486  2.0063 -0.9267  1.4141
 6465WAT     H226581   3.967   6.431   0.596 -3.3619  0.2769 -2.0984
 6465WAT    EPW26582   4.007   6.397   0.538 -0.7323 -0.3442 -0.1048
 6466WAT      O26583   6.359   5.561   3.821  0.2215 -0.3887 -0.3330
 6466WAT     H126584   6.326   5.519   3.890  1.7236 -0.5357  0.3339
 6466WAT     H226585   6.292   5.609   3.792 -1.5244 -3.0283 -1.0007
 6466WAT    EPW26586   6.344   5.562   3.826  0.1855 -0.8003 -0.3332
 6467WAT      O26587   1.005   5.480   5.426  0.2200 -0.0538 -0.3227
 6467WAT     H126588   0.978   5.407   5.388 -2.1122 -0.0382  1.1325
 6467WAT     H226589   1.065   5.453   5.483  0.2643 -0.6770 -0.6575
 6467WAT    EPW26590   1.010   5.465   5.429 -0.1180 -0.1435 -0.1572
 6468WAT      O26591   3.714   2.269   5.464 -0.5339  0.4315 -0.5609
 6468WAT     H126592   3.685   2.289   5.544  1.2192  1.8538 -0.2116
 6468WAT     H226593   3.696   2.341   5.418  1.6873  1.1018 -0.4904
 6468WAT    EPW26594   3.707   2.283   5.469  0.0532  0.7406 -0.4989
 6469WAT      O26595   7.095   3.077   5.346 -0.6160  0.5049 -0.0552
 6469WAT     H126596   7.177   3.048   5.337 -0.0692  0.5161  3.4069
 6469WAT     H226597   7.047   3.006   5.330  0.4083 -0.8248  2.2346
 6469WAT    EPW26598   7.100   3.062   5.342 -0.3839  0.3102  0.7945
 6470WAT      O26599   1.064   2.849   4.575 -0.0172 -0.0097  0.3958
 6470WAT     H126600   1.124   2.815   4.521  0.3223 -1.9328  1.8925
 6470WAT     H226601   1.103   2.921   4.605  0.4356  0.2160 -0.6669
 6470WAT    EPW26602   1.079   2.855   4.572  0.0999 -0.2604  0.4599
 6471WAT      O26603   4.087   4.166   0.139  0.0384  0.2915 -0.1442
 6471WAT     H126604   4.091   4.088   0.101  0.9486  1.3519 -2.3843
 6471WAT     H226605   4.165   4.174   0.177 -0.2100 -0.0239  0.4545
 6471WAT    EPW26606   4.099   4.156   0.139  0.1361  0.4016 -0.3867
 6472WAT      O26607   5.624   7.033   4.998 -0.0346 -0.0850  0.2862
 6472WAT     H126608   5.624   6.947   5.009 -0.9664 -0.2166 -0.6063
 6472WAT     H226609   5.658   7.044   4.918 -1.0267  0.2721 -0.1106
 6472WAT    EPW26610   5.629   7.022   4.988 -0.3188 -0.0517  0.0958
 6473WAT      O26611   6.824   5.864   7.348 -0.0809  0.6360 -0.3627
 6473WAT     H126612   6.836   5.934   7.398 -2.7539  1.9057 -1.3146
 6473WAT     H226613   6.772   5.814   7.397  0.3972  0.0979 -0.3913
 6473WAT    EPW26614   6.818   5.867   7.363 -0.4051  0.7440 -0.5075
 6474WAT      O26615   6.639   5.668   0.873 -0.2240 -0.0363  0.5610
 6474WAT     H126616   6.659   5.711   0.946 -0.3490  1.1927 -0.1116
 6474WAT     H226617   6.556   5.688   0.859 -0.3789 -0.7549  0.3866
 6474WAT    EPW26618   6.630   5.677   0.882 -0.2653  0.0391  0.4359
 6475WAT      O26619   1.755   0.298   6.055 -0.2036  0.2307  0.0659
 6475WAT     H126620   1.781   0.222   6.021  1.8698  1.0677 -0.3379
 6475WAT     H226621   1.766   0.287   6.141 -0.2986 -0.0512  0.0431
 6475WAT    EPW26622   1.760   0.285   6.063  0.0887  0.3127  0.0028
 6476WAT      O26623   6.796   6.383   5.435 -0.3929 -0.3677  0.1554
 6476WAT     H126624   6.855   6.445   5.418 -0.5755  0.3116  1.7796
 6476WAT     H226625   6.843   6.311   5.444 -0.0114 -0.1772 -0.2589
 6476WAT    EPW26626   6.812   6.382   5.434 -0.3635 -0.2392  0.3341
 6477WAT      O26627   5.932   4.849   5.596  0.2703 -0.0098 -0.0783
 6477WAT     H126628   5.978   4.777   5.575  1.2723  0.6420 -0.2205
 6477WAT     H226629   5.899   4.875   5.519 -1.6939 -1.3286  0.2412
 6477WAT    EPW26630   5.934   4.842   5.581  0.1282 -0.1083 -0.0521
 6478WAT      O26631   5.202   2.434   3.290  0.5101  0.0655 -0.0161
 6478WAT     H126632   5.193   2.502   3.343 -2.0787  0.3966 -0.7164
 6478WAT     H226633   5.140   2.379   3.316  0.3576 -0.5401 -1.5259
 6478WAT    EPW26634   5.192   2.436   3.302  0.1051  0.0249 -0.3426
 6479WAT      O26635   2.046   5.224   2.799 -0.2839  0.2257  0.6015
 6479WAT     H126636   2.019   5.183   2.727 -0.2157 -0.5490  1.0057
 6479WAT     H226637   2.104   5.168   2.833  1.4383  1.5888  0.0381
 6479WAT    EPW26638   2.051   5.210   2.793 -0.0194  0.3126  0.5780
 6480WAT      O26639   3.039   1.968   1.499  0.6279 -0.0879  0.1400
 6480WAT     H126640   3.061   1.898   1.546 -0.4639 -0.9840 -0.6595
 6480WAT     H226641   3.072   1.952   1.420 -1.9343 -1.0182 -0.8180
 6480WAT    EPW26642   3.047   1.956   1.494  0.0882 -0.3577 -0.1197
 6481WAT      O26643   3.442   4.863   6.770  0.5089  0.2522  0.2757
 6481WAT     H126644   3.418   4.879   6.853 -0.9976  0.0959 -0.0983
 6481WAT     H226645   3.381   4.904   6.723 -1.1440 -3.0173 -0.7377
 6481WAT    EPW26646   3.430   4.872   6.775  0.0422 -0.2539  0.0707
 6482WAT      O26647   2.974   1.969   0.441 -0.0383 -0.0185  0.2805
 6482WAT     H126648   3.002   1.993   0.362  2.2914 -0.2105  0.9715
 6482WAT     H226649   3.044   1.933   0.478 -1.1533 -0.2776  2.3203
 6482WAT    EPW26650   2.988   1.967   0.435  0.1411 -0.0852  0.6839
 6483WAT      O26651   2.925   0.206   1.907 -0.1469 -0.5179 -0.3805
 6483WAT     H126652   2.994   0.160   1.934 -1.0105 -0.9925  1.2211
 6483WAT     H226653   2.936   0.284   1.944 -1.0727 -1.0084  1.0583
 6483WAT    EPW26654   2.937   0.211   1.917 -0.4112 -0.6605  0.0686
 6484WAT      O26655   0.605   4.604   2.647  0.2704  0.1906  0.8227
 6484WAT     H126656   0.585   4.541   2.590  1.8346  1.0959 -0.8475
 6484WAT     H226657   0.658   4.564   2.704  0.9452 -0.1369 -0.0028
 6484WAT    EPW26658   0.610   4.589   2.647  0.6012  0.2759  0.4541
 6485WAT      O26659   6.668   0.464   5.953  0.2592 -0.4985 -0.1392
 6485WAT     H126660   6.611   0.424   6.005 -0.6511  0.9989  0.0838
 6485WAT     H226661   6.667   0.546   5.982  0.4111  0.1720 -1.9395
 6485WAT    EPW26662   6.659   0.470   5.965  0.1472 -0.1782 -0.3722
 6486WAT      O26663   4.370   0.586   1.853 -0.1575 -0.2851  0.4543
 6486WAT     H126664   4.414   0.600   1.927 -0.7490  0.9306  0.5995
 6486WAT     H226665   4.287   0.598   1.876 -0.3329  0.2841 -0.4351
 6486WAT    EPW26666   4.364   0.590   1.867 -0.2708 -0.0214  0.3443
 6487WAT      O26667   1.031   1.035   7.159 -0.4459  0.3530 -0.3556
 6487WAT     H126668   0.947   1.042   7.183 -0.2077 -1.8579  1.3429
 6487WAT     H226669   1.068   0.990   7.224  1.7701  0.0082 -1.7561
 6487WAT    EPW26670   1.024   1.030   7.172 -0.0834 -0.0245 -0.3116
 6488WAT      O26671   3.788   0.433   6.306 -0.2109 -0.2037 -0.7001
 6488WAT     H126672   3.850   0.394   6.259  2.7241  0.2815  2.3556
 6488WAT     H226673   3.805   0.518   6.296 -0.6157 -0.0527 -0.1714
 6488WAT    EPW26674   3.800   0.440   6.298  0.1629 -0.1098 -0.1706
 6489WAT      O26675   2.412   2.539   5.760  0.3641 -0.7395  0.4887
 6489WAT     H126676   2.377   2.588   5.822 -0.4689  1.4990 -1.5856
 6489WAT     H226677   2.445   2.597   5.704  0.9707 -2.6103 -1.2124
 6489WAT    EPW26678   2.412   2.554   5.761  0.3306 -0.6852 -0.0690
 6490WAT      O26679   0.368   4.093   7.079  0.0495  0.2192 -0.1430
 6490WAT     H126680   0.355   4.173   7.113  0.8369  0.5557 -0.5854
 6490WAT     H226681   0.392   4.045   7.148 -1.0055  0.2090  0.2280
 6490WAT    EPW26682   0.370   4.098   7.094  0.0100  0.2674 -0.1535
 6491WAT      O26683   3.667   5.742   6.961 -0.3001 -0.1300 -0.3373
 6491WAT     H126684   3.610   5.688   6.923  0.5610 -0.8017 -0.6969
 6491WAT     H226685   3.618   5.785   7.019 -1.1559 -0.7563 -0.5728
 6491WAT    EPW26686   3.651   5.741   6.964 -0.2993 -0.3217 -0.4252
 6492WAT      O26687   4.883   3.869   5.117  0.0290  0.3525  0.3361
 6492WAT     H126688   4.968   3.869   5.136 -0.0317  2.3054  0.7859
 6492WAT     H226689   4.845   3.853   5.194 -0.0281 -0.3004  0.1765
 6492WAT    EPW26690   4.890   3.867   5.131  0.0116  0.5446  0.3790
 6493WAT      O26691   1.339   4.901   4.420  0.1066  0.1156  0.2074
 6493WAT     H126692   1.314   4.982   4.439  1.6747  0.3622  1.3008
 6493WAT     H226693   1.381   4.874   4.491 -0.4597 -1.7154 -0.0904
 6493WAT    EPW26694   1.341   4.909   4.433  0.2546 -0.1184  0.3249
 6494WAT      O26695   3.595   5.300   3.454 -0.1400  0.0321 -0.1518
 6494WAT     H126696   3.557   5.335   3.524 -2.1751 -2.0399 -0.0861
 6494WAT     H226697   3.570   5.216   3.457  1.2533 -0.5605 -2.3541
 6494WAT    EPW26698   3.586   5.293   3.465 -0.2348 -0.3615 -0.4674
 6495WAT      O26699   3.958   6.016   0.769  0.7679  0.3291  0.8523
 6495WAT     H126700   3.894   5.959   0.752  0.9965 -0.0459  1.2247
 6495WAT     H226701   3.977   6.050   0.691 -0.7746  1.4143  0.9004
 6495WAT    EPW26702   3.952   6.012   0.755  0.5738  0.4340  0.9144
 6496WAT      O26703   2.247   0.818   6.370 -0.4844  0.1979 -0.0394
 6496WAT     H126704   2.276   0.771   6.438  1.1730 -0.2345 -0.9630
 6496WAT     H226705   2.203   0.759   6.323  2.4382 -0.8744 -1.7110
 6496WAT    EPW26706   2.245   0.802   6.373  0.1922 -0.0244 -0.4228
 6497WAT      O26707   1.371   2.207   6.844 -0.2250  0.0848 -0.1548
 6497WAT     H126708   1.289   2.235   6.844  0.4001  2.0040 -0.2801
 6497WAT     H226709   1.386   2.189   6.760  0.0242  1.4759 -0.4277
 6497WAT    EPW26710   1.361   2.208   6.832 -0.0959  0.5738 -0.2136
 6498WAT      O26711   1.350   7.261   2.222 -0.5092  0.0436  0.3112
 6498WAT     H126712   1.295   7.199   2.247  0.8350 -1.3246 -0.0070
 6498WAT     H226713   1.297   7.329   2.204 -2.0178 -1.0238  0.5381
 6498WAT    EPW26714   1.334   7.262   2.223 -0.5335 -0.3162  0.2977
 6499WAT      O26715   7.231   2.959   3.865  0.3194  0.6782 -0.4245
 6499WAT     H126716   7.174   3.024   3.852 -0.2283  1.2946  3.5834
 6499WAT     H226717   7.182   2.887   3.859 -0.2197  1.0044 -0.0476
 6499WAT    EPW26718   7.215   2.958   3.862  0.1589  0.8175  0.2232
 6500WAT      O26719   5.317   4.610   5.714 -0.2123 -0.0639 -0.4395
 6500WAT     H126720   5.244   4.569   5.737  0.5973 -1.4567 -0.2399
 6500WAT     H226721   5.305   4.627   5.629 -0.2957 -1.3600 -0.7026
 6500WAT    EPW26722   5.304   4.606   5.705 -0.1050 -0.4611 -0.4489
 6501WAT      O26723   7.258   3.353   0.881 -0.5181 -0.2172 -0.4864
 6501WAT     H126724   7.197   3.370   0.821 -1.1959 -1.1201 -0.0573
 6501WAT     H226725   7.250   3.419   0.938 -1.4728 -0.6185 -0.1413
 6501WAT    EPW26726   7.248   3.366   0.881 -0.7592 -0.4099 -0.3720
 6502WAT      O26727   5.520   2.134   1.669  0.3417 -0.0957 -0.2207
 6502WAT     H126728   5.529   2.145   1.755  1.1931 -0.6995 -0.2156
 6502WAT     H226729   5.585   2.181   1.635 -0.1926  0.4098 -0.5642
 6502WAT    EPW26730   5.531   2.142   1.677  0.3886 -0.1102 -0.2707
 6503WAT      O26731   3.114   0.736   2.686 -0.4159  1.0452  0.9219
 6503WAT     H126732   3.106   0.685   2.756 -0.2318 -0.1436  0.1144
 6503WAT     H226733   3.179   0.791   2.708 -0.5375  0.8700  1.7601
 6503WAT    EPW26734   3.122   0.737   2.700 -0.4067  0.8437  0.9265
 6504WAT      O26735   1.233   6.378   1.197  0.3361 -0.5618 -0.2168
 6504WAT     H126736   1.307   6.339   1.173  0.2958 -0.9385  0.2493
 6504WAT     H226737   1.260   6.442   1.251  0.3723 -0.2247 -0.6336
 6504WAT    EPW26738   1.248   6.382   1.202  0.3355 -0.5676 -0.2095
 6505WAT      O26739   0.635   2.053   5.455 -0.8238  0.9737 -0.4389
 6505WAT     H126740   0.595   2.002   5.397 -1.0249  1.0266 -0.3464
 6505WAT     H226741   0.705   2.083   5.412 -0.2778  0.0100 -0.2612
 6505WAT    EPW26742   0.640   2.050   5.440 -0.7729  0.8391 -0.3990
 6506WAT      O26743   6.540   5.040   1.322  0.6535 -0.1210  0.2299
 6506WAT     H126744   6.516   5.055   1.404  0.5081 -0.2699  0.2154
 6506WAT     H226745   6.627   5.038   1.326  0.7771  2.3306 -0.0428
 6506WAT    EPW26746   6.549   5.042   1.334  0.6503  0.2192  0.1875
 6507WAT      O26747   3.597   6.484   1.812  0.2585 -0.3492  0.2652
 6507WAT     H126748   3.659   6.425   1.798 -1.2630 -2.2287  0.9556
 6507WAT     H226749   3.574   6.470   1.895 -1.8263 -0.5308 -0.2784
 6507WAT    EPW26750   3.603   6.473   1.822 -0.2742 -0.6537  0.2869
 6508WAT      O26751   6.741   1.187   4.696  0.3263 -0.6250 -0.0271
 6508WAT     H126752   6.828   1.184   4.689  0.5493 -0.3781  2.0047
 6508WAT     H226753   6.718   1.252   4.643  1.5615  0.3324  0.5738
 6508WAT    EPW26754   6.750   1.196   4.687  0.5417 -0.4471  0.3618
 6509WAT      O26755   5.267   5.218   4.449  0.3431 -0.3821  0.3691
 6509WAT     H126756   5.258   5.248   4.530  0.5177  1.0888 -0.1350
 6509WAT     H226757   5.188   5.185   4.431  0.0200  0.1319  0.8067
 6509WAT    EPW26758   5.254   5.217   4.459  0.3211 -0.0889  0.3593
 6510WAT      O26759   3.092   3.126   7.186 -0.0780  0.1837  0.2093
 6510WAT     H126760   3.173   3.100   7.202 -0.4334 -0.8387  0.4322
 6510WAT     H226761   3.052   3.054   7.158 -1.1070  0.4828  0.8250
 6510WAT    EPW26762   3.098   3.112   7.184 -0.2825  0.0768  0.3332
 6511WAT      O26763   1.586   0.719   1.641  0.3603 -0.3876 -0.1261
 6511WAT     H126764   1.543   0.672   1.701 -0.9744  0.6942 -0.1926
 6511WAT     H226765   1.604   0.661   1.579 -3.6088 -0.4472 -1.4925
 6511WAT    EPW26766   1.582   0.704   1.641 -0.4232 -0.2366 -0.3378
 6512WAT      O26767   6.686   6.301   4.236  0.1953 -0.0014 -0.8689
 6512WAT     H126768   6.720   6.225   4.211  1.7501  0.4845 -0.3894
 6512WAT     H226769   6.749   6.358   4.216 -0.7251  1.0846 -0.7490
 6512WAT    EPW26770   6.701   6.298   4.229  0.2890  0.2308 -0.7803
 6513WAT      O26771   0.800   3.050   6.275  0.1091 -0.6778  0.2002
 6513WAT     H126772   0.787   3.115   6.331 -0.4144 -0.1330 -0.5266
 6513WAT     H226773   0.857   3.083   6.218 -1.1158 -0.3538 -0.9020
 6513WAT    EPW26774   0.807   3.064   6.275 -0.1492 -0.5495 -0.0700
 6514WAT      O26775   0.532   2.913   0.800  0.0581 -0.0096 -0.3368
 6514WAT     H126776   0.568   2.990   0.783 -1.0513  0.5071 -0.4683
 6514WAT     H226777   0.516   2.917   0.886  1.3779 -0.7235 -0.0335
 6514WAT    EPW26778   0.535   2.925   0.810  0.0892 -0.0387 -0.3114
 6515WAT      O26779   0.433   3.146   6.486  0.4327 -0.0380  0.1548
 6515WAT     H126780   0.351   3.174   6.479 -0.1432 -1.9255 -1.8166
 6515WAT     H226781   0.431   3.095   6.557 -0.2957 -0.5935 -0.2478
 6515WAT    EPW26782   0.421   3.142   6.496  0.2400 -0.3989 -0.1959
 6516WAT      O26783   4.569   2.378   1.065  0.9806  0.1485  0.0609
 6516WAT     H126784   4.619   2.429   1.115 -0.6735  0.8806  1.0335
 6516WAT     H226785   4.568   2.302   1.108 -1.3100  1.0867  1.8210
 6516WAT    EPW26786   4.576   2.374   1.079  0.3979  0.3953  0.4646
 6517WAT      O26787   1.783   4.686   3.954  0.4075 -0.4575 -0.0474
 6517WAT     H126788   1.862   4.722   3.945 -0.0757  1.2865  1.9835
 6517WAT     H226789   1.768   4.690   4.040 -1.9284 -0.6180 -0.3908
 6517WAT    EPW26790   1.793   4.692   3.965 -0.0090 -0.2236  0.2019
 6518WAT      O26791   5.153   1.948   1.087  0.1518 -0.0148  0.2214
 6518WAT     H126792   5.190   2.007   1.140  0.6924  0.2878 -0.4764
 6518WAT     H226793   5.215   1.931   1.029 -0.2040 -0.8463  0.0704
 6518WAT    EPW26794   5.168   1.954   1.086  0.1791 -0.0930  0.0960
 6519WAT      O26795   1.556   6.534   1.044 -0.0457  0.1095 -0.3043
 6519WAT     H126796   1.624   6.539   0.989 -0.1502 -0.4989 -0.4918
 6519WAT     H226797   1.503   6.597   1.015  1.2485  1.9385  1.0196
 6519WAT    EPW26798   1.559   6.544   1.032  0.1301  0.2898 -0.1364
 6520WAT      O26799   5.069   5.536   3.597  0.1342 -0.5869 -0.3713
 6520WAT     H126800   5.150   5.506   3.606 -0.4486 -1.9912  0.4438
 6520WAT     H226801   5.074   5.618   3.627  0.9300 -1.1561  1.0976
 6520WAT    EPW26802   5.082   5.544   3.602  0.1657 -0.8784 -0.0339
 6521WAT      O26803   1.394   1.545   0.125  0.1083  0.0374 -0.1290
 6521WAT     H126804   1.391   1.552   0.212  0.3843 -0.8622 -0.0393
 6521WAT     H226805   1.477   1.561   0.105  0.6541 -2.2100  0.0401
 6521WAT    EPW26806   1.406   1.548   0.135  0.2297 -0.4275 -0.0907
 6522WAT      O26807   6.323   4.159   5.831  0.1026 -0.0598  0.6300
 6522WAT     H126808   6.321   4.241   5.803  0.8622  0.1649  1.1920
 6522WAT     H226809   6.328   4.112   5.757  3.3911  0.5629  0.2695
 6522WAT    EPW26810   6.324   4.164   5.816  0.7006  0.0653  0.6597
 6523WAT      O26811   1.625   5.781   0.754 -0.1277  0.5763 -0.3926
 6523WAT     H126812   1.650   5.856   0.716  0.6077  0.8294  0.5284
 6523WAT     H226813   1.699   5.750   0.787 -0.1927 -1.2078 -1.7818
 6523WAT    EPW26814   1.640   5.788   0.753 -0.0287  0.3501 -0.4617
 6524WAT      O26815   1.383   1.884   0.770  0.3825  0.1704  0.5169
 6524WAT     H126816   1.409   1.801   0.768 -0.1740 -0.0041 -1.3671
 6524WAT     H226817   1.449   1.925   0.808  0.2780 -1.2291  2.3460
 6524WAT    EPW26818   1.396   1.878   0.775  0.2849 -0.0621  0.5088
 6525WAT      O26819   3.813   0.384   0.786 -0.4523  0.1153 -0.0410
 6525WAT     H126820   3.848   0.306   0.802 -1.0197  0.0681  1.1369
 6525WAT     H226821   3.816   0.424   0.864  2.1524  2.2750 -1.0941
 6525WAT    EPW26822   3.818   0.378   0.800 -0.1514  0.4273 -0.0226
 6526WAT      O26823   2.008   6.188   4.404  0.2904 -0.5165 -0.4133
 6526WAT     H126824   1.947   6.173   4.465 -1.0087 -1.3889 -1.8601
 6526WAT     H226825   2.081   6.200   4.451 -0.7023 -0.8561  1.3157
 6526WAT    EPW26826   2.010   6.188   4.420 -0.0482 -0.6956 -0.3716
 6527WAT      O26827   5.472   7.125   0.975 -0.0370 -0.3790 -0.6992
 6527WAT     H126828   5.395   7.122   0.935 -0.5832 -0.3081  0.3024
 6527WAT     H226829   5.515   7.056   0.944 -0.2260 -0.0147 -1.7974
 6527WAT    EPW26830   5.467   7.114   0.965 -0.1456 -0.3147 -0.7134
 6528WAT      O26831   2.827   0.647   0.373 -0.2735 -0.1779 -0.7468
 6528WAT     H126832   2.745   0.636   0.346 -0.8330  0.8363  0.4066
 6528WAT     H226833   2.853   0.567   0.394 -1.5091 -0.3354  0.2799
 6528WAT    EPW26834   2.819   0.634   0.372 -0.5387 -0.0514 -0.4248
 6529WAT      O26835   3.256   0.799   0.114  0.1200 -0.0405 -0.1600
 6529WAT     H126836   3.228   0.773   0.036 -1.4429  0.3927  0.2376
 6529WAT     H226837   3.299   0.729   0.144  2.0718  0.2638 -1.9794
 6529WAT    EPW26838   3.258   0.784   0.107  0.1775  0.0685 -0.3700
 6530WAT      O26839   6.313   3.476   1.178  0.1112  0.4074  0.2852
 6530WAT     H126840   6.273   3.527   1.237  0.5140 -0.7085  1.5781
 6530WAT     H226841   6.372   3.433   1.226 -0.3164 -1.3757 -0.7312
 6530WAT    EPW26842   6.316   3.477   1.194  0.1076 -0.0209  0.3261
 6531WAT      O26843   5.776   6.612   1.904  0.4892  0.9034 -0.4024
 6531WAT     H126844   5.705   6.573   1.937  0.9137  0.0615 -0.4717
 6531WAT     H226845   5.760   6.615   1.819 -0.5401  2.9424 -0.1981
 6531WAT    EPW26846   5.763   6.607   1.897  0.3999  1.0803 -0.3824
 6532WAT      O26847   3.883   1.277   1.357 -0.1110  0.6034  0.1350
 6532WAT     H126848   3.921   1.223   1.300 -0.6784 -0.7866  1.0179
 6532WAT     H226849   3.844   1.336   1.306 -1.7683 -1.3592 -1.0398
 6532WAT    EPW26850   3.883   1.278   1.341 -0.4396  0.1081  0.0919
 6533WAT      O26851   0.653   0.613   4.592  0.1744 -0.1291 -0.4333
 6533WAT     H126852   0.738   0.622   4.610  0.1318 -1.1060  0.4092
 6533WAT     H226853   0.649   0.620   4.505  1.1944 -0.5336 -0.5312
 6533WAT    EPW26854   0.665   0.615   4.582  0.3188 -0.3332 -0.3233
 6534WAT      O26855   0.299   3.178   7.088  0.0503  0.7886  0.4118
 6534WAT     H126856   0.233   3.204   7.139 -0.3115  0.4345  0.1341
 6534WAT     H226857   0.318   3.098   7.118  0.3933  0.9074  0.5231
 6534WAT    EPW26858   0.292   3.170   7.100  0.0475  0.7539  0.3872
 6535WAT      O26859   0.292   6.131   3.772 -0.4453 -0.5282  0.0640
 6535WAT     H126860   0.359   6.186   3.781 -0.1671 -0.5301 -1.6189
 6535WAT     H226861   0.223   6.185   3.763 -0.0980 -0.3430 -2.1833
 6535WAT    EPW26862   0.292   6.147   3.772 -0.3529 -0.5011 -0.5166
 6536WAT      O26863   2.904   5.083   3.738 -0.0257  0.2884 -0.1166
 6536WAT     H126864   2.929   5.094   3.821 -0.0181 -1.1401  0.1018
 6536WAT     H226865   2.944   5.148   3.696  1.7125 -0.1866  0.6894
 6536WAT    EPW26866   2.914   5.094   3.744  0.2322  0.0072  0.0347
 6537WAT      O26867   6.749   0.622   3.122  0.0743  0.3219  0.5588
 6537WAT     H126868   6.752   0.537   3.142  3.4691 -1.0451 -3.8986
 6537WAT     H226869   6.719   0.622   3.040  1.1111  3.2755  0.0657
 6537WAT    EPW26870   6.745   0.610   3.113  0.7289  0.5563 -0.1725
 6538WAT      O26871   4.981   3.804   2.489  0.0063  0.6793 -0.3949
 6538WAT     H126872   4.895   3.806   2.472 -0.1930 -0.2159  0.4037
 6538WAT     H226873   5.016   3.768   2.417 -0.2344  1.4191 -0.8882
 6538WAT    EPW26874   4.973   3.799   2.476 -0.0587  0.6563 -0.3498
 6539WAT      O26875   0.190   0.777   6.570  0.0672  0.4006  0.0404
 6539WAT     H126876   0.232   0.755   6.496 -0.8911 -0.6009 -0.2437
 6539WAT     H226877   0.106   0.766   6.549 -0.2172 -0.0416  1.3220
 6539WAT    EPW26878   0.184   0.772   6.556 -0.1164  0.1873  0.1878
 6540WAT      O26879   4.309   5.861   0.950 -0.5307 -0.0899 -0.2493
 6540WAT     H126880   4.228   5.891   0.934 -0.6589 -0.3743 -0.1403
 6540WAT     H226881   4.305   5.778   0.924 -0.2293 -0.0632 -0.3806
 6540WAT    EPW26882   4.296   5.853   0.944 -0.5051 -0.1279 -0.2526
 6541WAT      O26883   5.800   1.452   6.354 -0.1803 -0.3753  0.1052
 6541WAT     H126884   5.737   1.424   6.408 -0.0632  0.3176  0.6329
 6541WAT     H226885   5.817   1.383   6.304 -1.2960 -0.6042  0.0105
 6541WAT    EPW26886   5.793   1.438   6.355 -0.3278 -0.3067  0.1692
 6542WAT      O26887   4.517   6.761   3.425  0.6604  0.2718  0.0938
 6542WAT     H126888   4.561   6.698   3.384 -1.2981 -1.4821  0.5106
 6542WAT     H226889   4.577   6.823   3.438  2.8032 -1.6569  0.0209
 6542WAT    EPW26890   4.533   6.761   3.421  0.6876 -0.2722  0.1446
 6543WAT      O26891   2.476   4.530   2.320  0.4204 -0.3164 -0.2394
 6543WAT     H126892   2.500   4.544   2.402  2.0612 -0.4571 -0.6606
 6543WAT     H226893   2.497   4.604   2.279 -0.5248 -0.1898 -0.5061
 6543WAT    EPW26894   2.483   4.543   2.326  0.5231 -0.3185 -0.3410
 6544WAT      O26895   4.256   2.837   7.209  0.3408 -0.1099 -0.0745
 6544WAT     H126896   4.239   2.910   7.164  0.7546  1.3814  2.0021
 6544WAT     H226897   4.228   2.856   7.289 -1.5109 -3.1085  0.1026
 6544WAT    EPW26898   4.250   2.851   7.214  0.1284 -0.3326  0.2585
 6545WAT      O26899   6.093   4.122   2.348  0.1025  0.0822 -0.4194
 6545WAT     H126900   6.160   4.177   2.334  1.9112 -1.8829  0.1122
 6545WAT     H226901   6.109   4.090   2.427 -2.3230  0.5919  0.3764
 6545WAT    EPW26902   6.105   4.126   2.358  0.0114 -0.1328 -0.2233
 6546WAT      O26903   4.265   4.024   7.037  0.2463  0.2233  0.1884
 6546WAT     H126904   4.327   4.078   7.008  0.3339 -0.7301 -1.5456
 6546WAT     H226905   4.195   4.076   7.044  1.0545  1.1973  1.6536
 6546WAT    EPW26906   4.264   4.040   7.033  0.3786  0.2264  0.1487
 6547WAT      O26907   2.385   5.337   4.953 -0.2614 -0.2562  0.2931
 6547WAT     H126908   2.336   5.297   5.014  0.3008 -0.5575  0.5516
 6547WAT     H226909   2.466   5.315   4.975 -0.0682 -0.5706 -0.7218
 6547WAT    EPW26910   2.390   5.328   4.965 -0.1498 -0.3471  0.1814
 6548WAT      O26911   3.188   1.818   6.269 -0.4176 -0.3216  0.3777
 6548WAT     H126912   3.154   1.887   6.312 -0.5662 -0.7788  1.0143
 6548WAT     H226913   3.245   1.785   6.326  0.7522  0.1467 -0.5042
 6548WAT    EPW26914   3.191   1.823   6.284 -0.2668 -0.3200  0.3415
 6549WAT      O26915   0.003   0.279   0.254  0.1465 -0.1925 -0.0274
 6549WAT     H126916  -0.011   0.362   0.274  1.2787  0.1967 -0.7284
 6549WAT     H226917  -0.012   0.275   0.169 -2.5427 -1.3510  0.4161
 6549WAT    EPW26918  -0.001   0.291   0.245 -0.0835 -0.3061 -0.0655
 6550WAT      O26919   4.120   3.561   6.208  0.2696 -0.8276 -0.8467
 6550WAT     H126920   4.077   3.591   6.139 -0.9087 -1.1333 -0.2634
 6550WAT     H226921   4.093   3.613   6.273  1.4190 -0.4885 -0.6037
 6550WAT    EPW26922   4.110   3.573   6.208  0.2653 -0.8226 -0.7246
 6551WAT      O26923   1.257   1.551   2.657 -0.6210  0.3976 -0.3730
 6551WAT     H126924   1.237   1.579   2.737  0.5745  0.0152  0.0824
 6551WAT     H226925   1.221   1.610   2.605 -1.7892  0.4179  0.4300
 6551WAT    EPW26926   1.249   1.564   2.661 -0.6170  0.3441 -0.1871
 6552WAT      O26927   5.549   0.006   6.662 -0.2851  0.0026 -0.0472
 6552WAT     H126928   5.464   0.012   6.678 -0.3866 -1.3159  0.0838
 6552WAT     H226929   5.584   0.071   6.709 -1.1891  0.4076  0.0902
 6552WAT    EPW26930   5.542   0.016   6.671 -0.4336 -0.1323 -0.0075
 6553WAT      O26931   4.648   1.532   5.848  0.1969 -0.1642  0.2562
 6553WAT     H126932   4.734   1.541   5.837  0.1613 -0.1220  0.0049
 6553WAT     H226933   4.618   1.517   5.767 -0.0282 -0.2057  0.3457
 6553WAT    EPW26934   4.656   1.532   5.834  0.1584 -0.1641  0.2323
 6554WAT      O26935   3.308   6.490   5.130  0.1381  0.2486  0.2507
 6554WAT     H126936   3.383   6.446   5.124 -0.4263 -1.0555  1.9142
 6554WAT     H226937   3.275   6.485   5.050  0.8017 -1.0849  0.0412
 6554WAT    EPW26938   3.314   6.483   5.117  0.1528 -0.1411  0.4655
 6555WAT      O26939   6.899   6.663   3.169  0.4042  0.7482 -0.0533
 6555WAT     H126940   6.861   6.633   3.242  2.0690 -0.0294  0.5446
 6555WAT     H226941   6.918   6.746   3.189  1.7539  0.2673  0.8330
 6555WAT    EPW26942   6.897   6.671   3.183  0.8495  0.5623  0.1659
 6556WAT      O26943   3.291   7.222   4.298 -0.0272 -0.1058 -0.0294
 6556WAT     H126944   3.362   7.270   4.317  2.4955 -2.9689 -1.2842
 6556WAT     H226945   3.259   7.202   4.376  2.2026 -0.8702  0.7823
 6556WAT    EPW26946   3.297   7.226   4.313  0.6749 -0.6417 -0.0948
 6557WAT      O26947   4.991   4.678   0.015 -0.2854 -0.3190 -0.1348
 6557WAT     H126948   4.974   4.630   0.085  0.1762  1.6892  1.4450
 6557WAT     H226949   4.921   4.665  -0.036 -1.3066 -0.7580  1.3128
 6557WAT    EPW26950   4.978   4.669   0.018 -0.3680 -0.0872  0.3124
 6558WAT      O26951   0.560   0.313   2.079 -0.0310 -0.0997  0.1633
 6558WAT     H126952   0.518   0.388   2.061  0.2019  0.4793  1.8480
 6558WAT     H226953   0.635   0.321   2.034 -0.2195  0.4618 -0.0670
 6558WAT    EPW26954   0.565   0.326   2.069 -0.0244  0.0688  0.3782
 6559WAT      O26955   2.023   4.742   2.647 -0.6267  0.0361  0.6444
 6559WAT     H126956   2.049   4.825   2.648  0.6442 -0.3298  2.2065
 6559WAT     H226957   1.957   4.741   2.704 -1.0915  0.1072  0.1056
 6559WAT    EPW26958   2.017   4.754   2.656 -0.5076 -0.0075  0.7956
 6560WAT      O26959   2.175   6.015   4.552  0.3774 -0.3298 -0.0879
 6560WAT     H126960   2.216   5.977   4.619  0.2772 -0.5073 -0.1270
 6560WAT     H226961   2.104   5.966   4.541  0.5015 -0.4306 -0.4640
 6560WAT    EPW26962   2.170   6.002   4.560  0.3809 -0.3709 -0.1493
 6561WAT      O26963   6.787   0.094   6.861  0.1823 -0.6824  0.0210
 6561WAT     H126964   6.764   0.010   6.865 -0.1996 -0.7361 -2.0398
 6561WAT     H226965   6.870   0.090   6.834  0.5758 -0.3950  1.1566
 6561WAT    EPW26966   6.796   0.081   6.857  0.1840 -0.6479 -0.1156
 6562WAT      O26967   5.505   0.800   6.841  0.5971  0.0079  0.0614
 6562WAT     H126968   5.429   0.784   6.800 -0.4466  1.0922  1.4845
 6562WAT     H226969   5.532   0.721   6.865  0.3310 -0.4720 -1.1252
 6562WAT    EPW26970   5.498   0.786   6.838  0.4036  0.0972  0.0963
 6563WAT      O26971   6.631   6.866   3.934 -0.4964 -0.0528  1.0451
 6563WAT     H126972   6.664   6.812   3.874 -2.0721 -1.5175  1.4196
 6563WAT     H226973   6.678   6.850   4.005  0.8769  1.1402  0.4497
 6563WAT    EPW26974   6.643   6.856   3.936 -0.5263 -0.0929  1.0125
 6564WAT      O26975   2.166   1.136   6.723 -0.0463 -0.6466  0.4578
 6564WAT     H126976   2.097   1.092   6.692  0.3267 -0.5290 -0.5524
 6564WAT     H226977   2.184   1.094   6.798 -1.1892 -0.6944  0.7310
 6564WAT    EPW26978   2.158   1.123   6.730 -0.1601 -0.6363  0.3489
 6565WAT      O26979   6.973   6.048   2.266 -0.0217 -0.0236 -0.2610
 6565WAT     H126980   6.930   6.094   2.205 -1.3221 -0.9577 -0.0773
 6565WAT     H226981   6.962   5.965   2.241  1.6435 -0.3196 -0.1678
 6565WAT    EPW26982   6.965   6.042   2.253  0.0322 -0.2053 -0.2201
 6566WAT      O26983   5.129   5.323   0.136  0.0793  1.0403  0.1914
 6566WAT     H126984   5.183   5.258   0.116  0.7867  1.1164  1.7580
 6566WAT     H226985   5.159   5.389   0.088 -1.6867 -0.1025 -2.7791
 6566WAT    EPW26986   5.141   5.323   0.126 -0.0771  0.8827 -0.0160
 6567WAT      O26987   5.847   4.326   4.263  0.2632  0.3383 -0.2197
 6567WAT     H126988   5.875   4.274   4.198  0.5416  0.5325 -0.2526
 6567WAT     H226989   5.776   4.284   4.292  0.0324  0.3334 -0.7641
 6567WAT    EPW26990   5.840   4.312   4.258  0.2702  0.3663 -0.3050
 6568WAT      O26991   0.080   6.224   4.564  0.0578 -0.2774 -1.0493
 6568WAT     H126992   0.085   6.299   4.520  0.7709  0.3837  0.1423
 6568WAT     H226993   0.155   6.184   4.546  1.3621  0.9730  1.2495
 6568WAT    EPW26994   0.092   6.229   4.555  0.3558  0.0050 -0.5337
 6569WAT      O26995   5.576   6.440   0.345 -0.0238  0.0593  0.4338
 6569WAT     H126996   5.541   6.424   0.423 -0.6085 -2.6847 -0.2689
 6569WAT     H226997   5.662   6.438   0.360 -0.1321 -0.2542  1.0314
 6569WAT    EPW26998   5.584   6.437   0.359 -0.1262 -0.3923  0.4183
 6570WAT      O26999   5.118   4.121   3.766  0.3163 -0.5559 -0.2950
 6570WAT     H127000   5.113   4.198   3.726 -1.2080  0.8610  2.3703
 6570WAT     H227001   5.036   4.092   3.765  0.6672 -1.5824 -0.1925
 6570WAT    EPW27002   5.105   4.128   3.760  0.1429 -0.4982  0.1139
 6571WAT      O27003   7.168   2.219   6.534  0.1647 -0.0619  0.3197
 6571WAT     H127004   7.106   2.235   6.593 -0.7867 -1.0950 -0.3631
 6571WAT     H227005   7.187   2.134   6.546  1.2744  0.1688  0.3424
 6571WAT    EPW27006   7.162   2.209   6.545  0.1881 -0.1804  0.2222
 6572WAT      O27007   3.502   6.249   0.314 -0.2710  0.4065 -0.9458
 6572WAT     H127008   3.427   6.267   0.355 -1.2534 -3.5152 -0.6079
 6572WAT     H227009   3.480   6.184   0.261  2.7654 -0.2918 -1.4915
 6572WAT    EPW27010   3.488   6.242   0.312  0.0324 -0.2760 -0.9765
 6573WAT      O27011   3.902   5.370   4.242 -0.2642  0.4913 -0.1618
 6573WAT     H127012   3.820   5.400   4.244 -0.6744 -0.3965 -1.9041
 6573WAT     H227013   3.892   5.287   4.218  1.1263  0.2013  0.2224
 6573WAT    EPW27014   3.888   5.362   4.239 -0.1194  0.3173 -0.3624
 6574WAT      O27015   1.704   6.211   7.256 -0.1020 -0.3048  0.2480
 6574WAT     H127016   1.719   6.285   7.213  0.2694 -1.2438 -1.3348
 6574WAT     H227017   1.657   6.236   7.326 -1.8440  1.1795 -1.3420
 6574WAT    EPW27018   1.699   6.225   7.260 -0.3045 -0.2242 -0.2207
 6575WAT      O27019   3.255   1.711   2.517 -0.0256 -0.4848  0.5719
 6575WAT     H127020   3.169   1.722   2.525  0.0369 -0.9627  2.2629
 6575WAT     H227021   3.280   1.778   2.467 -1.2998 -0.0430  0.4910
 6575WAT    EPW27022   3.246   1.722   2.511 -0.2046 -0.4901  0.8097
 6576WAT      O27023   5.545   1.812   6.400 -0.0723 -0.2960 -0.8525
 6576WAT     H127024   5.523   1.753   6.461  0.8313 -0.8233 -1.0259
 6576WAT     H227025   5.632   1.805   6.395 -0.0734  0.2300 -1.7064
 6576WAT    EPW27026   5.554   1.802   6.408  0.0610 -0.2962 -1.0043
 6577WAT      O27027   6.768   0.183   1.829  0.4243  0.7896  0.5851
 6577WAT     H127028   6.689   0.218   1.816  0.0359 -0.5468 -0.9380
 6577WAT     H227029   6.817   0.220   1.767  0.6143  0.4395  0.5284
 6577WAT    EPW27030   6.763   0.194   1.818  0.3950  0.5405  0.3517
 6578WAT      O27031   5.066   2.500   5.339 -0.3855  0.3004  0.1080
 6578WAT     H127032   5.110   2.554   5.392 -1.9747  1.1573  0.6099
 6578WAT     H227033   5.012   2.553   5.296 -2.2404 -0.9014  0.8532
 6578WAT    EPW27034   5.065   2.516   5.340 -0.8943  0.2494  0.2922
 6579WAT      O27035   5.074   5.966   3.010  0.4089 -0.5474  0.3332
 6579WAT     H127036   5.082   5.965   3.097 -0.0691 -1.9310  0.3815
 6579WAT     H227037   5.156   5.956   2.981  0.5931  0.1077  0.6024
 6579WAT    EPW27038   5.087   5.964   3.018  0.3655 -0.6550  0.3801
 6580WAT      O27039   3.904   2.900   6.745 -0.1665  0.8763 -0.1519
 6580WAT     H127040   3.893   2.939   6.668 -0.4489  0.0840 -0.5303
 6580WAT     H227041   3.875   2.819   6.730 -1.8864  1.1689  1.2576
 6580WAT    EPW27042   3.898   2.894   6.731 -0.4623  0.8025  0.0004
 6581WAT      O27043   6.467   2.690   4.381  0.0032  0.0541  0.3226
 6581WAT     H127044   6.497   2.616   4.346  0.6178  0.0936  0.7484
 6581WAT     H227045   6.395   2.707   4.334 -0.5890 -1.2145  0.7327
 6581WAT    EPW27046   6.461   2.682   4.369  0.0065 -0.1275  0.4461
 6582WAT      O27047   2.645   5.576   7.420  0.5213  0.0176 -0.4679
 6582WAT     H127048   2.620   5.495   7.397 -0.5744 -0.1229  1.0565
 6582WAT     H227049   2.576   5.625   7.402  0.4307  0.2596  0.4952
 6582WAT    EPW27050   2.631   5.571   7.414  0.3461  0.0326 -0.1004
 6583WAT      O27051   0.119   5.239   6.876 -0.2618  0.1074 -0.1675
 6583WAT     H127052   0.076   5.248   6.801  0.3877  2.3794 -0.3434
 6583WAT     H227053   0.190   5.193   6.854 -0.5198 -0.0114 -0.7687
 6583WAT    EPW27054   0.123   5.233   6.862 -0.2040  0.4254 -0.2823
 6584WAT      O27055   5.763   6.297   1.544 -0.5681 -0.1824 -0.4242
 6584WAT     H127056   5.677   6.283   1.544 -0.6688  0.4291 -1.1435
 6584WAT     H227057   5.784   6.292   1.629 -1.8581  2.9553  0.2108
 6584WAT    EPW27058   5.753   6.294   1.557 -0.7735  0.3715 -0.4367
 6585WAT      O27059   2.402   0.029   4.404 -0.2355 -0.0129 -0.3897
 6585WAT     H127060   2.476   0.064   4.374 -0.8701  0.7305 -1.1346
 6585WAT     H227061   2.341   0.062   4.351 -0.8938 -2.1539 -1.0805
 6585WAT    EPW27062   2.404   0.039   4.392 -0.4265 -0.2193 -0.6018
 6586WAT      O27063   4.454   6.514   2.514 -0.1029 -0.1217  0.6157
 6586WAT     H127064   4.499   6.488   2.443 -0.6195  2.9471 -0.9994
 6586WAT     H227065   4.502   6.580   2.545 -0.9588 -0.0946  1.9328
 6586WAT    EPW27066   4.468   6.520   2.508 -0.3056  0.3356  0.5717
 6587WAT      O27067   2.832   3.795   3.413 -0.2479  0.5170 -0.2192
 6587WAT     H127068   2.773   3.746   3.453  1.9264 -1.5633  0.6440
 6587WAT     H227069   2.830   3.767   3.330  2.5241 -2.9666  0.6567
 6587WAT    EPW27070   2.823   3.784   3.407  0.4828 -0.3049  0.0377
 6588WAT      O27071   5.505   5.915   3.924  0.3378 -0.8138  0.0323
 6588WAT     H127072   5.426   5.920   3.888 -0.2946 -0.7767  1.3566
 6588WAT     H227073   5.555   5.882   3.860 -0.7551 -0.9251 -0.7933
 6588WAT    EPW27074   5.501   5.911   3.909  0.0829 -0.8247  0.1060
 6589WAT      O27075   6.632   1.870   5.808  0.2500 -0.2447  0.2817
 6589WAT     H127076   6.683   1.923   5.761  1.1257  0.0585  1.5122
 6589WAT     H227077   6.620   1.802   5.755  1.9939 -0.3508 -0.0525
 6589WAT    EPW27078   6.638   1.868   5.793  0.6369 -0.2156  0.4141
 6590WAT      O27079   5.333   1.651   1.611  0.4065 -0.9065 -0.5074
 6590WAT     H127080   5.310   1.614   1.536  0.2951 -0.0435 -0.9140
 6590WAT     H227081   5.393   1.709   1.587  0.4150 -0.6679  0.0786
 6590WAT    EPW27082   5.338   1.654   1.596  0.3913 -0.7438 -0.4809
 6591WAT      O27083   2.904   7.213   0.021 -0.5010  0.2107  0.1438
 6591WAT     H127084   2.831   7.176   0.049 -0.3920  1.0319  1.5666
 6591WAT     H227085   2.964   7.150   0.030 -1.2898 -1.1947 -2.9576
 6591WAT    EPW27086   2.902   7.198   0.026 -0.6014  0.1244 -0.1042
 6592WAT      O27087   4.080   6.780   1.388  0.0469 -0.8711  0.6596
 6592WAT     H127088   4.164   6.771   1.366  0.3585  1.6240  0.5062
 6592WAT     H227089   4.044   6.821   1.319 -0.8009 -0.1165  1.5092
 6592WAT    EPW27090   4.087   6.785   1.375 -0.0323 -0.3910  0.7624
 6593WAT      O27091   0.095   3.333   1.265  0.4079 -0.9452  0.0484
 6593WAT     H127092   0.098   3.385   1.335 -0.7397 -0.7429 -0.0398
 6593WAT     H227093   0.174   3.344   1.228  0.8317 -0.6550  1.0131
 6593WAT    EPW27094   0.107   3.342   1.270  0.3010 -0.8724  0.1779
 6594WAT      O27095   7.292   1.714   6.980 -0.4156  0.5925 -0.4238
 6594WAT     H127096   7.295   1.800   6.992  2.5187  0.3815  1.3260
 6594WAT     H227097   7.239   1.687   7.044 -1.5937  1.0697 -1.1655
 6594WAT    EPW27098   7.285   1.723   6.991 -0.1562  0.6319 -0.2749
 6595WAT      O27099   0.309   5.795   2.798  0.0174 -0.1441 -0.5504
 6595WAT     H127100   0.234   5.821   2.763  0.3862 -0.2187 -1.4241
 6595WAT     H227101   0.368   5.851   2.765  0.2612  0.3348  0.6465
 6595WAT    EPW27102   0.307   5.808   2.788  0.1079 -0.0844 -0.5026
 6596WAT      O27103   1.888   1.896   4.322 -0.8063  0.4198  0.0534
 6596WAT     H127104   1.957   1.862   4.362 -0.7454 -0.5655 -0.8395
 6596WAT     H227105   1.898   1.982   4.333 -0.5949  0.1957  1.7591
 6596WAT    EPW27106   1.900   1.904   4.329 -0.7661  0.2411  0.1734
 6597WAT      O27107   2.077   3.588   0.017 -0.2522 -0.7422  0.0612
 6597WAT     H127108   2.138   3.579  -0.044 -0.7793 -0.6791 -0.4869
 6597WAT     H227109   2.075   3.510   0.056 -0.5498 -1.0915 -0.6239
 6597WAT    EPW27110   2.085   3.575   0.014 -0.3740 -0.7845 -0.1210
 6598WAT      O27111   1.841   4.479   2.992 -0.7659 -0.2468 -0.5157
 6598WAT     H127112   1.912   4.517   2.959 -0.7490 -0.2904 -0.5298
 6598WAT     H227113   1.873   4.427   3.054 -0.7680 -0.3967 -0.6383
 6598WAT    EPW27114   1.856   4.477   2.996 -0.7637 -0.2754 -0.5359
 6599WAT      O27115   5.189   3.130   3.274 -0.1764 -0.6511  0.6211
 6599WAT     H127116   5.263   3.151   3.314  1.6017 -2.1086 -1.6540
 6599WAT     H227117   5.187   3.043   3.279 -0.6984 -0.7612 -1.0239
 6599WAT    EPW27118   5.199   3.120   3.281  0.0091 -0.8827  0.0420
 6600WAT      O27119   5.819   3.390   6.658  0.2374 -0.3371  0.0178
 6600WAT     H127120   5.772   3.344   6.715  1.6222 -0.6047  1.0039
 6600WAT     H227121   5.855   3.452   6.708 -0.2186  0.7651 -0.9796
 6600WAT    EPW27122   5.818   3.392   6.674  0.3746 -0.2138  0.0162
 6601WAT      O27123   5.497   0.366   6.551 -0.5538 -0.2407  0.3175
 6601WAT     H127124   5.536   0.338   6.624 -0.4214 -0.6684  0.0874
 6601WAT     H227125   5.559   0.414   6.512 -0.4519 -0.4355  0.2379
 6601WAT    EPW27126   5.512   0.369   6.556 -0.5192 -0.3327  0.2717
 6602WAT      O27127   1.222   4.094   5.170 -0.3885 -0.2532 -0.6815
 6602WAT     H127128   1.213   4.090   5.257 -0.6456 -0.0779 -0.6974
 6602WAT     H227129   1.224   4.011   5.146 -0.9073 -0.3072 -0.5617
 6602WAT    EPW27130   1.221   4.081   5.180 -0.5031 -0.2353 -0.6662
 6603WAT      O27131   3.264   3.957   7.192  0.2113  0.2646 -0.1526
 6603WAT     H127132   3.263   4.036   7.155  1.6247  0.1677 -0.4383
 6603WAT     H227133   3.267   3.903   7.124 -1.5145 -0.1096  0.0125
 6603WAT    EPW27134   3.264   3.961   7.177  0.1651  0.1950 -0.1704
 6604WAT      O27135   2.649   5.205   0.573 -0.6064 -0.0846 -0.3712
 6604WAT     H127136   2.672   5.160   0.645  0.4090  0.1739 -0.5220
 6604WAT     H227137   2.722   5.210   0.527 -0.5076  2.2053 -0.1100
 6604WAT    EPW27138   2.663   5.199   0.577 -0.4418  0.2918 -0.3549
 6605WAT      O27139   6.928   1.102   3.127  0.1400 -0.4295 -0.0368
 6605WAT     H127140   6.877   1.072   3.191 -0.7859  2.0841  0.5065
 6605WAT     H227141   7.005   1.115   3.166  0.4803 -1.6939 -0.2207
 6605WAT    EPW27142   6.932   1.100   3.142  0.0535 -0.2450  0.0163
 6606WAT      O27143   3.277   5.694   4.963 -0.3011  0.3536  0.2533
 6606WAT     H127144   3.337   5.642   4.929 -1.2351 -1.2215  0.9236
 6606WAT     H227145   3.225   5.640   5.007 -2.9949  1.4319 -1.3487
 6606WAT    EPW27146   3.278   5.678   4.965 -0.8370  0.2802  0.1157
 6607WAT      O27147   0.315   1.368   2.440  0.2383 -0.3937  0.3189
 6607WAT     H127148   0.264   1.315   2.394 -1.0529 -0.1981  1.4394
 6607WAT     H227149   0.383   1.382   2.388 -0.5145 -1.2455 -0.9525
 6607WAT    EPW27150   0.317   1.362   2.426 -0.0637 -0.4906  0.2966
 6608WAT      O27151   4.009   5.513   1.247 -0.0165  0.1330 -0.1663
 6608WAT     H127152   3.999   5.435   1.284 -0.4462  0.9397  1.5167
 6608WAT     H227153   4.096   5.522   1.241  0.0334 -0.8186 -1.2329
 6608WAT    EPW27154   4.021   5.503   1.251 -0.0726  0.1116 -0.0752
 6609WAT      O27155   5.277   2.190   4.394 -0.3250 -0.1834 -0.0480
 6609WAT     H127156   5.325   2.234   4.452  0.1823 -0.1618 -0.4705
 6609WAT     H227157   5.258   2.250   4.334  0.1554 -0.4712 -0.4977
 6609WAT    EPW27158   5.281   2.205   4.394 -0.1791 -0.2227 -0.1768
 6610WAT      O27159   5.487   4.957   7.362 -0.1456 -0.1527 -0.5801
 6610WAT     H127160   5.508   5.004   7.292  1.2760 -0.8729 -0.6669
 6610WAT     H227161   5.515   4.877   7.343  0.9956 -0.2021  1.1155
 6610WAT    EPW27162   5.494   4.952   7.349  0.2330 -0.2664 -0.3424
 6611WAT      O27163   2.174   0.213   2.362  0.2788 -0.4106  0.1810
 6611WAT     H127164   2.235   0.219   2.424  0.7768  1.1766 -0.3974
 6611WAT     H227165   2.115   0.160   2.397  0.6360  0.2599  1.9553
 6611WAT    EPW27166   2.174   0.206   2.377  0.4052 -0.0771  0.3576
 6612WAT      O27167   0.454   2.798   2.549  0.3535 -0.5606 -0.1529
 6612WAT     H127168   0.493   2.725   2.523  0.9000 -0.9569  1.6425
 6612WAT     H227169   0.476   2.805   2.633 -2.8616 -0.4581  0.8394
 6612WAT    EPW27170   0.463   2.788   2.557 -0.0407 -0.6040  0.2589
 6613WAT      O27171   2.553   6.100   6.097  0.0089  0.1120 -0.0693
 6613WAT     H127172   2.484   6.113   6.045 -0.5678  1.0683  0.8894
 6613WAT     H227173   2.584   6.181   6.110  0.4142 -0.1618  0.7021
 6613WAT    EPW27174   2.547   6.114   6.091 -0.0164  0.2128  0.1863
 6614WAT      O27175   5.667   4.180   3.954 -0.3188  0.1551 -0.1404
 6614WAT     H127176   5.745   4.174   3.990  0.0208 -1.9136 -1.1082
 6614WAT     H227177   5.673   4.131   3.882 -2.3866  0.2398 -0.4413
 6614WAT    EPW27178   5.679   4.172   3.948 -0.5741 -0.1380 -0.3278
 6615WAT      O27179   3.125   1.868   2.323 -0.1631  0.3294  0.2529
 6615WAT     H127180   3.109   1.826   2.249  0.0905 -0.2173  0.5001
 6615WAT     H227181   3.053   1.916   2.336  0.6928  2.2762 -1.5441
 6615WAT    EPW27182   3.112   1.869   2.314  0.0008  0.5362  0.0240
 6616WAT      O27183   7.257   4.667   4.253  0.9679  0.1235  0.5180
 6616WAT     H127184   7.220   4.687   4.329  2.7025  0.8402  1.2304
 6616WAT     H227185   7.248   4.581   4.248  1.1991  0.0058  1.7446
 6616WAT    EPW27186   7.250   4.657   4.263  1.2583  0.2120  0.8044
 6617WAT      O27187   2.021   2.775   4.741 -0.1219 -0.5668  0.2433
 6617WAT     H127188   2.096   2.812   4.716  0.0257 -2.1044 -1.9795
 6617WAT     H227189   1.960   2.828   4.708  0.0820 -1.4990 -1.8106
 6617WAT    EPW27190   2.023   2.788   4.732 -0.0700 -0.9317 -0.3884
 6618WAT      O27191   4.223   4.253   1.271  0.5041 -0.2808  0.4846
 6618WAT     H127192   4.219   4.267   1.357  0.4156 -0.5976  0.5356
 6618WAT     H227193   4.142   4.268   1.243  0.8125  1.0313  0.2565
 6618WAT    EPW27194   4.211   4.257   1.279  0.5366 -0.1337  0.4585
 6619WAT      O27195   1.306   2.290   4.492  0.1373  0.3746  0.4801
 6619WAT     H127196   1.240   2.333   4.530 -0.5529 -0.6043  0.4219
 6619WAT     H227197   1.371   2.299   4.550  0.2827  2.1328  0.1267
 6619WAT    EPW27198   1.306   2.298   4.506  0.0568  0.4897  0.4193
 6620WAT      O27199   3.279   5.881   7.274  0.4862 -0.0140 -0.4466
 6620WAT     H127200   3.206   5.929   7.276 -0.1813 -0.9634 -0.8798
 6620WAT     H227201   3.341   5.938   7.251 -0.0328  0.9092  0.3699
 6620WAT    EPW27202   3.277   5.896   7.271  0.3109 -0.0179 -0.3899
 6621WAT      O27203   0.233   5.759   4.859  0.4452  0.3447 -0.1970
 6621WAT     H127204   0.151   5.729   4.857  0.4233  0.4233 -0.5878
 6621WAT     H227205   0.278   5.699   4.815  0.5044  0.5754 -0.4544
 6621WAT    EPW27206   0.228   5.746   4.852  0.4507  0.3904 -0.2928
 6622WAT      O27207   5.147   4.518   7.269  0.1686  0.3499 -0.2770
 6622WAT     H127208   5.117   4.581   7.322  2.1607  1.9899 -0.9412
 6622WAT     H227209   5.104   4.533   7.194  1.7049  2.0312 -0.9123
 6622WAT    EPW27210   5.136   4.530   7.266  0.6898  0.8405 -0.4689
 6623WAT      O27211   3.460   3.739   1.791 -0.4390  0.6608 -0.1864
 6623WAT     H127212   3.546   3.753   1.781 -0.5647  1.2932 -0.4119
 6623WAT     H227213   3.457   3.681   1.856  0.1376  1.2091  0.3509
 6623WAT    EPW27214   3.473   3.733   1.799 -0.3724  0.8352 -0.1403
 6624WAT      O27215   5.210   5.870   4.685 -0.6196 -0.3906 -0.7847
 6624WAT     H127216   5.254   5.944   4.698 -0.1505 -0.4917 -1.7371
 6624WAT     H227217   5.144   5.876   4.741 -0.2821  0.4987 -0.4604
 6624WAT    EPW27218   5.207   5.882   4.695 -0.5004 -0.2741 -0.8775
 6625WAT      O27219   4.882   6.752   7.078  0.4441  0.2999 -0.0090
 6625WAT     H127220   4.854   6.817   7.128 -1.3733 -2.2256  2.6039
 6625WAT     H227221   4.969   6.755   7.087  0.2322 -0.0796  3.6671
 6625WAT    EPW27222   4.891   6.762   7.087  0.1444 -0.1293  0.9200
 6626WAT      O27223   2.280   0.255   1.427  0.2758 -0.0481  0.7826
 6626WAT     H127224   2.327   0.252   1.500  1.5646  2.0241  0.1385
 6626WAT     H227225   2.275   0.172   1.402  1.5448 -0.5841  2.1464
 6626WAT    EPW27226   2.286   0.243   1.434  0.6537  0.1788  0.8889
 6627WAT      O27227   4.329   6.118   5.079 -0.0764 -0.0010  0.0640
 6627WAT     H127228   4.405   6.078   5.067 -0.7239 -1.1792 -0.3178
 6627WAT     H227229   4.324   6.174   5.012  0.8310  0.7393  0.5920
 6627WAT    EPW27230   4.339   6.121   5.067 -0.0380 -0.0657  0.0856
 6628WAT      O27231   4.837   4.480   6.896 -0.0474  0.0821  0.6777
 6628WAT     H127232   4.846   4.473   6.810 -0.0200  3.9096  0.1712
 6628WAT     H227233   4.919   4.492   6.924 -0.2020  0.5775  0.9357
 6628WAT    EPW27234   4.850   4.481   6.887 -0.0662  0.7207  0.6410
 6629WAT      O27235   0.135   2.859   4.264 -0.1613  0.0896  0.0654
 6629WAT     H127236   0.212   2.819   4.272  0.2202  0.6854 -0.4730
 6629WAT     H227237   0.083   2.796   4.231  0.7498  0.3185 -2.0074
 6629WAT    EPW27238   0.139   2.844   4.260  0.0296  0.2114 -0.3203
 6630WAT      O27239   5.003   6.369   1.757  1.1437  0.3883  0.0996
 6630WAT     H127240   4.926   6.401   1.735  1.0763  0.5169  0.5112
 6630WAT     H227241   5.014   6.302   1.703  0.5485  0.1049  0.3240
 6630WAT    EPW27242   4.993   6.364   1.746  1.0458  0.3654  0.1935
 6631WAT      O27243   7.286   0.230   6.641  0.2707  0.7165  0.3607
 6631WAT     H127244   7.304   0.250   6.724  0.8510  0.8051  0.2181
 6631WAT     H227245   7.351   0.176   6.618 -0.8193 -0.6965  0.4820
 6631WAT    EPW27246   7.299   0.225   6.650  0.1954  0.5209  0.3575
 6632WAT      O27247   6.446   3.584   6.337  0.0152  0.3260 -0.3364
 6632WAT     H127248   6.500   3.527   6.299  0.2442 -0.2436  0.7743
 6632WAT     H227249   6.370   3.540   6.341 -0.3516  0.8643 -1.2735
 6632WAT    EPW27250   6.442   3.569   6.332 -0.0051  0.3214 -0.3107
 6633WAT      O27251   1.378   4.508   3.568 -0.2773 -0.2468  0.2572
 6633WAT     H127252   1.295   4.481   3.568 -0.2523 -0.3256  0.3814
 6633WAT     H227253   1.395   4.522   3.652  0.1652 -1.2581  0.3506
 6633WAT    EPW27254   1.368   4.506   3.580 -0.2083 -0.4078  0.2894
 6634WAT      O27255   5.324   6.205   5.996  0.0305  0.2670  0.5552
 6634WAT     H127256   5.296   6.123   5.988 -1.8501  0.8084  0.9659
 6634WAT     H227257   5.257   6.246   6.035  1.1419  1.8747  0.9079
 6634WAT    EPW27258   5.310   6.199   6.001 -0.0831  0.5845  0.6680
 6635WAT      O27259   4.831   6.032   3.362  0.0073 -0.1069 -0.1056
 6635WAT     H127260   4.871   6.091   3.311  0.7897 -1.2850 -0.9251
 6635WAT     H227261   4.852   5.956   3.325 -2.3148 -0.8527 -0.0625
 6635WAT    EPW27262   4.840   6.029   3.349 -0.2201 -0.3911 -0.2203
 6636WAT      O27263   2.290   6.569   3.713 -0.2946 -0.2278 -0.7969
 6636WAT     H127264   2.256   6.595   3.789 -0.9879 -2.8555 -0.1137
 6636WAT     H227265   2.347   6.508   3.735 -0.2080 -0.7770 -2.3683
 6636WAT    EPW27266   2.293   6.564   3.727 -0.3843 -0.6971 -0.9281
 6637WAT      O27267   4.642   7.037   6.682  0.5038  0.1029 -0.3564
 6637WAT     H127268   4.579   6.977   6.678  0.5137  0.1195 -0.7647
 6637WAT     H227269   4.715   6.990   6.675  0.5188  0.1421 -0.4592
 6637WAT    EPW27270   4.643   7.021   6.680  0.5075  0.1112 -0.4319
 6638WAT      O27271   2.684   3.652   1.287 -0.2858 -0.7954 -0.0009
 6638WAT     H127272   2.647   3.577   1.311  0.1716 -1.6631 -1.8375
 6638WAT     H227273   2.751   3.627   1.238 -0.7326  0.8261 -1.5380
 6638WAT    EPW27274   2.689   3.637   1.284 -0.2843 -0.6841 -0.4993
 6639WAT      O27275   4.895   3.592   0.592  0.8148  0.4319 -0.4748
 6639WAT     H127276   4.878   3.519   0.548  1.0671 -0.3584  0.6947
 6639WAT     H227277   4.932   3.644   0.533  2.4998 -1.1275 -0.8597
 6639WAT    EPW27278   4.898   3.589   0.577  1.1010  0.0848 -0.3589
 6640WAT      O27279   5.301   3.784   3.843  0.1118 -0.3487 -0.1790
 6640WAT     H127280   5.266   3.851   3.886 -0.9506 -1.6192  1.0530
 6640WAT     H227281   5.234   3.751   3.799  0.4588 -0.9679 -0.2546
 6640WAT    EPW27282   5.286   3.789   3.843  0.0061 -0.6279 -0.0082
 6641WAT      O27283   2.174   7.075   2.617 -0.0646  0.3515 -0.1727
 6641WAT     H127284   2.213   7.007   2.655  4.5416  2.0285 -1.2040
 6641WAT     H227285   2.157   7.047   2.537 -2.4746 -0.8235  0.6775
 6641WAT    EPW27286   2.177   7.061   2.611  0.2598  0.4257 -0.1994
 6642WAT      O27287   4.647   2.134   7.273 -0.4264  0.3569  0.1533
 6642WAT     H127288   4.600   2.207   7.264 -0.1817  0.6760  1.2679
 6642WAT     H227289   4.728   2.160   7.255 -0.4614  0.1526 -0.3080
 6642WAT    EPW27290   4.652   2.149   7.269 -0.3954  0.3739  0.2498
 6643WAT      O27291   6.688   4.145   2.509  0.4894  0.4009  0.3689
 6643WAT     H127292   6.665   4.196   2.442  0.8718 -1.8111 -1.5840
 6643WAT     H227293   6.751   4.095   2.476 -0.5951 -2.0857  1.7385
 6643WAT    EPW27294   6.694   4.145   2.494  0.3857 -0.2932  0.2827
 6644WAT      O27295   6.763   6.693   5.340 -0.3192 -0.6486  0.2946
 6644WAT     H127296   6.732   6.672   5.419  0.0884  1.7559  1.1959
 6644WAT     H227297   6.840   6.653   5.337 -0.9823 -2.0029  0.4434
 6644WAT    EPW27298   6.770   6.684   5.351 -0.3569 -0.4935  0.4497
 6645WAT      O27299   3.969   0.632   1.267 -0.1842  0.0743  0.4125
 6645WAT     H127300   3.987   0.716   1.251 -1.2358 -0.0509 -1.8591
 6645WAT     H227301   4.044   0.600   1.299  0.6825  1.5436 -0.0626
 6645WAT    EPW27302   3.983   0.640   1.270 -0.2115  0.2728  0.0068
 6646WAT      O27303   4.368   5.044   6.351  0.1774  0.0173 -0.4483
 6646WAT     H127304   4.281   5.038   6.359  0.1787  0.7582  0.1345
 6646WAT     H227305   4.398   5.012   6.426  0.4279 -0.4138 -0.7231
 6646WAT    EPW27306   4.360   5.038   6.363  0.2146  0.0631 -0.4028
 6647WAT      O27307   1.378   4.653   6.613 -0.1897 -0.0645  0.3121
 6647WAT     H127308   1.360   4.696   6.687  0.8487 -0.1559  0.6378
 6647WAT     H227309   1.358   4.571   6.631 -0.7073  0.0315  0.2061
 6647WAT    EPW27310   1.373   4.648   6.626 -0.1128 -0.0638  0.3445
 6648WAT      O27311   1.180   0.221   2.169 -0.2717  0.3501 -0.4045
 6648WAT     H127312   1.236   0.274   2.210 -0.0335  0.1932 -0.5262
 6648WAT     H227313   1.108   0.225   2.219  0.3234 -0.5790  0.5869
 6648WAT    EPW27314   1.177   0.230   2.182 -0.1486  0.1896 -0.2760
 6649WAT      O27315   3.991   2.696   5.561 -0.1020 -0.1222  0.5723
 6649WAT     H127316   3.964   2.659   5.486 -2.6511  1.5956  0.5200
 6649WAT     H227317   4.070   2.728   5.540  1.0841 -3.0674 -0.0948
 6649WAT    EPW27318   3.999   2.695   5.547 -0.3033 -0.3035  0.4661
 6650WAT      O27319   1.522   6.508   5.803 -0.5939  0.9808  0.5226
 6650WAT     H127320   1.519   6.593   5.788 -0.7792  1.4165  2.7039
 6650WAT     H227321   1.444   6.490   5.839  0.2547  0.4138  2.2324
 6650WAT    EPW27322   1.510   6.518   5.806 -0.4959  0.9614  1.0974
 6651WAT      O27323   6.953   6.630   4.713 -0.4057 -0.0618  0.2650
 6651WAT     H127324   7.002   6.562   4.740 -0.8619 -1.1078 -1.4073
 6651WAT     H227325   7.012   6.691   4.695  0.1935 -0.7791 -0.2868
 6651WAT    EPW27326   6.969   6.629   4.714 -0.3846 -0.3223 -0.0636
 6652WAT      O27327   0.555   1.723   6.363  0.6751  0.0045 -0.0278
 6652WAT     H127328   0.620   1.756   6.413  0.5729  0.2757 -0.0712
 6652WAT     H227329   0.555   1.638   6.383  0.6309  0.1114  0.4454
 6652WAT    EPW27330   0.565   1.716   6.374  0.6535  0.0604  0.0357
 6653WAT      O27331   4.915   0.651   5.242 -0.3773 -0.4911 -0.0278
 6653WAT     H127332   4.908   0.619   5.161  0.3846  0.0046 -0.3022
 6653WAT     H227333   4.897   0.583   5.293 -2.3082 -0.4628 -0.6132
 6653WAT    EPW27334   4.912   0.636   5.237 -0.5499 -0.4137 -0.1548
 6654WAT      O27335   3.670   0.879   5.368  0.2706 -0.1028 -0.4962
 6654WAT     H127336   3.724   0.821   5.331 -0.3421 -0.4995 -0.7874
 6654WAT     H227337   3.641   0.925   5.301 -0.7879 -0.7759 -0.5262
 6654WAT    EPW27338   3.674   0.877   5.353  0.0237 -0.2608 -0.5436
 6655WAT      O27339   2.344   1.313   1.060 -0.1467 -0.2872  0.2722
 6655WAT     H127340   2.371   1.294   1.141 -1.0517 -0.2029  0.6068
 6655WAT     H227341   2.307   1.391   1.069  2.0780  0.9815 -0.7716
 6655WAT    EPW27342   2.342   1.322   1.074  0.0482 -0.0873  0.1674
 6656WAT      O27343   0.663   3.995   4.947  0.0149 -0.0487 -0.1111
 6656WAT     H127344   0.724   3.971   4.889 -0.8673  0.1735 -1.1491
 6656WAT     H227345   0.668   3.933   5.008  0.6617 -0.5376 -0.6407
 6656WAT    EPW27346   0.673   3.982   4.947 -0.0199 -0.0881 -0.3427
 6657WAT      O27347   4.569   6.087   6.526 -0.5690 -0.3007 -0.0315
 6657WAT     H127348   4.557   6.126   6.603  1.8144 -2.9296  1.8552
 6657WAT     H227349   4.631   6.134   6.488 -0.1798 -0.2384  0.6665
 6657WAT    EPW27350   4.576   6.100   6.532 -0.1594 -0.6798  0.3503
 6658WAT      O27351   3.200   5.673   5.954  0.2789  0.0051  0.2021
 6658WAT     H127352   3.166   5.629   5.886  1.0775 -3.0832  1.5929
 6658WAT     H227353   3.140   5.733   5.973 -1.1305 -0.7410 -1.6237
 6658WAT    EPW27354   3.186   5.675   5.947  0.1887 -0.5613  0.1378
 6659WAT      O27355   3.605   5.337   0.667  0.1443  0.3452  0.2291
 6659WAT     H127356   3.685   5.349   0.635  0.8305 -0.8681  1.4253
 6659WAT     H227357   3.606   5.255   0.695 -0.7527  0.9825  2.3544
 6659WAT    EPW27358   3.617   5.327   0.666  0.1132  0.2601  0.7197
 6660WAT      O27359   2.502   2.941   4.066 -0.2210 -0.2573  0.6453
 6660WAT     H127360   2.570   2.997   4.062  0.6063 -1.2061  0.9442
 6660WAT     H227361   2.520   2.893   4.137 -2.2344  0.7324  1.9088
 6660WAT    EPW27362   2.515   2.942   4.076 -0.3962 -0.2513  0.8761
 6661WAT      O27363   4.658   3.605   0.351 -0.2257 -0.4870  0.1164
 6661WAT     H127364   4.571   3.616   0.352 -0.3391 -1.2278  2.1709
 6661WAT     H227365   4.689   3.682   0.378 -0.3166 -0.6437  0.6734
 6661WAT    EPW27366   4.650   3.618   0.355 -0.2559 -0.6195  0.5022
 6662WAT      O27367   1.735   5.143   6.072  0.1787  0.0535 -0.5059
 6662WAT     H127368   1.651   5.122   6.059 -0.3626  2.1903 -0.9065
 6662WAT     H227369   1.777   5.094   6.014 -1.0333  0.4318 -1.7669
 6662WAT    EPW27370   1.729   5.133   6.061 -0.0803  0.4251 -0.7514
 6663WAT      O27371   4.881   2.408   5.998 -0.5326 -0.8627  0.6575
 6663WAT     H127372   4.828   2.340   6.011 -1.6437 -0.1418  0.0664
 6663WAT     H227373   4.890   2.442   6.078  0.2952 -1.8585  1.0127
 6663WAT    EPW27374   4.874   2.403   6.012 -0.5744 -0.9033  0.6227
 6664WAT      O27375   0.773   5.863   1.058 -0.5189 -0.2319 -0.1652
 6664WAT     H127376   0.778   5.949   1.046 -0.1863 -0.1754  0.3491
 6664WAT     H227377   0.835   5.847   1.118 -0.1874 -0.9071 -0.6803
 6664WAT    EPW27378   0.783   5.873   1.065 -0.4208 -0.3233 -0.1653
 6665WAT      O27379   3.725   6.911   6.730 -1.0564  0.0291 -0.2614
 6665WAT     H127380   3.695   6.988   6.756  1.0922  0.5557  0.9607
 6665WAT     H227381   3.675   6.854   6.773 -1.4459  0.7971  0.3250
 6665WAT    EPW27382   3.713   6.914   6.740 -0.7965  0.2203  0.0058
 6666WAT      O27383   0.895   1.184   4.968  0.5656  0.6060  0.2001
 6666WAT     H127384   0.948   1.115   4.973  2.2428  1.7450 -0.7345
 6666WAT     H227385   0.933   1.235   4.908 -1.5303  1.5739 -0.3932
 6666WAT    EPW27386   0.908   1.182   4.960  0.5038  0.9173 -0.0256
 6667WAT      O27387   4.046   5.760   5.513 -0.0652  0.5504 -0.0720
 6667WAT     H127388   4.086   5.802   5.578  0.2440  0.2276 -0.0561
 6667WAT     H227389   3.998   5.700   5.553  0.4947  0.0350 -0.1630
 6667WAT    EPW27390   4.045   5.758   5.528  0.0632  0.4266 -0.0831
 6668WAT      O27391   5.929   4.257   6.616  0.3401 -0.6441  0.0187
 6668WAT     H127392   6.014   4.255   6.636  0.0061 -1.1117  1.5873
 6668WAT     H227393   5.902   4.332   6.653  0.3562  0.3747 -1.9232
 6668WAT    EPW27394   5.938   4.268   6.625  0.2931 -0.5627 -0.0364
 6669WAT      O27395   0.616   1.143   4.878 -0.1560 -1.1065 -0.1138
 6669WAT     H127396   0.669   1.153   4.947 -1.6469  0.1458  0.9132
 6669WAT     H227397   0.671   1.124   4.813  1.4206 -1.1464  1.1621
 6669WAT    EPW27398   0.632   1.141   4.879 -0.1434 -0.9274  0.2264
 6670WAT      O27399   6.061   2.413   5.427 -0.2615  0.0741 -0.4980
 6670WAT     H127400   6.108   2.456   5.487  0.2872 -1.6765  0.4022
 6670WAT     H227401   5.990   2.462   5.418  0.1687  0.9919  0.7366
 6670WAT    EPW27402   6.058   2.427   5.435 -0.1169 -0.0489 -0.1826
 6671WAT      O27403   5.656   5.287   0.226 -0.6081 -0.7985  0.3285
 6671WAT     H127404   5.591   5.346   0.225 -0.3512 -0.5117 -0.7679
 6671WAT     H227405   5.615   5.211   0.217 -0.8436 -0.6797  0.3816
 6671WAT    EPW27406   5.640   5.285   0.225 -0.6050 -0.7386  0.1744
 6672WAT      O27407   4.705   3.781   4.472  0.4011  0.5062  0.3320
 6672WAT     H127408   4.660   3.759   4.400 -0.0081  2.6147 -0.1160
 6672WAT     H227409   4.786   3.757   4.453  0.1795  0.4147 -0.5787
 6672WAT    EPW27410   4.710   3.774   4.458  0.3079  0.8042  0.1313
 6673WAT      O27411   0.538   2.310   0.008  1.0565 -0.2896 -0.1065
 6673WAT     H127412   0.520   2.233  -0.029  0.2290 -0.9753  1.6009
 6673WAT     H227413   0.534   2.293   0.094  2.3012  1.3398  0.3325
 6673WAT    EPW27414   0.534   2.296   0.015  1.1181 -0.1502  0.2106
 6674WAT      O27415   5.779   5.280   2.078  0.0324 -0.6267 -0.3629
 6674WAT     H127416   5.729   5.209   2.069 -0.0607 -0.8479  1.6139
 6674WAT     H227417   5.731   5.333   2.127  0.2685  0.6749 -1.4820
 6674WAT    EPW27418   5.764   5.277   2.084  0.0535 -0.4671 -0.2362
 6675WAT      O27419   3.266   3.117   0.988  0.3067  0.0924 -0.0775
 6675WAT     H127420   3.258   3.107   1.074 -0.1307 -1.1497 -0.2323
 6675WAT     H227421   3.222   3.190   0.971 -0.4019 -0.1505  0.6516
 6675WAT    EPW27422   3.258   3.126   0.998  0.1374 -0.1270  0.0074
 6676WAT      O27423   5.746   4.953   4.380 -0.1120 -0.7596  0.4241
 6676WAT     H127424   5.802   4.895   4.347  0.0956  0.0763 -0.7224
 6676WAT     H227425   5.748   5.019   4.324 -0.5095  0.2881  1.5963
 6676WAT    EPW27426   5.754   4.954   4.367 -0.1400 -0.4814  0.4279
 6677WAT      O27427   0.329   6.833   2.692 -0.6897 -0.7065  0.1071
 6677WAT     H127428   0.415   6.824   2.704 -0.3988  0.6763 -0.6522
 6677WAT     H227429   0.296   6.818   2.771  0.3841  0.0597  0.7332
 6677WAT    EPW27430   0.337   6.830   2.706 -0.4881 -0.3890  0.0874
 6678WAT      O27431   0.598   5.371   6.994  0.2220  0.3244  0.2525
 6678WAT     H127432   0.665   5.316   6.986  0.4603  0.6635 -0.1318
 6678WAT     H227433   0.633   5.441   7.033  0.7170  1.5059 -2.0590
 6678WAT    EPW27434   0.613   5.373   6.998  0.3304  0.5490 -0.1458
 6679WAT      O27435   5.851   4.283   5.142 -0.5269 -0.1419 -0.1965
 6679WAT     H127436   5.925   4.250   5.175 -1.2463 -1.9023 -0.2263
 6679WAT     H227437   5.805   4.304   5.213  0.0597  1.1501 -0.1797
 6679WAT    EPW27438   5.855   4.281   5.158 -0.5465 -0.2111 -0.1984
 6680WAT      O27439   0.758   7.127   6.861 -0.0892  0.0724 -1.0135
 6680WAT     H127440   0.752   7.098   6.943 -2.5556  2.0471 -0.3633
 6680WAT     H227441   0.843   7.145   6.851  0.6507 -2.2882  0.2618
 6680WAT    EPW27442   0.770   7.126   6.871 -0.3442  0.0154 -0.7291
 6681WAT      O27443   5.619   4.284   7.063 -0.1384 -0.0569 -0.2957
 6681WAT     H127444   5.671   4.237   7.011  1.3617  0.2229  0.8743
 6681WAT     H227445   5.662   4.286   7.138 -1.3461  1.1409  0.4081
 6681WAT    EPW27446   5.633   4.278   7.066 -0.0952  0.1614 -0.0189
 6682WAT      O27447   1.813   3.827   6.745 -0.3238 -0.1684  0.0987
 6682WAT     H127448   1.765   3.759   6.769 -0.2574 -0.1150  0.3883
 6682WAT     H227449   1.805   3.883   6.812 -1.6008  0.7569 -0.7881
 6682WAT    EPW27450   1.805   3.825   6.759 -0.5026 -0.0238  0.0105
 6683WAT      O27451   3.622   4.161   5.302 -0.0719 -0.1637 -0.4944
 6683WAT     H127452   3.637   4.182   5.386 -0.1647 -0.0512 -0.5052
 6683WAT     H227453   3.658   4.228   5.259  1.4901 -1.0328 -0.6175
 6683WAT    EPW27454   3.630   4.174   5.308  0.1451 -0.2755 -0.5142
 6684WAT      O27455   3.981   0.611   3.091  0.5130 -0.2586  1.1534
 6684WAT     H127456   4.066   0.608   3.109  0.9134 -1.4803 -0.6623
 6684WAT     H227457   3.978   0.644   3.011 -0.5010 -2.3831  0.2375
 6684WAT    EPW27458   3.993   0.615   3.082  0.4223 -0.7529  0.7499
 6685WAT      O27459   2.656   1.369   6.475 -0.0349  0.2136 -0.6054
 6685WAT     H127460   2.570   1.365   6.457 -0.2889  2.0055  0.0641
 6685WAT     H227461   2.659   1.382   6.561  1.0558 -3.0839 -0.0021
 6685WAT    EPW27462   2.643   1.370   6.485  0.0887 -0.0088 -0.4173
 6686WAT      O27463   6.777   0.296   5.219 -0.2304  0.5502 -0.1187
 6686WAT     H127464   6.786   0.223   5.266 -1.8746  0.7966  0.6849
 6686WAT     H227465   6.857   0.329   5.215  0.3601 -0.7659  0.4028
 6686WAT    EPW27466   6.790   0.290   5.226 -0.3860  0.3922  0.0770
 6687WAT      O27467   1.690   3.587   1.378  0.4006  0.7667  1.1044
 6687WAT     H127468   1.684   3.553   1.298  0.1120  3.5469 -0.1737
 6687WAT     H227469   1.635   3.538   1.426 -0.9493  0.2414 -0.8696
 6687WAT    EPW27470   1.681   3.575   1.374  0.1585  1.0998  0.6240
 6688WAT      O27471   3.194   4.324   3.336  0.0635  0.3156  0.3621
 6688WAT     H127472   3.222   4.243   3.318  1.4898  0.0998  3.1241
 6688WAT     H227473   3.266   4.373   3.330 -0.2153  0.8818  1.4172
 6688WAT    EPW27474   3.209   4.319   3.332  0.2330  0.3673  0.9259
 6689WAT      O27475   6.876   1.678   3.068  0.0073 -0.2039 -0.1647
 6689WAT     H127476   6.954   1.649   3.043  0.2200  0.4254 -0.2448
 6689WAT     H227477   6.893   1.727   3.138 -0.1581  0.9490 -0.9163
 6689WAT    EPW27478   6.890   1.681   3.075  0.0143  0.0593 -0.2876
 6690WAT      O27479   3.995   3.175   0.140 -0.3857 -0.0847 -0.0268
 6690WAT     H127480   3.994   3.140   0.219  0.8922 -1.2744 -0.4897
 6690WAT     H227481   4.052   3.125   0.096 -0.3926  1.0711 -1.4396
 6690WAT    EPW27482   4.003   3.163   0.145 -0.1980 -0.0897 -0.3039
 6691WAT      O27483   7.284   0.609   1.628 -0.2133 -0.3765  0.6814
 6691WAT     H127484   7.321   0.642   1.700 -1.1389 -1.2547  1.5880
 6691WAT     H227485   7.281   0.678   1.573  1.3515  0.0790  1.1085
 6691WAT    EPW27486   7.289   0.624   1.630 -0.1189 -0.4390  0.8784
 6692WAT      O27487   4.886   5.503   1.278  0.0900 -0.3049  0.2116
 6692WAT     H127488   4.855   5.422   1.288 -0.2476 -0.0890  1.0336
 6692WAT     H227489   4.958   5.504   1.327 -0.1107  0.0022  0.5010
 6692WAT    EPW27490   4.892   5.491   1.287  0.0105 -0.2277  0.3758
 6693WAT      O27491   3.625   6.352   1.000 -0.3130 -0.4178 -0.4312
 6693WAT     H127492   3.616   6.389   0.922 -0.7108 -1.1634 -0.7519
 6693WAT     H227493   3.684   6.289   0.986 -0.2943 -0.4761 -0.1044
 6693WAT    EPW27494   3.633   6.348   0.986 -0.3690 -0.5366 -0.4303
 6694WAT      O27495   1.719   1.142   6.226 -0.1196 -0.1348 -0.2359
 6694WAT     H127496   1.678   1.194   6.284 -0.0482 -0.8573  0.4843
 6694WAT     H227497   1.776   1.098   6.275  0.0044 -0.7007 -0.8731
 6694WAT    EPW27498   1.721   1.143   6.242 -0.0908 -0.3251 -0.2236
 6695WAT      O27499   6.635   4.309   3.934 -0.2448  0.2606  0.1017
 6695WAT     H127500   6.629   4.225   3.915 -1.2043 -0.0639  1.6464
 6695WAT     H227501   6.576   4.346   3.882 -1.3929 -0.3324  0.9412
 6695WAT    EPW27502   6.625   4.302   3.923 -0.5561  0.1251  0.4539
 6696WAT      O27503   1.065   0.615   1.801 -0.8035 -0.0375 -0.2394
 6696WAT     H127504   1.045   0.531   1.788  0.1639 -0.3335  0.0887
 6696WAT     H227505   1.065   0.649   1.721  0.6440 -0.7954 -0.5947
 6696WAT    EPW27506   1.062   0.607   1.787 -0.4468 -0.1932 -0.2434
 6697WAT      O27507   2.508   2.840   4.624 -0.1759  0.5121  0.6056
 6697WAT     H127508   2.480   2.758   4.617 -1.1478  0.9052 -0.5351
 6697WAT     H227509   2.511   2.868   4.541 -0.5639  1.8354  1.0060
 6697WAT    EPW27510   2.504   2.832   4.610 -0.3768  0.7657  0.4963
 6698WAT      O27511   6.495   1.357   4.272 -0.3838 -0.0307 -0.4366
 6698WAT     H127512   6.504   1.295   4.212 -0.6714  0.1126 -0.6346
 6698WAT     H227513   6.495   1.431   4.226  0.3238  0.1478 -0.1688
 6698WAT    EPW27514   6.496   1.359   4.257 -0.3217  0.0168 -0.4263
 6699WAT      O27515   3.813   2.859   0.630 -0.5236  0.7018 -0.3223
 6699WAT     H127516   3.785   2.901   0.559 -0.0472  1.8507  0.1489
 6699WAT     H227517   3.837   2.923   0.684  0.4176 -0.1846  0.3494
 6699WAT    EPW27518   3.812   2.874   0.627 -0.3142  0.7406 -0.1535
 6700WAT      O27519   5.300   5.605   5.794 -0.1620  0.6039  0.1317
 6700WAT     H127520   5.367   5.617   5.740  0.9568 -2.0161  0.7321
 6700WAT     H227521   5.286   5.519   5.789 -1.6280  0.6635  2.1261
 6700WAT    EPW27522   5.308   5.594   5.786 -0.2133  0.2257  0.5150
 6701WAT      O27523   6.536   5.481   1.797  0.1406 -0.3235  0.1690
 6701WAT     H127524   6.600   5.432   1.763  0.8966 -0.2167  1.4051
 6701WAT     H227525   6.470   5.469   1.740  1.3573 -0.0952 -1.3568
 6701WAT    EPW27526   6.536   5.472   1.783  0.4320 -0.2740  0.1262
 6702WAT      O27527   2.513   2.012   3.776  0.0173 -0.0962 -0.2218
 6702WAT     H127528   2.527   1.959   3.709  0.0518 -0.0456 -0.2541
 6702WAT     H227529   2.590   2.051   3.790  0.3188 -0.9286  0.5674
 6702WAT    EPW27530   2.526   2.010   3.768  0.0669 -0.2117 -0.1100
 6703WAT      O27531   4.264   0.215   1.937  0.0752 -0.3251  0.0603
 6703WAT     H127532   4.195   0.267   1.925  0.0517 -0.1001  1.0494
 6703WAT     H227533   4.235   0.136   1.913 -0.6894 -0.3163  0.9089
 6703WAT    EPW27534   4.249   0.211   1.932 -0.0412 -0.2906  0.3318
 6704WAT      O27535   7.236   6.262   2.511 -0.1576 -0.2063 -0.2041
 6704WAT     H127536   7.210   6.341   2.538  0.7962  0.6195 -1.5701
 6704WAT     H227537   7.320   6.274   2.490  0.0804 -1.6541 -0.1992
 6704WAT    EPW27538   7.245   6.276   2.512  0.0185 -0.2982 -0.4052
 6705WAT      O27539   6.736   3.585   5.498  0.0025 -0.2753  0.3706
 6705WAT     H127540   6.787   3.514   5.501  0.8004  0.1711 -1.2251
 6705WAT     H227541   6.682   3.568   5.432 -0.6901  0.0474  0.8512
 6705WAT    EPW27542   6.736   3.572   5.488  0.0180 -0.1617  0.2059
 6706WAT      O27543   2.143   2.891   0.090 -0.3442 -0.5901  0.4516
 6706WAT     H127544   2.223   2.896   0.123 -0.1359  0.8312 -0.1872
 6706WAT     H227545   2.138   2.810   0.059  1.2908 -0.3349 -0.5713
 6706WAT    EPW27546   2.154   2.880   0.090 -0.0719 -0.3425  0.2062
 6707WAT      O27547   6.635   0.365   0.306 -0.1303 -0.0981  0.7084
 6707WAT     H127548   6.693   0.414   0.263 -2.2986  0.1981 -2.1562
 6707WAT     H227549   6.683   0.297   0.334  1.6473  0.1645 -1.4224
 6707WAT    EPW27550   6.651   0.362   0.304 -0.1880 -0.0155 -0.0296
 6708WAT      O27551   6.475   6.980   6.999  0.2176  0.2244  0.6844
 6708WAT     H127552   6.422   6.994   7.066 -0.4354  0.0965  0.2058
 6708WAT     H227553   6.421   6.954   6.935  0.7385  0.9973 -0.0922
 6708WAT    EPW27554   6.459   6.978   6.999  0.1981  0.3197  0.4990
 6709WAT      O27555   2.649   5.957   3.830 -0.4866 -0.4055 -0.2091
 6709WAT     H127556   2.618   5.892   3.780 -1.2393 -0.0289 -0.2436
 6709WAT     H227557   2.721   5.922   3.866 -0.5740 -1.0704 -0.6554
 6709WAT    EPW27558   2.655   5.942   3.828 -0.6107 -0.4481 -0.2801
 6710WAT      O27559   0.049   3.678   0.306  0.4513  0.5313  0.0539
 6710WAT     H127560  -0.010   3.723   0.352  0.2890  1.8980 -1.3820
 6710WAT     H227561   0.111   3.737   0.290 -0.6953  1.0320 -3.6031
 6710WAT    EPW27562   0.049   3.694   0.310  0.2580  0.8072 -0.6984
 6711WAT      O27563   3.504   0.363   6.898 -0.3792 -0.2220 -0.4191
 6711WAT     H127564   3.542   0.292   6.931 -0.5431  0.1117  0.4992
 6711WAT     H227565   3.571   0.412   6.871 -0.2832 -0.9443 -1.5473
 6711WAT    EPW27566   3.519   0.360   6.899 -0.3892 -0.2794 -0.4501
 6712WAT      O27567   6.570   6.085   3.286 -0.3189  0.0233 -0.3995
 6712WAT     H127568   6.537   6.157   3.323  2.7145  1.0316  0.5614
 6712WAT     H227569   6.578   6.029   3.353  0.7539  0.1399 -0.4184
 6712WAT    EPW27570   6.566   6.087   3.301  0.2877  0.1894 -0.2603
 6713WAT      O27571   2.489   1.426   5.065 -0.2861  0.2316  0.3943
 6713WAT     H127572   2.454   1.466   5.134 -2.3290  0.0639 -0.4806
 6713WAT     H227573   2.472   1.342   5.079 -1.9945  0.3008 -0.9128
 6713WAT    EPW27574   2.481   1.420   5.077 -0.8402  0.2171  0.0720
 6714WAT      O27575   6.070   3.044   0.902 -0.7573  0.2055 -0.2786
 6714WAT     H127576   5.995   3.063   0.859 -2.6619  1.3474  3.1621
 6714WAT     H227577   6.070   2.957   0.905 -2.3137  0.1719  0.0836
 6714WAT    EPW27578   6.059   3.034   0.896 -1.2685  0.3692  0.2832
 6715WAT      O27579   6.513   5.192   0.628  0.5820  0.1548 -0.3637
 6715WAT     H127580   6.480   5.117   0.656  1.2765 -0.0580 -0.0952
 6715WAT     H227581   6.519   5.182   0.541  0.8596 -0.1743 -0.3066
 6715WAT    EPW27582   6.509   5.180   0.619  0.7256  0.0747 -0.3156
 6716WAT      O27583   5.115   0.391   1.644 -0.1113  0.2753  0.1636
 6716WAT     H127584   5.196   0.367   1.666  0.5194  2.1973  0.1205
 6716WAT     H227585   5.080   0.418   1.720 -1.8182 -3.1571  0.8070
 6716WAT    EPW27586   5.122   0.392   1.659 -0.2703  0.0522  0.2523
 6717WAT      O27587   3.388   2.126   1.445 -0.1556  0.2989  0.0811
 6717WAT     H127588   3.360   2.114   1.527  1.3989  0.0281  0.6226
 6717WAT     H227589   3.387   2.045   1.411 -0.0925  0.2979  0.0813
 6717WAT    EPW27590   3.384   2.112   1.452  0.0834  0.2588  0.1611
 6718WAT      O27591   4.798   5.307   1.820 -0.0315  0.2587  0.1769
 6718WAT     H127592   4.759   5.366   1.770  1.3213  0.4907 -0.6486
 6718WAT     H227593   4.733   5.274   1.868 -0.6985  3.1221  1.4148
 6718WAT    EPW27594   4.782   5.311   1.820  0.0698  0.7160  0.2378
 6719WAT      O27595   2.872   0.696   5.713  0.0342  0.1634  0.1143
 6719WAT     H127596   2.931   0.709   5.650  1.8762  1.3867  1.9164
 6719WAT     H227597   2.909   0.735   5.782 -1.6695 -1.4336  2.0477
 6719WAT    EPW27598   2.886   0.704   5.714  0.0547  0.1082  0.6661
 6720WAT      O27599   5.087   3.686   3.688 -0.7168  0.6431  0.1505
 6720WAT     H127600   5.015   3.653   3.725 -1.2471  1.1470 -0.4192
 6720WAT     H227601   5.060   3.761   3.654  0.1443  0.9525  0.1406
 6720WAT    EPW27602   5.072   3.692   3.689 -0.6679  0.7633  0.0649
 6721WAT      O27603   7.121   6.019   4.418 -0.6460  0.1905  0.3537
 6721WAT     H127604   7.097   6.103   4.418 -1.4054 -0.0154  0.8258
 6721WAT     H227605   7.157   6.007   4.340  1.7143  1.5734  1.1298
 6721WAT    EPW27606   7.123   6.029   4.407 -0.4095  0.3644  0.5381
 6722WAT      O27607   2.230   6.761   5.545  0.1089 -0.1489  0.2618
 6722WAT     H127608   2.283   6.710   5.592 -1.2467 -0.1908  1.8440
 6722WAT     H227609   2.263   6.841   5.557  0.8602 -0.3734 -0.2719
 6722WAT    EPW27610   2.243   6.765   5.554  0.0196 -0.1882  0.4167
 6723WAT      O27611   6.583   5.681   2.516  0.3055  0.1474 -0.1480
 6723WAT     H127612   6.571   5.696   2.431 -3.7338  2.0483  0.5156
 6723WAT     H227613   6.635   5.747   2.541 -1.6934  1.9902 -0.5818
 6723WAT    EPW27614   6.589   5.693   2.507 -0.5865  0.7004 -0.1141
 6724WAT      O27615   1.961   2.726   5.169 -0.1587  0.4088 -0.1284
 6724WAT     H127616   1.998   2.804   5.155  3.2281 -0.9669  0.3303
 6724WAT     H227617   2.012   2.671   5.125 -2.3520 -1.6376 -0.2846
 6724WAT    EPW27618   1.974   2.730   5.160  0.0176 -0.0967 -0.0837
 6725WAT      O27619   6.064   5.150   4.988 -0.4665  0.6467  0.2912
 6725WAT     H127620   6.066   5.162   5.075 -0.7092  1.1796  0.2265
 6725WAT     H227621   6.119   5.211   4.958  1.8833 -1.3731  0.2413
 6725WAT    EPW27622   6.072   5.161   4.997 -0.1552  0.4271  0.2742
 6726WAT      O27623   3.862   2.214   0.558 -0.2803  0.2212 -0.1747
 6726WAT     H127624   3.814   2.286   0.569 -0.8249 -0.2067  0.3078
 6726WAT     H227625   3.922   2.238   0.499 -1.1830  0.7211 -0.9105
 6726WAT    EPW27626   3.864   2.228   0.550 -0.4941  0.2318 -0.2121
 6727WAT      O27627   2.083   3.987   2.475  0.1913 -0.1281 -0.4176
 6727WAT     H127628   2.043   4.023   2.405 -0.2032 -1.5627 -0.9583
 6727WAT     H227629   2.030   4.007   2.541 -0.1527  0.0683 -0.7449
 6727WAT    EPW27630   2.069   3.996   2.474  0.0822 -0.3110 -0.5458
 6728WAT      O27631   2.954   0.456   4.642  0.3822 -0.1712 -0.0083
 6728WAT     H127632   2.881   0.501   4.655  0.6262 -0.1342  1.3479
 6728WAT     H227633   3.005   0.511   4.597 -0.9441 -0.7490 -2.4062
 6728WAT    EPW27634   2.951   0.471   4.637  0.2224 -0.2511 -0.1622
 6729WAT      O27635   6.440   0.172   2.137 -0.3689 -0.0434 -0.1032
 6729WAT     H127636   6.361   0.182   2.173 -0.7276  1.2427 -1.1741
 6729WAT     H227637   6.477   0.109   2.185 -2.0471 -0.6892  0.4012
 6729WAT    EPW27638   6.434   0.164   2.149 -0.6698  0.0512 -0.1869
 6730WAT      O27639   2.565   2.329   4.047  0.8450 -0.5651 -0.3704
 6730WAT     H127640   2.594   2.249   4.025 -1.5629 -1.0896 -2.0746
 6730WAT     H227641   2.621   2.382   4.008  2.4702 -1.3800  0.7532
 6730WAT    EPW27642   2.577   2.325   4.038  0.7293 -0.7630 -0.4562
 6731WAT      O27643   4.487   3.404   1.503 -0.1947 -0.2310  0.1722
 6731WAT     H127644   4.457   3.435   1.579 -0.6541  1.7050 -0.7262
 6731WAT     H227645   4.456   3.460   1.444  1.3290 -0.8358 -1.3103
 6731WAT    EPW27646   4.478   3.417   1.505 -0.0374 -0.0344 -0.1795
 6732WAT      O27647   2.946   5.074   2.163  0.2992 -0.8225 -0.4516
 6732WAT     H127648   2.992   5.121   2.220 -2.8012  0.4283  1.2382
 6732WAT     H227649   2.984   5.092   2.087  1.2375  1.8737  0.5302
 6732WAT    EPW27650   2.959   5.083   2.160 -0.0202 -0.2395 -0.0570
 6733WAT      O27651   1.298   4.761   4.878  0.4473  0.4321 -0.4099
 6733WAT     H127652   1.325   4.678   4.882  1.9649  0.9015  3.1805
 6733WAT     H227653   1.219   4.759   4.916 -0.4392  0.4059 -2.1855
 6733WAT    EPW27654   1.290   4.749   4.885  0.5405  0.4976 -0.1418
 6734WAT      O27655   1.393   5.034   2.356  0.1655  0.2499  0.3490
 6734WAT     H127656   1.449   5.052   2.420 -0.0525  0.0681  0.5956
 6734WAT     H227657   1.358   5.112   2.337 -0.9599  0.0884  1.5871
 6734WAT    EPW27658   1.396   5.048   2.362 -0.0330  0.1992  0.5683
 6735WAT      O27659   5.079   5.875   3.275  0.1725  0.1649 -0.1331
 6735WAT     H127660   5.122   5.934   3.323  0.2958 -1.3529  1.7300
 6735WAT     H227661   5.112   5.799   3.302 -1.0919 -0.8528 -1.3288
 6735WAT    EPW27662   5.090   5.872   3.286  0.0040 -0.2097 -0.0345
 6736WAT      O27663   1.352   6.379   6.700 -0.0160 -0.4700  0.1603
 6736WAT     H127664   1.282   6.331   6.679 -1.1611  0.3446  1.8574
 6736WAT     H227665   1.377   6.347   6.777  1.6167 -0.8497 -0.4948
 6736WAT    EPW27666   1.345   6.367   6.708  0.0560 -0.4058  0.3142
 6737WAT      O27667   2.851   5.879   7.034 -0.1016 -0.0469 -0.0865
 6737WAT     H127668   2.799   5.814   7.010 -0.1614  0.5105 -1.5705
 6737WAT     H227669   2.798   5.949   7.036  0.2316  0.2044  0.1357
 6737WAT    EPW27670   2.836   5.880   7.031 -0.0612  0.0726 -0.2729
 6738WAT      O27671   3.213   5.293   4.757 -0.0284 -0.0918 -0.4490
 6738WAT     H127672   3.155   5.269   4.697  0.9390 -0.1732 -1.3771
 6738WAT     H227673   3.226   5.221   4.804 -0.4881 -0.1322 -0.3779
 6738WAT    EPW27674   3.206   5.279   4.755  0.0466 -0.1098 -0.5756
 6739WAT      O27675   3.769   1.186   3.137  0.6100  0.5202  0.0679
 6739WAT     H127676   3.831   1.161   3.194  0.4101  0.4548  0.2556
 6739WAT     H227677   3.720   1.241   3.183 -1.6147 -2.0982  1.0733
 6739WAT    EPW27678   3.771   1.191   3.152  0.2518  0.1237  0.2441
 6740WAT      O27679   1.441   2.467   4.322 -0.2513  0.1676  0.5128
 6740WAT     H127680   1.407   2.435   4.396  1.9931 -0.7441  1.2379
 6740WAT     H227681   1.487   2.400   4.290 -0.1301  0.9477 -1.0469
 6740WAT    EPW27682   1.443   2.452   4.328  0.0981  0.1482  0.3895
 6741WAT      O27683   4.785   5.033   4.833  0.4047  0.7316 -0.1039
 6741WAT     H127684   4.765   5.085   4.766  0.0659  0.1323 -0.4766
 6741WAT     H227685   4.836   5.083   4.883 -0.0831  1.4965 -0.3470
 6741WAT    EPW27686   4.789   5.048   4.831  0.2826  0.7560 -0.1949
 6742WAT      O27687   0.724   1.816   6.837 -0.2439 -0.2388 -0.1955
 6742WAT     H127688   0.685   1.883   6.796  1.3470 -0.0995 -1.6010
 6742WAT     H227689   0.808   1.839   6.838  0.2273 -1.8572 -0.0078
 6742WAT    EPW27690   0.731   1.829   6.831  0.0607 -0.4573 -0.3754
 6743WAT      O27691   2.407   6.896   7.356 -0.2269  0.0443 -0.6052
 6743WAT     H127692   2.441   6.902   7.276  0.0716 -1.5404 -0.6343
 6743WAT     H227693   2.339   6.951   7.353  2.3439  3.5874 -0.4454
 6743WAT    EPW27694   2.402   6.905   7.343  0.1970  0.3336 -0.5859
 6744WAT      O27695   0.845   5.537   5.005 -0.1797  0.1024  0.1413
 6744WAT     H127696   0.875   5.466   5.045 -1.1952  0.0391  0.8193
 6744WAT     H227697   0.908   5.596   5.019 -1.1004  0.5133  3.1510
 6744WAT    EPW27698   0.859   5.535   5.013 -0.4657  0.1537  0.6860
 6745WAT      O27699   3.750   5.923   0.065  0.1536 -0.3090 -0.0579
 6745WAT     H127700   3.810   5.986   0.052 -1.4337  1.2861  0.0258
 6745WAT     H227701   3.773   5.888   0.141 -0.4008  2.0012  1.2733
 6745WAT    EPW27702   3.762   5.927   0.074 -0.1628  0.2679  0.1511
 6746WAT      O27703   2.852   6.907   0.488 -0.2204  0.3981 -0.0558
 6746WAT     H127704   2.810   6.832   0.478 -0.2544  0.1376  1.7694
 6746WAT     H227705   2.936   6.883   0.498 -0.3933  0.4349  1.8762
 6746WAT    EPW27706   2.858   6.893   0.488 -0.2510  0.3651  0.4993
 6747WAT      O27707   2.608   2.785   3.167 -0.3083  0.2057  0.0140
 6747WAT     H127708   2.667   2.832   3.212 -0.6753  0.9293 -0.2515
 6747WAT     H227709   2.653   2.759   3.097  0.3828 -1.2525  0.9439
 6747WAT    EPW27710   2.624   2.789   3.164 -0.2604  0.0972  0.1121
 6748WAT      O27711   4.920   1.736   0.944  0.4242 -0.3152  0.3486
 6748WAT     H127712   4.859   1.682   0.912 -0.5240  0.1089  1.3846
 6748WAT     H227713   4.985   1.682   0.967  0.8918 -0.6883 -1.6262
 6748WAT    EPW27714   4.921   1.720   0.942  0.3532 -0.3077  0.2099
 6749WAT      O27715   0.642   2.628   5.136  0.1761 -0.1765  0.0996
 6749WAT     H127716   0.558   2.646   5.153  0.6387  0.9536  1.4073
 6749WAT     H227717   0.680   2.632   5.215  1.2027 -2.2889 -0.2425
 6749WAT    EPW27718   0.635   2.631   5.150  0.3961 -0.3216  0.2422
 6750WAT      O27719   0.703   4.652   5.661  0.1190 -0.0364 -0.3196
 6750WAT     H127720   0.653   4.687   5.723 -1.6866 -1.9935 -0.5703
 6750WAT     H227721   0.785   4.670   5.687 -0.6226  0.6276  1.6952
 6750WAT    EPW27722   0.708   4.660   5.674 -0.2572 -0.2274 -0.0590
 6751WAT      O27723   6.770   0.701   6.316  0.0369 -0.0423 -0.2235
 6751WAT     H127724   6.726   0.767   6.352  0.2532  0.7182 -1.2950
 6751WAT     H227725   6.781   0.726   6.233  0.2312 -1.3763 -0.6331
 6751WAT    EPW27726   6.765   0.715   6.309  0.0976 -0.1270 -0.4423
 6752WAT      O27727   3.940   6.812   3.398 -0.2289 -0.1931  0.2111
 6752WAT     H127728   3.973   6.768   3.465  2.2265 -0.2831 -0.9492
 6752WAT     H227729   3.884   6.756   3.362 -0.6691 -0.5768  1.4611
 6752WAT    EPW27730   3.937   6.797   3.402  0.0688 -0.2631  0.2243
 6753WAT      O27731   2.864   6.418   2.354 -0.2672 -0.2011  0.1526
 6753WAT     H127732   2.811   6.488   2.353  0.0286  0.0312 -1.3634
 6753WAT     H227733   2.930   6.443   2.406  2.0780  2.4519 -3.5757
 6753WAT    EPW27734   2.866   6.432   2.361  0.1229  0.2251 -0.6221
 6754WAT      O27735   3.446   1.591   2.709 -0.2966  0.0112 -0.0735
 6754WAT     H127736   3.403   1.637   2.648  1.0791  3.8769  1.5421
 6754WAT     H227737   3.391   1.589   2.776  0.4750  1.4759  0.6477
 6754WAT    EPW27738   3.432   1.597   2.710  0.0206  0.7986  0.2717
 6755WAT      O27739   5.728   3.676   4.088 -0.5878  0.0029 -0.5507
 6755WAT     H127740   5.725   3.592   4.065  1.4677  0.3944 -2.6361
 6755WAT     H227741   5.661   3.684   4.144 -1.7910 -2.6573 -1.4217
 6755WAT    EPW27742   5.717   3.665   4.093 -0.4619 -0.3322 -0.9875
 6756WAT      O27743   1.243   4.477   3.070  0.4594  0.4191  0.1491
 6756WAT     H127744   1.266   4.471   2.986  0.8051 -0.6775  0.3072
 6756WAT     H227745   1.310   4.518   3.106  0.5714  0.3824 -0.0140
 6756WAT    EPW27746   1.256   4.482   3.063  0.5270  0.2517  0.1484
 6757WAT      O27747   4.719   5.113   5.289 -0.7034  0.2998 -0.4853
 6757WAT     H127748   4.722   5.184   5.238 -1.1132 -0.8783 -2.2137
 6757WAT     H227749   4.738   5.145   5.368  0.0999  2.1798 -1.3585
 6757WAT    EPW27750   4.722   5.129   5.293 -0.6453  0.4035 -0.8696
 6758WAT      O27751   1.135   5.630   1.090  0.4720  0.1931 -0.6111
 6758WAT     H127752   1.100   5.563   1.046  0.2973  0.0360 -0.2420
 6758WAT     H227753   1.215   5.601   1.111 -0.4185 -0.9254  1.6707
 6758WAT    EPW27754   1.142   5.616   1.087  0.3146  0.0046 -0.2195
 6759WAT      O27755   0.684   0.612   6.677 -0.1629  0.1797  0.0179
 6759WAT     H127756   0.619   0.572   6.635  0.3088  1.8616 -2.5558
 6759WAT     H227757   0.756   0.572   6.648  0.2290  1.9207 -1.5873
 6759WAT    EPW27758   0.685   0.600   6.667 -0.0353  0.6854 -0.5994
 6760WAT      O27759   2.373   7.236   6.235  0.0711 -0.5681 -0.2610
 6760WAT     H127760   2.422   7.237   6.163  1.9446  0.9668  0.9405
 6760WAT     H227761   2.304   7.285   6.213  1.6192  1.6903 -0.4745
 6760WAT    EPW27762   2.370   7.244   6.221  0.5765 -0.0077 -0.1151
 6761WAT      O27763   1.966   3.383   2.367 -0.5163  0.5660 -0.3240
 6761WAT     H127764   2.001   3.304   2.372  1.1467  1.3105  0.7452
 6761WAT     H227765   1.935   3.387   2.285  0.6663 -0.6706 -0.8727
 6761WAT    EPW27766   1.967   3.372   2.355 -0.0960  0.4933 -0.2471
 6762WAT      O27767   6.997   2.017   7.121  0.2241  0.4083 -0.7851
 6762WAT     H127768   6.948   1.975   7.062  0.4660 -0.0523 -0.6611
 6762WAT     H227769   6.971   2.100   7.114 -0.0292  0.2904 -1.2588
 6762WAT    EPW27770   6.986   2.023   7.111  0.2224  0.3229 -0.8368
 6763WAT      O27771   1.204   0.967   2.017  0.4300  0.0276  0.4503
 6763WAT     H127772   1.216   0.988   2.101  0.8852  2.1015 -0.0751
 6763WAT     H227773   1.235   0.886   2.011 -0.8556 -0.6963  2.5396
 6763WAT    EPW27774   1.210   0.958   2.028  0.3073  0.2270  0.6814
 6764WAT      O27775   1.954   4.367   5.479 -0.2619  0.0243  0.2561
 6764WAT     H127776   1.994   4.363   5.557  0.1668 -0.8837  0.0028
 6764WAT     H227777   2.007   4.417   5.432  0.1655 -0.4929  0.1711
 6764WAT    EPW27778   1.968   4.374   5.484 -0.1354 -0.1862  0.2061
 6765WAT      O27779   1.400   5.420   5.611 -0.0364 -0.3433  0.0270
 6765WAT     H127780   1.376   5.503   5.616  1.1490  0.0077  0.1939
 6765WAT     H227781   1.484   5.421   5.633  0.2095 -1.4783 -0.7157
 6765WAT    EPW27782   1.409   5.432   5.615  0.1750 -0.4591 -0.0581
 6766WAT      O27783   5.802   6.129   6.557  0.2009 -1.1191  0.0743
 6766WAT     H127784   5.791   6.209   6.525  2.1376 -1.5956 -2.0743
 6766WAT     H227785   5.758   6.130   6.632 -2.6033  0.9316 -1.4117
 6766WAT    EPW27786   5.794   6.141   6.563  0.0727 -0.8866 -0.4626
 6767WAT      O27787   2.220   2.969   1.161  0.4204  0.1210  0.1707
 6767WAT     H127788   2.178   2.893   1.166  0.0955  0.3631  1.6857
 6767WAT     H227789   2.211   2.992   1.078 -2.1861 -0.0161  0.3328
 6767WAT    EPW27790   2.212   2.961   1.150 -0.0126  0.1365  0.4184
 6768WAT      O27791   4.764   0.714   2.345  0.3165  0.2097 -0.3194
 6768WAT     H127792   4.768   0.741   2.428  2.9947  1.4630 -0.7447
 6768WAT     H227793   4.786   0.630   2.350  3.3084  0.8866  0.1315
 6768WAT    EPW27794   4.768   0.706   2.358  1.1541  0.4949 -0.3156
 6769WAT      O27795   1.719   5.829   1.085 -0.1178 -0.1122  0.0324
 6769WAT     H127796   1.646   5.780   1.085  0.2788 -0.7046  0.0228
 6769WAT     H227797   1.692   5.905   1.050 -0.2329 -1.1002 -2.2281
 6769WAT    EPW27798   1.704   5.833   1.080 -0.0762 -0.3457 -0.3029
 6770WAT      O27799   1.771   1.677   4.202  0.0239  0.2513 -0.3064
 6770WAT     H127800   1.805   1.749   4.239 -0.1329 -0.1987  0.7282
 6770WAT     H227801   1.828   1.615   4.221 -0.5891 -0.1966  0.0730
 6770WAT    EPW27802   1.785   1.679   4.210 -0.0898  0.1187 -0.0975
 6771WAT      O27803   1.683   0.628   6.426 -0.6759  0.5340  1.0766
 6771WAT     H127804   1.651   0.549   6.408  0.6111  0.1271  0.5043
 6771WAT     H227805   1.611   0.676   6.443 -1.5683 -0.3741  0.0048
 6771WAT    EPW27806   1.668   0.624   6.426 -0.6176  0.3398  0.8337
 6772WAT      O27807   2.632   6.989   5.763  0.5142 -0.3456  0.3206
 6772WAT     H127808   2.658   6.954   5.688  0.5298 -0.6131  0.4514
 6772WAT     H227809   2.663   6.934   5.823  0.9744  0.1582  0.5510
 6772WAT    EPW27810   2.640   6.976   5.761  0.5845 -0.3107  0.3740
 6773WAT      O27811   4.041   1.693   0.430  0.2804 -0.0680  0.1040
 6773WAT     H127812   3.956   1.711   0.434 -0.3459 -2.1154 -1.9194
 6773WAT     H227813   4.077   1.752   0.483 -2.4269  0.4998  1.4894
 6773WAT    EPW27814   4.034   1.704   0.438 -0.2121 -0.2866  0.0097
 6774WAT      O27815   0.699   2.777   6.597  0.2583 -0.5078  0.3559
 6774WAT     H127816   0.669   2.713   6.546 -0.1392 -0.3520  0.3868
 6774WAT     H227817   0.781   2.789   6.569 -0.7780  1.4752 -2.1962
 6774WAT    EPW27818   0.707   2.769   6.586  0.0465 -0.1919 -0.0165
 6775WAT      O27819   6.124   4.963   7.228  0.2630  0.1134  0.2896
 6775WAT     H127820   6.143   4.957   7.143 -0.3893 -1.6411  0.2294
 6775WAT     H227821   6.201   4.981   7.265  0.6574  0.3409 -0.6138
 6775WAT    EPW27822   6.138   4.965   7.221  0.2249 -0.1121  0.1473
 6776WAT      O27823   0.901   1.223   5.868  0.5191  0.3637  1.0382
 6776WAT     H127824   0.953   1.192   5.930  1.4327 -1.4543 -0.5250
 6776WAT     H227825   0.940   1.297   5.843  1.6161 -0.2490  0.8629
 6776WAT    EPW27826   0.914   1.229   5.873  0.8162  0.0046  0.7814
 6777WAT      O27827   5.765   5.429   5.053 -0.6339  0.4988  0.0818
 6777WAT     H127828   5.821   5.415   4.987 -0.8962 -0.2137  0.0049
 6777WAT     H227829   5.767   5.516   5.063 -0.1579  0.5604 -0.4841
 6777WAT    EPW27830   5.774   5.440   5.044 -0.6024  0.4027 -0.0132
 6778WAT      O27831   5.159   3.675   1.387 -0.2907  0.1879  0.0928
 6778WAT     H127832   5.231   3.639   1.354 -0.1720  1.9032 -1.7701
 6778WAT     H227833   5.105   3.678   1.318 -0.6419  2.4553  0.3853
 6778WAT    EPW27834   5.162   3.670   1.372 -0.3250  0.7763 -0.1392
 6779WAT      O27835   7.186   5.296   4.233  0.3841 -0.3437 -0.3952
 6779WAT     H127836   7.184   5.330   4.153 -1.1544 -1.0843 -0.7094
 6779WAT     H227837   7.108   5.316   4.266  1.1875  0.3922  1.1291
 6779WAT    EPW27838   7.174   5.304   4.226  0.2755 -0.3444 -0.2165
 6780WAT      O27839   2.297   3.833   2.416 -0.4151  0.4942  0.0076
 6780WAT     H127840   2.344   3.806   2.484 -1.0529  0.4285  0.4397
 6780WAT     H227841   2.227   3.869   2.453 -0.9393  0.1457 -0.6172
 6780WAT    EPW27842   2.293   3.834   2.431 -0.5868  0.4330 -0.0209
 6781WAT      O27843   1.599   3.882   6.344  0.0579 -0.4783  0.3120
 6781WAT     H127844   1.606   3.893   6.431 -3.1867 -0.2306  0.6633
 6781WAT     H227845   1.670   3.923   6.313  0.5307  0.8050  2.7668
 6781WAT    EPW27846   1.611   3.890   6.352 -0.3516 -0.2521  0.7265
 6782WAT      O27847   0.581   0.647   0.622 -0.2713  0.0913 -0.6946
 6782WAT     H127848   0.539   0.708   0.576 -0.9737  0.5176  0.4780
 6782WAT     H227849   0.556   0.572   0.584 -0.1189  0.4732 -1.5699
 6782WAT    EPW27850   0.571   0.645   0.609 -0.3525  0.2107 -0.6507
 6783WAT      O27851   4.531   5.539   4.488  0.5698  0.0579  0.1115
 6783WAT     H127852   4.466   5.534   4.546  1.1432 -0.7190  0.7162
 6783WAT     H227853   4.569   5.615   4.507 -0.1350  0.5093 -0.2361
 6783WAT    EPW27854   4.527   5.550   4.499  0.5504  0.0098  0.1495
 6784WAT      O27855   4.859   7.075   5.580 -0.5031  0.0310 -0.4013
 6784WAT     H127856   4.809   7.006   5.560 -0.0445 -0.9111  1.5104
 6784WAT     H227857   4.801   7.138   5.596 -0.9309  0.7765 -4.0000
 6784WAT    EPW27858   4.843   7.074   5.579 -0.4986  0.0020 -0.6505
 6785WAT      O27859   3.107   0.620   6.484  0.5660  0.5833  0.0909
 6785WAT     H127860   3.150   0.696   6.481 -0.7960  1.3440 -2.1055
 6785WAT     H227861   3.163   0.563   6.448  1.0014  0.8589  0.3239
 6785WAT    EPW27862   3.121   0.623   6.478  0.4291  0.7364 -0.1991
 6786WAT      O27863   3.411   0.867   5.794 -0.4839  0.2249  0.1827
 6786WAT     H127864   3.486   0.906   5.818 -0.4471 -0.1730  0.7491
 6786WAT     H227865   3.396   0.898   5.714 -2.3361  4.3088  1.7703
 6786WAT    EPW27866   3.420   0.878   5.786 -0.7521  0.7694  0.5009
 6787WAT      O27867   0.705   6.920   3.461 -0.0073 -0.5076 -0.0785
 6787WAT     H127868   0.655   6.974   3.508 -0.8378 -0.6649 -0.7617
 6787WAT     H227869   0.684   6.841   3.493 -1.2902 -0.7102 -1.2996
 6787WAT    EPW27870   0.694   6.916   3.473 -0.3195 -0.5608 -0.3598
 6788WAT      O27871   4.699   7.171   3.206 -0.2705  0.3406  0.4270
 6788WAT     H127872   4.763   7.112   3.207  1.8057  2.3873 -0.9201
 6788WAT     H227873   4.627   7.122   3.199  1.3453 -2.0511 -1.5421
 6788WAT    EPW27874   4.698   7.155   3.205  0.2749  0.2897 -0.0628
 6789WAT      O27875   1.707   2.127   7.176 -0.8955 -0.1252 -0.2218
 6789WAT     H127876   1.761   2.116   7.243 -0.3787  0.2489 -0.5731
 6789WAT     H227877   1.629   2.108   7.209 -0.7273  0.6311  0.6549
 6789WAT    EPW27878   1.703   2.123   7.190 -0.7943  0.0418 -0.1442
 6790WAT      O27879   5.549   6.932   2.966  0.1679  0.4768 -0.4962
 6790WAT     H127880   5.539   6.983   3.036  0.7809  1.1127 -0.8661
 6790WAT     H227881   5.619   6.884   2.986  1.2107  1.6350 -1.2319
 6790WAT    EPW27882   5.558   6.932   2.979  0.4125  0.7418 -0.6595
 6791WAT      O27883   2.893   2.924   5.921  0.0541  0.3571  0.4162
 6791WAT     H127884   2.843   2.924   5.850 -0.4467 -0.8778  0.7420
 6791WAT     H227885   2.887   2.842   5.950  1.4598  0.4468  1.0353
 6791WAT    EPW27886   2.885   2.912   5.915  0.1878  0.1879  0.5558
 6792WAT      O27887   6.076   3.974   5.194 -0.1078 -0.0079  0.3967
 6792WAT     H127888   6.157   3.975   5.163  0.7229  0.9279  2.4061
 6792WAT     H227889   6.026   3.974   5.122  1.6414 -0.6846 -0.8855
 6792WAT    EPW27890   6.080   3.975   5.179  0.2733  0.0304  0.5041
 6793WAT      O27891   5.190   4.257   7.404  0.0023  0.2299 -0.4840
 6793WAT     H127892   5.275   4.259   7.423 -0.0431  1.8995 -0.3276
 6793WAT     H227893   5.173   4.337   7.375 -1.8166  0.4043  0.8733
 6793WAT    EPW27894   5.200   4.269   7.403 -0.2731  0.5023 -0.2604
 6794WAT      O27895   3.953   5.718   2.917  0.2912  0.1110  0.1016
 6794WAT     H127896   3.986   5.736   2.838  0.4664 -0.1546  0.1127
 6794WAT     H227897   3.903   5.787   2.934 -3.9189 -1.8954 -2.4667
 6794WAT    EPW27898   3.950   5.731   2.908 -0.3048 -0.2246 -0.2761
 6795WAT      O27899   2.173   1.319   5.719 -0.0335  0.4051 -0.2508
 6795WAT     H127900   2.231   1.351   5.662 -0.9458  0.2838 -1.2968
 6795WAT     H227901   2.191   1.361   5.793  2.0904 -0.4228 -0.2214
 6795WAT    EPW27902   2.184   1.330   5.721  0.1455  0.2649 -0.4010
 6796WAT      O27903   4.972   1.254   4.994  0.0390  0.2715  0.1811
 6796WAT     H127904   4.940   1.296   5.063 -1.3096  0.7276 -0.6705
 6796WAT     H227905   4.948   1.304   4.927  0.7246 -0.5005 -0.6716
 6796WAT    EPW27906   4.963   1.267   4.994 -0.0589  0.2248 -0.0706
 6797WAT      O27907   3.736   1.056   6.550  0.7953  0.3186 -0.2346
 6797WAT     H127908   3.781   1.030   6.481 -1.0536  0.4277 -1.5576
 6797WAT     H227909   3.669   1.100   6.516  0.0964  0.8389  1.6449
 6797WAT    EPW27910   3.732   1.059   6.535  0.4190  0.4116 -0.1524
 6798WAT      O27911   6.234   4.577   7.132 -0.3270 -0.4592 -0.4432
 6798WAT     H127912   6.293   4.514   7.118 -0.7521 -0.8219 -0.6519
 6798WAT     H227913   6.282   4.646   7.155  0.0195 -1.6601  2.9274
 6798WAT    EPW27914   6.250   4.578   7.133 -0.3386 -0.6902  0.0239
 6799WAT      O27915   3.964   1.293   4.154  0.2082  0.0722 -0.3956
 6799WAT     H127916   3.942   1.284   4.070  0.7208  1.5856 -0.7315
 6799WAT     H227917   3.929   1.371   4.176  0.9393  0.1662  0.4965
 6799WAT    EPW27918   3.955   1.303   4.145  0.3919  0.3097 -0.3134
 6800WAT      O27919   1.218   7.034   2.297 -0.3765 -0.5796  0.1968
 6800WAT     H127920   1.262   6.967   2.333 -0.4494 -1.2980 -0.9804
 6800WAT     H227921   1.138   7.001   2.286  0.1713 -1.2270 -2.6197
 6800WAT    EPW27922   1.213   7.019   2.300 -0.3063 -0.7813 -0.3931
 6801WAT      O27923   5.182   0.885   0.491  0.1510  0.8683  0.4603
 6801WAT     H127924   5.220   0.881   0.569 -0.4956  0.1923  0.7502
 6801WAT     H227925   5.203   0.809   0.453 -0.7071  0.5638  0.5505
 6801WAT    EPW27926   5.191   0.873   0.497 -0.0713  0.7234  0.5165
 6802WAT      O27927   5.921   5.293   0.546 -0.1618 -0.0543  0.0017
 6802WAT     H127928   5.940   5.269   0.627 -0.1664 -0.7907 -0.2080
 6802WAT     H227929   5.844   5.254   0.531  0.1863 -0.5178 -0.6054
 6802WAT    EPW27930   5.912   5.283   0.556 -0.1111 -0.2316 -0.1189
 6803WAT      O27931   7.127   5.304   5.819 -0.4417 -0.7446  0.4787
 6803WAT     H127932   7.214   5.314   5.820 -0.4654  0.1798 -1.4668
 6803WAT     H227933   7.109   5.294   5.734 -2.4105  0.8261  0.6394
 6803WAT    EPW27934   7.137   5.304   5.807 -0.7361 -0.3760  0.2150
 6804WAT      O27935   6.379   5.741   2.724  0.4478 -0.0886  0.2877
 6804WAT     H127936   6.320   5.686   2.691  0.5009 -1.2986  2.0743
 6804WAT     H227937   6.442   5.742   2.663 -0.5694 -0.1775 -0.8157
 6804WAT    EPW27938   6.380   5.733   2.710  0.3054 -0.2805  0.3886
 6805WAT      O27939   5.285   2.649   0.925  0.7844  0.3038 -0.2222
 6805WAT     H127940   5.302   2.627   0.842  0.3866  2.1385 -0.8324
 6805WAT     H227941   5.342   2.713   0.940  1.4439 -0.5699  1.2518
 6805WAT    EPW27942   5.296   2.655   0.915  0.8230  0.4457 -0.0946
 6806WAT      O27943   4.748   1.230   6.178 -0.1367 -0.1903  0.5594
 6806WAT     H127944   4.799   1.300   6.185  0.7673 -0.9177  1.4796
 6806WAT     H227945   4.773   1.179   6.244 -1.4495 -0.9595  0.5047
 6806WAT    EPW27946   4.759   1.233   6.189 -0.1971 -0.4114  0.6872
 6807WAT      O27947   1.994   2.017   6.145 -0.3823 -0.6569 -0.2666
 6807WAT     H127948   1.972   1.933   6.137 -0.4537 -0.6119 -0.5680
 6807WAT     H227949   2.073   2.021   6.106  0.0820 -0.7817  0.6352
 6807WAT    EPW27950   2.003   2.005   6.138 -0.3243 -0.6687 -0.1779
 6808WAT      O27951   4.911   5.808   6.858  0.1644 -0.2799  0.2187
 6808WAT     H127952   4.869   5.884   6.856  0.9808  0.1583 -1.1079
 6808WAT     H227953   4.901   5.776   6.778  2.7803  0.1181 -0.3641
 6808WAT    EPW27954   4.903   5.814   6.846  0.6714 -0.1564 -0.0634
 6809WAT      O27955   3.793   0.968   2.762 -0.4716  0.5531 -0.0189
 6809WAT     H127956   3.782   1.038   2.711 -1.6926 -0.4452 -1.2131
 6809WAT     H227957   3.734   0.980   2.826 -1.3899  0.1385 -0.7787
 6809WAT    EPW27958   3.782   0.980   2.764 -0.7876  0.3444 -0.3075
 6810WAT      O27959   5.627   6.180   3.483  0.5169 -0.1290 -0.2129
 6810WAT     H127960   5.683   6.143   3.539 -0.4459 -1.4262 -0.0540
 6810WAT     H227961   5.555   6.193   3.530  0.6277  1.4976 -0.4209
 6810WAT    EPW27962   5.625   6.176   3.498  0.3910 -0.0803 -0.2201
 6811WAT      O27963   0.782   4.948   1.627 -0.4381 -0.1296 -0.1558
 6811WAT     H127964   0.697   4.936   1.640 -0.0267 -0.4395  2.8102
 6811WAT     H227965   0.803   5.012   1.682  1.3083 -0.3087 -0.5564
 6811WAT    EPW27966   0.773   4.955   1.637 -0.1193 -0.2019  0.2232
 6812WAT      O27967   1.932   2.971   5.674 -0.8986  0.0976 -0.4509
 6812WAT     H127968   1.865   2.946   5.724 -0.1208  0.6845  0.9332
 6812WAT     H227969   1.999   2.925   5.705  0.2693  2.6634  1.2334
 6812WAT    EPW27970   1.932   2.961   5.686 -0.6112  0.5634  0.0023
 6813WAT      O27971   1.059   5.482   1.842 -0.0545  0.2596 -0.3564
 6813WAT     H127972   1.055   5.547   1.783 -0.5608  1.4783  0.9564
 6813WAT     H227973   0.975   5.468   1.862  0.1471  0.3790  0.6062
 6813WAT    EPW27974   1.046   5.490   1.836 -0.0995  0.4573 -0.0203
 6814WAT      O27975   6.607   2.115   5.170  0.0395  0.1583  0.0755
 6814WAT     H127976   6.591   2.029   5.170  1.7136 -0.2029 -0.9054
 6814WAT     H227977   6.528   2.151   5.162 -0.6052 -1.3216 -0.4926
 6814WAT    EPW27978   6.593   2.108   5.169  0.1916 -0.1137 -0.1533
 6815WAT      O27979   3.176   0.061   2.681 -0.0790 -0.6390 -0.1865
 6815WAT     H127980   3.252   0.104   2.677 -0.0613 -0.5565  0.8288
 6815WAT     H227981   3.123   0.109   2.630  0.3467 -0.2855 -0.3006
 6815WAT    EPW27982   3.180   0.075   2.673 -0.0135 -0.5746 -0.0534
 6816WAT      O27983   6.386   3.369   3.901  0.2517 -0.1153 -0.2023
 6816WAT     H127984   6.349   3.315   3.844 -0.0412  0.0521 -0.1700
 6816WAT     H227985   6.399   3.320   3.972  0.3658 -0.2495 -0.3147
 6816WAT    EPW27986   6.383   3.354   3.903  0.2253 -0.1104 -0.2141
 6817WAT      O27987   3.105   5.525   6.637  0.0424 -0.4242 -0.1176
 6817WAT     H127988   3.052   5.487   6.695 -2.0550  0.9590 -1.0026
 6817WAT     H227989   3.089   5.610   6.646 -0.5909 -0.1682 -2.8402
 6817WAT    EPW27990   3.095   5.532   6.647 -0.3610 -0.1821 -0.6505
 6818WAT      O27991   1.679   1.314   2.780 -0.7931  0.1338 -1.0310
 6818WAT     H127992   1.667   1.230   2.804  2.2344  0.1002  1.0602
 6818WAT     H227993   1.639   1.359   2.843  0.5130  0.1331 -0.1500
 6818WAT    EPW27994   1.671   1.308   2.793 -0.1529  0.1287 -0.5920
 6819WAT      O27995   6.688   5.633   0.080 -0.7432 -0.1883 -0.6142
 6819WAT     H127996   6.751   5.577   0.103 -0.5198  0.4300  0.3133
 6819WAT     H227997   6.641   5.588   0.021 -0.4972 -1.3068  0.0207
 6819WAT    EPW27998   6.690   5.618   0.075 -0.6738 -0.2622 -0.3834
 6820WAT      O27999   1.535   2.622   5.793  0.1386  0.2512 -0.3242
 6820WAT     H128000   1.541   2.681   5.857  0.2597 -1.3375  1.2036
 6820WAT     H228001   1.567   2.664   5.723 -0.7468  2.3088  0.4379
 6820WAT    EPW28002   1.541   2.637   5.792  0.0257  0.3205  0.0141
 6821WAT      O28003   0.604   0.076   1.539  0.1525  0.2745 -0.2157
 6821WAT     H128004   0.629   0.043   1.463 -0.6047  1.1577 -0.8722
 6821WAT     H228005   0.601   0.162   1.524 -0.9961  0.3812  0.4961
 6821WAT    EPW28006   0.607   0.084   1.526 -0.1290  0.4208 -0.2076
 6822WAT      O28007   0.296   5.018   7.163  0.0746 -0.4311 -0.1787
 6822WAT     H128008   0.237   5.033   7.100  0.0409 -1.2261 -0.3468
 6822WAT     H228009   0.371   5.008   7.118  0.0240 -1.1463 -0.1089
 6822WAT    EPW28010   0.298   5.019   7.147  0.0621 -0.6542 -0.1932
 6823WAT      O28011   1.022   2.059   6.551  0.4843 -0.2044  0.3153
 6823WAT     H128012   1.100   2.021   6.541  0.3619 -0.7493  1.3592
 6823WAT     H228013   1.034   2.138   6.516  0.9474 -0.9116 -1.2387
 6823WAT    EPW28014   1.036   2.065   6.544  0.5346 -0.3894  0.2399
 6824WAT      O28015   1.183   3.918   5.868  0.0247  0.0348 -0.0485
 6824WAT     H128016   1.193   4.004   5.875  0.4099 -0.0276  0.1646
 6824WAT     H228017   1.111   3.902   5.915  0.7579  0.0472  1.0942
 6824WAT    EPW28018   1.174   3.928   5.876  0.1899  0.0274  0.1518
 6825WAT      O28019   2.644   2.622   6.839 -0.1651  0.2981  0.4840
 6825WAT     H128020   2.705   2.569   6.873  1.3551  1.7174  0.0653
 6825WAT     H228021   2.607   2.573   6.777  1.5153 -0.1909 -0.2052
 6825WAT    EPW28022   2.648   2.607   6.835  0.3077  0.4355  0.3204
 6826WAT      O28023   3.671   5.765   6.579  0.1364  0.8489  0.1581
 6826WAT     H128024   3.717   5.816   6.632  1.6891  1.9814 -2.1266
 6826WAT     H228025   3.711   5.773   6.502 -1.7083 -1.0638 -1.1259
 6826WAT    EPW28026   3.684   5.774   6.575  0.0933  0.7336 -0.3691
 6827WAT      O28027   4.784   4.292   0.159  0.0510  0.7207  0.0630
 6827WAT     H128028   4.698   4.278   0.159  0.2081 -0.4257 -0.9355
 6827WAT     H228029   4.808   4.271   0.078  1.1708  1.7809  0.0829
 6827WAT    EPW28030   4.775   4.287   0.147  0.2397  0.7079 -0.0816
 6828WAT      O28031   2.799   6.524   4.449  0.1257 -0.0984 -0.1146
 6828WAT     H128032   2.805   6.479   4.524 -0.4858  0.4318  0.2703
 6828WAT     H228033   2.794   6.607   4.476  0.6420  0.1563 -0.7820
 6828WAT    EPW28034   2.799   6.529   4.464  0.1116  0.0175 -0.1563
 6829WAT      O28035   6.798   2.357   2.995  0.3751 -0.0050  0.1621
 6829WAT     H128036   6.789   2.371   2.910  0.8932  1.7830  0.3498
 6829WAT     H228037   6.803   2.271   3.002 -2.2869 -0.3681 -1.3315
 6829WAT    EPW28038   6.798   2.347   2.984  0.0584  0.2055 -0.0308
 6830WAT      O28039   0.704   3.141   1.208 -1.0494 -0.1607 -0.3912
 6830WAT     H128040   0.690   3.213   1.161 -0.8874  1.0120  1.2561
 6830WAT     H228041   0.624   3.117   1.234 -1.1482 -0.8604 -1.3158
 6830WAT    EPW28042   0.690   3.148   1.205 -1.0401 -0.0908 -0.2845
 6831WAT      O28043   2.879   6.276   2.731 -0.2263  0.0481  0.1325
 6831WAT     H128044   2.850   6.348   2.772 -2.5769 -2.0230  2.4579
 6831WAT     H228045   2.826   6.269   2.662 -0.2822  0.2594  0.1525
 6831WAT    EPW28046   2.867   6.286   2.727 -0.5818 -0.2266  0.4790
 6832WAT      O28047   5.335   2.410   5.210 -0.6019  0.4284 -0.3309
 6832WAT     H128048   5.330   2.459   5.137  0.1457  3.1688  1.3092
 6832WAT     H228049   5.263   2.431   5.254 -0.0783  0.3890  0.5771
 6832WAT    EPW28050   5.324   2.420   5.205 -0.4141  0.8274  0.0455
 6833WAT      O28051   2.438   1.980   1.274  0.3820  0.5405  0.4698
 6833WAT     H128052   2.459   2.063   1.293 -1.8851  0.9526  1.5155
 6833WAT     H228053   2.382   1.959   1.337 -1.0015 -0.9524 -1.1854
 6833WAT    EPW28054   2.433   1.989   1.286 -0.1573  0.3808  0.3798
 6834WAT      O28055   5.611   3.775   3.781  0.2921 -0.1747 -0.6965
 6834WAT     H128056   5.652   3.738   3.850 -1.9832 -0.5176  0.5728
 6834WAT     H228057   5.527   3.771   3.803 -0.2850  3.5101 -1.6690
 6834WAT    EPW28058   5.605   3.769   3.795 -0.1293  0.3190 -0.6527
 6835WAT      O28059   5.522   4.241   1.809 -0.0883 -0.2535  0.3352
 6835WAT     H128060   5.537   4.222   1.725 -2.6351 -1.3226  0.0557
 6835WAT     H228061   5.574   4.185   1.851  3.3785  2.0796 -0.3204
 6835WAT    EPW28062   5.532   4.230   1.803  0.0476 -0.0668  0.1971
 6836WAT      O28063   3.741   3.288   0.076  0.7350 -0.1473 -0.6264
 6836WAT     H128064   3.677   3.256   0.126  0.5600 -1.9917 -1.9569
 6836WAT     H228065   3.813   3.250   0.107  0.9469  0.4439 -0.3695
 6836WAT    EPW28066   3.742   3.278   0.088  0.7405 -0.3324 -0.7850
 6837WAT      O28067   6.646   4.961   7.134  0.3221  0.3673  0.0722
 6837WAT     H128068   6.718   5.006   7.155  1.9674 -2.0048 -0.0409
 6837WAT     H228069   6.673   4.909   7.069 -1.7873  0.0899 -0.6421
 6837WAT    EPW28070   6.661   4.960   7.127  0.2535 -0.0241 -0.0500
 6838WAT      O28071   5.897   3.672   2.198 -0.0841 -0.2536  0.5199
 6838WAT     H128072   5.952   3.606   2.187  1.5995  1.1153  0.2811
 6838WAT     H228073   5.839   3.661   2.133  0.2386 -1.3996  0.4082
 6838WAT    EPW28074   5.896   3.661   2.187  0.2123 -0.2207  0.4681
 6839WAT      O28075   1.260   7.216   2.975 -0.2859  0.2131 -0.0024
 6839WAT     H128076   1.205   7.161   2.936 -0.0787 -0.8124  1.0911
 6839WAT     H228077   1.247   7.201   3.060  1.4875  0.1099  0.2953
 6839WAT    EPW28078   1.250   7.206   2.982  0.0067  0.0463  0.2031
 6840WAT      O28079   4.294   1.797   2.496 -0.1715  0.2186 -0.1321
 6840WAT     H128080   4.318   1.770   2.416  1.2960  0.3217  0.2397
 6840WAT     H228081   4.350   1.861   2.513  0.3957 -0.6685  1.4937
 6840WAT    EPW28082   4.306   1.802   2.486  0.1291  0.1028  0.1630
 6841WAT      O28083   5.060   7.095   5.881 -0.2671 -0.3523  0.6878
 6841WAT     H128084   5.138   7.057   5.884  1.0585  2.1693  1.0808
 6841WAT     H228085   5.063   7.142   5.807 -1.0795  0.4307  1.1321
 6841WAT    EPW28086   5.072   7.097   5.870 -0.1913  0.1359  0.8115
 6842WAT      O28087   0.403   0.820   4.373 -0.1760  0.0495 -0.6501
 6842WAT     H128088   0.356   0.767   4.324  0.0290 -0.7920  0.0444
 6842WAT     H228089   0.483   0.786   4.371 -0.0702  0.2435 -0.0847
 6842WAT    EPW28090   0.408   0.807   4.366 -0.1301 -0.0462 -0.4640
 6843WAT      O28091   6.918   0.014   0.905  0.0617 -0.1580  0.1966
 6843WAT     H128092   6.874   0.074   0.951  0.4863  0.3815 -0.0901
 6843WAT     H228093   6.924   0.049   0.826  0.5509 -0.4545  0.1003
 6843WAT    EPW28094   6.913   0.028   0.900  0.1967 -0.1221  0.1400
 6844WAT      O28095   2.299   5.055   4.304 -0.2624  0.4839  0.1109
 6844WAT     H128096   2.354   5.029   4.241 -0.1283  1.7502 -0.3264
 6844WAT     H228097   2.350   5.099   4.359  0.0012 -2.1698  2.1971
 6844WAT    EPW28098   2.315   5.058   4.303 -0.2037  0.2790  0.3545
 6845WAT      O28099   6.729   5.641   3.545 -0.4357  0.0351 -0.2086
 6845WAT     H128100   6.777   5.579   3.508 -0.4985 -0.2702  0.2164
 6845WAT     H228101   6.771   5.659   3.619 -0.9818 -0.2617  0.1863
 6845WAT    EPW28102   6.742   5.634   3.550 -0.5257 -0.0539 -0.0875
 6846WAT      O28103   5.711   1.802   4.727  0.3336  0.3862  0.6851
 6846WAT     H128104   5.725   1.883   4.701 -0.5257  0.1686 -0.5361
 6846WAT     H228105   5.729   1.804   4.813 -0.6672  2.1063  0.8958
 6846WAT    EPW28106   5.716   1.814   4.736  0.0589  0.6082  0.5358
 6847WAT      O28107   1.602   7.006   1.988  0.0069  0.7016 -0.5074
 6847WAT     H128108   1.563   6.988   1.912  0.2157 -0.3076 -0.3920
 6847WAT     H228109   1.645   7.080   1.972 -0.4990  0.8613 -1.1719
 6847WAT    EPW28110   1.603   7.014   1.974 -0.0370  0.5761 -0.5885
 6848WAT      O28111   0.617   6.601   5.376  0.4554  0.2995  0.0880
 6848WAT     H128112   0.686   6.572   5.421  0.1682 -1.6616 -0.6555
 6848WAT     H228113   0.613   6.547   5.308 -0.8029  1.4561 -0.7917
 6848WAT    EPW28114   0.626   6.589   5.373  0.2271  0.1806 -0.1518
 6849WAT      O28115   4.715   3.835   2.465 -0.0574  0.1743 -0.5481
 6849WAT     H128116   4.637   3.815   2.499 -0.8770  0.1168 -2.3611
 6849WAT     H228117   4.703   3.915   2.433  0.0236 -0.5618 -2.5031
 6849WAT    EPW28118   4.701   3.844   2.466 -0.1665  0.0571 -1.1047
 6850WAT      O28119   2.496   2.251   1.812 -0.5993 -0.1944  0.5562
 6850WAT     H128120   2.482   2.241   1.897  0.6163  3.5311  1.3689
 6850WAT     H228121   2.583   2.256   1.806 -0.6349 -0.8975 -1.0237
 6850WAT    EPW28122   2.507   2.251   1.823 -0.4250  0.2521  0.4429
 6851WAT      O28123   0.771   6.361   3.877  0.1285 -0.1385  0.6069
 6851WAT     H128124   0.777   6.448   3.873 -0.6738 -0.1161 -3.4966
 6851WAT     H228125   0.838   6.333   3.828 -0.7184 -1.7535  0.2982
 6851WAT    EPW28126   0.782   6.370   3.869 -0.1151 -0.3738 -0.0449
 6852WAT      O28127   5.055   1.827   1.354 -0.1625 -0.1289 -0.4119
 6852WAT     H128128   5.095   1.837   1.278  2.0502  0.0428  0.6724
 6852WAT     H228129   5.096   1.758   1.390  0.0502  0.8234  1.2989
 6852WAT    EPW28130   5.067   1.818   1.348  0.1958  0.0371  0.0010
 6853WAT      O28131   2.452   3.518   0.487  0.1844 -0.2226  0.0866
 6853WAT     H128132   2.413   3.487   0.559 -3.9849  0.5114 -1.5624
 6853WAT     H228133   2.518   3.463   0.474 -0.6062 -2.0457  2.9207
 6853WAT    EPW28134   2.456   3.505   0.495 -0.5483 -0.3835  0.2617
 6854WAT      O28135   3.537   7.146   6.760  0.2436  0.2582  0.1658
 6854WAT     H128136   3.589   7.208   6.792  0.9633 -0.2256 -0.0163
 6854WAT     H228137   3.522   7.171   6.678 -1.2415  1.2748  0.7172
 6854WAT    EPW28138   3.543   7.159   6.753  0.1305  0.3369  0.2203
 6855WAT      O28139   3.064   4.755   1.780 -0.4757 -0.3352 -0.1856
 6855WAT     H128140   3.101   4.787   1.852 -1.6029  2.0451 -0.5677
 6855WAT     H228141   2.991   4.717   1.809 -0.2449 -0.5761  0.0707
 6855WAT    EPW28142   3.059   4.754   1.795 -0.6081 -0.0192 -0.2042
 6856WAT      O28143   3.165   1.758   6.721 -0.0557 -0.3140  0.3300
 6856WAT     H128144   3.134   1.690   6.676  2.4010 -0.1769 -1.8244
 6856WAT     H228145   3.245   1.732   6.745  0.8477  1.6418 -0.3025
 6856WAT    EPW28146   3.172   1.744   6.718  0.4407 -0.0048 -0.0817
 6857WAT      O28147   5.280   6.895   6.783  0.7424 -0.4093 -0.7081
 6857WAT     H128148   5.248   6.833   6.732 -0.4887 -0.2654 -0.1390
 6857WAT     H228149   5.210   6.932   6.818  1.5113 -0.5470  1.1455
 6857WAT    EPW28150   5.265   6.891   6.781  0.6741 -0.4084 -0.3502
 6858WAT      O28151   0.418   5.714   2.078  0.4714  0.1649  0.0651
 6858WAT     H128152   0.386   5.724   2.158 -0.6637 -2.8078  0.0951
 6858WAT     H228153   0.355   5.746   2.027 -0.3026 -0.8997  0.3073
 6858WAT    EPW28154   0.404   5.720   2.082  0.1894 -0.4315  0.1053
 6859WAT      O28155   1.257   1.575   5.264  0.0679 -0.5851  0.3368
 6859WAT     H128156   1.228   1.640   5.213 -1.0975 -1.2232  0.1398
 6859WAT     H228157   1.237   1.602   5.344 -0.0781 -0.5265  0.2833
 6859WAT    EPW28158   1.250   1.589   5.268 -0.1258 -0.6707  0.2998
 6860WAT      O28159   5.399   6.744   3.680  0.4865 -0.3779  0.1586
 6860WAT     H128160   5.376   6.732   3.597  0.1861  0.5086  0.1063
 6860WAT     H228161   5.461   6.684   3.693  0.9634 -0.1248 -0.8785
 6860WAT    EPW28162   5.405   6.734   3.670  0.5126 -0.2096 -0.0024
 6861WAT      O28163   6.681   5.577   5.426  0.2161  0.0841  0.3980
 6861WAT     H128164   6.647   5.650   5.459 -1.1217 -0.3131 -0.0532
 6861WAT     H228165   6.612   5.533   5.397  0.7537 -2.2161  2.2680
 6861WAT    EPW28166   6.666   5.581   5.427  0.0979 -0.3144  0.6076
 6862WAT      O28167   1.720   3.268   4.265  0.4513 -0.0612 -0.4100
 6862WAT     H128168   1.689   3.267   4.184 -0.6717 -0.9342  0.0133
 6862WAT     H228169   1.680   3.201   4.304  1.1654  0.1767  0.7927
 6862WAT    EPW28170   1.709   3.258   4.259  0.3909 -0.1550 -0.1698
 6863WAT      O28171   5.879   5.865   0.250  0.0266 -0.2887 -0.7667
 6863WAT     H128172   5.846   5.785   0.261  0.1279 -0.3847 -1.1437
 6863WAT     H228173   5.943   5.853   0.192  0.2786  0.0068 -0.5511
 6863WAT    EPW28174   5.884   5.852   0.243  0.0788 -0.2592 -0.7906
 6864WAT      O28175   4.381   0.106   1.395  0.0963 -0.3702 -0.2199
 6864WAT     H128176   4.322   0.157   1.356  0.6849  0.5754  0.1099
 6864WAT     H228177   4.338   0.030   1.406 -1.2308  0.4366  0.4494
 6864WAT    EPW28178   4.366   0.102   1.391 -0.0128 -0.1114 -0.0723
 6865WAT      O28179   4.478   0.758   4.080 -0.2554 -0.0172 -0.0248
 6865WAT     H128180   4.403   0.802   4.089  0.7142  2.1588 -1.6520
 6865WAT     H228181   4.528   0.790   4.144 -0.2340 -0.3371  0.1171
 6865WAT    EPW28182   4.475   0.770   4.091 -0.1090  0.2570 -0.2442
 6866WAT      O28183   4.709   1.736   4.078 -0.2180  0.1902  0.3493
 6866WAT     H128184   4.784   1.762   4.042 -0.3645  0.7968  0.4719
 6866WAT     H228185   4.727   1.656   4.109  0.5318  0.5548  0.8616
 6866WAT    EPW28186   4.723   1.728   4.077 -0.1289  0.3336  0.4431
 6867WAT      O28187   4.651   5.670   1.235 -0.6072 -0.0787  0.0146
 6867WAT     H128188   4.722   5.621   1.252 -0.9873 -0.5083  0.4138
 6867WAT     H228189   4.682   5.737   1.189 -0.1883 -1.1746 -1.3776
 6867WAT    EPW28190   4.666   5.672   1.230 -0.6015 -0.3040 -0.1321
 6868WAT      O28191   5.590   5.622   1.792 -0.2572 -0.0745 -0.1647
 6868WAT     H128192   5.615   5.693   1.836  1.7225  0.0708 -1.3719
 6868WAT     H228193   5.661   5.572   1.792 -0.7741 -0.8717 -1.5912
 6868WAT    EPW28194   5.604   5.625   1.798 -0.0411 -0.1708 -0.5537
 6869WAT      O28195   2.266   6.220   1.630  0.7874 -1.1840  0.4092
 6869WAT     H128196   2.351   6.219   1.613  0.8381  0.8264  0.2260
 6869WAT     H228197   2.261   6.259   1.709  0.0040  0.7665 -0.5227
 6869WAT    EPW28198   2.277   6.226   1.639  0.6791 -0.5989  0.2445
 6870WAT      O28199   0.142   0.643   4.971 -0.7233  0.2029 -0.3185
 6870WAT     H128200   0.227   0.663   4.970 -0.8665  1.0080 -3.0226
 6870WAT     H228201   0.119   0.646   4.887 -3.2092 -1.0721  0.2178
 6870WAT    EPW28202   0.151   0.646   4.959 -1.1117  0.1335 -0.6387
 6871WAT      O28203   2.899   0.438   3.397  0.0205  0.0200  0.1215
 6871WAT     H128204   2.839   0.498   3.377  1.3224  0.7795 -1.7081
 6871WAT     H228205   2.910   0.449   3.483 -0.3467  1.8910 -0.0236
 6871WAT    EPW28206   2.892   0.449   3.407  0.1586  0.4086 -0.1702
 6872WAT      O28207   1.393   3.000   4.419 -0.0842 -0.0155 -0.0634
 6872WAT     H128208   1.363   2.965   4.493  2.4007 -0.4408  0.8424
 6872WAT     H228209   1.436   2.934   4.381  0.4953  0.7612 -0.8091
 6872WAT    EPW28210   1.395   2.985   4.424  0.3685  0.0364 -0.0398
 6873WAT      O28211   6.225   6.866   2.339  0.4964  0.0706 -0.4073
 6873WAT     H128212   6.247   6.938   2.296  0.0453 -0.3857 -1.4236
 6873WAT     H228213   6.153   6.838   2.298 -0.0432 -0.2984  0.7413
 6873WAT    EPW28214   6.218   6.872   2.327  0.3501 -0.0513 -0.3878
 6874WAT      O28215   2.988   2.716   5.609  0.4078  0.3777 -0.1028
 6874WAT     H128216   3.052   2.709   5.668  0.6990  0.2985 -0.4237
 6874WAT     H228217   2.967   2.634   5.591  0.8851  0.3766 -0.7091
 6874WAT    EPW28218   2.994   2.703   5.615  0.5213  0.3659 -0.2398
 6875WAT      O28219   1.111   3.191   6.351 -0.0256  0.0616 -0.8498
 6875WAT     H128220   1.180   3.139   6.358  0.1002  0.2376 -0.7512
 6875WAT     H228221   1.080   3.174   6.272 -0.4482 -0.7193 -0.5195
 6875WAT    EPW28222   1.117   3.181   6.341 -0.0695 -0.0277 -0.7864
 6876WAT      O28223   0.660   0.149   0.808 -0.0918 -0.0994 -0.2643
 6876WAT     H128224   0.629   0.072   0.779 -1.2861  1.1228 -2.4417
 6876WAT     H228225   0.606   0.169   0.873 -0.2900 -0.6905 -0.2350
 6876WAT    EPW28226   0.647   0.140   0.813 -0.2975 -0.0062 -0.5816
 6877WAT      O28227   5.939   1.740   5.505  0.1460  0.2309  0.6167
 6877WAT     H128228   5.935   1.733   5.592  0.6518 -0.2059  0.6090
 6877WAT     H228229   5.894   1.672   5.476  0.9365 -0.2770  0.5427
 6877WAT    EPW28230   5.932   1.729   5.513  0.3375  0.0913  0.6046
 6878WAT      O28231   5.370   3.336   7.344 -0.2012  0.4128  0.5257
 6878WAT     H128232   5.390   3.336   7.429 -0.5245 -3.1468  0.7700
 6878WAT     H228233   5.435   3.381   7.308  0.8063  0.6887  2.5366
 6878WAT    EPW28234   5.382   3.343   7.351 -0.1002 -0.0723  0.8588
 6879WAT      O28235   1.890   4.812   1.340 -0.0685 -0.1382 -0.1743
 6879WAT     H128236   1.846   4.804   1.265  1.1047  0.6963 -0.9799
 6879WAT     H228237   1.924   4.892   1.336  0.6372 -0.3612  0.9009
 6879WAT    EPW28238   1.888   4.823   1.328  0.2091 -0.0479 -0.1345
 6880WAT      O28239   7.270   1.857   4.733 -0.0246  0.0913 -0.4673
 6880WAT     H128240   7.352   1.886   4.738  0.7757 -1.9034 -0.9055
 6880WAT     H228241   7.257   1.847   4.647 -0.7006  0.3150 -0.3965
 6880WAT    EPW28242   7.280   1.860   4.721 -0.0062 -0.1703 -0.5216
 6881WAT      O28243   6.374   3.840   1.028 -0.2644  0.5471  0.4774
 6881WAT     H128244   6.320   3.864   0.964  0.2082  1.5295  0.4298
 6881WAT     H228245   6.409   3.765   0.997  0.3533  1.2787 -0.6712
 6881WAT    EPW28246   6.372   3.832   1.014 -0.1033  0.8003  0.3007
 6882WAT      O28247   0.461   2.285   5.179  0.2725 -0.3608 -0.3533
 6882WAT     H128248   0.418   2.209   5.178 -1.5956  0.6270  0.6716
 6882WAT     H228249   0.434   2.326   5.107 -1.1601  0.5653  0.6676
 6882WAT    EPW28250   0.451   2.279   5.168 -0.2151 -0.0781 -0.0511
 6883WAT      O28251   5.562   0.015   5.506 -0.7269  0.0395  0.0158
 6883WAT     H128252   5.511   0.028   5.575 -3.1260  0.5333 -1.7203
 6883WAT     H228253   5.520  -0.047   5.461  0.8150 -0.3417 -0.9905
 6883WAT    EPW28254   5.548   0.008   5.509 -0.8535  0.0561 -0.3893
 6884WAT      O28255   2.593   2.741   7.097  0.2184 -0.3181 -0.1371
 6884WAT     H128256   2.582   2.824   7.073 -0.7412 -0.2635  0.4586
 6884WAT     H228257   2.619   2.701   7.024 -1.9437 -0.0228 -1.1244
 6884WAT    EPW28258   2.595   2.747   7.083 -0.2427 -0.2664 -0.1949
 6885WAT      O28259   2.505   6.893   7.078 -0.2782 -1.0731 -0.1541
 6885WAT     H128260   2.458   6.959   7.046 -0.0034 -0.5790  0.4373
 6885WAT     H228261   2.486   6.826   7.025 -0.8475 -0.6166 -0.5355
 6885WAT    EPW28262   2.495   6.893   7.065 -0.3217 -0.9327 -0.1231
 6886WAT      O28263   6.691   0.546   5.354  0.2585 -0.4848 -0.0746
 6886WAT     H128264   6.721   0.613   5.308  1.1387 -0.8793 -0.0811
 6886WAT     H228265   6.713   0.476   5.307  1.0703 -0.8880  0.8568
 6886WAT    EPW28266   6.698   0.546   5.340  0.5085 -0.6026  0.0621
 6887WAT      O28267   2.595   5.478   4.662  0.3418  0.0254 -0.9948
 6887WAT     H128268   2.618   5.422   4.724 -1.5635  2.4474  2.2240
 6887WAT     H228269   2.657   5.540   4.666 -0.1685  0.5448 -1.0393
 6887WAT    EPW28270   2.608   5.479   4.671 -0.0150  0.4599 -0.5259
 6888WAT      O28271   2.595   6.275   2.049  0.2338  0.3283 -0.5196
 6888WAT     H128272   2.601   6.303   1.966 -1.9923  0.7004 -0.6382
 6888WAT     H228273   2.562   6.344   2.091  2.0465  0.3888  0.8740
 6888WAT    EPW28274   2.591   6.289   2.043  0.1727  0.3922 -0.3313
 6889WAT      O28275   5.845   3.383   4.389 -0.3661  0.8256  0.1029
 6889WAT     H128276   5.868   3.302   4.413 -0.0857  0.7848 -0.2895
 6889WAT     H228277   5.854   3.430   4.463  0.5807  0.7277  0.0681
 6889WAT    EPW28278   5.850   3.378   4.404 -0.1848  0.8051  0.0398
 6890WAT      O28279   4.696   5.847   2.784  0.1743 -0.4517  0.0351
 6890WAT     H128280   4.661   5.917   2.822 -1.4544 -2.2116  2.1040
 6890WAT     H228281   4.760   5.823   2.839  0.6945 -0.6314 -0.6269
 6890WAT    EPW28282   4.700   5.854   2.798  0.0106 -0.7382  0.2430
 6891WAT      O28283   2.227   2.373   5.617 -0.0429 -0.3615  0.0903
 6891WAT     H128284   2.296   2.411   5.655 -1.0872  1.5015  0.2155
 6891WAT     H228285   2.159   2.411   5.655 -1.1439 -1.1288 -1.0447
 6891WAT    EPW28286   2.227   2.384   5.628 -0.3598 -0.1997 -0.0588
 6892WAT      O28287   5.100   3.899   7.148  0.2462 -0.4783 -0.1525
 6892WAT     H128288   5.091   3.985   7.137 -1.0391 -0.5838 -0.1270
 6892WAT     H228289   5.023   3.876   7.183  0.5207 -1.6574 -0.3118
 6892WAT    EPW28290   5.087   3.909   7.152  0.0969 -0.6680 -0.1722
 6893WAT      O28291   1.283   5.197   6.713  0.4180  0.3126  0.0432
 6893WAT     H128292   1.342   5.147   6.753  0.2215  0.6026  0.7229
 6893WAT     H228293   1.225   5.213   6.776  0.0969  0.7891 -0.3682
 6893WAT    EPW28294   1.283   5.192   6.728  0.3415  0.4258  0.0829
 6894WAT      O28295   4.370   2.720   2.122 -0.7406  0.0268 -0.1227
 6894WAT     H128296   4.415   2.710   2.196 -1.4221  0.3230  0.3409
 6894WAT     H228297   4.432   2.728   2.061 -0.1703  0.6061  0.5268
 6894WAT    EPW28298   4.386   2.719   2.124 -0.7570  0.1562  0.0417
 6895WAT      O28299   2.131   5.293   1.247  0.3102 -0.0368 -0.1850
 6895WAT     H128300   2.192   5.346   1.214 -0.5932  0.1760 -1.5740
 6895WAT     H228301   2.077   5.348   1.289 -0.6487  0.1902 -1.6592
 6895WAT    EPW28302   2.132   5.309   1.248  0.0351  0.0282 -0.6079
 6896WAT      O28303   3.341   0.363   0.905 -0.3847 -0.2283  0.3902
 6896WAT     H128304   3.331   0.447   0.927  1.4005  0.1410 -0.0164
 6896WAT     H228305   3.410   0.364   0.852 -0.5808 -1.9133  0.0570
 6896WAT    EPW28306   3.350   0.375   0.901 -0.1500 -0.4226  0.2809
 6897WAT      O28307   1.921   2.154   4.374  0.8284 -0.1614  0.1913
 6897WAT     H128308   1.855   2.207   4.353  1.4188 -0.2105 -2.0367
 6897WAT     H228309   1.992   2.203   4.362  1.2935 -0.8214  0.1900
 6897WAT    EPW28310   1.922   2.169   4.369  0.9843 -0.2661 -0.1380
 6898WAT      O28311   4.983   5.105   3.960 -0.2333 -0.0274 -0.2630
 6898WAT     H128312   5.049   5.124   4.014 -0.2198  0.4599 -0.4450
 6898WAT     H228313   4.963   5.023   3.980 -0.8165  0.4192  1.1307
 6898WAT    EPW28314   4.990   5.096   3.971 -0.3174  0.1106 -0.0840
 6899WAT      O28315   3.861   0.099   3.971 -0.1913  0.3896  0.0070
 6899WAT     H128316   3.881   0.171   3.926 -0.3526 -0.2459 -1.1120
 6899WAT     H228317   3.778   0.083   3.950  0.0459 -0.5093 -0.3335
 6899WAT    EPW28318   3.851   0.107   3.961 -0.1801  0.1629 -0.2086
 6900WAT      O28319   5.948   3.712   0.232 -0.0466 -0.0901  0.2833
 6900WAT     H128320   5.918   3.633   0.214  1.1789 -0.8921  1.5902
 6900WAT     H228321   5.914   3.730   0.310 -0.6488  0.8719 -0.1769
 6900WAT    EPW28322   5.938   3.703   0.241  0.0455 -0.0664  0.4084
 6901WAT      O28323   1.262   6.523   5.925 -0.1223 -0.3336 -0.4218
 6901WAT     H128324   1.251   6.604   5.954 -0.1442 -0.2671 -0.6133
 6901WAT     H228325   1.236   6.473   5.992  1.1588 -0.2008  0.1913
 6901WAT    EPW28326   1.256   6.527   5.939  0.0637 -0.3042 -0.3595
 6902WAT      O28327   4.865   1.294   0.131 -0.2766 -0.0465 -0.9797
 6902WAT     H128328   4.930   1.236   0.123 -0.3707 -0.1674 -0.8848
 6902WAT     H228329   4.800   1.246   0.164  0.1537  0.4703  0.7130
 6902WAT    EPW28330   4.865   1.278   0.134 -0.2269  0.0120 -0.7156
 6903WAT      O28331   0.623   4.720   1.891 -0.3161 -0.3040  0.1505
 6903WAT     H128332   0.605   4.763   1.817  0.2362 -0.7408 -0.2395
 6903WAT     H228333   0.575   4.647   1.884 -0.0228 -0.4888  0.0847
 6903WAT    EPW28334   0.613   4.716   1.879 -0.1912 -0.3958  0.0832
 6904WAT      O28335   1.885   4.151   6.416  0.4016 -0.2675  0.0286
 6904WAT     H128336   1.851   4.080   6.379 -0.4920 -0.0716  0.4515
 6904WAT     H228337   1.889   4.131   6.500 -2.2284  1.0254  0.5764
 6904WAT    EPW28338   1.881   4.138   6.423 -0.1189 -0.0476  0.1720
 6905WAT      O28339   2.136   2.947   3.871  0.2312 -0.5455  0.3251
 6905WAT     H128340   2.100   2.989   3.804  1.7112  0.1198 -0.1126
 6905WAT     H228341   2.206   2.996   3.891  1.3578 -2.1580  0.5862
 6905WAT    EPW28342   2.141   2.961   3.864  0.6163 -0.6854  0.2990
 6906WAT      O28343   0.271   1.636   6.959 -0.4834  0.2619  0.3340
 6906WAT     H128344   0.346   1.667   6.990 -0.2820 -0.9649  1.1673
 6906WAT     H228345   0.210   1.679   7.005 -0.2027 -2.2218  3.4513
 6906WAT    EPW28346   0.273   1.647   6.971 -0.4122 -0.2862  0.9176
 6907WAT      O28347   3.752   1.272   0.024  0.3954  0.1181 -0.1898
 6907WAT     H128348   3.737   1.266  -0.062 -0.3469 -0.6065 -0.0147
 6907WAT     H228349   3.795   1.347   0.031 -0.7559  0.8864 -1.0288
 6907WAT    EPW28350   3.756   1.282   0.012  0.1157  0.1246 -0.2878
 6908WAT      O28351   1.044   2.680   5.357  0.3752 -0.2963  0.2394
 6908WAT     H128352   1.082   2.713   5.428  0.2245  0.6635 -0.1149
 6908WAT     H228353   0.991   2.618   5.388  0.9001 -0.4174  0.8904
 6908WAT    EPW28354   1.042   2.675   5.372  0.4305 -0.1724  0.2832
 6909WAT      O28355   1.207   4.188   4.711  0.4682  0.2631 -0.5292
 6909WAT     H128356   1.250   4.240   4.767  0.8612  1.7914 -2.1484
 6909WAT     H228357   1.271   4.139   4.676  0.2809 -0.3811  0.0031
 6909WAT    EPW28358   1.223   4.189   4.714  0.4986  0.3937 -0.6898
 6910WAT      O28359   5.421   5.137   5.878 -0.5524  0.3921 -0.2212
 6910WAT     H128360   5.387   5.056   5.879  0.2904 -0.0434  2.6586
 6910WAT     H228361   5.503   5.125   5.851 -0.1898  0.1191  0.9450
 6910WAT    EPW28362   5.428   5.123   5.874 -0.3743  0.2874  0.3765
 6911WAT      O28363   3.381   1.968   2.335  0.0067 -0.2932 -0.0226
 6911WAT     H128364   3.302   1.940   2.311 -0.1436  0.0727  0.0553
 6911WAT     H228365   3.379   1.965   2.422  0.1832 -0.5681 -0.0240
 6911WAT    EPW28366   3.369   1.963   2.344  0.0106 -0.2798 -0.0113
 6912WAT      O28367   3.784   4.956   0.656 -0.4015  0.7162  0.8296
 6912WAT     H128368   3.766   4.935   0.573  1.1243 -3.4715  1.3293
 6912WAT     H228369   3.858   5.002   0.650  0.5450 -0.8442 -0.1525
 6912WAT    EPW28370   3.792   4.960   0.642 -0.0363 -0.1329  0.7583
 6913WAT      O28371   5.749   0.462   4.769  0.1820 -1.1242  0.2996
 6913WAT     H128372   5.786   0.522   4.821 -1.9647 -1.3739  2.2377
 6913WAT     H228373   5.736   0.505   4.694  2.8088 -0.5756  0.0589
 6913WAT    EPW28374   5.753   0.477   4.765  0.2529 -1.0800  0.5503
 6914WAT      O28375   3.873   6.139   0.521 -0.2452 -0.0024 -0.1302
 6914WAT     H128376   3.791   6.141   0.549 -0.0011 -0.2748  0.6248
 6914WAT     H228377   3.903   6.219   0.538  0.5482 -0.7539  2.4505
 6914WAT    EPW28378   3.865   6.151   0.528 -0.0919 -0.1537  0.3626
 6915WAT      O28379   6.352   3.263   5.978 -0.0331 -0.1450 -0.3929
 6915WAT     H128380   6.414   3.232   6.032  0.1463  1.3377  0.3244
 6915WAT     H228381   6.389   3.259   5.899  0.1197 -1.3376 -0.2694
 6915WAT    EPW28382   6.367   3.258   5.975  0.0160 -0.1022 -0.2687
 6916WAT      O28383   6.762   1.515   7.070  0.3183  1.2309 -0.1300
 6916WAT     H128384   6.696   1.526   7.014 -0.1452  1.2821  0.4183
 6916WAT     H228385   6.753   1.432   7.096  1.1494  0.8850 -0.8998
 6916WAT    EPW28386   6.751   1.505   7.065  0.3726  1.1874 -0.1627
 6917WAT      O28387   3.012   0.282   5.254 -0.0472  0.0425 -0.0130
 6917WAT     H128388   2.976   0.353   5.288  1.0739  0.3798  0.5051
 6917WAT     H228389   3.078   0.312   5.206 -0.2159 -0.5851 -0.6724
 6917WAT    EPW28390   3.016   0.297   5.252  0.0935 -0.0004 -0.0338
 6918WAT      O28391   4.662   2.796   0.298 -0.4164 -0.0168 -0.3116
 6918WAT     H128392   4.641   2.718   0.266 -0.5775 -0.1323  0.0687
 6918WAT     H228393   4.736   2.783   0.341  0.8234  0.5205 -2.1694
 6918WAT    EPW28394   4.670   2.783   0.299 -0.2570  0.0455 -0.5299
 6919WAT      O28395   5.724   7.093   7.319  0.5146 -0.0416 -0.3879
 6919WAT     H128396   5.790   7.039   7.299  0.7267  0.2212 -0.4042
 6919WAT     H228397   5.662   7.039   7.349  1.1489 -0.1966  0.7316
 6919WAT    EPW28398   5.725   7.077   7.321  0.6396 -0.0257 -0.2249
 6920WAT      O28399   3.422   6.987   4.214  0.1096  0.2166 -0.4997
 6920WAT     H128400   3.374   7.060   4.219 -0.2416  0.0178 -0.8725
 6920WAT     H228401   3.367   6.925   4.240  0.1408 -0.0223 -0.9889
 6920WAT    EPW28402   3.407   6.989   4.219  0.0623  0.1519 -0.6270
 6921WAT      O28403   0.349   5.434   3.055 -0.0082  0.5809  0.2855
 6921WAT     H128404   0.398   5.395   3.116 -1.2724 -1.2439  0.2273
 6921WAT     H228405   0.386   5.411   2.980 -1.2778 -1.4797  0.1989
 6921WAT    EPW28406   0.362   5.425   3.053 -0.3825  0.0069  0.2641
 6922WAT      O28407   3.114   4.274   1.291 -0.1584 -0.8583  0.1809
 6922WAT     H128408   3.045   4.226   1.268  0.3238 -0.9819 -1.0776
 6922WAT     H228409   3.101   4.349   1.249 -0.5037 -0.1439  1.5143
 6922WAT    EPW28410   3.102   4.278   1.282 -0.1382 -0.7710  0.1919
 6923WAT      O28411   4.581   4.300   6.270 -0.1764 -0.1915  0.0198
 6923WAT     H128412   4.518   4.320   6.327  0.9102 -0.0187  1.2128
 6923WAT     H228413   4.570   4.214   6.257  0.3318 -0.5169  1.5257
 6923WAT    EPW28414   4.570   4.290   6.277  0.0591 -0.2140  0.4185
 6924WAT      O28415   3.329   6.992   2.054  0.1983 -0.5435 -0.2863
 6924WAT     H128416   3.250   7.010   2.021 -0.1867 -2.1347 -0.2994
 6924WAT     H228417   3.383   7.039   2.003 -0.7285  0.8286 -0.0726
 6924WAT    EPW28418   3.325   7.002   2.041  0.0045 -0.5759 -0.2567
 6925WAT      O28419   5.819   0.060   0.939  0.0072  0.3920 -0.2556
 6925WAT     H128420   5.748   0.068   0.889 -0.2089 -0.6746 -0.1591
 6925WAT     H228421   5.798   0.103   1.012 -0.0907  1.0511 -0.6730
 6925WAT    EPW28422   5.805   0.067   0.943 -0.0392  0.3318 -0.3030
 6926WAT      O28423   6.742   6.673   2.167 -0.0513  0.2101  0.4910
 6926WAT     H128424   6.674   6.655   2.218 -0.6303  0.0813 -0.3136
 6926WAT     H228425   6.709   6.727   2.107  0.0905 -1.3105 -1.0119
 6926WAT    EPW28426   6.727   6.678   2.166 -0.1159 -0.0335  0.1501
 6927WAT      O28427   4.410   1.202   0.299 -1.3158  0.4221 -0.2594
 6927WAT     H128428   4.401   1.207   0.386 -0.3461 -0.2154 -0.1068
 6927WAT     H228429   4.356   1.137   0.276  0.6744 -1.5228  0.2895
 6927WAT    EPW28430   4.400   1.193   0.309 -0.8785  0.0406 -0.1558
 6928WAT      O28431   0.425   2.538   0.326  0.1205  0.2573  0.3301
 6928WAT     H128432   0.342   2.544   0.299  0.8710  0.2212 -2.2616
 6928WAT     H228433   0.445   2.454   0.311  1.5199  0.9418 -2.3419
 6928WAT    EPW28434   0.415   2.526   0.320  0.4381  0.3531 -0.4475
 6929WAT      O28435   0.949   0.996   0.206  0.1072  0.0888  0.6290
 6929WAT     H128436   0.973   0.966   0.128 -0.2692  0.1666  0.4813
 6929WAT     H228437   1.000   1.066   0.217 -0.9282  1.0166 -0.2564
 6929WAT    EPW28438   0.960   1.002   0.196 -0.1014  0.2374  0.4764
 6930WAT      O28439   4.188   3.783   6.556  0.3743 -0.6113  0.1570
 6930WAT     H128440   4.186   3.848   6.614  0.9236 -0.5788  0.1426
 6930WAT     H228441   4.273   3.768   6.544  0.2684 -1.7553  0.6326
 6930WAT    EPW28442   4.200   3.790   6.563  0.4398 -0.7755  0.2251
 6931WAT      O28443   0.294   0.048   0.846  0.1068 -0.0316  0.5423
 6931WAT     H128444   0.260   0.113   0.800 -0.4473 -0.7354 -0.0678
 6931WAT     H228445   0.337   0.001   0.787 -1.7476 -1.7039  0.4406
 6931WAT    EPW28446   0.295   0.051   0.830 -0.2490 -0.3826  0.4371
 6932WAT      O28447   0.763   6.543   3.562  0.4108  0.4247 -0.2960
 6932WAT     H128448   0.822   6.535   3.625 -0.5163  1.1290  0.7029
 6932WAT     H228449   0.811   6.555   3.490  1.5070  2.7794  0.7230
 6932WAT    EPW28450   0.779   6.543   3.561  0.4357  0.8766  0.0021
 6933WAT      O28451   3.610   0.377   2.377 -0.0311 -0.0139 -0.5858
 6933WAT     H128452   3.526   0.357   2.365  0.3841 -1.2090 -1.8365
 6933WAT     H228453   3.610   0.463   2.390 -1.4565 -0.0298 -0.3743
 6933WAT    EPW28454   3.598   0.387   2.377 -0.1803 -0.1928 -0.7393
 6934WAT      O28455   3.617   1.698   4.982 -0.1721 -0.2725  0.7304
 6934WAT     H128456   3.583   1.662   5.054 -2.2351  2.7088  1.4720
 6934WAT     H228457   3.547   1.718   4.934  0.9692  0.4825 -0.7087
 6934WAT    EPW28458   3.602   1.696   4.986 -0.3082  0.2794  0.6274
 6935WAT      O28459   0.038   2.457   0.834 -0.0571 -0.2854  0.2551
 6935WAT     H128460   0.076   2.382   0.858  1.3131  0.6304  1.0892
 6935WAT     H228461   0.020   2.496   0.910  0.8366  0.9768 -0.1477
 6935WAT    EPW28462   0.041   2.452   0.849  0.2773  0.0363  0.3188
 6936WAT      O28463   1.869   6.393   3.008  0.0366  0.2752 -0.2083
 6936WAT     H128464   1.878   6.477   3.032 -0.6922  0.5029 -0.6986
 6936WAT     H228465   1.920   6.350   3.065 -1.1747  0.8540  1.3932
 6936WAT    EPW28466   1.878   6.399   3.020 -0.2500  0.3943 -0.0441
 6937WAT      O28467   5.053   2.622   4.620  0.2441  0.4506 -0.1116
 6937WAT     H128468   5.096   2.587   4.553 -0.2214 -0.3491 -0.0005
 6937WAT     H228469   5.102   2.692   4.641  1.3076 -0.2349 -0.2063
 6937WAT    EPW28470   5.067   2.628   4.613  0.3325  0.2312 -0.1092
 6938WAT      O28471   4.661   2.654   1.235 -0.2464  0.0599  0.0505
 6938WAT     H128472   4.578   2.681   1.235 -0.5112 -0.6978 -0.8475
 6938WAT     H228473   4.707   2.728   1.231 -0.9098  0.4426 -0.6234
 6938WAT    EPW28474   4.655   2.669   1.235 -0.3835  0.0045 -0.1817
 6939WAT      O28475   1.837   1.034   1.625 -0.2907  0.1246  0.4225
 6939WAT     H128476   1.859   1.062   1.545  0.7704 -1.7972 -0.0172
 6939WAT     H228477   1.867   1.098   1.677 -0.0305  0.9077 -0.6368
 6939WAT    EPW28478   1.845   1.048   1.621 -0.0955 -0.0436  0.2011
 6940WAT      O28479   2.598   5.752   0.333 -0.1392  0.1968  0.1360
 6940WAT     H128480   2.585   5.791   0.410  0.4162 -0.9561  0.8418
 6940WAT     H228481   2.637   5.813   0.285  0.9517  0.4331  1.2864
 6940WAT    EPW28482   2.602   5.767   0.337  0.1040  0.0614  0.4102
 6941WAT      O28483   4.564   2.671   4.003  0.4358 -0.0072 -0.2751
 6941WAT     H128484   4.509   2.699   3.941  2.0472 -0.5304 -2.0265
 6941WAT     H228485   4.545   2.722   4.072 -1.4193  0.5873 -1.1684
 6941WAT    EPW28486   4.553   2.683   4.004  0.3998  0.0033 -0.6658
 6942WAT      O28487   5.189   1.595   6.557  0.2433 -0.0695 -0.0744
 6942WAT     H128488   5.207   1.644   6.488  2.4210 -0.0424  0.4313
 6942WAT     H228489   5.143   1.648   6.609 -0.3377  0.3066 -0.9539
 6942WAT    EPW28490   5.185   1.610   6.555  0.4792 -0.0099 -0.1296
 6943WAT      O28491   3.992   0.339   6.142  0.5760  0.2024  0.1456
 6943WAT     H128492   4.021   0.282   6.201 -1.1852  1.1832  2.0980
 6943WAT     H228493   4.061   0.392   6.130  1.3058 -0.6385  0.5225
 6943WAT    EPW28494   4.007   0.339   6.149  0.4237  0.2231  0.4897
 6944WAT      O28495   1.655   2.748   2.987  0.1932  0.4925 -0.0069
 6944WAT     H128496   1.700   2.733   3.060  0.6865 -1.6808 -0.6761
 6944WAT     H228497   1.584   2.698   2.996  0.7511 -0.6363 -1.3871
 6944WAT    EPW28498   1.651   2.738   2.999  0.3485  0.0047 -0.3096
 6945WAT      O28499   5.146   3.455   7.269 -0.3238  0.3549 -0.7573
 6945WAT     H128500   5.171   3.534   7.297  0.9878 -0.3358  0.1358
 6945WAT     H228501   5.218   3.407   7.277 -1.7554 -1.6484  1.4377
 6945WAT    EPW28502   5.160   3.460   7.274 -0.3415 -0.0431 -0.3011
 6946WAT      O28503   5.358   6.469   3.155  0.0911 -0.6267 -0.1556
 6946WAT     H128504   5.308   6.400   3.136 -0.5593 -0.8907  2.1807
 6946WAT     H228505   5.387   6.452   3.236  0.7466  1.3636  0.0894
 6946WAT    EPW28506   5.355   6.457   3.164  0.0919 -0.3717  0.2257
 6947WAT      O28507   2.569   4.244   6.244  0.0486  0.4604  0.6226
 6947WAT     H128508   2.634   4.275   6.195 -0.5533  0.8604  0.0501
 6947WAT     H228509   2.575   4.158   6.236 -0.4842  0.5335 -0.7809
 6947WAT    EPW28510   2.579   4.236   6.236 -0.1190  0.5303  0.3307
 6948WAT      O28511   0.267   3.568   3.395  0.5518 -0.1622  0.1602
 6948WAT     H128512   0.338   3.535   3.357  0.7606 -0.0186  0.4222
 6948WAT     H228513   0.295   3.644   3.428  0.2218  0.0009  0.0689
 6948WAT    EPW28514   0.281   3.575   3.394  0.5339 -0.1169  0.1854
 6949WAT      O28515   0.135   5.183   4.923 -0.1488 -0.0330 -0.1458
 6949WAT     H128516   0.133   5.256   4.970 -0.2162  0.2559 -0.5909
 6949WAT     H228517   0.053   5.153   4.928 -0.0453 -0.2544  0.3005
 6949WAT    EPW28518   0.123   5.189   4.931 -0.1435 -0.0231 -0.1456
 6950WAT      O28519   2.520   4.504   4.339  0.7011  0.5241  0.0224
 6950WAT     H128520   2.535   4.455   4.268  0.5344 -0.0991  0.4115
 6950WAT     H228521   2.589   4.490   4.389  0.0147 -0.4359  0.7464
 6950WAT    EPW28522   2.532   4.495   4.336  0.5751  0.2902  0.1868
 6951WAT      O28523   4.342   4.741   1.429  0.0681  0.5414  0.5180
 6951WAT     H128524   4.324   4.684   1.493 -2.3842  0.1170 -0.4504
 6951WAT     H228525   4.337   4.693   1.356 -1.3843  1.8056 -0.2682
 6951WAT    EPW28526   4.338   4.725   1.428 -0.5087  0.6655  0.2588
 6952WAT      O28527   3.853   0.021   1.026  0.2846  0.5668 -0.6706
 6952WAT     H128528   3.897  -0.048   0.995  0.7227  0.7595 -0.4904
 6952WAT     H228529   3.769  -0.001   1.014  0.4132 -0.0441 -0.5126
 6952WAT    EPW28530   3.847   0.007   1.020  0.3683  0.5050 -0.6206
 6953WAT      O28531   2.280   3.605   1.807  0.2530 -0.2027  0.5643
 6953WAT     H128532   2.361   3.581   1.830 -0.1282 -1.7721  0.4150
 6953WAT     H228533   2.245   3.531   1.777 -1.2889  0.4189  0.7469
 6953WAT    EPW28534   2.286   3.590   1.806 -0.0311 -0.3427  0.5692
 6954WAT      O28535   4.008   1.623   5.516 -0.3242  0.7052  0.3540
 6954WAT     H128536   4.063   1.686   5.539  0.5652  0.6573 -1.5017
 6954WAT     H228537   3.965   1.656   5.448 -0.8579 -0.1637  0.2555
 6954WAT    EPW28538   4.009   1.637   5.510 -0.2717  0.5697  0.0653
 6955WAT      O28539   2.151   1.750   4.077 -0.3532 -0.1241 -0.1846
 6955WAT     H128540   2.097   1.708   4.132 -0.4225  0.2142  0.0104
 6955WAT     H228541   2.218   1.695   4.068  0.9146  0.8669  2.3059
 6955WAT    EPW28542   2.153   1.735   4.084 -0.1762  0.0723  0.2121
 6956WAT      O28543   3.751   5.222   6.950 -0.3912  0.0060 -0.4958
 6956WAT     H128544   3.766   5.137   6.935 -0.0801 -0.0267 -0.0244
 6956WAT     H228545   3.787   5.262   6.881 -1.2488 -0.2888 -1.1285
 6956WAT    EPW28546   3.759   5.215   6.938 -0.4719 -0.0424 -0.5196
 6957WAT      O28547   4.442   5.375   1.342  0.2642  0.1724  0.2791
 6957WAT     H128548   4.461   5.320   1.406  0.1525 -1.4114 -0.9953
 6957WAT     H228549   4.377   5.424   1.375  0.6146 -0.1952  1.5552
 6957WAT    EPW28550   4.435   5.374   1.356  0.2994 -0.1159  0.2794
 6958WAT      O28551   3.753   6.227   4.929  0.1786 -0.5028  0.7218
 6958WAT     H128552   3.734   6.152   4.970  1.4309 -0.2290  1.8521
 6958WAT     H228553   3.836   6.218   4.907 -0.0716 -0.0194 -0.4679
 6958WAT    EPW28554   3.762   6.215   4.932  0.3266 -0.3910  0.7130
 6959WAT      O28555   5.382   7.214   4.364 -0.1391 -0.1772  0.0533
 6959WAT     H128556   5.433   7.278   4.395 -1.4112  0.6016  0.5980
 6959WAT     H228557   5.323   7.202   4.427  0.7223 -2.7298  0.4913
 6959WAT    EPW28558   5.381   7.222   4.378 -0.1997 -0.4393  0.1985
 6960WAT      O28559   1.786   2.304   0.510  0.3253  0.0874 -0.8880
 6960WAT     H128560   1.767   2.355   0.441  1.0053  1.1650 -0.3097
 6960WAT     H228561   1.710   2.298   0.553  0.3546  1.1126 -0.6636
 6960WAT    EPW28562   1.772   2.311   0.506  0.4301  0.3980 -0.7694
 6961WAT      O28563   4.091   6.725   6.978 -0.4887  0.5921  0.2308
 6961WAT     H128564   4.136   6.775   7.034  0.0220  0.3874  0.0164
 6961WAT     H228565   4.039   6.781   6.937 -1.4952  0.6211  1.5058
 6961WAT    EPW28566   4.090   6.740   6.980 -0.5620  0.5662  0.3875
 6962WAT      O28567   0.015   0.559   0.293 -0.0957  0.0236  0.0993
 6962WAT     H128568   0.093   0.592   0.312 -0.7391  0.3901  2.3178
 6962WAT     H228569  -0.031   0.628   0.264  0.0894  0.0125 -0.2234
 6962WAT    EPW28570   0.020   0.574   0.291 -0.1634  0.0761  0.3793
 6963WAT      O28571   6.509   5.874   6.991  0.1064 -0.3744 -0.2183
 6963WAT     H128572   6.568   5.933   6.964 -0.9702  0.2836 -1.2106
 6963WAT     H228573   6.508   5.885   7.078  0.9575  0.0612 -0.2530
 6963WAT    EPW28574   6.518   5.885   7.000  0.0731 -0.2128 -0.3700
 6964WAT      O28575   2.778   5.560   3.344 -0.5380  0.2934  0.0939
 6964WAT     H128576   2.845   5.507   3.327  0.0232  0.9301  0.2927
 6964WAT     H228577   2.733   5.516   3.405 -0.3767 -0.1858 -0.1229
 6964WAT    EPW28578   2.781   5.545   3.350 -0.4313  0.3167  0.0912
 6965WAT      O28579   5.426   0.351   4.385  0.1189  0.4899 -0.3467
 6965WAT     H128580   5.418   0.438   4.382 -0.6273  0.4117 -2.4316
 6965WAT     H228581   5.361   0.323   4.333  0.3426 -1.3281  0.2744
 6965WAT    EPW28582   5.415   0.360   4.377  0.0417  0.2098 -0.5629
 6966WAT      O28583   1.210   7.265   0.204  0.2934  0.3299  0.6020
 6966WAT     H128584   1.217   7.183   0.233  0.8686 -0.0677 -0.6120
 6966WAT     H228585   1.149   7.260   0.142 -0.0211  0.9211  0.8564
 6966WAT    EPW28586   1.202   7.252   0.199  0.3319  0.3585  0.4602
 6967WAT      O28587   3.945   3.586   7.317  0.0266 -0.0585 -0.4710
 6967WAT     H128588   3.968   3.512   7.278  2.6923  0.2675  0.2855
 6967WAT     H228589   3.895   3.626   7.258 -1.0297 -2.1813 -1.0960
 6967WAT    EPW28590   3.941   3.581   7.302  0.2643 -0.3239 -0.4516
 6968WAT      O28591   0.278   5.609   4.385  0.2822  0.0199 -0.9025
 6968WAT     H128592   0.348   5.559   4.400 -0.1877  0.2555  3.2987
 6968WAT     H228593   0.211   5.557   4.402 -0.3075  1.1553  0.4670
 6968WAT    EPW28594   0.278   5.594   4.390  0.1257  0.2224 -0.0795
 6969WAT      O28595   3.455   1.663   3.224 -0.0633 -0.3158  0.2765
 6969WAT     H128596   3.414   1.604   3.274  0.9096 -0.1338  1.3478
 6969WAT     H228597   3.399   1.679   3.160 -1.2349 -0.8200  1.1392
 6969WAT    EPW28598   3.441   1.657   3.222 -0.0926 -0.3634  0.5622
 6970WAT      O28599   2.964   7.024   6.548  0.2408  0.3394  0.7247
 6970WAT     H128600   3.038   7.027   6.502  0.4892 -1.7483  0.9092
 6970WAT     H228601   2.986   7.059   6.625  0.4431  1.6537  0.1043
 6970WAT    EPW28602   2.978   7.030   6.553  0.3074  0.2251  0.6603
 6971WAT      O28603   7.269   3.477   6.274  1.1135  0.2699  0.0704
 6971WAT     H128604   7.251   3.560   6.292 -1.8877 -0.4514  0.8938
 6971WAT     H228605   7.323   3.482   6.206 -0.9991  2.9079 -1.5951
 6971WAT    EPW28606   7.275   3.490   6.266  0.3581  0.5531 -0.0540
 6972WAT      O28607   0.608   1.125   4.412 -0.0403  0.0820 -0.2014
 6972WAT     H128608   0.537   1.125   4.362 -0.5192  0.1097  0.4556
 6972WAT     H228609   0.637   1.207   4.406 -0.0158  0.0501 -0.5364
 6972WAT    EPW28610   0.601   1.137   4.404 -0.1074  0.0814 -0.1538
 6973WAT      O28611   3.330   1.751   1.718  1.0423 -0.7486 -0.5349
 6973WAT     H128612   3.362   1.670   1.724  1.1225 -0.6591  0.4739
 6973WAT     H228613   3.332   1.780   1.801 -1.7283 -0.7727 -0.3530
 6973WAT    EPW28614   3.335   1.743   1.731  0.6448 -0.7389 -0.3590
 6974WAT      O28615   3.003   6.852   4.860 -0.3112 -0.0962 -0.0602
 6974WAT     H128616   3.002   6.766   4.847  3.0459 -0.5578  1.7906
 6974WAT     H228617   2.961   6.862   4.936  0.3430 -0.2557  0.3244
 6974WAT    EPW28618   2.997   6.841   4.869  0.2813 -0.1879  0.2700
 6975WAT      O28619   7.048   5.715   2.133 -0.2671  0.2428 -0.3531
 6975WAT     H128620   7.129   5.723   2.162 -0.0409 -1.0336 -0.5836
 6975WAT     H228621   7.057   5.671   2.058 -1.3252 -2.1746  0.8369
 6975WAT    EPW28622   7.061   5.710   2.126 -0.3900 -0.3028 -0.2114
 6976WAT      O28623   2.686   3.465   5.284 -0.1577 -0.6225  0.2971
 6976WAT     H128624   2.632   3.398   5.276 -0.2449 -0.4325 -0.9007
 6976WAT     H228625   2.740   3.457   5.215  1.8967 -1.2734  1.8819
 6976WAT    EPW28626   2.686   3.454   5.272  0.1329 -0.6906  0.3543
 6977WAT      O28627   7.095   4.796   1.908 -0.1667 -0.1449 -0.3837
 6977WAT     H128628   7.129   4.876   1.896  1.3444 -0.7643 -0.4404
 6977WAT     H228629   7.069   4.797   1.992  1.7391 -0.2445  0.2400
 6977WAT    EPW28630   7.096   4.808   1.919  0.3381 -0.2511 -0.2999
 6978WAT      O28631   2.056   2.047   1.591  0.4810  0.4069 -0.1738
 6978WAT     H128632   1.997   2.057   1.654  0.4947  0.1223 -0.1164
 6978WAT     H228633   2.111   2.114   1.603  0.8029  0.0317  0.4707
 6978WAT    EPW28634   2.055   2.058   1.602  0.5305  0.3094 -0.0701
 6979WAT      O28635   4.878   6.896   6.729 -0.2066  0.3453 -0.1609
 6979WAT     H128636   4.905   6.926   6.806  0.2141  0.7779 -0.4711
 6979WAT     H228637   4.851   6.815   6.747 -1.0468  0.7802  0.6230
 6979WAT    EPW28638   4.878   6.889   6.743 -0.2686  0.4735 -0.0909
 6980WAT      O28639   6.857   4.115   6.948  0.5799  0.3635 -0.0405
 6980WAT     H128640   6.882   4.037   6.979 -0.2198 -0.6043 -1.6485
 6980WAT     H228641   6.931   4.160   6.943  0.9606  0.0245  1.6577
 6980WAT    EPW28642   6.871   4.110   6.952  0.5180  0.1704 -0.0272
 6981WAT      O28643   2.634   6.419   1.447  0.5422 -0.1830 -0.1254
 6981WAT     H128644   2.691   6.361   1.417  0.6601  0.8713 -2.0941
 6981WAT     H228645   2.685   6.483   1.478  0.5006  0.8146 -1.9966
 6981WAT    EPW28646   2.650   6.420   1.447  0.5535  0.1201 -0.6927
 6982WAT      O28647   5.881   5.318   2.475  0.3753  0.1470 -0.5366
 6982WAT     H128648   5.908   5.349   2.552  0.1613 -0.3657 -0.2556
 6982WAT     H228649   5.889   5.232   2.483  0.1012  0.0748 -0.9972
 6982WAT    EPW28650   5.886   5.310   2.487  0.3032  0.0606 -0.5632
 6983WAT      O28651   6.537   4.457   0.910 -0.0223 -0.0001  0.2961
 6983WAT     H128652   6.497   4.495   0.842 -1.0567 -0.3202  0.7095
 6983WAT     H228653   6.528   4.372   0.894  0.5527 -0.0817  0.3765
 6983WAT    EPW28654   6.530   4.450   0.897 -0.0902 -0.0595  0.3691
 6984WAT      O28655   3.323   2.706   2.149  0.5014 -0.5615  0.1575
 6984WAT     H128656   3.296   2.707   2.232  0.4801 -1.3930  0.1714
 6984WAT     H228657   3.359   2.785   2.137 -0.1582 -0.1654  0.7326
 6984WAT    EPW28658   3.324   2.718   2.159  0.4008 -0.6258  0.2445
 6985WAT      O28659   1.016   3.250   5.824 -0.8584  0.2099 -0.1934
 6985WAT     H128660   0.931   3.266   5.833 -0.5129  1.2061  1.9087
 6985WAT     H228661   1.054   3.326   5.847  0.6121 -0.4406 -0.3510
 6985WAT    EPW28662   1.009   3.264   5.829 -0.5901  0.2610  0.0938
 6986WAT      O28663   2.694   3.767   3.796 -0.1267  0.1629  0.5993
 6986WAT     H128664   2.674   3.722   3.868 -2.5905  0.8368  0.4473
 6986WAT     H228665   2.654   3.722   3.733  1.6825 -0.2050 -0.3281
 6986WAT    EPW28666   2.685   3.754   3.798 -0.2234  0.2081  0.4399
 6987WAT      O28667   6.780   6.116   2.560  0.5456  0.9838  0.4845
 6987WAT     H128668   6.778   6.194   2.599 -0.3107  0.9607  0.5075
 6987WAT     H228669   6.850   6.121   2.508  0.3891  1.8439  0.3378
 6987WAT    EPW28670   6.790   6.128   2.558  0.3960  1.1074  0.4662
 6988WAT      O28671   3.253   2.654   1.026  0.2138 -0.0280 -0.5021
 6988WAT     H128672   3.264   2.603   1.095 -2.7421 -1.0170 -0.6178
 6988WAT     H228673   3.325   2.642   0.979  0.6043 -2.3680  0.5599
 6988WAT    EPW28674   3.265   2.645   1.029 -0.1651 -0.5198 -0.3623
 6989WAT      O28675   1.712   0.888   7.146  0.0233  0.4432  0.6310
 6989WAT     H128676   1.725   0.827   7.085  0.3740  0.3953  0.7493
 6989WAT     H228677   1.769   0.950   7.125  1.0642 -0.1257  1.6293
 6989WAT    EPW28678   1.723   0.888   7.134  0.2289  0.3521  0.7959
 6990WAT      O28679   6.215   4.768   3.212 -0.4138  1.1396 -0.1972
 6990WAT     H128680   6.188   4.785   3.131 -0.8223  0.5644 -0.1916
 6990WAT     H228681   6.150   4.720   3.245  0.8371 -0.8000 -0.3617
 6990WAT    EPW28682   6.201   4.763   3.205 -0.2894  0.7681 -0.2207
 6991WAT      O28683   6.640   3.566   4.262 -0.1991  0.5472  0.5262
 6991WAT     H128684   6.721   3.592   4.277  0.8636 -1.3430 -1.2877
 6991WAT     H228685   6.650   3.483   4.235 -2.8747 -0.2662  1.7201
 6991WAT    EPW28686   6.653   3.557   4.260 -0.4373  0.1478  0.4346
 6992WAT      O28687   1.393   5.178   7.040  0.0599 -0.2416  0.1337
 6992WAT     H128688   1.373   5.208   7.120 -2.2493  0.9268 -0.8065
 6992WAT     H228689   1.317   5.151   7.008  0.8041 -0.0241 -1.9655
 6992WAT    EPW28690   1.379   5.178   7.047 -0.1713 -0.0369 -0.3153
 6993WAT      O28691   0.501   6.295   3.860 -0.3207 -0.1194 -0.6739
 6993WAT     H128692   0.577   6.334   3.842 -0.5433  0.6383 -0.0011
 6993WAT     H228693   0.524   6.228   3.911 -0.2834  1.3783  1.3743
 6993WAT    EPW28694   0.516   6.291   3.865 -0.3481  0.2138 -0.2719
 6994WAT      O28695   2.610   0.551   0.760 -0.2152 -0.4682  0.4920
 6994WAT     H128696   2.627   0.587   0.838 -1.0065  0.1918  0.3657
 6994WAT     H228697   2.682   0.504   0.744  0.2815  0.0010  1.2640
 6994WAT    EPW28698   2.623   0.549   0.769 -0.2587 -0.3014  0.5874
 6995WAT      O28699   1.451   5.244   2.865  0.4850  0.2714  0.0359
 6995WAT     H128700   1.499   5.316   2.853  1.3460 -0.4123 -0.9012
 6995WAT     H228701   1.404   5.239   2.791  3.8899 -2.5751 -2.2847
 6995WAT    EPW28702   1.451   5.254   2.852  1.1151 -0.2501 -0.4454
 6996WAT      O28703   5.309   6.399   0.200  0.3204 -0.0285 -0.1327
 6996WAT     H128704   5.301   6.356   0.125  0.5591 -0.5590  0.1441
 6996WAT     H228705   5.393   6.419   0.204  0.2017  0.5253 -0.2889
 6996WAT    EPW28706   5.320   6.396   0.190  0.3382 -0.0251 -0.1149
 6997WAT      O28707   3.950   0.677   0.548 -0.0809  0.3067 -0.1044
 6997WAT     H128708   4.009   0.676   0.612  0.7789 -0.7510 -0.8795
 6997WAT     H228709   3.999   0.668   0.476 -1.1946 -0.5557 -0.7680
 6997WAT    EPW28710   3.966   0.676   0.546 -0.1184  0.0231 -0.3169
 6998WAT      O28711   6.155   3.855   3.955  0.0168  0.0979 -0.3556
 6998WAT     H128712   6.212   3.874   4.018  0.2218  0.1921 -0.5704
 6998WAT     H228713   6.148   3.929   3.911 -0.7070  0.2601  0.0075
 6998WAT    EPW28714   6.162   3.869   3.958 -0.0598  0.1358 -0.3337
 6999WAT      O28715   2.067   7.119   5.419 -0.4960 -0.2099  0.5225
 6999WAT     H128716   2.013   7.055   5.397  0.5734 -1.1681  0.5885
 6999WAT     H228717   2.096   7.149   5.342 -0.1995 -0.5255  0.5069
 6999WAT    EPW28718   2.063   7.114   5.404 -0.2942 -0.3980  0.5300
 7000WAT      O28719   1.764   6.732   1.877  0.1278 -0.5394  0.2675
 7000WAT     H128720   1.691   6.777   1.862  0.8827 -0.0363 -2.4876
 7000WAT     H228721   1.735   6.655   1.907 -1.5936 -0.4482 -0.9699
 7000WAT    EPW28722   1.749   6.727   1.879 -0.0150 -0.4516 -0.3223
 7001WAT      O28723   1.040   2.076   5.783  0.0011 -0.2628 -0.0986
 7001WAT     H128724   1.006   1.995   5.777  0.1075 -0.1800 -3.0222
 7001WAT     H228725   0.971   2.126   5.800 -0.6144 -0.6271 -1.4355
 7001WAT    EPW28726   1.025   2.071   5.785 -0.0741 -0.3044 -0.7280
 7002WAT      O28727   6.455   4.460   2.181  0.1520  0.7590 -0.3154
 7002WAT     H128728   6.461   4.499   2.103 -3.3153  1.6429 -0.3194
 7002WAT     H228729   6.460   4.526   2.238 -0.5502  0.5738 -0.0204
 7002WAT    EPW28730   6.456   4.475   2.178 -0.4639  0.8622 -0.2724
 7003WAT      O28731   1.903   2.660   5.422  0.0699  0.3075  0.1124
 7003WAT     H128732   1.895   2.706   5.348  1.6098  0.5771  0.0955
 7003WAT     H228733   1.913   2.578   5.393 -2.4187 -0.0870  0.1384
 7003WAT    EPW28734   1.903   2.654   5.407 -0.0703  0.2890  0.1137
 7004WAT      O28735   0.552   6.545   0.067  0.1222  0.0312  0.3123
 7004WAT     H128736   0.529   6.621   0.031  0.5654 -0.3394 -0.8038
 7004WAT     H228737   0.509   6.486   0.019  1.6824 -0.5482 -0.4425
 7004WAT    EPW28738   0.542   6.548   0.054  0.4181 -0.1091  0.0359
 7005WAT      O28739   2.247   0.993   6.943  0.1726 -0.3304 -0.4525
 7005WAT     H128740   2.278   1.058   6.992 -2.3799  1.5154 -1.1063
 7005WAT     H228741   2.187   0.955   6.994 -1.4705  0.6836 -1.5431
 7005WAT    EPW28742   2.243   0.997   6.958 -0.4472  0.0920 -0.7102
 7006WAT      O28743   1.415   4.619   6.251  0.4537 -0.0998 -0.7112
 7006WAT     H128744   1.449   4.695   6.274  0.1279  0.3240 -1.5842
 7006WAT     H228745   1.482   4.578   6.212  0.9879 -0.7934  0.8407
 7006WAT    EPW28746   1.430   4.624   6.248  0.4845 -0.1396 -0.6109
 7007WAT      O28747   1.506   6.474   3.872 -0.4433 -0.2242 -0.0235
 7007WAT     H128748   1.438   6.433   3.908 -0.3930  0.2193  0.6090
 7007WAT     H228749   1.549   6.412   3.829 -0.4171 -0.8105  0.8337
 7007WAT    EPW28750   1.502   6.459   3.871 -0.4320 -0.2453  0.1966
 7008WAT      O28751   2.281   2.097   6.786  0.4064  0.2882  0.0475
 7008WAT     H128752   2.279   2.075   6.701  1.0963  0.8139 -0.1123
 7008WAT     H228753   2.358   2.068   6.813  0.0378 -0.2107  0.6061
 7008WAT    EPW28754   2.292   2.090   6.777  0.4538  0.2922  0.1064
 7009WAT      O28755   3.004   1.571   5.139 -0.2309  0.2590  0.2423
 7009WAT     H128756   2.989   1.653   5.115  0.2112  0.6429  1.2196
 7009WAT     H228757   2.929   1.547   5.178 -0.5351  0.0254 -0.4762
 7009WAT    EPW28758   2.991   1.579   5.142 -0.2105  0.2812  0.2805
 7010WAT      O28759   0.423   0.707   5.017  0.6007  0.4908 -0.5929
 7010WAT     H128760   0.491   0.692   5.070 -0.0678 -0.2648  0.0894
 7010WAT     H228761   0.447   0.777   4.972  1.5800  0.6059  0.0722
 7010WAT    EPW28762   0.436   0.715   5.018  0.6466  0.3961 -0.3939
 7011WAT      O28763   6.495   1.518   1.232 -0.1786 -0.3325  0.8719
 7011WAT     H128764   6.572   1.557   1.217 -0.3838 -0.3978 -0.5563
 7011WAT     H228765   6.513   1.433   1.222 -0.2977 -0.4010  1.2269
 7011WAT    EPW28766   6.509   1.511   1.228 -0.2265 -0.3523  0.7134
 7012WAT      O28767   0.661   4.487   5.431  0.1201 -1.2049 -0.4112
 7012WAT     H128768   0.639   4.491   5.515 -0.1097 -0.6745 -0.4910
 7012WAT     H228769   0.740   4.522   5.429 -1.5234  3.0783 -0.9765
 7012WAT    EPW28770   0.669   4.493   5.443 -0.1566 -0.4938 -0.5065
 7013WAT      O28771   7.007   5.833   6.956  0.1042 -0.3138 -0.3952
 7013WAT     H128772   7.055   5.897   6.990  0.5108 -0.6888 -0.2504
 7013WAT     H228773   7.047   5.816   6.880  0.1238 -0.5366 -0.3358
 7013WAT    EPW28774   7.020   5.840   6.949  0.1671 -0.4021 -0.3650
 7014WAT      O28775   1.574   0.075   3.293 -0.0811  0.3096  0.0081
 7014WAT     H128776   1.643   0.082   3.346 -1.5374  2.5972  1.8044
 7014WAT     H228777   1.529   0.008   3.326 -0.0023  0.4942  0.5029
 7014WAT    EPW28778   1.577   0.066   3.306 -0.2846  0.6748  0.3465
 7015WAT      O28779   2.722   1.005   5.394 -0.0185  0.1448  0.5200
 7015WAT     H128780   2.726   0.958   5.468  1.3079  0.3659  0.6091
 7015WAT     H228781   2.641   1.037   5.395 -0.1725 -0.2298  1.6473
 7015WAT    EPW28782   2.711   1.002   5.405  0.1547  0.1221  0.6997
 7016WAT      O28783   1.414   2.867   4.701 -0.4205 -0.3307  0.4197
 7016WAT     H128784   1.366   2.804   4.664 -0.2647 -0.8927  1.1500
 7016WAT     H228785   1.481   2.824   4.737 -0.8486  0.1038  1.8315
 7016WAT    EPW28786   1.416   2.851   4.701 -0.4607 -0.3495  0.7361
 7017WAT      O28787   2.881   6.389   1.037 -0.7750  0.1088  0.2384
 7017WAT     H128788   2.955   6.405   1.079 -0.5896  1.3138 -0.5031
 7017WAT     H228789   2.907   6.362   0.958 -1.1167 -0.5474  0.3479
 7017WAT    EPW28790   2.896   6.388   1.031 -0.7981  0.1898  0.1451
 7018WAT      O28791   2.718   0.033   7.116 -0.1558 -0.1468  0.1209
 7018WAT     H128792   2.792   0.040   7.163  0.5723  0.6150 -1.0743
 7018WAT     H228793   2.736  -0.030   7.058 -1.4896 -1.9583  1.5657
 7018WAT    EPW28794   2.732   0.025   7.115 -0.2453 -0.3018  0.1578
 7019WAT      O28795   6.067   1.171   3.204  0.0961  0.3884 -0.0026
 7019WAT     H128796   6.022   1.167   3.279 -0.2370  0.3561 -0.2000
 7019WAT     H228797   6.086   1.255   3.197 -1.2441  0.6639 -0.6647
 7019WAT    EPW28798   6.063   1.183   3.214 -0.1511  0.4243 -0.1296
 7020WAT      O28799   0.984   6.905   3.492  0.5599  0.1972 -0.0611
 7020WAT     H128800   0.992   6.992   3.490  0.5846  0.2326  1.1068
 7020WAT     H228801   0.899   6.892   3.477  0.5141  0.4275 -0.0016
 7020WAT    EPW28802   0.973   6.916   3.489  0.5568  0.2365  0.1202
 7021WAT      O28803   6.009   5.075   3.710  0.2062  0.2730  0.0742
 7021WAT     H128804   5.980   5.112   3.636 -0.0492 -0.2520 -0.0909
 7021WAT     H228805   5.936   5.059   3.755  0.3760  0.8362  0.5614
 7021WAT    EPW28806   5.994   5.078   3.706  0.1935  0.2786  0.1218
 7022WAT      O28807   0.095   1.027   2.700  0.0100  0.2692 -0.7525
 7022WAT     H128808   0.118   1.014   2.617  1.1080  0.2936 -0.4692
 7022WAT     H228809   0.112   1.112   2.713 -1.5423  0.6347 -0.9053
 7022WAT    EPW28810   0.101   1.038   2.690 -0.0571  0.3268 -0.7332
 7023WAT      O28811   1.579   3.528   4.668  0.5741 -0.2358 -0.6215
 7023WAT     H128812   1.492   3.528   4.671  0.4617  1.0351  4.2369
 7023WAT     H228813   1.599   3.610   4.647  0.6695 -0.5095 -1.6638
 7023WAT    EPW28814   1.569   3.540   4.666  0.5716 -0.0885 -0.0578
 7024WAT      O28815   6.845   0.689   1.503 -0.1810  0.1274  0.1304
 7024WAT     H128816   6.883   0.611   1.507  0.0936  0.0845 -2.0293
 7024WAT     H228817   6.871   0.720   1.426 -0.1092  2.4511  1.0072
 7024WAT    EPW28818   6.855   0.682   1.492 -0.1299  0.4643 -0.0591
 7025WAT      O28819   1.354   0.567   7.180 -1.0107  0.0830 -0.1697
 7025WAT     H128820   1.287   0.576   7.124 -1.8171  1.0095  0.9133
 7025WAT     H228821   1.341   0.630   7.238  1.7007  1.3736 -0.7944
 7025WAT    EPW28822   1.342   0.578   7.180 -0.7293  0.4105 -0.1020
 7026WAT      O28823   0.813   2.804   1.453  0.1895  0.2327  0.6437
 7026WAT     H128824   0.773   2.822   1.377 -1.5866  0.2503  1.5212
 7026WAT     H228825   0.887   2.849   1.448 -0.2787  0.9366 -0.7302
 7026WAT    EPW28826   0.818   2.813   1.441 -0.1420  0.3393  0.5704
 7027WAT      O28827   6.472   1.019   6.014 -0.3024  0.3729 -0.1646
 7027WAT     H128828   6.423   1.036   5.945 -1.6352 -0.6081  0.4990
 7027WAT     H228829   6.519   0.950   5.990 -1.3104 -0.4400  0.1309
 7027WAT    EPW28830   6.472   1.011   6.001 -0.6482  0.1079 -0.0229
 7028WAT      O28831   0.999   3.418   0.486  0.1967 -0.1899 -0.1619
 7028WAT     H128832   0.912   3.432   0.487  0.3805  1.1801 -0.6712
 7028WAT     H228833   1.032   3.498   0.475  1.4818 -0.8293 -1.2882
 7028WAT    EPW28834   0.991   3.432   0.484  0.4136 -0.0820 -0.4035
 7029WAT      O28835   4.482   6.455   4.948  0.2879 -0.2595  0.2395
 7029WAT     H128836   4.515   6.420   5.022 -0.2000  3.2543  2.3275
 7029WAT     H228837   4.431   6.392   4.917 -1.4626 -1.1576  4.3183
 7029WAT    EPW28838   4.479   6.440   4.954 -0.0428  0.1269  1.1505
 7030WAT      O28839   5.232   2.445   7.049 -0.2190  0.1827  0.1223
 7030WAT     H128840   5.305   2.402   7.029  0.2153  0.6169  0.7471
 7030WAT     H228841   5.214   2.489   6.976 -0.3374 -0.5710 -0.3207
 7030WAT    EPW28842   5.240   2.445   7.035 -0.1723  0.1355  0.1491
 7031WAT      O28843   3.587   5.385   1.232  0.0200  0.4974 -0.5437
 7031WAT     H128844   3.516   5.372   1.282  0.4629 -0.3539 -0.1109
 7031WAT     H228845   3.631   5.446   1.275  0.5552 -0.4569  0.3074
 7031WAT    EPW28846   3.583   5.392   1.246  0.1645  0.2307 -0.3540
 7032WAT      O28847   4.692   6.602   3.271  0.3591  0.1141 -0.1879
 7032WAT     H128848   4.751   6.550   3.309  1.2236  1.3247  0.1694
 7032WAT     H228849   4.722   6.613   3.190  1.2313  1.5774  0.3005
 7032WAT    EPW28850   4.705   6.596   3.265  0.6156  0.5091 -0.0629
 7033WAT      O28851   2.633   4.093   1.516 -0.1501  0.6920 -0.4139
 7033WAT     H128852   2.716   4.116   1.527 -0.0754 -0.5095  2.4319
 7033WAT     H228853   2.636   4.006   1.506 -0.9946  0.8147 -2.2883
 7033WAT    EPW28854   2.646   4.083   1.516 -0.2638  0.5326 -0.2704
 7034WAT      O28855   2.961   6.864   3.055  0.0721 -0.3315 -0.2763
 7034WAT     H128856   2.970   6.926   3.116  2.0751 -0.4192 -0.4042
 7034WAT     H228857   2.948   6.909   2.982 -1.0809 -0.1761  0.0173
 7034WAT    EPW28858   2.961   6.880   3.053  0.1977 -0.3215 -0.2518
 7035WAT      O28859   6.821   5.002   1.346 -0.3782  0.1676  0.5502
 7035WAT     H128860   6.895   5.048   1.338 -0.7639  0.5427 -1.1438
 7035WAT     H228861   6.849   4.925   1.376  0.5868  0.6050  0.8358
 7035WAT    EPW28862   6.836   4.998   1.349 -0.2926  0.2876  0.3422
 7036WAT      O28863   0.479   3.592   5.671  0.3064  0.4073  0.1397
 7036WAT     H128864   0.452   3.569   5.751  0.3037  0.3810  0.1314
 7036WAT     H228865   0.408   3.582   5.622  0.4706 -0.1895  0.0161
 7036WAT    EPW28866   0.465   3.587   5.676  0.3303  0.3153  0.1202
 7037WAT      O28867   3.245   6.813   6.548  0.2069 -0.1970  0.0616
 7037WAT     H128868   3.210   6.757   6.491  2.0452  1.2296 -2.7030
 7037WAT     H228869   3.261   6.884   6.499  0.5698  1.7271  2.7407
 7037WAT    EPW28870   3.242   6.815   6.533  0.5321  0.2980  0.0490
 7038WAT      O28871   4.759   6.175   5.775  0.1000  0.1106  0.6340
 7038WAT     H128872   4.781   6.169   5.859  0.5979  0.7232  0.5516
 7038WAT     H228873   4.689   6.124   5.769  0.9594 -1.1804  1.0894
 7038WAT    EPW28874   4.752   6.166   5.787  0.3005  0.0104  0.6891
 7039WAT      O28875   5.978   0.361   4.194  0.1049  0.0344 -0.3657
 7039WAT     H128876   5.985   0.439   4.156  0.8052 -0.0628 -0.4571
 7039WAT     H228877   6.026   0.368   4.266 -0.4418 -0.0811  0.0121
 7039WAT    EPW28878   5.986   0.374   4.199  0.1276  0.0030 -0.3234
 7040WAT      O28879   2.700   3.540   6.298  0.1334  0.2214 -0.2202
 7040WAT     H128880   2.693   3.602   6.237 -0.3947  1.8608  1.4132
 7040WAT     H228881   2.630   3.489   6.284  0.6823 -0.1819 -1.7023
 7040WAT    EPW28882   2.689   3.541   6.287  0.1365  0.4040 -0.1979
 7041WAT      O28883   5.826   6.707   1.277 -0.3134  0.4870  0.1124
 7041WAT     H128884   5.742   6.693   1.296 -0.4708 -0.5874 -1.2284
 7041WAT     H228885   5.824   6.769   1.216 -0.4042 -1.5346 -2.0780
 7041WAT    EPW28886   5.814   6.714   1.271 -0.3501  0.0297 -0.4093
 7042WAT      O28887   5.302   5.677   2.130 -0.1276  0.0603 -0.0364
 7042WAT     H128888   5.373   5.707   2.172 -0.3550  0.7328 -0.1241
 7042WAT     H228889   5.330   5.602   2.094  1.1155  1.2823 -1.7245
 7042WAT    EPW28890   5.317   5.670   2.131  0.0224  0.3402 -0.2987
 7043WAT      O28891   3.776   6.899   0.128  0.1507  0.0766 -0.3717
 7043WAT     H128892   3.783   6.977   0.168  1.2664 -0.2714  0.1414
 7043WAT     H228893   3.765   6.844   0.194 -0.0747 -0.2783 -0.7022
 7043WAT    EPW28894   3.776   6.903   0.144  0.2822 -0.0272 -0.3447
 7044WAT      O28895   1.117   0.242   0.324 -0.0508  0.0065  0.4485
 7044WAT     H128896   1.113   0.162   0.291  0.5276 -0.6313  1.8604
 7044WAT     H228897   1.184   0.279   0.283  1.4523 -1.1944  1.7201
 7044WAT    EPW28898   1.126   0.236   0.313  0.2567 -0.2651  0.8449
 7045WAT      O28899   6.813   5.049   0.847 -0.2484 -0.5151 -0.1425
 7045WAT     H128900   6.897   5.025   0.848 -0.7278 -2.3321  0.7167
 7045WAT     H228901   6.813   5.123   0.801  1.7584 -0.7177 -0.5408
 7045WAT    EPW28902   6.825   5.057   0.840 -0.0228 -0.8134 -0.0745
 7046WAT      O28903   4.950   3.365   1.813  0.2814 -0.8783  0.0864
 7046WAT     H128904   5.017   3.420   1.803  0.6091 -0.6267  2.7711
 7046WAT     H228905   4.888   3.414   1.850 -1.1888 -1.2793 -1.7036
 7046WAT    EPW28906   4.951   3.380   1.817  0.1126 -0.9004  0.2186
 7047WAT      O28907   2.241   6.791   3.554  0.7087 -0.0444  0.4179
 7047WAT     H128908   2.280   6.732   3.502  0.3710 -0.2578  0.4054
 7047WAT     H228909   2.224   6.746   3.626 -0.7711 -0.3354 -0.0911
 7047WAT    EPW28910   2.245   6.776   3.557  0.4402 -0.1189  0.3409
 7048WAT      O28911   1.106   2.091   5.144  0.2461  0.0808  0.3159
 7048WAT     H128912   1.083   2.111   5.063  1.4846 -0.7846 -0.2732
 7048WAT     H228913   1.031   2.092   5.188 -0.8188 -1.7948 -1.3301
 7048WAT    EPW28914   1.092   2.094   5.139  0.2717 -0.3241 -0.0143
 7049WAT      O28915   2.759   7.132   4.802  0.4578 -0.1336 -0.0639
 7049WAT     H128916   2.821   7.088   4.846  0.9440 -0.5758 -1.1539
 7049WAT     H228917   2.801   7.204   4.775 -0.0502  0.5186  0.8190
 7049WAT    EPW28918   2.775   7.136   4.804  0.4546 -0.1026 -0.0945
 7050WAT      O28919   2.596   2.594   5.019  0.2590  0.1347  0.6264
 7050WAT     H128920   2.550   2.661   5.051  1.3348  1.0859  0.2862
 7050WAT     H228921   2.676   2.628   5.010  0.3414 -0.5298 -1.6898
 7050WAT    EPW28922   2.601   2.609   5.023  0.4301  0.1771  0.2340
 7051WAT      O28923   0.758   2.142   3.497  0.2251 -0.7638 -0.2175
 7051WAT     H128924   0.707   2.210   3.515 -0.2927 -0.5512 -2.2701
 7051WAT     H228925   0.832   2.179   3.468 -0.3055 -1.0250 -1.9972
 7051WAT    EPW28926   0.762   2.157   3.495  0.0703 -0.7710 -0.7836
 7052WAT      O28927   0.417   5.552   5.910  0.0147 -0.2784  0.7507
 7052WAT     H128928   0.411   5.637   5.929 -2.4831  0.0316 -0.8049
 7052WAT     H228929   0.394   5.549   5.825  0.7208 -2.4582  0.5651
 7052WAT    EPW28930   0.413   5.564   5.900 -0.2500 -0.5546  0.4935
 7053WAT      O28931   5.330   6.135   6.587 -0.4971  0.3452 -0.3624
 7053WAT     H128932   5.410   6.143   6.621 -0.5843  1.1771 -0.3408
 7053WAT     H228933   5.285   6.095   6.650  0.3887 -2.0715 -1.1523
 7053WAT    EPW28934   5.335   6.130   6.601 -0.3791  0.1111 -0.4759
 7054WAT      O28935   2.303   2.235   0.360 -0.0085  0.1597 -0.7821
 7054WAT     H128936   2.313   2.236   0.274  0.8261  0.1317 -0.6910
 7054WAT     H228937   2.218   2.219   0.371 -0.0739 -0.0604 -1.5918
 7054WAT    EPW28938   2.292   2.233   0.349  0.1051  0.1230 -0.8883
 7055WAT      O28939   6.662   3.084   2.462  1.0355  0.4085 -0.0298
 7055WAT     H128940   6.680   3.136   2.394 -1.2064 -0.0698 -1.0742
 7055WAT     H228941   6.625   3.014   2.425  1.0613 -0.5224  1.6029
 7055WAT    EPW28942   6.659   3.081   2.447  0.7082  0.2003  0.0571
 7056WAT      O28943   0.712   4.770   5.157  0.1029 -0.2226 -0.4505
 7056WAT     H128944   0.674   4.763   5.235  2.0663  0.9473  0.7225
 7056WAT     H228945   0.672   4.710   5.109 -0.1776 -2.0985  1.9005
 7056WAT    EPW28946   0.701   4.760   5.162  0.3515 -0.3269  0.0700
 7057WAT      O28947   3.419   7.031   4.752  0.2845 -0.4328  0.7097
 7057WAT     H128948   3.480   7.066   4.700  0.2172  1.2895  1.7159
 7057WAT     H228949   3.453   7.039   4.832 -0.8979 -0.2429  1.2122
 7057WAT    EPW28950   3.433   7.037   4.756  0.0999 -0.1503  0.9326
 7058WAT      O28951   6.531   2.045   4.512 -0.2273  0.3948  0.7834
 7058WAT     H128952   6.580   2.115   4.526  0.2477 -0.0730  1.5536
 7058WAT     H228953   6.543   1.997   4.584 -0.4014 -0.5539  0.1962
 7058WAT    EPW28954   6.540   2.048   4.525 -0.1829  0.1855  0.8104
 7059WAT      O28955   6.598   2.926   0.613 -0.3382 -0.3304 -0.1287
 7059WAT     H128956   6.616   2.844   0.590 -0.4862 -0.5284  0.4406
 7059WAT     H228957   6.587   2.921   0.700  0.8043  0.4871  0.0962
 7059WAT    EPW28958   6.599   2.913   0.623 -0.1913 -0.2389 -0.0113
 7060WAT      O28959   1.744   3.262   4.776 -0.4034  0.2648  0.0542
 7060WAT     H128960   1.737   3.278   4.861 -0.7504  0.5940 -0.0333
 7060WAT     H228961   1.671   3.218   4.757  0.0046 -0.4288  0.0624
 7060WAT    EPW28962   1.733   3.258   4.785 -0.3944  0.2110  0.0425
 7061WAT      O28963   0.832   3.330   5.259  0.5077 -0.0981  0.2208
 7061WAT     H128964   0.825   3.290   5.182  2.0529  0.2730 -0.1457
 7061WAT     H228965   0.870   3.270   5.310  0.4054 -0.0021  0.4099
 7061WAT    EPW28966   0.837   3.315   5.255  0.7208 -0.0291  0.1946
 7062WAT      O28967   0.282   0.630   6.788 -0.1849 -0.8590 -0.4183
 7062WAT     H128968   0.328   0.590   6.725  0.3359 -0.1921 -0.4719
 7062WAT     H228969   0.234   0.688   6.744 -0.0853 -0.6384 -0.2396
 7062WAT    EPW28970   0.282   0.632   6.772 -0.0932 -0.7279 -0.3998
 7063WAT      O28971   7.253   7.191   1.123  0.0384 -0.1353  0.5695
 7063WAT     H128972   7.278   7.191   1.039  0.3222  1.1445  0.6256
 7063WAT     H228973   7.277   7.113   1.152 -0.4020 -0.7323 -0.6390
 7063WAT    EPW28974   7.260   7.180   1.115  0.0153 -0.0344  0.3992
 7064WAT      O28975   0.353   2.017   3.361  0.1025 -0.0846  0.2211
 7064WAT     H128976   0.311   2.039   3.288 -0.8365 -1.3699  0.3496
 7064WAT     H228977   0.437   2.026   3.339 -0.1535  2.6951  0.0192
 7064WAT    EPW28978   0.360   2.022   3.347 -0.0741  0.1362  0.2102
 7065WAT      O28979   4.104   0.323   1.629  0.2377 -0.7116 -0.2196
 7065WAT     H128980   4.125   0.244   1.599  0.3596 -0.8044  0.1095
 7065WAT     H228981   4.056   0.357   1.565  1.3570 -0.5140 -0.9908
 7065WAT    EPW28982   4.100   0.317   1.615  0.4211 -0.6961 -0.2849
 7066WAT      O28983   1.028   1.655   3.548  0.1321 -0.2416  0.4950
 7066WAT     H128984   1.018   1.616   3.471  0.3669  0.5646  0.0533
 7066WAT     H228985   0.990   1.599   3.604 -0.0875 -0.8013 -0.2027
 7066WAT    EPW28986   1.021   1.641   3.545  0.1343 -0.2052  0.3267
 7067WAT      O28987   2.693   5.663   5.001 -0.9848  0.7173 -0.5165
 7067WAT     H128988   2.616   5.672   4.960 -1.1663  1.2560 -0.0816
 7067WAT     H228989   2.745   5.628   4.941 -1.9076 -0.8978 -0.4421
 7067WAT    EPW28990   2.689   5.659   4.986 -1.1479  0.5583 -0.4413
 7068WAT      O28991   2.452   5.182   5.880  0.1819  0.4323  0.5151
 7068WAT     H128992   2.491   5.154   5.952  0.7524 -0.3329 -0.0723
 7068WAT     H228993   2.448   5.111   5.829  1.8133  1.3878 -1.0714
 7068WAT    EPW28994   2.457   5.168   5.883  0.5072  0.4604  0.1940
 7069WAT      O28995   7.012   0.309   4.601 -0.1545 -0.4708  0.2312
 7069WAT     H128996   7.060   0.283   4.533 -0.7135 -1.8965  0.3505
 7069WAT     H228997   7.068   0.304   4.669 -0.3193 -1.7309  0.3045
 7069WAT    EPW28998   7.028   0.305   4.601 -0.2614 -0.8676  0.2596
 7070WAT      O28999   5.093   4.892   2.384 -0.1498 -0.1601  0.1539
 7070WAT     H129000   5.092   4.944   2.314  0.5738  0.3354  0.4969
 7070WAT     H229001   5.092   4.947   2.451  2.3346 -0.4486  0.5397
 7070WAT    EPW29002   5.093   4.908   2.384  0.3241 -0.1295  0.2615
 7071WAT      O29003   1.077   1.173   6.800 -0.3362 -0.5396 -0.1869
 7071WAT     H129004   1.155   1.199   6.828 -0.5734 -1.2123  1.1988
 7071WAT     H229005   1.085   1.086   6.798 -0.5261 -0.5565 -1.7321
 7071WAT    EPW29006   1.090   1.164   6.804 -0.3993 -0.6415 -0.2105
 7072WAT      O29007   6.274   0.902   0.939  0.5154  0.5853  0.4010
 7072WAT     H129008   6.257   0.843   1.001 -0.9813  0.6183  0.0581
 7072WAT     H229009   6.224   0.969   0.961  0.9756  1.1076 -0.1235
 7072WAT    EPW29010   6.264   0.903   0.951  0.3623  0.6673  0.2729
 7073WAT      O29011   0.265   0.651   7.222  0.1424 -0.5157 -0.4385
 7073WAT     H129012   0.334   0.613   7.185  0.8629 -0.8485  1.1747
 7073WAT     H229013   0.267   0.733   7.191  2.6544  0.1866  1.2822
 7073WAT    EPW29014   0.275   0.658   7.212  0.6199 -0.4611  0.0540
 7074WAT      O29015   6.435   1.301   6.613  0.3532  0.0534 -0.2828
 7074WAT     H129016   6.469   1.380   6.626 -0.4859  0.3691  0.0894
 7074WAT     H229017   6.441   1.290   6.527 -0.8312  1.1624 -0.5456
 7074WAT    EPW29018   6.441   1.311   6.603  0.0543  0.2639 -0.2666
 7075WAT      O29019   0.050   3.082   5.297  0.1479  0.3523 -0.4623
 7075WAT     H129020   0.031   3.151   5.346 -0.0741  0.1257 -0.2262
 7075WAT     H229021   0.093   3.029   5.351 -2.0565 -0.9040  0.1815
 7075WAT    EPW29022   0.054   3.084   5.312 -0.2105  0.1332 -0.3323
 7076WAT      O29023   5.885   0.969   7.145  0.4516 -0.1546 -0.2335
 7076WAT     H129024   5.829   1.014   7.195 -0.7189 -0.1115 -1.5027
 7076WAT     H229025   5.896   0.894   7.188  0.3290  0.2855  0.5950
 7076WAT    EPW29026   5.878   0.965   7.159  0.2606 -0.0832 -0.2986
 7077WAT      O29027   4.195   4.772   6.766 -0.0323  0.7362 -0.3081
 7077WAT     H129028   4.271   4.796   6.729 -0.0846 -0.9939 -1.6907
 7077WAT     H229029   4.137   4.780   6.701 -0.8439  1.0854  0.4460
 7077WAT    EPW29030   4.198   4.777   6.751 -0.1599  0.5322 -0.4010
 7078WAT      O29031   0.485   2.134   6.144  0.6472  0.2170 -0.1777
 7078WAT     H129032   0.455   2.055   6.165  1.6683 -0.3540 -0.7796
 7078WAT     H229033   0.485   2.178   6.219  1.7915 -0.9488  0.5413
 7078WAT    EPW29034   0.481   2.129   6.158  0.9671 -0.0396 -0.1604
 7079WAT      O29035   6.177   7.000   4.708  0.1750 -0.0463  0.0760
 7079WAT     H129036   6.114   7.040   4.754  0.0599 -0.4326  0.2500
 7079WAT     H229037   6.217   7.067   4.668 -1.2425  0.1158 -1.1715
 7079WAT    EPW29038   6.173   7.016   4.709 -0.0514 -0.0794 -0.0826
 7080WAT      O29039   6.778   0.751   5.221  0.0908  0.0174 -0.3412
 7080WAT     H129040   6.857   0.770   5.190  0.3655  1.5763  1.1929
 7080WAT     H229041   6.728   0.749   5.149  1.1627  0.9241 -1.1456
 7080WAT    EPW29042   6.782   0.754   5.206  0.2897  0.3816 -0.2334
 7081WAT      O29043   3.318   6.247   5.837  0.1895  0.4237 -0.8836
 7081WAT     H129044   3.337   6.171   5.800 -2.7448 -0.2559 -1.1722
 7081WAT     H229045   3.314   6.303   5.770 -2.2141 -0.1971 -1.3256
 7081WAT    EPW29046   3.320   6.244   5.822 -0.5990  0.2316 -0.9915
 7082WAT      O29047   0.744   1.411   4.422 -0.1025  0.0168  0.3298
 7082WAT     H129048   0.786   1.448   4.489  2.0037 -0.0568 -0.8669
 7082WAT     H229049   0.681   1.468   4.403  1.3842  1.7283  0.2476
 7082WAT    EPW29050   0.741   1.424   4.429  0.4283  0.2587  0.1409
 7083WAT      O29051   3.576   6.775   6.930 -0.5148 -0.4106  0.0641
 7083WAT     H129052   3.586   6.847   6.979 -0.2837 -1.2930  1.3452
 7083WAT     H229053   3.490   6.761   6.933 -0.5727 -0.1404 -0.2668
 7083WAT    EPW29054   3.564   6.784   6.938 -0.4892 -0.5010  0.2045
 7084WAT      O29055   1.329   1.133   4.488  0.3817 -0.1212 -0.5778
 7084WAT     H129056   1.417   1.136   4.489  0.4112 -0.8533  0.8237
 7084WAT     H229057   1.310   1.127   4.403  1.8041 -2.6933 -0.8069
 7084WAT    EPW29058   1.340   1.133   4.476  0.5962 -0.6093 -0.4046
 7085WAT      O29059   6.754   1.244   3.678  0.1478 -0.3288  0.9126
 7085WAT     H129060   6.680   1.199   3.693 -1.5826  1.3212 -1.7350
 7085WAT     H229061   6.753   1.306   3.740 -2.2581  1.2786 -0.5413
 7085WAT    EPW29062   6.743   1.246   3.690 -0.4632  0.1524  0.3067
 7086WAT      O29063   7.198   6.765   6.968  0.6867  0.4265 -0.0587
 7086WAT     H129064   7.165   6.752   6.888 -1.6169  3.0193  0.3283
 7086WAT     H229065   7.209   6.684   6.999  1.0144 -0.6353 -2.7067
 7086WAT    EPW29066   7.194   6.751   6.961  0.3948  0.6526 -0.3927
 7087WAT      O29067   6.386   3.659   4.152  0.2539  0.2972  0.3044
 7087WAT     H129068   6.467   3.636   4.176 -0.2866 -1.0801  0.9048
 7087WAT     H229069   6.335   3.600   4.192 -0.9253  0.0153 -1.4999
 7087WAT    EPW29070   6.391   3.647   4.161 -0.0002  0.0521  0.1266
 7088WAT      O29071   1.311   4.311   5.569 -0.2863 -0.3873 -0.6012
 7088WAT     H129072   1.376   4.299   5.512  0.9711  0.2683  0.6401
 7088WAT     H229073   1.271   4.383   5.541  0.4613  0.0565 -0.5344
 7088WAT    EPW29074   1.315   4.320   5.556  0.0099 -0.2249 -0.4079
 7089WAT      O29075   3.356   2.937   5.600  0.2692  0.1752 -0.6827
 7089WAT     H129076   3.313   2.977   5.664  0.8669 -0.3985  0.0977
 7089WAT     H229077   3.438   2.964   5.611  0.3949 -0.0161 -1.1354
 7089WAT    EPW29078   3.362   2.947   5.611  0.3761  0.0622 -0.6343
 7090WAT      O29079   4.915   1.377   2.062  0.1095 -0.4694  0.1755
 7090WAT     H129080   4.908   1.301   2.103 -2.3212 -0.6933 -0.5395
 7090WAT     H229081   4.837   1.414   2.072  0.1621  0.4777 -2.2423
 7090WAT    EPW29082   4.903   1.372   2.069 -0.2418 -0.3626 -0.2873
 7091WAT      O29083   3.940   6.425   5.799 -0.2816  0.1986 -0.2563
 7091WAT     H129084   3.934   6.413   5.885  0.3393  0.3214 -0.1925
 7091WAT     H229085   3.945   6.344   5.767 -0.3950  0.1576 -0.1723
 7091WAT    EPW29086   3.940   6.411   5.807 -0.2066  0.2107 -0.2345
 7092WAT      O29087   6.511   6.417   6.498 -0.2525 -0.9006 -0.0954
 7092WAT     H129088   6.565   6.402   6.564 -3.7228 -0.0582  3.3172
 7092WAT     H229089   6.545   6.487   6.459  1.5052 -0.9040  1.3127
 7092WAT    EPW29090   6.524   6.425   6.502 -0.5055 -0.7766  0.6167
 7093WAT      O29091   2.440   1.022   5.363  0.3736  0.2080  0.0506
 7093WAT     H129092   2.436   0.935   5.361  0.8872  0.1923 -1.0925
 7093WAT     H229093   2.388   1.044   5.430  0.9522 -1.0090  0.9387
 7093WAT    EPW29094   2.432   1.013   5.373  0.5349  0.0259  0.0129
 7094WAT      O29095   3.717   6.878   0.793  0.3061  0.0198 -0.1248
 7094WAT     H129096   3.701   6.835   0.719  0.6537 -0.6141  0.1640
 7094WAT     H229097   3.661   6.945   0.790 -0.7948 -0.8777 -0.2147
 7094WAT    EPW29098   3.706   6.882   0.781  0.1948 -0.2064 -0.0954
 7095WAT      O29099   5.318   3.150   7.152  0.3080  0.4866  0.0847
 7095WAT     H129100   5.344   3.196   7.221  1.7916 -1.6470  1.0559
 7095WAT     H229101   5.232   3.139   7.165  0.9093 -1.8016  2.9145
 7095WAT    EPW29102   5.309   3.155   7.164  0.6160 -0.1666  0.6462
 7096WAT      O29103   5.844   4.046   2.210  0.3940 -0.0606 -0.0981
 7096WAT     H129104   5.921   4.083   2.230  0.2573 -0.2807  0.8531
 7096WAT     H229105   5.797   4.053   2.283  0.0054 -1.2053 -0.2062
 7096WAT    EPW29106   5.849   4.052   2.224  0.3164 -0.2622  0.0265
 7097WAT      O29107   6.363   3.692   2.180 -0.1240  0.0885  0.4737
 7097WAT     H129108   6.288   3.680   2.138  0.4393 -0.8311 -0.3086
 7097WAT     H229109   6.409   3.620   2.162  0.9821  0.6659  0.8455
 7097WAT    EPW29110   6.359   3.680   2.171  0.1226  0.0380  0.4130
 7098WAT      O29111   4.154   4.127   2.248  0.1191 -0.0550  0.2881
 7098WAT     H129112   4.084   4.178   2.259 -1.0043 -1.7628  1.4211
 7098WAT     H229113   4.131   4.075   2.181 -0.6835 -2.0785  2.0265
 7098WAT    EPW29114   4.140   4.127   2.239 -0.1654 -0.6062  0.7122
 7099WAT      O29115   4.412   5.108   1.214  0.1067 -0.2061  0.6850
 7099WAT     H129116   4.490   5.098   1.174 -0.4162  0.8445 -0.6955
 7099WAT     H229117   4.418   5.187   1.250 -0.7133  0.3801 -0.4227
 7099WAT    EPW29118   4.425   5.118   1.213 -0.0917  0.0357  0.3175
 7100WAT      O29119   6.373   6.559   7.117 -0.2285 -0.3300  0.5418
 7100WAT     H129120   6.319   6.494   7.140 -1.7467  1.0309  1.0469
 7100WAT     H229121   6.377   6.607   7.190  0.2125  0.5645 -0.0682
 7100WAT    EPW29122   6.365   6.556   7.131 -0.3876  0.0032  0.5263
 7101WAT      O29123   3.709   3.953   0.379  0.2934  0.3328 -0.2157
 7101WAT     H129124   3.631   3.971   0.344 -0.1423 -0.5075  0.3095
 7101WAT     H229125   3.756   4.025   0.361  0.2860 -0.2491 -3.0021
 7101WAT    EPW29126   3.704   3.967   0.371  0.2280  0.1227 -0.5497
 7102WAT      O29127   4.519   6.486   1.210  0.1583 -1.0394  0.1484
 7102WAT     H129128   4.593   6.484   1.164  0.7517  0.8759  0.8949
 7102WAT     H229129   4.479   6.557   1.179 -1.2373 -1.8692 -0.0079
 7102WAT    EPW29130   4.524   6.497   1.198  0.0398 -0.8791  0.2355
 7103WAT      O29131   0.666   3.860   5.194 -0.1645  0.0691  0.2196
 7103WAT     H129132   0.656   3.931   5.243 -1.1649  1.9962 -2.5552
 7103WAT     H229133   0.587   3.824   5.193  0.1066 -0.5649  0.8176
 7103WAT    EPW29134   0.653   3.865   5.201 -0.2722  0.2602 -0.1020
 7104WAT      O29135   3.530   1.894   0.970  0.2199 -0.3193  0.1185
 7104WAT     H129136   3.566   1.963   1.010  1.5623 -0.6073 -0.5083
 7104WAT     H229137   3.599   1.855   0.933 -0.6462 -1.4738 -0.3161
 7104WAT    EPW29138   3.546   1.899   0.970  0.2902 -0.5324 -0.0383
 7105WAT      O29139   7.125   2.195   1.391 -0.1083 -0.3284  0.3464
 7105WAT     H129140   7.138   2.265   1.440  0.4981 -0.9500  1.0981
 7105WAT     H229141   7.048   2.164   1.418 -1.0766  0.7913 -0.9510
 7105WAT    EPW29142   7.116   2.201   1.402 -0.1618 -0.2548  0.2658
 7106WAT      O29143   3.147   0.177   3.567 -0.3986  0.2905  0.2259
 7106WAT     H129144   3.181   0.151   3.643 -3.0416 -2.6022  0.6306
 7106WAT     H229145   3.206   0.150   3.508 -0.0549 -0.8732  1.0672
 7106WAT    EPW29146   3.161   0.169   3.569 -0.7382 -0.3087  0.4099
 7107WAT      O29147   5.374   5.585   3.202  0.1099  0.3554  0.1236
 7107WAT     H129148   5.401   5.509   3.238 -0.2580 -0.5982 -1.5212
 7107WAT     H229149   5.300   5.603   3.245  0.6383  0.2485  1.1119
 7107WAT    EPW29150   5.367   5.576   3.214  0.1336  0.1988  0.0266
 7108WAT      O29151   4.817   3.164   2.265  0.2466  0.4587  0.3484
 7108WAT     H129152   4.854   3.195   2.338 -2.2141  1.4100  1.3147
 7108WAT     H229153   4.804   3.236   2.217 -1.6500  0.4416  0.7448
 7108WAT    EPW29154   4.820   3.179   2.269 -0.3970  0.5967  0.5497
 7109WAT      O29155   5.916   2.166   6.185  0.0889  0.0292 -0.2289
 7109WAT     H129156   5.901   2.109   6.120  1.3646 -0.1100 -0.4179
 7109WAT     H229157   5.988   2.208   6.159 -0.7275  1.6355 -0.0139
 7109WAT    EPW29158   5.924   2.163   6.172  0.1568  0.2459 -0.2250
 7110WAT      O29159   4.534   2.987   3.926  0.0477  0.0824 -0.1544
 7110WAT     H129160   4.456   3.024   3.911  0.8188  1.7211 -0.3453
 7110WAT     H229161   4.537   2.921   3.870 -1.0876  0.1882 -0.3599
 7110WAT    EPW29162   4.523   2.983   3.915 -0.0061  0.3401 -0.2129
 7111WAT      O29163   3.115   5.975   6.459 -0.4027  0.5830  0.0115
 7111WAT     H129164   3.180   5.998   6.405  1.1477 -0.7784  1.1930
 7111WAT     H229165   3.044   5.987   6.411  0.7889  0.9573 -1.7843
 7111WAT    EPW29166   3.114   5.980   6.444  0.0023  0.4372 -0.0793
 7112WAT      O29167   5.831   6.427   4.275  0.4110 -0.2824  0.0026
 7112WAT     H129168   5.809   6.419   4.359  1.0464 -0.3699  0.1613
 7112WAT     H229169   5.846   6.344   4.250 -0.3415 -0.3176 -0.3541
 7112WAT    EPW29170   5.830   6.413   4.283  0.3937 -0.3005 -0.0267
 7113WAT      O29171   1.866   3.783   0.044 -0.7046  0.4084  0.1306
 7113WAT     H129172   1.912   3.718   0.007  0.6947  1.5898 -0.2844
 7113WAT     H229173   1.799   3.741   0.082 -1.0984 -1.0523 -1.9931
 7113WAT    EPW29174   1.863   3.767   0.044 -0.5561  0.3671 -0.2444
 7114WAT      O29175   6.513   2.618   3.817 -0.3577  0.3090  0.3996
 7114WAT     H129176   6.482   2.539   3.796  0.5040  0.0629  0.0096
 7114WAT     H229177   6.544   2.649   3.742  1.4366  0.0299  0.9809
 7114WAT    EPW29178   6.513   2.611   3.803  0.0346  0.2314  0.4279
 7115WAT      O29179   3.027   5.583   5.761 -0.9618  0.2188  0.1695
 7115WAT     H129180   3.039   5.632   5.690  1.1963  1.6918  1.4242
 7115WAT     H229181   2.943   5.594   5.780 -0.8734  2.2590 -0.4347
 7115WAT    EPW29182   3.016   5.592   5.753 -0.6300  0.7378  0.2656
 7116WAT      O29183   2.969   6.513   3.481 -0.1085 -0.0538 -0.2878
 7116WAT     H129184   3.005   6.529   3.559 -2.7029  0.2832  0.9585
 7116WAT     H229185   2.990   6.584   3.434  1.6731 -0.3594 -0.0128
 7116WAT    EPW29186   2.977   6.526   3.485 -0.2285 -0.0491 -0.0630
 7117WAT      O29187   6.327   0.251   3.865  0.1961 -0.0762  0.2071
 7117WAT     H129188   6.366   0.256   3.787 -0.9175  0.3537 -0.3538
 7117WAT     H229189   6.318   0.165   3.878  0.1989 -0.1445 -0.2376
 7117WAT    EPW29190   6.331   0.239   3.855  0.0320 -0.0228  0.0585
 7118WAT      O29191   1.517   2.136   2.181 -0.4298  0.2635 -0.1708
 7118WAT     H129192   1.526   2.090   2.107  0.4142 -0.4502  0.3655
 7118WAT     H229193   1.586   2.114   2.228  0.4159  2.6479 -0.1666
 7118WAT    EPW29194   1.528   2.126   2.177 -0.1802  0.5103 -0.0910
 7119WAT      O29195   0.899   5.868   6.418 -0.4742  0.3149 -0.5879
 7119WAT     H129196   0.897   5.787   6.449  0.6480 -0.0110 -1.3158
 7119WAT     H229197   0.846   5.865   6.349 -1.3266  0.5067  0.0445
 7119WAT    EPW29198   0.891   5.856   6.412 -0.4343  0.2951 -0.6020
 7120WAT      O29199   6.124   0.499   5.861  0.2231  0.6402  0.2406
 7120WAT     H129200   6.110   0.412   5.858 -1.2467  0.8713 -0.4119
 7120WAT     H229201   6.210   0.506   5.847  0.1576 -0.6400 -1.0797
 7120WAT    EPW29202   6.135   0.487   5.859 -0.0037  0.4853 -0.0508
 7121WAT      O29203   5.448   0.160   1.154 -0.4271  0.0443 -0.6304
 7121WAT     H129204   5.455   0.079   1.186  1.2146 -1.0981 -3.5743
 7121WAT     H229205   5.530   0.189   1.151 -0.8115  1.1327 -1.3388
 7121WAT    EPW29206   5.461   0.152   1.158 -0.2414  0.0363 -1.1699
 7122WAT      O29207   5.767   4.020   0.359 -0.3163 -0.8817 -0.6086
 7122WAT     H129208   5.801   3.956   0.407 -1.2600 -0.7656  0.2613
 7122WAT     H229209   5.685   4.026   0.389 -0.6342 -0.1428 -1.5752
 7122WAT    EPW29210   5.760   4.012   0.371 -0.5027 -0.7554 -0.6229
 7123WAT      O29211   5.578   4.471   4.341  0.2530  0.1610 -0.1144
 7123WAT     H129212   5.510   4.444   4.293 -1.0481  0.7148  1.3053
 7123WAT     H229213   5.568   4.428   4.416  2.3261 -0.8110 -0.3458
 7123WAT    EPW29214   5.566   4.461   4.345  0.3670  0.0992  0.0611
 7124WAT      O29215   0.641   1.355   2.317 -0.3125 -0.0778  0.1327
 7124WAT     H129216   0.680   1.428   2.289  0.1312 -0.0187  0.8858
 7124WAT     H229217   0.697   1.292   2.296 -0.6368 -0.1995 -0.3995
 7124WAT    EPW29218   0.655   1.356   2.310 -0.2948 -0.0870  0.1654
 7125WAT      O29219   1.986   0.314   2.947 -0.2528  0.4680 -0.0077
 7125WAT     H129220   1.936   0.279   3.009 -1.0599  0.1422 -0.8272
 7125WAT     H229221   1.938   0.381   2.917  0.8963  1.7973  0.9415
 7125WAT    EPW29222   1.971   0.319   2.952 -0.2023  0.6162  0.0115
 7126WAT      O29223   6.125   2.956   7.313  0.3310 -0.3266 -0.0132
 7126WAT     H129224   6.153   2.974   7.393 -0.3592 -2.9143  0.8963
 7126WAT     H229225   6.096   3.033   7.284  0.4170  0.6451  2.2873
 7126WAT    EPW29226   6.125   2.970   7.320  0.2418 -0.5653  0.4610
 7127WAT      O29227   7.244   5.979   6.283 -0.1932 -0.1263  0.0679
 7127WAT     H129228   7.239   6.033   6.352  0.0347 -0.2823  0.2065
 7127WAT     H229229   7.329   5.977   6.264 -0.4094  1.2047 -1.2474
 7127WAT    EPW29230   7.256   5.987   6.290 -0.1915  0.0473 -0.1059
 7128WAT      O29231   3.846   3.060   0.812 -0.3585  1.1175  0.4210
 7128WAT     H129232   3.887   3.136   0.821 -2.1369  2.1924 -0.1967
 7128WAT     H229233   3.826   3.038   0.894  1.9677  0.1813  0.8360
 7128WAT    EPW29234   3.849   3.068   0.826 -0.2776  1.1380  0.3911
 7129WAT      O29235   1.084   4.546   3.966 -0.3844 -0.3524  0.0157
 7129WAT     H129236   1.109   4.624   3.994  1.3349 -0.5226 -0.8713
 7129WAT     H229237   1.016   4.563   3.915 -0.2262  0.5348  0.0878
 7129WAT    EPW29238   1.078   4.560   3.963 -0.1071 -0.2465 -0.1047
 7130WAT      O29239   7.087   5.760   7.311 -0.2005  0.6980  0.5633
 7130WAT     H129240   7.008   5.796   7.314 -0.7283 -0.4351  0.6667
 7130WAT     H229241   7.139   5.826   7.288 -1.4640  0.9929 -1.6938
 7130WAT    EPW29242   7.083   5.775   7.308 -0.4651  0.5742  0.2451
 7131WAT      O29243   6.321   7.182   6.045  0.0261 -0.2130 -0.0581
 7131WAT     H129244   6.340   7.267   6.054 -0.9386  0.1200 -0.9550
 7131WAT     H229245   6.277   7.164   6.118  1.6931 -0.4033  0.9389
 7131WAT    EPW29246   6.317   7.192   6.057  0.1299 -0.1919 -0.0433
 7132WAT      O29247   5.991   4.809   4.275  0.2893  0.5882  0.2365
 7132WAT     H129248   5.950   4.739   4.244 -2.5442  1.6861  1.1655
 7132WAT     H229249   6.042   4.777   4.339  1.8314 -0.9651 -1.6620
 7132WAT    EPW29250   5.993   4.794   4.280  0.0985  0.5209  0.0933
 7133WAT      O29251   1.148   5.659   3.959 -0.2334  0.0627 -0.2663
 7133WAT     H129252   1.184   5.739   3.965 -0.7083  0.2785 -0.2065
 7133WAT     H229253   1.062   5.676   3.956 -0.2748 -0.3429 -2.2728
 7133WAT    EPW29254   1.140   5.673   3.960 -0.3097  0.0347 -0.5539
 7134WAT      O29255   0.650   5.863   3.303 -0.0396  0.5810 -0.2909
 7134WAT     H129256   0.665   5.778   3.313  0.0303  0.6327  0.0804
 7134WAT     H229257   0.715   5.890   3.251 -0.3912  0.3013 -0.8769
 7134WAT    EPW29258   0.662   5.855   3.297 -0.0812  0.5473 -0.3226
 7135WAT      O29259   3.788   4.793   6.484  0.1929 -0.1307 -0.0148
 7135WAT     H129260   3.705   4.783   6.508 -0.6896  0.1921 -2.5534
 7135WAT     H229261   3.783   4.802   6.397  2.9651 -0.9278 -0.3673
 7135WAT    EPW29262   3.775   4.793   6.475  0.4721 -0.2008 -0.4419
 7136WAT      O29263   0.736   5.980   2.677  0.0206  0.0571  0.1700
 7136WAT     H129264   0.784   5.908   2.669  0.0475 -0.0837  1.4008
 7136WAT     H229265   0.781   6.041   2.635  0.5329 -0.4141  0.0353
 7136WAT    EPW29266   0.750   5.978   2.670  0.1002 -0.0333  0.3319
 7137WAT      O29267   1.348   2.453   3.460  0.0346 -0.1161 -0.4246
 7137WAT     H129268   1.387   2.378   3.438  2.5796  0.8170  0.6080
 7137WAT     H229269   1.410   2.498   3.501 -1.9277  1.8647  0.5971
 7137WAT    EPW29270   1.363   2.448   3.463  0.1207  0.3144 -0.1212
 7138WAT      O29271   7.248   3.550   2.595 -0.2428  0.1371 -0.1371
 7138WAT     H129272   7.194   3.596   2.545  1.6151  2.4106 -0.2148
 7138WAT     H229273   7.325   3.589   2.583  1.2705 -2.3688  0.6721
 7138WAT    EPW29274   7.252   3.562   2.586  0.2552  0.1027 -0.0291
 7139WAT      O29275   2.712   6.403   7.321  0.1929 -0.0571 -0.4817
 7139WAT     H129276   2.793   6.374   7.306  0.1564 -1.0002  0.9735
 7139WAT     H229277   2.725   6.475   7.368  0.1874 -0.7953  0.6773
 7139WAT    EPW29278   2.726   6.409   7.325  0.1867 -0.3055 -0.0955
 7140WAT      O29279   4.025   6.487   4.653  0.0728 -0.0166 -0.2524
 7140WAT     H129280   4.099   6.520   4.620 -0.3933  0.4077 -0.9097
 7140WAT     H229281   4.002   6.546   4.713  0.3666 -0.2501  0.0940
 7140WAT    EPW29282   4.033   6.501   4.657  0.0474  0.0116 -0.2983
 7141WAT      O29283   1.279   3.828   3.300 -0.1256 -1.0314  0.3527
 7141WAT     H129284   1.264   3.763   3.245 -1.1756 -1.6625  1.3542
 7141WAT     H229285   1.203   3.870   3.305  0.4728  0.1422 -0.1012
 7141WAT    EPW29286   1.266   3.825   3.293 -0.1923 -0.9512  0.4336
 7142WAT      O29287   4.089   5.826   4.202 -0.3076 -0.2870  0.1117
 7142WAT     H129288   4.124   5.773   4.262 -1.4484 -0.2214  0.8503
 7142WAT     H229289   4.154   5.881   4.183 -0.2848  0.4855  2.2195
 7142WAT    EPW29290   4.104   5.826   4.208 -0.4728 -0.1632  0.5322
 7143WAT      O29291   5.958   1.501   3.993 -0.1600  0.4857 -0.0158
 7143WAT     H129292   5.984   1.451   4.059  0.5852 -0.5508 -1.0635
 7143WAT     H229293   5.943   1.579   4.030  2.3230  0.5295  1.0415
 7143WAT    EPW29294   5.959   1.505   4.008  0.3169  0.3391 -0.0144
 7144WAT      O29295   5.302   4.806   4.495  0.1990 -0.5741  0.1358
 7144WAT     H129296   5.348   4.821   4.568  1.9361 -2.6927 -0.3942
 7144WAT     H229297   5.363   4.785   4.436 -1.1931  0.4116 -1.8085
 7144WAT    EPW29298   5.318   4.805   4.497  0.2500 -0.7414 -0.2297
 7145WAT      O29299   6.543   6.667   2.632  0.3071 -0.1226  0.3090
 7145WAT     H129300   6.468   6.648   2.673  0.0339  3.1147  1.6171
 7145WAT     H229301   6.531   6.636   2.551 -2.6060  0.5666  0.3727
 7145WAT    EPW29302   6.530   6.659   2.626 -0.1636  0.4575  0.5116
 7146WAT      O29303   2.628   6.558   5.238  0.5221  0.2403  0.0341
 7146WAT     H129304   2.583   6.485   5.254  1.7081 -1.1462 -2.3147
 7146WAT     H229305   2.566   6.619   5.228 -0.5572 -0.6536  0.9882
 7146WAT    EPW29306   2.612   6.556   5.239  0.5379 -0.0966 -0.1719
 7147WAT      O29307   2.441   3.149   1.857  0.0199  0.3281 -0.1852
 7147WAT     H129308   2.506   3.167   1.912  1.1803  0.0532 -1.3800
 7147WAT     H229309   2.413   3.071   1.884 -0.4463  0.8625  0.9038
 7147WAT    EPW29310   2.447   3.140   1.869  0.1225  0.3664 -0.2008
 7148WAT      O29311   0.985   6.462   5.784 -0.1807 -0.1688 -0.3575
 7148WAT     H129312   0.923   6.481   5.841  0.0172 -0.4549 -0.0398
 7148WAT     H229313   1.058   6.490   5.823  0.0688 -1.2206 -0.0395
 7148WAT    EPW29314   0.987   6.469   5.798 -0.1146 -0.3664 -0.2636
 7149WAT      O29315   1.822   1.846   3.185 -0.0831  0.8039 -0.1104
 7149WAT     H129316   1.899   1.825   3.220 -0.8898 -1.0035  0.7460
 7149WAT     H229317   1.836   1.924   3.148  1.9374  0.8542  0.6457
 7149WAT    EPW29318   1.835   1.854   3.184  0.0962  0.5443  0.1278
 7150WAT      O29319   6.384   1.487   1.472  0.5564 -0.4792 -0.2366
 7150WAT     H129320   6.336   1.556   1.494 -3.3729 -2.3954 -1.7541
 7150WAT     H229321   6.417   1.508   1.394  1.8006  0.6737  0.5760
 7150WAT    EPW29322   6.381   1.500   1.464  0.1598 -0.5919 -0.3408
 7151WAT      O29323   0.137   4.735   4.074  0.5070  0.2279  0.2669
 7151WAT     H129324   0.069   4.722   4.127  0.8483 -1.4929  0.3258
 7151WAT     H229325   0.206   4.734   4.128  0.7364  0.0381 -0.0248
 7151WAT    EPW29326   0.137   4.733   4.090  0.5913 -0.0544  0.2325
 7152WAT      O29327   2.766   2.858   5.042  0.1013 -0.0444  0.4700
 7152WAT     H129328   2.831   2.917   5.043  0.4135 -0.3929  1.0963
 7152WAT     H229329   2.751   2.846   4.957  1.0058 -0.1170  0.3163
 7152WAT    EPW29330   2.773   2.865   5.030  0.2810 -0.1066  0.5398
 7153WAT      O29331   6.430   0.589   4.001  0.2967 -0.3215 -0.0223
 7153WAT     H129332   6.388   0.519   4.033 -1.0369  0.0211 -0.9306
 7153WAT     H229333   6.508   0.585   4.039  0.0274 -1.9454  0.4502
 7153WAT    EPW29334   6.435   0.578   4.011  0.0599 -0.5108 -0.0867
 7154WAT      O29335   7.262   0.399   6.406 -0.1732 -0.5082  0.1987
 7154WAT     H129336   7.210   0.461   6.440  3.1681  0.8852  3.4082
 7154WAT     H229337   7.272   0.342   6.471  2.5544 -0.4506 -0.0422
 7154WAT    EPW29338   7.256   0.400   6.420  0.7233 -0.2939  0.6372
 7155WAT      O29339   5.596   1.869   3.409 -0.1166 -0.0336  0.4042
 7155WAT     H129340   5.589   1.837   3.328  0.6719 -0.1992  0.3941
 7155WAT     H229341   5.568   1.803   3.460  0.9307 -0.5379  0.3501
 7155WAT    EPW29342   5.591   1.854   3.405  0.1546 -0.1326  0.3947
 7156WAT      O29343   4.765   5.720   3.216 -0.0215 -0.3037  0.3861
 7156WAT     H129344   4.806   5.769   3.156 -0.4053 -0.0814  0.3010
 7156WAT     H229345   4.816   5.650   3.223  2.0554  1.2772  2.5431
 7156WAT    EPW29346   4.779   5.717   3.208  0.2286 -0.0373  0.6921
 7157WAT      O29347   5.508   2.442   0.456 -0.3226  0.0616 -0.4306
 7157WAT     H129348   5.435   2.434   0.503  1.5092  0.3263  2.7525
 7157WAT     H229349   5.548   2.365   0.468  0.7257  0.5713 -0.5442
 7157WAT    EPW29350   5.503   2.430   0.465  0.1029  0.1760  0.0228
 7158WAT      O29351   5.205   6.259   7.028  0.1021 -0.6919 -0.1183
 7158WAT     H129352   5.216   6.337   6.990  0.3090 -0.8513 -0.3974
 7158WAT     H229353   5.271   6.254   7.085 -1.0997  0.2079  1.4284
 7158WAT    EPW29354   5.216   6.270   7.031 -0.0449 -0.5825  0.0689
 7159WAT      O29355   2.373   0.439   6.467 -0.4201 -0.1694  0.3389
 7159WAT     H129356   2.422   0.410   6.400 -0.3539  0.1025  0.2682
 7159WAT     H229357   2.432   0.463   6.526 -0.4700  0.1375  0.2630
 7159WAT    EPW29358   2.389   0.438   6.465 -0.4177 -0.0839  0.3172
 7160WAT      O29359   1.816   2.756   4.476  0.5808  0.2602 -0.2576
 7160WAT     H129360   1.815   2.797   4.553  2.8676 -1.9526  1.1274
 7160WAT     H229361   1.894   2.777   4.443  0.3018 -0.1263 -1.1796
 7160WAT    EPW29362   1.828   2.765   4.483  0.8774 -0.1238 -0.1892
 7161WAT      O29363   0.962   2.560   1.492 -0.4616 -0.5918  0.1527
 7161WAT     H129364   0.928   2.530   1.417 -0.4827  0.6706 -0.3687
 7161WAT     H229365   0.915   2.632   1.507 -0.4188 -0.8005  1.3704
 7161WAT    EPW29366   0.950   2.566   1.483 -0.4584 -0.4362  0.2555
 7162WAT      O29367   1.043   6.904   6.932 -0.4356  0.7399 -0.4020
 7162WAT     H129368   0.959   6.887   6.916 -0.4388 -1.0326  1.1412
 7162WAT     H229369   1.051   6.989   6.911 -2.4657  0.8183 -1.0785
 7162WAT    EPW29370   1.032   6.914   6.927 -0.7359  0.4896 -0.2740
 7163WAT      O29371   3.437   2.628   5.060  0.0653  0.4414 -0.0112
 7163WAT     H129372   3.428   2.543   5.078 -0.5995  0.9359  2.3490
 7163WAT     H229373   3.507   2.631   5.008  0.3414 -1.5180  0.1705
 7163WAT    EPW29374   3.446   2.616   5.055  0.0079  0.2250  0.3643
 7164WAT      O29375   2.492   6.362   3.871 -0.1141 -0.8648 -0.4002
 7164WAT     H129376   2.575   6.338   3.871 -0.6812 -3.0283 -0.9412
 7164WAT     H229377   2.449   6.290   3.848 -2.1252  0.2735 -0.5034
 7164WAT    EPW29378   2.498   6.348   3.867 -0.4950 -1.0162 -0.4953
 7165WAT      O29379   5.686   5.593   4.070 -0.1737  0.4721  0.1260
 7165WAT     H129380   5.601   5.590   4.051 -0.1688  0.1372  0.1439
 7165WAT     H229381   5.698   5.520   4.116  0.5475 -0.5702 -1.6249
 7165WAT    EPW29382   5.675   5.582   4.074 -0.0664  0.2686 -0.1300
 7166WAT      O29383   0.945   5.427   1.305  0.1537  0.1015  0.1781
 7166WAT     H129384   0.962   5.510   1.322 -1.3624  0.8229 -1.4567
 7166WAT     H229385   0.894   5.402   1.371  2.1300 -0.1403  1.6645
 7166WAT    EPW29386   0.940   5.435   1.317  0.2217  0.1724  0.1561
 7167WAT      O29387   3.255   3.648   1.631  0.4071  0.2610 -0.6402
 7167WAT     H129388   3.323   3.663   1.683 -0.4171 -1.0518  0.9034
 7167WAT     H229389   3.259   3.712   1.573  1.0872  2.1355  1.3515
 7167WAT    EPW29390   3.265   3.659   1.630  0.3859  0.3440 -0.1180
 7168WAT      O29391   6.179   6.907   5.546  0.0200 -0.1825  0.5988
 7168WAT     H129392   6.096   6.926   5.561  0.8710  2.8941  2.0051
 7168WAT     H229393   6.200   6.854   5.612 -0.7606 -1.0057  0.2191
 7168WAT    EPW29394   6.170   6.902   5.558  0.0304  0.1504  0.7505
 7169WAT      O29395   6.161   4.282   4.463 -0.1145 -0.0543  0.4119
 7169WAT     H129396   6.178   4.259   4.381  0.6794 -0.5389  0.6967
 7169WAT     H229397   6.196   4.217   4.510  0.0593  0.5633  1.1609
 7169WAT    EPW29398   6.169   4.269   4.458  0.0284 -0.0346  0.5646
 7170WAT      O29399   1.780   6.284   6.956 -0.2235  0.1269  0.5469
 7170WAT     H129400   1.763   6.368   6.938 -0.7329 -0.1562 -0.3332
 7170WAT     H229401   1.703   6.245   6.945  0.1440 -0.5583  0.3539
 7170WAT    EPW29402   1.766   6.291   6.952 -0.2445 -0.0162  0.3884
 7171WAT      O29403   1.539   3.347   6.851 -0.2694  0.0013  0.0003
 7171WAT     H129404   1.620   3.314   6.850  0.1929  0.9559  1.5744
 7171WAT     H229405   1.522   3.362   6.766  1.3951  0.2137 -0.3300
 7171WAT    EPW29406   1.549   3.345   6.838  0.0448  0.1737  0.1840
 7172WAT      O29407   0.528   5.919   5.815  0.2227 -0.0850 -0.5142
 7172WAT     H129408   0.490   5.994   5.791 -0.3241  0.7829  2.6284
 7172WAT     H229409   0.598   5.944   5.860  0.6568 -1.5028 -0.3433
 7172WAT    EPW29410   0.532   5.934   5.818  0.2060 -0.1663 -0.0247
 7173WAT      O29411   7.090   6.319   0.520 -0.1845 -0.1832 -0.4398
 7173WAT     H129412   7.128   6.345   0.594 -0.6751 -0.5450 -0.0548
 7173WAT     H229413   7.158   6.306   0.466  0.0663  2.9693 -1.0807
 7173WAT    EPW29414   7.106   6.321   0.523 -0.2199  0.2290 -0.4776
 7174WAT      O29415   6.558   2.163   1.767  0.7778  0.2740 -0.1579
 7174WAT     H129416   6.575   2.233   1.718  2.2642  0.2651  0.3086
 7174WAT     H229417   6.602   2.099   1.728  0.4481 -0.1368  0.1299
 7174WAT    EPW29418   6.567   2.164   1.754  0.9487  0.2120 -0.0465
 7175WAT      O29419   0.598   7.121   3.654 -0.7123  0.3085 -0.1716
 7175WAT     H129420   0.614   7.207   3.657 -1.5843  0.7610 -3.8377
 7175WAT     H229421   0.511   7.117   3.650 -0.6584 -0.7586 -0.3131
 7175WAT    EPW29422   0.588   7.133   3.654 -0.8331  0.2177 -0.7341
 7176WAT      O29423   5.753   2.182   1.149  0.2270  0.1648  0.0069
 7176WAT     H129424   5.725   2.106   1.181 -2.1932  0.6370 -0.8420
 7176WAT     H229425   5.701   2.197   1.081  1.8437  1.7251 -0.9745
 7176WAT    EPW29426   5.742   2.173   1.144  0.1083  0.4650 -0.2635
 7177WAT      O29427   0.004   3.340   2.426 -0.3972  0.4388  0.1408
 7177WAT     H129428  -0.000   3.418   2.465  1.5916  0.6170  0.0798
 7177WAT     H229429   0.030   3.287   2.490  0.4195  0.2561 -0.3298
 7177WAT    EPW29430   0.007   3.344   2.441  0.0172  0.4382  0.0623
 7178WAT      O29431   5.531   6.806   5.951 -0.1693 -0.1101 -0.4674
 7178WAT     H129432   5.597   6.808   5.894 -0.0654 -1.4266 -0.4312
 7178WAT     H229433   5.566   6.769   6.022 -0.0472  2.3205  0.8518
 7178WAT    EPW29434   5.546   6.800   5.953 -0.1359  0.0545 -0.2672
 7179WAT      O29435   5.329   7.023   1.896 -0.5993 -0.0061  0.3183
 7179WAT     H129436   5.267   6.974   1.859 -1.5264  0.7554  0.8381
 7179WAT     H229437   5.321   7.005   1.981  0.1810 -0.2192  0.3530
 7179WAT    EPW29438   5.319   7.013   1.903 -0.6210  0.0749  0.4002
 7180WAT      O29439   2.956   1.037   1.878 -0.0706  0.3986 -0.2172
 7180WAT     H129440   2.959   1.034   1.965  0.4790 -1.0564 -0.2717
 7180WAT     H229441   3.037   1.060   1.855  0.4513 -1.4650 -0.3922
 7180WAT    EPW29442   2.968   1.040   1.887  0.0876 -0.0916 -0.2511
 7181WAT      O29443   2.419   1.945   7.352  0.1605  0.1186 -0.1489
 7181WAT     H129444   2.394   1.899   7.422 -0.2619  1.7642  0.8354
 7181WAT     H229445   2.468   2.009   7.386 -0.2291  1.0721 -1.3256
 7181WAT    EPW29446   2.422   1.947   7.368  0.0406  0.5026 -0.1774
 7182WAT      O29447   2.472   0.910   3.299  0.1395 -0.3393 -0.2921
 7182WAT     H129448   2.538   0.946   3.256 -0.0603  1.0677  0.5030
 7182WAT     H229449   2.407   0.910   3.241 -0.2117  1.8083 -0.0008
 7182WAT    EPW29450   2.472   0.915   3.284  0.0581  0.1858 -0.1316
 7183WAT      O29451   1.556   3.663   7.165  0.4105 -0.2002 -0.4654
 7183WAT     H129452   1.576   3.746   7.187 -1.7154  0.3923 -0.5716
 7183WAT     H229453   1.629   3.634   7.128  1.6203  1.2219  0.6597
 7183WAT    EPW29454   1.570   3.671   7.163  0.2752  0.0974 -0.3149
 7184WAT      O29455   3.925   3.762   6.379  0.2966  0.1112  0.0173
 7184WAT     H129456   3.910   3.842   6.348  0.9480 -0.0493 -0.7751
 7184WAT     H229457   3.999   3.772   6.425 -0.8869  0.4320  1.9379
 7184WAT    EPW29458   3.934   3.775   6.381  0.2180  0.1349  0.1840
 7185WAT      O29459   3.494   4.660   1.007 -0.5702 -0.0550  0.1522
 7185WAT     H129460   3.473   4.736   0.967  0.8066  0.4995  0.4289
 7185WAT     H229461   3.538   4.617   0.946 -1.4675 -0.7214 -0.0481
 7185WAT    EPW29462   3.497   4.665   0.992 -0.4994 -0.0715  0.1635
 7186WAT      O29463   2.292   1.367   2.818  0.1763  0.4669  0.4357
 7186WAT     H129464   2.249   1.442   2.821  1.8915  1.5859 -0.8270
 7186WAT     H229465   2.265   1.325   2.889  0.0793  2.8069  1.8873
 7186WAT    EPW29466   2.282   1.372   2.829  0.4154  0.9779  0.4636
 7187WAT      O29467   4.543   5.965   0.880  0.5827 -1.0659 -0.2279
 7187WAT     H129468   4.536   6.040   0.836  0.4987 -2.0512 -1.9792
 7187WAT     H229469   4.460   5.939   0.890  0.5746 -0.6939  0.8799
 7187WAT    EPW29470   4.530   5.972   0.875  0.5691 -1.1565 -0.3229
 7188WAT      O29471   1.896   2.926   2.380 -0.1664 -0.0781 -0.0157
 7188WAT     H129472   1.909   2.873   2.448 -0.3332 -1.0271 -0.7033
 7188WAT     H229473   1.810   2.941   2.383  0.0087  0.8265  0.6568
 7188WAT    EPW29474   1.885   2.920   2.391 -0.1652 -0.0847 -0.0179
 7189WAT      O29475   2.592   1.775   1.726 -0.4320 -0.1544 -0.0232
 7189WAT     H129476   2.557   1.830   1.669 -0.9481  0.2032  0.6250
 7189WAT     H229477   2.523   1.733   1.759 -0.4439  1.4665  2.2161
 7189WAT    EPW29478   2.577   1.777   1.723 -0.5100  0.1378  0.4033
 7190WAT      O29479   6.168   6.629   0.899 -0.1113  0.3162 -0.0619
 7190WAT     H129480   6.214   6.567   0.858 -0.5554  0.7880 -1.3323
 7190WAT     H229481   6.125   6.668   0.834  0.0420  1.8530  0.7204
 7190WAT    EPW29482   6.169   6.626   0.883 -0.1543  0.6129 -0.1340
 7191WAT      O29483   6.675   3.246   5.539 -0.0531  0.4105  0.0106
 7191WAT     H129484   6.750   3.252   5.584  0.7849 -0.5232 -1.1751
 7191WAT     H229485   6.615   3.233   5.601  0.5918  2.1683  1.0687
 7191WAT    EPW29486   6.678   3.245   5.555  0.1660  0.5322 -0.0082
 7192WAT      O29487   2.969   4.782   5.147 -0.1152 -0.5172 -0.2689
 7192WAT     H129488   2.984   4.756   5.229 -1.4596 -1.3983 -0.2512
 7192WAT     H229489   3.048   4.801   5.116  0.5314 -1.1285  0.9222
 7192WAT    EPW29490   2.983   4.781   5.154 -0.2183 -0.7377 -0.0903
 7193WAT      O29491   2.514   2.418   0.353  0.1029 -0.6041  0.2408
 7193WAT     H129492   2.508   2.475   0.419  2.1306 -1.6678  1.4515
 7193WAT     H229493   2.439   2.373   0.359  0.0101 -0.3395  1.5245
 7193WAT    EPW29494   2.502   2.420   0.364  0.3887 -0.7222  0.6092
 7194WAT      O29495   0.520   0.950   6.065  0.0110 -0.3625  0.7253
 7194WAT     H129496   0.580   0.887   6.065 -0.6369 -1.0246 -0.8144
 7194WAT     H229497   0.564   1.022   6.044  0.5584 -0.5067  1.3605
 7194WAT    EPW29498   0.535   0.951   6.062 -0.0039 -0.4816  0.5917
 7195WAT      O29499   1.361   6.556   1.391  0.3135  0.5823  0.2199
 7195WAT     H129500   1.448   6.562   1.382  0.2677 -1.1997 -2.5419
 7195WAT     H229501   1.350   6.481   1.434  0.1599 -0.0142 -0.8252
 7195WAT    EPW29502   1.372   6.546   1.396  0.2840  0.2309 -0.3425
 7196WAT      O29503   2.904   6.194   6.893  0.1131  0.0984 -0.1777
 7196WAT     H129504   2.911   6.278   6.868 -1.1277  0.3537  0.2468
 7196WAT     H229505   2.938   6.150   6.826 -0.3102  0.8985 -0.9431
 7196WAT    EPW29506   2.910   6.200   6.880 -0.1327  0.2543 -0.2280
 7197WAT      O29507   0.810   2.911   3.398  0.4275  0.3401 -0.6254
 7197WAT     H129508   0.815   2.977   3.341 -0.9379  0.9572 -0.0882
 7197WAT     H229509   0.739   2.867   3.372  1.0084 -0.6075 -0.6484
 7197WAT    EPW29510   0.800   2.914   3.386  0.3116  0.2913 -0.5494
 7198WAT      O29511   2.115   3.203   1.252  0.0063  0.6462 -0.1512
 7198WAT     H129512   2.030   3.192   1.269 -0.1984  2.4395  0.1867
 7198WAT     H229513   2.141   3.123   1.228 -1.7702  0.0584 -0.3231
 7198WAT    EPW29514   2.106   3.189   1.251 -0.2864  0.8243 -0.1267
 7199WAT      O29515   3.773   5.240   5.968  0.1942  0.2439 -0.4206
 7199WAT     H129516   3.686   5.232   5.962  0.3252 -0.9827 -1.0054
 7199WAT     H229517   3.802   5.206   5.893  1.1797  0.6451 -0.2300
 7199WAT    EPW29518   3.764   5.234   5.956  0.3591  0.1219 -0.4789
 7200WAT      O29519   5.536   0.788   4.065 -0.4407 -0.2961 -0.1765
 7200WAT     H129520   5.488   0.860   4.057 -0.5730 -0.4716 -0.9885
 7200WAT     H229521   5.531   0.750   3.987 -0.8429 -1.4905  0.3927
 7200WAT    EPW29522   5.528   0.793   4.053 -0.5196 -0.4985 -0.2124
 7201WAT      O29523   0.068   7.270   3.399  0.0802  0.1634  0.5301
 7201WAT     H129524   0.034   7.235   3.471  0.5364  0.7571  1.0453
 7201WAT     H229525   0.061   7.206   3.340 -0.7322 -0.1660  0.9702
 7201WAT    EPW29526   0.062   7.255   3.401  0.0276  0.2025  0.6712
 7202WAT      O29527   6.441   2.389   5.770  0.3627  0.1939 -0.2870
 7202WAT     H129528   6.500   2.406   5.832  0.6528 -0.1250 -0.4763
 7202WAT     H229529   6.444   2.303   5.761 -1.0310  0.0251  0.5763
 7202WAT    EPW29530   6.450   2.379   5.778  0.1997  0.1219 -0.1874
 7203WAT      O29531   7.045   2.655   0.931  0.0282  0.1662 -0.0781
 7203WAT     H129532   7.036   2.735   0.898  1.5992  1.4588  2.3682
 7203WAT     H229533   7.047   2.604   0.860  0.7973  2.4585 -1.8188
 7203WAT    EPW29534   7.044   2.659   0.916  0.3738  0.6958  0.0261
 7204WAT      O29535   5.119   4.294   1.316  0.9298  0.5935  0.0889
 7204WAT     H129536   5.166   4.279   1.244 -0.9515  0.2104 -1.1159
 7204WAT     H229537   5.066   4.359   1.293  0.6509  0.8206  1.3043
 7204WAT    EPW29538   5.118   4.301   1.302  0.6107  0.5704  0.0905
 7205WAT      O29539   4.272   1.408   7.336  0.6688 -0.3193  0.1764
 7205WAT     H129540   4.200   1.435   7.296  0.5553  0.3500  0.8035
 7205WAT     H229541   4.303   1.346   7.284  0.0502 -0.0844 -0.4827
 7205WAT    EPW29542   4.266   1.403   7.323  0.5606 -0.1857  0.1717
 7206WAT      O29543   2.155   0.942   2.222  0.1459  0.3320  0.1664
 7206WAT     H129544   2.079   0.980   2.203 -1.2159 -1.6468  1.3205
 7206WAT     H229545   2.141   0.857   2.208  1.6947 -0.2517  1.7057
 7206WAT    EPW29546   2.142   0.935   2.217  0.1736 -0.0465  0.5643
 7207WAT      O29547   1.168   1.566   1.654 -0.5394 -0.1182 -0.0088
 7207WAT     H129548   1.122   1.600   1.588  0.0581  0.3685 -0.1887
 7207WAT     H229549   1.192   1.636   1.701 -0.8827 -0.4505  0.6804
 7207WAT    EPW29550   1.165   1.581   1.651 -0.5019 -0.0954  0.0664
 7208WAT      O29551   6.772   1.297   2.087  0.3269 -0.3914 -1.2295
 7208WAT     H129552   6.715   1.355   2.118  0.6480  0.9394 -2.9816
 7208WAT     H229553   6.825   1.283   2.155 -1.1096 -0.4534 -0.0584
 7208WAT    EPW29554   6.771   1.304   2.102  0.1621 -0.2039 -1.3154
 7209WAT      O29555   2.935   2.436   0.345 -0.2912 -0.0508  0.0536
 7209WAT     H129556   2.906   2.511   0.313  1.0966  0.7530  0.5873
 7209WAT     H229557   2.952   2.454   0.429 -2.2026 -1.6346  0.8725
 7209WAT    EPW29558   2.934   2.450   0.353 -0.3685 -0.1660  0.2534
 7210WAT      O29559   2.405   0.445   4.942 -0.7119  0.4238 -0.0152
 7210WAT     H129560   2.336   0.493   4.964 -0.4002  0.0789  1.8615
 7210WAT     H229561   2.437   0.418   5.018  1.0258 -0.1022 -0.8672
 7210WAT    EPW29562   2.400   0.448   4.956 -0.4092  0.2952  0.1362
 7211WAT      O29563   0.658   0.715   6.066  0.0998 -0.4107  0.3388
 7211WAT     H129564   0.584   0.674   6.042  0.3571 -0.1207 -1.0291
 7211WAT     H229565   0.715   0.650   6.076 -0.2127 -0.5992  0.9435
 7211WAT    EPW29566   0.655   0.699   6.064  0.0917 -0.3957  0.2261
 7212WAT      O29567   1.288   2.727   4.465 -0.2137 -0.3908 -0.0690
 7212WAT     H129568   1.279   2.720   4.379  0.4438  0.3466 -0.2095
 7212WAT     H229569   1.320   2.649   4.489 -1.4304 -0.9964 -0.3157
 7212WAT    EPW29570   1.291   2.714   4.456 -0.2963 -0.3713 -0.1262
 7213WAT      O29571   4.073   0.304   6.629 -0.5080 -0.2992 -0.1588
 7213WAT     H129572   4.065   0.388   6.608  1.4240 -0.1520 -0.4873
 7213WAT     H229573   4.005   0.289   6.681 -0.4158  1.7086  0.6297
 7213WAT    EPW29574   4.062   0.314   6.633 -0.2090  0.0191 -0.0908
 7214WAT      O29575   5.163   6.877   7.166  0.0398 -0.5014  0.2680
 7214WAT     H129576   5.212   6.941   7.199  0.7048 -0.6770 -0.3499
 7214WAT     H229577   5.220   6.828   7.123 -0.3925 -1.7113  1.0150
 7214WAT    EPW29578   5.179   6.879   7.164  0.0742 -0.7061  0.2870
 7215WAT      O29579   5.142   4.768   0.924 -0.1107  0.4491 -0.3449
 7215WAT     H129580   5.165   4.813   0.995 -1.4483  1.2981 -0.4133
 7215WAT     H229581   5.204   4.788   0.866  1.2558 -0.6225  0.6819
 7215WAT    EPW29582   5.154   4.778   0.926 -0.1064  0.4162 -0.2034
 7216WAT      O29583   3.176   4.336   2.666 -0.2704 -0.4449 -0.6741
 7216WAT     H129584   3.258   4.356   2.642  0.6378 -1.2524  1.5187
 7216WAT     H229585   3.185   4.265   2.716 -2.0239  0.5947  1.3184
 7216WAT    EPW29586   3.189   4.329   2.670 -0.3953 -0.4106 -0.0558
 7217WAT      O29587   5.496   5.068   0.236 -0.7196 -0.4409 -0.2017
 7217WAT     H129588   5.431   5.083   0.178 -0.9096 -0.2027  0.0696
 7217WAT     H229589   5.556   5.027   0.188 -0.5069  0.5209 -0.7940
 7217WAT    EPW29590   5.495   5.064   0.220 -0.7162 -0.2636 -0.2491
 7218WAT      O29591   4.616   5.474   4.224  0.3442 -0.5790 -0.3734
 7218WAT     H129592   4.580   5.480   4.303  1.6425  0.6162  0.1650
 7218WAT     H229593   4.579   5.539   4.180  2.0335  0.8933  0.2943
 7218WAT    EPW29594   4.605   5.484   4.229  0.7855 -0.1850 -0.1953
 7219WAT      O29595   5.396   3.224   6.649 -0.9280 -0.3728 -0.5362
 7219WAT     H129596   5.327   3.194   6.604 -0.0224 -2.8104 -0.4690
 7219WAT     H229597   5.410   3.161   6.708  1.2365  0.1287 -0.4413
 7219WAT    EPW29598   5.388   3.210   6.651 -0.4745 -0.6588 -0.5122
 7220WAT      O29599   1.477   7.109   3.410 -0.2185  0.4952 -0.2693
 7220WAT     H129600   1.560   7.084   3.426  0.4900  1.7417 -1.7360
 7220WAT     H229601   1.434   7.083   3.482  1.6567  0.8475  1.0585
 7220WAT    EPW29602   1.483   7.101   3.423  0.1632  0.7314 -0.2898
 7221WAT      O29603   5.443   5.335   3.309  0.8151 -0.0181 -0.5891
 7221WAT     H129604   5.508   5.307   3.360  0.6954  1.6830  0.6002
 7221WAT     H229605   5.376   5.284   3.332  0.7127  0.8361  1.1590
 7221WAT    EPW29606   5.443   5.323   3.320  0.7823  0.3594 -0.1552
 7222WAT      O29607   1.877   2.495   3.420 -0.0140 -0.1155 -0.3442
 7222WAT     H129608   1.837   2.474   3.494  1.3674 -0.9187  0.2092
 7222WAT     H229609   1.948   2.539   3.447  0.7988 -0.9005 -1.1352
 7222WAT    EPW29610   1.882   2.498   3.435  0.3101 -0.3501 -0.3793
 7223WAT      O29611   4.586   1.660   3.023  0.4824  0.0418  0.0339
 7223WAT     H129612   4.601   1.730   3.072  0.9558 -0.1266  0.1332
 7223WAT     H229613   4.502   1.643   3.037  0.8670 -0.6743  1.6707
 7223WAT    EPW29614   4.576   1.668   3.032  0.6092 -0.0889  0.2904
 7224WAT      O29615   3.709   3.356   1.144  0.4553 -0.3426  0.4077
 7224WAT     H129616   3.650   3.415   1.119 -0.8345 -1.2352  1.2270
 7224WAT     H229617   3.785   3.399   1.136 -0.4471  1.5312  1.2523
 7224WAT    EPW29618   3.712   3.371   1.139  0.1315 -0.1976  0.6535
 7225WAT      O29619   4.592   1.369   4.593 -0.1202 -0.5385  0.3621
 7225WAT     H129620   4.577   1.441   4.547 -0.7288 -0.4796  0.6540
 7225WAT     H229621   4.538   1.310   4.559  0.0890 -0.7524  0.3915
 7225WAT    EPW29622   4.582   1.371   4.581 -0.1792 -0.5614  0.4096
 7226WAT      O29623   2.465   4.066   0.025 -0.3306 -0.1133  0.0729
 7226WAT     H129624   2.482   4.055   0.110  1.9562 -0.0461 -0.2945
 7226WAT     H229625   2.412   3.999   0.006 -0.8841 -0.1212  1.5319
 7226WAT    EPW29626   2.460   4.054   0.035 -0.0746 -0.1046  0.2342
 7227WAT      O29627   1.728   5.765   0.051 -0.4839  0.0317 -0.0457
 7227WAT     H129628   1.760   5.765   0.132  2.0543 -0.8729 -0.9532
 7227WAT     H229629   1.753   5.842   0.019  0.6403 -0.5830 -0.6934
 7227WAT    EPW29630   1.736   5.776   0.059  0.0571 -0.1928 -0.2754
 7228WAT      O29631   1.304   1.947   5.464  0.3929  0.4093  0.0502
 7228WAT     H129632   1.302   2.023   5.421 -0.0450  0.5522  0.3187
 7228WAT     H229633   1.335   1.968   5.543 -0.0155  0.3616  0.2248
 7228WAT    EPW29634   1.308   1.961   5.469  0.2679  0.4234  0.1157
 7229WAT      O29635   1.360   4.677   0.700 -0.5489  0.1034 -0.0182
 7229WAT     H129636   1.340   4.677   0.785 -1.3079  0.8602 -0.1778
 7229WAT     H229637   1.381   4.760   0.683  2.4811 -0.5442  0.0207
 7229WAT    EPW29638   1.360   4.689   0.710 -0.2134  0.1195 -0.0360
 7230WAT      O29639   0.716   6.407   2.846  0.2421 -0.4285  0.0935
 7230WAT     H129640   0.734   6.376   2.926  1.3760  0.6188  0.2747
 7230WAT     H229641   0.791   6.396   2.803  0.2547  0.8358 -0.2197
 7230WAT    EPW29642   0.730   6.401   2.852  0.4115 -0.0870  0.0740
 7231WAT      O29643   1.660   4.258   2.973  0.8003  0.2699  0.2382
 7231WAT     H129644   1.724   4.317   2.964 -0.0658  1.0365 -1.0753
 7231WAT     H229645   1.698   4.183   2.949  1.3333  0.6328 -0.0530
 7231WAT    EPW29646   1.675   4.256   2.968  0.7511  0.4367  0.0011
 7232WAT      O29647   1.880   6.759   2.655 -0.3842 -0.2180 -0.0660
 7232WAT     H129648   1.901   6.751   2.571 -0.6805 -1.3760 -0.0430
 7232WAT     H229649   1.899   6.842   2.673  3.3711 -0.8339 -0.2790
 7232WAT    EPW29650   1.886   6.770   2.645  0.1268 -0.4801 -0.0940
 7233WAT      O29651   3.604   3.462   1.704  0.1562 -0.3567 -0.0542
 7233WAT     H129652   3.634   3.525   1.651  0.7504  0.6652  1.4367
 7233WAT     H229653   3.676   3.415   1.722  0.1244 -0.1916  0.5040
 7233WAT    EPW29654   3.619   3.464   1.698  0.2392 -0.1813  0.2485
 7234WAT      O29655   5.732   3.881   1.670  0.0879  0.3026 -0.0413
 7234WAT     H129656   5.656   3.843   1.649 -0.5097  1.2755  0.3006
 7234WAT     H229657   5.708   3.954   1.711  1.2039  1.2334 -0.9784
 7234WAT    EPW29658   5.717   3.886   1.673  0.1645  0.5838 -0.1292
 7235WAT      O29659   6.079   1.047   1.949  0.0498  0.4763 -0.7510
 7235WAT     H129660   6.092   1.061   1.864 -1.4486  1.1893 -0.9029
 7235WAT     H229661   6.042   0.968   1.952  1.7592 -0.3496 -0.5693
 7235WAT    EPW29662   6.075   1.037   1.937  0.0810  0.4596 -0.7466
 7236WAT      O29663   6.683   2.193   1.377 -0.1396 -0.2816  0.3559
 7236WAT     H129664   6.629   2.193   1.308 -0.2557 -1.9829  0.3966
 7236WAT     H229665   6.755   2.155   1.346  0.0780 -0.3894  0.9916
 7236WAT    EPW29666   6.685   2.187   1.362 -0.1246 -0.5488  0.4558
 7237WAT      O29667   6.099   4.759   1.547 -0.2683  0.2429 -0.2098
 7237WAT     H129668   6.080   4.841   1.573  0.6821  0.6251 -0.6607
 7237WAT     H229669   6.186   4.759   1.545 -0.2860 -0.5015 -1.1454
 7237WAT    EPW29670   6.109   4.771   1.551 -0.1305  0.1894 -0.4146
 7238WAT      O29671   4.321   1.275   2.687 -0.1533 -0.0402 -0.2273
 7238WAT     H129672   4.238   1.263   2.712 -0.4829 -1.9473 -1.9734
 7238WAT     H229673   4.362   1.297   2.761 -2.1088  0.5216  0.7608
 7238WAT    EPW29674   4.315   1.277   2.702 -0.4909 -0.2389 -0.3393
 7239WAT      O29675   1.452   3.579   0.277 -0.0898  0.1951 -0.1409
 7239WAT     H129676   1.433   3.576   0.362 -0.6581 -1.0148 -0.3041
 7239WAT     H229677   1.526   3.626   0.275  0.2868 -0.3069  1.0743
 7239WAT    EPW29678   1.460   3.586   0.290 -0.1181 -0.0577  0.0145
 7240WAT      O29679   3.762   6.223   1.686  0.1457 -0.4723  0.0872
 7240WAT     H129680   3.793   6.223   1.604  0.2248  0.0150  0.1127
 7240WAT     H229681   3.676   6.236   1.674  0.0617 -1.0457  0.0532
 7240WAT    EPW29682   3.754   6.225   1.672  0.1450 -0.4850  0.0860
 7241WAT      O29683   1.564   2.619   3.605  0.5246  0.3542 -0.5907
 7241WAT     H129684   1.615   2.552   3.626  0.2693  0.1001 -0.7878
 7241WAT     H229685   1.520   2.635   3.679 -0.7076 -0.8324 -1.0354
 7241WAT    EPW29686   1.565   2.612   3.619  0.3048  0.1414 -0.6855
 7242WAT      O29687   6.356   1.209   7.150  0.0627  0.0427  1.2933
 7242WAT     H129688   6.348   1.222   7.064  0.8327  2.7013  1.5363
 7242WAT     H229689   6.294   1.150   7.168  0.7357 -1.5916 -1.2490
 7242WAT    EPW29690   6.346   1.202   7.140  0.2758  0.1940  0.9536
 7243WAT      O29691   1.508   7.030   0.026 -0.7946 -0.1264  0.3617
 7243WAT     H129692   1.539   7.048   0.105  0.0875  0.6252 -0.1360
 7243WAT     H229693   1.450   6.966   0.040 -0.7957  0.1384  1.6285
 7243WAT    EPW29694   1.504   7.023   0.040 -0.6645  0.0237  0.4753
 7244WAT      O29695   2.438   4.200   2.865 -0.2874 -0.0212  0.7200
 7244WAT     H129696   2.446   4.222   2.781 -0.0041  1.9622  1.2212
 7244WAT     H229697   2.519   4.178   2.889 -0.4778 -1.2184  0.3551
 7244WAT    EPW29698   2.451   4.200   2.856 -0.2737  0.0950  0.7401
 7245WAT      O29699   4.487   0.477   4.545  0.0081 -0.1516  0.1341
 7245WAT     H129700   4.490   0.503   4.462 -1.8450  2.9253  0.8753
 7245WAT     H229701   4.402   0.473   4.563  0.3552  0.2015  2.1356
 7245WAT    EPW29702   4.475   0.480   4.535 -0.2144  0.3551  0.5393
 7246WAT      O29703   6.869   6.496   0.254 -0.0000 -0.2418  0.1556
 7246WAT     H129704   6.816   6.430   0.233 -1.8287  1.1452  0.1729
 7246WAT     H229705   6.871   6.494   0.341 -1.8465  0.9944  0.2731
 7246WAT    EPW29706   6.862   6.486   0.263 -0.5429  0.1457  0.1755
 7247WAT      O29707   5.048   1.437   2.674 -0.2123 -0.6546 -0.1150
 7247WAT     H129708   5.001   1.383   2.624  0.3310 -1.9330  0.6903
 7247WAT     H229709   5.020   1.420   2.754  0.9081 -0.7288  0.2789
 7247WAT    EPW29710   5.037   1.426   2.678  0.0335 -0.8544  0.0621
 7248WAT      O29711   6.655   2.996   3.058 -0.2199  0.4593 -0.4826
 7248WAT     H129712   6.736   2.974   3.034  0.0379  2.6434 -1.9504
 7248WAT     H229713   6.668   3.062   3.114 -0.9737 -0.6282  1.0121
 7248WAT    EPW29714   6.669   3.003   3.063 -0.2932  0.6213 -0.4786
 7249WAT      O29715   3.137   1.911   3.832 -0.1087  0.3000 -0.2322
 7249WAT     H129716   3.189   1.950   3.890  0.0569 -1.2490  0.7213
 7249WAT     H229717   3.128   1.971   3.769 -1.1760  2.5071  1.8564
 7249WAT    EPW29718   3.143   1.926   3.832 -0.2419  0.3972  0.2172
 7250WAT      O29719   0.062   2.491   2.079  0.0623  0.1392  0.2251
 7250WAT     H129720   0.076   2.416   2.036 -1.9139 -1.1303  1.6148
 7250WAT     H229721  -0.013   2.521   2.046 -0.2038  0.4206  1.0425
 7250WAT    EPW29722   0.053   2.484   2.068 -0.2689 -0.0067  0.5511
 7251WAT      O29723   1.667   5.943   3.822 -0.3130  0.2971  0.2662
 7251WAT     H129724   1.628   5.889   3.877  2.0254  0.1187  1.9156
 7251WAT     H229725   1.688   5.891   3.755 -0.2391 -0.2885  0.7306
 7251WAT    EPW29726   1.665   5.927   3.820  0.0433  0.1842  0.5785
 7252WAT      O29727   6.769   0.253   3.534  0.1962 -0.5033  0.5929
 7252WAT     H129728   6.770   0.215   3.613 -0.3325 -0.6665  0.5265
 7252WAT     H229729   6.836   0.216   3.493  0.5951 -0.2799  1.0246
 7252WAT    EPW29730   6.779   0.242   3.540  0.1771 -0.4944  0.6468
 7253WAT      O29731   2.339   0.502   1.308  0.3188  0.2095 -0.0283
 7253WAT     H129732   2.315   0.422   1.334 -0.7630  0.7648  0.7553
 7253WAT     H229733   2.264   0.547   1.306  0.5776  0.6747 -2.5272
 7253WAT    EPW29734   2.325   0.497   1.311  0.1972  0.3602 -0.2817
 7254WAT      O29735   4.566   2.545   6.174 -0.0574  0.1628  0.0878
 7254WAT     H129736   4.644   2.521   6.204  0.6776 -0.0188 -1.8190
 7254WAT     H229737   4.521   2.470   6.171  0.5762 -0.2013 -1.1668
 7254WAT    EPW29738   4.570   2.530   6.178  0.1448  0.0822 -0.3792
 7255WAT      O29739   1.878   1.366   6.146 -0.0160  0.2086  0.0390
 7255WAT     H129740   1.838   1.412   6.084  0.7214  1.1274  0.2245
 7255WAT     H229741   1.833   1.291   6.148 -0.8423  0.6637 -0.7108
 7255WAT    EPW29742   1.865   1.362   6.138 -0.0292  0.4116 -0.0443
 7256WAT      O29743   1.265   0.684   1.986 -0.1662 -0.3560 -0.1218
 7256WAT     H129744   1.212   0.674   1.917 -0.3030 -1.6990  0.1483
 7256WAT     H229745   1.342   0.653   1.958  0.9072  2.7081 -0.9198
 7256WAT    EPW29746   1.269   0.678   1.972 -0.0278 -0.1018 -0.1998
 7257WAT      O29747   6.970   5.691   2.775  0.0731  0.3228 -0.3126
 7257WAT     H129748   7.032   5.630   2.784  2.3322  2.6244  1.2262
 7257WAT     H229749   6.908   5.666   2.831  1.8090  0.3014  1.7255
 7257WAT    EPW29750   6.970   5.678   2.785  0.6632  0.6597  0.2158
 7258WAT      O29751   1.848   7.057   5.980 -0.0776  0.0464  0.5268
 7258WAT     H129752   1.791   7.119   6.005 -0.2400 -0.0194  0.3259
 7258WAT     H229753   1.873   7.021   6.055  2.0592  2.1091  0.9186
 7258WAT    EPW29754   1.843   7.061   5.995  0.2141  0.3414  0.5550
 7259WAT      O29755   1.331   3.931   2.395 -0.2844 -0.5062  0.5743
 7259WAT     H129756   1.418   3.930   2.402 -0.3209  1.7170  2.7712
 7259WAT     H229757   1.313   4.015   2.378 -1.9592 -1.2500 -1.7713
 7259WAT    EPW29758   1.341   3.943   2.394 -0.5372 -0.2877  0.5524
 7260WAT      O29759   4.892   6.891   1.756  0.6619  0.2978 -0.1643
 7260WAT     H129760   4.889   6.975   1.736  0.9350  0.2560 -0.3832
 7260WAT     H229761   4.822   6.857   1.716 -0.6894  0.7736  1.6531
 7260WAT    EPW29762   4.881   6.898   1.747  0.5026  0.3619  0.0718
 7261WAT      O29763   4.171   2.896   6.109 -0.0276  0.0292  0.0994
 7261WAT     H129764   4.103   2.842   6.109 -0.1070  0.1255  0.2061
 7261WAT     H229765   4.234   2.849   6.146 -0.1313  0.0480  0.3096
 7261WAT    EPW29766   4.170   2.881   6.115 -0.0547  0.0462  0.1462
 7262WAT      O29767   2.018   0.982   1.897 -0.5295  0.0791 -0.1006
 7262WAT     H129768   1.974   0.917   1.859  1.1868 -1.8299  1.0032
 7262WAT     H229769   2.049   1.028   1.830 -0.0439 -1.4600 -0.9685
 7262WAT    EPW29770   2.016   0.980   1.881 -0.2042 -0.4303 -0.0657
 7263WAT      O29771   5.922   0.084   5.016 -0.0757 -0.5053 -0.2201
 7263WAT     H129772   5.899   0.101   5.098 -1.3623 -0.3853 -0.5761
 7263WAT     H229773   5.860   0.123   4.969  0.4108 -0.9083 -1.2367
 7263WAT    EPW29774   5.909   0.092   5.021 -0.1939 -0.5471 -0.4229
 7264WAT      O29775   2.993   6.273   3.349  0.0913  0.2450 -0.0537
 7264WAT     H129776   3.074   6.245   3.370  0.2933  0.8667  0.0043
 7264WAT     H229777   2.991   6.355   3.379 -0.4640  0.3311 -0.3169
 7264WAT    EPW29778   3.005   6.281   3.356  0.0391  0.3495 -0.0840
 7265WAT      O29779   3.180   0.297   0.523  0.3160  0.6428 -0.3738
 7265WAT     H129780   3.160   0.213   0.535  1.2958  0.4896  0.3140
 7265WAT     H229781   3.187   0.304   0.436  1.8440 -0.3964 -0.3743
 7265WAT    EPW29782   3.178   0.286   0.512  0.6864  0.4667 -0.2722
 7266WAT      O29783   2.056   6.263   6.098  0.5310  0.3413 -0.2279
 7266WAT     H129784   2.124   6.266   6.153  0.9922  0.9770 -0.8240
 7266WAT     H229785   2.086   6.215   6.031  0.2521  0.2807 -0.3104
 7266WAT    EPW29786   2.071   6.256   6.096  0.5580  0.4263 -0.3281
 7267WAT      O29787   3.501   4.222   6.561 -0.4306 -0.4657 -0.0068
 7267WAT     H129788   3.559   4.160   6.581  0.7633  0.5977 -0.0373
 7267WAT     H229789   3.492   4.216   6.474 -0.5029 -0.7540  0.0220
 7267WAT    EPW29790   3.508   4.212   6.551 -0.2649 -0.3512 -0.0070
 7268WAT      O29791   4.578   5.955   0.223 -0.3694  0.2173 -0.5796
 7268WAT     H129792   4.586   5.890   0.166 -0.8430 -0.2943 -0.0763
 7268WAT     H229793   4.597   6.027   0.176 -1.1800 -0.1406 -1.4775
 7268WAT    EPW29794   4.582   5.956   0.208 -0.5591  0.0889 -0.6379
 7269WAT      O29795   6.540   5.107   3.214  0.3970 -0.0833 -0.2764
 7269WAT     H129796   6.535   5.023   3.239  0.7777 -0.2809 -0.8467
 7269WAT     H229797   6.544   5.150   3.290  1.6198 -0.6807  0.0353
 7269WAT    EPW29798   6.540   5.101   3.229  0.6339 -0.2007 -0.3146
 7270WAT      O29799   1.909   1.093   7.134  0.1332  0.3495  0.1272
 7270WAT     H129800   1.903   1.130   7.056  2.6118  1.7261  0.4913
 7270WAT     H229801   1.885   1.156   7.189 -0.0243 -0.0754  0.5518
 7270WAT    EPW29802   1.905   1.108   7.131  0.4761  0.4901  0.2437
 7271WAT      O29803   0.699   5.121   6.329 -0.0612 -0.4057 -0.4476
 7271WAT     H129804   0.763   5.094   6.276  0.8881 -0.6239  0.7584
 7271WAT     H229805   0.643   5.161   6.275  0.6413 -1.0023 -1.6627
 7271WAT    EPW29806   0.700   5.123   6.313  0.1828 -0.5261 -0.4490
 7272WAT      O29807   4.387   4.851   6.580  0.2901  0.5583 -0.3735
 7272WAT     H129808   4.464   4.871   6.618  0.2855 -1.7089  1.0440
 7272WAT     H229809   4.410   4.825   6.500  1.0546 -0.0579  0.0190
 7272WAT    EPW29810   4.402   4.850   6.574  0.4023  0.1324 -0.1061
 7273WAT      O29811   7.075   6.871   2.867  0.6313 -0.1905  0.4611
 7273WAT     H129812   7.137   6.931   2.856  0.2879  0.1344  0.2565
 7273WAT     H229813   7.038   6.864   2.788  0.6339 -0.6330  0.4957
 7273WAT    EPW29814   7.079   6.879   2.854  0.5809 -0.2079  0.4360
 7274WAT      O29815   4.726   0.675   1.405  0.4205  0.2674 -0.4056
 7274WAT     H129816   4.801   0.682   1.360 -1.3503  0.8624 -3.5723
 7274WAT     H229817   4.716   0.754   1.441  1.6525 -0.0756  0.7797
 7274WAT    EPW29818   4.736   0.687   1.403  0.3409  0.3046 -0.6983
 7275WAT      O29819   1.527   1.075   4.102  0.4889  0.1123  0.4695
 7275WAT     H129820   1.556   1.130   4.041 -0.6578 -0.5323 -0.7190
 7275WAT     H229821   1.459   1.117   4.136  0.4559  0.0050  0.5347
 7275WAT    EPW29822   1.521   1.089   4.098  0.3146  0.0012  0.3036
 7276WAT      O29823   4.157   2.029   6.692  0.1337 -0.3659 -0.2346
 7276WAT     H129824   4.092   2.025   6.751  0.6849  0.2637  0.4275
 7276WAT     H229825   4.208   1.961   6.713  0.0334 -0.4811 -0.3565
 7276WAT    EPW29826   4.155   2.018   6.704  0.2003 -0.2899 -0.1548
 7277WAT      O29827   4.316   3.131   0.752  0.1878  0.1524  0.2578
 7277WAT     H129828   4.246   3.181   0.761 -0.7859 -0.9242 -0.8996
 7277WAT     H229829   4.376   3.185   0.718 -0.8845  0.5231 -1.1280
 7277WAT    EPW29830   4.315   3.146   0.748 -0.1144  0.0481 -0.1179
 7278WAT      O29831   4.389   2.073   2.024  0.3275 -0.0168  0.5829
 7278WAT     H129832   4.390   2.050   1.940 -2.1428 -0.5997  0.6325
 7278WAT     H229833   4.389   2.161   2.021  0.5009 -0.0318 -0.0069
 7278WAT    EPW29834   4.389   2.083   2.011 -0.0118 -0.1051  0.5031
 7279WAT      O29835   3.058   4.155   2.286  0.0843  0.4898 -0.4997
 7279WAT     H129836   2.985   4.187   2.321 -2.2000 -0.9094 -3.5223
 7279WAT     H229837   3.038   4.071   2.270  1.9488  0.3156 -2.3679
 7279WAT    EPW29838   3.044   4.147   2.289  0.0223  0.2574 -1.2222
 7280WAT      O29839   3.357   4.270   0.917 -0.1852  0.4903 -0.2758
 7280WAT     H129840   3.395   4.309   0.849 -0.1332 -0.9494 -1.1064
 7280WAT     H229841   3.418   4.215   0.947 -0.0450  1.4224  1.2378
 7280WAT    EPW29842   3.371   4.267   0.912 -0.1568  0.4153 -0.1749
 7281WAT      O29843   6.132   2.889   6.914 -0.7040 -0.2293 -0.6365
 7281WAT     H129844   6.190   2.853   6.859 -1.1388 -0.1796 -1.1354
 7281WAT     H229845   6.086   2.942   6.862  0.2399  1.4559  0.1713
 7281WAT    EPW29846   6.134   2.892   6.898 -0.6288  0.0270 -0.5909
 7282WAT      O29847   0.084   0.704   4.687  0.5585  0.3177 -0.1459
 7282WAT     H129848   0.081   0.622   4.657 -0.2192 -0.2337  1.3433
 7282WAT     H229849   0.168   0.728   4.675  1.4767 -1.6356  1.7096
 7282WAT    EPW29850   0.096   0.696   4.681  0.5793 -0.0523  0.3482
 7283WAT      O29851   1.772   0.122   6.542 -0.6446  0.0881  0.6487
 7283WAT     H129852   1.784   0.205   6.568  1.0238 -0.5706  2.1960
 7283WAT     H229853   1.784   0.076   6.614 -1.8895 -1.5294 -0.1146
 7283WAT    EPW29854   1.776   0.128   6.556 -0.5820 -0.2481  0.7645
 7284WAT      O29855   0.134   5.277   2.935  0.0585 -0.6597 -0.0330
 7284WAT     H129856   0.204   5.225   2.936 -0.2672 -1.1052  1.5225
 7284WAT     H229857   0.155   5.343   2.988  0.3224  0.6844 -1.6923
 7284WAT    EPW29858   0.148   5.279   2.943  0.0494 -0.5269 -0.0483
 7285WAT      O29859   0.707   2.686   1.706  0.1370  0.1206 -0.2495
 7285WAT     H129860   0.662   2.736   1.762  1.0772 -0.9024  1.5147
 7285WAT     H229861   0.730   2.742   1.643  0.9709  1.8866  1.5165
 7285WAT    EPW29862   0.704   2.702   1.705  0.3991  0.2304  0.2719
 7286WAT      O29863   0.783   4.294   4.213  0.0056 -0.3699  0.9446
 7286WAT     H129864   0.799   4.278   4.297  1.3244 -1.9435  0.4457
 7286WAT     H229865   0.849   4.346   4.188 -0.3887  0.1063  0.8676
 7286WAT    EPW29866   0.795   4.299   4.221  0.1422 -0.5320  0.8595
 7287WAT      O29867   6.298   7.250   3.944  0.2963  0.2373 -0.5758
 7287WAT     H129868   6.238   7.282   3.998 -0.9949 -1.3077 -1.0228
 7287WAT     H229869   6.340   7.191   3.992  1.0404  0.8332 -0.4674
 7287WAT    EPW29870   6.296   7.246   3.959  0.2155  0.0971 -0.6258
 7288WAT      O29871   2.310   1.725   3.684 -0.1407 -0.3984  0.6267
 7288WAT     H129872   2.321   1.656   3.737  1.3446  1.6435  3.2293
 7288WAT     H229873   2.391   1.748   3.662 -0.6045  0.4840 -0.2766
 7288WAT    EPW29874   2.324   1.718   3.689  0.0102  0.0336  0.8777
 7289WAT      O29875   3.130   1.664   2.090  0.4654 -0.0413  0.2160
 7289WAT     H129876   3.064   1.653   2.033  1.0587  0.6563 -0.6334
 7289WAT     H229877   3.136   1.586   2.128 -1.6661  0.2244  1.2407
 7289WAT    EPW29878   3.121   1.651   2.087  0.2382  0.1010  0.2419
 7290WAT      O29879   6.232   4.048   7.150 -0.2497 -0.0013  0.4606
 7290WAT     H129880   6.201   4.109   7.097  1.0075 -0.1847 -0.5277
 7290WAT     H229881   6.318   4.048   7.134 -0.1905 -1.8955  0.5553
 7290WAT    EPW29882   6.240   4.057   7.140 -0.0552 -0.3082  0.3286
 7291WAT      O29883   1.702   7.086   3.612  0.0358 -0.1443  0.2926
 7291WAT     H129884   1.717   7.166   3.581 -0.8853 -0.0992 -0.0410
 7291WAT     H229885   1.767   7.038   3.578  1.7627  0.8114  2.0500
 7291WAT    EPW29886   1.714   7.090   3.602  0.1548  0.0036  0.5029
 7292WAT      O29887   0.325   3.373   3.921 -0.0509 -0.3477 -0.6297
 7292WAT     H129888   0.364   3.446   3.893 -0.8378  0.4409  0.2796
 7292WAT     H229889   0.384   3.311   3.903  2.7742  1.0070  2.7562
 7292WAT    EPW29890   0.340   3.374   3.914  0.2502 -0.0311  0.0048
 7293WAT      O29891   0.497   2.623   2.223  0.1030 -0.5494  0.3714
 7293WAT     H129892   0.525   2.604   2.304 -1.0433  1.5305  1.3521
 7293WAT     H229893   0.412   2.636   2.234 -0.0987 -0.3509 -1.2192
 7293WAT    EPW29894   0.489   2.622   2.237 -0.0961 -0.2129  0.2813
 7294WAT      O29895   2.914   1.620   0.833 -0.6285  0.4234  0.3228
 7294WAT     H129896   2.935   1.619   0.918 -1.7032 -1.0252  0.6062
 7294WAT     H229897   2.899   1.536   0.814 -2.9317  0.9736 -0.6398
 7294WAT    EPW29898   2.915   1.608   0.843 -1.1274  0.2907  0.2225
 7295WAT      O29899   3.853   3.814   2.984 -0.2261  0.1356  0.4834
 7295WAT     H129900   3.848   3.900   2.996  0.4548  0.1785  0.5173
 7295WAT     H229901   3.795   3.798   2.921 -0.0050  0.6936  0.1322
 7295WAT    EPW29902   3.844   3.824   2.976 -0.0928  0.2244  0.4365
 7296WAT      O29903   5.122   2.644   5.734 -0.3719 -0.1656 -0.7228
 7296WAT     H129904   5.038   2.641   5.712 -0.3401 -1.8846 -0.8035
 7296WAT     H229905   5.150   2.719   5.701 -2.2122  1.2203  0.6872
 7296WAT    EPW29906   5.114   2.654   5.726 -0.6390 -0.2148 -0.5265
 7297WAT      O29907   5.944   3.243   0.600 -0.5245 -0.0171  0.5087
 7297WAT     H129908   5.949   3.306   0.660 -0.6831 -0.1531  0.6662
 7297WAT     H229909   6.024   3.207   0.603 -0.9076 -0.8609  1.5702
 7297WAT    EPW29910   5.957   3.247   0.610 -0.6046 -0.1618  0.6888
 7298WAT      O29911   1.686   2.053   3.897 -0.0046  0.2389 -0.1780
 7298WAT     H129912   1.601   2.055   3.917  0.3340 -0.6306  1.5097
 7298WAT     H229913   1.711   1.973   3.920  0.8461 -0.3322 -2.7092
 7298WAT    EPW29914   1.677   2.042   3.903  0.1711  0.0261 -0.3026
 7299WAT      O29915   4.385   0.040   2.774 -0.3207  0.1154  0.4652
 7299WAT     H129916   4.420   0.117   2.798  2.0592 -0.9146  0.5723
 7299WAT     H229917   4.427  -0.017   2.825 -1.1782 -1.3689 -0.4558
 7299WAT    EPW29918   4.396   0.043   2.785 -0.0958 -0.2560  0.3450
 7300WAT      O29919   6.455   1.892   6.788  0.7269  0.1659  0.3851
 7300WAT     H129920   6.447   1.870   6.872  0.7313 -0.8333  0.1245
 7300WAT     H229921   6.525   1.849   6.761 -0.0287 -0.5566 -0.4674
 7300WAT    EPW29922   6.464   1.883   6.797  0.6159 -0.0884  0.2207
 7301WAT      O29923   0.418   5.468   0.979 -0.2973  0.1199 -0.5897
 7301WAT     H129924   0.478   5.503   1.031 -0.4898 -1.7645  1.0524
 7301WAT     H229925   0.464   5.418   0.925 -0.2792 -0.1909 -0.2901
 7301WAT    EPW29926   0.434   5.466   0.979 -0.3231 -0.2044 -0.3029
 7302WAT      O29927   3.983   5.028   2.122 -0.5133 -0.5687  0.3388
 7302WAT     H129928   3.899   5.022   2.098 -0.1950 -0.0878 -1.0107
 7302WAT     H229929   4.025   4.996   2.053  0.5761  3.0243 -0.8476
 7302WAT    EPW29930   3.976   5.022   2.108 -0.3054  0.0331 -0.0358
 7303WAT      O29931   1.627   0.493   0.598  0.1931  0.1571  0.0261
 7303WAT     H129932   1.636   0.443   0.527  1.1893  1.1180 -0.5568
 7303WAT     H229933   1.556   0.542   0.579  0.3027  0.2306 -0.2030
 7303WAT    EPW29934   1.618   0.493   0.584  0.3565  0.3099 -0.0938
 7304WAT      O29935   4.355   5.992   2.577 -0.0351  0.0062  0.2504
 7304WAT     H129936   4.282   5.956   2.608  0.0948 -0.5897 -0.1150
 7304WAT     H229937   4.407   5.924   2.563  0.5723  0.4239  0.4513
 7304WAT    EPW29938   4.352   5.977   2.579  0.0738 -0.0201  0.2261
 7305WAT      O29939   1.707   2.625   2.449 -0.2148 -0.4693 -0.3405
 7305WAT     H129940   1.663   2.603   2.521 -1.1719  0.4163 -0.6248
 7305WAT     H229941   1.780   2.663   2.480 -0.1185 -1.0410  0.1426
 7305WAT    EPW29942   1.712   2.627   2.464 -0.3420 -0.4229 -0.3111
 7306WAT      O29943   7.264   0.803   4.410 -0.6416 -0.3131  0.2719
 7306WAT     H129944   7.182   0.807   4.380 -1.1580 -0.6041  1.5831
 7306WAT     H229945   7.276   0.719   4.427 -0.2435 -0.1986  0.5705
 7306WAT    EPW29946   7.254   0.791   4.408 -0.6591 -0.3392  0.5097
 7307WAT      O29947   6.638   4.729   5.369  0.2384 -0.0145  0.2953
 7307WAT     H129948   6.714   4.768   5.387  0.5172 -0.1322 -0.5939
 7307WAT     H229949   6.603   4.714   5.448  0.0079  2.2282  0.6760
 7307WAT    EPW29950   6.644   4.732   5.383  0.2455  0.2994  0.2202
 7308WAT      O29951   6.070   6.984   3.950  0.3330 -0.4053 -0.5789
 7308WAT     H129952   6.087   7.013   4.031 -0.8132  0.7687 -0.7213
 7308WAT     H229953   6.148   6.984   3.911  0.5931  1.1351 -0.1095
 7308WAT    EPW29954   6.084   6.988   3.956  0.2021 -0.0043 -0.5306
 7309WAT      O29955   1.019   4.809   4.726  0.2135 -0.4851 -0.1054
 7309WAT     H129956   0.943   4.847   4.745  1.3068  2.0094 -0.3971
 7309WAT     H229957   1.027   4.747   4.788 -0.8234  0.9883  1.6059
 7309WAT    EPW29958   1.009   4.805   4.738  0.2218  0.1010  0.1043
 7310WAT      O29959   6.514   2.435   4.222  0.0233  0.2593  0.1614
 7310WAT     H129960   6.513   2.350   4.240  0.8409  0.0960 -0.5106
 7310WAT     H229961   6.436   2.449   4.184 -0.1366 -0.1603  0.3273
 7310WAT    EPW29962   6.502   2.425   4.219  0.1205  0.1732  0.0866
 7311WAT      O29963   6.372   7.186   3.559 -0.1872 -0.6352  0.4103
 7311WAT     H129964   6.315   7.174   3.494  0.2999  0.9484 -0.3628
 7311WAT     H229965   6.448   7.161   3.524 -0.1899 -1.4951  0.9983
 7311WAT    EPW29966   6.375   7.181   3.544 -0.1157 -0.5283  0.3830
 7312WAT      O29967   5.195   5.857   5.303 -0.1245 -0.2153 -0.1222
 7312WAT     H129968   5.194   5.921   5.244  0.0504 -0.1527 -0.0571
 7312WAT     H229969   5.258   5.881   5.358 -1.7114  0.8900  1.3326
 7312WAT    EPW29970   5.204   5.870   5.303 -0.3331 -0.0428  0.1023
 7313WAT      O29971   5.389   1.006   6.996 -0.2430  0.2225  0.4624
 7313WAT     H129972   5.438   0.943   6.960  0.2014  0.1226  1.2165
 7313WAT     H229973   5.417   1.079   6.957 -0.1919  0.0466  0.1689
 7313WAT    EPW29974   5.401   1.007   6.985 -0.1698  0.1818  0.5304
 7314WAT      O29975   2.571   5.294   7.221  0.2764  0.7857  0.3646
 7314WAT     H129976   2.491   5.322   7.201  0.2815  0.4468 -0.1314
 7314WAT     H229977   2.561   5.254   7.298 -0.5042 -1.3781 -0.7923
 7314WAT    EPW29978   2.558   5.292   7.229  0.1618  0.4160  0.1204
 7315WAT      O29979   4.057   0.558   7.072  0.6312 -0.0248 -0.1085
 7315WAT     H129980   4.002   0.595   7.015 -0.6636 -0.8498  0.5527
 7315WAT     H229981   4.116   0.619   7.086 -0.6860  1.2965 -0.0726
 7315WAT    EPW29982   4.057   0.572   7.066  0.2454  0.0485 -0.0056
 7316WAT      O29983   0.840   5.931   1.438  0.1086 -0.7269 -0.3766
 7316WAT     H129984   0.892   5.962   1.502 -0.5510 -0.5262  0.0709
 7316WAT     H229985   0.880   5.857   1.414 -0.0178 -1.1904  0.7808
 7316WAT    EPW29986   0.854   5.925   1.444 -0.0075 -0.7657 -0.1395
 7317WAT      O29987   0.581   0.036   6.287 -0.3966 -0.9786  0.1182
 7317WAT     H129988   0.551  -0.033   6.243 -1.2873 -1.7245  1.7984
 7317WAT     H229989   0.597   0.095   6.225 -1.7647 -1.8926 -1.1683
 7317WAT    EPW29990   0.579   0.034   6.271 -0.7303 -1.2238  0.1764
 7318WAT      O29991   6.508   3.720   4.788 -0.2984 -0.0877  0.2220
 7318WAT     H129992   6.548   3.680   4.722 -0.8743 -1.6177  0.7662
 7318WAT     H229993   6.531   3.804   4.778 -0.4375 -0.2520 -1.9753
 7318WAT    EPW29994   6.517   3.727   4.776 -0.4040 -0.3380 -0.0222
 7319WAT      O29995   6.131   0.551   6.499 -0.1835  0.4891  0.5242
 7319WAT     H129996   6.179   0.480   6.482  0.6523  1.1590 -0.0071
 7319WAT     H229997   6.085   0.563   6.426 -0.9975 -0.0042  0.9397
 7319WAT    EPW29998   6.131   0.542   6.486 -0.1803  0.5152  0.5071
 7320WAT      O29999   1.939   5.877   4.501  0.1188  0.0820  0.2434
 7320WAT     H130000   1.881   5.916   4.449 -1.2113 -0.9904  0.8768
 7320WAT     H230001   1.903   5.882   4.580  1.8212  1.1342  1.0143
 7320WAT    EPW30002   1.925   5.883   4.505  0.1738  0.0790  0.4508
 7321WAT      O30003   2.524   0.929   0.936 -0.2120 -0.0786  0.1205
 7321WAT     H130004   2.575   0.859   0.922 -0.2988 -0.5646  2.0183
 7321WAT     H230005   2.481   0.909   1.009 -1.9299  1.0262 -0.5182
 7321WAT    EPW30006   2.525   0.916   0.945 -0.4786  0.0128  0.3065
 7322WAT      O30007   1.595   5.100   0.825  0.2319 -0.4628 -0.0237
 7322WAT     H130008   1.662   5.048   0.806  0.4205 -0.7916  1.3799
 7322WAT     H230009   1.584   5.088   0.911 -0.5039  0.9000  0.1069
 7322WAT    EPW30010   1.603   5.091   0.835  0.1511 -0.3100  0.2029
 7323WAT      O30011   2.509   4.532   2.590 -0.1518 -0.0056 -0.1907
 7323WAT     H130012   2.442   4.549   2.643 -1.1114 -0.1451 -1.3208
 7323WAT     H230013   2.495   4.449   2.565  0.1904  0.1127 -0.7984
 7323WAT    EPW30014   2.497   4.522   2.594 -0.2430 -0.0087 -0.4474
 7324WAT      O30015   3.291   0.123   7.367  0.1856 -0.2697 -0.1326
 7324WAT     H130016   3.221   0.164   7.336  1.7259  1.1577 -1.9796
 7324WAT     H230017   3.354   0.184   7.365  1.9909 -2.0215 -0.5837
 7324WAT    EPW30018   3.290   0.138   7.362  0.6798 -0.3176 -0.4721
 7325WAT      O30019   3.504   0.750   1.322 -0.5217  0.4913  0.2850
 7325WAT     H130020   3.548   0.772   1.394 -1.0674  1.3643  0.3596
 7325WAT     H230021   3.567   0.734   1.264 -0.0761  1.9093  0.3326
 7325WAT    EPW30022   3.520   0.751   1.324 -0.5365  0.8297  0.3030
 7326WAT      O30023   6.891   3.020   6.762  0.6350  0.2153 -0.1480
 7326WAT     H130024   6.923   2.964   6.703 -1.9667 -2.2221  0.5132
 7326WAT     H230025   6.884   3.094   6.717 -0.4344 -1.2962 -2.7213
 7326WAT    EPW30026   6.895   3.022   6.747  0.0927 -0.3680 -0.4304
 7327WAT      O30027   1.405   1.307   3.728  0.3634 -0.2995  0.2250
 7327WAT     H130028   1.345   1.244   3.736  1.1343 -1.0026  0.7330
 7327WAT     H230029   1.459   1.275   3.667 -0.1819  0.6721 -0.7902
 7327WAT    EPW30030   1.404   1.293   3.720  0.3967 -0.2599  0.1501
 7328WAT      O30031   0.077   4.707   5.456  0.6734 -0.1720  0.4220
 7328WAT     H130032  -0.001   4.745   5.455  0.4055 -0.7068  0.8416
 7328WAT     H230033   0.060   4.624   5.473  1.3528 -0.2471  0.7873
 7328WAT    EPW30034   0.063   4.700   5.458  0.7342 -0.2621  0.5379
 7329WAT      O30035   6.479   5.298   6.311 -0.7576 -0.2228  0.4632
 7329WAT     H130036   6.527   5.333   6.375 -0.7761  1.0660 -0.1957
 7329WAT     H230037   6.403   5.339   6.317 -0.8151 -0.2007 -0.2713
 7329WAT    EPW30038   6.475   5.309   6.321 -0.7688 -0.0291  0.2573
 7330WAT      O30039   4.490   7.061   3.714  0.7897  0.2335 -0.4100
 7330WAT     H130040   4.422   7.094   3.758  0.8831  0.4550 -0.4305
 7330WAT     H230041   4.512   6.991   3.761  0.2325 -0.1317 -0.6747
 7330WAT    EPW30042   4.483   7.055   3.728  0.7212  0.2122 -0.4521
 7331WAT      O30043   3.322   0.100   1.492  0.6205  0.1030  0.6146
 7331WAT     H130044   3.360   0.062   1.423 -0.3843 -1.1864  0.7332
 7331WAT     H230045   3.304   0.181   1.463  0.3224 -0.3730 -0.6258
 7331WAT    EPW30046   3.325   0.107   1.477  0.4280 -0.1578  0.4489
 7332WAT      O30047   3.436   5.354   5.280  0.3663  0.3884  0.1171
 7332WAT     H130048   3.398   5.430   5.302  0.7126  0.3739  0.7921
 7332WAT     H230049   3.380   5.319   5.223 -0.7739  0.2373  1.2793
 7332WAT    EPW30050   3.422   5.360   5.275  0.2490  0.3640  0.3885
 7333WAT      O30051   4.371   0.429   1.575 -0.1885 -0.0165 -0.8384
 7333WAT     H130052   4.429   0.449   1.637 -1.1582  1.2514 -0.2988
 7333WAT     H230053   4.315   0.377   1.616 -0.2516 -0.0399 -0.9553
 7333WAT    EPW30054   4.372   0.424   1.590 -0.3411  0.1674 -0.7759
 7334WAT      O30055   2.778   1.483   0.532 -0.3255 -0.4693 -0.0672
 7334WAT     H130056   2.800   1.426   0.470 -0.3840 -1.7921  1.0847
 7334WAT     H230057   2.750   1.433   0.598 -1.6142  0.9527  0.5220
 7334WAT    EPW30058   2.777   1.467   0.533 -0.5245 -0.4547  0.1900
 7335WAT      O30059   4.982   4.535   4.203 -0.1801  0.0191 -0.1027
 7335WAT     H130060   4.905   4.570   4.223 -0.5102 -1.7149  2.0541
 7335WAT     H230061   5.007   4.495   4.276  2.1336 -0.6529 -1.1417
 7335WAT    EPW30062   4.975   4.534   4.217  0.1129 -0.3363  0.0624
 7336WAT      O30063   7.001   0.529   1.670 -0.2121  0.7226 -0.3795
 7336WAT     H130064   7.086   0.547   1.663  0.2902 -1.3603 -0.2447
 7336WAT     H230065   6.987   0.529   1.756 -0.3131  0.9076 -0.3957
 7336WAT    EPW30066   7.011   0.532   1.682 -0.1528  0.4423 -0.3620
 7337WAT      O30067   2.058   6.993   3.746 -0.0614 -0.1518 -0.7873
 7337WAT     H130068   2.079   6.983   3.662  0.6823  0.0455 -0.6356
 7337WAT     H230069   2.104   6.931   3.786  0.5059  0.4983 -0.4078
 7337WAT    EPW30070   2.068   6.983   3.739  0.1323 -0.0266 -0.7088
 7338WAT      O30071   6.444   2.062   0.343 -0.3776  0.3913  0.0838
 7338WAT     H130072   6.408   1.991   0.377  0.5639 -0.5116 -0.7177
 7338WAT     H230073   6.460   2.039   0.260  1.3459  0.9659  0.2026
 7338WAT    EPW30074   6.441   2.048   0.336  0.0161  0.3428 -0.0171
 7339WAT      O30075   3.678   5.757   6.083  0.2940 -0.5025 -0.6456
 7339WAT     H130076   3.619   5.697   6.059  1.9389 -2.5202  0.0386
 7339WAT     H230077   3.710   5.786   6.007 -1.8116  1.0268 -1.0581
 7339WAT    EPW30078   3.674   5.752   6.068  0.2260 -0.5746 -0.6055
 7340WAT      O30079   6.271   0.209   4.381 -0.1155  0.9469  0.5008
 7340WAT     H130080   6.349   0.169   4.383  0.1657  1.1945 -1.8600
 7340WAT     H230081   6.286   0.285   4.420  0.5997  0.6352  0.8618
 7340WAT    EPW30082   6.285   0.214   4.387  0.0317  0.9374  0.2054
 7341WAT      O30083   4.465   1.413   4.046  0.2953 -0.3102  0.1362
 7341WAT     H130084   4.420   1.379   3.979  1.0095 -0.1788 -0.4222
 7341WAT     H230085   4.452   1.499   4.038  0.9105 -0.2450 -0.2342
 7341WAT    EPW30086   4.456   1.420   4.035  0.4917 -0.2812 -0.0010
 7342WAT      O30087   3.588   4.408   3.032  0.5357 -0.6509  0.2155
 7342WAT     H130088   3.661   4.361   3.022  0.2827 -1.1546  0.7395
 7342WAT     H230089   3.541   4.388   2.961  0.4794 -1.1009  0.3794
 7342WAT    EPW30090   3.592   4.398   3.020  0.4900 -0.7918  0.3171
 7343WAT      O30091   4.046   4.763   7.217 -0.4621 -0.1470 -0.4255
 7343WAT     H130092   4.026   4.720   7.144 -1.0846  0.6717 -0.7491
 7343WAT     H230093   4.119   4.806   7.197  0.3884 -1.3240  0.0241
 7343WAT    EPW30094   4.054   4.763   7.204 -0.4284 -0.1999 -0.4069
 7344WAT      O30095   2.762   3.410   0.541  0.0360 -0.2372  0.0409
 7344WAT     H130096   2.782   3.472   0.482  0.4380 -0.3835  0.0173
 7344WAT     H230097   2.733   3.456   0.609  3.2206  0.2922  1.2511
 7344WAT    EPW30098   2.761   3.426   0.542  0.5658 -0.1806  0.2162
 7345WAT      O30099   1.451   1.963   3.509  0.0823 -0.0292 -0.6248
 7345WAT     H130100   1.512   1.900   3.515 -1.0325 -1.0877 -0.0793
 7345WAT     H230101   1.400   1.935   3.444  0.1213  0.8269 -1.0325
 7345WAT    EPW30102   1.453   1.949   3.500 -0.0766 -0.0591 -0.6045
 7346WAT      O30103   5.742   5.706   1.024  0.3602 -0.6005 -0.1619
 7346WAT     H130104   5.699   5.714   1.100  2.5515 -0.4791  1.1403
 7346WAT     H230105   5.713   5.774   0.977 -0.4892 -0.2525  0.8330
 7346WAT    EPW30106   5.731   5.717   1.028  0.5584 -0.5311  0.1775
 7347WAT      O30107   3.007   6.703   1.269  0.3336 -0.0715 -0.1967
 7347WAT     H130108   3.012   6.785   1.298  1.1043  0.8144 -2.5971
 7347WAT     H230109   3.082   6.668   1.298  0.8952  0.6582 -0.7044
 7347WAT    EPW30110   3.019   6.710   1.278  0.5304  0.1671 -0.6263
 7348WAT      O30111   7.303   0.855   1.482 -0.3117 -0.6598  0.3223
 7348WAT     H130112   7.329   0.937   1.494 -1.0787 -0.2124 -0.8417
 7348WAT     H230113   7.275   0.855   1.399  1.9806 -2.7169 -0.5813
 7348WAT    EPW30114   7.303   0.867   1.471 -0.0864 -0.8976  0.0169
 7349WAT      O30115   4.924   6.250   0.610 -0.0726  0.5425 -0.3351
 7349WAT     H130116   4.976   6.283   0.548 -0.2997  1.2839 -0.1422
 7349WAT     H230117   4.845   6.253   0.573 -0.2496  1.2441  0.0759
 7349WAT    EPW30118   4.920   6.255   0.595 -0.1323  0.7557 -0.2459
 7350WAT      O30119   5.832   2.917   2.649 -0.0687  0.3715  0.1933
 7350WAT     H130120   5.836   2.886   2.567 -0.1573  0.0663  0.3014
 7350WAT     H230121   5.757   2.884   2.679 -0.1866  0.7349  0.2973
 7350WAT    EPW30122   5.821   2.907   2.641 -0.0992  0.3801  0.2246
 7351WAT      O30123   2.650   2.433   1.604  0.3318  0.4100 -0.3610
 7351WAT     H130124   2.652   2.476   1.680 -0.3375 -0.8940  0.4251
 7351WAT     H230125   2.589   2.475   1.558  1.0965  1.5226 -0.3966
 7351WAT    EPW30126   2.642   2.446   1.609  0.3459  0.3817 -0.2501
 7352WAT      O30127   3.775   6.989   3.035 -0.7098 -0.3095  0.0611
 7352WAT     H130128   3.745   6.976   3.116  1.0037 -2.6128  0.4237
 7352WAT     H230129   3.853   7.024   3.048  0.2845 -2.2014 -0.4492
 7352WAT    EPW30130   3.782   6.992   3.049 -0.3098 -0.9292  0.0393
 7353WAT      O30131   4.877   1.168   4.289  0.3349 -0.3338  0.0077
 7353WAT     H130132   4.819   1.185   4.225  0.9366 -2.0283 -1.0562
 7353WAT     H230133   4.915   1.245   4.302  0.8242 -0.0804 -2.3827
 7353WAT    EPW30134   4.874   1.182   4.281  0.4961 -0.5467 -0.5026
 7354WAT      O30135   0.131   1.510   3.048 -0.3324 -0.8587  0.0033
 7354WAT     H130136   0.084   1.558   3.104 -0.1063 -0.9075  0.2357
 7354WAT     H230137   0.201   1.559   3.033 -0.1784 -1.0431  0.1153
 7354WAT    EPW30138   0.134   1.525   3.054 -0.2763 -0.8932  0.0542
 7355WAT      O30139   4.229   5.996   0.618 -0.2111 -0.0104 -0.2867
 7355WAT     H130140   4.163   5.999   0.562  0.5717 -3.5724 -1.6375
 7355WAT     H230141   4.217   5.920   0.660  1.1522  0.9040  1.9644
 7355WAT    EPW30142   4.218   5.985   0.616  0.1060 -0.4015 -0.1537
 7356WAT      O30143   6.253   5.737   1.025 -0.2224  0.7034 -0.0201
 7356WAT     H130144   6.176   5.776   1.028 -0.1990  0.7300  0.2172
 7356WAT     H230145   6.291   5.760   1.100  0.0030  0.6650 -0.1211
 7356WAT    EPW30146   6.247   5.746   1.036 -0.1856  0.7017  0.0000
 7357WAT      O30147   4.257   2.650   6.445  0.1641 -0.2260  0.2343
 7357WAT     H130148   4.248   2.705   6.512  0.8594 -0.7870  0.8058
 7357WAT     H230149   4.227   2.574   6.476 -0.1034 -0.3406 -0.3025
 7357WAT    EPW30150   4.252   2.647   6.460  0.2273 -0.3258  0.2394
 7358WAT      O30151   6.927   2.095   1.542 -0.2181  0.0399  0.2345
 7358WAT     H130152   6.877   2.027   1.564  0.6867 -0.7886 -0.1869
 7358WAT     H230153   6.897   2.160   1.592 -1.1391 -0.6510  0.6032
 7358WAT    EPW30154   6.915   2.095   1.552 -0.2205 -0.1846  0.2267
 7359WAT      O30155   3.981   3.608   5.423  0.3781 -0.4713 -0.1195
 7359WAT     H130156   3.912   3.661   5.425  0.8782  0.1950  1.8346
 7359WAT     H230157   4.042   3.656   5.384  0.6999  0.2879  1.2469
 7359WAT    EPW30158   3.980   3.623   5.418  0.4995 -0.2608  0.3710
 7360WAT      O30159   2.890   4.390   0.904 -0.2012 -0.4134  0.8262
 7360WAT     H130160   2.951   4.328   0.913 -0.5541 -0.8624  0.1651
 7360WAT     H230161   2.822   4.360   0.949  0.4053  0.6000  2.5162
 7360WAT    EPW30162   2.889   4.376   0.912 -0.1637 -0.3300  0.9782
 7361WAT      O30163   0.130   5.380   0.029  0.1872 -0.1071  0.4499
 7361WAT     H130164   0.109   5.387   0.113  0.5461  0.3354  0.5038
 7361WAT     H230165   0.201   5.329   0.029  0.9208  0.8700  0.5322
 7361WAT    EPW30166   0.138   5.374   0.041  0.3486  0.1026  0.4700
 7362WAT      O30167   4.917   1.996   7.070 -0.1277 -0.4564 -0.1340
 7362WAT     H130168   4.939   1.949   7.140 -0.4165  1.8557  1.6545
 7362WAT     H230169   4.993   2.021   7.036  0.0443  0.0903  0.6261
 7362WAT    EPW30170   4.932   1.993   7.076 -0.1449 -0.0341  0.2425
 7363WAT      O30171   3.244   1.520   2.867 -0.4216  0.1209 -0.0780
 7363WAT     H130172   3.249   1.475   2.942  1.2897  0.1804 -0.0980
 7363WAT     H230173   3.160   1.517   2.847 -0.7077 -1.1441  1.0977
 7363WAT    EPW30174   3.233   1.513   2.875 -0.2111 -0.0572  0.0927
 7364WAT      O30175   4.289   3.855   5.684 -0.2510  0.5006  0.5626
 7364WAT     H130176   4.239   3.783   5.673 -0.0138  0.5141 -0.8067
 7364WAT     H230177   4.362   3.835   5.641 -0.6185  1.9904 -0.8146
 7364WAT    EPW30178   4.292   3.841   5.676 -0.2702  0.7226  0.1569
 7365WAT      O30179   2.726   6.118   5.822  0.6372 -0.2673 -0.9106
 7365WAT     H130180   2.738   6.167   5.893  0.1896 -0.0661 -0.9713
 7365WAT     H230181   2.718   6.176   5.758 -2.3138 -0.2293 -0.6735
 7365WAT    EPW30182   2.726   6.134   5.823  0.1352 -0.2320 -0.8845
 7366WAT      O30183   2.366   7.052   3.604 -0.5481  0.1072 -0.5682
 7366WAT     H130184   2.330   6.974   3.592 -0.6120 -0.1004  0.8121
 7366WAT     H230185   2.317   7.088   3.667 -0.1420  1.0170 -0.7504
 7366WAT    EPW30186   2.353   7.046   3.611 -0.4976  0.2109 -0.3912
 7367WAT      O30187   5.529   1.317   4.747  0.4640  0.2157 -0.3302
 7367WAT     H130188   5.474   1.384   4.739  1.8754  1.6122  0.8492
 7367WAT     H230189   5.593   1.337   4.690  0.5969 -0.4395 -0.4146
 7367WAT    EPW30190   5.531   1.330   4.737  0.6921  0.3252 -0.1684
 7368WAT      O30191   4.494   4.189   4.298  0.6460  0.5169 -0.2585
 7368WAT     H130192   4.474   4.273   4.288  0.8002  0.5977  0.0976
 7368WAT     H230193   4.569   4.180   4.254  1.3713  0.8909  0.8652
 7368WAT    EPW30194   4.502   4.200   4.290  0.7759  0.5841 -0.0399
 7369WAT      O30195   5.546   4.928   6.166  0.8114 -0.1956  0.2524
 7369WAT     H130196   5.632   4.930   6.148  0.9554  1.2404  0.9704
 7369WAT     H230197   5.520   5.009   6.148 -0.3850 -0.5855  0.1769
 7369WAT    EPW30198   5.555   4.940   6.160  0.6560 -0.0410  0.3473
 7370WAT      O30199   7.035   0.588   0.073  0.0947 -0.2632 -0.1918
 7370WAT     H130200   7.054   0.527   0.132 -1.5736 -0.8978 -0.2548
 7370WAT     H230201   7.056   0.551  -0.003 -1.3519 -1.0079 -0.2709
 7370WAT    EPW30202   7.041   0.574   0.070 -0.3655 -0.4669 -0.2128
 7371WAT      O30203   6.462   3.094   6.691 -0.0682  0.6029 -0.0369
 7371WAT     H130204   6.403   3.158   6.698 -0.6768 -0.0790  1.5123
 7371WAT     H230205   6.413   3.022   6.699  1.0405  0.0214  2.4797
 7371WAT    EPW30206   6.446   3.093   6.693  0.0057  0.4163  0.5637
 7372WAT      O30207   1.572   3.841   4.393 -0.1694 -0.2657  0.1113
 7372WAT     H130208   1.583   3.860   4.308  0.7586 -1.8481 -0.1715
 7372WAT     H230209   1.490   3.813   4.397 -0.1520 -0.3924 -0.3237
 7372WAT    EPW30210   1.562   3.840   4.381 -0.0297 -0.5181  0.0053
 7373WAT      O30211   1.333   6.766   6.321 -0.3124 -0.1443  0.1846
 7373WAT     H130212   1.385   6.822   6.280 -0.2839 -0.4930 -0.2625
 7373WAT     H230213   1.388   6.706   6.352 -0.4146 -0.3676 -0.0567
 7373WAT    EPW30214   1.349   6.765   6.319 -0.3233 -0.2288  0.0829
 7374WAT      O30215   0.126   6.720   6.292 -0.3758 -0.2286 -0.5888
 7374WAT     H130216   0.142   6.637   6.272 -0.4544  0.3419 -3.5120
 7374WAT     H230217   0.176   6.764   6.236 -1.7892  1.6544 -0.4579
 7374WAT    EPW30218   0.136   6.714   6.281 -0.5962  0.1338 -1.0012
 7375WAT      O30219   5.651   5.421   6.667  0.2329  0.0796  0.2820
 7375WAT     H130220   5.737   5.411   6.657  0.0727 -0.4315 -0.7007
 7375WAT     H230221   5.644   5.458   6.745  1.3287 -0.2243  0.5465
 7375WAT    EPW30222   5.663   5.425   6.677  0.3711 -0.0408  0.1759
 7376WAT      O30223   5.919   1.381   4.262 -0.8068  0.0094 -0.4913
 7376WAT     H130224   5.929   1.294   4.257 -0.0443  0.0183  0.4692
 7376WAT     H230225   5.960   1.401   4.336 -0.1889  1.3122 -1.1645
 7376WAT    EPW30226   5.927   1.371   4.272 -0.6029  0.2031 -0.4488
 7377WAT      O30227   0.569   1.467   7.034 -0.4435  0.3842  0.4486
 7377WAT     H130228   0.580   1.495   6.952  1.8431 -0.1932  0.5065
 7377WAT     H230229   0.577   1.540   7.082  2.8639  0.1613  0.4141
 7377WAT    EPW30230   0.572   1.482   7.029  0.3829  0.2660  0.4521
 7378WAT      O30231   5.525   3.206   4.533  0.0484  0.0425  0.3610
 7378WAT     H130232   5.553   3.238   4.457  1.5769  0.2086  0.9646
 7378WAT     H230233   5.441   3.186   4.517 -0.6998  3.2444 -0.3561
 7378WAT    EPW30234   5.517   3.208   4.519  0.1636  0.5400  0.3442
 7379WAT      O30235   1.980   2.437   1.503  0.7067 -0.4576 -0.0290
 7379WAT     H130236   1.994   2.449   1.588 -1.8607  1.2967  0.2767
 7379WAT     H230237   1.907   2.389   1.501  0.9220 -0.7612 -1.2476
 7379WAT    EPW30238   1.971   2.432   1.515  0.3592 -0.2433 -0.1639
 7380WAT      O30239   4.291   5.594   0.875 -0.2294 -0.0077 -0.2961
 7380WAT     H130240   4.360   5.542   0.865 -1.0408 -1.2667  0.3584
 7380WAT     H230241   4.272   5.620   0.794  0.1480 -0.8041 -0.6470
 7380WAT    EPW30242   4.298   5.590   0.862 -0.2935 -0.3113 -0.2513
 7381WAT      O30243   0.845   3.429   1.531  0.8734  0.2949  0.3230
 7381WAT     H130244   0.845   3.492   1.592  1.9511  2.7577 -1.9875
 7381WAT     H230245   0.765   3.432   1.498  1.2131  1.3009 -0.4807
 7381WAT    EPW30246   0.833   3.439   1.535  1.0828  0.8073 -0.1371
 7382WAT      O30247   3.605   5.166   1.488  0.3831 -0.0135  0.1345
 7382WAT     H130248   3.621   5.244   1.524  0.2886 -0.4329  1.0977
 7382WAT     H230249   3.518   5.167   1.475  0.6023  0.7495 -1.5666
 7382WAT    EPW30250   3.594   5.178   1.491  0.4015  0.0373  0.0255
 7383WAT      O30251   1.590   4.032   0.215  0.3821  0.2503  0.1815
 7383WAT     H130252   1.606   3.947   0.227  2.0621  0.4860 -0.1508
 7383WAT     H230253   1.537   4.033   0.146 -0.7558 -0.5715  1.0036
 7383WAT    EPW30254   1.585   4.019   0.206  0.4622  0.1637  0.2539
 7384WAT      O30255   5.163   1.616   7.094  0.1869 -0.4642 -0.0701
 7384WAT     H130256   5.221   1.641   7.154  1.4666 -1.4644 -0.8409
 7384WAT     H230257   5.141   1.536   7.118  0.4014 -0.7202 -0.7097
 7384WAT    EPW30258   5.168   1.608   7.106  0.4076 -0.6498 -0.2785
 7385WAT      O30259   4.208   4.457   3.089  0.2591 -0.1644  0.1019
 7385WAT     H130260   4.266   4.422   3.145 -0.5721  1.1573  1.9041
 7385WAT     H230261   4.131   4.436   3.124 -0.2754  1.6845  0.1618
 7385WAT    EPW30262   4.205   4.449   3.103  0.0574  0.3040  0.3770
 7386WAT      O30263   4.810   3.242   3.106  0.3061  0.4565 -0.1518
 7386WAT     H130264   4.725   3.259   3.101  0.6342  2.5569  0.1479
 7386WAT     H230265   4.817   3.188   3.174 -0.6536  1.7464  1.0200
 7386WAT    EPW30266   4.799   3.237   3.115  0.2128  0.9573  0.0656
 7387WAT      O30267   0.624   2.483   2.977 -0.0933  0.4280  0.1029
 7387WAT     H130268   0.709   2.487   2.962 -0.1167 -0.7653 -0.4453
 7387WAT     H230269   0.597   2.416   2.929 -1.4503  1.1307 -0.1888
 7387WAT    EPW30270   0.632   2.474   2.968 -0.2972  0.3555 -0.0212
 7388WAT      O30271   1.789   3.286   5.588  0.1914 -0.1211 -0.3590
 7388WAT     H130272   1.808   3.341   5.653  1.0997 -0.2678 -0.4884
 7388WAT     H230273   1.773   3.211   5.630 -3.0323  0.6338 -0.0046
 7388WAT    EPW30274   1.790   3.283   5.604 -0.1506 -0.0313 -0.3258
 7389WAT      O30275   5.412   3.503   0.629  0.0283  0.6924  0.9025
 7389WAT     H130276   5.338   3.537   0.661  0.4823  1.4762  1.1326
 7389WAT     H230277   5.475   3.547   0.669  0.6429 -0.3346  1.1033
 7389WAT    EPW30278   5.410   3.514   0.639  0.1861  0.6565  0.9662
 7390WAT      O30279   1.993   6.547   6.093  0.1186  0.2511 -0.0773
 7390WAT     H130280   1.934   6.551   6.029 -1.2479 -0.0872  1.1155
 7390WAT     H230281   2.011   6.461   6.100  0.7545  0.3467 -0.4106
 7390WAT    EPW30282   1.987   6.535   6.084  0.0107  0.2153  0.0497
 7391WAT      O30283   5.091   6.734   3.819 -0.2298  0.1119  0.3391
 7391WAT     H130284   5.079   6.709   3.736 -0.6243  0.3779  0.3090
 7391WAT     H230285   5.102   6.821   3.812  1.0229 -0.0278  0.4477
 7391WAT    EPW30286   5.091   6.743   3.806 -0.1030  0.1306  0.3507
 7392WAT      O30287   5.051   2.839   7.077  0.5157  0.2052  0.2982
 7392WAT     H130288   5.033   2.923   7.094 -1.8234 -0.5439  2.0430
 7392WAT     H230289   5.007   2.796   7.139 -2.1092 -2.5397 -3.1123
 7392WAT    EPW30290   5.042   2.845   7.089 -0.2176 -0.3110  0.0521
 7393WAT      O30291   1.479   3.774   1.373  0.4397  0.2975  0.2380
 7393WAT     H130292   1.420   3.711   1.365  0.5328  0.4577 -2.9267
 7393WAT     H230293   1.554   3.736   1.348  0.6437  1.3788 -0.9340
 7393WAT    EPW30294   1.482   3.759   1.368  0.4836  0.4809 -0.4026
 7394WAT      O30295   6.988   4.583   2.880  0.2378 -0.2273 -0.1199
 7394WAT     H130296   6.922   4.619   2.926  0.1154  1.9477 -1.8435
 7394WAT     H230297   7.017   4.520   2.933 -1.5003  0.4869  1.8438
 7394WAT    EPW30298   6.982   4.579   2.895 -0.0371  0.1995 -0.0845
 7395WAT      O30299   3.457   3.209   6.021  0.7996 -0.3734  0.5183
 7395WAT     H130300   3.461   3.124   6.003 -0.2939 -0.3423 -0.0000
 7395WAT     H230301   3.373   3.229   6.004  0.9716  0.7406  0.9040
 7395WAT    EPW30302   3.445   3.199   6.016  0.6635 -0.2042  0.4987
 7396WAT      O30303   0.363   4.091   0.711 -0.1135 -0.1436  0.4363
 7396WAT     H130304   0.291   4.120   0.673  0.0549  1.7088  1.4237
 7396WAT     H230305   0.336   4.066   0.791  0.1511 -0.5516  0.4044
 7396WAT    EPW30306   0.348   4.091   0.718 -0.0495  0.0698  0.5775
 7397WAT      O30307   2.054   0.549   1.317  0.0732  0.4605  0.6380
 7397WAT     H130308   2.035   0.522   1.398 -0.9615  1.3477  0.7145
 7397WAT     H230309   1.985   0.598   1.295  0.5450  0.5973 -0.6140
 7397WAT    EPW30310   2.041   0.552   1.326 -0.0099  0.6118  0.4644
 7398WAT      O30311   6.219   6.254   4.455  0.2296  0.3023 -0.2391
 7398WAT     H130312   6.158   6.217   4.404  0.3559 -1.2227  0.6625
 7398WAT     H230313   6.182   6.256   4.534 -0.3924  3.6649 -0.4708
 7398WAT    EPW30314   6.204   6.248   4.459  0.1564  0.5738 -0.1402
 7399WAT      O30315   0.736   1.280   2.849  0.1470 -0.0592 -0.3355
 7399WAT     H130316   0.735   1.271   2.762 -0.2906  1.2223 -0.4753
 7399WAT     H230317   0.696   1.356   2.862  2.7005  1.2101  0.7963
 7399WAT    EPW30318   0.730   1.290   2.838  0.4596  0.3176 -0.1890
 7400WAT      O30319   5.127   5.418   0.744 -0.0685  0.2233 -0.6144
 7400WAT     H130320   5.078   5.446   0.810  1.5575 -0.9986  1.2269
 7400WAT     H230321   5.199   5.466   0.749  0.3233 -0.2899 -1.1123
 7400WAT    EPW30322   5.130   5.429   0.754  0.2296 -0.0330 -0.4160
 7401WAT      O30323   1.187   5.642   5.303  0.8704 -0.2803 -0.0491
 7401WAT     H130324   1.159   5.672   5.227  0.2155  0.1839  0.3652
 7401WAT     H230325   1.115   5.609   5.340  0.5597  1.8667  1.4862
 7401WAT    EPW30326   1.172   5.641   5.297  0.7278  0.1054  0.2389
 7402WAT      O30327   6.293   2.072   4.746 -0.4568  0.4921 -0.0967
 7402WAT     H130328   6.325   2.017   4.806 -0.6348 -0.6540 -1.0037
 7402WAT     H230329   6.357   2.130   4.735 -0.2306  0.4319  0.8391
 7402WAT    EPW30330   6.308   2.072   4.753 -0.4496  0.3139 -0.0925
 7403WAT      O30331   1.549   3.694   1.931 -0.0280  0.2430  0.1903
 7403WAT     H130332   1.493   3.758   1.910  0.3416  0.5170  0.0395
 7403WAT     H230333   1.585   3.672   1.855 -0.3546 -0.3363  0.2015
 7403WAT    EPW30334   1.546   3.700   1.917 -0.0216  0.1979  0.1697
 7404WAT      O30335   2.440   2.261   1.315 -0.7575 -0.1864 -0.0621
 7404WAT     H130336   2.499   2.276   1.377  0.9497 -0.5057 -1.5171
 7404WAT     H230337   2.454   2.325   1.257 -1.7228 -0.3718 -0.5244
 7404WAT    EPW30338   2.451   2.272   1.315 -0.6479 -0.2610 -0.3453
 7405WAT      O30339   3.819   1.804   5.337 -0.5321  0.2227 -0.1895
 7405WAT     H130340   3.766   1.873   5.338  0.2169  0.8190 -0.6110
 7405WAT     H230341   3.765   1.736   5.348 -1.4516  0.7654 -1.1957
 7405WAT    EPW30342   3.803   1.804   5.339 -0.5573  0.3910 -0.4004
 7406WAT      O30343   4.504   3.524   5.954 -0.3654 -0.2330 -0.4731
 7406WAT     H130344   4.533   3.477   5.888  1.3004 -1.2230  0.8777
 7406WAT     H230345   4.482   3.465   6.014 -1.6462  0.6358 -0.0224
 7406WAT    EPW30346   4.505   3.508   5.953 -0.3085 -0.2509 -0.2070
 7407WAT      O30347   4.701   4.762   4.683 -0.6613 -0.2575 -0.5607
 7407WAT     H130348   4.689   4.836   4.728  0.0836 -0.2910 -0.3003
 7407WAT     H230349   4.658   4.777   4.609 -1.5593 -0.0416 -0.0208
 7407WAT    EPW30350   4.693   4.775   4.679 -0.6839 -0.2305 -0.4425
 7408WAT      O30351   6.287   7.019   2.553 -0.2406  0.1379 -0.3710
 7408WAT     H130352   6.259   6.970   2.487  1.3916 -0.1758 -0.8930
 7408WAT     H230353   6.268   6.972   2.624 -2.5382  0.7413 -0.5224
 7408WAT    EPW30354   6.280   7.005   2.554 -0.3389  0.1807 -0.4705
 7409WAT      O30355   5.935   5.448   1.508 -0.2758 -0.2406 -0.0657
 7409WAT     H130356   5.953   5.399   1.579 -0.6262 -0.3171 -0.0273
 7409WAT     H230357   6.011   5.452   1.466 -0.0202 -0.0600  0.3994
 7409WAT    EPW30358   5.949   5.441   1.512 -0.2898 -0.2252  0.0087
 7410WAT      O30359   4.787   2.204   0.530  0.5175 -0.1357 -0.0446
 7410WAT     H130360   4.840   2.146   0.568 -0.1184 -1.4412 -1.0668
 7410WAT     H230361   4.842   2.253   0.482  1.2994  1.4232  2.2911
 7410WAT    EPW30362   4.803   2.202   0.528  0.5390 -0.0982  0.1495
 7411WAT      O30363   1.437   5.783   3.655 -0.1736 -0.1303  0.6600
 7411WAT     H130364   1.399   5.704   3.648 -2.7612  1.0652  0.2758
 7411WAT     H230365   1.521   5.763   3.663 -0.5044 -2.9226 -1.0781
 7411WAT    EPW30366   1.444   5.768   3.655 -0.6047 -0.3662  0.3465
 7412WAT      O30367   6.022   5.080   4.556  1.0021  0.4704 -0.1937
 7412WAT     H130368   5.952   5.072   4.505 -0.1623  0.4170  1.3264
 7412WAT     H230369   6.064   5.149   4.523 -1.5057  2.6033  0.7286
 7412WAT    EPW30370   6.018   5.089   4.544  0.4596  0.7776  0.1671
 7413WAT      O30371   4.021   6.220   4.898 -0.7713  0.3285  0.2910
 7413WAT     H130372   4.037   6.294   4.942  2.6257  0.6802 -1.1941
 7413WAT     H230373   4.037   6.157   4.956  2.8612  0.7918  0.0287
 7413WAT    EPW30374   4.025   6.222   4.913  0.2671  0.4489  0.0329
 7414WAT      O30375   1.466   0.915   3.305 -0.0641  0.0050 -0.1148
 7414WAT     H130376   1.491   0.832   3.295 -1.7001 -0.5330 -0.0212
 7414WAT     H230377   1.535   0.961   3.276  1.2696 -1.3525  0.7920
 7414WAT    EPW30378   1.480   0.910   3.299 -0.1087 -0.2750  0.0330
 7415WAT      O30379   4.451   5.860   6.456  0.0966  0.1694  0.1538
 7415WAT     H130380   4.393   5.847   6.521  0.6520  0.0684  0.6370
 7415WAT     H230381   4.484   5.938   6.474  0.6630 -0.1064  0.3110
 7415WAT    EPW30382   4.447   5.869   6.468  0.2623  0.1137  0.2484
 7416WAT      O30383   4.269   4.238   6.015 -0.3626 -0.4604 -0.2215
 7416WAT     H130384   4.245   4.160   6.047  0.8737 -0.3517  1.0930
 7416WAT     H230385   4.211   4.253   5.951 -0.1046 -2.8557 -1.1228
 7416WAT    EPW30386   4.257   4.228   6.011 -0.1418 -0.7982 -0.1605
 7417WAT      O30387   3.530   7.135   1.896 -0.3629 -0.0583 -0.3282
 7417WAT     H130388   3.590   7.075   1.876  0.6417  0.4667  0.9653
 7417WAT     H230389   3.532   7.190   1.828  0.3940 -0.2224 -0.4453
 7417WAT    EPW30390   3.539   7.134   1.883 -0.1027 -0.0050 -0.1545
 7418WAT      O30391   6.959   4.715   0.444  0.4258 -0.3075 -0.1255
 7418WAT     H130392   6.926   4.794   0.457  0.8032 -0.3397  1.2180
 7418WAT     H230393   6.925   4.690   0.368  1.2799  1.6375 -1.2269
 7418WAT    EPW30394   6.949   4.723   0.435  0.6077 -0.0249 -0.0898
 7419WAT      O30395   0.976   1.308   4.295  0.5677  0.1542 -0.3730
 7419WAT     H130396   0.900   1.325   4.333  0.1602 -1.7486 -0.2643
 7419WAT     H230397   1.034   1.322   4.359  0.3702  1.7562 -0.4971
 7419WAT    EPW30398   0.974   1.313   4.310  0.4783  0.1098 -0.3752
 7420WAT      O30399   4.015   4.470   6.312 -0.6304 -0.4030  0.1053
 7420WAT     H130400   3.937   4.484   6.350 -0.7707  1.7205 -0.8255
 7420WAT     H230401   4.058   4.545   6.326  1.0608 -1.3490  0.1358
 7420WAT    EPW30402   4.010   4.483   6.320 -0.4013 -0.2291 -0.0277
 7421WAT      O30403   0.959   4.446   0.820 -0.0076 -0.5564  0.2221
 7421WAT     H130404   1.003   4.408   0.755 -0.4529  1.0831 -1.1204
 7421WAT     H230405   0.919   4.512   0.781  1.2032  1.6927  2.4912
 7421WAT    EPW30406   0.960   4.450   0.805  0.1055  0.0181  0.3590
 7422WAT      O30407   6.678   6.142   4.982 -0.0452 -0.1580 -0.0210
 7422WAT     H130408   6.702   6.075   4.931  1.4778 -0.6098  1.2114
 7422WAT     H230409   6.707   6.212   4.938 -0.3213 -0.4048 -0.6086
 7422WAT    EPW30410   6.686   6.143   4.968  0.1390 -0.2612  0.0743
 7423WAT      O30411   4.818   0.671   4.176  0.5096  0.3853  0.3126
 7423WAT     H130412   4.842   0.675   4.093 -0.4036  0.7281  0.0536
 7423WAT     H230413   4.888   0.635   4.216  0.6243 -0.6190 -0.7233
 7423WAT    EPW30414   4.832   0.666   4.170  0.3917  0.2876  0.1213
 7424WAT      O30415   2.778   3.321   6.971  0.7278  0.2127 -0.6251
 7424WAT     H130416   2.738   3.350   7.043 -0.2904 -0.1386 -1.0264
 7424WAT     H230417   2.731   3.356   6.906  1.8057  0.7607 -1.1399
 7424WAT    EPW30418   2.765   3.331   6.972  0.7366  0.2417 -0.7605
 7425WAT      O30419   2.704   0.457   2.053 -0.1819  0.0049  0.2316
 7425WAT     H130420   2.648   0.522   2.070 -1.5036 -0.2544 -2.5793
 7425WAT     H230421   2.681   0.395   2.111 -1.7306  0.5203  0.2166
 7425WAT    EPW30422   2.692   0.458   2.064 -0.6059  0.0427 -0.1859
 7426WAT      O30423   5.198   6.558   0.838 -0.1061  0.3565  0.6099
 7426WAT     H130424   5.220   6.504   0.903  0.0834 -1.4295 -0.8600
 7426WAT     H230425   5.131   6.603   0.871 -0.3807 -0.8944  1.8419
 7426WAT    EPW30426   5.191   6.557   0.852 -0.1187 -0.0921  0.5748
 7427WAT      O30427   2.885   0.135   6.248  0.4851  0.3538  0.2445
 7427WAT     H130428   2.828   0.096   6.302  0.3985 -1.5844 -1.1214
 7427WAT     H230429   2.886   0.218   6.275 -1.2089 -0.0588  1.7906
 7427WAT    EPW30430   2.877   0.141   6.260  0.2220  0.0065  0.2711
 7428WAT      O30431   2.737   4.675   5.028  0.5814 -0.0383  0.2398
 7428WAT     H130432   2.821   4.696   5.042  0.6109  0.3786 -0.4863
 7428WAT     H230433   2.741   4.606   4.974  0.4635  0.1280  0.0134
 7428WAT    EPW30434   2.750   4.668   5.022  0.5684  0.0479  0.0991
 7429WAT      O30435   7.144   7.037   6.770  0.0629 -0.2594 -0.0055
 7429WAT     H130436   7.192   7.064   6.838 -0.1909 -1.2506  0.5782
 7429WAT     H230437   7.093   7.106   6.753 -1.8804 -0.8780  2.6336
 7429WAT    EPW30438   7.144   7.052   6.778 -0.2617 -0.4972  0.4705
 7430WAT      O30439   3.190   5.119   5.386 -0.2589 -0.6532  0.4351
 7430WAT     H130440   3.241   5.174   5.431 -0.1240 -0.2757 -0.1617
 7430WAT     H230441   3.160   5.064   5.447  1.6624 -1.5241  0.6821
 7430WAT    EPW30442   3.193   5.119   5.402  0.0448 -0.7261  0.3834
 7431WAT      O30443   4.382   4.475   2.377 -0.5886  0.3179 -0.0051
 7431WAT     H130444   4.319   4.442   2.427 -1.5716  1.4474 -0.4366
 7431WAT     H230445   4.456   4.446   2.414 -1.3455 -0.7630  0.7031
 7431WAT    EPW30446   4.384   4.466   2.389 -0.8456  0.3251  0.0358
 7432WAT      O30447   5.126   6.986   6.360  1.0125  0.5820  0.3141
 7432WAT     H130448   5.079   7.059   6.356  0.7916  0.4067 -0.4190
 7432WAT     H230449   5.146   6.970   6.277 -0.0391 -0.8897  0.3114
 7432WAT    EPW30450   5.122   6.994   6.347  0.8245  0.3387  0.2054
 7433WAT      O30451   3.051   5.682   5.506 -0.0456  0.5964 -0.3034
 7433WAT     H130452   2.991   5.669   5.445  0.2534  0.9519 -0.6787
 7433WAT     H230453   3.126   5.664   5.466  0.1593  0.8958 -0.0662
 7433WAT    EPW30454   3.053   5.677   5.491  0.0288  0.6931 -0.3238
 7434WAT      O30455   5.569   6.802   0.592  0.2745  0.1061 -0.4093
 7434WAT     H130456   5.578   6.843   0.669 -0.3636  0.3587 -0.4651
 7434WAT     H230457   5.501   6.750   0.604 -0.3612  0.7596 -1.0565
 7434WAT    EPW30458   5.560   6.801   0.605  0.0863  0.2400 -0.5132
 7435WAT      O30459   0.580   0.325   4.682  0.5897 -0.1508 -0.2030
 7435WAT     H130460   0.561   0.400   4.721  0.6117  0.0025 -0.4878
 7435WAT     H230461   0.588   0.269   4.749 -1.9953 -0.5161 -0.0898
 7435WAT    EPW30462   0.578   0.328   4.698  0.2111 -0.1821 -0.2283
 7436WAT      O30463   3.852   1.193   6.773 -0.2595 -0.0335 -0.0516
 7436WAT     H130464   3.799   1.246   6.817  1.0936  1.3468 -0.0197
 7436WAT     H230465   3.800   1.159   6.711 -1.5563 -0.0185  0.9767
 7436WAT    EPW30466   3.836   1.196   6.770 -0.2512  0.1726  0.1050
 7437WAT      O30467   0.382   0.730   0.422  0.2281 -0.0080  0.0775
 7437WAT     H130468   0.314   0.730   0.476  1.5355  0.0222  1.7956
 7437WAT     H230469   0.375   0.654   0.379 -1.1707  0.2493 -0.2016
 7437WAT    EPW30470   0.371   0.719   0.424  0.2146  0.0344  0.2900
 7438WAT      O30471   5.345   6.207   1.865 -0.1113 -0.2682 -0.0689
 7438WAT     H130472   5.336   6.159   1.792  0.0618 -0.7403  0.2156
 7438WAT     H230473   5.266   6.201   1.903 -0.1029 -0.2894 -0.0548
 7438WAT    EPW30474   5.332   6.199   1.860 -0.0845 -0.3411 -0.0248
 7439WAT      O30475   0.665   4.098   1.667 -0.0379 -0.1424  0.1945
 7439WAT     H130476   0.678   4.023   1.625 -0.3815  0.1650 -0.4672
 7439WAT     H230477   0.642   4.154   1.604 -0.5252  0.3350  0.7747
 7439WAT    EPW30478   0.663   4.096   1.652 -0.1607 -0.0265  0.1825
 7440WAT      O30479   3.218   4.266   1.558  0.0450  0.3222  0.5838
 7440WAT     H130480   3.192   4.247   1.477 -0.1636 -1.6245  1.0439
 7440WAT     H230481   3.159   4.323   1.586  0.4850  1.5427 -0.8149
 7440WAT    EPW30482   3.205   4.271   1.550  0.0792  0.2149  0.4451
 7441WAT      O30483   6.064   4.050   1.600 -0.0282  0.1326 -0.4633
 7441WAT     H130484   6.042   3.970   1.626  1.6633  0.1375  1.2210
 7441WAT     H230485   6.011   4.102   1.648  1.7741  0.0764  1.7542
 7441WAT    EPW30486   6.053   4.046   1.611  0.4879  0.1250  0.1131
 7442WAT      O30487   7.156   6.877   1.540  0.1032 -0.2070 -0.4504
 7442WAT     H130488   7.105   6.914   1.480  0.3479  4.5338  1.7252
 7442WAT     H230489   7.106   6.878   1.612  1.7376  0.3189  0.7399
 7442WAT    EPW30490   7.141   6.883   1.542  0.3807  0.5710  0.0468
 7443WAT      O30491   3.910   0.139   1.455 -0.4161 -0.3494  0.2739
 7443WAT     H130492   3.848   0.178   1.504  0.8075  3.1078 -0.6688
 7443WAT     H230493   3.964   0.106   1.515 -0.5045  1.1580  1.2592
 7443WAT    EPW30494   3.909   0.140   1.471 -0.2484  0.3840  0.2802
 7444WAT      O30495   2.430   6.239   3.263  0.2859  0.4710  0.0304
 7444WAT     H130496   2.470   6.164   3.282 -0.8129 -0.2449 -0.3299
 7444WAT     H230497   2.370   6.215   3.204 -1.2119  1.3219  1.1380
 7444WAT    EPW30498   2.427   6.224   3.257 -0.0977  0.4910  0.1408
 7445WAT      O30499   2.679   2.506   6.067 -0.2850  0.9292 -0.3730
 7445WAT     H130500   2.602   2.473   6.091 -0.1478  1.0751  0.2927
 7445WAT     H230501   2.731   2.437   6.062 -0.1012  0.9797  0.6166
 7445WAT    EPW30502   2.676   2.491   6.070 -0.2376  0.9582 -0.1285
 7446WAT      O30503   7.035   0.129   5.606  0.5311 -0.0992  0.1281
 7446WAT     H130504   7.102   0.128   5.550 -0.2066  1.3940 -0.8323
 7446WAT     H230505   6.966   0.108   5.557 -0.0388  0.5969  0.6016
 7446WAT    EPW30506   7.035   0.126   5.591  0.3379  0.2242  0.0562
 7447WAT      O30507   0.470   6.444   4.768 -0.3552 -0.5379 -0.3616
 7447WAT     H130508   0.495   6.442   4.684 -0.4139  1.2303 -0.4635
 7447WAT     H230509   0.391   6.408   4.767  0.3771 -2.2019 -0.7479
 7447WAT    EPW30510   0.462   6.439   4.755 -0.2557 -0.5225 -0.4337
 7448WAT      O30511   0.124   4.853   3.678 -0.2098  0.1420  0.6362
 7448WAT     H130512   0.189   4.911   3.684 -0.0016 -0.2301  3.1896
 7448WAT     H230513   0.167   4.777   3.673 -0.4953  0.0482 -0.9992
 7448WAT    EPW30514   0.140   4.850   3.678 -0.2212  0.0732  0.7718
 7449WAT      O30515   3.057   6.468   1.574 -0.3836 -0.5704  0.5703
 7449WAT     H130516   3.124   6.518   1.548 -1.1324  0.8242  1.1874
 7449WAT     H230517   3.062   6.399   1.522  0.5034  0.2988 -0.5677
 7449WAT    EPW30518   3.068   6.465   1.563 -0.3632 -0.2360  0.4934
 7450WAT      O30519   1.091   3.061   3.424 -0.2607 -0.2969  0.7672
 7450WAT     H130520   1.087   2.974   3.435  1.3434 -0.7339 -1.3952
 7450WAT     H230521   1.038   3.076   3.356 -0.9361  0.5378  1.4502
 7450WAT    EPW30522   1.083   3.050   3.416 -0.1235 -0.2381  0.5487
 7451WAT      O30523   5.035   4.485   5.106  0.1947 -0.3561  0.5940
 7451WAT     H130524   4.993   4.409   5.117 -2.0385  0.7255  0.1815
 7451WAT     H230525   5.013   4.510   5.026  0.7141  0.8267  0.7913
 7451WAT    EPW30526   5.026   4.477   5.096 -0.0585 -0.0216  0.5622
 7452WAT      O30527   5.691   6.331   7.114 -0.1074  0.1967  0.0200
 7452WAT     H130528   5.720   6.324   7.032 -0.8501  1.8399 -0.4348
 7452WAT     H230529   5.756   6.298   7.161  0.0766 -1.3635 -1.2369
 7452WAT    EPW30530   5.705   6.325   7.109 -0.1899  0.2089 -0.2328
 7453WAT      O30531   1.585   0.996   1.696 -0.1560 -0.2396  0.4236
 7453WAT     H130532   1.660   1.029   1.664  1.0490 -1.6654  1.6289
 7453WAT     H230533   1.584   0.915   1.663 -0.5202 -0.6491  1.4342
 7453WAT    EPW30534   1.596   0.989   1.686 -0.0318 -0.5107  0.7510
 7454WAT      O30535   2.748   2.778   4.771 -0.3545 -0.1707 -0.3453
 7454WAT     H130536   2.673   2.813   4.745  0.2527  0.5980 -1.1146
 7454WAT     H230537   2.807   2.809   4.715  0.1687 -2.9568 -1.5385
 7454WAT    EPW30538   2.746   2.788   4.759 -0.1875 -0.4687 -0.6352
 7455WAT      O30539   7.128   5.347   5.242 -0.3698  0.1414 -0.4421
 7455WAT     H130540   7.107   5.335   5.325 -0.7296  3.1649  0.0084
 7455WAT     H230541   7.055   5.380   5.207  0.2030  0.2241 -1.6174
 7455WAT    EPW30542   7.114   5.350   5.249 -0.3383  0.6002 -0.5492
 7456WAT      O30543   0.524   1.853   2.695  0.1155 -0.2972 -0.2512
 7456WAT     H130544   0.607   1.848   2.722 -0.3936 -0.3559  1.4735
 7456WAT     H230545   0.489   1.778   2.722 -0.6258 -0.0284 -0.4365
 7456WAT    EPW30546   0.531   1.841   2.703 -0.0692 -0.2661 -0.0238
 7457WAT      O30547   2.149   7.109   1.614 -0.4245  0.2357 -0.5260
 7457WAT     H130548   2.120   7.076   1.539  0.3846 -0.0191 -0.7335
 7457WAT     H230549   2.183   7.040   1.655  0.3211  0.6039 -0.5006
 7457WAT    EPW30550   2.150   7.094   1.609 -0.1949  0.2524 -0.5529
 7458WAT      O30551   5.985   3.416   6.178 -0.4663  0.0678 -0.1375
 7458WAT     H130552   5.923   3.411   6.240 -0.3884 -1.9501 -0.1631
 7458WAT     H230553   5.939   3.424   6.104 -0.6757 -0.5972 -0.0846
 7458WAT    EPW30554   5.969   3.417   6.177 -0.4857 -0.3285 -0.1335
 7459WAT      O30555   3.460   5.514   0.535 -0.6873  0.3738  0.3334
 7459WAT     H130556   3.427   5.472   0.465  0.0331  1.2174 -0.5354
 7459WAT     H230557   3.505   5.452   0.576  1.6816  0.5416 -1.7748
 7459WAT    EPW30558   3.461   5.499   0.531 -0.2309  0.5232 -0.1064
 7460WAT      O30559   2.475   4.613   0.122  0.6517  0.3359  0.1948
 7460WAT     H130560   2.465   4.569   0.197 -0.6450 -0.6273 -0.5025
 7460WAT     H230561   2.511   4.688   0.147  0.4736 -0.0669  1.7558
 7460WAT    EPW30562   2.479   4.617   0.137  0.4338  0.1341  0.3224
 7461WAT      O30563   2.356   4.707   4.454  0.6835  0.1728  0.5205
 7461WAT     H130564   2.382   4.715   4.537 -0.6335 -0.6115  1.0315
 7461WAT     H230565   2.410   4.647   4.422 -0.2068 -1.1986  1.4759
 7461WAT    EPW30566   2.368   4.699   4.462  0.3575 -0.1456  0.7371
 7462WAT      O30567   0.541   7.218   5.013  0.5225 -0.1523 -0.3533
 7462WAT     H130568   0.575   7.232   5.092  1.1769  3.4921 -1.0719
 7462WAT     H230569   0.600   7.169   4.973  1.3975  0.0301  0.6732
 7462WAT    EPW30570   0.555   7.213   5.019  0.7485  0.4130 -0.3079
 7463WAT      O30571   3.401   4.032   6.775 -0.1498  0.1613 -0.0791
 7463WAT     H130572   3.407   4.099   6.718  1.7921  0.2114  0.1347
 7463WAT     H230573   3.404   3.962   6.723  0.3675  0.2220 -0.1379
 7463WAT    EPW30574   3.402   4.032   6.759  0.2135  0.1777 -0.0562
 7464WAT      O30575   2.140   0.142   6.289  0.7401  0.9680  0.3067
 7464WAT     H130576   2.175   0.167   6.365 -1.2914  0.9547  1.3157
 7464WAT     H230577   2.151   0.212   6.237  1.3815  1.2948  0.8591
 7464WAT    EPW30578   2.147   0.156   6.293  0.5348  1.0143  0.5373
 7465WAT      O30579   5.312   3.515   2.040 -0.2122 -0.3330  0.6659
 7465WAT     H130580   5.360   3.559   2.098  0.5951 -0.9896  0.5312
 7465WAT     H230581   5.238   3.497   2.082  0.6264 -1.3798  1.7569
 7465WAT    EPW30582   5.308   3.519   2.054  0.0310 -0.5847  0.8072
 7466WAT      O30583   5.384   3.392   5.176 -0.2442 -0.1642  0.0954
 7466WAT     H130584   5.413   3.363   5.253 -1.7369  0.0766  0.7874
 7466WAT     H230585   5.353   3.472   5.194 -0.8897 -0.2183 -0.6883
 7466WAT    EPW30586   5.383   3.400   5.190 -0.5600 -0.1366  0.0818
 7467WAT      O30587   5.153   5.617   1.336 -0.0005  0.5998  0.2554
 7467WAT     H130588   5.129   5.684   1.387  1.1020  0.2317  1.2830
 7467WAT     H230589   5.212   5.574   1.383 -0.2260 -0.7652 -0.6366
 7467WAT    EPW30590   5.158   5.621   1.350  0.1290  0.3438  0.2755
 7468WAT      O30591   6.758   3.853   4.538  0.0292 -0.7841  0.4828
 7468WAT     H130592   6.784   3.849   4.455 -2.8573 -0.1207 -0.5891
 7468WAT     H230593   6.715   3.779   4.550  0.4253 -0.8771  1.4155
 7468WAT    EPW30594   6.755   3.842   4.528 -0.3386 -0.6999  0.4622
 7469WAT      O30595   4.542   6.822   1.743 -0.7712 -0.5189  0.0014
 7469WAT     H130596   4.597   6.799   1.679 -1.6215  0.0095 -0.9342
 7469WAT     H230597   4.475   6.768   1.734 -2.2596  1.4071 -1.4921
 7469WAT    EPW30598   4.540   6.811   1.732 -1.1167 -0.1564 -0.3574
 7470WAT      O30599   1.403   3.381   4.004 -0.1310 -0.2848 -0.3476
 7470WAT     H130600   1.398   3.468   3.999 -1.7361 -0.2426  0.9257
 7470WAT     H230601   1.359   3.354   3.934  0.2436 -0.0771 -0.6656
 7470WAT    EPW30602   1.396   3.389   3.993 -0.3128 -0.2479 -0.2065
 7471WAT      O30603   2.125   6.929   7.096 -0.2817 -0.2478  0.5784
 7471WAT     H130604   2.180   6.972   7.045 -0.3134 -0.9711 -0.0737
 7471WAT     H230605   2.146   6.957   7.176  1.7692 -1.2689  0.4766
 7471WAT    EPW30606   2.136   6.939   7.101  0.0166 -0.5055  0.4670
 7472WAT      O30607   7.241   3.354   5.386  0.5493  0.6186 -0.8549
 7472WAT     H130608   7.168   3.320   5.419  0.8547 -0.7640 -1.5116
 7472WAT     H230609   7.213   3.418   5.333 -0.2541 -0.3554 -1.6440
 7472WAT    EPW30610   7.226   3.358   5.383  0.4757  0.2705 -1.0685
 7473WAT      O30611   5.520   5.257   1.355  0.2395 -0.1996  0.4016
 7473WAT     H130612   5.593   5.303   1.342 -0.5012  0.5806 -1.3744
 7473WAT     H230613   5.528   5.191   1.298 -1.3674  1.1245 -1.4983
 7473WAT    EPW30614   5.532   5.254   1.344 -0.1073  0.1113 -0.1414
 7474WAT      O30615   4.177   1.119   6.402  0.7218  0.8017  0.0882
 7474WAT     H130616   4.237   1.079   6.451 -0.2703 -0.5160  0.2739
 7474WAT     H230617   4.217   1.129   6.325  1.4153  0.5818  0.4104
 7474WAT    EPW30618   4.192   1.115   6.398  0.6777  0.5745  0.1632
 7475WAT      O30619   2.062   2.898   1.794  0.3490 -0.1789 -0.0092
 7475WAT     H130620   2.049   2.968   1.845 -0.6725  0.1124 -0.6578
 7475WAT     H230621   1.986   2.856   1.797  0.7272 -0.8879 -0.2084
 7475WAT    EPW30622   2.049   2.902   1.802  0.2539 -0.2406 -0.1344
 7476WAT      O30623   3.580   7.193   4.547 -0.4853  0.1430 -0.1452
 7476WAT     H130624   3.654   7.195   4.592 -0.3533  0.1755 -0.3610
 7476WAT     H230625   3.542   7.269   4.566  0.0928  0.6473 -0.9568
 7476WAT    EPW30626   3.585   7.205   4.556 -0.3804  0.2223 -0.2970
 7477WAT      O30627   4.599   3.938   0.857 -0.1825  0.3716 -0.3786
 7477WAT     H130628   4.540   3.910   0.914 -2.1590  1.2998 -1.8570
 7477WAT     H230629   4.630   3.865   0.821  0.0137 -0.1542  0.8224
 7477WAT    EPW30630   4.595   3.923   0.860 -0.4454  0.4310 -0.4196
 7478WAT      O30631   4.284   5.401   1.114  0.3517  0.1208 -0.2689
 7478WAT     H130632   4.334   5.388   1.184  0.5697  0.8102 -0.2889
 7478WAT     H230633   4.339   5.396   1.047  0.2841  0.2361 -0.3350
 7478WAT    EPW30634   4.299   5.398   1.115  0.3739  0.2397 -0.2816
 7479WAT      O30635   2.135   2.454   1.081  0.3777  0.4640  0.2508
 7479WAT     H130636   2.150   2.396   1.145 -0.2008  0.1097  0.0666
 7479WAT     H230637   2.213   2.461   1.042  1.1964  1.9032  1.9788
 7479WAT    EPW30638   2.149   2.446   1.085  0.4132  0.6242  0.4788
 7480WAT      O30639   5.593   4.313   4.928  0.2370 -0.1520 -0.0529
 7480WAT     H130640   5.522   4.340   4.885 -1.2038 -0.7775  1.8306
 7480WAT     H230641   5.602   4.373   4.991  0.4829 -0.8978  0.6280
 7480WAT    EPW30642   5.584   4.326   4.931  0.0605 -0.3546  0.3259
 7481WAT      O30643   2.232   1.451   1.525  0.0017 -0.2199  0.4733
 7481WAT     H130644   2.291   1.514   1.512 -0.2435 -0.1396 -0.3288
 7481WAT     H230645   2.281   1.382   1.548  0.4865 -0.2939 -0.6830
 7481WAT    EPW30646   2.248   1.450   1.526  0.0371 -0.2190  0.1840
 7482WAT      O30647   7.293   1.513   1.902 -1.2331 -0.1932  0.0967
 7482WAT     H130648   7.295   1.600   1.906  2.5712 -0.0314 -1.2141
 7482WAT     H230649   7.328   1.488   1.977  0.7758 -0.3337 -0.8117
 7482WAT    EPW30650   7.298   1.522   1.913 -0.3744 -0.1900 -0.2311
 7483WAT      O30651   6.315   4.011   2.813 -0.0374  0.2770  0.6861
 7483WAT     H130652   6.336   3.998   2.729  1.9738  0.5162  1.0961
 7483WAT     H230653   6.296   4.096   2.816  0.7877  0.4753  0.6173
 7483WAT    EPW30654   6.315   4.022   2.801  0.3816  0.3416  0.7365
 7484WAT      O30655   2.046   1.423   7.362 -1.1144  0.0832  0.4213
 7484WAT     H130656   2.115   1.445   7.410 -1.2414  1.0531  0.1832
 7484WAT     H230657   2.027   1.342   7.388 -0.8120  0.3668  1.5536
 7484WAT    EPW30658   2.054   1.415   7.373 -1.0885  0.2684  0.5534
 7485WAT      O30659   3.333   5.511   7.362  0.3959 -0.1294  0.5755
 7485WAT     H130660   3.412   5.546   7.352  0.5006 -0.7420 -1.0932
 7485WAT     H230661   3.284   5.578   7.390  1.2565  0.5257  0.5515
 7485WAT    EPW30662   3.337   5.526   7.365  0.5385 -0.1231  0.3254
 7486WAT      O30663   3.134   2.617   1.971  0.2364 -0.3644 -0.4135
 7486WAT     H130664   3.075   2.678   1.950  1.0352  0.0134 -1.6271
 7486WAT     H230665   3.185   2.657   2.029 -0.4948 -0.6062  0.4363
 7486WAT    EPW30666   3.133   2.632   1.976  0.2464 -0.3443 -0.4672
 7487WAT      O30667   4.114   3.185   1.520 -0.4388  0.5366 -0.1961
 7487WAT     H130668   4.068   3.178   1.594  0.1375  1.4141  0.2746
 7487WAT     H230669   4.197   3.181   1.548 -0.1963  1.7427 -0.6801
 7487WAT    EPW30670   4.120   3.183   1.535 -0.3178  0.8444 -0.1981
 7488WAT      O30671   2.286   0.272   2.932  0.1516  0.2714 -0.0776
 7488WAT     H130672   2.200   0.276   2.942  0.2917  1.3282  0.8437
 7488WAT     H230673   2.303   0.187   2.930 -0.7364  0.0366  1.4017
 7488WAT    EPW30674   2.276   0.260   2.933  0.0411  0.3928  0.2770
 7489WAT      O30675   0.823   4.982   5.012  0.4471 -0.0980 -0.0189
 7489WAT     H130676   0.900   4.944   5.029  0.4220 -0.9325 -1.5674
 7489WAT     H230677   0.765   4.930   5.051  0.6651  0.8185  1.5970
 7489WAT    EPW30678   0.826   4.969   5.020  0.4756 -0.0859 -0.0090
 7490WAT      O30679   1.584   7.039   3.861  0.9471  0.0345 -0.5709
 7490WAT     H130680   1.601   7.073   3.782  2.3553  1.7317  0.3964
 7490WAT     H230681   1.664   7.029   3.896  0.2857  1.6522  1.5524
 7490WAT    EPW30682   1.599   7.042   3.854  1.0574  0.5242 -0.1143
 7491WAT      O30683   7.063   7.201   6.375 -0.3635 -0.0045  0.0758
 7491WAT     H130684   7.089   7.161   6.302  1.3490 -1.1188  1.2266
 7491WAT     H230685   6.984   7.167   6.390 -0.0165 -1.0362 -0.3602
 7491WAT    EPW30686   7.055   7.190   6.367 -0.0593 -0.3215  0.1814
 7492WAT      O30687   1.094   6.223   1.825  0.1625  0.4110 -0.0063
 7492WAT     H130688   1.083   6.284   1.764  0.6486  0.1624 -0.3474
 7492WAT     H230689   1.180   6.207   1.822 -0.0369 -0.6354 -0.2523
 7492WAT    EPW30690   1.105   6.230   1.816  0.2048  0.2197 -0.0930
 7493WAT      O30691   4.945   5.852   5.907 -0.0771  0.0653 -0.2480
 7493WAT     H130692   4.927   5.778   5.865 -0.7595  0.9352 -1.5943
 7493WAT     H230693   4.872   5.899   5.896  0.4867  1.0802  0.2352
 7493WAT    EPW30694   4.931   5.848   5.899 -0.0946  0.3437 -0.3755
 7494WAT      O30695   5.279   1.526   6.151 -0.1719 -0.2418 -0.0366
 7494WAT     H130696   5.365   1.527   6.165 -0.3148 -0.3685  0.8901
 7494WAT     H230697   5.249   1.590   6.202 -0.6064 -0.0261 -0.5513
 7494WAT    EPW30698   5.287   1.535   6.161 -0.2572 -0.2287  0.0242
 7495WAT      O30699   6.307   5.262   6.782  0.0107 -0.1279 -0.1951
 7495WAT     H130700   6.374   5.208   6.796 -0.6414 -0.7977  0.4387
 7495WAT     H230701   6.295   5.299   6.860 -0.3667 -0.0264 -0.3001
 7495WAT    EPW30702   6.315   5.259   6.796 -0.1414 -0.2119 -0.1170
 7496WAT      O30703   1.035   4.006   1.094  0.6250  0.0599 -0.0126
 7496WAT     H130704   0.989   4.001   1.020  1.2954 -2.1020 -0.3525
 7496WAT     H230705   1.036   3.924   1.124  4.3914 -0.1527 -0.1747
 7496WAT    EPW30706   1.028   3.993   1.088  1.2804 -0.2909 -0.0868
 7497WAT      O30707   1.248   2.958   7.180 -0.7663  0.1497 -0.3861
 7497WAT     H130708   1.292   2.918   7.243 -0.4215 -1.8720 -1.8410
 7497WAT     H230709   1.177   2.989   7.222  0.6725  1.1895  1.4541
 7497WAT    EPW30710   1.244   2.957   7.196 -0.5028  0.0046 -0.3292
 7498WAT      O30711   7.234   5.262   2.562 -0.2105  0.4472  0.0069
 7498WAT     H130712   7.167   5.314   2.580 -2.5838 -2.5037  0.5611
 7498WAT     H230713   7.219   5.192   2.612  3.5230 -0.2812  0.4169
 7498WAT    EPW30714   7.222   5.259   2.572 -0.0095 -0.0963  0.1493
 7499WAT      O30715   6.135   6.496   6.193 -0.3242 -0.0627  0.1498
 7499WAT     H130716   6.050   6.494   6.216  0.0042  0.2493  1.5076
 7499WAT     H230717   6.138   6.559   6.133 -1.3471 -1.3517 -1.3384
 7499WAT    EPW30718   6.123   6.505   6.188 -0.4268 -0.2070  0.1305
 7500WAT      O30719   3.846   0.679   0.056 -0.1840  0.2350 -0.2895
 7500WAT     H130720   3.839   0.751   0.105 -0.2388  0.9234 -1.2768
 7500WAT     H230721   3.912   0.635   0.093 -1.2882 -0.0779  1.3851
 7500WAT    EPW30722   3.855   0.683   0.068 -0.3552  0.2904 -0.1880
 7501WAT      O30723   4.400   6.799   4.904  0.2053  0.7320  0.1318
 7501WAT     H130724   4.376   6.789   4.821 -0.1212  0.7364  0.2235
 7501WAT     H230725   4.356   6.737   4.946 -0.8262  1.6947  0.5171
 7501WAT    EPW30726   4.390   6.789   4.898  0.0047  0.8749  0.2023
 7502WAT      O30727   6.645   7.199   4.806  0.5006  0.0904 -0.4642
 7502WAT     H130728   6.614   7.276   4.833 -0.8639 -0.8921  0.9963
 7502WAT     H230729   6.608   7.188   4.728  1.6411  1.4053 -1.2156
 7502WAT    EPW30730   6.635   7.209   4.799  0.4675  0.1395 -0.3595
 7503WAT      O30731   0.338   4.815   6.091  0.0920  0.3970 -0.0268
 7503WAT     H130732   0.271   4.760   6.087 -0.0318  0.5619 -0.2846
 7503WAT     H230733   0.404   4.770   6.057 -0.5317  1.1668 -2.4611
 7503WAT    EPW30734   0.338   4.801   6.086 -0.0184  0.5351 -0.4245
 7504WAT      O30735   2.584   4.702   6.710 -0.2449  0.9243  0.6732
 7504WAT     H130736   2.588   4.750   6.783  0.1612  0.3971  1.0030
 7504WAT     H230737   2.664   4.667   6.704 -0.6514 -0.0583  0.6908
 7504WAT    EPW30738   2.596   4.704   6.720 -0.2450  0.7013  0.7245
 7505WAT      O30739   6.913   3.042   1.962  0.3559  0.2411 -0.2787
 7505WAT     H130740   6.950   3.012   2.035 -3.7937 -1.2383  1.5780
 7505WAT     H230741   6.941   2.986   1.901  1.3070 -0.6434  0.9048
 7505WAT    EPW30742   6.922   3.029   1.964 -0.1166 -0.1081  0.1704
 7506WAT      O30743   2.098   0.861   7.129 -0.3920 -0.0280  0.5683
 7506WAT     H130744   2.041   0.795   7.126 -0.7082  0.2837 -1.3741
 7506WAT     H230745   2.049   0.930   7.151 -0.3651 -0.1309  0.9584
 7506WAT    EPW30746   2.083   0.862   7.132 -0.4348  0.0028  0.3390
 7507WAT      O30747   0.534   3.272   5.730 -0.0297  0.7526 -0.2400
 7507WAT     H130748   0.594   3.306   5.677 -0.4139  2.1088  0.1339
 7507WAT     H230749   0.526   3.332   5.793 -1.0447  0.1376  0.2523
 7507WAT    EPW30750   0.542   3.286   5.731 -0.2364  0.8621 -0.1121
 7508WAT      O30751   2.785   2.638   1.000  0.0985 -0.4398  0.2957
 7508WAT     H130752   2.836   2.699   1.034  0.2037  0.5108 -1.4311
 7508WAT     H230753   2.813   2.564   1.037  0.3433  0.4638  2.0063
 7508WAT    EPW30754   2.796   2.636   1.010  0.1502 -0.1659  0.2933
 7509WAT      O30755   4.698   5.636   5.212 -0.0779  0.2729 -0.2900
 7509WAT     H130756   4.622   5.678   5.217 -0.7504 -0.9152 -0.4862
 7509WAT     H230757   4.725   5.633   5.295  0.1694  1.3885 -0.3027
 7509WAT    EPW30758   4.691   5.642   5.225 -0.1407  0.2622 -0.3208
 7510WAT      O30759   0.222   2.702   2.150 -0.0708  0.2322 -0.1135
 7510WAT     H130760   0.155   2.647   2.140  0.6539 -0.5332 -0.8840
 7510WAT     H230761   0.219   2.750   2.077  0.6282 -0.2724 -0.4830
 7510WAT    EPW30762   0.211   2.701   2.137  0.1395  0.0446 -0.2819
 7511WAT      O30763   5.364   4.946   2.362 -0.4688  0.3052 -1.2324
 7511WAT     H130764   5.381   4.866   2.334  0.0926  0.1278 -0.4276
 7511WAT     H230765   5.281   4.943   2.386 -0.0717 -0.4506  0.1224
 7511WAT    EPW30766   5.354   4.934   2.361 -0.3272  0.1673 -0.9134
 7512WAT      O30767   1.690   5.139   1.521  0.6646 -0.3490  0.2143
 7512WAT     H130768   1.741   5.176   1.462  0.9064  1.6456  1.5734
 7512WAT     H230769   1.658   5.207   1.566  0.2458 -1.7413  2.1429
 7512WAT    EPW30770   1.692   5.154   1.519  0.6384 -0.2600  0.6999
 7513WAT      O30771   3.855   3.010   4.720 -0.5996  0.0363  0.6387
 7513WAT     H130772   3.825   3.064   4.782  1.0065  1.6662  0.1027
 7513WAT     H230773   3.939   3.000   4.741  0.0084  0.6906 -1.2689
 7513WAT    EPW30774   3.863   3.016   4.732 -0.2725  0.3737  0.2777
 7514WAT      O30775   7.313   6.354   4.809 -0.0495  0.3347  0.1247
 7514WAT     H130776   7.326   6.434   4.776 -1.9293  0.3835 -0.6002
 7514WAT     H230777   7.311   6.302   4.739 -0.1679 -0.1422  0.4761
 7514WAT    EPW30778   7.314   6.358   4.794 -0.3447  0.2715  0.0695
 7515WAT      O30779   0.039   3.772   1.102 -0.3152 -0.0560 -0.0251
 7515WAT     H130780   0.006   3.840   1.147  0.9506  0.3249  0.3611
 7515WAT     H230781   0.013   3.787   1.020 -2.3755 -0.5825  0.4724
 7515WAT    EPW30782   0.030   3.784   1.096 -0.4326 -0.0775  0.1054
 7516WAT      O30783   3.643   0.486   1.646 -0.5202  0.3381 -0.1851
 7516WAT     H130784   3.620   0.543   1.708 -1.3051 -0.1133 -0.0418
 7516WAT     H230785   3.574   0.486   1.593 -1.2201 -1.6145  0.6482
 7516WAT    EPW30786   3.629   0.495   1.647 -0.7395 -0.0171 -0.0408
 7517WAT      O30787   1.759   4.056   2.339  0.6437 -0.4239  0.2616
 7517WAT     H130788   1.820   4.115   2.319 -0.2146  0.2062 -0.5553
 7517WAT     H230789   1.789   3.983   2.304  0.1624  0.2256 -1.6187
 7517WAT    EPW30790   1.772   4.054   2.331  0.4458 -0.2349 -0.1369
 7518WAT      O30791   5.396   3.513   3.505  0.0854  0.5265  0.9507
 7518WAT     H130792   5.396   3.505   3.418  0.6527  0.0589  0.9857
 7518WAT     H230793   5.315   3.538   3.524 -1.0000 -2.2479  0.5289
 7518WAT    EPW30794   5.384   3.515   3.495  0.0089  0.0476  0.8935
 7519WAT      O30795   0.307   5.957   5.154  0.2515  0.3682  0.2041
 7519WAT     H130796   0.302   5.870   5.153  0.9306  0.2940 -2.2171
 7519WAT     H230797   0.336   5.975   5.234 -0.2394 -1.5840  0.8766
 7519WAT    EPW30798   0.310   5.947   5.166  0.2793  0.0689 -0.0542
 7520WAT      O30799   3.269   5.637   3.432  0.2555 -0.1089  0.7800
 7520WAT     H130800   3.252   5.557   3.464  0.4818 -0.1643  0.7682
 7520WAT     H230801   3.282   5.622   3.347 -2.2642  0.3098  0.2503
 7520WAT    EPW30802   3.269   5.623   3.424 -0.0833 -0.0552  0.7000
 7521WAT      O30803   6.545   6.829   6.508 -0.1769  0.1711  0.1950
 7521WAT     H130804   6.459   6.844   6.515 -0.3426 -0.6509  0.1034
 7521WAT     H230805   6.581   6.893   6.554 -0.8854 -0.0681  1.1315
 7521WAT    EPW30806   6.537   6.841   6.516 -0.3060  0.0144  0.3198
 7522WAT      O30807   1.520   1.275   0.713 -0.5762 -0.3384 -0.1755
 7522WAT     H130808   1.461   1.338   0.700  0.2886  0.2224 -1.5802
 7522WAT     H230809   1.587   1.300   0.663  1.1979 -0.5160  1.9761
 7522WAT    EPW30810   1.521   1.288   0.704 -0.1864 -0.2818 -0.0652
 7523WAT      O30811   3.418   6.417   1.157  0.2995  0.6516 -0.3279
 7523WAT     H130812   3.487   6.390   1.111 -0.2341 -1.3324 -0.0253
 7523WAT     H230813   3.412   6.360   1.222 -1.3576  1.0464 -0.0825
 7523WAT    EPW30814   3.427   6.405   1.160 -0.0241  0.4169 -0.2470
 7524WAT      O30815   6.892   2.220   4.784 -0.0360  0.5028  0.0780
 7524WAT     H130816   6.935   2.293   4.805 -0.6876  0.9892 -0.2393
 7524WAT     H230817   6.937   2.157   4.825 -0.2109  1.2261  1.4345
 7524WAT    EPW30818   6.905   2.221   4.793 -0.1581  0.6815  0.2315
 7525WAT      O30819   6.635   2.110   2.015 -0.0266  0.3861 -0.2520
 7525WAT     H130820   6.646   2.187   2.055  2.1650  0.2672 -0.5065
 7525WAT     H230821   6.608   2.132   1.935  0.1983  0.8698 -0.1981
 7525WAT    EPW30822   6.633   2.125   2.009  0.3304  0.4400 -0.2817
 7526WAT      O30823   4.710   0.184   7.002 -0.4757 -0.3608 -0.7323
 7526WAT     H130824   4.726   0.103   7.029  1.4043  0.2063  0.0402
 7526WAT     H230825   4.775   0.201   6.947 -0.5955  0.7478 -0.5609
 7526WAT    EPW30826   4.722   0.175   6.998 -0.2156 -0.1133 -0.5929
 7527WAT      O30827   4.113   7.018   3.399  0.1069 -0.3415 -0.1189
 7527WAT     H130828   4.049   6.961   3.384  0.1871 -0.5360  0.2572
 7527WAT     H230829   4.071   7.094   3.407 -0.1376 -0.5376  0.5882
 7527WAT    EPW30830   4.097   7.021   3.398  0.0826 -0.3992  0.0411
 7528WAT      O30831   1.263   0.457   4.191 -0.3808 -0.2233 -0.6068
 7528WAT     H130832   1.324   0.463   4.128 -0.3922 -1.0346 -0.7033
 7528WAT     H230833   1.188   0.455   4.147 -0.3799 -0.9796 -0.5910
 7528WAT    EPW30834   1.261   0.458   4.175 -0.3823 -0.4549 -0.6187
 7529WAT      O30835   0.075   3.074   3.237  0.1369 -0.3691 -0.0858
 7529WAT     H130836   0.011   3.116   3.278  1.1357  0.2205  0.8955
 7529WAT     H230837   0.106   3.019   3.297  1.3986  0.2759 -0.1048
 7529WAT    EPW30838   0.070   3.072   3.252  0.4708 -0.1867  0.0563
 7530WAT      O30839   1.115   6.213   5.308  0.2885 -0.1304 -0.6676
 7530WAT     H130840   1.073   6.289   5.315  0.6404 -0.0458  0.9092
 7530WAT     H230841   1.195   6.236   5.283  0.5680  0.1039  0.3789
 7530WAT    EPW30842   1.121   6.228   5.305  0.3818 -0.0833 -0.2801
 7531WAT      O30843   3.564   1.254   6.113  0.4262 -0.4575 -0.5360
 7531WAT     H130844   3.492   1.257   6.064  0.8750  0.7697 -1.1532
 7531WAT     H230845   3.599   1.177   6.092 -1.3952 -1.7667  0.8429
 7531WAT    EPW30846   3.558   1.243   6.103  0.2235 -0.4696 -0.4235
 7532WAT      O30847   6.108   7.219   2.547  0.0636 -0.0984  0.1031
 7532WAT     H130848   6.174   7.164   2.562  1.2000  1.2670  0.2791
 7532WAT     H230849   6.073   7.232   2.626  0.3136  0.0807  0.1827
 7532WAT    EPW30850   6.112   7.213   2.561  0.2684  0.1298  0.1408
 7533WAT      O30851   5.201   3.195   2.971 -0.2744 -0.2584  0.1227
 7533WAT     H130852   5.287   3.188   2.955 -0.4388 -1.2988 -0.3772
 7533WAT     H230853   5.193   3.166   3.053 -0.2072 -0.6103  0.0061
 7533WAT    EPW30854   5.213   3.190   2.981 -0.2888 -0.4641  0.0316
 7534WAT      O30855   5.905   1.397   4.730  0.4739  0.0229 -0.0504
 7534WAT     H130856   5.887   1.363   4.808 -0.2441  2.0451  0.7303
 7534WAT     H230857   5.868   1.340   4.674  1.7078 -1.8925  0.9689
 7534WAT    EPW30858   5.897   1.383   4.733  0.5501  0.0386  0.2155
 7535WAT      O30859   2.553   1.720   4.857  0.2617  0.3736  0.1793
 7535WAT     H130860   2.513   1.718   4.779  1.0889 -2.4401 -0.2981
 7535WAT     H230861   2.634   1.748   4.838  0.0264  1.1143  0.2737
 7535WAT    EPW30862   2.559   1.724   4.842  0.3491  0.0674  0.1228
 7536WAT      O30863   4.036   1.796   4.090  0.6073  0.3406  0.1687
 7536WAT     H130864   4.100   1.762   4.041 -0.5352 -0.3189 -0.9298
 7536WAT     H230865   4.048   1.882   4.082  0.4302  0.2576 -1.3608
 7536WAT    EPW30866   4.047   1.804   4.082  0.4124  0.2309 -0.2195
 7537WAT      O30867   0.632   0.181   5.462  0.1549 -0.0642 -0.1784
 7537WAT     H130868   0.614   0.241   5.401 -1.8914 -0.0058  0.4094
 7537WAT     H230869   0.717   0.191   5.477  0.9573 -0.6566 -3.5990
 7537WAT    EPW30870   0.642   0.191   5.455 -0.0288 -0.1431 -0.5968
 7538WAT      O30871   1.681   6.430   1.894 -0.6139  0.6105  0.1913
 7538WAT     H130872   1.603   6.446   1.857 -1.5515 -1.4331  1.1452
 7538WAT     H230873   1.668   6.357   1.939  1.8659  0.2364  0.4484
 7538WAT    EPW30874   1.667   6.422   1.895 -0.3861  0.2534  0.3702
 7539WAT      O30875   5.295   4.699   3.532 -0.1082  0.0716 -0.0492
 7539WAT     H130876   5.335   4.622   3.542 -0.4394  0.0188  1.1107
 7539WAT     H230877   5.211   4.677   3.520 -0.0095  0.2200 -1.0327
 7539WAT    EPW30878   5.288   4.684   3.532 -0.1425  0.0857 -0.0232
 7540WAT      O30879   6.469   0.586   1.951  0.2677  0.2566 -0.1189
 7540WAT     H130880   6.394   0.599   1.908  0.0578  0.4275  0.2987
 7540WAT     H230881   6.476   0.657   2.002  0.7958  0.3209 -0.2757
 7540WAT    EPW30882   6.459   0.599   1.952  0.3147  0.2913 -0.0804
 7541WAT      O30883   4.382   2.746   6.218 -0.2477 -0.3400  0.2258
 7541WAT     H130884   4.430   2.688   6.174 -1.8025 -1.6714  0.2021
 7541WAT     H230885   4.353   2.701   6.287 -3.2894 -0.3784 -0.9180
 7541WAT    EPW30886   4.385   2.731   6.222 -0.9267 -0.5424  0.0534
 7542WAT      O30887   6.245   0.876   4.420  0.1046 -0.2600 -0.5880
 7542WAT     H130888   6.174   0.837   4.452  1.7793 -2.4810  0.7601
 7542WAT     H230889   6.215   0.952   4.390 -2.6760 -0.7403  0.6334
 7542WAT    EPW30890   6.230   0.881   4.420 -0.0588 -0.6591 -0.2085
 7543WAT      O30891   3.882   2.443   4.603 -0.9522  0.0054 -0.3260
 7543WAT     H130892   3.853   2.523   4.622 -2.4554 -0.4007 -0.7789
 7543WAT     H230893   3.829   2.391   4.649 -0.8225 -0.7681 -1.0255
 7543WAT    EPW30894   3.870   2.447   4.613 -1.1551 -0.1688 -0.4962
 7544WAT      O30895   5.366   2.558   1.808 -0.1948  0.1995  0.1523
 7544WAT     H130896   5.332   2.495   1.858 -0.7641 -0.3139 -0.8564
 7544WAT     H230897   5.452   2.544   1.814 -0.3071 -0.5943  0.0463
 7544WAT    EPW30898   5.374   2.546   1.816 -0.2955  0.0064 -0.0124
 7545WAT      O30899   4.522   4.854   4.188  0.3859 -0.0591 -0.0299
 7545WAT     H130900   4.446   4.831   4.153  1.0270 -1.0242 -0.8632
 7545WAT     H230901   4.555   4.778   4.216  1.0448  0.3404  0.3092
 7545WAT    EPW30902   4.516   4.839   4.187  0.5780 -0.1426 -0.1029
 7546WAT      O30903   6.689   4.676   1.342 -0.2882 -0.4068  0.0093
 7546WAT     H130904   6.773   4.701   1.350 -0.2184 -0.9036  0.9751
 7546WAT     H230905   6.675   4.679   1.256  0.6622 -0.1185 -0.1486
 7546WAT    EPW30906   6.700   4.680   1.331 -0.1375 -0.4376  0.1286
 7547WAT      O30907   3.158   2.741   6.871 -0.3328 -0.2556 -0.1559
 7547WAT     H130908   3.077   2.771   6.856 -0.6039 -0.7537  0.2706
 7547WAT     H230909   3.201   2.762   6.799 -0.9418 -0.3282 -0.5523
 7547WAT    EPW30910   3.152   2.749   6.858 -0.4628 -0.3399 -0.1514
 7548WAT      O30911   6.384   0.617   3.725 -0.4538 -0.3623 -0.4308
 7548WAT     H130912   6.345   0.695   3.729  0.7505  0.2710 -0.8460
 7548WAT     H230913   6.413   0.604   3.806  2.3654  1.2389 -1.0811
 7548WAT    EPW30914   6.382   0.626   3.738  0.1405 -0.0322 -0.5882
 7549WAT      O30915   1.378   0.420   2.259  0.1483  0.5686 -0.0025
 7549WAT     H130916   1.431   0.382   2.201  1.2330  1.2578  0.5066
 7549WAT     H230917   1.414   0.399   2.336 -0.9389  0.1592  0.4141
 7549WAT    EPW30918   1.391   0.411   2.261  0.1479  0.6100  0.1342
 7550WAT      O30919   4.935   4.885   1.570 -0.0546 -0.4212  0.2797
 7550WAT     H130920   5.019   4.902   1.587  0.0279 -1.6321  1.2040
 7550WAT     H230921   4.902   4.864   1.648 -0.6392 -2.3057 -0.4323
 7550WAT    EPW30922   4.942   4.884   1.584 -0.1288 -0.8785  0.3111
 7551WAT      O30923   3.630   1.818   6.261  0.6914  0.0125 -0.2921
 7551WAT     H130924   3.562   1.798   6.312  0.6387 -0.7930 -0.6558
 7551WAT     H230925   3.595   1.824   6.182  0.6899  1.7315 -0.1887
 7551WAT    EPW30926   3.615   1.816   6.257  0.6834  0.1474 -0.3306
 7552WAT      O30927   1.985   0.570   0.143  0.2762 -0.5146  0.4892
 7552WAT     H130928   2.002   0.504   0.198  1.4026 -0.9207 -0.2985
 7552WAT     H230929   2.060   0.615   0.141 -0.6605  1.2021  1.4919
 7552WAT    EPW30930   1.999   0.567   0.151  0.3042 -0.3210  0.5210
 7553WAT      O30931   2.360   0.413   2.687 -0.3961 -0.7788 -0.0752
 7553WAT     H130932   2.325   0.493   2.683  1.1461  0.0744  1.6889
 7553WAT     H230933   2.309   0.371   2.744  0.7340  0.1551  1.7443
 7553WAT    EPW30934   2.347   0.419   2.695 -0.0014 -0.5148  0.4542
 7554WAT      O30935   1.276   0.608   6.400 -0.1812  0.3616  0.0898
 7554WAT     H130936   1.283   0.621   6.314  1.9181 -0.1011  0.1350
 7554WAT     H230937   1.281   0.521   6.409  1.9203  0.4746  0.7527
 7554WAT    EPW30938   1.278   0.597   6.389  0.4394  0.3099  0.1944
 7555WAT      O30939   0.046   6.038   5.095  0.3529  0.1329 -0.4599
 7555WAT     H130940   0.126   6.043   5.129 -0.6531 -0.3278  2.1356
 7555WAT     H230941   0.003   6.104   5.132 -1.8562 -2.6288  2.4941
 7555WAT    EPW30942   0.051   6.048   5.105 -0.1220 -0.3431  0.3599
 7556WAT      O30943   2.669   0.198   0.571  0.2354  0.0370  0.1029
 7556WAT     H130944   2.654   0.225   0.653 -0.0909 -2.6102  1.0369
 7556WAT     H230945   2.663   0.111   0.578  1.0698 -0.3070 -2.5941
 7556WAT    EPW30946   2.666   0.189   0.584  0.3104 -0.4048 -0.1575
 7557WAT      O30947   3.316   3.593   0.714  0.4079  0.3511  0.4577
 7557WAT     H130948   3.245   3.585   0.663  0.0435  0.6691  0.8981
 7557WAT     H230949   3.374   3.633   0.663  1.0521 -1.8216 -0.6211
 7557WAT    EPW30950   3.314   3.598   0.699  0.4492  0.0771  0.3634
 7558WAT      O30951   6.553   1.641   7.228 -0.5095  0.2643  0.2177
 7558WAT     H130952   6.575   1.685   7.299  0.7960  1.8434 -1.0794
 7558WAT     H230953   6.625   1.596   7.208 -0.8774 -0.2094 -0.0659
 7558WAT    EPW30954   6.566   1.641   7.235 -0.3710  0.4276 -0.0158
 7559WAT      O30955   6.907   6.590   5.897  0.5139 -0.2557 -0.4617
 7559WAT     H130956   6.901   6.521   5.844 -1.3656  0.9014 -1.8950
 7559WAT     H230957   6.844   6.643   5.869  1.5414  1.8437  0.9018
 7559WAT    EPW30958   6.897   6.588   5.885  0.3880  0.2254 -0.4720
 7560WAT      O30959   4.433   0.420   5.398 -0.8104 -0.3222  0.2039
 7560WAT     H130960   4.464   0.344   5.368 -1.9351 -0.5348 -0.5163
 7560WAT     H230961   4.468   0.479   5.344 -1.2600 -0.5166 -0.3202
 7560WAT    EPW30962   4.442   0.418   5.386 -1.0430 -0.3823  0.0201
 7561WAT      O30963   1.320   5.208   5.111 -0.5340  0.1299  0.0022
 7561WAT     H130964   1.352   5.277   5.154  0.0172  0.4440 -0.8882
 7561WAT     H230965   1.349   5.220   5.029 -0.2933 -1.2348 -0.1357
 7561WAT    EPW30966   1.329   5.220   5.105 -0.4170 -0.0253 -0.1497
 7562WAT      O30967   3.832   4.044   3.306  0.0684  0.3440  0.0302
 7562WAT     H130968   3.852   4.025   3.224  1.1003 -0.0301  0.3481
 7562WAT     H230969   3.765   4.100   3.299  0.4183  0.6480 -1.0615
 7562WAT    EPW30970   3.825   4.050   3.293  0.2725  0.3336 -0.0841
 7563WAT      O30971   6.777   5.967   5.634  0.3174 -0.5072 -0.5125
 7563WAT     H130972   6.778   5.990   5.719 -2.2022  1.2154 -0.8254
 7563WAT     H230973   6.829   6.026   5.597 -0.7824  0.5439 -0.4526
 7563WAT    EPW30974   6.785   5.979   5.641 -0.2172 -0.0974 -0.5498
 7564WAT      O30975   5.333   3.473   2.417 -0.1655  0.1221 -0.1281
 7564WAT     H130976   5.279   3.513   2.472  0.8353  1.9367 -0.3871
 7564WAT     H230977   5.352   3.534   2.358  1.8587 -0.5458 -0.2581
 7564WAT    EPW30978   5.328   3.488   2.417  0.2814  0.2915 -0.1856
 7565WAT      O30979   6.741   0.966   5.418  0.0493 -0.0805 -0.3626
 7565WAT     H130980   6.659   0.982   5.392  0.0324 -1.6733 -1.4713
 7565WAT     H230981   6.762   0.894   5.373  1.5191 -0.5866  1.0618
 7565WAT    EPW30982   6.732   0.957   5.407  0.2640 -0.3906 -0.3160
 7566WAT      O30983   0.804   3.009   4.715  0.1731  0.1729 -0.1136
 7566WAT     H130984   0.880   3.013   4.756  1.7824  2.0716 -2.8767
 7566WAT     H230985   0.827   3.009   4.630 -2.8763 -1.1192 -1.0726
 7566WAT    EPW30986   0.819   3.009   4.708 -0.0396  0.2625 -0.6635
 7567WAT      O30987   5.077   1.215   0.545  0.1062  0.1875  0.2767
 7567WAT     H130988   5.142   1.202   0.602 -0.8977 -0.5819  1.2858
 7567WAT     H230989   5.021   1.265   0.589  0.1671  1.1948 -0.7328
 7567WAT    EPW30990   5.078   1.221   0.559 -0.0331  0.2227  0.2767
 7568WAT      O30991   4.825   1.393   3.725 -0.4949 -0.1250 -0.0329
 7568WAT     H130992   4.834   1.469   3.683  1.2937  0.1005  0.6759
 7568WAT     H230993   4.861   1.335   3.670  0.8383  0.0093  0.6542
 7568WAT    EPW30994   4.832   1.396   3.710 -0.0337 -0.0719  0.1733
 7569WAT      O30995   2.974   2.224   2.022 -0.2806  1.0484  0.4736
 7569WAT     H130996   3.048   2.179   2.008 -1.8869 -1.4127 -0.7867
 7569WAT     H230997   2.942   2.237   1.942 -1.5479  1.4818  1.0183
 7569WAT    EPW30998   2.980   2.219   2.008 -0.7051  0.7489  0.3679
 7570WAT      O30999   3.345   5.904   5.870 -0.0031 -0.2988 -0.3306
 7570WAT     H131000   3.320   5.916   5.788  0.5692 -1.2655 -0.6526
 7570WAT     H231001   3.300   5.833   5.895 -0.0909 -0.0789  0.1693
 7570WAT    EPW31002   3.334   5.895   5.862  0.0685 -0.4092 -0.3043
 7571WAT      O31003   0.970   5.635   4.423  0.3339 -0.4079  0.7262
 7571WAT     H131004   0.924   5.619   4.350 -0.1666 -0.4849  1.0551
 7571WAT     H231005   0.910   5.633   4.486  0.6556  0.3708  1.0624
 7571WAT    EPW31006   0.954   5.632   4.421  0.3075 -0.3042  0.8245
 7572WAT      O31007   1.768   4.422   7.125  0.6568 -0.1098 -0.3014
 7572WAT     H131008   1.767   4.458   7.046 -0.1509  1.3128  0.2963
 7572WAT     H231009   1.846   4.444   7.157  0.5119  0.3743 -0.2695
 7572WAT    EPW31010   1.779   4.431   7.118  0.5161  0.1719 -0.2084
 7573WAT      O31011   2.161   0.585   4.948  0.2127 -0.4375  0.1321
 7573WAT     H131012   2.130   0.659   4.980  0.1606  0.5982 -2.1077
 7573WAT     H231013   2.108   0.524   4.981 -1.7066  0.8747 -0.3739
 7573WAT    EPW31014   2.149   0.587   4.957 -0.0785 -0.0907 -0.2735
 7574WAT      O31015   6.388   5.738   4.153  0.0959  0.5040 -0.4434
 7574WAT     H131016   6.364   5.813   4.115 -3.0465  0.4747  1.2206
 7574WAT     H231017   6.340   5.678   4.113 -0.2837 -0.0660  0.8160
 7574WAT    EPW31018   6.378   5.740   4.141 -0.4244  0.4155 -0.0116
 7575WAT      O31019   7.007   5.285   2.753 -0.1648  0.0679  0.3179
 7575WAT     H131020   7.040   5.364   2.767 -0.1209  0.1487 -0.2033
 7575WAT     H231021   7.038   5.237   2.819  1.6800 -0.0612 -0.5662
 7575WAT    EPW31022   7.016   5.289   2.765  0.1142  0.0607  0.1103
 7576WAT      O31023   4.514   1.931   1.446 -0.5553 -0.0066  0.0746
 7576WAT     H131024   4.502   1.922   1.532 -0.8025 -4.4369 -0.2218
 7576WAT     H231025   4.599   1.917   1.435 -0.7472 -0.7949 -0.4907
 7576WAT    EPW31026   4.525   1.928   1.457 -0.6202 -0.7775 -0.0527
 7577WAT      O31027   6.611   4.412   4.708 -0.1844 -0.1745 -0.5980
 7577WAT     H131028   6.685   4.439   4.744  0.3320  0.3869 -2.0228
 7577WAT     H231029   6.571   4.486   4.685 -0.8792 -0.4970 -0.4596
 7577WAT    EPW31030   6.616   4.427   4.710 -0.2107 -0.1392 -0.7880
 7578WAT      O31031   6.687   2.259   4.433 -0.2210  0.7700 -0.3113
 7578WAT     H131032   6.750   2.202   4.415 -0.2872  0.3665  0.6651
 7578WAT     H231033   6.722   2.312   4.493 -0.8200  0.4934  0.3032
 7578WAT    EPW31034   6.701   2.259   4.439 -0.3193  0.6696 -0.0763
 7579WAT      O31035   2.644   4.521   3.350 -0.2825  0.2914  0.6613
 7579WAT     H131036   2.706   4.508   3.291  0.0131  1.9049  0.5578
 7579WAT     H231037   2.628   4.442   3.383  0.2045 -0.4831 -0.9126
 7579WAT    EPW31038   2.651   4.508   3.346 -0.1669  0.4153  0.4135
 7580WAT      O31039   6.708   1.394   6.305 -0.0482  0.1547  0.4981
 7580WAT     H131040   6.763   1.462   6.301 -0.9171  0.8333 -0.7426
 7580WAT     H231041   6.759   1.327   6.328  1.2615  0.7856 -0.4645
 7580WAT    EPW31042   6.724   1.394   6.308  0.0169  0.3481  0.1726
 7581WAT      O31043   1.444   0.327   0.726 -0.1111 -0.3737  0.4649
 7581WAT     H131044   1.380   0.314   0.668 -1.3431  1.0367  1.4311
 7581WAT     H231045   1.507   0.364   0.678  2.0869 -5.6796 -1.5541
 7581WAT    EPW31046   1.444   0.331   0.710  0.0316 -0.9492  0.3093
 7582WAT      O31047   6.928   1.233   4.383  0.0972  0.1301 -0.3508
 7582WAT     H131048   6.907   1.176   4.320 -0.7593 -1.4685  1.2874
 7582WAT     H231049   6.997   1.198   4.421  0.5822  1.0623 -0.3403
 7582WAT    EPW31050   6.935   1.220   4.379  0.0423  0.0317 -0.1072
 7583WAT      O31051   2.099   5.659   0.436 -0.2128  0.3083 -0.4901
 7583WAT     H131052   2.113   5.582   0.398  1.4680  0.4979 -0.3216
 7583WAT     H231053   2.049   5.639   0.505 -0.2909 -0.5341 -0.7797
 7583WAT    EPW31054   2.094   5.645   0.440  0.0239  0.2119 -0.5080
 7584WAT      O31055   4.381   1.030   0.876 -0.1195  0.4593  0.1105
 7584WAT     H131056   4.355   1.074   0.947  0.0219 -0.5363  0.8008
 7584WAT     H231057   4.457   0.994   0.899 -0.3507 -0.3612 -0.3232
 7584WAT    EPW31058   4.388   1.031   0.890 -0.1327  0.1910  0.1484
 7585WAT      O31059   4.958   5.453   1.561  0.5156  0.0461  0.3557
 7585WAT     H131060   5.015   5.388   1.574  1.1969  0.3127 -1.1007
 7585WAT     H231061   4.884   5.411   1.542  0.4560 -0.2979  1.2857
 7585WAT    EPW31062   4.956   5.437   1.560  0.6075  0.0347  0.2780
 7586WAT      O31063   3.484   0.881   0.451 -0.1771 -0.1357  0.2313
 7586WAT     H131064   3.565   0.876   0.484 -0.3647  1.7206  1.0979
 7586WAT     H231065   3.443   0.813   0.488  0.3875  0.2472  1.6379
 7586WAT    EPW31066   3.490   0.870   0.461 -0.1214  0.1951  0.5671
 7587WAT      O31067   6.328   5.843   6.464 -0.2600  0.0885 -0.3480
 7587WAT     H131068   6.272   5.904   6.439 -0.4121  0.4842  0.8947
 7587WAT     H231069   6.320   5.781   6.403  1.2648  2.0571 -2.7433
 7587WAT    EPW31070   6.319   5.843   6.451 -0.0573  0.4378 -0.5182
 7588WAT      O31071   4.716   5.708   3.590 -0.5348 -0.5947 -0.1565
 7588WAT     H131072   4.642   5.663   3.580  0.2518 -1.7784 -0.8054
 7588WAT     H231073   4.748   5.713   3.509 -0.6504  1.2969 -0.1458
 7588WAT    EPW31074   4.710   5.702   3.576 -0.4357 -0.4901 -0.2507
 7589WAT      O31075   6.008   0.830   2.219  0.2131 -0.2293 -0.4216
 7589WAT     H131076   6.021   0.916   2.215  0.0467 -0.2386 -1.6551
 7589WAT     H231077   6.087   0.796   2.207  0.1746 -0.2410 -0.6592
 7589WAT    EPW31078   6.021   0.837   2.217  0.1828 -0.2324 -0.6389
 7590WAT      O31079   1.163   6.353   4.606 -0.0319  0.0879 -0.1924
 7590WAT     H131080   1.187   6.334   4.688 -1.4960  0.6690  0.4113
 7590WAT     H231081   1.200   6.290   4.558  1.6279  0.2652  0.7785
 7590WAT    EPW31082   1.172   6.341   4.611 -0.0030  0.1999  0.0402
 7591WAT      O31083   2.184   1.832   1.795 -0.3995  0.3610 -0.0148
 7591WAT     H131084   2.168   1.749   1.773 -1.6972  0.1068  1.5879
 7591WAT     H231085   2.137   1.878   1.738  0.6653  0.0425 -1.1837
 7591WAT    EPW31086   2.175   1.827   1.784 -0.4339  0.2764  0.0493
 7592WAT      O31087   0.630   5.853   7.111 -0.0367 -0.3498 -0.0104
 7592WAT     H131088   0.566   5.913   7.116 -1.2565 -1.5231 -0.7197
 7592WAT     H231089   0.692   5.884   7.163 -1.2096  0.8224  0.7435
 7592WAT    EPW31090   0.630   5.867   7.119 -0.3902 -0.3499 -0.0038
 7593WAT      O31091   2.359   7.075   5.063 -0.2335 -0.3718  0.1345
 7593WAT     H131092   2.372   7.149   5.019  1.0147 -0.7014 -0.0954
 7593WAT     H231093   2.432   7.067   5.110 -0.8056 -0.9253  0.9510
 7593WAT    EPW31094   2.372   7.085   5.064 -0.1336 -0.5022  0.2212
 7594WAT      O31095   2.097   1.404   6.626  0.4063 -0.3900  0.0403
 7594WAT     H131096   2.092   1.419   6.712  2.2265  1.6789 -0.1182
 7594WAT     H231097   2.111   1.318   6.621  0.7719 -0.4821  1.8390
 7594WAT    EPW31098   2.098   1.394   6.638  0.7292 -0.0980  0.2826
 7595WAT      O31099   0.218   2.854   2.390 -0.0722  0.6291  0.1812
 7595WAT     H131100   0.240   2.810   2.317 -2.3178  0.8452 -0.7093
 7595WAT     H231101   0.283   2.836   2.445  0.7341 -1.1361 -1.2391
 7595WAT    EPW31102   0.231   2.844   2.387 -0.2848  0.4003 -0.1602
 7596WAT      O31103   4.714   4.857   6.890 -0.1698 -0.5663 -0.2219
 7596WAT     H131104   4.708   4.937   6.922  1.1043 -0.6916  0.3910
 7596WAT     H231105   4.788   4.858   6.844  0.6061 -1.7379  0.9246
 7596WAT    EPW31106   4.724   4.869   6.888  0.1330 -0.7579  0.0380
 7597WAT      O31107   6.366   5.483   6.604 -0.2192 -0.1476 -0.4278
 7597WAT     H131108   6.371   5.408   6.649 -1.2168  0.1373  0.2010
 7597WAT     H231109   6.349   5.542   6.666  0.7448  0.6318 -0.8944
 7597WAT    EPW31110   6.364   5.480   6.620 -0.2242  0.0096 -0.4039
 7598WAT      O31111   6.197   0.755   4.955 -0.0167 -0.3460  0.3313
 7598WAT     H131112   6.188   0.841   4.953 -1.6703 -0.5058 -1.0353
 7598WAT     H231113   6.174   0.733   5.036 -1.0705  0.3594  0.2311
 7598WAT    EPW31114   6.192   0.764   4.967 -0.4167 -0.2654  0.1146
 7599WAT      O31115   4.259   0.743   5.280 -0.3499  0.8775  0.4310
 7599WAT     H131116   4.274   0.766   5.363 -0.3969  3.3574 -0.1801
 7599WAT     H231117   4.246   0.819   5.239 -1.6783 -0.3503 -1.6099
 7599WAT    EPW31118   4.259   0.758   5.286 -0.5531  1.0624  0.0392
 7600WAT      O31119   3.327   2.497   5.561 -0.0507 -0.3879 -0.7350
 7600WAT     H131120   3.299   2.570   5.522 -1.8354  0.7017  2.2706
 7600WAT     H231121   3.408   2.517   5.587 -1.1827  1.4490  1.8151
 7600WAT    EPW31122   3.335   2.511   5.559 -0.4816  0.0444  0.0856
 7601WAT      O31123   2.842   5.164   3.427 -0.9284  0.1750  0.2326
 7601WAT     H131124   2.757   5.178   3.411 -1.1413 -0.3702  0.8187
 7601WAT     H231125   2.846   5.078   3.440 -0.7065  0.4614  2.4358
 7601WAT    EPW31126   2.830   5.154   3.427 -0.9271  0.1368  0.6447
 7602WAT      O31127   2.887   0.920   2.802  0.5552  0.3629 -0.1306
 7602WAT     H131128   2.966   0.886   2.790  0.1899 -0.6857  0.3256
 7602WAT     H231129   2.869   0.958   2.726  1.8763  1.4381  0.0596
 7602WAT    EPW31130   2.896   0.920   2.789  0.6964  0.3668 -0.0351
 7603WAT      O31131   1.496   3.964   4.137  0.4790  0.1818  0.1277
 7603WAT     H131132   1.456   4.018   4.192  2.0202  0.2000  1.2854
 7603WAT     H231133   1.565   4.009   4.110 -0.2694  0.2094 -1.9623
 7603WAT    EPW31134   1.500   3.978   4.141  0.5961  0.1885 -0.0100
 7604WAT      O31135   1.908   1.695   3.661 -0.2863  0.1727 -0.6496
 7604WAT     H131136   1.973   1.743   3.695 -0.5671 -0.5216  0.9352
 7604WAT     H231137   1.950   1.638   3.610  0.1269  1.3388 -1.6752
 7604WAT    EPW31138   1.924   1.694   3.659 -0.2668  0.2424 -0.5670
 7605WAT      O31139   1.675   6.485   5.504 -0.0832 -0.4645 -0.3568
 7605WAT     H131140   1.691   6.480   5.418  1.7717  0.1840 -0.1061
 7605WAT     H231141   1.674   6.571   5.519  0.5985 -0.5806  0.4187
 7605WAT    EPW31142   1.677   6.497   5.494  0.2915 -0.3859 -0.2052
 7606WAT      O31143   6.977   6.073   4.871 -0.2934  0.3991  0.3620
 7606WAT     H131144   6.964   6.050   4.955 -1.3902 -1.6794 -0.3056
 7606WAT     H231145   7.036   6.016   4.843  0.4565  1.4177 -0.1860
 7606WAT    EPW31146   6.983   6.061   4.879 -0.3447  0.2425  0.1824
 7607WAT      O31147   3.874   4.367   3.432  0.5962 -0.3072 -0.5365
 7607WAT     H131148   3.798   4.405   3.454  0.7682 -0.7631  0.9568
 7607WAT     H231149   3.865   4.351   3.347 -1.7342 -1.9546 -0.0862
 7607WAT    EPW31150   3.861   4.370   3.423  0.2774 -0.6179 -0.2494
 7608WAT      O31151   3.492   5.235   6.953 -0.3813  0.4922  0.2229
 7608WAT     H131152   3.580   5.232   6.957 -0.4311 -0.7558  1.7019
 7608WAT     H231153   3.475   5.219   6.869  0.8083  1.2021 -0.1828
 7608WAT    EPW31154   3.503   5.232   6.941 -0.2129  0.4127  0.3815
 7609WAT      O31155   5.634   1.365   4.285  0.4419  0.3995 -0.3504
 7609WAT     H131156   5.717   1.356   4.259  0.9844  0.9234  1.1141
 7609WAT     H231157   5.598   1.289   4.265  2.0562 -1.0232  1.7109
 7609WAT    EPW31158   5.641   1.353   4.278  0.7605  0.2667  0.1704
 7610WAT      O31159   1.537   5.321   2.262 -0.0236 -0.3677 -0.5780
 7610WAT     H131160   1.582   5.387   2.298 -0.7790  0.0657 -0.4021
 7610WAT     H231161   1.475   5.362   2.216  0.6414 -0.9212 -2.0294
 7610WAT    EPW31162   1.535   5.337   2.261 -0.0369 -0.3854 -0.7664
 7611WAT      O31163   7.046   3.043   6.997 -0.3952 -0.0007  0.1980
 7611WAT     H131164   7.019   3.043   6.914  0.9075  0.3691 -0.2434
 7611WAT     H231165   7.108   3.104   6.998 -1.0460  0.6725  1.6737
 7611WAT    EPW31166   7.051   3.052   6.985 -0.2989  0.1534  0.3508
 7612WAT      O31167   3.605   3.997   2.093  0.0555  0.1125 -0.7108
 7612WAT     H131168   3.591   3.913   2.074  0.0807  0.2205 -1.2189
 7612WAT     H231169   3.534   4.037   2.063  1.0643  0.5634 -2.6050
 7612WAT    EPW31170   3.593   3.991   2.086  0.2083  0.1950 -1.0657
 7613WAT      O31171   2.369   0.317   0.730 -0.0906 -0.0109  0.1524
 7613WAT     H131172   2.328   0.364   0.791 -0.1697 -0.9345  0.8409
 7613WAT     H231173   2.451   0.349   0.732 -0.5199  1.1862 -0.5540
 7613WAT    EPW31174   2.375   0.329   0.739 -0.1657  0.0295  0.1497
 7614WAT      O31175   1.244   1.630   0.996  0.4383 -0.1737 -0.3152
 7614WAT     H131176   1.167   1.662   1.021  0.9332 -0.1021  1.2004
 7614WAT     H231177   1.240   1.546   1.022  0.6738 -0.3192 -0.7364
 7614WAT    EPW31178   1.232   1.622   1.003  0.5462 -0.1846 -0.1535
 7615WAT      O31179   0.469   0.093   7.419  0.1338  0.2506  0.4371
 7615WAT     H131180   0.520   0.124   7.483  2.6572  1.1635 -1.8028
 7615WAT     H231181   0.406   0.152   7.412 -1.9176 -1.2617  3.7823
 7615WAT    EPW31182   0.467   0.106   7.428  0.2035  0.1621  0.6004
 7616WAT      O31183   2.772   1.107   6.498  0.3689  0.0812  0.3667
 7616WAT     H131184   2.713   1.080   6.556  3.2116  0.1460  3.5927
 7616WAT     H231185   2.749   1.190   6.482  0.4160  0.6634  2.8658
 7616WAT    EPW31186   2.760   1.115   6.504  0.7958  0.1767  1.2124
 7617WAT      O31187   0.059   1.965   5.898 -0.2329  0.2726  0.0130
 7617WAT     H131188   0.030   1.892   5.937 -1.1826  0.2832 -0.6244
 7617WAT     H231189   0.027   2.029   5.948 -0.6205  0.2664 -0.2184
 7617WAT    EPW31190   0.050   1.964   5.911 -0.4305  0.2733 -0.1154
 7618WAT      O31191   2.701   3.041   6.383 -0.2119  0.3138 -0.0938
 7618WAT     H131192   2.717   3.036   6.469 -1.7931  0.5583  0.2373
 7618WAT     H231193   2.778   3.065   6.350  0.3564  0.4989  1.2851
 7618WAT    EPW31194   2.715   3.044   6.391 -0.3615  0.3773  0.1588
 7619WAT      O31195   5.977   3.077   4.144  0.3404 -0.0680  0.1484
 7619WAT     H131196   6.005   3.048   4.067 -0.1855 -1.7311  0.5538
 7619WAT     H231197   5.890   3.071   4.139  0.1830  1.6615  0.1986
 7619WAT    EPW31198   5.968   3.072   4.132  0.2395 -0.0582  0.2157
 7620WAT      O31199   2.682   3.581   0.751 -0.2020 -0.4558  0.0066
 7620WAT     H131200   2.755   3.586   0.798 -1.0772 -1.1850  1.5019
 7620WAT     H231201   2.628   3.534   0.801 -2.0868  0.9893 -0.5733
 7620WAT    EPW31202   2.685   3.575   0.765 -0.6097 -0.3500  0.1418
 7621WAT      O31203   0.560   5.774   5.534 -0.6359 -0.2526  0.3200
 7621WAT     H131204   0.504   5.708   5.530  1.9323 -2.6620  0.5896
 7621WAT     H231205   0.552   5.802   5.616 -0.3244 -1.6947  0.8771
 7621WAT    EPW31206   0.551   5.768   5.546 -0.2105 -0.8215  0.4421
 7622WAT      O31207   3.993   5.261   1.363  0.0015 -0.1483  0.2187
 7622WAT     H131208   4.019   5.193   1.315 -0.9844 -1.0837  0.9550
 7622WAT     H231209   3.993   5.231   1.444  1.1421  1.2541  0.7782
 7622WAT    EPW31210   3.997   5.247   1.368  0.0243 -0.0793  0.4101
 7623WAT      O31211   0.332   0.388   0.597 -0.3327 -0.0137  0.2211
 7623WAT     H131212   0.409   0.393   0.556 -0.7893  1.4783 -0.5602
 7623WAT     H231213   0.297   0.314   0.567  1.0970 -1.1203  1.1914
 7623WAT    EPW31214   0.338   0.378   0.586 -0.1890  0.0432  0.2490
 7624WAT      O31215   0.748   5.737   0.306 -0.3947  0.1978 -0.7019
 7624WAT     H131216   0.792   5.667   0.278  2.3395  1.0778  1.0180
 7624WAT     H231217   0.707   5.708   0.378 -1.8284 -0.3301 -1.6807
 7624WAT    EPW31218   0.748   5.722   0.313 -0.2026  0.2498 -0.5924
 7625WAT      O31219   2.132   3.991   5.053  0.1886  0.1101 -0.1576
 7625WAT     H131220   2.065   3.942   5.026  1.8006 -2.4417  0.0683
 7625WAT     H231221   2.118   3.999   5.139  0.5137 -1.0880  0.0250
 7625WAT    EPW31222   2.120   3.985   5.062  0.4747 -0.4438 -0.0972
 7626WAT      O31223   4.912   0.595   3.544  0.2515  0.1313 -0.2848
 7626WAT     H131224   4.831   0.564   3.557 -0.1614  1.3093  0.1296
 7626WAT     H231225   4.899   0.680   3.529  1.4932  0.5650  0.9065
 7626WAT    EPW31226   4.898   0.603   3.544  0.3740  0.3694 -0.0476
 7627WAT      O31227   0.279   1.362   1.260 -0.3341 -0.1919 -0.2079
 7627WAT     H131228   0.312   1.333   1.335 -0.0780 -0.6198 -0.4862
 7627WAT     H231229   0.307   1.305   1.201 -3.2112 -1.8065 -0.2086
 7627WAT    EPW31230   0.288   1.349   1.262 -0.7213 -0.4936 -0.2491
 7628WAT      O31231   5.794   2.443   2.631 -0.1266  0.1339  0.1039
 7628WAT     H131232   5.738   2.449   2.698  0.0960  4.9540  0.2232
 7628WAT     H231233   5.860   2.495   2.655  1.2207 -0.0710 -2.7833
 7628WAT    EPW31234   5.795   2.452   2.645  0.1053  0.8156 -0.3050
 7629WAT      O31235   6.570   4.031   4.188 -0.2715  0.0735  0.1736
 7629WAT     H131236   6.534   4.104   4.157  1.4187  0.6050 -0.6489
 7629WAT     H231237   6.562   4.041   4.275 -0.2363  1.1431  0.0746
 7629WAT    EPW31238   6.563   4.043   4.197 -0.0166  0.3100  0.0375
 7630WAT      O31239   6.514   5.450   3.595 -1.2435 -0.0891  0.0050
 7630WAT     H131240   6.573   5.510   3.572  1.2252 -1.8988  1.1781
 7630WAT     H231241   6.460   5.494   3.647  0.6375  1.1303  1.0588
 7630WAT    EPW31242   6.515   5.466   3.599 -0.6010 -0.1763  0.3340
 7631WAT      O31243   6.350   6.331   1.424 -0.4655  0.1477  0.2684
 7631WAT     H131244   6.321   6.370   1.351  0.2936 -1.1706 -0.7723
 7631WAT     H231245   6.314   6.252   1.421  0.2133 -0.1940  0.9076
 7631WAT    EPW31246   6.341   6.325   1.413 -0.2531 -0.0976  0.2091
 7632WAT      O31247   2.966   1.948   1.846  0.0766 -0.3393  0.2331
 7632WAT     H131248   2.907   1.918   1.904  1.2161 -1.2160  0.9697
 7632WAT     H231249   2.954   1.896   1.777  0.6735 -1.2113  0.7652
 7632WAT    EPW31250   2.955   1.936   1.845  0.3331 -0.5976  0.4205
 7633WAT      O31251   1.475   4.663   1.656  0.6006  0.3288 -0.1731
 7633WAT     H131252   1.516   4.737   1.631  0.7990  0.7184  1.2312
 7633WAT     H231253   1.540   4.614   1.688  0.4634 -0.4665 -1.0649
 7633WAT    EPW31254   1.491   4.667   1.657  0.6096  0.2689 -0.0974
 7634WAT      O31255   4.819   1.938   2.803 -0.1072  0.3979  0.1875
 7634WAT     H131256   4.899   1.972   2.810  0.7193 -1.3520 -0.1886
 7634WAT     H231257   4.833   1.853   2.812 -1.9789  0.0810  0.3436
 7634WAT    EPW31258   4.833   1.931   2.805 -0.2616  0.0926  0.1550
 7635WAT      O31259   1.604   1.664   2.199  0.0619  0.3308 -0.2251
 7635WAT     H131260   1.606   1.596   2.143  0.0345 -0.3476  0.5812
 7635WAT     H231261   1.604   1.626   2.277 -1.2027  1.2468  0.2382
 7635WAT    EPW31262   1.605   1.648   2.202 -0.1290  0.3659 -0.0376
 7636WAT      O31263   3.154   6.081   0.130 -0.2614 -0.0617 -0.1493
 7636WAT     H131264   3.130   6.062   0.211  0.4878  0.4692  0.2142
 7636WAT     H231265   3.239   6.059   0.128  0.0609  1.1075 -0.3714
 7636WAT    EPW31266   3.163   6.075   0.142 -0.1032  0.1895 -0.1284
 7637WAT      O31267   6.666   2.585   1.241 -0.0884 -0.7372 -0.3547
 7637WAT     H131268   6.603   2.629   1.200 -0.4506 -1.3604 -0.4698
 7637WAT     H231269   6.714   2.552   1.176  1.0495  0.6886 -0.2827
 7637WAT    EPW31270   6.664   2.587   1.225  0.0262 -0.6186 -0.3610
 7638WAT      O31271   2.012   0.762   4.119 -0.0829  0.3864  0.2519
 7638WAT     H131272   2.052   0.811   4.178 -0.4991  1.5229 -0.3731
 7638WAT     H231273   2.075   0.740   4.064  0.3484 -0.8578  1.2116
 7638WAT    EPW31274   2.027   0.766   4.120 -0.0807  0.3705  0.3013
 7639WAT      O31275   0.319   6.597   7.123  0.5503  0.0318  0.4783
 7639WAT     H131276   0.381   6.580   7.064  1.2982 -1.2089  1.5856
 7639WAT     H231277   0.341   6.548   7.192 -0.4294  1.2678  1.7245
 7639WAT    EPW31278   0.331   6.587   7.124  0.5161  0.0311  0.8260
 7640WAT      O31279   2.759   1.272   6.041  0.2512 -0.1091 -0.9307
 7640WAT     H131280   2.731   1.223   5.974 -4.7949  3.3896 -1.9748
 7640WAT     H231281   2.757   1.217   6.109  0.9501 -2.6492 -2.7743
 7640WAT    EPW31282   2.755   1.256   6.041 -0.3909  0.0325 -1.3573
 7641WAT      O31283   2.668   0.050   1.974 -0.2042 -0.7733  0.1950
 7641WAT     H131284   2.634   0.077   1.899  0.3642  1.7185  0.7422
 7641WAT     H231285   2.750   0.078   1.971 -0.4455  0.3372  2.1241
 7641WAT    EPW31286   2.675   0.058   1.963 -0.1559 -0.2411  0.5608
 7642WAT      O31287   6.277   4.792   2.672  0.3137  0.1749  0.0023
 7642WAT     H131288   6.199   4.794   2.633 -0.8163 -0.2723  2.0902
 7642WAT     H231289   6.314   4.868   2.649 -0.2795 -0.0523 -1.8395
 7642WAT    EPW31290   6.271   4.803   2.663  0.0592  0.0752  0.0386
 7643WAT      O31291   6.786   3.250   2.251 -0.2356 -0.2071  0.0697
 7643WAT     H131292   6.788   3.325   2.296  2.2680 -0.4231  0.4400
 7643WAT     H231293   6.797   3.276   2.168 -0.8050 -0.0958  0.0218
 7643WAT    EPW31294   6.788   3.265   2.245  0.0501 -0.2226  0.1173
 7644WAT      O31295   6.173   6.071   7.032  0.0746 -0.5212 -0.1286
 7644WAT     H131296   6.197   6.016   6.968 -0.8944 -0.4933 -0.5458
 7644WAT     H231297   6.099   6.107   7.000  0.6479  0.9792  0.1535
 7644WAT    EPW31298   6.165   6.069   7.018  0.0162 -0.2954 -0.1485
 7645WAT      O31299   5.081   2.144   2.057 -0.1564 -0.0289 -0.6754
 7645WAT     H131300   5.129   2.187   2.116  1.8818  0.2639 -2.4283
 7645WAT     H231301   5.140   2.095   2.014 -1.7779 -1.3431 -1.5270
 7645WAT    EPW31302   5.097   2.143   2.059 -0.0949 -0.1798 -1.0601
 7646WAT      O31303   4.203   5.280   0.307  0.6808  0.1300 -0.4537
 7646WAT     H131304   4.186   5.285   0.221  0.3825  0.3103 -0.3846
 7646WAT     H231305   4.235   5.359   0.325 -0.9913  0.7514 -0.0231
 7646WAT    EPW31306   4.205   5.293   0.297  0.3898  0.2484 -0.3799
 7647WAT      O31307   5.625   0.869   5.697 -0.2050 -0.5798 -0.2571
 7647WAT     H131308   5.664   0.841   5.624  1.3545 -1.0268  0.7113
 7647WAT     H231309   5.559   0.813   5.707  0.7855 -1.7662 -0.2355
 7647WAT    EPW31310   5.621   0.857   5.687  0.1717 -0.8211 -0.1109
 7648WAT      O31311   4.537   2.782   4.248  0.0015 -0.3473  0.4112
 7648WAT     H131312   4.452   2.801   4.252 -0.4239 -2.0312 -0.0905
 7648WAT     H231313   4.573   2.858   4.224 -1.0915  0.9520  2.4813
 7648WAT    EPW31314   4.530   2.796   4.245 -0.2228 -0.4041  0.6429
 7649WAT      O31315   0.783   1.801   4.300  0.2961  0.4282  0.3420
 7649WAT     H131316   0.743   1.872   4.270  0.2228 -0.0299 -0.6931
 7649WAT     H231317   0.728   1.736   4.280  0.4338  0.0512  1.1198
 7649WAT    EPW31318   0.769   1.802   4.293  0.3056  0.3048  0.3040
 7650WAT      O31319   2.992   1.758   0.098  0.6877 -0.0014  0.0347
 7650WAT     H131320   3.054   1.727   0.152  0.4617  1.3892  1.1519
 7650WAT     H231321   3.035   1.818   0.051  1.1563 -1.9551 -2.2053
 7650WAT    EPW31322   3.008   1.762   0.099  0.7236 -0.0846 -0.1311
 7651WAT      O31323   2.148   3.701   2.221  0.0238  0.2983 -0.2371
 7651WAT     H131324   2.178   3.741   2.149 -0.4835  0.4134 -0.3910
 7651WAT     H231325   2.192   3.739   2.286 -1.6672  2.4116 -0.1996
 7651WAT    EPW31326   2.159   3.712   2.220 -0.3009  0.6275 -0.2543
 7652WAT      O31327   1.699   0.369   2.337 -0.2942 -0.0407  0.1546
 7652WAT     H131328   1.738   0.381   2.260  0.4375  1.2934  0.6839
 7652WAT     H231329   1.670   0.449   2.358  0.0876 -0.2278  1.5371
 7652WAT    EPW31330   1.701   0.383   2.329 -0.1297  0.1287  0.4370
 7653WAT      O31331   6.551   2.943   2.823  0.3531  0.1871  0.2064
 7653WAT     H131332   6.577   2.955   2.905  0.9373  1.5166 -0.1487
 7653WAT     H231333   6.573   2.860   2.806 -0.3842 -0.3211  1.5766
 7653WAT    EPW31334   6.558   2.933   2.832  0.3305  0.3084  0.3563
 7654WAT      O31335   0.875   0.789   0.618 -0.4336 -0.1103 -0.0521
 7654WAT     H131336   0.789   0.778   0.610 -0.4730  0.2119 -0.1048
 7654WAT     H231337   0.885   0.809   0.702 -0.2268 -1.6838  0.3346
 7654WAT    EPW31338   0.864   0.790   0.629 -0.4088 -0.2951 -0.0027
 7655WAT      O31339   1.865   5.719   0.867 -0.6381 -0.3601 -0.2273
 7655WAT     H131340   1.831   5.746   0.943  0.5763 -0.2808  0.3133
 7655WAT     H231341   1.864   5.632   0.874 -0.6529 -0.3556 -0.1728
 7655WAT    EPW31342   1.860   5.710   0.879 -0.4609 -0.3477 -0.1394
 7656WAT      O31343   4.787   6.341   1.535 -0.0810  0.5774  0.4611
 7656WAT     H131344   4.793   6.269   1.584  0.1501  0.3364  0.0844
 7656WAT     H231345   4.828   6.319   1.461  1.5972  1.6633  0.9948
 7656WAT    EPW31346   4.794   6.327   1.531  0.2010  0.7022  0.4843
 7657WAT      O31347   6.521   5.003   2.811 -0.3439 -0.2692 -0.0277
 7657WAT     H131348   6.471   5.020   2.741 -1.3089  0.3237  0.7740
 7657WAT     H231349   6.495   5.063   2.869  1.2623 -0.0119  0.4486
 7657WAT    EPW31350   6.510   5.014   2.809 -0.2492 -0.1436  0.1611
 7658WAT      O31351   2.858   6.064   6.347  0.0505 -0.3580  0.4267
 7658WAT     H131352   2.779   6.080   6.379 -0.8047 -0.6799 -1.3919
 7658WAT     H231353   2.842   6.020   6.273  1.7747  1.7713 -1.3625
 7658WAT    EPW31354   2.844   6.060   6.341  0.1789 -0.0910 -0.1062
 7659WAT      O31355   3.359   1.390   1.297  0.2734  0.2387 -0.3077
 7659WAT     H131356   3.328   1.438   1.231 -0.1973  0.2939 -0.0533
 7659WAT     H231357   3.423   1.439   1.329 -1.1108  1.3868  0.8547
 7659WAT    EPW31358   3.364   1.404   1.292 -0.0006  0.4165 -0.0984
 7660WAT      O31359   5.963   5.887   3.668 -0.1183  0.1181 -0.2256
 7660WAT     H131360   5.911   5.944   3.709 -0.6284 -0.6318  0.1727
 7660WAT     H231361   6.009   5.938   3.614 -0.3465  0.9524  0.3472
 7660WAT    EPW31362   5.962   5.903   3.666 -0.2274  0.1305 -0.0821
 7661WAT      O31363   4.367   0.387   0.249 -0.1489  0.0105 -0.3736
 7661WAT     H131364   4.291   0.382   0.292 -0.3721  1.0378 -0.6195
 7661WAT     H231365   4.342   0.401   0.166  0.3102  0.1387 -0.4892
 7661WAT    EPW31366   4.352   0.388   0.243 -0.1140  0.1812 -0.4270
 7662WAT      O31367   5.444   2.531   6.810  0.0626  0.1111  0.2628
 7662WAT     H131368   5.360   2.520   6.790 -0.3580  0.9965  1.3909
 7662WAT     H231369   5.467   2.601   6.763 -0.2187  0.6692  0.9371
 7662WAT    EPW31370   5.435   2.540   6.800 -0.0411  0.3244  0.5290
 7663WAT      O31371   1.371   5.141   5.703  0.1321  0.1520 -0.7632
 7663WAT     H131372   1.346   5.216   5.667 -0.7265  0.3930  0.2745
 7663WAT     H231373   1.311   5.083   5.676  0.2228  0.0544 -0.7588
 7663WAT    EPW31374   1.358   5.143   5.694  0.0187  0.1732 -0.6093
 7664WAT      O31375   5.649   4.217   0.612  0.7859 -0.5431  0.2488
 7664WAT     H131376   5.628   4.262   0.684 -0.6174 -0.4882 -0.1780
 7664WAT     H231377   5.735   4.229   0.606  0.4769  2.2338  0.0585
 7664WAT    EPW31378   5.659   4.225   0.622  0.5329 -0.1248  0.1576
 7665WAT      O31379   6.899   4.071   0.103  0.5154  0.3895  0.9126
 7665WAT     H131380   6.847   4.109   0.162  0.1909 -0.8078  1.4129
 7665WAT     H231381   6.872   3.988   0.102  1.7262 -0.0172  0.4160
 7665WAT    EPW31382   6.887   4.065   0.112  0.6464  0.1525  0.9132
 7666WAT      O31383   4.436   0.865   6.292 -0.0892 -0.2166  0.2286
 7666WAT     H131384   4.439   0.951   6.278 -1.0643 -0.2526 -0.3000
 7666WAT     H231385   4.368   0.838   6.245 -0.6948 -1.0622  1.5046
 7666WAT    EPW31386   4.426   0.873   6.283 -0.3227 -0.3468  0.3390
 7667WAT      O31387   6.531   1.252   0.892 -0.1123  0.1506  0.1631
 7667WAT     H131388   6.444   1.255   0.900 -0.1121  0.1595  0.1627
 7667WAT     H231389   6.554   1.190   0.949 -0.1408 -0.0194 -0.0087
 7667WAT    EPW31390   6.521   1.243   0.902 -0.1164  0.1268  0.1377
 7668WAT      O31391   3.450   1.582   5.936  0.5104  0.3477 -0.2997
 7668WAT     H131392   3.382   1.601   5.986  0.1293  0.2278 -0.7705
 7668WAT     H231393   3.499   1.654   5.941  0.6448  0.2128  0.5074
 7668WAT    EPW31394   3.448   1.596   5.944  0.4739  0.3101 -0.2500
 7669WAT      O31395   3.572   2.510   5.341  0.1532  0.6494  0.1140
 7669WAT     H131396   3.583   2.595   5.324  0.9385  0.1417 -2.4118
 7669WAT     H231397   3.490   2.494   5.315  0.8022  0.2136 -1.8591
 7669WAT    EPW31398   3.561   2.520   5.334  0.3651  0.5101 -0.5506
 7670WAT      O31399   2.496   4.796   5.453 -0.1864  0.3081 -0.0819
 7670WAT     H131400   2.442   4.797   5.385  0.9216  2.1110 -1.0068
 7670WAT     H231401   2.552   4.732   5.435 -0.3278  0.3078 -0.5097
 7670WAT    EPW31402   2.496   4.787   5.441 -0.0436  0.5744 -0.2817
 7671WAT      O31403   5.087   1.755   5.868  0.7281  0.1265  0.4222
 7671WAT     H131404   5.132   1.824   5.896  0.7501 -0.8891  3.2206
 7671WAT     H231405   5.148   1.695   5.852  0.6559  0.4549 -1.2764
 7671WAT    EPW31406   5.102   1.757   5.870  0.7207  0.0250  0.5846
 7672WAT      O31407   5.975   5.530   2.962  0.5413 -0.4347  0.5689
 7672WAT     H131408   5.902   5.496   2.994 -0.1531  1.5028  1.1629
 7672WAT     H231409   5.980   5.609   2.999  2.4820 -0.1661 -0.1098
 7672WAT    EPW31410   5.965   5.537   2.972  0.7254 -0.1089  0.5564
 7673WAT      O31411   5.402   5.229   1.815  0.8370 -0.2205 -0.3157
 7673WAT     H131412   5.319   5.228   1.787  1.3551  1.9662 -2.2270
 7673WAT     H231413   5.446   5.188   1.752  1.0462 -3.8983  1.9521
 7673WAT    EPW31414   5.396   5.223   1.801  0.9444 -0.4408 -0.2630
 7674WAT      O31415   3.303   4.563   1.764  0.5134  0.1292  0.2065
 7674WAT     H131416   3.264   4.640   1.774  0.0772  0.1871 -1.5899
 7674WAT     H231417   3.354   4.556   1.835 -0.7495  1.2495  1.2826
 7674WAT    EPW31418   3.305   4.573   1.776  0.2624  0.3032  0.1001
 7675WAT      O31419   2.408   6.476   2.131 -0.6261  0.1738 -0.4422
 7675WAT     H131420   2.343   6.420   2.141 -0.4754 -0.0757 -0.8352
 7675WAT     H231421   2.390   6.516   2.055 -0.8215  0.7776 -0.0866
 7675WAT    EPW31422   2.396   6.474   2.121 -0.6327  0.2262 -0.4478
 7676WAT      O31423   4.127   5.029   4.220 -0.0693  0.6941  0.4900
 7676WAT     H131424   4.043   5.043   4.204 -0.0537 -0.0985 -0.4150
 7676WAT     H231425   4.128   4.984   4.294 -0.4609  0.4451  0.3416
 7676WAT    EPW31426   4.115   5.025   4.228 -0.1249  0.5402  0.3344
 7677WAT      O31427   4.000   6.759   3.895 -0.2856 -0.1329  0.1032
 7677WAT     H131428   3.995   6.704   3.963 -4.1488  0.1352  0.2507
 7677WAT     H231429   4.054   6.822   3.923  2.1202 -2.3737  0.9383
 7677WAT    EPW31430   4.008   6.760   3.909 -0.5009 -0.4243  0.2483
 7678WAT      O31431   5.763   1.105   6.944 -0.3389  0.1947  0.3878
 7678WAT     H131432   5.803   1.061   7.009  1.7168  0.7418 -0.4376
 7678WAT     H231433   5.761   1.047   6.879  0.8188  0.7335 -0.1530
 7678WAT    EPW31434   5.769   1.090   6.944  0.1358  0.3551  0.1860
 7679WAT      O31435   4.615   6.845   2.358 -0.3605  0.0580 -0.2873
 7679WAT     H131436   4.701   6.863   2.353 -0.2792 -0.1176  0.3353
 7679WAT     H231437   4.592   6.877   2.436 -0.8741  0.1324 -0.4652
 7679WAT    EPW31438   4.625   6.853   2.369 -0.4244  0.0431 -0.2216
 7680WAT      O31439   3.247   5.710   7.048 -0.1484 -0.3262  0.3029
 7680WAT     H131440   3.182   5.655   7.067  0.5641 -0.8800  1.2748
 7680WAT     H231441   3.258   5.755   7.123  0.3180  0.0422  0.0211
 7680WAT    EPW31442   3.239   5.709   7.062  0.0257 -0.3536  0.4048
 7681WAT      O31443   1.473   4.366   2.591  0.1570 -0.5191 -0.0710
 7681WAT     H131444   1.434   4.427   2.641  0.7188  0.7376 -1.0934
 7681WAT     H231445   1.557   4.376   2.610  0.1599 -1.8435  0.6524
 7681WAT    EPW31446   1.480   4.377   2.601  0.2405 -0.5291 -0.1152
 7682WAT      O31447   1.244   1.286   2.596  0.1556 -0.4272  0.1550
 7682WAT     H131448   1.246   1.369   2.622 -0.4804 -0.4015  0.1360
 7682WAT     H231449   1.316   1.279   2.547  0.0469  0.2098 -0.1189
 7682WAT    EPW31450   1.255   1.297   2.593  0.0456 -0.3293  0.1118
 7683WAT      O31451   5.527   6.974   4.313 -0.4991  0.6804 -0.1827
 7683WAT     H131452   5.493   7.055   4.307  0.6142  1.1120 -1.0370
 7683WAT     H231453   5.582   6.971   4.246  1.0623 -0.0291  1.0858
 7683WAT    EPW31454   5.530   6.986   4.302 -0.1040  0.6393 -0.1215
 7684WAT      O31455   2.877   2.518   2.445  0.4568 -0.1151 -0.3933
 7684WAT     H131456   2.921   2.489   2.376  1.1974  0.2491 -0.0880
 7684WAT     H231457   2.932   2.574   2.482  0.7077 -1.4606  1.3772
 7684WAT    EPW31458   2.891   2.522   2.440  0.6032 -0.2600 -0.0867
 7685WAT      O31459   2.781   1.232   0.022  0.0980 -0.1708 -0.2062
 7685WAT     H131460   2.745   1.276   0.088  0.6473 -2.1438  1.4828
 7685WAT     H231461   2.867   1.245   0.032  0.1398  0.6176 -1.3773
 7685WAT    EPW31462   2.788   1.240   0.033  0.1853 -0.3458 -0.1297
 7686WAT      O31463   5.164   3.802   4.232  0.3277  0.3383  0.2349
 7686WAT     H131464   5.134   3.847   4.164 -2.0778 -1.8419 -0.2860
 7686WAT     H231465   5.203   3.733   4.194  0.7723  0.1381  1.0420
 7686WAT    EPW31466   5.166   3.799   4.216  0.0380 -0.0134  0.2772
 7687WAT      O31467   4.702   0.627   1.877  0.4796 -0.2280  0.0063
 7687WAT     H131468   4.719   0.713   1.879  1.9319 -0.4631  2.5138
 7687WAT     H231469   4.670   0.614   1.797 -0.0414  2.6807 -0.3713
 7687WAT    EPW31470   4.700   0.638   1.866  0.6172  0.1669  0.3209
 7688WAT      O31471   1.214   1.005   0.574 -0.4115 -0.1972 -0.2491
 7688WAT     H131472   1.186   1.087   0.560 -2.1585 -0.1776  2.4600
 7688WAT     H231473   1.261   1.013   0.647 -1.2034 -1.6755  0.4583
 7688WAT    EPW31474   1.217   1.019   0.583 -0.7865 -0.4127  0.2556
 7689WAT      O31475   1.276   1.301   0.051  0.2827 -0.3309 -0.5156
 7689WAT     H131476   1.218   1.271   0.109  1.7977 -1.3315  0.5572
 7689WAT     H231477   1.296   1.381   0.081  2.0138 -1.3192  1.1942
 7689WAT    EPW31478   1.271   1.309   0.064  0.7623 -0.6247 -0.1046
 7690WAT      O31479   5.480   3.830   5.482  0.3957  0.8158 -0.2737
 7690WAT     H131480   5.516   3.875   5.416  0.6899 -0.2931 -0.8976
 7690WAT     H231481   5.544   3.776   5.507 -0.0798  0.4618  0.1941
 7690WAT    EPW31482   5.495   3.829   5.476  0.3689  0.5997 -0.2968
 7691WAT      O31483   3.753   1.464   4.177  0.2986  0.2759  0.0676
 7691WAT     H131484   3.764   1.507   4.102 -0.0225  0.1996 -0.0272
 7691WAT     H231485   3.715   1.389   4.152  0.8686 -0.0747  0.2276
 7691WAT    EPW31486   3.749   1.459   4.162  0.3353  0.2128  0.0773
 7692WAT      O31487   2.611   1.008   3.649  0.3722 -0.4374 -0.8935
 7692WAT     H131488   2.553   0.994   3.713  0.2882  1.0423 -0.5971
 7692WAT     H231489   2.612   0.933   3.606 -1.2489 -0.7595 -0.4690
 7692WAT    EPW31490   2.602   0.995   3.652  0.1203 -0.2664 -0.7870
 7693WAT      O31491   6.424   2.346   3.794 -0.6098  0.6612 -0.4786
 7693WAT     H131492   6.460   2.268   3.779 -1.1000  0.0210  1.3996
 7693WAT     H231493   6.355   2.328   3.844 -0.5822  2.3192  0.2377
 7693WAT    EPW31494   6.419   2.332   3.799 -0.6781  0.8116 -0.0954
 7694WAT      O31495   7.028   2.118   5.534  0.1564  0.7509  0.1390
 7694WAT     H131496   7.050   2.055   5.476 -0.5726 -0.8791  1.5421
 7694WAT     H231497   7.019   2.189   5.484  2.0953  0.0315 -1.3829
 7694WAT    EPW31498   7.030   2.119   5.518  0.3351  0.4039  0.1215
 7695WAT      O31499   4.896   2.512   3.238 -0.2138 -0.0159  0.1289
 7695WAT     H131500   4.836   2.536   3.178  0.5684  0.5986 -0.4294
 7695WAT     H231501   4.849   2.506   3.311 -0.7837  1.6206 -0.0423
 7695WAT    EPW31502   4.880   2.515   3.240 -0.1825  0.3166  0.0212
 7696WAT      O31503   1.937   6.466   1.780  0.3701 -0.6296  0.1667
 7696WAT     H131504   1.964   6.547   1.767 -0.1283 -0.2625  1.2673
 7696WAT     H231505   1.853   6.476   1.805  0.2339 -1.4860  0.0926
 7696WAT    EPW31506   1.928   6.479   1.782  0.2764 -0.7019  0.3183
 7697WAT      O31507   5.710   1.395   0.813  0.1882  0.1214 -0.1573
 7697WAT     H131508   5.743   1.469   0.781  0.7612  0.3460  0.9094
 7697WAT     H231509   5.763   1.333   0.783  2.8643  0.6171  2.9846
 7697WAT    EPW31510   5.722   1.397   0.804  0.6682  0.2278  0.4644
 7698WAT      O31511   3.054   2.918   5.110 -0.2136 -0.3337  0.3395
 7698WAT     H131512   3.069   3.002   5.092 -0.3768 -0.2317  0.6771
 7698WAT     H231513   3.134   2.885   5.120 -0.1620 -0.1113  0.6840
 7698WAT    EPW31514   3.068   2.926   5.109 -0.2301 -0.2858  0.4403
 7699WAT      O31515   2.545   5.347   6.212  0.2427  0.0988 -0.2753
 7699WAT     H131516   2.610   5.404   6.227  1.3784 -1.0536 -0.6492
 7699WAT     H231517   2.511   5.333   6.291  1.1198 -0.0410  0.0902
 7699WAT    EPW31518   2.549   5.353   6.226  0.5400 -0.0921 -0.2765
 7700WAT      O31519   5.472   2.609   4.924  0.2911 -0.2339  0.1736
 7700WAT     H131520   5.431   2.685   4.936 -0.1316 -0.7728  2.4951
 7700WAT     H231521   5.540   2.614   4.978  2.1169 -0.2763 -1.9929
 7700WAT    EPW31522   5.476   2.621   4.934  0.4984 -0.3198  0.1965
 7701WAT      O31523   0.913   0.732   2.228 -0.2487  0.5617 -0.4664
 7701WAT     H131524   0.982   0.682   2.246 -0.0641  0.9626 -0.0386
 7701WAT     H231525   0.847   0.691   2.267 -0.3379 -0.0477 -1.2279
 7701WAT    EPW31526   0.913   0.719   2.236 -0.2346  0.5309 -0.5157
 7702WAT      O31527   5.257   6.483   1.630 -0.1036 -0.1183  0.0276
 7702WAT     H131528   5.210   6.437   1.688  1.6669 -0.1182  1.5796
 7702WAT     H231529   5.326   6.432   1.616  0.2941  0.6325 -0.8081
 7702WAT    EPW31530   5.260   6.468   1.637  0.2167 -0.0074  0.1334
 7703WAT      O31531   3.127   1.873   6.987  0.1991 -0.2730 -0.6160
 7703WAT     H131532   3.108   1.958   6.980 -1.3924 -0.4591  0.7876
 7703WAT     H231533   3.124   1.844   6.905 -2.2147  0.5030 -0.8931
 7703WAT    EPW31534   3.123   1.881   6.974 -0.3926 -0.1858 -0.4496
 7704WAT      O31535   5.301   6.677   2.180  0.4537  0.5491  0.4821
 7704WAT     H131536   5.258   6.750   2.159 -0.5529 -0.5032 -1.4578
 7704WAT     H231537   5.312   6.684   2.267 -2.2445  1.6601  0.8520
 7704WAT    EPW31538   5.296   6.689   2.190 -0.0936  0.5577  0.2502
 7705WAT      O31539   2.824   2.445   6.969 -0.4548  0.2339  0.8436
 7705WAT     H131540   2.855   2.392   6.907  1.9846 -0.0435  2.1756
 7705WAT     H231541   2.791   2.390   7.028  0.0539  0.3125  1.2059
 7705WAT    EPW31542   2.823   2.429   6.969 -0.0193  0.2046  1.0939
 7706WAT      O31543   1.573   2.956   1.318 -0.0940  0.2685  0.4447
 7706WAT     H131544   1.649   2.923   1.290  0.1941  2.0536 -1.0858
 7706WAT     H231545   1.517   2.889   1.309  0.8371 -0.3975 -0.6758
 7706WAT    EPW31546   1.576   2.941   1.312  0.0861  0.4338  0.0531
 7707WAT      O31547   4.643   6.419   5.788  0.9275  0.2290 -0.5518
 7707WAT     H131548   4.691   6.347   5.784 -1.2601 -1.4215  0.6719
 7707WAT     H231549   4.701   6.482   5.805  2.6638 -1.5568  0.4495
 7707WAT    EPW31550   4.659   6.418   5.790  0.8608 -0.2786 -0.2232
 7708WAT      O31551   5.837   0.618   5.032 -0.4103 -0.4888 -0.1352
 7708WAT     H131552   5.883   0.558   5.075 -0.7656  1.1086  2.7181
 7708WAT     H231553   5.766   0.629   5.081  0.5943  3.6811  0.7197
 7708WAT    EPW31554   5.833   0.611   5.045 -0.3144  0.3631  0.4126
 7709WAT      O31555   3.629   3.102   4.535 -0.5704 -0.1068 -0.4265
 7709WAT     H131556   3.586   3.075   4.464 -2.3255 -2.9772  1.5054
 7709WAT     H231557   3.692   3.043   4.545 -0.1013  0.4799  0.1959
 7709WAT    EPW31558   3.632   3.089   4.526 -0.7604 -0.4441 -0.0492
 7710WAT      O31559   6.186   4.293   4.988  0.2594  0.2005  0.5003
 7710WAT     H131560   6.254   4.260   4.943  1.0230  2.8435 -0.4428
 7710WAT     H231561   6.122   4.236   4.972  1.8145 -1.5953  0.1838
 7710WAT    EPW31562   6.187   4.279   4.979  0.6019  0.3256  0.3142
 7711WAT      O31563   5.288   0.296   2.446  0.1276 -0.4408 -0.3337
 7711WAT     H131564   5.244   0.339   2.508  0.8108 -1.5759  1.0120
 7711WAT     H231565   5.273   0.212   2.465 -0.1175 -0.8359 -2.0988
 7711WAT    EPW31566   5.279   0.290   2.458  0.1923 -0.6669 -0.3956
 7712WAT      O31567   3.326   5.140   6.102 -0.0142 -0.5727  0.3644
 7712WAT     H131568   3.326   5.136   6.189 -0.7833 -1.6433  0.3290
 7712WAT     H231569   3.242   5.142   6.081  0.0911  2.6212 -0.2942
 7712WAT    EPW31570   3.314   5.140   6.112 -0.1123 -0.2590  0.2619
 7713WAT      O31571   0.937   1.780   3.227 -0.1241  0.1926 -0.0941
 7713WAT     H131572   0.968   1.859   3.249  0.4454  0.0448 -0.3447
 7713WAT     H231573   0.869   1.769   3.281 -1.3933  1.6642 -1.3041
 7713WAT    EPW31574   0.932   1.790   3.238 -0.2275  0.3882 -0.3099
 7714WAT      O31575   0.844   5.026   2.329  0.5752  0.0849 -0.2127
 7714WAT     H131576   0.831   4.978   2.401  1.2309 -0.4438 -0.4379
 7714WAT     H231577   0.826   5.108   2.355 -0.5959 -0.2773  0.1644
 7714WAT    EPW31578   0.840   5.031   2.344  0.4991 -0.0467 -0.1903
 7715WAT      O31579   1.531   1.837   3.185  0.6581  0.2761 -0.2019
 7715WAT     H131580   1.592   1.867   3.241  0.9800  2.1999 -1.4901
 7715WAT     H231581   1.541   1.751   3.189 -0.3769  0.1348  3.8133
 7715WAT    EPW31582   1.542   1.829   3.194  0.5527  0.5394  0.2010
 7716WAT      O31583   5.188   5.575   2.366  0.1864  0.0838 -0.0564
 7716WAT     H131584   5.224   5.649   2.337  1.0567 -0.6166 -0.8528
 7716WAT     H231585   5.145   5.545   2.296  0.4426 -0.5133  0.0347
 7716WAT    EPW31586   5.187   5.582   2.351  0.3528 -0.1079 -0.1606
 7717WAT      O31587   5.225   3.894   1.543  0.0163 -0.2304  0.6255
 7717WAT     H131588   5.246   3.965   1.496 -0.0039  0.3859  1.5169
 7717WAT     H231589   5.203   3.835   1.482  1.4489  0.0478 -0.2199
 7717WAT    EPW31590   5.225   3.896   1.527  0.2250 -0.0983  0.6323
 7718WAT      O31591   2.617   1.845   2.640  0.0777  0.3066  0.2801
 7718WAT     H131592   2.691   1.867   2.682  0.5980 -0.7173 -0.0662
 7718WAT     H231593   2.595   1.918   2.598  0.9866  0.5928  0.2638
 7718WAT    EPW31594   2.625   1.859   2.640  0.2888  0.1976  0.2265
 7719WAT      O31595   6.930   4.784   5.071  0.1761  0.0123  0.1130
 7719WAT     H131596   6.936   4.710   5.116 -0.3358  0.0557  0.2568
 7719WAT     H231597   7.005   4.825   5.088  0.3098 -0.3129  0.3112
 7719WAT    EPW31598   6.942   4.779   5.080  0.1202 -0.0294  0.1635
 7720WAT      O31599   0.991   2.634   4.298 -0.2740  0.4180 -0.0630
 7720WAT     H131600   1.076   2.640   4.314  0.1527  0.0213 -1.9013
 7720WAT     H231601   0.959   2.593   4.368  1.3945 -1.2882 -0.2244
 7720WAT    EPW31602   0.999   2.628   4.311  0.0355  0.1073 -0.3584
 7721WAT      O31603   5.477   5.614   0.159  0.4532  0.4989 -0.1857
 7721WAT     H131604   5.444   5.689   0.189  1.9983  1.5609 -1.0106
 7721WAT     H231605   5.561   5.617   0.185  0.6050 -0.8517 -0.4340
 7721WAT    EPW31606   5.485   5.625   0.167  0.7039  0.4563 -0.3442
 7722WAT      O31607   1.813   0.680   1.229  0.0338  0.1113 -1.1435
 7722WAT     H131608   1.797   0.630   1.159 -1.5134 -2.3388  0.8191
 7722WAT     H231609   1.740   0.726   1.239 -0.8194 -1.4210  0.2195
 7722WAT    EPW31610   1.800   0.679   1.220 -0.3208 -0.4770 -0.6522
 7723WAT      O31611   2.756   5.129   0.144 -0.2932 -0.0134  0.2004
 7723WAT     H131612   2.782   5.183   0.208  0.3541  0.4128 -0.4005
 7723WAT     H231613   2.701   5.178   0.098 -1.5061 -0.6290  0.9563
 7723WAT    EPW31614   2.752   5.144   0.147 -0.3767 -0.0414  0.2233
 7724WAT      O31615   3.886   2.222   2.680 -0.0100  0.2784 -0.2957
 7724WAT     H131616   3.859   2.268   2.749  2.7802  0.6847  0.6525
 7724WAT     H231617   3.897   2.141   2.712  0.0898  0.1729 -0.5870
 7724WAT    EPW31618   3.884   2.217   2.695  0.4169  0.3228 -0.1987
 7725WAT      O31619   3.831   4.485   7.384 -0.2109  0.4952  0.1683
 7725WAT     H131620   3.755   4.470   7.345 -0.5055 -0.7905  1.1933
 7725WAT     H231621   3.813   4.481   7.469  0.6888  1.8782  0.4639
 7725WAT    EPW31622   3.817   4.482   7.391 -0.1215  0.5096  0.3634
 7726WAT      O31623   3.945   0.022   4.985 -0.5001 -0.0413  0.4972
 7726WAT     H131624   3.920  -0.018   5.059 -1.2343 -1.9235 -0.6786
 7726WAT     H231625   4.026  -0.006   4.973 -0.4163  0.1833  0.5389
 7726WAT    EPW31626   3.953   0.012   4.994 -0.5962 -0.2862  0.3297
 7727WAT      O31627   2.617   0.105   4.100  0.3066 -0.3187  0.2460
 7727WAT     H131628   2.678   0.075   4.045  1.1370 -0.2621  1.1065
 7727WAT     H231629   2.655   0.099   4.178 -0.4605  0.5832  0.7116
 7727WAT    EPW31630   2.632   0.100   4.103  0.3159 -0.1771  0.4419
 7728WAT      O31631   3.001   1.426   3.669  0.2697 -0.1334  0.1601
 7728WAT     H131632   2.985   1.460   3.590 -1.4720  0.5573  0.7580
 7728WAT     H231633   3.007   1.496   3.720  1.5401 -0.5730  0.6345
 7728WAT    EPW31634   2.999   1.441   3.665  0.2001 -0.0963  0.3185
 7729WAT      O31635   6.081   1.585   2.136 -0.2723 -0.6284  0.1122
 7729WAT     H131636   6.024   1.544   2.189  0.0858 -1.6058 -0.2373
 7729WAT     H231637   6.143   1.525   2.123  0.6045  0.2644  0.1107
 7729WAT    EPW31638   6.081   1.570   2.142 -0.0899 -0.6409  0.0604
 7730WAT      O31639   5.604   3.755   1.242  0.1553  0.2718  0.2170
 7730WAT     H131640   5.682   3.719   1.232 -0.4470 -0.3964 -3.5019
 7730WAT     H231641   5.552   3.688   1.262  0.0718  0.1860 -0.2792
 7730WAT    EPW31642   5.608   3.740   1.243  0.0540  0.1604 -0.4057
 7731WAT      O31643   4.569   4.080   3.790  0.2505  0.1073  0.2806
 7731WAT     H131644   4.555   3.995   3.798  1.9023 -0.1232  1.1062
 7731WAT     H231645   4.491   4.116   3.803 -0.6011 -1.2977 -0.7847
 7731WAT    EPW31646   4.556   4.073   3.793  0.3687 -0.1343  0.2452
 7732WAT      O31647   0.476   5.907   0.456  0.7528  0.2001 -0.7717
 7732WAT     H131648   0.389   5.908   0.454  0.6949  2.1092  0.2168
 7732WAT     H231649   0.499   5.973   0.404  1.5680  0.2111 -0.4217
 7732WAT    EPW31650   0.466   5.917   0.448  0.8647  0.4837 -0.5740
 7733WAT      O31651   1.532   4.520   3.183  0.5351 -0.0614 -0.8108
 7733WAT     H131652   1.565   4.542   3.105  0.7344  0.0796 -0.6889
 7733WAT     H231653   1.592   4.550   3.239  0.8013 -0.9033 -0.6404
 7733WAT    EPW31654   1.546   4.528   3.180  0.6039 -0.1650 -0.7676
 7734WAT      O31655   0.254   0.342   4.013  0.1550  0.1972  0.7345
 7734WAT     H131656   0.219   0.285   3.957  1.4218 -0.4084  0.5101
 7734WAT     H231657   0.255   0.417   3.970 -0.1230  0.0370  0.4523
 7734WAT    EPW31658   0.249   0.344   3.999  0.3010  0.0841  0.6597
 7735WAT      O31659   0.218   5.948   6.390  0.8009  0.2530 -0.6667
 7735WAT     H131660   0.253   6.024   6.416  0.6960  0.1261 -0.1391
 7735WAT     H231661   0.279   5.890   6.412  0.0152 -0.0491  0.8605
 7735WAT    EPW31662   0.232   5.951   6.397  0.6694  0.1896 -0.3631
 7736WAT      O31663   6.385   2.002   7.098  0.3041  0.4641  0.0637
 7736WAT     H131664   6.359   2.019   7.179  0.4801  0.3635  0.1409
 7736WAT     H231665   6.356   1.921   7.083  0.0187  0.5898 -0.0783
 7736WAT    EPW31666   6.377   1.993   7.108  0.2880  0.4678  0.0541
 7737WAT      O31667   0.649   2.447   4.888 -0.3483  0.4274  0.9419
 7737WAT     H131668   0.571   2.408   4.888 -1.7945  3.1081 -0.0128
 7737WAT     H231669   0.642   2.508   4.949  0.7309  1.2152  0.3204
 7737WAT    EPW31670   0.636   2.450   4.897 -0.4025  0.9398  0.7091
 7738WAT      O31671   5.042   6.134   1.114  0.4079 -0.8930  0.1816
 7738WAT     H131672   5.021   6.171   1.038  0.7907 -0.7578  0.1391
 7738WAT     H231673   5.095   6.068   1.091 -1.5371 -2.5310  0.1081
 7738WAT    EPW31674   5.047   6.130   1.099  0.1772 -1.1150  0.1645
 7739WAT      O31675   2.530   4.043   5.550  0.3475  0.0179 -0.3178
 7739WAT     H131676   2.594   4.102   5.552 -1.3423  1.9213  0.8280
 7739WAT     H231677   2.523   4.017   5.633  1.4721 -2.3903 -0.8776
 7739WAT    EPW31678   2.538   4.048   5.562  0.2640 -0.0566 -0.2312
 7740WAT      O31679   2.923   0.554   5.341 -0.7707 -0.5261 -0.1770
 7740WAT     H131680   2.838   0.571   5.353 -0.5172  1.0810 -0.4132
 7740WAT     H231681   2.939   0.585   5.261 -0.1675 -1.7369 -0.5486
 7740WAT    EPW31682   2.913   0.561   5.331 -0.6441 -0.4676 -0.2668
 7741WAT      O31683   5.292   5.171   3.482 -0.1743 -0.6369  0.0637
 7741WAT     H131684   5.233   5.129   3.434  0.0570 -0.8840 -0.0065
 7741WAT     H231685   5.318   5.110   3.539 -0.2482 -0.4248  0.3257
 7741WAT    EPW31686   5.287   5.156   3.483 -0.1511 -0.6421  0.0920
 7742WAT      O31687   5.531   1.319   2.499 -0.6702  0.4685 -0.7230
 7742WAT     H131688   5.543   1.308   2.413 -0.3795 -0.3528 -0.5899
 7742WAT     H231689   5.444   1.330   2.506 -0.8845 -0.8848 -0.9945
 7742WAT    EPW31690   5.520   1.319   2.487 -0.6589  0.1473 -0.7435
 7743WAT      O31691   5.997   1.877   4.594 -0.1938 -0.1553 -0.3375
 7743WAT     H131692   6.079   1.877   4.563 -0.4357 -0.0569 -0.9862
 7743WAT     H231693   5.955   1.822   4.541 -0.5700 -0.1491 -0.0487
 7743WAT    EPW31694   6.003   1.869   4.581 -0.2851 -0.1398 -0.3907
 7744WAT      O31695   4.216   5.708   0.627  0.1280  0.5807 -0.2542
 7744WAT     H131696   4.132   5.693   0.612  0.0414 -0.6035  1.1793
 7744WAT     H231697   4.255   5.685   0.552 -0.7055 -0.1656 -0.4728
 7744WAT    EPW31698   4.210   5.703   0.613 -0.0079  0.2956 -0.0747
 7745WAT      O31699   0.478   1.204   3.966  0.2469 -0.0140 -0.1266
 7745WAT     H131700   0.473   1.120   3.988 -1.8600  0.0120 -0.3124
 7745WAT     H231701   0.544   1.234   4.015  0.7844 -1.6578  0.2330
 7745WAT    EPW31702   0.487   1.196   3.976  0.0150 -0.2530 -0.1010
 7746WAT      O31703   0.001   5.907   4.589 -0.4622  0.3819 -0.1634
 7746WAT     H131704  -0.044   5.957   4.534 -0.2428  1.0511  0.2560
 7746WAT     H231705   0.073   5.885   4.544 -0.1710  1.1223 -0.0671
 7746WAT    EPW31706   0.005   5.911   4.575 -0.3868  0.5901 -0.0872
 7747WAT      O31707   2.726   1.055   6.234 -0.3028 -0.7657 -0.0517
 7747WAT     H131708   2.643   1.035   6.254 -0.2822 -0.6159  0.1841
 7747WAT     H231709   2.763   1.069   6.312 -0.2020 -0.2516 -0.1858
 7747WAT    EPW31710   2.719   1.054   6.248 -0.2849 -0.6676 -0.0367
 7748WAT      O31711   4.873   7.096   5.228  0.1727  0.0896  0.0352
 7748WAT     H131712   4.867   7.131   5.149  1.8457 -1.3946 -0.8157
 7748WAT     H231713   4.801   7.048   5.235 -0.2281  0.6237 -0.3458
 7748WAT    EPW31714   4.861   7.094   5.218  0.3606 -0.0508 -0.1468
 7749WAT      O31715   1.184   2.159   2.057  0.2248  0.4167  0.2994
 7749WAT     H131716   1.130   2.177   1.991 -0.2609 -0.0552  0.5562
 7749WAT     H231717   1.258   2.135   2.018  0.3948  1.5049 -0.0509
 7749WAT    EPW31718   1.187   2.158   2.042  0.1782  0.5077  0.2856
 7750WAT      O31719   4.915   6.606   0.900 -0.2488  0.3946  0.3583
 7750WAT     H131720   4.884   6.580   0.977 -0.9240 -1.0502 -0.3577
 7750WAT     H231721   4.865   6.563   0.842  1.3806  0.0348 -0.8666
 7750WAT    EPW31722   4.903   6.596   0.903 -0.1079  0.1280  0.0716
 7751WAT      O31723   5.246   0.975   2.035 -0.9229 -0.3338  0.4875
 7751WAT     H131724   5.205   0.962   2.110 -0.9011 -1.0855  0.3771
 7751WAT     H231725   5.224   0.905   1.987 -2.2197  0.8857 -0.7969
 7751WAT    EPW31726   5.237   0.963   2.039 -1.1112 -0.2647  0.2815
 7752WAT      O31727   2.921   6.404   1.810  0.3095 -0.1294 -0.1831
 7752WAT     H131728   2.963   6.329   1.826 -1.2323 -1.0178 -0.0355
 7752WAT     H231729   2.958   6.432   1.736  1.6665 -0.4416  0.3468
 7752WAT    EPW31730   2.933   6.397   1.801  0.2822 -0.3067 -0.0831
 7753WAT      O31731   6.877   5.577   2.456 -0.2216 -0.0733 -0.2436
 7753WAT     H131732   6.876   5.643   2.513  0.8071 -0.9571  0.8638
 7753WAT     H231733   6.846   5.509   2.502 -1.4092 -0.3435 -1.4051
 7753WAT    EPW31734   6.872   5.577   2.471 -0.2451 -0.2438 -0.2516
 7754WAT      O31735   7.153   7.254   5.835 -0.0910 -0.4586 -0.3473
 7754WAT     H131736   7.132   7.279   5.754  1.6184 -0.1727 -0.7426
 7754WAT     H231737   7.232   7.219   5.825 -0.3133 -1.4313  1.0422
 7754WAT    EPW31738   7.161   7.253   5.821  0.1286 -0.5600 -0.2004
 7755WAT      O31739   4.647   2.549   4.324 -0.2085  0.3490  0.4316
 7755WAT     H131740   4.568   2.512   4.329 -0.2729  0.5229  0.7195
 7755WAT     H231741   4.632   2.624   4.281 -0.4459  1.0523  1.7096
 7755WAT    EPW31742   4.633   2.555   4.318 -0.2531  0.4786  0.6629
 7756WAT      O31743   1.128   6.303   4.930  0.0144 -0.3128  0.1340
 7756WAT     H131744   1.049   6.338   4.938 -0.0223  0.6336 -2.9581
 7756WAT     H231745   1.181   6.373   4.933  0.4002 -0.5343 -0.9650
 7756WAT    EPW31746   1.124   6.319   4.932  0.0659 -0.2057 -0.4851
 7757WAT      O31747   6.324   6.102   3.168  0.7368 -0.0352  0.5371
 7757WAT     H131748   6.325   6.132   3.086  0.0238  1.6505  1.0986
 7757WAT     H231749   6.405   6.072   3.179  1.1033  0.5115 -0.4978
 7757WAT    EPW31750   6.336   6.102   3.157  0.6856  0.2946  0.4672
 7758WAT      O31751   6.612   4.876   4.165 -0.2253 -0.0379 -0.5771
 7758WAT     H131752   6.547   4.932   4.181 -0.2558 -0.4996  1.0695
 7758WAT     H231753   6.647   4.906   4.091 -1.5445  0.9233 -0.8497
 7758WAT    EPW31754   6.607   4.889   4.156 -0.4247  0.0359 -0.3741
 7759WAT      O31755   3.940   6.727   0.858  0.4311  0.2963 -0.4224
 7759WAT     H131756   3.863   6.770   0.859  0.3721  0.2703 -1.7397
 7759WAT     H231757   3.916   6.643   0.857  0.5260  0.2360  0.7800
 7759WAT    EPW31758   3.925   6.721   0.858  0.4364  0.2836 -0.4394
 7760WAT      O31759   6.388   3.117   5.245  0.0500 -0.0443 -0.4678
 7760WAT     H131760   6.388   3.035   5.214 -0.2046 -0.6721  1.0569
 7760WAT     H231761   6.463   3.150   5.217  0.4472 -1.0216 -0.5937
 7760WAT    EPW31762   6.399   3.109   5.236  0.0711 -0.2814 -0.2612
 7761WAT      O31763   2.570   3.122   1.599  0.3939  0.2262  0.3111
 7761WAT     H131764   2.552   3.127   1.684 -0.2458  1.2553  0.1372
 7761WAT     H231765   2.493   3.135   1.560  0.4465 -1.5292 -0.4387
 7761WAT    EPW31766   2.556   3.125   1.605  0.3071  0.1189  0.1746
 7762WAT      O31767   3.189   1.209   5.337  0.0201  0.1787  0.0523
 7762WAT     H131768   3.199   1.294   5.323 -0.9682  0.2222 -0.4852
 7762WAT     H231769   3.163   1.204   5.420  2.6783  0.1685  0.9845
 7762WAT    EPW31770   3.186   1.221   5.347  0.2668  0.1836  0.1106
 7763WAT      O31771   1.316   1.084   1.610  0.6643  0.0232  0.2637
 7763WAT     H131772   1.323   1.166   1.579 -0.9335  0.5651  1.2172
 7763WAT     H231773   1.399   1.057   1.613  1.0902  0.6743 -2.4052
 7763WAT    EPW31774   1.330   1.092   1.606  0.4912  0.1994  0.0103
 7764WAT      O31775   2.827   5.252   6.065  0.1319  1.1935  0.8694
 7764WAT     H131776   2.831   5.327   6.111 -0.3067  2.0780 -0.4938
 7764WAT     H231777   2.747   5.222   6.080  0.1414  1.2467  1.0283
 7764WAT    EPW31778   2.816   5.259   6.074  0.0685  1.3320  0.6915
 7765WAT      O31779   2.408   6.492   7.070 -0.6052  0.3158 -0.4018
 7765WAT     H131780   2.337   6.542   7.073  0.1521  1.3945 -0.0560
 7765WAT     H231781   2.462   6.537   7.017  0.6521  0.6400  1.1018
 7765WAT    EPW31782   2.406   6.506   7.062 -0.3076  0.5231 -0.1286
 7766WAT      O31783   6.441   4.229   4.815 -0.0170  0.6408  0.2188
 7766WAT     H131784   6.499   4.286   4.783 -0.1388  0.3487 -0.5545
 7766WAT     H231785   6.409   4.192   4.743  1.3693 -1.7245  0.7284
 7766WAT    EPW31786   6.445   4.232   4.800  0.1698  0.2483  0.1799
 7767WAT      O31787   2.998   3.006   1.366  0.5811  0.2174  0.3877
 7767WAT     H131788   2.939   3.068   1.386 -0.0554  0.5067 -2.0681
 7767WAT     H231789   2.950   2.942   1.331  1.6527  0.6075 -2.0092
 7767WAT    EPW31790   2.982   3.006   1.364  0.6454  0.3178 -0.3291
 7768WAT      O31791   6.123   5.737   2.552  0.3516  0.4148 -0.3405
 7768WAT     H131792   6.085   5.683   2.494  0.2567 -0.9236  0.9144
 7768WAT     H231793   6.145   5.806   2.503 -0.0984 -0.4697 -1.8932
 7768WAT    EPW31794   6.120   5.739   2.536  0.2711  0.0864 -0.3845
 7769WAT      O31795   4.483   1.041   5.935 -0.2340 -0.3939 -0.3548
 7769WAT     H131796   4.538   1.086   5.884 -0.2028 -2.5645 -2.4016
 7769WAT     H231797   4.406   1.079   5.919  0.3277  1.5867  1.2584
 7769WAT    EPW31798   4.480   1.053   5.925 -0.1464 -0.4220 -0.4189
 7770WAT      O31799   4.709   6.768   1.963 -0.3168  0.1763  0.3160
 7770WAT     H131800   4.656   6.796   1.900  0.5281  1.0459 -0.0238
 7770WAT     H231801   4.707   6.832   2.022 -1.0877 -0.6228  1.1994
 7770WAT    EPW31802   4.701   6.781   1.963 -0.3059  0.1867  0.3963
 7771WAT      O31803   4.851   4.304   5.991 -0.1323 -0.6847 -0.6441
 7771WAT     H131804   4.936   4.286   5.979 -0.3790 -1.5623 -1.1717
 7771WAT     H231805   4.852   4.364   6.054  0.8305 -1.6139  0.2848
 7771WAT    EPW31806   4.864   4.310   5.998 -0.0265 -0.9516 -0.5848
 7772WAT      O31807   3.487   1.038   6.920 -0.4820 -1.1130 -0.3913
 7772WAT     H131808   3.573   1.030   6.909 -0.4625 -0.5043 -0.7063
 7772WAT     H231809   3.455   0.965   6.884 -0.0940 -1.4531 -0.0711
 7772WAT    EPW31810   3.495   1.026   6.913 -0.4218 -1.0733 -0.3905
 7773WAT      O31811   2.493   0.654   2.046  0.0339  0.2568  0.0386
 7773WAT     H131812   2.449   0.583   2.019 -0.1341  0.6249 -0.6872
 7773WAT     H231813   2.500   0.642   2.132 -0.4211 -0.4039 -0.0052
 7773WAT    EPW31814   2.487   0.642   2.054 -0.0581  0.2136 -0.0750
 7774WAT      O31815   6.699   1.686   3.703 -0.1437 -0.0381  1.0124
 7774WAT     H131816   6.639   1.730   3.657  0.6458 -0.1750 -0.1929
 7774WAT     H231817   6.718   1.740   3.769  0.7465  1.4581 -0.3863
 7774WAT    EPW31818   6.693   1.701   3.706  0.1045  0.1627  0.6277
 7775WAT      O31819   0.988   7.198   2.073 -0.0106 -0.1486 -0.2995
 7775WAT     H131820   0.926   7.144   2.045  0.1217  0.2608 -1.4621
 7775WAT     H231821   0.965   7.215   2.155 -0.1524 -1.8021  0.0322
 7775WAT    EPW31822   0.975   7.193   2.081 -0.0120 -0.3324 -0.4222
 7776WAT      O31823   6.062   1.465   4.504  0.1300 -0.3096 -0.0737
 7776WAT     H131824   6.041   1.439   4.584  0.2676  0.6243  0.2776
 7776WAT     H231825   6.133   1.418   4.485 -0.2745 -1.0027  0.0823
 7776WAT    EPW31826   6.069   1.454   4.513  0.0906 -0.2740  0.0012
 7777WAT      O31827   4.666   0.622   1.057  0.6845  0.6313 -0.5117
 7777WAT     H131828   4.642   0.544   1.026 -2.0631  1.7781 -1.6173
 7777WAT     H231829   4.748   0.631   1.028 -0.1042 -0.4203 -3.4396
 7777WAT    EPW31830   4.675   0.612   1.048  0.1621  0.6454 -1.1075
 7778WAT      O31831   5.425   5.231   0.854 -0.3405 -0.6228 -0.1313
 7778WAT     H131832   5.359   5.283   0.879 -0.9230 -1.7282  0.6818
 7778WAT     H231833   5.477   5.286   0.810 -1.4139  0.4429 -0.1491
 7778WAT    EPW31834   5.423   5.247   0.852 -0.5851 -0.6286 -0.0138
 7779WAT      O31835   6.818   5.216   3.679 -0.2631 -0.6612  0.2508
 7779WAT     H131836   6.873   5.204   3.612 -0.3152  0.8547 -0.0946
 7779WAT     H231837   6.823   5.302   3.695 -2.8249 -0.3790 -0.0892
 7779WAT    EPW31838   6.827   5.227   3.671 -0.6492 -0.3956  0.1495
 7780WAT      O31839   3.549   2.646   5.667 -0.0248 -0.2475 -0.7716
 7780WAT     H131840   3.541   2.695   5.738 -1.7776 -0.7572 -0.5766
 7780WAT     H231841   3.598   2.695   5.614 -2.4518  2.2016 -0.9780
 7780WAT    EPW31842   3.555   2.660   5.670 -0.6422  0.0390 -0.7733
 7781WAT      O31843   6.652   0.938   7.067 -0.0816 -0.1254  0.1544
 7781WAT     H131844   6.677   1.013   7.105  0.4106  1.1823 -2.5317
 7781WAT     H231845   6.577   0.919   7.109  0.5154  1.0270  1.8925
 7781WAT    EPW31846   6.645   0.946   7.079  0.0793  0.2380  0.0144
 7782WAT      O31847   1.443   5.179   4.437  0.0036 -0.5291 -0.5184
 7782WAT     H131848   1.369   5.207   4.401 -1.0415 -1.4763  0.7938
 7782WAT     H231849   1.484   5.253   4.460 -2.4682  0.1439  2.4394
 7782WAT    EPW31850   1.438   5.194   4.435 -0.5159 -0.5696  0.1124
 7783WAT      O31851   4.755   1.438   4.854  0.2156 -0.3612  0.0125
 7783WAT     H131852   4.692   1.430   4.914  0.9132  0.6287  0.9138
 7783WAT     H231853   4.712   1.433   4.778 -0.6676 -1.7805  0.5713
 7783WAT    EPW31854   4.739   1.436   4.851  0.1882 -0.4246  0.2282
 7784WAT      O31855   5.345   4.736   0.704  0.0070  0.4853  0.4141
 7784WAT     H131856   5.279   4.695   0.664  0.8064 -1.1637  0.6802
 7784WAT     H231857   5.367   4.799   0.648  0.2596 -0.9451 -1.1948
 7784WAT    EPW31858   5.338   4.739   0.690  0.1624  0.0304  0.2157
 7785WAT      O31859   0.781   0.476   3.009 -0.0110 -0.0572 -0.0686
 7785WAT     H131860   0.722   0.414   2.994 -1.3480  0.9485  0.8566
 7785WAT     H231861   0.823   0.483   2.933  0.5621 -2.4353 -0.0494
 7785WAT    EPW31862   0.778   0.468   2.995 -0.1238 -0.2599  0.0709
 7786WAT      O31863   0.552   5.821   1.225  0.1326  0.4239 -0.0681
 7786WAT     H131864   0.545   5.887   1.281  0.4315  1.7352 -1.5129
 7786WAT     H231865   0.625   5.839   1.182  0.7128 -1.3606  0.1084
 7786WAT    EPW31866   0.562   5.833   1.227  0.2624  0.3540 -0.2554
 7787WAT      O31867   5.535   2.284   2.360 -0.1122 -0.0804  0.1988
 7787WAT     H131868   5.554   2.362   2.327  1.6699 -0.5946 -0.1119
 7787WAT     H231869   5.481   2.301   2.426 -0.3936  1.3221 -0.3659
 7787WAT    EPW31870   5.530   2.298   2.365  0.1095  0.0508  0.0695
 7788WAT      O31871   2.039   1.898   2.700  0.0782 -0.2144 -0.1294
 7788WAT     H131872   1.996   1.842   2.649 -0.8807  0.7838 -0.4584
 7788WAT     H231873   1.978   1.924   2.757  0.3605  0.8671 -0.3009
 7788WAT    EPW31874   2.024   1.894   2.701 -0.0217  0.0928 -0.2033
 7789WAT      O31875   1.143   0.629   7.016 -0.1189 -0.4334 -0.5003
 7789WAT     H131876   1.155   0.715   7.025  2.0639 -0.8139  0.9660
 7789WAT     H231877   1.063   0.616   7.048 -0.2509  0.9892 -0.1876
 7789WAT    EPW31878   1.133   0.640   7.022  0.1840 -0.2795 -0.2375
 7790WAT      O31879   0.454   0.129   6.014  0.0943  0.1807  0.3103
 7790WAT     H131880   0.370   0.111   6.030  0.3652 -2.5364 -0.8879
 7790WAT     H231881   0.473   0.191   6.072 -2.9773  1.6403 -0.0345
 7790WAT    EPW31882   0.444   0.136   6.025 -0.3194 -0.0051  0.0824
 7791WAT      O31883   0.853   2.511   6.459 -0.2905 -0.0226  0.2835
 7791WAT     H131884   0.916   2.528   6.401  0.6040 -1.2166  0.8627
 7791WAT     H231885   0.782   2.548   6.424  0.1902 -0.7910 -1.6042
 7791WAT    EPW31886   0.852   2.519   6.445 -0.0874 -0.3125  0.0902
 7792WAT      O31887   5.639   0.539   5.782 -0.0379  0.3842 -0.1952
 7792WAT     H131888   5.703   0.569   5.833 -1.1161  1.2460  0.6808
 7792WAT     H231889   5.662   0.456   5.767  2.6067  1.2981 -2.0293
 7792WAT    EPW31890   5.652   0.531   5.787  0.1934  0.6465 -0.3367
 7793WAT      O31891   1.889   3.302   3.312 -0.5645  0.1004 -0.3415
 7793WAT     H131892   1.914   3.316   3.394 -2.7255  0.7595  0.2614
 7793WAT     H231893   1.871   3.382   3.282 -0.5462 -0.2102 -1.2111
 7793WAT    EPW31894   1.890   3.316   3.320 -0.8810  0.1519 -0.3809
 7794WAT      O31895   3.143   4.869   7.015  0.0046  0.4959  0.2790
 7794WAT     H131896   3.221   4.902   6.996  0.0003  1.2030  1.3864
 7794WAT     H231897   3.160   4.806   7.072 -0.2780  1.3044  1.2912
 7794WAT    EPW31898   3.157   4.864   7.020 -0.0378  0.7198  0.5921
 7795WAT      O31899   0.276   5.091   5.401 -0.3050 -0.5981 -0.4673
 7795WAT     H131900   0.307   5.084   5.482  0.0272  0.0262 -0.5308
 7795WAT     H231901   0.221   5.159   5.406  0.0797 -0.2434 -0.8628
 7795WAT    EPW31902   0.272   5.100   5.413 -0.1991 -0.4535 -0.5351
 7796WAT      O31903   0.142   5.844   5.707  0.6575  0.1248 -0.3112
 7796WAT     H131904   0.080   5.843   5.644  0.8464 -1.4157 -0.4986
 7796WAT     H231905   0.186   5.770   5.694  1.1877  0.1512  1.1829
 7796WAT    EPW31906   0.139   5.833   5.695  0.7637 -0.0988 -0.1182
 7797WAT      O31907   4.252   2.923   0.266  0.0114  0.6135 -0.2350
 7797WAT     H131908   4.319   2.962   0.308 -0.5224  0.6156  0.6515
 7797WAT     H231909   4.183   2.946   0.314 -0.6572  0.7865 -1.2732
 7797WAT    EPW31910   4.252   2.932   0.279 -0.1662  0.6394 -0.2574
 7798WAT      O31911   3.511   5.966   7.064 -0.4266 -0.3277  0.1937
 7798WAT     H131912   3.456   5.992   7.002  0.5833 -0.2593 -0.7100
 7798WAT     H231913   3.545   6.041   7.094 -0.5024 -0.3897  0.4354
 7798WAT    EPW31914   3.508   5.981   7.059 -0.2886 -0.3267  0.0959
 7799WAT      O31915   3.163   4.172   5.079 -0.5412 -0.1057  0.3332
 7799WAT     H131916   3.128   4.250   5.096 -0.2045  0.4964 -1.4717
 7799WAT     H231917   3.181   4.177   4.993  1.0586 -1.5412  0.5461
 7799WAT    EPW31918   3.161   4.184   5.069 -0.2551 -0.2288  0.0980
 7800WAT      O31919   0.574   2.573   4.406  0.3438  0.1711 -1.0919
 7800WAT     H131920   0.653   2.571   4.444  0.0830  2.0517 -0.3374
 7800WAT     H231921   0.537   2.498   4.432  0.5851  0.8530  1.5497
 7800WAT    EPW31922   0.580   2.561   4.416  0.3409  0.5496 -0.5903
 7801WAT      O31923   2.714   0.187   6.755 -0.2297  0.0210 -0.4286
 7801WAT     H131924   2.666   0.185   6.827 -0.6410 -0.8020 -0.7176
 7801WAT     H231925   2.724   0.103   6.734  0.4267  0.2239 -0.9728
 7801WAT    EPW31926   2.708   0.174   6.762 -0.1935 -0.0706 -0.5517
 7802WAT      O31927   1.979   1.726   6.152  0.0644 -0.4469 -0.2844
 7802WAT     H131928   1.987   1.663   6.212 -0.9586 -0.4340 -0.1081
 7802WAT     H231929   1.893   1.728   6.137 -0.0538  1.5385  0.3991
 7802WAT    EPW31930   1.967   1.717   6.158 -0.1042 -0.1517 -0.1574
 7803WAT      O31931   1.149   4.562   6.152  0.2036  0.2854 -0.1938
 7803WAT     H131932   1.168   4.516   6.080  1.5416  2.9875 -1.7438
 7803WAT     H231933   1.228   4.584   6.183 -0.3779  0.9432  0.8905
 7803WAT    EPW31934   1.164   4.559   6.146  0.3153  0.7817 -0.2626
 7804WAT      O31935   6.433   0.596   6.081 -0.0755 -0.0566 -0.0438
 7804WAT     H131936   6.356   0.554   6.083  0.2910 -0.8508 -1.5768
 7804WAT     H231937   6.457   0.597   6.165  0.4138 -3.9281  0.0246
 7804WAT    EPW31938   6.425   0.590   6.094  0.0509 -0.7458 -0.2602
 7805WAT      O31939   2.549   4.165   4.784 -0.1669  0.0991 -0.3856
 7805WAT     H131940   2.591   4.225   4.736 -1.4499  1.5403  0.2134
 7805WAT     H231941   2.600   4.155   4.854 -0.6072  1.6051  0.1908
 7805WAT    EPW31942   2.563   4.172   4.787 -0.4215  0.5345 -0.2120
 7806WAT      O31943   1.907   1.182   7.406  0.4458  0.0584  0.3915
 7806WAT     H131944   1.905   1.095   7.405  2.7015 -0.0758 -1.5088
 7806WAT     H231945   1.832   1.204   7.446  0.6873 -2.7219  2.7220
 7806WAT    EPW31946   1.896   1.173   7.412  0.8147 -0.3721  0.4550
 7807WAT      O31947   1.215   0.631   4.645 -0.5775 -0.5211  0.0094
 7807WAT     H131948   1.209   0.710   4.610  0.5010 -0.1360  0.6588
 7807WAT     H231949   1.216   0.578   4.576 -1.7399 -0.0130 -0.4182
 7807WAT    EPW31950   1.214   0.635   4.630 -0.5899 -0.3892  0.0421
 7808WAT      O31951   3.583   6.426   5.079  0.1903  0.1900  0.3843
 7808WAT     H131952   3.641   6.388   5.026  0.8155 -0.1299  1.2856
 7808WAT     H231953   3.582   6.509   5.051  0.3637 -0.0165 -0.2552
 7808WAT    EPW31954   3.591   6.433   5.067  0.3082  0.1122  0.4230
 7809WAT      O31955   3.142   5.698   3.789 -0.1861  0.1661 -0.0343
 7809WAT     H131956   3.133   5.651   3.716 -0.9639  0.4890 -0.1492
 7809WAT     H231957   3.209   5.750   3.771  0.5936 -0.7757  0.0398
 7809WAT    EPW31958   3.151   5.698   3.775 -0.1858  0.0747 -0.0404
 7810WAT      O31959   5.286   2.735   5.231  0.1088  0.5335 -0.2664
 7810WAT     H131960   5.250   2.806   5.266 -0.2068 -0.3777  1.3241
 7810WAT     H231961   5.234   2.716   5.164 -0.1383  1.4417 -0.3443
 7810WAT    EPW31962   5.273   2.743   5.226  0.0256  0.5330 -0.0429
 7811WAT      O31963   1.081   6.370   6.167 -0.6246 -0.1617 -0.0292
 7811WAT     H131964   0.996   6.391   6.158 -0.7807 -0.0234  1.5420
 7811WAT     H231965   1.082   6.322   6.240  0.7552  0.4427  0.3667
 7811WAT    EPW31966   1.068   6.366   6.176 -0.4438 -0.0520  0.2614
 7812WAT      O31967   4.288   5.052   2.778  0.3418 -0.0637  0.2920
 7812WAT     H131968   4.337   5.122   2.759 -0.2266  0.7290  1.6373
 7812WAT     H231969   4.206   5.081   2.771  0.1012 -0.5681  0.9119
 7812WAT    EPW31970   4.283   5.066   2.774  0.2223 -0.0211  0.5823
 7813WAT      O31971   2.038   6.672   2.977 -0.0445 -0.2110  0.2243
 7813WAT     H131972   1.978   6.683   2.914  0.3944 -1.9171 -0.5520
 7813WAT     H231973   1.990   6.670   3.050 -0.4591  2.9140  0.1649
 7813WAT    EPW31974   2.022   6.673   2.978 -0.0409 -0.0014  0.1008
 7814WAT      O31975   2.052   7.266   7.012 -0.0342  0.0218  0.1760
 7814WAT     H131976   1.972   7.229   7.008 -0.8488  1.7705 -0.5047
 7814WAT     H231977   2.087   7.248   6.934 -0.0953  0.0011  0.1532
 7814WAT    EPW31978   2.045   7.258   7.000 -0.1636  0.2771  0.0721
 7815WAT      O31979   3.323   6.983   1.548 -0.2246  0.4890  0.0478
 7815WAT     H131980   3.348   7.016   1.624  2.4437  0.0395 -0.5351
 7815WAT     H231981   3.398   6.976   1.503 -1.5836 -0.0360 -2.3051
 7815WAT    EPW31982   3.338   6.987   1.552 -0.0312  0.3450 -0.3859
 7816WAT      O31983   6.938   7.120   5.942  0.4986 -0.7002  0.4541
 7816WAT     H131984   6.874   7.175   5.919  1.6137  3.1166  4.9347
 7816WAT     H231985   7.006   7.148   5.896  0.2763 -0.8995 -0.0102
 7816WAT    EPW31986   6.938   7.132   5.932  0.6305 -0.1658  1.0474
 7817WAT      O31987   6.559   5.235   5.078  0.2311 -0.0931  0.1518
 7817WAT     H131988   6.592   5.308   5.043  2.4923 -0.9257  0.4113
 7817WAT     H231989   6.492   5.265   5.127  0.7168  1.7250 -0.2060
 7817WAT    EPW31990   6.554   5.250   5.080  0.6369  0.0524  0.1373
 7818WAT      O31991   2.456   3.182   6.393 -0.3521  0.1652  0.0746
 7818WAT     H131992   2.406   3.115   6.369  0.5733  0.1656 -2.1134
 7818WAT     H231993   2.537   3.150   6.384  0.0822  1.1357  0.4674
 7818WAT    EPW31994   2.461   3.167   6.388 -0.1513  0.3086 -0.1906
 7819WAT      O31995   4.202   1.827   5.663  0.2227  0.6172  0.5356
 7819WAT     H131996   4.236   1.874   5.598 -0.6515  0.3497 -0.1379
 7819WAT     H231997   4.256   1.758   5.668  0.1120  0.4756 -0.1312
 7819WAT    EPW31998   4.215   1.824   5.654  0.0772  0.5567  0.3376
 7820WAT      O31999   1.590   1.607   6.628  0.3862  0.1435 -0.2025
 7820WAT     H132000   1.580   1.639   6.708 -1.1411 -0.0084 -0.3109
 7820WAT     H232001   1.667   1.567   6.632  2.1480  3.2191  0.1104
 7820WAT    EPW32002   1.600   1.606   6.640  0.4208  0.5754 -0.1723
 7821WAT      O32003   6.424   2.675   4.999 -0.5253 -0.0304  1.0757
 7821WAT     H132004   6.408   2.634   4.923  1.1791  0.8392  0.1678
 7821WAT     H232005   6.472   2.617   5.044  1.6127  0.7332 -0.0761
 7821WAT    EPW32006   6.429   2.660   4.994  0.0423  0.2108  0.7714
 7822WAT      O32007   3.354   4.073   1.267  0.2126 -0.3239  0.3462
 7822WAT     H132008   3.430   4.071   1.225 -1.1066  0.0582 -2.2372
 7822WAT     H232009   3.319   4.149   1.243 -0.9470 -0.4127  1.5974
 7822WAT    EPW32010   3.360   4.084   1.257 -0.1536 -0.2806  0.1494
 7823WAT      O32011   1.915   4.323   3.876 -0.4099 -0.1957 -0.0638
 7823WAT     H132012   1.916   4.236   3.877  2.4050 -0.2550  1.6109
 7823WAT     H232013   1.896   4.344   3.958  0.5059  0.7349 -0.0750
 7823WAT    EPW32014   1.912   4.314   3.888  0.1412 -0.0670  0.1819
 7824WAT      O32015   7.108   4.893   3.544 -0.0127  0.0860  0.5434
 7824WAT     H132016   7.099   4.972   3.508  1.8896  0.2393  0.3326
 7824WAT     H232017   7.032   4.854   3.524 -1.2076  1.9713  1.0464
 7824WAT    EPW32018   7.095   4.899   3.536  0.0918  0.3871  0.5866
 7825WAT      O32019   4.163   0.015   2.318  0.3481 -0.4598 -0.0911
 7825WAT     H132020   4.224   0.061   2.276 -0.2561  1.2613  0.8296
 7825WAT     H232021   4.209  -0.036   2.371  1.0314  1.0657  0.8430
 7825WAT    EPW32022   4.179   0.014   2.319  0.3598  0.0198  0.1829
 7826WAT      O32023   1.156   2.422   4.725 -0.1474 -0.4348 -0.4610
 7826WAT     H132024   1.103   2.492   4.719 -0.9650 -0.9936  0.0302
 7826WAT     H232025   1.217   2.447   4.782 -1.2453 -0.5941  0.8331
 7826WAT    EPW32026   1.157   2.436   4.733 -0.4304 -0.5409 -0.1973
 7827WAT      O32027   5.035   4.843   4.431  0.3021 -0.3831  0.3014
 7827WAT     H132028   5.118   4.832   4.452  0.3210  1.2998  1.3533
 7827WAT     H232029   4.995   4.773   4.464  0.7235  0.8672  3.9083
 7827WAT    EPW32030   5.041   4.831   4.439  0.3671  0.0502  0.9896
 7828WAT      O32031   0.114   1.506   6.182 -0.1159 -0.0574  0.2566
 7828WAT     H132032   0.083   1.532   6.259  1.1318 -0.7571  1.0177
 7828WAT     H232033   0.184   1.557   6.169 -0.4050  0.1683 -0.5113
 7828WAT    EPW32034   0.119   1.518   6.191  0.0257 -0.1274  0.2556
 7829WAT      O32035   0.950   0.359   3.318  0.2433 -0.1860  0.1379
 7829WAT     H132036   0.875   0.320   3.341  0.6114 -1.0853 -0.1894
 7829WAT     H232037   0.952   0.429   3.371 -1.4841  0.6123 -0.7608
 7829WAT    EPW32038   0.939   0.364   3.329  0.0425 -0.2009 -0.0432
 7830WAT      O32039   5.228   3.959   0.416 -0.5534  0.2093  0.0486
 7830WAT     H132040   5.187   3.991   0.346 -0.6633  0.5843  0.2795
 7830WAT     H232041   5.257   3.881   0.389 -0.0981  0.5848 -0.5907
 7830WAT    EPW32042   5.226   3.952   0.402 -0.5024  0.3201 -0.0117
 7831WAT      O32043   2.306   0.163   5.820 -0.2314 -0.3168 -0.4169
 7831WAT     H132044   2.233   0.143   5.863 -1.2823  0.8210 -1.6089
 7831WAT     H232045   2.316   0.248   5.834 -0.0769 -0.1166 -1.6228
 7831WAT    EPW32046   2.297   0.172   5.828 -0.3638 -0.1191 -0.7711
 7832WAT      O32047   4.314   3.991   1.588  0.0596  0.0440 -0.3081
 7832WAT     H132048   4.316   3.988   1.675  0.9587  0.5587 -0.3017
 7832WAT     H232049   4.369   3.926   1.565  0.6570  0.5926 -0.4643
 7832WAT    EPW32050   4.323   3.981   1.598  0.2807  0.2011 -0.3302
 7833WAT      O32051   7.041   4.941   6.319  0.1834 -0.6881  0.1875
 7833WAT     H132052   7.099   5.002   6.296  1.2054 -1.4932  0.5388
 7833WAT     H232053   7.030   4.894   6.246  1.0060 -1.3348  0.4673
 7833WAT    EPW32054   7.048   4.943   6.305  0.4559 -0.9026  0.2807
 7834WAT      O32055   0.174   0.105   5.989  0.0412  0.0658  0.5876
 7834WAT     H132056   0.152   0.182   6.025 -0.0366  0.0443  0.5875
 7834WAT     H232057   0.134   0.047   6.040  1.3681 -0.0692  1.5303
 7834WAT    EPW32058   0.165   0.108   6.002  0.2257  0.0427  0.7268
 7835WAT      O32059   6.300   0.757   0.695 -0.2566 -0.6127 -0.4496
 7835WAT     H132060   6.298   0.811   0.764  0.6378  0.3808 -1.1710
 7835WAT     H232061   6.222   0.719   0.697 -0.9776  0.8254 -0.0050
 7835WAT    EPW32062   6.288   0.760   0.706 -0.2310 -0.2535 -0.4905
 7836WAT      O32063   0.587   2.561   2.469 -0.1820 -0.6857 -0.4397
 7836WAT     H132064   0.574   2.483   2.506 -0.8162  0.7397  2.6112
 7836WAT     H232065   0.670   2.579   2.487 -0.6823  0.3168  1.0260
 7836WAT    EPW32066   0.598   2.552   2.477 -0.3496 -0.3270  0.2275
 7837WAT      O32067   4.144   6.630   2.906  0.6128 -0.0568 -0.4076
 7837WAT     H132068   4.171   6.560   2.862 -0.6370 -1.4351  0.8979
 7837WAT     H232069   4.094   6.673   2.848  1.1283 -0.4004 -1.1188
 7837WAT    EPW32070   4.141   6.626   2.891  0.5043 -0.3112 -0.3198
 7838WAT      O32071   5.919   5.131   2.927 -0.0937 -0.0679 -0.5632
 7838WAT     H132072   5.870   5.063   2.954  0.8790 -0.6533 -0.2295
 7838WAT     H232073   5.991   5.124   2.975  1.0847 -0.2902 -2.3056
 7838WAT    EPW32074   5.922   5.120   2.938  0.2241 -0.1872 -0.7713
 7839WAT      O32075   4.170   4.982   4.960  0.0978  0.0557 -0.4185
 7839WAT     H132076   4.206   4.976   4.881  0.0933  0.8965 -0.4996
 7839WAT     H232077   4.094   5.023   4.944  0.0084  0.0546 -0.0061
 7839WAT    EPW32078   4.164   4.987   4.946  0.0839  0.1797 -0.3696
 7840WAT      O32079   7.005   2.202   3.737  0.0801 -0.2972 -0.3717
 7840WAT     H132080   6.957   2.274   3.745  3.0348  1.7918  0.2401
 7840WAT     H232081   7.063   2.223   3.675  3.5829 -0.4108  2.5207
 7840WAT    EPW32082   7.006   2.215   3.729  1.0340 -0.0054  0.1460
 7841WAT      O32083   5.279   2.299   4.142 -0.4785 -0.4337 -0.1198
 7841WAT     H132084   5.235   2.353   4.089  0.4220 -0.5445 -1.0141
 7841WAT     H232085   5.274   2.222   4.100 -0.5129 -0.7252  0.4123
 7841WAT    EPW32086   5.272   2.295   4.128 -0.3505 -0.4931 -0.1733
 7842WAT      O32087   3.230   3.305   6.154  0.4433 -0.0632  0.0317
 7842WAT     H132088   3.182   3.232   6.149 -0.8236  0.6148  1.4389
 7842WAT     H232089   3.244   3.314   6.240 -0.9484  2.2431  0.1155
 7842WAT    EPW32090   3.225   3.296   6.166  0.0506  0.3777  0.2520
 7843WAT      O32091   2.512   1.437   3.579 -0.2738 -0.2018 -0.0416
 7843WAT     H132092   2.581   1.390   3.603 -1.0790 -0.7463  1.3794
 7843WAT     H232093   2.538   1.478   3.507  1.4855 -0.4397  0.4276
 7843WAT    EPW32094   2.526   1.436   3.572 -0.1329 -0.3174  0.2376
 7844WAT      O32095   6.651   3.062   6.906 -0.2102  0.3450 -0.0518
 7844WAT     H132096   6.582   3.073   6.853  1.0672 -1.0820 -2.1759
 7844WAT     H232097   6.715   3.038   6.851  1.8106  0.9099  1.9141
 7844WAT    EPW32098   6.650   3.060   6.890  0.2770  0.2177 -0.0752
 7845WAT      O32099   1.467   4.318   1.757  0.1927  0.1123  0.3135
 7845WAT     H132100   1.536   4.371   1.760  1.2546 -1.2453  0.9877
 7845WAT     H232101   1.425   4.335   1.831 -0.8851  1.7489 -0.6042
 7845WAT    EPW32102   1.471   4.328   1.768  0.1903  0.1535  0.2776
 7846WAT      O32103   0.019   1.805   5.680  0.1511 -0.2823 -0.1051
 7846WAT     H132104   0.053   1.870   5.727 -0.3781 -0.3494  0.3831
 7846WAT     H232105  -0.065   1.807   5.702  0.2704 -1.6795  0.5815
 7846WAT    EPW32106   0.012   1.815   5.690  0.0906 -0.4986  0.0684
 7847WAT      O32107   4.351   1.351   6.311  0.0337  0.2635  0.3982
 7847WAT     H132108   4.395   1.354   6.386 -1.0411 -0.8266  1.1227
 7847WAT     H232109   4.402   1.304   6.259  0.3257  0.1460  0.7848
 7847WAT    EPW32110   4.365   1.345   6.314 -0.0820  0.0851  0.5623
 7848WAT      O32111   0.144   4.956   6.924  0.2471 -0.2639  0.1404
 7848WAT     H132112   0.082   5.016   6.910 -0.3609 -1.1423 -1.0762
 7848WAT     H232113   0.143   4.908   6.852  0.5937 -1.8647  1.1443
 7848WAT    EPW32114   0.135   4.958   6.911  0.2085 -0.6301  0.1090
 7849WAT      O32115   7.004   6.563   5.353 -0.5111 -0.4038  0.0173
 7849WAT     H132116   7.038   6.643   5.350 -2.4006  0.4270 -1.2980
 7849WAT     H232117   7.068   6.512   5.323  0.9432  0.4751  1.4495
 7849WAT    EPW32118   7.018   6.567   5.348 -0.5754 -0.1512  0.0345
 7850WAT      O32119   5.377   6.152   0.045 -0.2097 -0.6074  0.0558
 7850WAT     H132120   5.413   6.132  -0.032 -1.1689  0.3662 -0.6800
 7850WAT     H232121   5.297   6.117   0.040 -1.1818  1.4716 -0.4434
 7850WAT    EPW32122   5.370   6.144   0.033 -0.4950 -0.1565 -0.1267
 7851WAT      O32123   2.612   6.643   0.910  0.1281  0.0860 -0.4266
 7851WAT     H132124   2.639   6.591   0.975  0.1334 -0.7166 -1.0498
 7851WAT     H232125   2.546   6.687   0.946 -0.5267 -1.0722 -0.1414
 7851WAT    EPW32126   2.606   6.642   0.925  0.0321 -0.2036 -0.4765
 7852WAT      O32127   1.827   6.000   7.368  0.0672 -0.2470 -0.0038
 7852WAT     H132128   1.801   6.069   7.323  0.8444 -1.0592 -1.7802
 7852WAT     H232129   1.856   6.034   7.443 -1.5648  1.1002  0.0711
 7852WAT    EPW32130   1.828   6.015   7.373 -0.0591 -0.1679 -0.2551
 7853WAT      O32131   4.901   5.804   5.101 -0.5585 -0.0806 -0.1624
 7853WAT     H132132   4.893   5.850   5.175 -1.2201 -1.0977  0.4328
 7853WAT     H232133   4.835   5.748   5.105 -0.3732 -0.4101 -1.3568
 7853WAT    EPW32134   4.890   5.802   5.113 -0.6289 -0.2795 -0.2509
 7854WAT      O32135   2.005   4.925   4.207 -0.3260  0.2973  0.0985
 7854WAT     H132136   2.077   4.877   4.223 -0.1509  0.3715 -0.4600
 7854WAT     H232137   1.980   4.951   4.287 -1.0907 -1.6642  0.5529
 7854WAT    EPW32138   2.012   4.922   4.222 -0.4131  0.0185  0.0831
 7855WAT      O32139   2.732   2.374   3.061  0.1376 -0.6655 -0.0869
 7855WAT     H132140   2.772   2.296   3.059 -0.6751 -1.0873 -1.5203
 7855WAT     H232141   2.797   2.430   3.078  0.7980 -1.6064  0.6326
 7855WAT    EPW32142   2.748   2.371   3.063  0.1151 -0.8668 -0.1924
 7856WAT      O32143   7.039   6.000   3.747 -0.1781  0.5308 -0.1992
 7856WAT     H132144   6.980   6.043   3.699 -0.7660  0.0340  0.0695
 7856WAT     H232145   7.034   6.040   3.825 -1.3055 -0.5171  0.2930
 7856WAT    EPW32146   7.030   6.013   3.752 -0.4314  0.3026 -0.0868
 7857WAT      O32147   0.438   2.260   1.530  0.0442  0.5081  0.1712
 7857WAT     H132148   0.449   2.310   1.601  0.7482  0.4480  0.1095
 7857WAT     H232149   0.412   2.183   1.563 -1.2977  0.9777  0.2497
 7857WAT    EPW32150   0.436   2.256   1.545 -0.0500  0.5686  0.1737
 7858WAT      O32151   7.171   7.095   0.712  0.6843 -0.3053  0.4965
 7858WAT     H132152   7.109   7.148   0.743 -0.3480 -1.5602  0.7066
 7858WAT     H232153   7.238   7.108   0.766  0.2107  0.2959  0.9582
 7858WAT    EPW32154   7.172   7.105   0.725  0.4618 -0.4018  0.5958
 7859WAT      O32155   4.937   1.526   5.919  0.2704  0.3503  0.5012
 7859WAT     H132156   4.987   1.597   5.908  2.1357 -0.9268  0.1982
 7859WAT     H232157   4.978   1.465   5.871 -0.3074 -1.3522  2.0615
 7859WAT    EPW32158   4.950   1.527   5.910  0.4606 -0.0899  0.6869
 7860WAT      O32159   0.461   5.372   4.065  0.2968 -0.2871  0.3519
 7860WAT     H132160   0.386   5.418   4.062  0.9557  0.8181  0.1963
 7860WAT     H232161   0.519   5.430   4.095  1.2021 -0.9810 -0.0227
 7860WAT    EPW32162   0.458   5.387   4.069  0.5279 -0.2263  0.2736
 7861WAT      O32163   6.479   4.822   0.978  0.1171  0.4691 -0.0388
 7861WAT     H132164   6.424   4.828   1.046 -0.0312 -0.9499 -0.0130
 7861WAT     H232165   6.532   4.757   1.000  0.2667  0.1935 -1.1454
 7861WAT    EPW32166   6.478   4.813   0.991  0.1173  0.2188 -0.1984
 7862WAT      O32167   4.976   1.958   3.733 -0.7242  0.3629  0.2969
 7862WAT     H132168   4.913   2.005   3.696 -1.0748 -0.3944 -0.0769
 7862WAT     H232169   4.937   1.923   3.803  0.5913  4.0073  3.2317
 7862WAT    EPW32170   4.961   1.960   3.738 -0.5817  0.7894  0.6752
 7863WAT      O32171   3.325   5.753   0.577  0.0200 -0.4048  0.0434
 7863WAT     H132172   3.351   5.794   0.505 -0.1167  0.1470  0.2939
 7863WAT     H232173   3.378   5.684   0.583  0.1456 -0.3545 -0.4849
 7863WAT    EPW32174   3.337   5.749   0.568  0.0184 -0.3159  0.0024
 7864WAT      O32175   6.588   0.857   0.376 -0.2808  0.0145 -0.3953
 7864WAT     H132176   6.666   0.894   0.367  1.2326 -2.1916  2.2877
 7864WAT     H232177   6.583   0.803   0.308  0.1718  0.6517 -0.9541
 7864WAT    EPW32178   6.599   0.855   0.365  0.0096 -0.2172 -0.0815
 7865WAT      O32179   4.526   0.744   3.799  0.0355 -0.1079  0.0307
 7865WAT     H132180   4.530   0.775   3.880  0.1975 -0.2504  0.0784
 7865WAT     H232181   4.528   0.816   3.749  1.5496 -0.0688  0.1064
 7865WAT    EPW32182   4.527   0.760   3.804  0.2831 -0.1232  0.0489
 7866WAT      O32183   0.009   2.370   0.529 -0.0667 -0.0938  0.1100
 7866WAT     H132184   0.041   2.433   0.478 -0.0003 -0.0729  0.1791
 7866WAT     H232185  -0.006   2.409   0.605  0.9628 -0.4035  0.4794
 7866WAT    EPW32186   0.011   2.385   0.532  0.0952 -0.1365  0.1747
 7867WAT      O32187   3.377   2.848   1.592 -0.0182  0.0973 -0.0861
 7867WAT     H132188   3.431   2.897   1.642 -1.4644  0.2758  1.3864
 7867WAT     H232189   3.367   2.775   1.639 -0.3611 -0.3056 -0.7761
 7867WAT    EPW32190   3.384   2.844   1.607 -0.2825  0.0642  0.0295
 7868WAT      O32191   6.918   2.624   5.905  0.2521  0.1795  0.2788
 7868WAT     H132192   6.985   2.570   5.892  0.9229  0.6401  1.5926
 7868WAT     H232193   6.897   2.650   5.825  0.8797 -0.8770 -0.2572
 7868WAT    EPW32194   6.925   2.620   5.891  0.4439  0.0915  0.3937
 7869WAT      O32195   3.064   1.044   6.608 -0.2512 -0.3366  0.1326
 7869WAT     H132196   2.983   1.061   6.579  0.2165 -1.2961 -1.9852
 7869WAT     H232197   3.086   1.117   6.650 -1.6675  0.5467 -0.5469
 7869WAT    EPW32198   3.055   1.057   6.610 -0.3914 -0.3479 -0.2806
 7870WAT      O32199   3.897   0.519   1.540  0.5118  0.0348 -0.3554
 7870WAT     H132200   3.815   0.500   1.563  0.8344  0.2604  1.0696
 7870WAT     H232201   3.889   0.552   1.459 -0.6655 -0.9197 -0.6571
 7870WAT    EPW32202   3.884   0.521   1.531  0.3855 -0.0729 -0.1895
 7871WAT      O32203   5.948   6.753   2.681  0.5035  0.4375 -0.3192
 7871WAT     H132204   5.943   6.686   2.626  3.1259  0.3552 -0.5703
 7871WAT     H232205   6.032   6.755   2.704 -0.3105  0.8776  3.2181
 7871WAT    EPW32206   5.960   6.743   2.676  0.7706  0.4903  0.1663
 7872WAT      O32207   1.995   2.137   5.831 -0.1769 -0.6287  0.4529
 7872WAT     H132208   1.949   2.187   5.775  0.1966 -2.8322 -2.0255
 7872WAT     H232209   1.940   2.073   5.851 -0.1543 -0.0951  2.4079
 7872WAT    EPW32210   1.980   2.135   5.826 -0.1184 -0.8754  0.3756
 7873WAT      O32211   0.519   1.002   7.063  0.1297  0.7975 -0.2053
 7873WAT     H132212   0.519   0.934   7.008  2.4296 -1.3781  2.2487
 7873WAT     H232213   0.451   0.987   7.115  1.9736 -1.1837  1.8611
 7873WAT    EPW32214   0.509   0.990   7.062  0.7418  0.1834  0.4625
 7874WAT      O32215   1.045   1.047   1.521 -1.1639  0.0265  0.6143
 7874WAT     H132216   1.126   1.064   1.495 -1.2343  0.1661  0.4887
 7874WAT     H232217   1.051   1.045   1.608 -1.3022  1.4091  0.6670
 7874WAT    EPW32218   1.058   1.049   1.530 -1.1948  0.2514  0.6035
 7875WAT      O32219   0.878   6.508   4.227 -0.2994 -0.1970  0.1266
 7875WAT     H132220   0.853   6.541   4.304 -0.5704 -0.8763  0.3396
 7875WAT     H232221   0.805   6.512   4.179 -0.7775 -1.8840  0.6452
 7875WAT    EPW32222   0.863   6.514   4.231 -0.4100 -0.5466  0.2347
 7876WAT      O32223   6.043   1.673   4.771  0.4690  0.4551 -0.7621
 7876WAT     H132224   6.011   1.742   4.729  0.4271  1.5893  1.0063
 7876WAT     H232225   5.986   1.610   4.754 -0.6945  1.4553 -0.6801
 7876WAT    EPW32226   6.030   1.674   4.762  0.2909  0.7704 -0.4888
 7877WAT      O32227   0.676   6.866   5.251 -0.3268 -0.0454  0.4923
 7877WAT     H132228   0.681   6.796   5.303  2.1371  0.9067  1.6914
 7877WAT     H232229   0.655   6.930   5.306 -0.6226  0.4957 -0.2434
 7877WAT    EPW32230   0.674   6.865   5.267 -0.0065  0.1752  0.5608
 7878WAT      O32231   2.692   0.419   6.343 -0.0638 -0.5468  0.0613
 7878WAT     H132232   2.646   0.345   6.338 -0.9424  0.0263 -0.7210
 7878WAT     H232233   2.768   0.394   6.376 -0.9305 -1.5332  1.4074
 7878WAT    EPW32234   2.696   0.405   6.347 -0.3216 -0.6079  0.1446
 7879WAT      O32235   2.590   7.030   0.969  0.3905  0.0715  0.0233
 7879WAT     H132236   2.592   7.116   0.956  3.4370  0.0473 -0.3791
 7879WAT     H232237   2.612   6.997   0.891 -0.2737 -1.0671  0.2893
 7879WAT    EPW32238   2.593   7.038   0.955  0.7425 -0.1003  0.0031
 7880WAT      O32239   5.407   3.485   3.235  0.4000 -0.4529  0.0245
 7880WAT     H132240   5.437   3.567   3.229  1.9138 -1.0175 -0.7399
 7880WAT     H232241   5.332   3.488   3.191 -2.1429  1.5561  3.8944
 7880WAT    EPW32242   5.400   3.498   3.228  0.2480 -0.2395  0.4833
 7881WAT      O32243   0.724   2.303   5.242 -0.0537 -0.2709  0.2914
 7881WAT     H132244   0.650   2.293   5.197  0.2179 -0.9535 -0.0256
 7881WAT     H232245   0.775   2.348   5.188  0.1696 -0.8383  0.0111
 7881WAT    EPW32246   0.721   2.308   5.228  0.0194 -0.4555  0.2031
 7882WAT      O32247   6.415   6.347   4.240  0.2981 -0.5763  0.1340
 7882WAT     H132248   6.496   6.314   4.245  0.3148 -0.4779  0.6201
 7882WAT     H232249   6.371   6.302   4.300  0.5535  0.8918  1.5039
 7882WAT    EPW32250   6.420   6.335   4.250  0.3383 -0.3449  0.4082
 7883WAT      O32251   4.093   5.103   6.389  0.1541 -0.0272  0.1605
 7883WAT     H132252   4.090   5.041   6.450 -1.6221 -1.5753 -1.3923
 7883WAT     H232253   4.021   5.149   6.403 -0.2510 -0.3747 -0.7272
 7883WAT    EPW32254   4.082   5.101   6.400 -0.1681 -0.3072 -0.2000
 7884WAT      O32255   4.486   3.246   7.183  0.3005 -0.0624 -0.0784
 7884WAT     H132256   4.432   3.203   7.129 -0.9755  0.3492  0.8264
 7884WAT     H232257   4.503   3.320   7.140 -2.3650  1.2165  0.8469
 7884WAT    EPW32258   4.481   3.250   7.168 -0.2818  0.1873  0.1920
 7885WAT      O32259   3.541   2.746   6.987 -0.3254  0.1857  1.0007
 7885WAT     H132260   3.469   2.751   7.036 -0.7899 -0.2209  0.3876
 7885WAT     H232261   3.601   2.788   7.033 -0.7771 -0.0972  1.8599
 7885WAT    EPW32262   3.539   2.753   7.001 -0.4607  0.0839  1.0371
 7886WAT      O32263   2.236   3.446   2.243  0.0740 -0.1128  0.1181
 7886WAT     H132264   2.227   3.531   2.256  0.2728 -0.1083  0.2418
 7886WAT     H232265   2.179   3.410   2.297  1.4626 -0.1204  1.6524
 7886WAT    EPW32266   2.226   3.453   2.253  0.3085 -0.1132  0.3630
 7887WAT      O32267   3.659   3.703   2.075 -0.1634  0.2447  0.3547
 7887WAT     H132268   3.597   3.659   2.118 -1.4001  0.7397 -0.8498
 7887WAT     H232269   3.719   3.642   2.058 -0.0257 -0.1398  1.9804
 7887WAT    EPW32270   3.659   3.687   2.079 -0.3258  0.2610  0.4169
 7888WAT      O32271   0.719   6.291   3.109 -0.5965  0.0959  0.0189
 7888WAT     H132272   0.744   6.238   3.174 -2.4006  0.3084  0.9412
 7888WAT     H232273   0.656   6.339   3.145  0.8744  2.8843 -0.8082
 7888WAT    EPW32274   0.714   6.290   3.124 -0.6457  0.5392  0.0330
 7889WAT      O32275   4.508   4.260   0.225  0.4445  0.0041 -0.1372
 7889WAT     H132276   4.478   4.337   0.195 -0.4145 -0.1076  0.3975
 7889WAT     H232277   4.436   4.220   0.253  0.6921 -1.5382 -1.5416
 7889WAT    EPW32278   4.493   4.265   0.224  0.3541 -0.2402 -0.2657
 7890WAT      O32279   5.315   1.264   3.458 -0.1685 -0.0579  0.5161
 7890WAT     H132280   5.304   1.244   3.542  0.6120  1.2607  0.9714
 7890WAT     H232281   5.255   1.326   3.444 -0.4514 -0.4391  0.0388
 7890WAT    EPW32282   5.304   1.270   3.468 -0.0950  0.0806  0.5129
 7891WAT      O32283   2.232   5.711   5.850 -0.8788 -0.1346 -0.2292
 7891WAT     H132284   2.296   5.704   5.909 -0.0509  1.0831 -0.9295
 7891WAT     H232285   2.247   5.789   5.813 -1.0321 -1.1003 -2.4292
 7891WAT    EPW32286   2.244   5.722   5.854 -0.7791 -0.0974 -0.6576
 7892WAT      O32287   4.851   2.974   4.532  0.6612 -0.4030 -0.6467
 7892WAT     H132288   4.895   2.972   4.607 -0.7159  1.0343  0.2561
 7892WAT     H232289   4.795   2.908   4.539  0.5211 -0.2598 -0.3802
 7892WAT    EPW32290   4.849   2.964   4.544  0.4371 -0.1695 -0.4740
 7893WAT      O32291   2.726   6.577   4.032 -0.3527 -0.5537  0.9399
 7893WAT     H132292   2.743   6.513   3.976 -0.1850 -0.9472  1.4287
 7893WAT     H232293   2.717   6.535   4.108  1.0249  0.1149  1.5103
 7893WAT    EPW32294   2.727   6.561   4.035 -0.1244 -0.5131  1.0964
 7894WAT      O32295   5.570   5.446   2.195 -0.1181 -0.4262  0.3721
 7894WAT     H132296   5.520   5.395   2.246 -0.6482  0.5493  0.8428
 7894WAT     H232297   5.523   5.452   2.121  0.4647 -1.5077 -0.1233
 7894WAT    EPW32298   5.555   5.439   2.191 -0.1103 -0.4418  0.3685
 7895WAT      O32299   5.008   5.572   2.892  0.1393 -0.1157  0.5625
 7895WAT     H132300   4.967   5.504   2.928  1.8704 -0.5718  1.7470
 7895WAT     H232301   5.027   5.545   2.811  0.1420 -0.7424  0.7719
 7895WAT    EPW32302   5.004   5.558   2.885  0.3954 -0.2756  0.7684
 7896WAT      O32303   7.009   3.803   1.922  0.1053 -0.1215  0.1636
 7896WAT     H132304   6.993   3.880   1.960  1.5656  1.0834 -1.5370
 7896WAT     H232305   6.967   3.808   1.846 -0.2392 -1.2652  0.2587
 7896WAT    EPW32306   7.000   3.815   1.917  0.2701 -0.1124 -0.0736
 7897WAT      O32307   1.401   6.542   7.301  0.2570  0.1460 -0.0276
 7897WAT     H132308   1.421   6.599   7.239  0.2480 -0.7606 -0.8905
 7897WAT     H232309   1.475   6.533   7.346  1.5100 -2.0411 -2.2663
 7897WAT    EPW32310   1.415   6.549   7.298  0.4408 -0.3110 -0.4858
 7898WAT      O32311   6.848   1.722   1.986  0.5977 -0.0816 -0.2813
 7898WAT     H132312   6.857   1.808   2.000 -0.4280  0.3968 -2.2503
 7898WAT     H232313   6.768   1.705   2.017 -0.5948  0.4439 -2.7995
 7898WAT    EPW32314   6.838   1.733   1.993  0.2701  0.0667 -0.9442
 7899WAT      O32315   7.049   4.278   3.735  0.0322 -0.0662 -0.0185
 7899WAT     H132316   7.110   4.322   3.781 -0.8412  3.1969 -1.6307
 7899WAT     H232317   6.977   4.286   3.784 -0.2576  0.8967 -0.5763
 7899WAT    EPW32318   7.047   4.286   3.749 -0.1397  0.5581 -0.3391
 7900WAT      O32319   4.931   2.037   0.672  0.4919 -0.1877  0.3684
 7900WAT     H132320   4.875   1.972   0.660  0.6309 -0.4075  0.9200
 7900WAT     H232321   5.000   2.014   0.622 -0.1085  0.3534 -0.7538
 7900WAT    EPW32322   4.933   2.024   0.663  0.4237 -0.1403  0.2841
 7901WAT      O32323   2.758   4.217   6.666  0.6995  0.4349 -0.0953
 7901WAT     H132324   2.732   4.292   6.629  1.3793  1.0136  0.5611
 7901WAT     H232325   2.784   4.242   6.746  2.5963 -0.1900 -0.4755
 7901WAT    EPW32326   2.758   4.232   6.672  1.0801  0.4281 -0.0545
 7902WAT      O32327   1.943   1.137   2.676  0.2320 -0.3817  0.3259
 7902WAT     H132328   1.992   1.082   2.723  1.8115  1.1426  0.5812
 7902WAT     H232329   1.994   1.208   2.669 -1.6084  0.9524 -0.2017
 7902WAT    EPW32330   1.958   1.140   2.682  0.1935  0.0406  0.2856
 7903WAT      O32331   2.419   0.137   1.162 -0.2459 -0.5219 -0.0312
 7903WAT     H132332   2.378   0.122   1.237  0.2401  0.1626  0.3836
 7903WAT     H232333   2.358   0.176   1.113  0.3544  2.4088  1.2830
 7903WAT    EPW32334   2.404   0.141   1.166 -0.0854  0.0121  0.2242
 7904WAT      O32335   4.677   0.122   5.078  0.2648 -0.6013 -0.0589
 7904WAT     H132336   4.707   0.159   5.006 -0.1234  3.4921  1.5784
 7904WAT     H232337   4.742   0.130   5.135 -0.7022 -0.1237  1.0394
 7904WAT    EPW32338   4.691   0.129   5.076  0.0646  0.0739  0.3452
 7905WAT      O32339   1.361   4.413   4.525 -0.2403 -0.0522  0.1672
 7905WAT     H132340   1.295   4.364   4.497 -1.3292  0.7078  1.2702
 7905WAT     H232341   1.350   4.416   4.611  0.4845  1.1342  0.2522
 7905WAT    EPW32342   1.350   4.406   4.534 -0.2941  0.2353  0.3427
 7906WAT      O32343   2.543   2.464   4.779 -0.7054  0.0401 -0.4334
 7906WAT     H132344   2.626   2.463   4.753 -0.1975  0.7559  1.0830
 7906WAT     H232345   2.544   2.514   4.851 -2.2085 -1.0792  0.4155
 7906WAT    EPW32346   2.555   2.472   4.786 -0.8524 -0.0195 -0.0840
 7907WAT      O32347   1.138   4.153   3.736  0.1872 -0.4721 -0.2981
 7907WAT     H132348   1.168   4.230   3.765  2.1358 -1.5291  0.6323
 7907WAT     H232349   1.128   4.106   3.808  0.3571 -1.5562 -0.9680
 7907WAT    EPW32350   1.141   4.158   3.751  0.5002 -0.7884 -0.2596
 7908WAT      O32351   4.357   1.287   4.837  0.1099 -0.5700 -0.2570
 7908WAT     H132352   4.283   1.242   4.852 -0.5309  0.4445 -0.2947
 7908WAT     H232353   4.341   1.327   4.761 -0.5128  2.0212  1.1378
 7908WAT    EPW32354   4.344   1.286   4.828 -0.0767 -0.0373 -0.0565
 7909WAT      O32355   5.845   0.247   2.610  0.0019 -0.4886  0.1991
 7909WAT     H132356   5.878   0.181   2.657 -0.2858 -0.9718 -0.2643
 7909WAT     H232357   5.812   0.300   2.670 -0.0467 -0.9285  0.5679
 7909WAT    EPW32358   5.845   0.245   2.626 -0.0478 -0.6250  0.1851
 7910WAT      O32359   2.482   3.206   2.550 -0.0276 -0.0790 -0.1757
 7910WAT     H132360   2.459   3.200   2.466 -0.7387 -1.6657  0.0871
 7910WAT     H232361   2.557   3.162   2.554 -0.1406 -0.2558  0.0572
 7910WAT    EPW32362   2.489   3.199   2.539 -0.1494 -0.3395 -0.1025
 7911WAT      O32363   4.208   0.079   1.060 -0.3217  0.6070  0.1946
 7911WAT     H132364   4.193   0.110   0.980 -2.2299  0.6619  0.5315
 7911WAT     H232365   4.210   0.150   1.110  1.4335  0.6247  0.1722
 7911WAT    EPW32366   4.206   0.094   1.055 -0.3443  0.6177  0.2411
 7912WAT      O32367   6.795   5.275   0.674  0.0158  0.0025 -0.2872
 7912WAT     H132368   6.848   5.256   0.607 -0.4956  2.8673 -1.6763
 7912WAT     H232369   6.716   5.256   0.643 -0.1317  0.2189 -0.0501
 7912WAT    EPW32370   6.791   5.269   0.659 -0.0815  0.4576 -0.4574
 7913WAT      O32371   2.710   5.694   0.866  0.0928  0.3220 -0.1840
 7913WAT     H132372   2.768   5.630   0.853 -1.1246 -1.1247  1.1410
 7913WAT     H232373   2.748   5.744   0.926  0.2367 -0.3087  0.2626
 7913WAT    EPW32374   2.724   5.692   0.873 -0.0658  0.0151  0.0777
 7914WAT      O32375   5.373   1.783   1.930 -0.5151  0.1037 -0.3601
 7914WAT     H132376   5.414   1.739   1.866  1.1992  0.6827  0.2701
 7914WAT     H232377   5.377   1.729   1.998  0.9757  0.8880  0.2254
 7914WAT    EPW32378   5.380   1.768   1.931 -0.0416  0.3051 -0.1805
 7915WAT      O32379   7.096   3.654   0.708 -0.0562  1.2081  0.0859
 7915WAT     H132380   7.070   3.715   0.650 -0.4482  1.6217  0.6823
 7915WAT     H232381   7.169   3.689   0.741  0.6509  0.5773 -0.7566
 7915WAT    EPW32382   7.103   3.668   0.704 -0.0096  1.1760  0.0496
 7916WAT      O32383   6.855   0.779   1.989 -0.0121  0.4541 -0.1268
 7916WAT     H132384   6.896   0.703   2.002  1.2434  1.2702  0.9332
 7916WAT     H232385   6.811   0.791   2.064  1.6951  1.8743  0.6993
 7916WAT    EPW32386   6.854   0.770   2.002  0.4256  0.7844  0.1518
 7917WAT      O32387   1.058   3.215   1.673  0.0563  0.2842  0.3945
 7917WAT     H132388   1.004   3.244   1.735  0.4866  0.7899  0.5420
 7917WAT     H232389   1.006   3.204   1.604 -0.3550  0.1078  0.7314
 7917WAT    EPW32390   1.042   3.218   1.672  0.0591  0.3328  0.4661
 7918WAT      O32391   1.587   2.976   0.616 -0.0363 -0.7660 -0.4229
 7918WAT     H132392   1.620   2.903   0.649 -0.7192 -1.0576 -0.3640
 7918WAT     H232393   1.501   2.965   0.624 -0.1368  0.6702  0.9119
 7918WAT    EPW32394   1.579   2.964   0.622 -0.1520 -0.5969 -0.2170
 7919WAT      O32395   2.433   0.784   5.784  0.3447 -0.1640 -0.3906
 7919WAT     H132396   2.451   0.721   5.841 -0.2489 -0.1684 -0.1976
 7919WAT     H232397   2.361   0.755   5.744  0.9959 -0.3750 -1.4679
 7919WAT    EPW32398   2.425   0.771   5.786  0.3532 -0.1958 -0.5213
 7920WAT      O32399   2.528   6.140   0.781 -0.6040 -0.0019  0.1191
 7920WAT     H132400   2.611   6.155   0.803 -0.5439 -1.1650  0.7766
 7920WAT     H232401   2.492   6.111   0.855 -0.9144 -2.0176 -0.7614
 7920WAT    EPW32402   2.535   6.138   0.795 -0.6410 -0.4715  0.0862
 7921WAT      O32403   6.788   5.795   4.246  0.2603 -0.1263 -0.2612
 7921WAT     H132404   6.827   5.814   4.321 -0.9364  0.2300  0.2980
 7921WAT     H232405   6.713   5.757   4.270 -0.3759  0.4351 -1.2327
 7921WAT    EPW32406   6.783   5.792   4.261 -0.0105  0.0093 -0.3221
 7922WAT      O32407   3.526   6.306   1.544  0.0347  0.2231  0.0479
 7922WAT     H132408   3.592   6.349   1.506  0.7714 -0.8708  0.0270
 7922WAT     H232409   3.482   6.273   1.476  0.1015  0.0511  0.0877
 7922WAT    EPW32410   3.529   6.307   1.528  0.1534  0.0361  0.0507
 7923WAT      O32411   2.488   2.444   6.692  0.1145  0.3487 -0.3447
 7923WAT     H132412   2.427   2.415   6.747  0.7817  1.6355  1.1338
 7923WAT     H232413   2.495   2.379   6.634 -0.9869 -0.8371  0.7782
 7923WAT    EPW32414   2.480   2.430   6.692  0.0504  0.3636  0.0396
 7924WAT      O32415   7.193   6.656   4.109 -0.0624  0.1193  0.4087
 7924WAT     H132416   7.159   6.576   4.110 -1.7708  0.7983  0.9470
 7924WAT     H232417   7.278   6.643   4.120 -0.1703 -1.6691 -0.5832
 7924WAT    EPW32418   7.200   6.642   4.111 -0.3307 -0.0446  0.3417
 7925WAT      O32419   6.899   5.235   6.631  0.2380 -0.4463 -0.0968
 7925WAT     H132420   6.980   5.262   6.612 -0.6181  1.3701 -1.5415
 7925WAT     H232421   6.891   5.162   6.585  1.3265 -1.1106  0.7351
 7925WAT    EPW32422   6.910   5.228   6.621  0.2724 -0.2761 -0.1873
 7926WAT      O32423   1.023   5.408   6.577 -0.0921 -0.2461  0.0914
 7926WAT     H132424   0.993   5.440   6.502 -0.3498 -1.5822 -0.4089
 7926WAT     H232425   1.098   5.369   6.554 -0.5591 -1.3507  0.3535
 7926WAT    EPW32426   1.030   5.407   6.563 -0.1991 -0.6066  0.0562
 7927WAT      O32427   3.018   4.662   2.485 -0.1124  0.0212  0.3455
 7927WAT     H132428   2.945   4.636   2.526  1.2736 -0.9178  2.3502
 7927WAT     H232429   3.031   4.600   2.425 -1.4112  0.6778 -0.6691
 7927WAT    EPW32430   3.009   4.649   2.482 -0.0995 -0.0205  0.4918
 7928WAT      O32431   3.390   3.373   2.348  0.3125 -0.4590  0.6204
 7928WAT     H132432   3.474   3.348   2.349  0.5154  0.2018  1.5180
 7928WAT     H232433   3.390   3.444   2.297  0.4482 -0.0413  1.1802
 7928WAT    EPW32434   3.402   3.380   2.341  0.3625 -0.2996  0.8357
 7929WAT      O32435   1.973   4.521   0.499 -0.7808 -0.5740 -0.1490
 7929WAT     H132436   2.031   4.583   0.522 -1.8990  1.1789 -1.7515
 7929WAT     H232437   1.907   4.533   0.555 -1.8941  1.2055 -1.6940
 7929WAT    EPW32438   1.972   4.532   0.511 -1.1104 -0.0522 -0.6139
 7930WAT      O32439   5.264   0.439   6.995  0.3251  0.2138 -0.3025
 7930WAT     H132440   5.191   0.466   6.957 -2.0079 -0.8584  2.9121
 7930WAT     H232441   5.260   0.352   6.986  0.2272  0.0209  1.3410
 7930WAT    EPW32442   5.253   0.430   6.988 -0.0340  0.0269  0.4151
 7931WAT      O32443   3.202   3.451   2.529  0.4461 -0.1355 -0.2438
 7931WAT     H132444   3.266   3.421   2.478  1.9586  0.2634  1.3219
 7931WAT     H232445   3.245   3.495   2.592 -1.4358  1.2164  0.1840
 7931WAT    EPW32446   3.218   3.453   2.531  0.3915  0.1231  0.0507
 7932WAT      O32447   6.262   1.131   0.623 -0.0291 -0.5304 -0.0809
 7932WAT     H132448   6.287   1.060   0.666  0.5174 -0.9118 -0.9837
 7932WAT     H232449   6.286   1.113   0.540 -0.9542  0.2003 -0.5185
 7932WAT    EPW32450   6.269   1.118   0.617 -0.0851 -0.4788 -0.2789
 7933WAT      O32451   6.474   2.217   2.420 -0.5381 -0.1272 -0.1726
 7933WAT     H132452   6.429   2.159   2.374 -0.7429  0.5465 -0.8296
 7933WAT     H232453   6.427   2.226   2.493 -0.3427 -1.0055  0.0747
 7933WAT    EPW32454   6.460   2.209   2.424 -0.5395 -0.1574 -0.2331
 7934WAT      O32455   0.234   2.983   5.486  0.1382  0.1312 -0.3851
 7934WAT     H132456   0.284   3.054   5.478  0.6937 -0.2122 -0.0309
 7934WAT     H232457   0.198   2.992   5.565  0.7323 -0.3015 -0.0557
 7934WAT    EPW32458   0.236   2.995   5.497  0.3080  0.0166 -0.2841
 7935WAT      O32459   5.051   3.764   6.860 -0.2105 -0.3624 -0.2881
 7935WAT     H132460   5.047   3.800   6.940 -3.0472 -1.1909  0.0582
 7935WAT     H232461   5.110   3.700   6.869 -1.5790 -1.4692  1.7099
 7935WAT    EPW32462   5.059   3.760   6.873 -0.8317 -0.6483  0.0582
 7936WAT      O32463   3.617   2.304   2.760 -0.0797 -0.1427 -0.2331
 7936WAT     H132464   3.659   2.373   2.727  1.2251 -1.1301 -0.7183
 7936WAT     H232465   3.533   2.328   2.758  0.3262  1.3298 -0.6062
 7936WAT    EPW32466   3.611   2.318   2.755  0.1730 -0.0710 -0.3599
 7937WAT      O32467   0.608   5.406   6.566  0.1103  0.2902 -0.1111
 7937WAT     H132468   0.668   5.462   6.539  0.5457 -0.2731 -0.3348
 7937WAT     H232469   0.574   5.444   6.637  0.9509  0.4740  0.2023
 7937WAT    EPW32470   0.612   5.420   6.572  0.2988  0.2341 -0.0979
 7938WAT      O32471   4.996   5.119   4.448 -0.4066 -0.5630 -0.6562
 7938WAT     H132472   4.997   5.040   4.411  0.9476 -0.9141  0.0352
 7938WAT     H232473   5.030   5.105   4.527  1.9720  0.9942 -1.2650
 7938WAT    EPW32474   5.001   5.105   4.454  0.1448 -0.3848 -0.6440
 7939WAT      O32475   5.336   3.639   4.078 -0.9111  0.0733 -0.3893
 7939WAT     H132476   5.336   3.554   4.059 -0.2634  0.3375 -1.6865
 7939WAT     H232477   5.339   3.677   4.000  1.1254  1.2574  0.1950
 7939WAT    EPW32478   5.337   3.632   4.064 -0.5146  0.2873 -0.4946
 7940WAT      O32479   2.088   0.462   6.930  0.3685  0.0824  0.1506
 7940WAT     H132480   2.091   0.521   6.866  1.4899  1.1514  1.1523
 7940WAT     H232481   2.163   0.418   6.922  0.4528  0.1330  0.6468
 7940WAT    EPW32482   2.099   0.464   6.919  0.5466  0.2478  0.3719
 7941WAT      O32483   0.471   3.582   4.965  0.1031  0.2430  0.3503
 7941WAT     H132484   0.448   3.499   4.977 -1.0142  0.6488  1.1434
 7941WAT     H232485   0.434   3.624   5.031 -0.0159  1.4939 -0.4747
 7941WAT    EPW32486   0.462   3.576   4.976 -0.0795  0.4877  0.3456
 7942WAT      O32487   2.419   2.590   4.576  0.1528 -0.2913  0.2509
 7942WAT     H132488   2.425   2.538   4.645 -1.3469  1.3778  1.7563
 7942WAT     H232489   2.489   2.570   4.528  1.4601 -1.2385  2.4372
 7942WAT    EPW32490   2.430   2.579   4.579  0.1244 -0.1846  0.7962
 7943WAT      O32491   0.213   5.876   4.410  0.4118  0.0674 -0.1841
 7943WAT     H132492   0.221   5.791   4.393 -0.6125 -0.1319  0.2333
 7943WAT     H232493   0.290   5.898   4.444  2.5547  0.4587 -4.5837
 7943WAT    EPW32494   0.226   5.867   4.413  0.5771  0.0958 -0.7723
 7944WAT      O32495   2.847   1.634   6.864 -0.1707  0.0737  0.3763
 7944WAT     H132496   2.838   1.690   6.930  0.9585 -1.0909  1.5804
 7944WAT     H232497   2.933   1.628   6.853 -0.3156 -0.3114 -0.7349
 7944WAT    EPW32498   2.858   1.641   6.872 -0.0253 -0.1552  0.3900
 7945WAT      O32499   5.948   3.660   5.012  0.4580  0.4001 -0.0832
 7945WAT     H132500   5.909   3.708   5.073  0.7865 -1.3764  1.5942
 7945WAT     H232501   6.011   3.618   5.055 -0.3299 -2.1837 -1.2550
 7945WAT    EPW32502   5.952   3.661   5.027  0.3901 -0.2440 -0.0085
 7946WAT      O32503   2.625   6.127   4.321 -0.5764 -0.0030 -0.1957
 7946WAT     H132504   2.630   6.144   4.407 -0.1461  0.0159 -0.2219
 7946WAT     H232505   2.540   6.116   4.307 -0.5869 -0.6914  0.3671
 7946WAT    EPW32506   2.613   6.128   4.332 -0.5144 -0.1019 -0.1164
 7947WAT      O32507   0.536   2.394   5.721  0.2215 -0.2599 -0.4947
 7947WAT     H132508   0.473   2.371   5.777 -0.5710 -0.7933 -1.5724
 7947WAT     H232509   0.507   2.365   5.644  1.9559 -0.8021 -0.9749
 7947WAT    EPW32510   0.523   2.387   5.718  0.3606 -0.4188 -0.7248
 7948WAT      O32511   4.751   4.604   7.304  0.2106 -0.1178 -0.0354
 7948WAT     H132512   4.767   4.680   7.264 -0.2947 -0.7828 -1.6149
 7948WAT     H232513   4.730   4.551   7.238 -2.0920 -0.9496  1.2445
 7948WAT    EPW32514   4.750   4.607   7.288 -0.2042 -0.3389 -0.0796
 7949WAT      O32515   1.389   3.524   2.089  0.2850 -0.0641  0.3343
 7949WAT     H132516   1.323   3.482   2.051  0.7689 -2.0090  1.5437
 7949WAT     H232517   1.444   3.539   2.023  0.1502 -1.4620 -0.1278
 7949WAT    EPW32518   1.387   3.520   2.074  0.3366 -0.5579  0.4447
 7950WAT      O32519   5.142   6.464   5.169 -0.0607 -0.0553  0.8490
 7950WAT     H132520   5.056   6.460   5.185  0.0316  0.2253  1.4319
 7950WAT     H232521   5.146   6.492   5.087 -0.5149  2.3468  1.5865
 7950WAT    EPW32522   5.130   6.467   5.159 -0.1141  0.3410  1.0440
 7951WAT      O32523   1.576   1.336   7.014  0.0644 -0.4205  0.3454
 7951WAT     H132524   1.655   1.299   7.003  0.4533  0.0780  1.3705
 7951WAT     H232525   1.565   1.337   7.100 -1.6736 -1.6823  0.1885
 7951WAT    EPW32526   1.586   1.331   7.025 -0.1349 -0.5332  0.4736
 7952WAT      O32527   5.713   7.213   2.966  0.1726  0.0809  0.4293
 7952WAT     H132528   5.648   7.157   2.951  0.2144  0.3263 -0.7489
 7952WAT     H232529   5.671   7.287   2.987  0.0933 -0.0228  0.6419
 7952WAT    EPW32530   5.697   7.216   2.967  0.1670  0.1018  0.2867
 7953WAT      O32531   5.887   7.007   2.587  0.0086 -0.1344 -0.3147
 7953WAT     H132532   5.961   7.053   2.575  1.1276 -1.7487  0.1005
 7953WAT     H232533   5.915   6.932   2.620 -1.9994 -0.1048  1.6476
 7953WAT    EPW32534   5.902   7.003   2.590 -0.1227 -0.3685  0.0365
 7954WAT      O32535   5.399   6.686   2.899 -0.2091  0.2647 -0.1677
 7954WAT     H132536   5.457   6.621   2.905 -1.9419 -1.2635  1.1372
 7954WAT     H232537   5.423   6.741   2.962  0.2327 -0.0033 -0.0970
 7954WAT    EPW32538   5.411   6.684   2.909 -0.3998 -0.0007  0.0355
 7955WAT      O32539   4.656   5.473   0.103  0.1125 -0.1261  0.0704
 7955WAT     H132540   4.619   5.417   0.159  1.0981  0.7014  1.6213
 7955WAT     H232541   4.738   5.479   0.131  0.5629  0.5610 -1.3079
 7955WAT    EPW32542   4.663   5.466   0.115  0.3247  0.0976  0.0959
 7956WAT      O32543   3.833   7.131   1.653  0.6308  0.8012 -0.2873
 7956WAT     H132544   3.860   7.049   1.665  0.0687  0.8720  1.9937
 7956WAT     H232545   3.831   7.164   1.734 -1.5870  2.2729 -0.8408
 7956WAT    EPW32546   3.836   7.124   1.667  0.2202  1.0291 -0.0321
 7957WAT      O32547   3.997   0.443   2.595 -0.3598 -0.2234 -0.1639
 7957WAT     H132548   3.973   0.403   2.669 -0.7437  0.7035  0.2281
 7957WAT     H232549   4.049   0.385   2.556  1.3134 -0.0825  1.6791
 7957WAT    EPW32550   4.001   0.429   2.600 -0.1694 -0.0656  0.1663
 7958WAT      O32551   1.652   2.966   5.751 -0.5128  0.0460 -0.6851
 7958WAT     H132552   1.594   2.921   5.797 -0.7858  1.5697  0.5670
 7958WAT     H232553   1.605   3.005   5.689 -0.3534 -0.9675 -1.4576
 7958WAT    EPW32554   1.637   2.965   5.749 -0.5296  0.1214 -0.6143
 7959WAT      O32555   3.502   6.325   3.178 -0.0444 -0.3495 -0.3479
 7959WAT     H132556   3.502   6.367   3.102  1.9810 -0.2985 -0.3707
 7959WAT     H232557   3.516   6.242   3.156 -1.3506 -0.6543 -0.1196
 7959WAT    EPW32558   3.504   6.319   3.164  0.0618 -0.3870 -0.3176
 7960WAT      O32559   4.602   1.861   0.404  0.0993  0.2161  0.0995
 7960WAT     H132560   4.580   1.823   0.329 -0.6331 -0.0045  0.4115
 7960WAT     H232561   4.625   1.941   0.380 -0.2667  0.1949 -0.3482
 7960WAT    EPW32562   4.602   1.867   0.389 -0.0629  0.1804  0.0795
 7961WAT      O32563   4.668   6.641   3.999  0.0071 -0.0241  0.1968
 7961WAT     H132564   4.624   6.698   4.049 -0.0139 -0.1313  0.3006
 7961WAT     H232565   4.731   6.689   3.963 -1.2299  0.5649 -1.3412
 7961WAT    EPW32566   4.671   6.656   4.001 -0.1788  0.0471 -0.0150
 7962WAT      O32567   7.160   0.130   3.262  0.5337  0.6735 -0.6270
 7962WAT     H132568   7.159   0.107   3.177 -0.1767 -2.7226  0.1678
 7962WAT     H232569   7.233   0.094   3.292  0.5040  1.3777  0.3484
 7962WAT    EPW32570   7.171   0.122   3.254  0.4244  0.2759 -0.3655
 7963WAT      O32571   6.351   2.625   0.110 -0.3618 -0.4045  0.0607
 7963WAT     H132572   6.321   2.544   0.101 -1.3797 -0.2316  1.5420
 7963WAT     H232573   6.281   2.675   0.095 -0.1992  0.1194  0.9881
 7963WAT    EPW32574   6.336   2.621   0.107 -0.4882 -0.3016  0.4165
 7964WAT      O32575   3.665   6.713   1.692  0.1429 -0.3132 -0.4917
 7964WAT     H132576   3.649   6.635   1.729 -0.1265  0.5035  1.1783
 7964WAT     H232577   3.621   6.709   1.617 -0.2896 -1.5846 -0.2006
 7964WAT    EPW32578   3.657   6.701   1.686  0.0392 -0.3804 -0.2020
 7965WAT      O32579   1.919   3.570   0.933 -0.1906  0.0107  0.0937
 7965WAT     H132580   1.878   3.622   0.989 -1.2761 -0.5003 -0.2055
 7965WAT     H232581   1.888   3.491   0.951 -0.3738 -0.2003 -1.0427
 7965WAT    EPW32582   1.908   3.566   0.944 -0.3780 -0.0960 -0.1183
 7966WAT      O32583   5.417   5.492   1.014 -0.4004 -0.2570 -0.1476
 7966WAT     H132584   5.501   5.468   1.007 -0.5918 -0.7760 -0.7957
 7966WAT     H232585   5.401   5.532   0.938 -0.8609 -0.5400 -0.2015
 7966WAT    EPW32586   5.427   5.495   1.002 -0.4967 -0.3755 -0.2513
 7967WAT      O32587   3.660   6.549   6.774  0.6696 -0.2087  0.0321
 7967WAT     H132588   3.688   6.582   6.698 -0.2758 -1.0098 -0.6907
 7967WAT     H232589   3.628   6.618   6.816 -1.8704 -0.1901 -1.7244
 7967WAT    EPW32590   3.660   6.564   6.769  0.1548 -0.3243 -0.3342
 7968WAT      O32591   5.644   0.684   5.202 -0.1115 -0.1760 -0.2080
 7968WAT     H132592   5.685   0.745   5.250  2.1101 -0.0429 -2.0460
 7968WAT     H232593   5.671   0.609   5.236  0.9908 -0.0802 -0.8078
 7968WAT    EPW32594   5.654   0.682   5.214  0.3795 -0.1422 -0.5681
 7969WAT      O32595   4.210   4.450   2.625 -0.0747  0.5985  0.0551
 7969WAT     H132596   4.206   4.526   2.667 -1.8359  0.0161  1.0806
 7969WAT     H232597   4.281   4.412   2.659 -0.4359  0.9006  1.2097
 7969WAT    EPW32598   4.220   4.455   2.636 -0.3882  0.5571  0.3772
 7970WAT      O32599   0.671   2.675   0.804  0.0750 -0.3155 -0.6526
 7970WAT     H132600   0.613   2.738   0.785 -1.6319 -1.6870 -0.2659
 7970WAT     H232601   0.742   2.720   0.829 -0.6545  1.4407 -1.5259
 7970WAT    EPW32602   0.673   2.691   0.805 -0.2849 -0.2587 -0.7245
 7971WAT      O32603   0.232   1.645   5.569 -0.0863 -0.2920 -0.5767
 7971WAT     H132604   0.208   1.582   5.513 -0.2720  0.8996 -1.8797
 7971WAT     H232605   0.156   1.675   5.599 -0.1868  1.3275 -2.2851
 7971WAT    EPW32606   0.217   1.640   5.565 -0.1286  0.1233 -1.0215
 7972WAT      O32607   2.042   2.598   3.653 -0.1696 -0.0850 -0.0872
 7972WAT     H132608   1.994   2.531   3.683 -1.4044  0.5370 -0.5916
 7972WAT     H232609   1.999   2.668   3.681  0.7768  0.5078 -0.0771
 7972WAT    EPW32610   2.028   2.598   3.661 -0.2122  0.0945 -0.1602
 7973WAT      O32611   3.204   0.217   1.141 -0.6047  0.1131  0.2196
 7973WAT     H132612   3.249   0.225   1.067  0.5402 -1.1647  0.7191
 7973WAT     H232613   3.266   0.214   1.202 -1.2894 -2.0487  0.9194
 7973WAT    EPW32614   3.220   0.218   1.139 -0.5367 -0.3950  0.3968
 7974WAT      O32615   0.014   4.166   0.076 -0.7073 -0.4809  0.1366
 7974WAT     H132616  -0.004   4.226   0.015 -2.0433 -0.9065  0.0834
 7974WAT     H232617   0.054   4.213   0.138 -1.1901  0.3591 -0.1593
 7974WAT    EPW32618   0.017   4.182   0.076 -0.9760 -0.4197  0.0850
 7975WAT      O32619   4.768   4.938   6.400 -0.0591  0.5952  0.1568
 7975WAT     H132620   4.753   4.853   6.392  1.2505  0.4870 -2.1643
 7975WAT     H232621   4.729   4.972   6.330 -0.6750  1.9372  1.1145
 7975WAT    EPW32622   4.760   4.931   6.388  0.0434  0.7775 -0.0446
 7976WAT      O32623   2.073   4.813   3.642  0.1067 -0.2569 -0.0440
 7976WAT     H132624   2.030   4.829   3.717 -1.7600 -0.1486 -1.0759
 7976WAT     H232625   2.082   4.726   3.643  0.3231 -0.2363  0.4056
 7976WAT    EPW32626   2.068   4.802   3.653 -0.1371 -0.2379 -0.1300
 7977WAT      O32627   1.707   5.069   3.506 -0.2198  0.3487  0.2963
 7977WAT     H132628   1.724   4.986   3.525  1.1662  0.2212 -1.3128
 7977WAT     H232629   1.778   5.112   3.533 -0.9812  1.0747  1.2506
 7977WAT    EPW32630   1.720   5.063   3.513 -0.1275  0.4371  0.1996
 7978WAT      O32631   1.464   5.686   2.672 -0.1420 -0.1381  0.0917
 7978WAT     H132632   1.482   5.626   2.733 -1.6128 -0.6947  0.0248
 7978WAT     H232633   1.408   5.740   2.713 -0.9210 -0.3560 -0.6685
 7978WAT    EPW32634   1.459   5.685   2.687 -0.4743 -0.2525 -0.0305
 7979WAT      O32635   0.414   0.114   1.951  0.1328  0.4519  0.2936
 7979WAT     H132636   0.452   0.185   1.984  1.3779  0.5146 -1.1730
 7979WAT     H232637   0.477   0.077   1.903 -0.3025 -1.9356  1.3712
 7979WAT    EPW32638   0.429   0.119   1.949  0.2524  0.1085  0.2361
 7980WAT      O32639   1.777   4.742   4.236 -0.4194  0.0665  0.0788
 7980WAT     H132640   1.839   4.803   4.227 -0.0916 -0.3506 -0.5485
 7980WAT     H232641   1.718   4.780   4.287  0.1510  0.6277  0.3358
 7980WAT    EPW32642   1.778   4.756   4.242 -0.2867  0.0878  0.0241
 7981WAT      O32643   1.933   3.066   1.970  0.2116 -0.0548 -0.3492
 7981WAT     H132644   1.857   3.106   1.986  0.1969 -0.3961  0.4984
 7981WAT     H232645   1.931   2.997   2.023  1.3749  0.2647  0.1494
 7981WAT    EPW32646   1.921   3.062   1.980  0.3813 -0.0580 -0.1503
 7982WAT      O32647   1.194   1.675   5.849 -0.4753 -0.0391  0.6755
 7982WAT     H132648   1.258   1.620   5.826 -0.9321 -0.9395  1.4921
 7982WAT     H232649   1.216   1.701   5.930 -1.9588 -1.6967  1.6855
 7982WAT    EPW32650   1.206   1.671   5.858 -0.7619 -0.4170  0.9453
 7983WAT      O32651   3.095   5.901   6.919 -0.3545  0.0664 -0.2632
 7983WAT     H132652   3.162   5.857   6.955 -0.6591 -0.7812 -0.7195
 7983WAT     H232653   3.030   5.891   6.977 -0.7476 -1.0225 -0.8741
 7983WAT    EPW32654   3.096   5.893   6.933 -0.4576 -0.2196 -0.4208
 7984WAT      O32655   3.059   5.553   1.306 -0.4256 -0.0125 -0.5402
 7984WAT     H132656   3.042   5.598   1.233 -1.1162 -0.6693 -0.8040
 7984WAT     H232657   3.145   5.540   1.303 -0.3732  0.4235 -0.9691
 7984WAT    EPW32658   3.069   5.558   1.295 -0.5198 -0.0451 -0.6425
 7985WAT      O32659   5.415   0.684   5.722 -0.3051  0.5994  0.0454
 7985WAT     H132660   5.471   0.618   5.736 -0.7554  0.0933 -0.4827
 7985WAT     H232661   5.403   0.683   5.635 -1.3283  0.5362  0.1806
 7985WAT    EPW32662   5.421   0.674   5.711 -0.5228  0.5153 -0.0127
 7986WAT      O32663   4.143   5.052   1.176 -0.4431 -0.1802 -0.3583
 7986WAT     H132664   4.226   5.077   1.170 -0.6798  0.5764 -0.5284
 7986WAT     H232665   4.103   5.097   1.113 -1.2543  0.6689  0.7233
 7986WAT    EPW32666   4.150   5.062   1.166 -0.5979  0.0570 -0.2237
 7987WAT      O32667   7.106   0.417   2.994 -0.3372 -0.2285  0.0408
 7987WAT     H132668   7.100   0.386   3.075  2.0357 -2.0534 -0.3487
 7987WAT     H232669   7.192   0.411   2.977 -0.6648  0.8136 -2.3390
 7987WAT    EPW32670   7.118   0.412   3.003 -0.0350 -0.3441 -0.3683
 7988WAT      O32671   7.007   3.994   2.923 -0.0497  0.1830  0.3616
 7988WAT     H132672   6.926   4.017   2.949 -0.6126 -1.3796  0.1095
 7988WAT     H232673   7.039   4.067   2.888 -2.1021  0.3742 -1.3377
 7988WAT    EPW32674   7.000   4.008   2.922 -0.4360 -0.0196  0.0734
 7989WAT      O32675   6.314   4.489   0.381 -0.0317  0.2305  0.7333
 7989WAT     H132676   6.249   4.496   0.439  0.0222 -1.1865  0.9920
 7989WAT     H232677   6.380   4.455   0.428 -0.4022 -2.2509 -0.3797
 7989WAT    EPW32678   6.314   4.485   0.396 -0.0785 -0.3454  0.6071
 7990WAT      O32679   6.612   0.057   0.689 -0.0537 -0.3029 -0.1573
 7990WAT     H132680   6.660  -0.016   0.684 -0.0808 -0.2361 -2.0088
 7990WAT     H232681   6.570   0.049   0.765  0.6197 -1.7922  0.0837
 7990WAT    EPW32682   6.613   0.045   0.700  0.0418 -0.5130 -0.3952
 7991WAT      O32683   0.933   6.876   0.459  0.2083 -0.4952 -0.1195
 7991WAT     H132684   1.012   6.885   0.495  0.8896 -0.2133 -1.6028
 7991WAT     H232685   0.914   6.792   0.475  1.3230 -0.8861 -0.6930
 7991WAT    EPW32686   0.942   6.865   0.466  0.4736 -0.5113 -0.4233
 7992WAT      O32687   3.827   1.843   1.268 -0.1101  0.0913  0.0491
 7992WAT     H132688   3.857   1.873   1.191  0.2979  0.1782  0.2392
 7992WAT     H232689   3.817   1.758   1.254  2.1752 -0.3310  0.5688
 7992WAT    EPW32690   3.830   1.835   1.255  0.2877  0.0418  0.1540
 7993WAT      O32691   3.970   2.011   3.052 -0.4403  0.3949 -0.3516
 7993WAT     H132692   3.939   1.981   3.128 -0.9497  1.1633 -0.2483
 7993WAT     H232693   4.048   2.044   3.074  0.7938 -2.0084 -0.7047
 7993WAT    EPW32694   3.977   2.011   3.067 -0.3333  0.1534 -0.3885
 7994WAT      O32695   2.647   6.420   3.225 -0.1228 -0.3312  0.3949
 7994WAT     H132696   2.660   6.418   3.311 -0.4578 -2.2214  0.4534
 7994WAT     H232697   2.575   6.372   3.214 -0.3014  0.1898 -0.9075
 7994WAT    EPW32698   2.639   6.412   3.236 -0.1987 -0.5335  0.2111
 7995WAT      O32699   2.266   4.615   1.400 -0.1334  0.0276 -0.8212
 7995WAT     H132700   2.280   4.694   1.435 -0.3522  0.5263 -1.8261
 7995WAT     H232701   2.203   4.581   1.450 -0.9526  1.0146 -1.1552
 7995WAT    EPW32702   2.259   4.622   1.412 -0.2867  0.2470 -1.0190
 7996WAT      O32703   1.697   0.999   3.183 -0.1999  0.7779 -0.4015
 7996WAT     H132704   1.750   1.057   3.221  0.3311 -0.3123  0.5564
 7996WAT     H232705   1.748   0.957   3.127 -0.3135  0.4622 -0.2697
 7996WAT    EPW32706   1.712   1.002   3.180 -0.1383  0.5702 -0.2405
 7997WAT      O32707   5.823   7.014   1.507 -0.2515  0.3587  0.1261
 7997WAT     H132708   5.869   6.951   1.468  1.1647  0.7988  1.0290
 7997WAT     H232709   5.762   6.970   1.551  0.0917 -0.3214 -0.0598
 7997WAT    EPW32710   5.820   6.998   1.508  0.0084  0.3232  0.2320
 7998WAT      O32711   4.886   0.220   6.358  0.3708  0.3254 -0.2970
 7998WAT     H132712   4.839   0.264   6.417  0.7927 -0.5402  0.7078
 7998WAT     H232713   4.831   0.211   6.291 -0.6647 -0.0702  0.5868
 7998WAT    EPW32714   4.871   0.225   6.357  0.2802  0.1391 -0.0180
 7999WAT      O32715   2.436   2.109   2.099 -0.1387 -0.5919  0.7296
 7999WAT     H132716   2.422   2.029   2.067 -2.6821  0.2133 -0.4558
 7999WAT     H232717   2.427   2.099   2.185 -0.7442 -1.5190  0.5693
 7999WAT    EPW32718   2.433   2.096   2.107 -0.6039 -0.6099  0.5308
 8000WAT      O32719   0.201   2.780   3.117 -0.1671  0.0673  0.6145
 8000WAT     H132720   0.117   2.802   3.125  0.1174  1.9878 -0.8526
 8000WAT     H232721   0.204   2.738   3.040  0.2634  0.2455  0.5339
 8000WAT    EPW32722   0.189   2.777   3.107 -0.0615  0.3774  0.3858
 8001WAT      O32723   0.998   3.871   2.143 -0.1445 -0.0097 -0.5358
 8001WAT     H132724   1.006   3.945   2.188 -1.1045 -0.6814  0.8031
 8001WAT     H232725   1.075   3.832   2.152  0.3429  0.7740 -1.1913
 8001WAT    EPW32726   1.011   3.876   2.151 -0.2143  0.0068 -0.4349
 8002WAT      O32727   1.753   6.290   6.049  0.0182  0.4079  0.2185
 8002WAT     H132728   1.840   6.290   6.049  0.0529 -0.8321 -0.8247
 8002WAT     H232729   1.732   6.371   6.075  1.4591  0.6316  0.7871
 8002WAT    EPW32730   1.763   6.302   6.053  0.2361  0.2578  0.1484
 8003WAT      O32731   0.475   5.136   1.479  0.1346 -0.2159  0.5655
 8003WAT     H132732   0.442   5.187   1.417  3.7817  0.2757 -1.2754
 8003WAT     H232733   0.480   5.058   1.441  1.8183 -0.0480  0.3355
 8003WAT    EPW32734   0.471   5.132   1.464  0.9221 -0.1185  0.2596
 8004WAT      O32735   3.540   3.639   6.101 -0.1405  0.1689 -0.5214
 8004WAT     H132736   3.579   3.610   6.029  1.3327 -0.6590  0.5494
 8004WAT     H232737   3.560   3.724   6.103 -0.5800  0.2988 -1.2976
 8004WAT    EPW32738   3.548   3.648   6.091  0.0122  0.0658 -0.4779
 8005WAT      O32739   1.577   7.177   1.587  0.4460  0.3321  0.2968
 8005WAT     H132740   1.524   7.137   1.643 -2.3061  1.9928 -0.8958
 8005WAT     H232741   1.608   7.245   1.632 -0.3469  0.6706  0.3469
 8005WAT    EPW32742   1.573   7.181   1.602 -0.0777  0.6274  0.1280
 8006WAT      O32743   2.016   4.524   5.923 -0.0103  0.3388  0.6391
 8006WAT     H132744   2.027   4.476   5.995  0.1194  0.6011  0.7952
 8006WAT     H232745   1.949   4.576   5.944 -0.6345 -0.2709  0.2082
 8006WAT    EPW32746   2.008   4.524   5.937 -0.0833  0.2875  0.5985
 8007WAT      O32747   4.869   4.558   3.295  0.0902 -0.2402  0.2778
 8007WAT     H132748   4.798   4.512   3.315 -0.6105  1.1432  1.1839
 8007WAT     H232749   4.888   4.600   3.369  0.5433  1.0729 -0.5398
 8007WAT    EPW32750   4.861   4.558   3.309  0.0536  0.1581  0.2909
 8008WAT      O32751   4.378   7.019   6.980 -0.4995 -0.5280  0.1618
 8008WAT     H132752   4.352   6.961   7.040 -0.9557 -1.8173 -1.2248
 8008WAT     H232753   4.427   6.972   6.926 -1.2805  0.2373 -1.2746
 8008WAT    EPW32754   4.381   7.004   6.981 -0.6823 -0.6054 -0.2552
 8009WAT      O32755   2.344   4.926   1.730  0.6240  0.3147 -0.2629
 8009WAT     H132756   2.381   4.995   1.768 -1.1749  2.2948 -1.8490
 8009WAT     H232757   2.262   4.952   1.716  0.4488 -1.2651 -2.9362
 8009WAT    EPW32758   2.337   4.940   1.733  0.3324  0.3738 -0.8921
 8010WAT      O32759   5.154   7.191   0.324 -0.0301 -0.1686 -0.3303
 8010WAT     H132760   5.196   7.117   0.306  0.1779  0.2213 -1.5091
 8010WAT     H232761   5.087   7.191   0.268 -0.2359  0.3527 -0.0923
 8010WAT    EPW32762   5.150   7.180   0.313 -0.0298 -0.0340 -0.4693
 8011WAT      O32763   2.739   5.625   5.844  0.1595 -0.2896  0.3448
 8011WAT     H132764   2.759   5.610   5.927 -0.5315  1.4433  0.8639
 8011WAT     H232765   2.677   5.565   5.827  0.7786 -1.0995  0.8352
 8011WAT    EPW32766   2.733   5.614   5.853  0.1489 -0.1533  0.4939
 8012WAT      O32767   0.381   2.746   5.460  0.3735  0.3105  0.0379
 8012WAT     H132768   0.454   2.750   5.508  1.1145  2.9577 -1.1133
 8012WAT     H232769   0.341   2.822   5.477 -1.6934 -0.6785 -0.0683
 8012WAT    EPW32770   0.386   2.758   5.470  0.1777  0.5554 -0.1478
 8013WAT      O32771   3.520   3.563   7.014  0.1877 -0.0450  0.0901
 8013WAT     H132772   3.505   3.525   6.937 -1.3447  0.0099  0.3401
 8013WAT     H232773   3.538   3.496   7.067  1.2247 -0.0850 -0.2851
 8013WAT    EPW32774   3.521   3.548   7.010  0.1145 -0.0428  0.0716
 8014WAT      O32775   2.297   0.871   6.048 -0.0760  0.2078 -0.1890
 8014WAT     H132776   2.262   0.792   6.060  0.0478  0.0727 -0.7010
 8014WAT     H232777   2.322   0.870   5.965 -1.4383  1.3247 -0.6475
 8014WAT    EPW32778   2.295   0.859   6.038 -0.2589  0.3528 -0.3324
 8015WAT      O32779   1.382   2.056   1.532 -1.0563  0.0705 -0.3360
 8015WAT     H132780   1.345   2.113   1.477 -2.0013  0.8268  1.0086
 8015WAT     H232781   1.322   2.047   1.595 -0.4015 -1.4823  0.1079
 8015WAT    EPW32782   1.368   2.063   1.533 -1.0992 -0.0472 -0.0718
 8016WAT      O32783   4.613   5.967   5.050  0.1259 -0.3227  0.3256
 8016WAT     H132784   4.568   5.943   5.121 -1.3361  1.4042  0.0703
 8016WAT     H232785   4.650   5.893   5.024 -1.1583 -1.4919  1.5877
 8016WAT    EPW32786   4.612   5.952   5.057 -0.2798 -0.2404  0.4744
 8017WAT      O32787   6.690   4.780   0.773  0.0605 -0.1350 -0.6639
 8017WAT     H132788   6.738   4.849   0.799 -0.9607  1.0119 -1.6775
 8017WAT     H232789   6.636   4.766   0.840 -1.8656  2.1443 -1.5864
 8017WAT    EPW32790   6.689   4.788   0.787 -0.3749  0.3711 -0.9499
 8018WAT      O32791   4.152   1.113   4.899  0.2207  0.1762  0.1510
 8018WAT     H132792   4.165   1.073   4.976  0.9198  2.7172  1.4652
 8018WAT     H232793   4.078   1.158   4.911  0.0686  0.2217 -0.8564
 8018WAT    EPW32794   4.143   1.114   4.912  0.3015  0.5583  0.1963
 8019WAT      O32795   3.232   6.672   0.510 -0.3624  0.0438 -0.6148
 8019WAT     H132796   3.264   6.711   0.439  0.1910  0.4876 -0.1282
 8019WAT     H232797   3.298   6.675   0.567 -0.5098 -1.0452 -0.3483
 8019WAT    EPW32798   3.247   6.678   0.508 -0.3024 -0.0515 -0.5035
 8020WAT      O32799   6.349   6.519   1.221  0.2388 -0.6950  0.3625
 8020WAT     H132800   6.285   6.565   1.183  0.7877 -1.2623 -1.3649
 8020WAT     H232801   6.402   6.581   1.252 -0.1892 -0.1810  0.0859
 8020WAT    EPW32802   6.348   6.535   1.220  0.2566 -0.7029  0.0665
 8021WAT      O32803   1.867   3.964   6.199  0.2831 -0.2885  0.5124
 8021WAT     H132804   1.870   3.880   6.177 -0.9612 -0.1314 -0.3679
 8021WAT     H232805   1.843   4.004   6.125  1.2127  0.9017  0.8118
 8021WAT    EPW32806   1.864   3.958   6.185  0.2366 -0.0895  0.4266
 8022WAT      O32807   4.723   6.520   1.822 -0.0648  0.0095  0.2170
 8022WAT     H132808   4.743   6.593   1.866 -0.9940  0.0477  0.5898
 8022WAT     H232809   4.745   6.456   1.877  1.7497 -0.0561 -0.5157
 8022WAT    EPW32810   4.730   6.521   1.836  0.0660  0.0055  0.1638
 8023WAT      O32811   0.764   3.928   2.373  0.1146 -0.3163  0.2633
 8023WAT     H132812   0.763   4.002   2.328 -0.5384 -0.4538  0.0449
 8023WAT     H232813   0.735   3.868   2.317 -1.7630 -0.2995  1.1592
 8023WAT    EPW32814   0.760   3.930   2.358 -0.2592 -0.3341  0.3634
 8024WAT      O32815   2.729   3.088   2.480 -0.0175 -0.1154  0.0104
 8024WAT     H132816   2.703   3.017   2.436 -0.9449  0.1888  0.0527
 8024WAT     H232817   2.749   3.145   2.416  0.2917 -0.2503 -0.0180
 8024WAT    EPW32818   2.728   3.086   2.464 -0.1088 -0.0904  0.0124
 8025WAT      O32819   3.478   1.000   2.365 -0.0254 -1.1257 -0.2676
 8025WAT     H132820   3.498   0.967   2.443 -0.6582 -0.3731  0.2224
 8025WAT     H232821   3.496   0.935   2.310 -0.1037 -1.8596  0.5616
 8025WAT    EPW32822   3.484   0.986   2.369 -0.1304 -1.1229 -0.0727
 8026WAT      O32823   0.938   4.223   4.744 -0.0031 -0.0762  0.6490
 8026WAT     H132824   0.900   4.257   4.674 -0.5219 -1.7411  0.0754
 8026WAT     H232825   1.021   4.212   4.720 -0.4550 -1.8571 -0.2114
 8026WAT    EPW32826   0.944   4.227   4.730 -0.1465 -0.5852  0.4372
 8027WAT      O32827   1.473   0.519   1.832  0.4757 -0.1061 -0.6384
 8027WAT     H132828   1.504   0.480   1.903  1.7749  0.8001 -0.6696
 8027WAT     H232829   1.459   0.454   1.776  0.3758 -0.7235  0.0947
 8027WAT    EPW32830   1.475   0.504   1.834  0.6529 -0.0635 -0.5347
 8028WAT      O32831   2.780   3.003   7.340  0.1782  0.0608 -0.3809
 8028WAT     H132832   2.727   3.071   7.322  1.8815  2.1000  1.6970
 8028WAT     H232833   2.826   2.993   7.266  0.2595  1.5858 -0.5713
 8028WAT    EPW32834   2.779   3.012   7.326  0.4418  0.5873 -0.1021
 8029WAT      O32835   0.847   1.167   1.359  0.3773 -0.1624 -0.1885
 8029WAT     H132836   0.902   1.198   1.299  0.7382 -0.5208 -0.0491
 8029WAT     H232837   0.899   1.145   1.426 -0.0714  0.7196  0.4682
 8029WAT    EPW32838   0.863   1.168   1.360  0.3643 -0.0851 -0.0709
 8030WAT      O32839   3.802   4.011   1.864 -0.0874  0.1496 -0.2313
 8030WAT     H132840   3.756   3.994   1.936  0.1781  0.2705 -0.0297
 8030WAT     H232841   3.774   4.090   1.839  0.3432  0.4296  0.1587
 8030WAT    EPW32842   3.791   4.020   1.871  0.0154  0.2088 -0.1439
 8031WAT      O32843   3.098   1.911   7.277  0.2090 -0.1475  0.3133
 8031WAT     H132844   3.178   1.941   7.297 -0.5018  1.3282  1.1634
 8031WAT     H232845   3.097   1.910   7.190  0.9260  0.4962  0.2866
 8031WAT    EPW32846   3.110   1.915   7.267  0.2099  0.1655  0.4350
 8032WAT      O32847   0.645   6.317   2.461  0.1888  0.0514  0.0743
 8032WAT     H132848   0.720   6.287   2.492 -0.1006  0.3458  1.1007
 8032WAT     H232849   0.624   6.261   2.397  1.0699 -0.2572  0.0550
 8032WAT    EPW32850   0.653   6.304   2.456  0.2762  0.0493  0.2231
 8033WAT      O32851   6.584   1.000   4.206  0.1416  0.1777  0.2250
 8033WAT     H132852   6.554   1.031   4.282  0.2353 -0.3465  0.4831
 8033WAT     H232853   6.537   1.042   4.146 -0.1487  0.3687  0.5829
 8033WAT    EPW32854   6.573   1.010   4.208  0.1126  0.1285  0.3160
 8034WAT      O32855   2.126   0.463   2.448 -0.7550  0.1332 -0.1916
 8034WAT     H132856   2.169   0.427   2.515  3.2979  3.2009 -0.7380
 8034WAT     H232857   2.130   0.402   2.386  0.0966 -0.8861  0.8141
 8034WAT    EPW32858   2.133   0.449   2.449 -0.0305  0.4358 -0.1238
 8035WAT      O32859   6.967   5.551   7.010  0.1143 -0.0348 -0.0474
 8035WAT     H132860   6.961   5.636   6.994 -0.9767  0.1751  1.3436
 8035WAT     H232861   6.993   5.547   7.093 -2.3789 -1.0128  0.7568
 8035WAT    EPW32862   6.970   5.563   7.020 -0.4152 -0.1483  0.2769
 8036WAT      O32863   5.177   3.092   6.318  0.3052  0.1048 -0.3035
 8036WAT     H132864   5.209   3.167   6.288  1.8161 -1.0212 -1.6591
 8036WAT     H232865   5.107   3.077   6.268 -1.1009  1.4155  1.1410
 8036WAT    EPW32866   5.171   3.101   6.306  0.3207  0.1321 -0.2904
 8037WAT      O32867   2.490   0.262   6.248  0.0654  0.2788  0.1756
 8037WAT     H132868   2.481   0.294   6.168  1.2066 -2.5966 -1.2744
 8037WAT     H232869   2.447   0.186   6.245  1.5400 -0.6976  1.7173
 8037WAT    EPW32870   2.482   0.255   6.236  0.4518 -0.2902  0.1891
 8038WAT      O32871   3.820   1.920   2.197  0.3951  0.0068  0.1522
 8038WAT     H132872   3.810   1.914   2.111 -2.4050 -0.5991  0.4202
 8038WAT     H232873   3.831   2.006   2.210  1.1729  0.0696 -0.7912
 8038WAT    EPW32874   3.820   1.932   2.186  0.0963 -0.0735  0.0524
 8039WAT      O32875   5.047   2.526   4.343  0.4664 -0.0386  0.0683
 8039WAT     H132876   4.977   2.552   4.298 -0.1142 -0.7442  0.5437
 8039WAT     H232877   5.025   2.446   4.372  0.5607  0.6116  2.1027
 8039WAT    EPW32878   5.034   2.518   4.341  0.3946 -0.0468  0.4390
 8040WAT      O32879   3.057   7.256   1.482  0.4143 -0.4235  0.2962
 8040WAT     H132880   3.137   7.287   1.495  0.5601 -1.5049  2.3497
 8040WAT     H232881   3.052   7.187   1.535 -1.9159 -0.3150  0.3499
 8040WAT    EPW32882   3.068   7.251   1.492  0.0916 -0.5672  0.6074
 8041WAT      O32883   0.694   3.255   6.487  0.1827  0.0559 -0.9198
 8041WAT     H132884   0.722   3.230   6.566  0.5773 -0.9133 -1.3450
 8041WAT     H232885   0.609   3.235   6.489  0.4185 -1.0838 -1.1255
 8041WAT    EPW32886   0.685   3.248   6.499  0.2758 -0.2556 -1.0130
 8042WAT      O32887   2.701   5.379   1.250  0.0695 -0.1969 -0.0878
 8042WAT     H132888   2.668   5.307   1.287  0.0787  0.3477  1.0099
 8042WAT     H232889   2.633   5.414   1.208 -0.0931 -0.4839 -0.0698
 8042WAT    EPW32890   2.686   5.374   1.249  0.0469 -0.1588  0.0770
 8043WAT      O32891   5.430   2.654   6.357 -0.5200 -0.4631  0.3957
 8043WAT     H132892   5.401   2.713   6.415  0.7862 -1.2924  2.0090
 8043WAT     H232893   5.409   2.578   6.393  0.2936 -1.0011 -0.2229
 8043WAT    EPW32894   5.423   2.652   6.371 -0.2069 -0.6651  0.5427
 8044WAT      O32895   0.653   0.971   2.555 -0.2377 -0.1740 -0.2452
 8044WAT     H132896   0.705   1.039   2.572  0.9411 -0.0496 -3.5192
 8044WAT     H232897   0.574   0.999   2.580  0.6520  1.1952  1.1933
 8044WAT    EPW32898   0.649   0.985   2.561  0.0679  0.0467 -0.5164
 8045WAT      O32899   5.999   0.774   3.618  0.4647 -0.2433  0.0986
 8045WAT     H132900   6.002   0.688   3.632  1.3704 -0.2163  0.1376
 8045WAT     H232901   6.074   0.803   3.651  0.5586  0.4409 -0.6804
 8045WAT    EPW32902   6.010   0.766   3.625  0.6124 -0.1383 -0.0107
 8046WAT      O32903   4.085   0.898   1.231 -0.2178  0.1750  0.0351
 8046WAT     H132904   4.066   0.983   1.228  0.3516  0.2850 -1.1676
 8046WAT     H232905   4.072   0.877   1.315 -3.7522  0.6258 -0.2334
 8046WAT    EPW32906   4.080   0.907   1.243 -0.6558  0.2578 -0.1823
 8047WAT      O32907   5.176   3.369   4.549 -0.4978  0.3378 -0.4980
 8047WAT     H132908   5.207   3.302   4.503 -0.3078 -0.9264  1.3702
 8047WAT     H232909   5.245   3.421   4.560 -0.9702  1.7718 -3.2875
 8047WAT    EPW32910   5.190   3.367   4.544 -0.5395  0.3629 -0.6341
 8048WAT      O32911   2.327   1.787   1.121  0.2639  0.1705 -0.0725
 8048WAT     H132912   2.245   1.813   1.103 -0.2304 -1.4024 -0.2141
 8048WAT     H232913   2.359   1.852   1.169 -0.8943  1.0525 -0.4489
 8048WAT    EPW32914   2.320   1.801   1.126  0.0198  0.0684 -0.1491
 8049WAT      O32915   7.217   3.346   6.526  0.1676 -0.3742 -0.3076
 8049WAT     H132916   7.171   3.415   6.556 -0.5463 -0.8481 -0.2948
 8049WAT     H232917   7.232   3.367   6.443 -3.0331 -1.6727 -1.3409
 8049WAT    EPW32918   7.212   3.360   6.518 -0.4107 -0.6360 -0.4583
 8050WAT      O32919   4.070   1.448   6.241  0.3862  0.0467 -0.3372
 8050WAT     H132920   4.148   1.416   6.261  0.9372 -0.0117 -2.3312
 8050WAT     H232921   4.088   1.520   6.194 -0.7227 -0.1966 -1.1912
 8050WAT    EPW32922   4.084   1.454   6.237  0.3038  0.0021 -0.7579
 8051WAT      O32923   6.987   3.509   4.061  0.4513  0.0937  0.2294
 8051WAT     H132924   7.046   3.568   4.085 -0.2990  1.8768 -1.9401
 8051WAT     H232925   6.952   3.543   3.989 -1.9926 -1.7223  0.4207
 8051WAT    EPW32926   6.990   3.523   4.054 -0.0206  0.0889 -0.0628
 8052WAT      O32927   5.339   5.355   2.382  0.0364  1.3576 -0.4987
 8052WAT     H132928   5.305   5.305   2.319 -2.4025 -0.1944  1.8436
 8052WAT     H232929   5.287   5.425   2.383 -2.2761 -0.2124  1.9148
 8052WAT    EPW32930   5.326   5.358   2.373 -0.6655  0.8964  0.2038
 8053WAT      O32931   1.095   3.104   5.203  0.2569  0.1497 -0.1052
 8053WAT     H132932   1.034   3.102   5.266  0.8354 -0.3841  0.4564
 8053WAT     H232933   1.075   3.034   5.154 -0.7648  1.0915 -1.0972
 8053WAT    EPW32934   1.083   3.093   5.205  0.1914  0.2100 -0.1688
 8054WAT      O32935   6.380   6.562   6.004 -0.4145 -0.1942  0.3437
 8054WAT     H132936   6.398   6.632   6.053 -1.0594 -1.5887  2.7317
 8054WAT     H232937   6.453   6.514   6.010 -1.2501 -1.3639  1.8614
 8054WAT    EPW32938   6.394   6.565   6.012 -0.6332 -0.5730  0.9207
 8055WAT      O32939   2.351   6.077   1.007 -0.1346 -0.0375  0.4090
 8055WAT     H132940   2.274   6.090   0.968 -0.4420 -0.5486  0.8279
 8055WAT     H232941   2.366   6.152   1.049  0.4751  0.7369 -1.1254
 8055WAT    EPW32942   2.342   6.090   1.007 -0.0899  0.0014  0.2442
 8056WAT      O32943   6.376   4.781   6.447 -0.1470  0.2385  0.3498
 8056WAT     H132944   6.463   4.786   6.459 -0.0618 -0.4790  0.1068
 8056WAT     H232945   6.368   4.719   6.385 -0.8044  0.6996 -0.0301
 8056WAT    EPW32946   6.388   4.772   6.439 -0.2315  0.2006  0.2577
 8057WAT      O32947   1.639   2.857   2.060  0.7196  0.1033 -0.1192
 8057WAT     H132948   1.616   2.816   1.987 -0.3747 -0.1618  0.3554
 8057WAT     H232949   1.579   2.831   2.118  2.8212 -1.4595  1.4934
 8057WAT    EPW32950   1.626   2.847   2.058  0.8684 -0.1667  0.1891
 8058WAT      O32951   4.027   6.201   3.976  0.0830  0.2617  0.0817
 8058WAT     H132952   4.072   6.165   4.041 -0.6205  0.1947  0.5415
 8058WAT     H232953   3.951   6.223   4.013 -0.4808 -0.1375 -0.8012
 8058WAT    EPW32954   4.023   6.199   3.991 -0.1042  0.1928  0.0192
 8059WAT      O32955   4.297   0.431   7.418 -0.2177 -0.8360 -0.3368
 8059WAT     H132956   4.363   0.466   7.373  0.2153  1.0192  1.5709
 8059WAT     H232957   4.287   0.353   7.382  3.6518 -1.6207 -0.1868
 8059WAT    EPW32958   4.305   0.425   7.406  0.4179 -0.6778 -0.0328
 8060WAT      O32959   6.557   7.221   6.331  0.2571 -0.2016 -0.0412
 8060WAT     H132960   6.530   7.221   6.248 -0.0168  2.3958 -0.0261
 8060WAT     H232961   6.613   7.154   6.334 -0.6071 -1.0879 -1.9924
 8060WAT    EPW32962   6.562   7.211   6.319  0.0890  0.0512 -0.3272
 8061WAT      O32963   1.811   6.409   3.881  0.2788 -0.4762 -0.3805
 8061WAT     H132964   1.808   6.322   3.875 -0.1025 -0.4170 -1.3476
 8061WAT     H232965   1.770   6.426   3.956  0.8461 -1.1579  0.0901
 8061WAT    EPW32966   1.804   6.398   3.891  0.3063 -0.5682 -0.4538
 8062WAT      O32967   6.927   4.328   5.085 -0.0502  0.3120 -0.1902
 8062WAT     H132968   6.857   4.276   5.089 -1.0285  1.6205  0.6483
 8062WAT     H232969   6.994   4.272   5.081 -1.1161 -0.9845 -0.9063
 8062WAT    EPW32970   6.927   4.312   5.085 -0.3522  0.3138 -0.1721
 8063WAT      O32971   1.935   6.799   4.452 -0.2319 -0.1894  0.3197
 8063WAT     H132972   1.905   6.738   4.398 -0.0100 -0.1043  0.0969
 8063WAT     H232973   1.921   6.874   4.409 -0.4192 -0.0872  0.5508
 8063WAT    EPW32974   1.929   6.801   4.438 -0.2268 -0.1617  0.3210
 8064WAT      O32975   4.404   6.314   2.180 -0.3321 -0.2677 -0.1888
 8064WAT     H132976   4.394   6.234   2.215 -0.4292 -0.0638  0.2585
 8064WAT     H232977   4.439   6.360   2.245  1.4163 -0.3761 -0.9873
 8064WAT    EPW32978   4.408   6.309   2.195 -0.0881 -0.2536 -0.2407
 8065WAT      O32979   5.748   2.729   4.559 -0.1539 -0.4364 -0.4031
 8065WAT     H132980   5.780   2.762   4.485  0.4079 -0.3612 -0.1317
 8065WAT     H232981   5.662   2.743   4.552  0.0799  1.4134 -0.1644
 8065WAT    EPW32982   5.740   2.736   4.547 -0.0364 -0.1520 -0.3278
 8066WAT      O32983   0.939   0.497   0.277 -0.0782  0.1978 -0.1682
 8066WAT     H132984   0.980   0.421   0.288 -0.2258  0.1412 -0.0014
 8066WAT     H232985   0.984   0.552   0.329  0.8860  0.5512 -1.3187
 8066WAT    EPW32986   0.952   0.494   0.286  0.0424  0.2417 -0.3135
 8067WAT      O32987   5.903   6.407   2.822 -0.7734 -0.3397 -0.4271
 8067WAT     H132988   5.876   6.400   2.739 -2.0637 -0.3934 -0.0186
 8067WAT     H232989   5.881   6.331   2.858 -0.7311 -0.1042  0.1108
 8067WAT    EPW32990   5.896   6.395   2.815 -0.9578 -0.3129 -0.2873
 8068WAT      O32991   4.007   4.253   5.658 -0.1944 -0.1985  0.2568
 8068WAT     H132992   4.066   4.314   5.679 -0.6129  0.9505 -1.6308
 8068WAT     H232993   4.055   4.186   5.629  0.2329 -0.1764  0.9000
 8068WAT    EPW32994   4.023   4.252   5.656 -0.1931 -0.0255  0.0729
 8069WAT      O32995   0.069   6.420   4.369 -1.1926 -0.1723  0.0280
 8069WAT     H132996   0.066   6.508   4.366  1.1541 -0.0504 -0.2247
 8069WAT     H232997   0.141   6.400   4.325 -1.2403 -2.1999  0.7652
 8069WAT    EPW32998   0.079   6.430   4.362 -0.8530 -0.4538  0.0996
 8070WAT      O32999   2.031   0.697   5.847  0.6440  0.0816 -0.2447
 8070WAT     H133000   2.050   0.776   5.814 -0.3050 -0.3312 -1.8782
 8070WAT     H233001   2.025   0.712   5.933 -0.1286  1.9201 -0.5780
 8070WAT    EPW33002   2.033   0.711   5.855  0.3897  0.2922 -0.5353
 8071WAT      O33003   2.535   7.126   2.613 -0.1401  0.1053 -0.0391
 8071WAT     H133004   2.511   7.156   2.691 -2.1524 -1.4501  0.0096
 8071WAT     H233005   2.484   7.169   2.557 -1.2339 -1.2967 -0.1674
 8071WAT    EPW33006   2.524   7.137   2.616 -0.5990 -0.3316 -0.0509
 8072WAT      O33007   1.116   5.363   5.681  0.0338  0.1340 -0.5116
 8072WAT     H133008   1.152   5.442   5.677  0.1536  0.0739 -0.6210
 8072WAT     H233009   1.148   5.329   5.754  0.2653  0.0476 -0.6532
 8072WAT    EPW33010   1.126   5.370   5.691  0.0857  0.1123 -0.5487
 8073WAT      O33011   5.916   6.887   6.169  0.1023  0.0769  0.0973
 8073WAT     H133012   5.880   6.810   6.150  0.3553  0.4698 -2.1905
 8073WAT     H233013   5.901   6.895   6.255  1.7844 -3.4185  0.9233
 8073WAT    EPW33014   5.909   6.877   6.179  0.3881 -0.3814 -0.1186
 8074WAT      O33015   5.803   0.489   7.397 -0.0458  0.0969 -0.6251
 8074WAT     H133016   5.848   0.422   7.430 -1.9510 -1.3411 -0.7987
 8074WAT     H233017   5.865   0.541   7.364  1.6121 -0.6968  1.0487
 8074WAT    EPW33018   5.818   0.487   7.397 -0.0823 -0.2328 -0.4035
 8075WAT      O33019   7.294   5.727   1.496  0.1697  0.1338  0.7716
 8075WAT     H133020   7.294   5.703   1.580  0.8170 -0.1447  0.7002
 8075WAT     H233021   7.378   5.721   1.474 -0.1578 -1.0975 -0.2603
 8075WAT    EPW33022   7.306   5.723   1.505  0.2169 -0.0892  0.6086
 8076WAT      O33023   2.491   6.687   4.396 -0.7477  0.3713 -0.2207
 8076WAT     H133024   2.537   6.623   4.358 -1.7944  0.1349 -1.1730
 8076WAT     H233025   2.523   6.759   4.358  1.3032  0.6193  1.7488
 8076WAT    EPW33026   2.503   6.688   4.384 -0.5993  0.3730 -0.0704
 8077WAT      O33027   2.194   0.586   1.693 -0.0543  0.2809  0.2033
 8077WAT     H133028   2.275   0.616   1.701  0.1695 -0.1570 -0.3953
 8077WAT     H233029   2.152   0.624   1.759  0.9460 -0.5338  1.3784
 8077WAT    EPW33030   2.200   0.596   1.704  0.1265  0.0958  0.2884
 8078WAT      O33031   4.764   4.379   2.948 -0.2187 -0.2241  0.0905
 8078WAT     H133032   4.841   4.341   2.963  0.2000  0.7527  0.5322
 8078WAT     H233033   4.720   4.366   3.022  0.6127  1.6797  1.0189
 8078WAT    EPW33034   4.769   4.372   2.961 -0.0340  0.2015  0.2929
 8079WAT      O33035   2.040   5.506   1.414  0.3632  0.0882  0.7079
 8079WAT     H133036   1.995   5.497   1.488  0.3428  0.7515  0.7844
 8079WAT     H233037   2.117   5.538   1.441  0.7819 -0.7637  0.5520
 8079WAT    EPW33038   2.045   5.509   1.429  0.4220  0.0603  0.6962
 8080WAT      O33039   2.374   5.634   3.284 -0.2968  0.1598 -0.2153
 8080WAT     H133040   2.361   5.565   3.232  1.0023 -0.4922  0.3021
 8080WAT     H233041   2.316   5.623   3.348  0.6124 -1.0577  0.4369
 8080WAT    EPW33042   2.363   5.622   3.286  0.0294 -0.1164 -0.0425
 8081WAT      O33043   5.799   0.644   1.324  0.0651  1.4784 -0.7318
 8081WAT     H133044   5.713   0.643   1.339 -0.0157  2.8973 -0.9054
 8081WAT     H233045   5.807   0.602   1.248 -0.5630  1.9124 -1.0463
 8081WAT    EPW33046   5.787   0.638   1.315 -0.0396  1.7521 -0.8039
 8082WAT      O33047   3.208   3.228   2.189 -0.3916 -0.0318 -0.3071
 8082WAT     H133048   3.255   3.255   2.257 -1.2103 -0.3373  0.3909
 8082WAT     H233049   3.140   3.187   2.225 -1.0226  0.0980 -1.2990
 8082WAT    EPW33050   3.205   3.226   2.204 -0.6058 -0.0578 -0.3505
 8083WAT      O33051   2.094   5.885   0.761 -0.2442 -0.2979  0.0008
 8083WAT     H133052   2.037   5.820   0.759 -0.0465 -0.4740  0.0414
 8083WAT     H233053   2.075   5.931   0.689 -1.1587  0.2810  0.5863
 8083WAT    EPW33054   2.083   5.882   0.750 -0.3501 -0.2384  0.0933
 8084WAT      O33055   4.923   3.500   5.712 -0.1382  0.3604 -0.4452
 8084WAT     H133056   4.875   3.456   5.771  0.1816  0.0553 -0.4051
 8084WAT     H233057   4.969   3.556   5.762 -2.1503  2.3410 -0.6651
 8084WAT    EPW33058   4.923   3.502   5.728 -0.3882  0.6079 -0.4718
 8085WAT      O33059   2.471   4.247   2.590 -0.5142  0.4367 -0.2523
 8085WAT     H133060   2.514   4.177   2.561 -0.3901  0.6173 -0.5155
 8085WAT     H233061   2.395   4.244   2.547 -0.1685  0.9271 -0.9207
 8085WAT    EPW33062   2.466   4.236   2.579 -0.4448  0.5358 -0.3899
 8086WAT      O33063   0.674   4.417   5.965 -0.5590  0.7715 -0.2422
 8086WAT     H133064   0.670   4.399   5.880 -1.2349  0.2358 -0.1060
 8086WAT     H233065   0.753   4.388   5.989 -0.1520  1.4127 -0.7868
 8086WAT    EPW33066   0.685   4.410   5.956 -0.5987  0.7871 -0.3025
 8087WAT      O33067   2.398   4.832   3.511  0.5026 -0.0813 -0.0123
 8087WAT     H133068   2.411   4.891   3.574  0.3514  0.2692 -0.3085
 8087WAT     H233069   2.312   4.832   3.500  0.3309 -1.5142  1.0929
 8087WAT    EPW33070   2.387   4.840   3.519  0.4549 -0.2412  0.1072
 8088WAT      O33071   6.218   6.634   7.360  0.1566  0.2334 -0.1666
 8088WAT     H133072   6.158   6.692   7.386 -1.2536 -1.3276  0.2974
 8088WAT     H233073   6.279   6.638   7.423  0.6124  1.8861 -0.6709
 8088WAT    EPW33074   6.218   6.643   7.373  0.0156  0.2469 -0.1726
 8089WAT      O33075   6.821   3.811   0.156 -0.4033 -0.7668 -0.3017
 8089WAT     H133076   6.743   3.777   0.137 -1.3737  0.8948  0.4624
 8089WAT     H233077   6.838   3.780   0.236  0.6285 -2.5866 -1.1741
 8089WAT    EPW33078   6.812   3.801   0.165 -0.3942 -0.7902 -0.3177
 8090WAT      O33079   3.347   0.098   3.379  0.3306 -0.5872  0.3185
 8090WAT     H133080   3.361   0.012   3.384  1.9945 -0.3388  0.4885
 8090WAT     H233081   3.366   0.117   3.296  1.7926 -0.1139  0.7382
 8090WAT    EPW33082   3.352   0.088   3.367  0.7924 -0.4806  0.4056
 8091WAT      O33083   4.870   4.934   1.833 -0.1535  0.4478  0.0940
 8091WAT     H133084   4.855   4.889   1.906 -0.4196 -0.1911 -0.3423
 8091WAT     H233085   4.790   4.954   1.805 -0.0424  1.0347  0.1809
 8091WAT    EPW33086   4.856   4.930   1.839 -0.1764  0.4401  0.0423
 8092WAT      O33087   5.678   2.752   6.421  0.6177 -0.4038  0.3734
 8092WAT     H133088   5.604   2.718   6.391 -0.2118  1.4782  0.1844
 8092WAT     H233089   5.693   2.821   6.369  2.2803 -0.4796  0.6681
 8092WAT    EPW33090   5.670   2.757   6.409  0.7408 -0.1370  0.3890
 8093WAT      O33091   6.011   5.433   2.680  0.1532 -0.7593 -0.2161
 8093WAT     H133092   6.071   5.493   2.663 -1.4141  0.6087 -1.2782
 8093WAT     H233093   5.995   5.442   2.765 -0.1976  0.5073 -0.3972
 8093WAT    EPW33094   6.018   5.443   2.690 -0.1301 -0.3701 -0.3998
 8094WAT      O33095   1.746   6.401   4.157  0.1855 -0.2343 -0.2233
 8094WAT     H133096   1.803   6.335   4.153  1.6725  0.8926  0.8547
 8094WAT     H233097   1.699   6.384   4.228  1.2542  0.3247  0.6574
 8094WAT    EPW33098   1.748   6.389   4.166  0.5630  0.0147  0.0660
 8095WAT      O33099   0.600   4.025   4.441 -0.1745 -0.0764 -0.2925
 8095WAT     H133100   0.685   4.024   4.457 -0.2091  1.2152  0.0879
 8095WAT     H233101   0.569   4.084   4.498 -1.1565  0.3061 -1.1918
 8095WAT    EPW33102   0.608   4.033   4.452 -0.3247  0.1709 -0.3691
 8096WAT      O33103   0.368   5.106   2.974  0.5892  0.6394  0.0870
 8096WAT     H133104   0.404   5.107   3.053  2.0532 -1.2311 -0.5016
 8096WAT     H233105   0.313   5.038   2.976  0.2072  0.9239 -0.3429
 8096WAT    EPW33106   0.365   5.096   2.986  0.7490  0.4051 -0.0635
 8097WAT      O33107   0.958   5.968   4.593  0.3978  0.0802 -0.0760
 8097WAT     H133108   0.931   5.994   4.514  0.0980 -0.9353 -0.3180
 8097WAT     H233109   0.916   5.893   4.605  0.3881  0.2636  1.0907
 8097WAT    EPW33110   0.948   5.961   4.583  0.3521 -0.0428  0.0606
 8098WAT      O33111   5.963   5.783   6.586  0.9109  0.2350  0.5122
 8098WAT     H133112   5.879   5.801   6.598  0.8943 -0.5393  1.7010
 8098WAT     H233113   5.962   5.709   6.541  0.9925  1.5863 -1.8983
 8098WAT    EPW33114   5.951   5.775   6.581  0.9205  0.3202  0.3317
 8099WAT      O33115   4.535   1.435   0.613  0.0873  0.2552 -0.5116
 8099WAT     H133116   4.464   1.486   0.607  1.4156  2.2459 -0.2509
 8099WAT     H233117   4.560   1.425   0.530 -1.5633 -2.2253 -0.8397
 8099WAT    EPW33118   4.528   1.441   0.600  0.0397  0.1828 -0.5216
 8100WAT      O33119   1.382   5.566   4.955 -0.3030  0.1354 -0.1028
 8100WAT     H133120   1.352   5.509   4.896  0.7861  0.1138 -0.6576
 8100WAT     H233121   1.349   5.642   4.928 -1.0785 -0.0975  0.1630
 8100WAT    EPW33122   1.373   5.569   4.942 -0.2567  0.0978 -0.1455
 8101WAT      O33123   3.388   5.772   4.023 -0.0557 -0.0766 -0.1065
 8101WAT     H133124   3.386   5.846   3.976  0.0071 -0.6764 -1.0748
 8101WAT     H233125   3.466   5.738   4.004 -0.8947 -1.4360 -1.3393
 8101WAT    EPW33126   3.399   5.778   4.013 -0.1703 -0.3660 -0.4316
 8102WAT      O33127   7.128   1.276   5.858 -0.1789  1.0280 -0.6472
 8102WAT     H133128   7.211   1.276   5.830  0.6320 -0.2944  1.5237
 8102WAT     H233129   7.134   1.305   5.940 -1.6891 -0.1554 -0.0786
 8102WAT    EPW33130   7.141   1.280   5.866 -0.2822  0.6578 -0.2425
 8103WAT      O33131   3.110   1.273   6.738  0.1759  0.6366 -0.0455
 8103WAT     H133132   3.062   1.288   6.809  1.1216 -1.4983  1.1125
 8103WAT     H233133   3.192   1.292   6.764  0.4794  0.2735 -0.7111
 8103WAT    EPW33134   3.115   1.278   6.752  0.3605  0.2676  0.0273
 8104WAT      O33135   2.577   4.393   0.706 -0.4181 -0.4753  0.3283
 8104WAT     H133136   2.658   4.404   0.675 -0.5115 -1.7435 -0.4920
 8104WAT     H233137   2.532   4.458   0.670 -0.2459 -1.1760 -1.2714
 8104WAT    EPW33138   2.582   4.404   0.696 -0.4065 -0.7661 -0.0292
 8105WAT      O33139   0.913   3.134   3.214  0.0997 -0.2592 -0.3265
 8105WAT     H133140   0.894   3.093   3.139 -1.0391 -0.0218 -0.1867
 8105WAT     H233141   0.847   3.190   3.224 -1.5155 -2.3424  2.3471
 8105WAT    EPW33142   0.901   3.136   3.205 -0.3072 -0.5318  0.0891
 8106WAT      O33143   1.940   2.304   0.134  0.2053 -0.3790 -0.4152
 8106WAT     H133144   1.983   2.275   0.204  0.5268 -1.0877 -0.8929
 8106WAT     H233145   1.944   2.237   0.078  0.2179  0.2821 -1.2287
 8106WAT    EPW33146   1.947   2.290   0.136  0.2546 -0.3860 -0.6059
 8107WAT      O33147   7.088   2.233   2.821 -0.1062  0.0076 -0.0142
 8107WAT     H133148   7.152   2.243   2.762 -1.8891  5.0395 -1.6549
 8107WAT     H233149   7.108   2.292   2.883 -1.2369 -1.0960  1.4671
 8107WAT    EPW33150   7.101   2.243   2.822 -0.5366  0.5879 -0.0378
 8108WAT      O33151   1.177   1.906   2.183 -0.1130  0.0372  0.0390
 8108WAT     H133152   1.251   1.860   2.193  0.5931  1.3438  1.2475
 8108WAT     H233153   1.203   1.977   2.139 -0.8914 -0.0018 -0.5137
 8108WAT    EPW33154   1.192   1.910   2.178 -0.1237  0.2244  0.1359
 8109WAT      O33155   4.852   7.253   2.538 -0.0768  0.0017  0.4777
 8109WAT     H133156   4.835   7.313   2.599 -1.4183 -0.3191  0.4393
 8109WAT     H233157   4.792   7.268   2.476  2.2288  1.3889 -1.6063
 8109WAT    EPW33158   4.841   7.264   2.538  0.0656  0.1592  0.1642
 8110WAT      O33159   2.388   6.142   5.883  0.3002 -0.3072  0.4753
 8110WAT     H133160   2.389   6.215   5.835  0.1611  0.7095  1.9482
 8110WAT     H233161   2.303   6.121   5.886  0.4308 -1.1877 -0.8229
 8110WAT    EPW33162   2.375   6.150   5.876  0.2989 -0.2871  0.5011
 8111WAT      O33163   6.738   1.629   1.111 -0.3283  0.1789  0.2720
 8111WAT     H133164   6.682   1.624   1.044 -0.0671 -1.1538  0.1332
 8111WAT     H233165   6.752   1.715   1.120 -0.5564  0.3898 -1.2137
 8111WAT    EPW33166   6.731   1.641   1.103 -0.3234  0.0132  0.0320
 8112WAT      O33167   1.249   0.776   6.135  0.4577  0.1423 -0.1055
 8112WAT     H133168   1.199   0.719   6.091 -0.0138  0.1703  0.3844
 8112WAT     H233169   1.315   0.791   6.080  0.5793 -0.8497 -0.2564
 8112WAT    EPW33170   1.251   0.770   6.120  0.4060 -0.0001 -0.0554
 8113WAT      O33171   1.040   4.361   4.175  0.2226 -0.8434  0.2395
 8113WAT     H133172   1.088   4.292   4.149  1.2064  0.2671 -1.0470
 8113WAT     H233173   1.061   4.423   4.118 -1.1516  0.3482  0.9647
 8113WAT    EPW33174   1.050   4.360   4.163  0.1649 -0.5033  0.1566
 8114WAT      O33175   1.043   7.166   6.373  0.0178 -0.2987 -0.1295
 8114WAT     H133176   1.098   7.107   6.406 -0.6373 -0.0737  1.4714
 8114WAT     H233177   1.092   7.212   6.318  1.4000 -0.1711  1.1618
 8114WAT    EPW33178   1.058   7.164   6.370  0.1252 -0.2466  0.2977
 8115WAT      O33179   2.160   2.255   6.480  0.2434 -0.0898  0.1509
 8115WAT     H133180   2.102   2.309   6.444  0.2663 -1.3194 -1.8863
 8115WAT     H233181   2.236   2.277   6.442  1.1396  1.2642  2.5182
 8115WAT    EPW33182   2.163   2.266   6.469  0.3792 -0.0714  0.1997
 8116WAT      O33183   1.182   5.040   4.741  0.5055  0.1883  0.8036
 8116WAT     H133184   1.142   4.964   4.758  0.3393 -0.0379 -0.5491
 8116WAT     H233185   1.145   5.094   4.799 -2.4994  0.1990 -0.8842
 8116WAT    EPW33186   1.170   5.036   4.752  0.0370  0.1564  0.3544
 8117WAT      O33187   6.203   2.046   6.825 -0.2316  0.3624 -0.0384
 8117WAT     H133188   6.287   2.031   6.840 -0.2874  0.7670  0.7131
 8117WAT     H233189   6.201   2.130   6.804 -0.2966  0.0622 -1.3190
 8117WAT    EPW33190   6.215   2.056   6.824 -0.2494  0.3778 -0.1165
 8118WAT      O33191   0.965   6.862   5.252  0.3294 -0.5724 -0.3141
 8118WAT     H133192   0.961   6.778   5.230 -1.6840 -0.6100  0.0800
 8118WAT     H233193   0.883   6.889   5.248  0.9234  1.3887 -0.3814
 8118WAT    EPW33194   0.952   6.854   5.248  0.1197 -0.2882 -0.2658
 8119WAT      O33195   3.535   0.872   0.877  0.4176 -0.1369  0.3020
 8119WAT     H133196   3.480   0.807   0.857  0.1036  0.4656 -0.9606
 8119WAT     H233197   3.490   0.920   0.934  0.0012 -0.1736  0.0134
 8119WAT    EPW33198   3.520   0.869   0.882  0.3097 -0.0533  0.0729
 8120WAT      O33199   0.719   2.839   6.863  0.7535  0.5796  0.0013
 8120WAT     H133200   0.714   2.814   6.779 -1.5769  0.5861  0.0589
 8120WAT     H233201   0.644   2.808   6.897  1.0199  1.7607  1.7392
 8120WAT    EPW33202   0.707   2.831   6.856  0.4486  0.7550  0.2666
 8121WAT      O33203   1.748   7.081   2.452  0.8511 -0.0933 -0.3493
 8121WAT     H133204   1.767   7.011   2.500  0.0672 -0.4582 -0.5522
 8121WAT     H233205   1.742   7.145   2.511  1.7900 -0.1437 -0.1897
 8121WAT    EPW33206   1.750   7.080   2.468  0.8740 -0.1547 -0.3557
 8122WAT      O33207   2.728   6.523   5.872 -0.1381 -0.2149 -0.8916
 8122WAT     H133208   2.806   6.560   5.872 -0.4784  0.6069  0.7750
 8122WAT     H233209   2.728   6.474   5.944 -1.2481  0.0342 -0.6982
 8122WAT    EPW33210   2.739   6.521   5.883 -0.3523 -0.0567 -0.6168
 8123WAT      O33211   1.027   1.330   7.161  0.1212 -0.1365  0.4359
 8123WAT     H133212   0.945   1.326   7.191 -0.0836  1.8055  0.2893
 8123WAT     H233213   1.058   1.249   7.173 -1.8608 -0.9550  0.3294
 8123WAT    EPW33214   1.020   1.318   7.167 -0.2019  0.0295  0.3985
 8124WAT      O33215   5.589   5.195   2.478 -0.8789  0.2999 -0.1453
 8124WAT     H133216   5.648   5.260   2.472  0.0763 -0.0461  3.5181
 8124WAT     H233217   5.517   5.230   2.444 -0.2062  3.0653  1.0091
 8124WAT    EPW33218   5.587   5.210   2.472 -0.6384  0.6573  0.5664
 8125WAT      O33219   2.480   0.450   3.048  0.6185  0.1294 -0.3123
 8125WAT     H133220   2.419   0.402   3.009 -0.3063  1.2736 -0.3365
 8125WAT     H233221   2.555   0.416   3.019  0.1588 -2.8072  1.4640
 8125WAT    EPW33222   2.482   0.438   3.038  0.4140 -0.1353 -0.0535
 8126WAT      O33223   1.274   2.100   3.655 -0.3403 -0.2630 -0.4881
 8126WAT     H133224   1.325   2.052   3.603  0.8144 -0.2210  0.5665
 8126WAT     H233225   1.210   2.045   3.677 -0.8709 -0.2763 -1.9320
 8126WAT    EPW33226   1.272   2.085   3.651 -0.2481 -0.2588 -0.5456
 8127WAT      O33227   0.748   1.622   0.385 -0.2168  0.2412 -0.1765
 8127WAT     H133228   0.693   1.599   0.322  0.4975  0.3927 -0.8635
 8127WAT     H233229   0.753   1.709   0.378 -1.2457  0.4291  1.0335
 8127WAT    EPW33230   0.741   1.631   0.375 -0.2632  0.2913 -0.0993
 8128WAT      O33231   3.842   6.147   5.843  0.0144 -0.5711  0.1442
 8128WAT     H133232   3.758   6.165   5.829 -0.4615 -2.0495  0.8979
 8128WAT     H233233   3.868   6.108   5.769 -0.5172 -1.8892  0.6378
 8128WAT    EPW33234   3.833   6.144   5.830 -0.1345 -0.9842  0.3284
 8129WAT      O33235   2.526   1.408   6.125  0.0844 -0.0696 -0.4161
 8129WAT     H133236   2.584   1.357   6.083  1.1003  0.5113  0.2258
 8129WAT     H233237   2.460   1.354   6.142  0.2473 -0.6571 -1.5329
 8129WAT    EPW33238   2.525   1.393   6.121  0.2585 -0.0706 -0.4862
 8130WAT      O33239   1.101   5.270   4.583  0.0982 -0.3968  0.9959
 8130WAT     H133240   1.103   5.197   4.630 -1.4229 -0.8886  0.3503
 8130WAT     H233241   1.130   5.245   4.505  0.4076 -0.0936  1.0082
 8130WAT    EPW33242   1.106   5.256   4.579 -0.0808 -0.4246  0.9023
 8131WAT      O33243   3.467   5.511   5.596  0.1035  0.2071 -0.1040
 8131WAT     H133244   3.546   5.477   5.581 -0.5486 -1.4200  0.0054
 8131WAT     H233245   3.482   5.571   5.658  1.4019  0.6849 -0.8353
 8131WAT    EPW33246   3.481   5.515   5.603  0.1990  0.0373 -0.1959
 8132WAT      O33247   0.762   3.773   7.255  0.5012  0.0072  0.1619
 8132WAT     H133248   0.838   3.739   7.230 -0.4604 -0.8644 -1.8026
 8132WAT     H233249   0.707   3.706   7.248 -0.7968  1.0866 -0.2694
 8132WAT    EPW33250   0.765   3.758   7.250  0.1674  0.0379 -0.1920
 8133WAT      O33251   2.706   0.199   1.736  0.1812 -0.4805  0.5656
 8133WAT     H133252   2.688   0.284   1.746  1.2230 -0.0895 -0.6148
 8133WAT     H233253   2.781   0.188   1.779  0.1739 -0.7494  0.5140
 8133WAT    EPW33254   2.714   0.210   1.744  0.3340 -0.4624  0.3836
 8134WAT      O33255   1.115   5.709   6.174  0.6695  0.4467 -0.3464
 8134WAT     H133256   1.050   5.743   6.126  1.1170 -0.0518 -1.3559
 8134WAT     H233257   1.140   5.775   6.225  0.7080  1.2820 -1.3907
 8134WAT    EPW33258   1.109   5.724   6.174  0.7413  0.4964 -0.6498
 8135WAT      O33259   1.238   5.451   4.740  0.2544 -0.0656  0.5564
 8135WAT     H133260   1.193   5.409   4.678  0.6799  2.0103 -1.2827
 8135WAT     H233261   1.205   5.532   4.738  2.0161  0.7095  1.2755
 8135WAT    EPW33262   1.226   5.457   4.730  0.5775  0.3556  0.3909
 8136WAT      O33263   0.114   4.342   6.763  0.0839 -0.4319 -0.4855
 8136WAT     H133264   0.184   4.362   6.811 -0.2739  0.5123 -0.3474
 8136WAT     H233265   0.058   4.407   6.779 -0.6186 -0.8863 -1.0239
 8136WAT    EPW33266   0.116   4.354   6.773 -0.0727 -0.3595 -0.5446
 8137WAT      O33267   4.953   4.497   0.242  0.1836  0.2899  0.5393
 8137WAT     H133268   4.894   4.439   0.215  0.8537 -0.2264  0.1693
 8137WAT     H233269   5.016   4.449   0.278  1.4962  0.6322 -1.1672
 8137WAT    EPW33270   4.954   4.481   0.243  0.4765  0.2642  0.2325
 8138WAT      O33271   4.689   2.056   3.436  0.5440  0.3692 -0.4065
 8138WAT     H133272   4.629   1.993   3.421  1.2381 -0.3449 -0.2397
 8138WAT     H233273   4.740   2.052   3.366 -0.5805  2.1717 -1.4066
 8138WAT    EPW33274   4.687   2.046   3.423  0.4804  0.5300 -0.5296
 8139WAT      O33275   7.129   0.409   3.658  0.4459 -0.1992 -0.1414
 8139WAT     H133276   7.205   0.396   3.618  2.3801  1.9904  2.4767
 8139WAT     H233277   7.138   0.365   3.733 -0.5888  0.6438  0.4950
 8139WAT    EPW33278   7.141   0.400   3.664  0.5788  0.2488  0.3394
 8140WAT      O33279   1.538   5.966   1.851 -0.0244 -0.9297 -0.1091
 8140WAT     H133280   1.592   5.998   1.911 -0.2659 -0.3418 -0.2041
 8140WAT     H233281   1.588   5.959   1.780 -0.2400  0.2843 -0.3936
 8140WAT    EPW33282   1.553   5.970   1.849 -0.0919 -0.6635 -0.1652
 8141WAT      O33283   3.685   5.648   0.373  0.7061  0.0807  0.1887
 8141WAT     H133284   3.650   5.606   0.441 -1.4517  0.1997 -0.7776
 8141WAT     H233285   3.658   5.730   0.383 -1.1975 -0.2269 -1.6771
 8141WAT    EPW33286   3.676   5.654   0.385  0.1061  0.0528 -0.2296
 8142WAT      O33287   2.352   4.517   5.689 -0.2865  0.6472  0.0344
 8142WAT     H133288   2.364   4.562   5.763  0.6642  0.7790 -0.1816
 8142WAT     H233289   2.275   4.478   5.701 -0.5648  1.3811  0.7238
 8142WAT    EPW33290   2.342   4.518   5.702 -0.1872  0.7751  0.1043
 8143WAT      O33291   1.337   0.337   4.754  0.3609 -0.2842  0.2393
 8143WAT     H133292   1.303   0.410   4.787 -1.4106 -0.2718 -1.4030
 8143WAT     H233293   1.299   0.332   4.675  0.1558 -3.1542  0.4444
 8143WAT    EPW33294   1.326   0.347   4.747  0.0689 -0.7063  0.0270
 8144WAT      O33295   2.763   6.891   7.405 -0.9002  0.1172  0.4662
 8144WAT     H133296   2.733   6.970   7.424 -0.3526  0.2683  0.7182
 8144WAT     H233297   2.780   6.895   7.319  0.1702  0.6294  0.6894
 8144WAT    EPW33298   2.761   6.903   7.395 -0.6612  0.2152  0.5364
 8145WAT      O33299   3.201   2.332   0.301 -0.0429 -0.7165  0.0415
 8145WAT     H133300   3.126   2.357   0.338  0.6187 -0.7185  1.4586
 8145WAT     H233301   3.262   2.369   0.352  0.9372 -0.3979 -1.2909
 8145WAT    EPW33302   3.199   2.341   0.314  0.1996 -0.6697  0.0540
 8146WAT      O33303   4.115   6.188   1.786  0.3285  0.3771  0.0357
 8146WAT     H133304   4.169   6.251   1.759  3.2356 -0.9148  2.2793
 8146WAT     H233305   4.079   6.221   1.858  0.0403  0.3282 -0.0857
 8146WAT    EPW33306   4.118   6.202   1.792  0.7154  0.1790  0.3492
 8147WAT      O33307   7.028   3.479   3.404  0.1855  0.5493 -0.5882
 8147WAT     H133308   7.092   3.537   3.418  1.8385 -1.0600 -0.9448
 8147WAT     H233309   7.022   3.437   3.480 -1.0063  1.1635 -0.3297
 8147WAT    EPW33310   7.037   3.481   3.417  0.2536  0.4023 -0.6027
 8148WAT      O33311   6.072   4.125   3.830 -0.8674  0.0704  0.4075
 8148WAT     H133312   6.137   4.184   3.825 -0.3857 -0.5349 -0.7725
 8148WAT     H233313   6.025   4.140   3.758  0.1375 -1.9378 -0.7661
 8148WAT    EPW33314   6.075   4.136   3.819 -0.6478 -0.3157  0.0598
 8149WAT      O33315   3.470   3.364   0.407  0.5519  0.1071  0.2178
 8149WAT     H133316   3.422   3.417   0.358  1.5477  1.2383  0.4108
 8149WAT     H233317   3.521   3.419   0.452  0.7096 -0.9633  1.3952
 8149WAT    EPW33318   3.470   3.380   0.407  0.7223  0.1161  0.4203
 8150WAT      O33319   0.983   4.501   1.266 -0.5945  0.1678 -0.0352
 8150WAT     H133320   0.964   4.580   1.298 -0.6640  0.0482  0.2312
 8150WAT     H233321   0.906   4.472   1.238 -0.8697 -0.3839  1.1946
 8150WAT    EPW33322   0.968   4.508   1.267 -0.6454  0.0686  0.1858
 8151WAT      O33323   0.794   1.894   0.321  0.2831  0.2102  0.6649
 8151WAT     H133324   0.873   1.868   0.295 -0.0528 -2.0715  1.7014
 8151WAT     H233325   0.763   1.937   0.252  2.1860  0.6668  0.0386
 8151WAT    EPW33326   0.801   1.897   0.307  0.5146 -0.0594  0.7255
 8152WAT      O33327   3.093   2.909   1.625  0.0072  0.5407 -0.0668
 8152WAT     H133328   3.172   2.876   1.642 -0.1372  1.2733  2.5080
 8152WAT     H233329   3.097   2.933   1.542  2.6775  0.9643  0.1159
 8152WAT    EPW33330   3.105   2.908   1.616  0.3803  0.7115  0.3406
 8153WAT      O33331   5.344   1.534   4.740  0.0915  0.6022 -0.0189
 8153WAT     H133332   5.369   1.615   4.763 -2.1153  1.0262  1.0889
 8153WAT     H233333   5.271   1.521   4.785 -1.0565 -1.0053 -2.1871
 8153WAT    EPW33334   5.337   1.544   4.750 -0.4041  0.4274 -0.1755
 8154WAT      O33335   5.962   5.771   3.141 -0.7818 -1.0017  0.1688
 8154WAT     H133336   5.965   5.763   3.228  0.5130 -3.3311 -0.0087
 8154WAT     H233337   6.043   5.796   3.120 -0.8651 -1.2134 -0.4165
 8154WAT    EPW33338   5.974   5.773   3.150 -0.6029 -1.3771  0.0561
 8155WAT      O33339   7.122   6.906   7.221 -0.0595  0.1826  0.3024
 8155WAT     H133340   7.149   6.868   7.147 -2.9566 -0.0248 -0.7985
 8155WAT     H233341   7.070   6.970   7.193  0.1798  1.2823  2.1997
 8155WAT    EPW33342   7.118   6.910   7.206 -0.4521  0.3144  0.4200
 8156WAT      O33343   5.789   6.494   3.142 -0.5619 -0.3559  0.5177
 8156WAT     H133344   5.724   6.486   3.085  0.6675 -0.4563 -0.9480
 8156WAT     H233345   5.789   6.418   3.185 -0.1960 -1.1673 -0.8576
 8156WAT    EPW33346   5.779   6.482   3.140 -0.3263 -0.4906  0.0980
 8157WAT      O33347   2.236   4.106   4.402 -0.5193  0.0060  0.8049
 8157WAT     H133348   2.321   4.120   4.390  0.0260 -1.4802  2.4276
 8157WAT     H233349   2.200   4.185   4.391  0.9062  0.4803 -0.9145
 8157WAT    EPW33350   2.243   4.120   4.398 -0.2282 -0.1435  0.7906
 8158WAT      O33351   1.082   0.586   5.284  0.0417 -0.4492 -0.0782
 8158WAT     H133352   1.010   0.545   5.257 -0.5147 -0.0994  0.8102
 8158WAT     H233353   1.075   0.665   5.248 -0.5434 -0.0848  0.8019
 8158WAT    EPW33354   1.070   0.592   5.275 -0.1270 -0.3437  0.1830
 8159WAT      O33355   5.239   3.153   1.203  0.4236  0.2089 -0.2439
 8159WAT     H133356   5.256   3.087   1.258  1.5379  0.4657 -0.2560
 8159WAT     H233357   5.180   3.119   1.148  0.1912 -0.4328  0.3838
 8159WAT    EPW33358   5.233   3.138   1.203  0.5539  0.1520 -0.1530
 8160WAT      O33359   5.995   4.552   3.280  0.5017  0.1567 -0.0521
 8160WAT     H133360   5.938   4.525   3.219 -0.1922 -0.3444  0.8011
 8160WAT     H233361   5.955   4.535   3.355  1.2202  1.0603  0.5569
 8160WAT    EPW33362   5.981   4.546   3.282  0.5054  0.2162  0.1639
 8161WAT      O33363   0.674   2.024   4.162  0.0207 -0.1049  0.2882
 8161WAT     H133364   0.720   2.098   4.156  0.2010 -0.2424 -0.0251
 8161WAT     H233365   0.605   2.039   4.111 -1.7006  1.1250  2.7401
 8161WAT    EPW33366   0.671   2.037   4.154 -0.2069  0.0565  0.6041
 8162WAT      O33367   3.804   5.625   3.905  0.0897  0.3568 -0.1248
 8162WAT     H133368   3.787   5.545   3.874  0.0618 -0.1599  1.1627
 8162WAT     H233369   3.764   5.678   3.849  0.2876 -0.5107 -1.1281
 8162WAT    EPW33370   3.796   5.621   3.892  0.1148  0.1523 -0.0828
 8163WAT      O33371   6.238   2.213   5.309  0.2232  0.2373 -0.2942
 8163WAT     H133372   6.287   2.251   5.247  1.6712 -1.0710 -0.0261
 8163WAT     H233373   6.166   2.262   5.312  1.0317  1.5687 -1.5289
 8163WAT    EPW33374   6.235   2.226   5.301  0.5565  0.2407 -0.4370
 8164WAT      O33375   2.349   2.554   2.386 -0.3573 -0.0299 -0.4139
 8164WAT     H133376   2.350   2.537   2.300  0.4492  0.6750 -0.5559
 8164WAT     H233377   2.433   2.564   2.406 -0.5817  0.4768  0.3239
 8164WAT    EPW33378   2.361   2.553   2.376 -0.2713  0.1491 -0.3259
 8165WAT      O33379   3.766   2.506   0.280  0.0849  0.2188 -0.1142
 8165WAT     H133380   3.828   2.541   0.229  0.7006 -0.2809  0.2791
 8165WAT     H233381   3.699   2.494   0.225  0.6926 -0.1820 -0.7937
 8165WAT    EPW33382   3.765   2.509   0.264  0.2656  0.0858 -0.1565
 8166WAT      O33383   1.699   4.652   4.767 -0.7398  0.4237 -0.5074
 8166WAT     H133384   1.735   4.636   4.845 -0.0091  1.1601 -0.6805
 8166WAT     H233385   1.658   4.578   4.748 -3.8208  1.2449  2.0851
 8166WAT    EPW33386   1.698   4.639   4.776 -1.0870  0.6537 -0.1500
 8167WAT      O33387   4.711   5.404   3.790  0.3859  0.0119  0.2273
 8167WAT     H133388   4.727   5.489   3.778  0.9402 -0.1406 -0.1353
 8167WAT     H233389   4.761   5.365   3.730 -1.7114 -0.4583 -1.3479
 8167WAT    EPW33390   4.721   5.411   3.779  0.1580 -0.0801 -0.0589
 8168WAT      O33391   6.966   0.169   0.671 -0.2554  0.2742  0.1487
 8168WAT     H133392   7.028   0.145   0.614  0.4957 -0.6085  1.3061
 8168WAT     H233393   6.985   0.253   0.686  1.8146 -0.3851  1.8000
 8168WAT    EPW33394   6.978   0.178   0.664  0.1613  0.0464  0.5636
 8169WAT      O33395   3.895   5.579   7.024  0.1966 -0.2887  0.1811
 8169WAT     H133396   3.954   5.612   7.078  0.1840  1.2873 -0.7190
 8169WAT     H233397   3.844   5.647   7.004 -0.7475 -1.1716 -0.5942
 8169WAT    EPW33398   3.896   5.594   7.029  0.0553 -0.1863 -0.0664
 8170WAT      O33399   3.008   2.629   1.322  0.0716 -0.2392  0.2218
 8170WAT     H133400   3.010   2.632   1.409 -0.2656 -2.6164  0.3920
 8170WAT     H233401   2.977   2.549   1.306  0.2818  0.0881 -2.0920
 8170WAT    EPW33402   3.003   2.617   1.332  0.0528 -0.5420 -0.0949
 8171WAT      O33403   0.470   4.284   4.578  0.0966 -0.5217 -0.4939
 8171WAT     H133404   0.435   4.293   4.658 -1.6586  1.3176 -1.4080
 8171WAT     H233405   0.436   4.350   4.533  3.3102  0.2728 -2.0438
 8171WAT    EPW33406   0.460   4.295   4.583  0.3121 -0.1327 -0.8579
 8172WAT      O33407   1.162   4.981   1.750 -0.0154 -0.2448 -0.2184
 8172WAT     H133408   1.221   4.986   1.814 -0.9642  0.8860  0.6171
 8172WAT     H233409   1.108   4.918   1.777  0.0913 -0.4094 -0.3796
 8172WAT    EPW33410   1.163   4.972   1.764 -0.1398 -0.1021 -0.1188
 8173WAT      O33411   1.758   4.781   0.012 -0.1781 -0.3693  0.2968
 8173WAT     H133412   1.804   4.817   0.077 -0.1282 -0.5711  0.3714
 8173WAT     H233413   1.776   4.833  -0.056 -0.1648 -0.2075  0.4220
 8173WAT    EPW33414   1.767   4.794   0.012 -0.1687 -0.3752  0.3263
 8174WAT      O33415   1.579   5.032   5.824 -0.4641 -0.0596 -0.2353
 8174WAT     H133416   1.507   5.063   5.785 -0.7150 -0.3696 -0.0174
 8174WAT     H233417   1.560   5.037   5.909  0.9928  2.9760  0.0528
 8174WAT    EPW33418   1.566   5.038   5.831 -0.2859  0.3431 -0.1605
 8175WAT      O33419   4.678   2.009   5.773  0.0357 -0.2237  0.1380
 8175WAT     H133420   4.747   1.968   5.740  0.2440  1.6799 -2.0290
 8175WAT     H233421   4.707   2.044   5.847  1.3041  0.2540 -0.5678
 8175WAT    EPW33422   4.692   2.008   5.779  0.2538  0.1280 -0.2863
 8176WAT      O33423   1.435   4.872   2.139  0.5478 -0.1894 -1.2252
 8176WAT     H133424   1.502   4.883   2.085 -0.8395  2.3900 -2.6032
 8176WAT     H233425   1.445   4.936   2.198  0.4731 -1.1794 -0.0929
 8176WAT    EPW33426   1.446   4.883   2.140  0.3318  0.0454 -1.2615
 8177WAT      O33427   4.969   1.939   2.198 -0.8311  0.2614  0.1443
 8177WAT     H133428   5.015   1.994   2.149 -1.4897  0.3916 -0.3449
 8177WAT     H233429   4.972   1.864   2.154 -4.1585  1.1418 -1.9411
 8177WAT    EPW33430   4.976   1.936   2.184 -1.4199  0.4107 -0.2360
 8178WAT      O33431   3.782   6.266   3.440  0.1868 -0.0102 -0.6708
 8178WAT     H133432   3.849   6.310   3.474  0.5930 -0.1112 -1.3375
 8178WAT     H233433   3.819   6.195   3.405 -0.6250 -1.9438  2.0109
 8178WAT    EPW33434   3.797   6.262   3.440  0.1269 -0.3108 -0.3732
 8179WAT      O33435   4.855   6.408   6.899  0.1883 -0.3641 -0.2283
 8179WAT     H133436   4.795   6.383   6.842 -1.0294  2.3996 -0.3300
 8179WAT     H233437   4.921   6.437   6.850 -0.1353  0.3715 -0.2539
 8179WAT    EPW33438   4.856   6.409   6.883 -0.0394  0.1528 -0.2471
 8180WAT      O33439   3.977   1.398   1.575  0.3416 -0.0984  0.0136
 8180WAT     H133440   4.046   1.352   1.604  1.3013  1.0030 -0.4472
 8180WAT     H233441   3.951   1.353   1.505  1.7150  0.4193 -0.8527
 8180WAT    EPW33442   3.983   1.385   1.569  0.6863  0.1408 -0.1824
 8181WAT      O33443   2.001   6.585   1.135  0.4254  0.2770 -0.0358
 8181WAT     H133444   1.988   6.635   1.204 -0.7398  1.1167 -0.8180
 8181WAT     H233445   1.975   6.635   1.068  1.6455 -0.4483 -1.0992
 8181WAT    EPW33446   1.995   6.599   1.135  0.4335  0.2939 -0.3084
 8182WAT      O33447   4.229   2.525   6.910 -0.3115  0.2590  0.4059
 8182WAT     H133448   4.282   2.593   6.907  0.0950 -0.0748 -1.2816
 8182WAT     H233449   4.274   2.465   6.954  0.1881  0.4072  0.1046
 8182WAT    EPW33450   4.243   2.526   6.916 -0.1776  0.2316  0.1121
 8183WAT      O33451   0.132   6.360   7.050 -0.0925 -0.0153  0.1720
 8183WAT     H133452   0.201   6.413   7.055 -0.0965 -0.0940  1.2297
 8183WAT     H233453   0.111   6.362   6.965  1.6938 -0.6233 -0.3188
 8183WAT    EPW33454   0.139   6.368   7.038  0.1708 -0.1168  0.2557
 8184WAT      O33455   6.759   4.760   6.973 -0.0307  0.4986 -0.4379
 8184WAT     H133456   6.688   4.710   6.967 -0.7376  1.2287  1.1954
 8184WAT     H233457   6.766   4.796   6.894 -1.3742  0.2589 -0.6855
 8184WAT    EPW33458   6.750   4.758   6.961 -0.3336  0.5710 -0.2332
 8185WAT      O33459   1.758   3.644   3.509 -0.9657  0.3002  0.1164
 8185WAT     H133460   1.722   3.723   3.501 -2.1052 -0.2105  0.1004
 8185WAT     H233461   1.711   3.606   3.572 -2.6401 -1.5381 -2.0647
 8185WAT    EPW33462   1.746   3.650   3.517 -1.3814 -0.0468 -0.2082
 8186WAT      O33463   1.902   4.776   4.582 -0.1685 -0.0107 -0.3985
 8186WAT     H133464   1.845   4.755   4.644  1.4995 -0.2370  1.1636
 8186WAT     H233465   1.855   4.823   4.525 -1.4044  1.8561  1.9916
 8186WAT    EPW33466   1.887   4.780   4.582 -0.1047  0.2316  0.1854
 8187WAT      O33467   6.915   5.336   4.284 -0.2850  0.5642 -0.1948
 8187WAT     H133468   6.879   5.288   4.220 -1.9361  0.2940  0.8804
 8187WAT     H233469   6.919   5.281   4.352  1.2703  0.9048  0.0440
 8187WAT    EPW33470   6.911   5.321   4.284 -0.2992  0.5746 -0.0007
 8188WAT      O33471   3.578   4.052   3.027 -0.0358 -0.3729  0.0042
 8188WAT     H133472   3.664   4.058   3.038  0.0404 -1.5657  0.1465
 8188WAT     H233473   3.563   4.101   2.956  0.8618 -0.7798 -0.4798
 8188WAT    EPW33474   3.588   4.060   3.018  0.1080 -0.6092 -0.0463
 8189WAT      O33475   6.424   6.770   0.397 -0.2731  0.2781 -0.2911
 8189WAT     H133476   6.435   6.724   0.324 -1.2176 -0.8430  0.2163
 8189WAT     H233477   6.473   6.841   0.386  0.4814 -0.4108 -1.5259
 8189WAT    EPW33478   6.433   6.773   0.385 -0.3011  0.0107 -0.3985
 8190WAT      O33479   4.121   6.029   5.689 -0.2716 -0.0625  0.2480
 8190WAT     H133480   4.164   6.087   5.737  1.0109 -0.1539 -0.7399
 8190WAT     H233481   4.102   6.072   5.616 -0.6238 -0.4441  0.1087
 8190WAT    EPW33482   4.125   6.044   5.686 -0.1341 -0.1324  0.0815
 8191WAT      O33483   6.552   0.723   0.608 -0.4004  0.3417  0.4840
 8191WAT     H133484   6.466   0.740   0.617 -0.2474  1.3046  0.2816
 8191WAT     H233485   6.575   0.770   0.539  0.6679  1.5926  1.6289
 8191WAT    EPW33486   6.542   0.733   0.599 -0.2200  0.6687  0.6232
 8192WAT      O33487   1.051   6.203   0.607 -0.3182  0.2316 -0.1262
 8192WAT     H133488   1.016   6.123   0.605  0.5361 -0.1535  0.2622
 8192WAT     H233489   1.042   6.231   0.525 -0.4875 -0.3125 -0.2962
 8192WAT    EPW33490   1.044   6.195   0.595 -0.2170  0.0944 -0.0939
 8193WAT      O33491   5.748   5.207   5.527  0.1807  0.1522 -0.0609
 8193WAT     H133492   5.730   5.265   5.464  0.7792 -0.0735 -0.4475
 8193WAT     H233493   5.715   5.132   5.494  0.2634  0.0847  0.0111
 8193WAT    EPW33494   5.740   5.204   5.513  0.2813  0.1089 -0.1073
 8194WAT      O33495   3.846   1.887   3.704  0.4469 -0.2566  0.2715
 8194WAT     H133496   3.773   1.876   3.658  1.8328  0.6070 -2.3110
 8194WAT     H233497   3.877   1.963   3.676  2.8189 -1.0327  0.5755
 8194WAT    EPW33498   3.839   1.896   3.693  1.0020 -0.2437 -0.0651
 8195WAT      O33499   0.867   1.050   3.554 -0.4142  0.2306 -0.1330
 8195WAT     H133500   0.943   1.007   3.555 -1.4194 -1.6808  0.5436
 8195WAT     H233501   0.872   1.103   3.623  0.8053  1.1265 -0.8863
 8195WAT    EPW33502   0.879   1.051   3.564 -0.3825  0.0806 -0.1443
 8196WAT      O33503   0.106   5.159   6.598  0.3435  0.8008 -0.5949
 8196WAT     H133504   0.111   5.079   6.563 -0.5118  0.6304 -0.3418
 8196WAT     H233505   0.182   5.196   6.574  1.1614 -0.3871  0.0608
 8196WAT    EPW33506   0.118   5.153   6.589  0.3380  0.6002 -0.4606
 8197WAT      O33507   2.288   7.225   0.897  0.5142 -0.1006 -0.8866
 8197WAT     H133508   2.375   7.219   0.893  0.5043 -1.6849  0.3064
 8197WAT     H233509   2.262   7.192   0.821  0.9551 -1.8183 -0.3564
 8197WAT    EPW33510   2.297   7.219   0.885  0.5779 -0.5884 -0.6320
 8198WAT      O33511   3.516   7.092   0.725 -0.6631  0.2380  0.2968
 8198WAT     H133512   3.449   7.041   0.748 -1.7995  1.9631  0.9979
 8198WAT     H233513   3.479   7.169   0.709  1.0573  1.0132 -0.2230
 8198WAT    EPW33514   3.501   7.096   0.726 -0.5769  0.6073  0.3236
 8199WAT      O33515   1.783   5.186   1.272  0.4364 -0.2541  0.2640
 8199WAT     H133516   1.824   5.248   1.226  1.1301 -0.9201 -0.0454
 8199WAT     H233517   1.739   5.141   1.211  0.0947 -0.1825  0.4578
 8199WAT    EPW33518   1.783   5.188   1.256  0.4884 -0.3419  0.2469
 8200WAT      O33519   0.177   5.617   3.153 -0.4777 -0.4158 -0.0387
 8200WAT     H133520   0.192   5.621   3.239 -1.1027 -1.2543  0.1234
 8200WAT     H233521   0.235   5.558   3.125 -0.0692  0.0784 -0.2530
 8200WAT    EPW33522   0.188   5.609   3.161 -0.5097 -0.4667 -0.0464
 8201WAT      O33523   6.115   4.510   1.410  0.3235  0.0340 -0.4057
 8201WAT     H133524   6.057   4.519   1.346 -0.0610  3.1956  0.2526
 8201WAT     H233525   6.112   4.586   1.452  0.8572 -1.6844  3.1658
 8201WAT    EPW33526   6.106   4.522   1.407  0.3455  0.2472  0.2191
 8202WAT      O33527   1.481   4.840   0.382  0.0103 -0.0149 -0.0256
 8202WAT     H133528   1.458   4.877   0.458 -1.6661  2.4869 -1.5939
 8202WAT     H233529   1.561   4.872   0.368 -0.1031  0.3963  0.2095
 8202WAT    EPW33530   1.490   4.850   0.391 -0.2541  0.4154 -0.2225
 8203WAT      O33531   3.001   1.131   0.736 -0.3474 -0.0465 -0.4994
 8203WAT     H133532   3.054   1.189   0.698  0.2227  0.1921  0.6084
 8203WAT     H233533   3.052   1.062   0.750  0.0057  0.5268  1.4392
 8203WAT    EPW33534   3.016   1.129   0.733 -0.2110  0.0735 -0.0494
 8204WAT      O33535   1.609   3.005   3.805  0.0889  0.3845  0.6215
 8204WAT     H133536   1.658   3.046   3.745  0.5552 -1.9633 -0.7219
 8204WAT     H233537   1.529   3.007   3.770  0.1765 -0.1116  0.3830
 8204WAT    EPW33538   1.605   3.011   3.791  0.1707 -0.0356  0.3878
 8205WAT      O33539   4.540   1.937   7.078  0.3664  0.1808  0.0674
 8205WAT     H133540   4.574   1.987   7.141 -0.9476 -0.6154  1.4588
 8205WAT     H233541   4.547   1.856   7.110 -0.2293 -0.2614 -0.8776
 8205WAT    EPW33542   4.546   1.932   7.092  0.0843 -0.0021  0.1333
 8206WAT      O33543   5.110   6.534   1.417 -0.2981 -0.3253  0.4729
 8206WAT     H133544   5.108   6.451   1.390 -0.6753  0.3581 -1.8595
 8206WAT     H233545   5.156   6.531   1.491  1.1903 -2.4137 -0.4408
 8206WAT    EPW33546   5.117   6.522   1.424 -0.1340 -0.5328 -0.0066
 8207WAT      O33547   5.460   0.075   2.183  0.0215 -0.1654  0.0031
 8207WAT     H133548   5.503   0.142   2.218 -1.8054  0.2945  1.4947
 8207WAT     H233549   5.452   0.018   2.248 -1.4163 -0.3251 -0.2770
 8207WAT    EPW33550   5.466   0.076   2.198 -0.4608 -0.1211  0.1821
 8208WAT      O33551   2.629   3.750   7.342  0.3007  0.2537 -0.4479
 8208WAT     H133552   2.697   3.696   7.352  0.1708  0.2873  0.7265
 8208WAT     H233553   2.665   3.825   7.316  0.3938 -0.6590 -3.4121
 8208WAT    EPW33554   2.644   3.753   7.339  0.2953  0.1238 -0.7123
 8209WAT      O33555   0.192   4.596   0.010 -0.3371  0.1983 -0.4899
 8209WAT     H133556   0.210   4.640   0.084 -0.1380  1.5649 -1.3240
 8209WAT     H233557   0.264   4.549  -0.004 -0.3333  0.0088  0.1059
 8209WAT    EPW33558   0.205   4.595   0.019 -0.3071  0.3722 -0.5251
 8210WAT      O33559   2.729   5.233   2.075 -0.6336 -0.0859  0.4497
 8210WAT     H133560   2.728   5.287   2.144  0.1675  0.3629  0.1284
 8210WAT     H233561   2.788   5.172   2.098 -2.2425 -1.4152  1.2210
 8210WAT    EPW33562   2.738   5.232   2.088 -0.7529 -0.2160  0.5162
 8211WAT      O33563   6.930   7.021   1.044  0.1188  0.4992 -0.7987
 8211WAT     H133564   6.974   7.093   1.022  0.9980 -0.6526 -3.2746
 8211WAT     H233565   6.847   7.047   1.046  0.6177  2.4797  2.8728
 8211WAT    EPW33566   6.924   7.035   1.041  0.3224  0.6216 -0.6221
 8212WAT      O33567   1.932   4.127   2.657  0.0925  0.3270 -0.1910
 8212WAT     H133568   1.886   4.063   2.693  0.7511 -0.0563 -0.0196
 8212WAT     H233569   1.978   4.160   2.724 -1.0589  1.7338 -0.0284
 8212WAT    EPW33570   1.932   4.123   2.672  0.0197  0.4782 -0.1417
 8213WAT      O33571   4.465   0.651   4.948  0.5452  0.8189 -0.5093
 8213WAT     H133572   4.398   0.697   4.917  2.3219  1.9625 -3.0063
 8213WAT     H233573   4.526   0.711   4.964  1.5558 -0.3293  0.1617
 8213WAT    EPW33574   4.464   0.666   4.946  0.9569  0.8182 -0.7791
 8214WAT      O33575   2.599   0.179   7.336 -0.3900 -0.6361 -0.0255
 8214WAT     H133576   2.572   0.247   7.287 -1.5644 -0.3132  1.0251
 8214WAT     H233577   2.637   0.127   7.278  1.7176  1.4623 -0.7157
 8214WAT    EPW33578   2.600   0.182   7.320 -0.2521 -0.2784  0.0277
 8215WAT      O33579   2.868   0.981   7.040 -0.3333 -0.2229  0.0521
 8215WAT     H133580   2.814   1.041   7.007 -1.5645 -1.4583 -0.2866
 8215WAT     H233581   2.934   0.980   6.983 -0.5813  0.3901 -0.2636
 8215WAT    EPW33582   2.870   0.990   7.027 -0.5518 -0.3148 -0.0445
 8216WAT      O33583   2.872   0.701   2.332 -0.2618  0.2688 -0.2771
 8216WAT     H133584   2.840   0.632   2.375 -1.6764 -0.2811 -2.0981
 8216WAT     H233585   2.828   0.768   2.365 -0.8965 -0.0645 -0.4336
 8216WAT    EPW33586   2.861   0.700   2.343 -0.5646  0.1384 -0.5692
 8217WAT      O33587   3.208   0.332   0.199 -0.4586 -0.0514  0.0873
 8217WAT     H133588   3.131   0.290   0.202  0.6426 -2.1778  1.6002
 8217WAT     H233589   3.266   0.267   0.191  1.1882  1.5397 -1.8473
 8217WAT    EPW33590   3.205   0.316   0.198 -0.0527 -0.1305  0.0250
 8218WAT      O33591   4.568   7.244   0.868 -0.4948  0.1934  0.5931
 8218WAT     H133592   4.631   7.202   0.825 -1.1941 -2.8207  2.2335
 8218WAT     H233593   4.607   7.318   0.895  1.0879  0.2769 -1.6595
 8218WAT    EPW33594   4.583   7.249   0.866 -0.3643 -0.2395  0.5027
 8219WAT      O33595   6.786   5.137   2.391 -0.4120  0.4505  0.0520
 8219WAT     H133596   6.861   5.141   2.347 -0.3866 -0.1260  0.0394
 8219WAT     H233597   6.790   5.205   2.445 -0.9851  1.9512 -1.6711
 8219WAT    EPW33598   6.797   5.147   2.392 -0.4929  0.5870 -0.2044
 8220WAT      O33599   6.409   3.487   3.595  0.1428  0.4390 -0.5453
 8220WAT     H133600   6.371   3.554   3.554 -1.4958  0.7995  1.3609
 8220WAT     H233601   6.479   3.522   3.633  0.0998  0.7448 -0.7481
 8220WAT    EPW33602   6.413   3.502   3.594 -0.1056  0.5374 -0.2937
 8221WAT      O33603   0.621   0.882   3.970 -0.7280  0.0446  0.0749
 8221WAT     H133604   0.543   0.883   4.009 -1.1198  2.0546 -0.6395
 8221WAT     H233605   0.604   0.903   3.887  0.4405 -0.7474 -0.3933
 8221WAT    EPW33606   0.607   0.886   3.964 -0.6133  0.2245 -0.0998
 8222WAT      O33607   0.193   5.221   4.653  0.2992 -0.1935 -0.0082
 8222WAT     H133608   0.183   5.195   4.735  0.9678  1.3477  0.5885
 8222WAT     H233609   0.159   5.301   4.652  1.5140  0.3356 -0.9045
 8222WAT    EPW33610   0.186   5.229   4.665  0.5774  0.1124 -0.0525
 8223WAT      O33611   2.620   1.544   3.042  0.2638  0.2341 -0.3982
 8223WAT     H133612   2.628   1.630   3.056  1.0106  0.0012  0.7704
 8223WAT     H233613   2.638   1.536   2.957  3.0090  0.9693  0.0101
 8223WAT    EPW33614   2.624   1.556   3.031  0.7797  0.3083 -0.1652
 8224WAT      O33615   6.729   2.540   1.814  0.0996 -0.6070 -0.3577
 8224WAT     H133616   6.788   2.539   1.878  0.6156 -1.3010 -0.8241
 8224WAT     H233617   6.653   2.552   1.855  0.6355  1.2204  0.1921
 8224WAT    EPW33618   6.727   2.542   1.829  0.2550 -0.4396 -0.3453
 8225WAT      O33619   2.810   6.567   7.069  0.6930  0.3834  0.3861
 8225WAT     H133620   2.859   6.518   7.016  0.2832  0.0274  0.3325
 8225WAT     H233621   2.787   6.513   7.133 -1.1343  0.0139 -0.5185
 8225WAT    EPW33622   2.814   6.552   7.070  0.3625  0.2763  0.2446
 8226WAT      O33623   4.362   5.795   1.559 -0.0914  0.6972 -0.0713
 8226WAT     H133624   4.446   5.779   1.577 -1.1373 -1.1147  4.9502
 8226WAT     H233625   4.339   5.730   1.506  1.0053 -0.9627  1.3895
 8226WAT    EPW33626   4.371   5.783   1.554 -0.0839  0.1843  0.8862
 8227WAT      O33627   6.250   5.630   7.223 -0.6214  0.2579 -0.0723
 8227WAT     H133628   6.198   5.624   7.154  1.0495  0.3396 -1.4103
 8227WAT     H233629   6.233   5.710   7.255 -0.6552  0.6534 -1.0509
 8227WAT    EPW33630   6.240   5.641   7.218 -0.3796  0.3284 -0.4145
 8228WAT      O33631   0.567   2.784   3.286  0.0895  0.0816  0.2945
 8228WAT     H133632   0.540   2.866   3.301 -0.2622  0.3058 -1.3059
 8228WAT     H233633   0.566   2.779   3.199 -0.4262 -1.8151  0.3780
 8228WAT    EPW33634   0.563   2.796   3.275 -0.0386 -0.1654  0.0704
 8229WAT      O33635   4.243   2.011   3.775 -0.2050 -0.2472  0.7347
 8229WAT     H133636   4.179   2.063   3.805  0.1134  0.3042  0.4724
 8229WAT     H233637   4.283   2.060   3.715  0.8787 -0.3268  1.3497
 8229WAT    EPW33638   4.240   2.026   3.771  0.0021 -0.1775  0.7868
 8230WAT      O33639   4.063   6.769   1.974  0.5067 -0.0550 -0.5263
 8230WAT     H133640   4.134   6.752   2.021 -0.5423  0.0568  1.2037
 8230WAT     H233641   4.025   6.834   2.018  0.7912  1.9585 -3.0279
 8230WAT    EPW33642   4.068   6.776   1.988  0.3938  0.2589 -0.6403
 8231WAT      O33643   1.418   6.180   7.420 -0.2284 -0.3539 -0.0078
 8231WAT     H133644   1.344   6.219   7.444 -0.1884  0.6789 -1.4643
 8231WAT     H233645   1.417   6.105   7.465 -1.4182  0.3024  1.1219
 8231WAT    EPW33646   1.407   6.174   7.430 -0.3982 -0.1044 -0.0561
 8232WAT      O33647   1.000   6.719   2.068  0.5043  0.1125  0.2636
 8232WAT     H133648   1.014   6.694   2.150  0.7134  0.0705  0.2172
 8232WAT     H233649   0.923   6.682   2.048  1.1376 -1.1072 -0.0291
 8232WAT    EPW33650   0.991   6.710   2.077  0.6287 -0.0739  0.2135
 8233WAT      O33651   6.103   4.241   7.007 -0.3562  0.2112 -0.2337
 8233WAT     H133652   6.019   4.251   7.028 -1.0779 -1.1315 -2.2100
 8233WAT     H233653   6.108   4.271   6.926  0.8358 -0.6753 -0.5237
 8233WAT    EPW33654   6.092   4.247   6.999 -0.2868 -0.1181 -0.5685
 8234WAT      O33655   4.289   5.790   0.065  0.1015 -0.2662 -0.6048
 8234WAT     H133656   4.267   5.812  -0.016 -0.3855 -0.4120 -0.5158
 8234WAT     H233657   4.376   5.787   0.063  0.1749  1.2252 -0.7270
 8234WAT    EPW33658   4.298   5.793   0.053  0.0404 -0.0674 -0.6097
 8235WAT      O33659   5.246   5.086   2.833 -0.2330  0.0284 -0.3607
 8235WAT     H133660   5.313   5.033   2.818 -0.6563 -0.4065 -0.7417
 8235WAT     H233661   5.274   5.163   2.804  0.8639  0.3267  1.3668
 8235WAT    EPW33662   5.260   5.090   2.827 -0.1335  0.0082 -0.1618
 8236WAT      O33663   5.964   1.553   6.088 -0.2317  0.5236 -0.2382
 8236WAT     H133664   5.968   1.639   6.096 -1.5921  0.4270  2.2103
 8236WAT     H233665   5.900   1.541   6.030 -2.3206  1.2036  1.7789
 8236WAT    EPW33666   5.955   1.564   6.080 -0.7412  0.6098  0.4214
 8237WAT      O33667   7.249   1.454   5.621 -0.7854  0.7856  0.5599
 8237WAT     H133668   7.226   1.375   5.593  1.1254  0.7613 -1.1802
 8237WAT     H233669   7.185   1.506   5.593 -0.1635  0.3770 -1.8563
 8237WAT    EPW33670   7.236   1.450   5.613 -0.4112  0.7217 -0.0541
 8238WAT      O33671   4.823   6.352   7.329  0.3014 -0.1293 -0.4675
 8238WAT     H133672   4.855   6.393   7.399  0.2346 -1.3757  0.3324
 8238WAT     H233673   4.804   6.417   7.274 -0.5363  0.9694  1.0421
 8238WAT    EPW33674   4.825   6.368   7.331  0.1678 -0.1511 -0.1264
 8239WAT      O33675   7.083   3.241   1.657  0.3151 -0.2466  0.0626
 8239WAT     H133676   7.097   3.165   1.698  1.1288  0.3723  0.9597
 8239WAT     H233677   7.034   3.218   1.588 -0.4543 -1.4113  0.9681
 8239WAT    EPW33678   7.078   3.226   1.653  0.3217 -0.3273  0.3289
 8240WAT      O33679   2.325   4.759   2.858  0.6910  0.0821 -0.2803
 8240WAT     H133680   2.394   4.711   2.881  0.4117  0.2838  1.0699
 8240WAT     H233681   2.299   4.723   2.782  2.8349  0.6145 -1.3319
 8240WAT    EPW33682   2.331   4.746   2.850  0.9665  0.1905 -0.2362
 8241WAT      O33683   1.876   2.530   2.050  0.0443 -0.1358  0.7821
 8241WAT     H133684   1.829   2.472   2.095  0.3468  0.3006  1.6820
 8241WAT     H233685   1.860   2.605   2.091 -1.1216  0.6400 -0.9479
 8241WAT    EPW33686   1.866   2.532   2.063 -0.0832  0.0433  0.6594
 8242WAT      O33687   0.546   3.395   4.355  0.5952  0.6218 -0.7255
 8242WAT     H133688   0.610   3.373   4.300 -0.0431  1.8071 -1.9798
 8242WAT     H233689   0.587   3.441   4.417  1.3232 -0.7615 -0.1215
 8242WAT    EPW33690   0.561   3.398   4.356  0.6085  0.5926 -0.8216
 8243WAT      O33691   6.276   5.117   3.503 -0.9663  0.1050  0.4822
 8243WAT     H133692   6.257   5.187   3.551 -0.6934  0.6005 -0.1257
 8243WAT     H233693   6.363   5.121   3.495 -1.0357  0.1619 -0.2549
 8243WAT    EPW33694   6.286   5.128   3.509 -0.9362  0.1866  0.2835
 8244WAT      O33695   1.773   0.619   5.435 -0.3823  0.1383 -0.4176
 8244WAT     H133696   1.851   0.654   5.419 -0.2546 -0.2226 -0.5988
 8244WAT     H233697   1.767   0.555   5.377  0.7846 -2.2573  1.8481
 8244WAT    EPW33698   1.784   0.615   5.424 -0.1910 -0.2689 -0.1097
 8245WAT      O33699   2.708   0.085   4.362 -0.0538 -0.0733 -0.0393
 8245WAT     H133700   2.674   0.127   4.431 -0.6929 -0.2962 -0.2153
 8245WAT     H233701   2.747   0.016   4.398 -0.3837 -0.1892  0.1004
 8245WAT    EPW33702   2.709   0.081   4.378 -0.1969 -0.1233 -0.0447
 8246WAT      O33703   2.874   4.396   0.194  0.0457  0.3310  0.3192
 8246WAT     H133704   2.876   4.320   0.152  0.0269  0.1838  0.5784
 8246WAT     H233705   2.940   4.441   0.159 -1.1791  0.9824 -1.2590
 8246WAT    EPW33706   2.884   4.392   0.183 -0.1380  0.4055  0.1243
 8247WAT      O33707   6.556   0.757   5.049  0.1532 -0.1700  0.3815
 8247WAT     H133708   6.523   0.677   5.034  1.3372 -0.7057  0.4819
 8247WAT     H233709   6.486   0.807   5.059 -0.6366 -1.4973  1.9408
 8247WAT    EPW33710   6.541   0.752   5.048  0.2114 -0.4452  0.6266
 8248WAT      O33711   3.403   1.001   1.971  0.4379 -0.0822  0.2812
 8248WAT     H133712   3.357   0.938   2.010 -1.9700  0.5848 -1.2982
 8248WAT     H233713   3.473   1.010   2.023 -0.1557 -2.5766  1.6801
 8248WAT    EPW33714   3.407   0.993   1.984 -0.0055 -0.3522  0.2546
 8249WAT      O33715   6.854   5.517   4.750  0.6457 -0.4532  0.0591
 8249WAT     H133716   6.851   5.544   4.667  0.3441 -0.6280  0.0115
 8249WAT     H233717   6.930   5.549   4.779 -1.8543  5.2727  1.7109
 8249WAT    EPW33718   6.865   5.525   4.742  0.2318  0.3668  0.2961
 8250WAT      O33719   2.983   1.325   6.975 -0.1866  0.5142 -0.4537
 8250WAT     H133720   2.924   1.316   7.038  0.5405 -0.6731  0.0742
 8250WAT     H233721   3.017   1.404   6.990  1.6872 -0.6418  2.1980
 8250WAT    EPW33722   2.979   1.336   6.986  0.1976  0.1681  0.0160
 8251WAT      O33723   6.208   3.123   0.598 -0.0275 -0.3104  0.1592
 8251WAT     H133724   6.250   3.180   0.648  0.0425 -0.4580  0.2656
 8251WAT     H233725   6.218   3.156   0.517  0.4903 -0.4742  0.1567
 8251WAT    EPW33726   6.216   3.136   0.593  0.0593 -0.3564  0.1746
 8252WAT      O33727   0.819   6.154   3.351  0.4624 -0.2350  0.5010
 8252WAT     H133728   0.794   6.071   3.340 -0.4892 -0.1111  1.5832
 8252WAT     H233729   0.762   6.185   3.409 -0.9016  1.9300 -1.7450
 8252WAT    EPW33730   0.807   6.147   3.358  0.1203  0.1031  0.3291
 8253WAT      O33731   0.159   3.552   3.108 -0.0969 -0.5132 -0.1229
 8253WAT     H133732   0.081   3.583   3.132 -0.3067 -0.1661 -1.1726
 8253WAT     H233733   0.203   3.544   3.183 -0.5835  0.8635  0.3290
 8253WAT    EPW33734   0.154   3.555   3.123 -0.1998 -0.2585 -0.2112
 8254WAT      O33735   6.430   3.211   4.144  0.4128 -0.0741 -0.5102
 8254WAT     H133736   6.498   3.246   4.186 -0.4476  0.1003  0.7853
 8254WAT     H233737   6.445   3.125   4.149  1.3144 -0.0150 -1.6292
 8254WAT    EPW33738   6.443   3.204   4.151  0.4189 -0.0396 -0.4841
 8255WAT      O33739   7.203   1.250   0.299 -0.5910  0.4994 -0.2345
 8255WAT     H133740   7.170   1.221   0.375 -1.7212  1.4178 -0.3437
 8255WAT     H233741   7.282   1.280   0.320 -0.5310 -0.0788  0.3971
 8255WAT    EPW33742   7.209   1.250   0.313 -0.7491  0.5497 -0.1573
 8256WAT      O33743   3.772   2.648   1.533 -0.1341 -0.8588 -0.1691
 8256WAT     H133744   3.824   2.621   1.468 -1.1369 -0.5182 -1.1482
 8256WAT     H233745   3.804   2.727   1.553  1.1573 -1.6110  0.8721
 8256WAT    EPW33746   3.784   2.656   1.526 -0.0915 -0.9196 -0.1600
 8257WAT      O33747   2.484   6.193   2.921 -0.0636 -0.5699 -0.2269
 8257WAT     H133748   2.535   6.166   2.856  0.4087 -3.0449  1.0230
 8257WAT     H233749   2.439   6.122   2.942 -0.5818  0.2770  1.7845
 8257WAT    EPW33750   2.485   6.178   2.915 -0.0704 -0.8104  0.2549
 8258WAT      O33751   6.289   7.210   1.480 -0.0791  0.1472 -0.1526
 8258WAT     H133752   6.342   7.236   1.544 -1.7980  1.1300  0.9798
 8258WAT     H233753   6.276   7.282   1.433  2.0733 -0.8033 -2.4446
 8258WAT    EPW33754   6.295   7.224   1.483 -0.0151  0.1520 -0.3239
 8259WAT      O33755   2.053   0.049   0.191 -0.0679 -0.4532 -0.6142
 8259WAT     H133756   2.074   0.122   0.149 -0.0548 -0.2288 -0.2138
 8259WAT     H233757   2.110   0.045   0.257 -1.0832  0.0142  0.3178
 8259WAT    EPW33758   2.065   0.059   0.194 -0.2160 -0.3510 -0.4174
 8260WAT      O33759   2.721   7.164   6.784  0.3773  0.4594  0.5217
 8260WAT     H133760   2.805   7.146   6.799  0.0103 -0.7685  1.1989
 8260WAT     H233761   2.689   7.089   6.751 -0.7176  0.5153  1.3944
 8260WAT    EPW33762   2.729   7.150   6.781  0.1613  0.2863  0.7507
 8261WAT      O33763   5.711   4.670   3.671  0.5001  0.0254 -0.0748
 8261WAT     H133764   5.745   4.704   3.599  0.6183 -1.9774 -1.0312
 8261WAT     H233765   5.779   4.632   3.711  0.1042 -0.5408  0.0791
 8261WAT    EPW33766   5.726   4.670   3.667  0.4591 -0.3541 -0.1933
 8262WAT      O33767   4.552   5.253   0.599  0.4204  0.9053 -0.1525
 8262WAT     H133768   4.613   5.304   0.562  1.1106  0.1524 -0.0646
 8262WAT     H233769   4.535   5.292   0.675  0.2526  1.5123 -0.4917
 8262WAT    EPW33770   4.558   5.266   0.604  0.4976  0.8837 -0.1896
 8263WAT      O33771   0.959   4.076   4.329 -0.4413  0.5828 -0.1601
 8263WAT     H133772   0.927   4.019   4.387 -1.4561  0.6868 -0.5840
 8263WAT     H233773   0.989   4.141   4.378 -1.2436  0.6490  0.2593
 8263WAT    EPW33774   0.959   4.077   4.345 -0.7098  0.6079 -0.1608
 8264WAT      O33775   1.696   2.479   4.510  0.1878  0.0614  0.1812
 8264WAT     H133776   1.701   2.565   4.498 -1.6713  0.2332  0.4525
 8264WAT     H233777   1.668   2.449   4.433 -0.5438 -0.1287  0.5129
 8264WAT    EPW33778   1.693   2.487   4.497 -0.1949  0.0587  0.2703
 8265WAT      O33779   1.712   4.424   5.362 -0.2272 -0.1934  0.2709
 8265WAT     H133780   1.656   4.368   5.399  0.6977  0.1261  2.2606
 8265WAT     H233781   1.784   4.417   5.411  0.5335  1.4054 -0.5385
 8265WAT    EPW33782   1.714   4.415   5.375  0.0218  0.0900  0.4452
 8266WAT      O33783   5.724   1.039   2.296 -0.0352  0.5445  0.0238
 8266WAT     H133784   5.782   1.088   2.254 -1.0172  0.4793 -1.4973
 8266WAT     H233785   5.772   0.979   2.337  0.9686 -0.9900 -3.0863
 8266WAT    EPW33786   5.739   1.037   2.296 -0.0320  0.3082 -0.6603
 8267WAT      O33787   2.439   5.368   0.506 -0.3225 -0.0524  0.0509
 8267WAT     H133788   2.506   5.313   0.510 -0.8613 -0.8511 -1.1586
 8267WAT     H233789   2.460   5.431   0.563  2.7920  1.2107 -2.1633
 8267WAT    EPW33790   2.452   5.369   0.515  0.0580  0.0162 -0.4549
 8268WAT      O33791   6.947   4.765   1.425  0.0953  0.1882 -0.2213
 8268WAT     H133792   7.013   4.818   1.447 -1.5647  2.4998 -0.4185
 8268WAT     H233793   6.988   4.696   1.389  2.4401  0.5738  1.4551
 8268WAT    EPW33794   6.963   4.763   1.423  0.1965  0.5866 -0.0028
 8269WAT      O33795   1.588   4.457   5.752 -0.1878  0.3014  0.3206
 8269WAT     H133796   1.590   4.390   5.696 -0.6764  1.2136 -0.8436
 8269WAT     H233797   1.619   4.424   5.826 -0.8578 -1.3340 -0.0894
 8269WAT    EPW33798   1.593   4.442   5.755 -0.3590  0.1946  0.0881
 8270WAT      O33799   3.981   1.096   5.886  0.1457 -0.8589 -0.2275
 8270WAT     H133800   3.919   1.065   5.939  0.0122 -1.4762 -0.7268
 8270WAT     H233801   4.011   1.025   5.846  1.1926 -0.5701  0.0075
 8270WAT    EPW33802   3.976   1.081   5.888  0.2807 -0.9074 -0.2665
 8271WAT      O33803   6.166   2.812   2.368  0.2839  0.0809  0.4288
 8271WAT     H133804   6.120   2.885   2.375  1.7464  1.1300 -0.3909
 8271WAT     H233805   6.222   2.817   2.434  0.3221 -0.3619  0.4316
 8271WAT    EPW33806   6.167   2.823   2.379  0.5056  0.1704  0.3081
 8272WAT      O33807   3.337   1.448   3.397  0.5939 -0.1544  0.1667
 8272WAT     H133808   3.350   1.487   3.475 -0.7317 -0.3437  0.5100
 8272WAT     H233809   3.381   1.374   3.404 -0.4907 -0.7467  1.2474
 8272WAT    EPW33810   3.345   1.443   3.410  0.2379 -0.2699  0.3771
 8273WAT      O33811   6.420   0.524   3.019  0.1886 -0.1988 -0.7280
 8273WAT     H133812   6.449   0.444   3.002  0.8081 -0.3096  0.7203
 8273WAT     H233813   6.376   0.546   2.947  1.4736 -1.1561 -1.8492
 8273WAT    EPW33814   6.418   0.516   3.006  0.4699 -0.3565 -0.6797
 8274WAT      O33815   7.032   1.638   5.505 -0.2267  0.1022 -0.3613
 8274WAT     H133816   7.047   1.685   5.577  1.2107  0.4887 -0.8784
 8274WAT     H233817   6.984   1.571   5.534  1.8325 -0.7523  1.3228
 8274WAT    EPW33818   7.027   1.635   5.520  0.2899  0.0331 -0.1889
 8275WAT      O33819   5.165   4.130   3.197  0.1530  0.0334  0.2001
 8275WAT     H133820   5.150   4.186   3.262 -0.5755 -0.0019  0.0714
 8275WAT     H233821   5.177   4.054   3.236  2.0787  0.4257  0.4444
 8275WAT    EPW33822   5.164   4.127   3.212  0.3298  0.0861  0.2172
 8276WAT      O33823   1.940   6.377   4.824  0.1824 -0.2569 -0.1549
 8276WAT     H133824   1.913   6.313   4.770  0.2269  0.0217 -0.5161
 8276WAT     H233825   1.982   6.432   4.770  0.2574  0.0092  0.1744
 8276WAT    EPW33826   1.942   6.376   4.808  0.2001 -0.1765 -0.1596
 8277WAT      O33827   4.807   5.616   5.782  0.6303 -0.2852  0.1231
 8277WAT     H133828   4.733   5.592   5.744  0.4023  1.7128 -0.8123
 8277WAT     H233829   4.821   5.554   5.841 -1.6368 -0.8435  0.1452
 8277WAT    EPW33830   4.798   5.603   5.785  0.2617 -0.0725 -0.0118
 8278WAT      O33831   2.040   0.725   0.811 -0.0079 -0.2865  0.1901
 8278WAT     H133832   1.979   0.771   0.854  0.3031 -0.2497  0.6029
 8278WAT     H233833   1.995   0.661   0.773 -0.3303 -0.1444  0.3317
 8278WAT    EPW33834   2.024   0.723   0.812 -0.0096 -0.2601  0.2720
 8279WAT      O33835   5.744   1.737   3.690  0.5912 -0.6236  0.0857
 8279WAT     H133836   5.790   1.747   3.616  0.5092 -1.0054 -0.0164
 8279WAT     H233837   5.713   1.817   3.706  2.1406 -0.1076  0.7142
 8279WAT    EPW33838   5.747   1.750   3.682  0.8080 -0.6038  0.1634
 8280WAT      O33839   5.844   0.385   6.077  0.6398 -0.6805 -0.8691
 8280WAT     H133840   5.850   0.402   6.162 -1.8985  0.2353 -0.7754
 8280WAT     H233841   5.866   0.460   6.039  0.1500 -0.5588 -0.9236
 8280WAT    EPW33842   5.848   0.398   6.084  0.1925 -0.5272 -0.8633
 8281WAT      O33843   5.155   0.652   0.803  0.3828  0.7774 -0.5583
 8281WAT     H133844   5.210   0.585   0.804  1.1507  1.3932 -0.5431
 8281WAT     H233845   5.203   0.718   0.772  0.1303  1.7281  0.9678
 8281WAT    EPW33846   5.170   0.652   0.798  0.4589  1.0088 -0.3306
 8282WAT      O33847   0.503   0.204   4.113  0.0431  0.1401  0.5427
 8282WAT     H133848   0.423   0.232   4.093 -0.6666 -2.1695 -0.1494
 8282WAT     H233849   0.490   0.146   4.177  1.0679 -0.8133 -0.0760
 8282WAT    EPW33850   0.490   0.200   4.120  0.0896 -0.3419  0.3490
 8283WAT      O33851   4.826   6.418   2.052  0.5677  0.2146  0.2273
 8283WAT     H133852   4.758   6.362   2.054  0.6648  0.0530 -0.6159
 8283WAT     H233853   4.869   6.399   2.126 -0.7299  0.8824  1.1979
 8283WAT    EPW33854   4.823   6.407   2.063  0.3903  0.2894  0.2461
 8284WAT      O33855   1.668   6.838   7.312  0.1451  0.2065  0.0532
 8284WAT     H133856   1.649   6.822   7.228 -0.3720 -1.3212  0.4200
 8284WAT     H233857   1.613   6.903   7.334  0.3528  0.6786 -0.7991
 8284WAT    EPW33858   1.657   6.845   7.303  0.0994  0.0505 -0.0185
 8285WAT      O33859   5.051   1.863   2.445  0.6756 -0.1348  0.1875
 8285WAT     H133860   5.028   1.923   2.504 -0.5700  0.3697 -0.7567
 8285WAT     H233861   5.015   1.893   2.371  0.0808 -1.9951 -0.3279
 8285WAT    EPW33862   5.042   1.876   2.443  0.4037 -0.3351 -0.0281
 8286WAT      O33863   0.059   6.150   3.340  0.6490  0.1005 -0.2742
 8286WAT     H133864   0.100   6.226   3.349  0.9914 -0.2898  2.0692
 8286WAT     H233865   0.018   6.139   3.416 -0.7584 -1.3068 -1.1470
 8286WAT    EPW33866   0.059   6.160   3.352  0.4917 -0.1650 -0.0569
 8287WAT      O33867   1.319   0.884   2.753  1.2206  0.0740 -0.5315
 8287WAT     H133868   1.320   0.894   2.666 -0.9182  1.5240 -0.4735
 8287WAT     H233869   1.287   0.804   2.764  1.4700 -0.1039 -1.0615
 8287WAT    EPW33870   1.314   0.873   2.742  0.9415  0.2619 -0.6013
 8288WAT      O33871   5.311   2.571   0.646  0.4062  0.0983 -0.2199
 8288WAT     H133872   5.281   2.628   0.587  1.4604 -1.3980 -2.3596
 8288WAT     H233873   5.398   2.572   0.633  0.7426  0.1672  1.7899
 8288WAT    EPW33874   5.320   2.580   0.635  0.6116 -0.1125 -0.2391
 8289WAT      O33875   4.100   7.140   1.269  0.4549  0.3984 -0.2701
 8289WAT     H133876   4.176   7.131   1.310  0.8427 -0.4143 -1.1294
 8289WAT     H233877   4.113   7.209   1.217  1.0149 -0.4266 -1.2573
 8289WAT    EPW33878   4.113   7.149   1.267  0.5949  0.1565 -0.5429
 8290WAT      O33879   0.714   6.543   7.108  0.3198 -0.5300  0.3609
 8290WAT     H133880   0.799   6.542   7.127 -0.0495 -0.7421  2.1844
 8290WAT     H233881   0.712   6.552   7.021  2.1924  2.4630  0.4696
 8290WAT    EPW33882   0.726   6.544   7.098  0.5419 -0.1192  0.6464
 8291WAT      O33883   4.469   3.742   6.222  0.1981  0.2888  0.4649
 8291WAT     H133884   4.407   3.705   6.174  1.0425  0.3955 -0.7559
 8291WAT     H233885   4.437   3.820   6.242 -0.4924 -0.0637  0.7790
 8291WAT    EPW33886   4.455   3.748   6.218  0.2208  0.2525  0.3309
 8292WAT      O33887   1.234   1.112   3.795 -0.2743 -0.2278 -0.0485
 8292WAT     H133888   1.148   1.097   3.795 -0.4602  0.5626  1.9618
 8292WAT     H233889   1.268   1.035   3.817 -0.4078 -0.6337 -1.1768
 8292WAT    EPW33890   1.226   1.099   3.798 -0.3215 -0.1710  0.0818
 8293WAT      O33891   2.281   4.287   1.337  0.2209  0.2810  0.2222
 8293WAT     H133892   2.281   4.218   1.284 -0.8179  0.1036  0.4233
 8293WAT     H233893   2.197   4.313   1.337 -0.0647 -0.4008  2.6197
 8293WAT    EPW33894   2.268   4.281   1.329  0.0252  0.1541  0.6061
 8294WAT      O33895   1.082   2.143   4.803 -0.0529 -0.0032  0.9046
 8294WAT     H133896   1.099   2.226   4.783  0.2492  0.3187  2.4005
 8294WAT     H233897   0.997   2.135   4.784  0.5389 -0.2616 -2.1037
 8294WAT    EPW33898   1.072   2.154   4.797  0.0792  0.0062  0.6812
 8295WAT      O33899   2.406   6.335   0.637 -0.9922 -0.1095  0.0380
 8295WAT     H133900   2.450   6.410   0.638 -0.3553 -0.4253 -1.2888
 8295WAT     H233901   2.446   6.287   0.699 -0.2339  0.0284 -0.3325
 8295WAT    EPW33902   2.418   6.339   0.646 -0.7861 -0.1358 -0.2127
 8296WAT      O33903   1.636   6.048   0.359  0.4415 -0.0977  0.2691
 8296WAT     H133904   1.691   5.980   0.361 -0.1267 -0.5616  2.0159
 8296WAT     H233905   1.688   6.116   0.343  1.0552 -0.8742 -1.3126
 8296WAT    EPW33906   1.652   6.048   0.357  0.4482 -0.2809  0.2934
 8297WAT      O33907   0.844   4.102   2.698 -0.3110 -0.0207  0.5695
 8297WAT     H133908   0.803   4.173   2.725  0.9994  1.3461 -0.8167
 8297WAT     H233909   0.784   4.059   2.652 -0.4249  1.6480 -0.9504
 8297WAT    EPW33910   0.829   4.106   2.695 -0.1342  0.4277  0.1402
 8298WAT      O33911   6.301   7.118   5.137  0.2984 -0.1027  0.4987
 8298WAT     H133912   6.224   7.076   5.142 -0.3745  0.7018 -1.8159
 8298WAT     H233913   6.277   7.201   5.127  1.5719  0.4930  1.9417
 8298WAT    EPW33914   6.286   7.124   5.137  0.3871  0.1042  0.3700
 8299WAT      O33915   2.801   5.443   1.860  0.2020  0.6649 -0.2075
 8299WAT     H133916   2.767   5.387   1.917  0.2382  1.6794  0.8512
 8299WAT     H233917   2.734   5.463   1.808 -0.1161  0.5816  0.1698
 8299WAT    EPW33918   2.786   5.438   1.861  0.1604  0.8025  0.0046
 8300WAT      O33919   2.912   5.172   0.708 -0.6985 -0.0296 -0.1403
 8300WAT     H133920   2.995   5.156   0.731 -0.9967 -0.0364  0.9668
 8300WAT     H233921   2.903   5.127   0.633  0.5269  0.6275 -0.7237
 8300WAT    EPW33922   2.923   5.163   0.700 -0.5615  0.0664 -0.0630
 8301WAT      O33923   0.861   5.348   4.451  0.5982  0.4294 -0.0561
 8301WAT     H133924   0.795   5.301   4.483  0.1077  2.4878  2.2363
 8301WAT     H233925   0.930   5.318   4.496  1.1095 -0.9814 -1.6901
 8301WAT    EPW33926   0.862   5.337   4.463  0.6013  0.5251  0.0412
 8302WAT      O33927   5.470   2.974   3.712 -0.4606 -0.1765  0.1782
 8302WAT     H133928   5.388   2.952   3.692 -0.7416  1.1869 -0.2386
 8302WAT     H233929   5.461   3.050   3.754  0.6726  0.6544 -1.0282
 8302WAT    EPW33930   5.456   2.982   3.715 -0.3347  0.1476 -0.0616
 8303WAT      O33931   6.264   2.662   2.746  0.3100  0.2793  0.1880
 8303WAT     H133932   6.198   2.608   2.764  0.7488 -0.3215  0.0332
 8303WAT     H233933   6.280   2.702   2.822 -1.9667  2.4358 -0.3464
 8303WAT    EPW33934   6.257   2.660   2.760  0.0385  0.5091  0.0862
 8304WAT      O33935   5.797   0.025   0.071  0.0435  0.1806  0.6577
 8304WAT     H133936   5.766  -0.038   0.020 -1.4684  1.7916 -0.5528
 8304WAT     H233937   5.821  -0.017   0.143 -2.1572 -1.6156  0.4595
 8304WAT    EPW33938   5.796   0.010   0.074 -0.5049  0.1532  0.4496
 8305WAT      O33939   5.853   7.130   3.877  0.2565 -0.4662  0.7960
 8305WAT     H133940   5.870   7.213   3.899  0.3616  0.8013 -3.1462
 8305WAT     H233941   5.926   7.088   3.898  0.3723  0.4894  2.5032
 8305WAT    EPW33942   5.866   7.136   3.883  0.2891 -0.1378  0.4658
 8306WAT      O33943   2.004   5.161   0.051  0.3548  0.0533 -0.0739
 8306WAT     H133944   1.958   5.167  -0.023 -0.2913 -0.1862  0.3026
 8306WAT     H233945   1.984   5.234   0.094 -1.0496 -0.8366  0.8529
 8306WAT    EPW33946   1.994   5.173   0.046  0.0519 -0.1135  0.1187
 8307WAT      O33947   1.209   6.012   4.720 -0.6006  0.0368  0.0049
 8307WAT     H133948   1.175   6.031   4.798  0.1284 -0.4453  0.4495
 8307WAT     H233949   1.142   5.975   4.677 -0.5761 -1.1278  0.9493
 8307WAT    EPW33950   1.194   6.010   4.725 -0.4893 -0.2064  0.2101
 8308WAT      O33951   3.273   6.531   3.783  0.1671  0.3717  0.0371
 8308WAT     H133952   3.303   6.529   3.865 -0.9257  0.0569  0.4492
 8308WAT     H233953   3.334   6.489   3.737  1.6105  1.9511  0.3924
 8308WAT    EPW33954   3.286   6.525   3.788  0.2189  0.5585  0.1504
 8309WAT      O33955   6.292   4.008   5.604 -0.5297  0.8249  0.4499
 8309WAT     H133956   6.299   3.921   5.594  1.4270  0.8890  0.7764
 8309WAT     H233957   6.221   4.028   5.558  0.9926 -0.4896 -2.8083
 8309WAT    EPW33958   6.283   3.998   5.596 -0.0158  0.6402  0.0168
 8310WAT      O33959   3.706   3.192   5.440  0.5796 -0.0825 -0.5974
 8310WAT     H133960   3.777   3.242   5.435  0.1070  0.6209 -0.3252
 8310WAT     H233961   3.707   3.148   5.364 -0.0652  1.7837 -1.7555
 8310WAT    EPW33962   3.716   3.193   5.428  0.4145  0.2970 -0.7283
 8311WAT      O33963   3.599   6.544   2.091 -0.0621  0.4424 -0.3755
 8311WAT     H133964   3.667   6.564   2.142 -0.8996 -0.8731  1.3438
 8311WAT     H233965   3.559   6.620   2.079  1.5898  1.2206 -1.3023
 8311WAT    EPW33966   3.604   6.558   2.097  0.0582  0.3630 -0.2584
 8312WAT      O33967   5.629   0.248   6.788  0.0725  0.0088 -0.0968
 8312WAT     H133968   5.594   0.254   6.868  1.1554 -0.2903  0.4210
 8312WAT     H233969   5.712   0.271   6.801  0.7061 -1.7762 -0.8034
 8312WAT    EPW33970   5.636   0.253   6.802  0.3261 -0.2990 -0.1247
 8313WAT      O33971   5.851   3.933   7.038  0.5044  0.4188 -0.2802
 8313WAT     H133972   5.779   3.891   7.013 -0.3553  1.1400  0.8645
 8313WAT     H233973   5.850   4.006   6.990  1.0728 -0.0577 -1.0367
 8313WAT    EPW33974   5.840   3.938   7.027  0.4614  0.4549 -0.2228
 8314WAT      O33975   2.656   0.159   3.645  0.2599 -0.0858 -0.5296
 8314WAT     H133976   2.637   0.085   3.688 -0.9228 -0.3352 -1.4240
 8314WAT     H233977   2.743   0.155   3.636  0.2351 -1.3494 -0.5004
 8314WAT    EPW33978   2.666   0.147   3.650  0.0816 -0.3093 -0.6574
 8315WAT      O33979   2.406   2.103   2.385  0.1010  0.2653  0.1083
 8315WAT     H133980   2.455   2.173   2.403 -1.5041  1.0826  1.6025
 8315WAT     H233981   2.326   2.127   2.410 -0.8397 -1.4738 -1.0448
 8315WAT    EPW33982   2.401   2.117   2.391 -0.2750  0.1291  0.1587
 8316WAT      O33983   6.537   0.229   4.534  0.5618  0.0123 -0.5809
 8316WAT     H133984   6.540   0.213   4.620  1.0756  0.4428 -0.5110
 8316WAT     H233985   6.615   0.203   4.506  0.7089  0.6291 -0.7697
 8316WAT    EPW33986   6.549   0.223   4.543  0.6594  0.1670 -0.5985
 8317WAT      O33987   1.858   2.318   5.681  0.0436  0.0038 -0.3699
 8317WAT     H133988   1.779   2.296   5.710  0.5040 -1.1070  0.0921
 8317WAT     H233989   1.855   2.299   5.596 -0.3787  0.5796 -0.4953
 8317WAT    EPW33990   1.846   2.312   5.673  0.0492 -0.0753 -0.3202
 8318WAT      O33991   7.151   0.266   2.122 -0.0457  0.0426  0.1613
 8318WAT     H133992   7.193   0.343   2.129 -0.1289  0.0337  0.8882
 8318WAT     H233993   7.211   0.209   2.149 -0.8738  0.1461  2.4462
 8318WAT    EPW33994   7.166   0.269   2.127 -0.1803  0.0566  0.6062
 8319WAT      O33995   5.328   0.322   3.228 -0.2702  0.1891 -0.4794
 8319WAT     H133996   5.254   0.308   3.272 -0.3955 -2.1814 -1.3367
 8319WAT     H233997   5.372   0.377   3.280 -2.1926  0.8697  0.5138
 8319WAT    EPW33998   5.324   0.328   3.242 -0.5727 -0.0605 -0.4593
 8320WAT      O33999   1.165   5.261   1.686 -0.3135 -0.1567 -0.3025
 8320WAT     H134000   1.121   5.308   1.745 -1.1239  0.1641 -1.1587
 8320WAT     H234001   1.166   5.181   1.721 -1.4860 -0.1416 -0.2187
 8320WAT    EPW34002   1.159   5.256   1.700 -0.6064 -0.1071 -0.4166
 8321WAT      O34003   3.693   4.362   2.337  0.0628 -0.1360 -0.0006
 8321WAT     H134004   3.648   4.296   2.372  0.3087 -0.4995 -0.3666
 8321WAT     H234005   3.632   4.414   2.304 -0.1184 -0.3245  0.0407
 8321WAT    EPW34006   3.678   4.360   2.337  0.0724 -0.2175 -0.0486
 8322WAT      O34007   5.544   6.880   1.611  0.2607 -0.2208 -0.0274
 8322WAT     H134008   5.514   6.962   1.617  0.9457  0.0554 -0.3093
 8322WAT     H234009   5.471   6.832   1.610 -0.1366  0.2817  1.5449
 8322WAT    EPW34010   5.528   6.885   1.612  0.3032 -0.1057  0.1632
 8323WAT      O34011   6.715   2.292   6.890  0.0491  0.1742 -0.5070
 8323WAT     H134012   6.736   2.228   6.834  0.8690 -0.4418  0.4618
 8323WAT     H234013   6.642   2.262   6.928  0.1054  0.0805 -0.4707
 8323WAT    EPW34014   6.708   2.278   6.887  0.1785  0.0693 -0.3585
 8324WAT      O34015   0.722   1.902   6.117 -0.0781 -0.1939 -0.9039
 8324WAT     H134016   0.786   1.881   6.172  0.0073 -1.9662 -1.6119
 8324WAT     H234017   0.656   1.923   6.170  0.2414 -1.0887 -0.1198
 8324WAT    EPW34018   0.722   1.902   6.133 -0.0183 -0.5879 -0.8927
 8325WAT      O34019   2.597   6.844   0.293  0.9135 -0.0098 -0.5007
 8325WAT     H134020   2.527   6.805   0.259  1.1726 -0.7818 -0.1548
 8325WAT     H234021   2.654   6.780   0.303  0.5325 -0.0304  2.2516
 8325WAT    EPW34022   2.595   6.829   0.289  0.8955 -0.1269 -0.0430
 8326WAT      O34023   4.978   1.365   1.801  0.5012 -0.0538  0.0823
 8326WAT     H134024   4.951   1.347   1.881  1.1838  0.2484  0.3857
 8326WAT     H234025   5.063   1.345   1.802  1.0024  1.8137  0.0586
 8326WAT    EPW34026   4.987   1.360   1.813  0.6761  0.2667  0.1236
 8327WAT      O34027   3.658   0.591   6.501 -0.0369 -0.4632 -0.7302
 8327WAT     H134028   3.681   0.512   6.529  0.5085 -0.0604 -0.0164
 8327WAT     H234029   3.590   0.612   6.552  0.6340  0.0545 -0.0184
 8327WAT    EPW34030   3.651   0.582   6.513  0.1428 -0.3272 -0.5196
 8328WAT      O34031   4.966   1.062   5.291 -0.2952  0.6951  0.0877
 8328WAT     H134032   4.927   1.027   5.221 -0.3383 -0.0434  0.4703
 8328WAT     H234033   5.016   0.998   5.321 -1.5804  0.3873  1.7325
 8328WAT    EPW34034   4.968   1.047   5.285 -0.4915  0.5405  0.3872
 8329WAT      O34035   1.617   1.634   1.005 -0.2718 -0.3341  0.0260
 8329WAT     H134036   1.693   1.676   1.009 -0.6266  0.5631 -1.7515
 8329WAT     H234037   1.563   1.686   1.051 -0.1935 -0.0881 -0.1621
 8329WAT    EPW34038   1.620   1.648   1.013 -0.3127 -0.1652 -0.2644
 8330WAT      O34039   3.591   6.046   3.150 -0.6992 -0.0728 -0.2810
 8330WAT     H134040   3.554   5.969   3.168 -0.2294 -0.2537 -0.0707
 8330WAT     H234041   3.668   6.042   3.191 -0.6956  0.5354 -0.2216
 8330WAT    EPW34042   3.597   6.034   3.159 -0.6293 -0.0097 -0.2412
 8331WAT      O34043   4.359   1.169   0.606 -0.7641  0.2473 -0.1910
 8331WAT     H134044   4.400   1.175   0.683 -1.5076  1.3948  0.1294
 8331WAT     H234045   4.286   1.214   0.618 -1.0915  0.0775 -1.4462
 8331WAT    EPW34046   4.354   1.176   0.619 -0.9223  0.3917 -0.3291
 8332WAT      O34047   5.931   1.579   0.972 -0.6260  0.9915 -0.3379
 8332WAT     H134048   5.868   1.609   1.024 -0.9369  1.9926 -1.2639
 8332WAT     H234049   5.895   1.578   0.893 -0.6966 -2.0341 -0.4072
 8332WAT    EPW34050   5.916   1.583   0.968 -0.6823  0.6924 -0.4849
 8333WAT      O34051   5.453   0.749   6.257  0.6703  0.0016  0.1982
 8333WAT     H134052   5.407   0.691   6.303 -0.8441  0.2859 -0.8830
 8333WAT     H234053   5.429   0.734   6.175 -0.9908  3.0391 -0.0330
 8333WAT    EPW34054   5.442   0.738   6.252  0.2012  0.4923  0.0044
 8334WAT      O34055   5.205   2.679   0.393  0.2611 -0.1045  0.1512
 8334WAT     H134056   5.212   2.766   0.389 -1.1415  0.0070 -0.1286
 8334WAT     H234057   5.250   2.652   0.324 -0.0433  0.4490 -0.2684
 8334WAT    EPW34058   5.213   2.687   0.382  0.0089 -0.0062  0.0479
 8335WAT      O34059   2.172   0.488   5.361  0.4477  0.0560  0.6009
 8335WAT     H134060   2.107   0.544   5.375  1.2270  1.3103 -0.5608
 8335WAT     H234061   2.140   0.434   5.300  0.0860 -0.1040  0.9245
 8335WAT    EPW34062   2.158   0.488   5.354  0.5094  0.2177  0.4771
 8336WAT      O34063   1.719   0.006   2.008 -0.4947 -0.1765 -0.2171
 8336WAT     H134064   1.794   0.031   2.045 -0.5999 -2.1364  1.4478
 8336WAT     H234065   1.723   0.043   1.928  1.0178  1.8652  0.7069
 8336WAT    EPW34066   1.731   0.015   2.001 -0.2868 -0.1644  0.1653
 8337WAT      O34067   4.058   7.181   6.047 -0.0199  0.1586  0.9477
 8337WAT     H134068   4.107   7.234   5.998  0.6092 -0.0987  1.2807
 8337WAT     H234069   4.009   7.138   5.988  1.5128 -0.9577  0.4097
 8337WAT    EPW34070   4.058   7.182   6.031  0.2994 -0.0443  0.9174
 8338WAT      O34071   5.219   5.921   6.427  0.0829  0.1257 -1.1369
 8338WAT     H134072   5.256   5.999   6.435  0.4931 -0.1953  0.5206
 8338WAT     H234073   5.141   5.931   6.464  0.0064 -0.1550 -1.2200
 8338WAT    EPW34074   5.213   5.934   6.434  0.1322  0.0368 -0.9044
 8339WAT      O34075   0.443   0.842   3.510  0.0624  0.2468  0.1262
 8339WAT     H134076   0.433   0.923   3.481  1.9931  0.4576 -0.0617
 8339WAT     H234077   0.490   0.803   3.447 -0.1449 -0.7825  0.5860
 8339WAT    EPW34078   0.448   0.848   3.497  0.3169  0.1259  0.1664
 8340WAT      O34079   4.500   7.029   1.245  0.1984  0.1386 -0.1325
 8340WAT     H134080   4.569   7.081   1.252  0.6383 -0.2535 -1.2869
 8340WAT     H234081   4.457   7.062   1.177  0.5125 -1.0120 -0.9147
 8340WAT    EPW34082   4.504   7.042   1.236  0.3098 -0.0893 -0.4186
 8341WAT      O34083   4.361   6.125   7.242  0.1651 -0.3260 -0.4888
 8341WAT     H134084   4.427   6.091   7.196  0.1548 -1.2924  0.1944
 8341WAT     H234085   4.369   6.211   7.228  1.9403 -0.3622  0.0569
 8341WAT    EPW34086   4.372   6.133   7.233  0.4258 -0.4741 -0.3072
 8342WAT      O34087   3.285   6.330   2.542 -0.1114 -0.2669 -0.1587
 8342WAT     H134088   3.225   6.375   2.498  0.0307  0.4174  0.3397
 8342WAT     H234089   3.335   6.295   2.480  0.2474  0.9064 -0.5417
 8342WAT    EPW34090   3.283   6.331   2.527 -0.0374  0.0075 -0.1417
 8343WAT      O34091   2.314   3.467   1.436  0.0526 -0.1183 -0.0939
 8343WAT     H134092   2.240   3.423   1.449 -0.2254 -0.2303 -1.8340
 8343WAT     H234093   2.287   3.544   1.405  0.6496 -0.0289 -0.4070
 8343WAT    EPW34094   2.299   3.472   1.433  0.0997 -0.1216 -0.3972
 8344WAT      O34095   2.780   3.288   2.277  0.4241 -0.1759 -0.0010
 8344WAT     H134096   2.851   3.335   2.257  1.6836 -1.7742  0.4395
 8344WAT     H234097   2.720   3.348   2.295  1.4742  1.2531 -0.9857
 8344WAT    EPW34098   2.782   3.304   2.276  0.7653 -0.2009 -0.0814
 8345WAT      O34099   3.207   6.535   4.178 -0.4132 -0.3733  1.3323
 8345WAT     H134100   3.278   6.485   4.176 -0.4486 -0.4149  0.3953
 8345WAT     H234101   3.143   6.480   4.201 -0.2825 -0.5205  1.3383
 8345WAT    EPW34102   3.208   6.520   4.181 -0.3992 -0.4012  1.1948
 8346WAT      O34103   4.903   6.810   0.690 -0.2251 -0.1989 -0.1147
 8346WAT     H134104   4.884   6.753   0.754 -0.3269 -0.4357 -0.3528
 8346WAT     H234105   4.987   6.827   0.702  0.2565 -1.6826 -1.0325
 8346WAT    EPW34106   4.912   6.804   0.701 -0.1690 -0.4530 -0.2855
 8347WAT      O34107   0.793   2.511   2.095 -0.2806  0.5155 -0.9281
 8347WAT     H134108   0.721   2.464   2.108  0.2230 -0.1253 -0.4038
 8347WAT     H234109   0.766   2.593   2.104 -1.2340  0.3589 -2.1620
 8347WAT    EPW34110   0.778   2.516   2.098 -0.3471  0.3977 -1.0329
 8348WAT      O34111   3.419   0.578   5.785 -0.2151  0.3727 -0.5586
 8348WAT     H134112   3.350   0.610   5.828 -0.4228  0.7538 -1.1663
 8348WAT     H234113   3.474   0.645   5.783 -0.9650  1.0003 -2.5248
 8348WAT    EPW34114   3.417   0.593   5.791 -0.3566  0.5217 -0.9388
 8349WAT      O34115   6.642   5.230   0.074 -0.0896  0.3048  0.2249
 8349WAT     H134116   6.585   5.264   0.130  1.0354  2.2313  0.2641
 8349WAT     H234117   6.610   5.253  -0.004  0.1263  0.5484  0.2086
 8349WAT    EPW34118   6.629   5.238   0.071  0.1085  0.6254  0.2282
 8350WAT      O34119   6.232   5.833   4.458  0.2530  0.0141  0.5256
 8350WAT     H134120   6.317   5.842   4.438  0.6874  1.0721  2.5560
 8350WAT     H234121   6.196   5.906   4.427  0.1665 -0.2130  0.0863
 8350WAT    EPW34122   6.239   5.845   4.450  0.3044  0.1368  0.7606
 8351WAT      O34123   1.433   2.198   3.335 -0.1096 -0.4440 -0.7817
 8351WAT     H134124   1.448   2.146   3.403  0.0926  0.7849  0.1363
 8351WAT     H234125   1.513   2.214   3.303  0.0821  1.2388  0.4351
 8351WAT    EPW34126   1.447   2.192   3.340 -0.0514 -0.0139 -0.4663
 8352WAT      O34127   5.510   1.211   0.139 -0.4869 -0.2791 -0.6846
 8352WAT     H134128   5.550   1.222   0.216 -3.0633  1.5775  0.5372
 8352WAT     H234129   5.455   1.145   0.154 -1.3592  0.4179 -0.7177
 8352WAT    EPW34130   5.508   1.203   0.153 -0.9964  0.0981 -0.5090
 8353WAT      O34131   5.731   1.246   4.552  0.3326 -0.0711  0.0927
 8353WAT     H134132   5.716   1.300   4.485  0.6417 -1.2406 -0.9569
 8353WAT     H234133   5.724   1.167   4.517  1.7221 -0.7172  1.1598
 8353WAT    EPW34134   5.728   1.242   4.537  0.5835 -0.3393  0.0953
 8354WAT      O34135   3.997   1.107   2.406 -0.6188 -0.1118 -0.0023
 8354WAT     H134136   4.016   1.191   2.419 -1.7576  0.1390  0.1127
 8354WAT     H234137   4.044   1.086   2.336  1.5180 -0.0518  1.3051
 8354WAT    EPW34138   4.007   1.116   2.398 -0.4714 -0.0659  0.2078
 8355WAT      O34139   5.738   3.337   0.426  0.2868 -0.0156 -0.2715
 8355WAT     H134140   5.660   3.310   0.452  0.5999 -2.1775 -1.3195
 8355WAT     H234141   5.793   3.300   0.482  0.8631 -3.5885 -2.8144
 8355WAT    EPW34142   5.735   3.327   0.438  0.4182 -0.8628 -0.8019
 8356WAT      O34143   4.771   3.581   0.060 -0.0085 -0.2888  0.1331
 8356WAT     H134144   4.815   3.656   0.072 -2.2565  0.9068  1.5205
 8356WAT     H234145   4.731   3.568   0.136  0.0229 -2.7747 -0.1947
 8356WAT    EPW34146   4.772   3.590   0.073 -0.3359 -0.4794  0.2896
 8357WAT      O34147   1.834   0.543   5.712  0.0616 -0.8011 -0.4049
 8357WAT     H134148   1.896   0.599   5.739  0.3638 -1.2239 -0.2073
 8357WAT     H234149   1.847   0.539   5.625  0.1212 -0.6635 -0.4026
 8357WAT    EPW34150   1.845   0.551   5.703  0.1150 -0.8432 -0.3754
 8358WAT      O34151   2.150   5.306   6.061  0.2155 -0.5223  0.3589
 8358WAT     H134152   2.081   5.358   6.054  1.0203  0.4837 -0.5392
 8358WAT     H234153   2.120   5.228   6.034 -0.3456  0.1170 -0.9578
 8358WAT    EPW34154   2.136   5.302   6.056  0.2515 -0.2793  0.0317
 8359WAT      O34155   0.651   2.041   0.962 -0.3320  0.1397 -0.4035
 8359WAT     H134156   0.565   2.028   0.972 -0.2797  0.1111  0.0654
 8359WAT     H234157   0.655   2.120   0.925 -0.6609 -1.3185 -3.9032
 8359WAT    EPW34158   0.639   2.051   0.958 -0.3729 -0.0800 -0.8512
 8360WAT      O34159   3.316   2.620   1.760  0.0706  0.0895  0.1757
 8360WAT     H134160   3.387   2.593   1.802  0.0687  0.5952  0.5025
 8360WAT     H234161   3.252   2.609   1.818 -0.0950 -0.1894 -0.0539
 8360WAT    EPW34162   3.317   2.614   1.775  0.0459  0.1230  0.1900
 8361WAT      O34163   6.415   0.647   3.452  0.7788  0.1650  0.4144
 8361WAT     H134164   6.399   0.630   3.535  1.4900  0.6996  0.6750
 8361WAT     H234165   6.364   0.591   3.409  0.1693  0.1006  1.1998
 8361WAT    EPW34166   6.405   0.636   3.458  0.7938  0.2345  0.5689
 8362WAT      O34167   5.359   1.433   0.552  0.2458 -0.7073 -0.3235
 8362WAT     H134168   5.413   1.469   0.609  0.7990 -0.7671 -0.7995
 8362WAT     H234169   5.283   1.429   0.595  0.3008  0.5338 -0.0758
 8362WAT    EPW34170   5.356   1.437   0.566  0.3356 -0.5328 -0.3572
 8363WAT      O34171   0.419   6.259   6.835 -0.0695 -0.3533  0.7131
 8363WAT     H134172   0.471   6.208   6.884  1.6905  0.1959 -0.4821
 8363WAT     H234173   0.441   6.339   6.861 -2.2815 -0.0982  2.0493
 8363WAT    EPW34174   0.430   6.263   6.846 -0.1363 -0.2345  0.7339
 8364WAT      O34175   1.866   6.090   5.096 -0.0165  0.9112  0.4170
 8364WAT     H134176   1.866   6.015   5.141 -0.2789 -0.2393 -1.3643
 8364WAT     H234177   1.940   6.085   5.050 -0.2278  1.5634  0.0038
 8364WAT    EPW34178   1.877   6.078   5.095 -0.0865  0.8376  0.0928
 8365WAT      O34179   5.729   2.561   0.895  0.3591 -0.7333 -0.5521
 8365WAT     H134180   5.734   2.644   0.922  0.1920 -0.0769 -2.3890
 8365WAT     H234181   5.796   2.554   0.840 -0.6508 -1.2492 -1.7710
 8365WAT    EPW34182   5.740   2.572   0.891  0.1852 -0.7125 -1.0035
 8366WAT      O34183   1.912   0.289   6.827 -0.1839 -0.7895  0.4331
 8366WAT     H134184   1.907   0.302   6.741 -1.2970 -3.9540 -0.1283
 8366WAT     H234185   1.980   0.338   6.852 -0.4376  0.9948 -2.0176
 8366WAT    EPW34186   1.921   0.298   6.818 -0.3858 -0.9934 -0.0119
 8367WAT      O34187   0.211   3.773   1.936 -0.0407 -0.5209 -0.1679
 8367WAT     H134188   0.128   3.799   1.924 -0.3681 -1.2182  0.4407
 8367WAT     H234189   0.202   3.689   1.958  0.8119 -0.5074  0.2703
 8367WAT    EPW34190   0.197   3.764   1.938  0.0369 -0.6219 -0.0133
 8368WAT      O34191   0.642   4.903   2.912  0.1854 -0.3607  0.2796
 8368WAT     H134192   0.667   4.980   2.880 -1.3353  0.6022  1.2773
 8368WAT     H234193   0.594   4.868   2.848  0.0645 -0.0316  0.1881
 8368WAT    EPW34194   0.638   4.909   2.898 -0.0571 -0.1698  0.4135
 8369WAT      O34195   3.046   4.115   0.619  0.2961  0.4640  0.2025
 8369WAT     H134196   3.079   4.191   0.646  2.0926 -0.6253  1.3117
 8369WAT     H234197   2.960   4.130   0.615  0.7449  3.1007 -1.6179
 8369WAT    EPW34198   3.038   4.128   0.623  0.6278  0.6926  0.0974
 8370WAT      O34199   1.231   1.781   4.454  0.4607  0.5669 -0.2971
 8370WAT     H134200   1.161   1.774   4.402 -0.3262  0.2650  0.7700
 8370WAT     H234201   1.298   1.770   4.399 -0.3338  0.3738 -1.2659
 8370WAT    EPW34202   1.230   1.778   4.438  0.2271  0.4938 -0.2826
 8371WAT      O34203   3.097   6.903   4.608  0.4543 -0.0878  0.6820
 8371WAT     H134204   3.152   6.835   4.605 -0.9694 -1.2602 -0.7309
 8371WAT     H234205   3.056   6.892   4.684 -0.0895 -1.1375  0.2659
 8371WAT    EPW34206   3.099   6.891   4.619  0.1636 -0.4161  0.4118
 8372WAT      O34207   2.698   0.918   4.865 -0.5155 -0.0738 -0.6443
 8372WAT     H134208   2.661   0.839   4.871 -2.1575  0.8056  1.9621
 8372WAT     H234209   2.757   0.918   4.930  0.9733  0.1874 -1.9212
 8372WAT    EPW34210   2.701   0.906   4.875 -0.5381  0.0947 -0.4479
 8373WAT      O34211   5.663   3.201   1.834 -0.0952 -0.5458 -0.5654
 8373WAT     H134212   5.732   3.251   1.854  1.6987 -2.4121 -1.7044
 8373WAT     H234213   5.595   3.252   1.854  1.5488  0.9506  1.8167
 8373WAT    EPW34214   5.663   3.216   1.840  0.4126 -0.6004 -0.3818
 8374WAT      O34215   2.125   0.845   3.530 -0.4106 -0.2819 -0.5446
 8374WAT     H134216   2.190   0.902   3.540 -1.2372  0.4840  0.7714
 8374WAT     H234217   2.165   0.767   3.533  0.3376  0.1219  1.7207
 8374WAT    EPW34218   2.140   0.842   3.532 -0.4222 -0.1091 -0.0156
 8375WAT      O34219   6.839   6.074   3.181  0.3673 -0.4158 -0.3509
 8375WAT     H134220   6.760   6.097   3.210  0.8811  1.9464 -0.6041
 8375WAT     H234221   6.863   6.011   3.236 -0.5382  0.7947  1.5801
 8375WAT    EPW34222   6.831   6.068   3.193  0.3094  0.1120 -0.1030
 8376WAT      O34223   5.106   1.220   0.839  0.1742 -0.0641  0.2584
 8376WAT     H134224   5.045   1.177   0.884 -0.8263  1.2382  0.2049
 8376WAT     H234225   5.115   1.294   0.883  1.6759 -0.1979  0.2086
 8376WAT    EPW34226   5.098   1.224   0.852  0.2482  0.1085  0.2432
 8377WAT      O34227   5.170   5.214   5.165 -0.3206 -0.3459 -0.2112
 8377WAT     H134228   5.100   5.261   5.145  0.8959  1.3476 -0.7433
 8377WAT     H234229   5.178   5.223   5.251 -0.5095 -0.2102 -0.2097
 8377WAT    EPW34230   5.161   5.222   5.175 -0.1688 -0.0757 -0.2896
 8378WAT      O34231   2.167   2.031   0.782 -0.1434 -0.4440  0.1691
 8378WAT     H134232   2.120   1.998   0.717  2.0495 -1.5468 -0.9488
 8378WAT     H234233   2.202   2.104   0.749  0.1192 -0.4254  0.4765
 8378WAT    EPW34234   2.165   2.037   0.768  0.2193 -0.6042  0.0494
 8379WAT      O34235   4.903   4.243   1.102  0.4055 -0.1967 -0.4576
 8379WAT     H134236   4.989   4.233   1.096  0.7549 -2.2858  3.8562
 8379WAT     H234237   4.871   4.167   1.073  0.2110 -0.2060 -0.2266
 8379WAT    EPW34238   4.911   4.231   1.097  0.4284 -0.5067  0.2138
 8380WAT      O34239   5.672   5.837   1.975  0.0223  0.2261 -0.2439
 8380WAT     H134240   5.625   5.905   2.003 -0.1899 -0.2589  0.6133
 8380WAT     H234241   5.739   5.874   1.933  0.9112  1.0547  1.7531
 8380WAT    EPW34242   5.675   5.853   1.973  0.1222  0.2768  0.1777
 8381WAT      O34243   6.370   2.911   4.657  0.0053 -0.3528 -0.3617
 8381WAT     H134244   6.419   2.933   4.725  0.4989 -0.1725 -0.7682
 8381WAT     H234245   6.410   2.950   4.590 -1.6464  1.2227 -0.4896
 8381WAT    EPW34246   6.383   2.920   4.657 -0.1658 -0.0934 -0.4406
 8382WAT      O34247   2.112   4.887   6.247  0.4453  0.5815  0.2456
 8382WAT     H134248   2.151   4.909   6.322 -1.4123  3.1342  0.6089
 8382WAT     H234249   2.064   4.957   6.228  0.4770 -0.1423 -3.1345
 8382WAT    EPW34250   2.111   4.901   6.255  0.1756  0.8517 -0.2001
 8383WAT      O34251   2.758   3.185   5.622  0.0326 -0.5713  0.2707
 8383WAT     H134252   2.674   3.197   5.642 -0.1604  0.0666 -0.8739
 8383WAT     H234253   2.801   3.232   5.682 -0.3028 -2.2365  1.9422
 8383WAT    EPW34254   2.752   3.194   5.634 -0.0455 -0.7231  0.3485
 8384WAT      O34255   0.167   6.191   0.602 -0.1599 -0.2896  0.2752
 8384WAT     H134256   0.217   6.150   0.661 -0.3490 -3.2236 -1.3901
 8384WAT     H234257   0.194   6.158   0.526 -2.0100  0.9919 -1.0324
 8384WAT    EPW34258   0.178   6.180   0.600 -0.4611 -0.5337 -0.1639
 8385WAT      O34259   4.592   2.048   2.973  0.2528  0.3702  0.0813
 8385WAT     H134260   4.590   2.133   2.989  0.1422  0.2841  0.5425
 8385WAT     H234261   4.641   2.041   2.901  1.1763  0.7347  0.6504
 8385WAT    EPW34262   4.599   2.059   2.965  0.3729  0.4113  0.2335
 8386WAT      O34263   5.952   3.918   0.554 -0.4919 -0.3277  0.0382
 8386WAT     H134264   5.926   3.922   0.637 -2.4600 -0.6288 -0.5085
 8386WAT     H234265   6.006   3.849   0.552 -0.2006 -0.1448  1.0952
 8386WAT    EPW34266   5.956   3.909   0.566 -0.7396 -0.3451  0.1136
 8387WAT      O34267   2.313   1.205   4.805 -0.3919 -0.0846 -0.2106
 8387WAT     H134268   2.339   1.135   4.760  0.2982  0.6495 -0.9970
 8387WAT     H234269   2.266   1.171   4.870  0.3532 -1.3102 -0.2665
 8387WAT    EPW34270   2.310   1.190   4.808 -0.1799 -0.1572 -0.3350
 8388WAT      O34271   4.640   1.127   0.189  0.0405  0.2329  0.4040
 8388WAT     H134272   4.566   1.167   0.210  0.2896  0.8641  0.1131
 8388WAT     H234273   4.668   1.093   0.264 -1.2544 -1.2378  0.2677
 8388WAT    EPW34274   4.633   1.128   0.203 -0.1140  0.1089  0.3409
 8389WAT      O34275   1.924   2.911   0.502 -0.2417 -0.3255 -0.3245
 8389WAT     H134276   1.932   2.972   0.440  2.0137 -0.9273 -0.7067
 8389WAT     H234277   1.969   2.844   0.471 -0.7640 -1.3873  1.0935
 8389WAT    EPW34278   1.932   2.910   0.488  0.0143 -0.5713 -0.1715
 8390WAT      O34279   1.615   1.094   4.390  0.1577  0.6068 -0.0576
 8390WAT     H134280   1.621   1.019   4.433  0.2995  0.4349 -0.3774
 8390WAT     H234281   1.606   1.070   4.307 -1.7192  0.8922  0.0087
 8390WAT    EPW34282   1.614   1.080   4.384 -0.0986  0.6236 -0.0951
 8391WAT      O34283   1.931   7.211   0.767 -0.0160 -0.5268  0.6109
 8391WAT     H134284   1.883   7.270   0.810  0.2842 -0.3272  0.6782
 8391WAT     H234285   1.999   7.257   0.737 -1.2317 -0.1947 -1.9059
 8391WAT    EPW34286   1.934   7.226   0.769 -0.1512 -0.4483  0.2490
 8392WAT      O34287   1.232   5.230   2.606  0.1511  0.1405  0.0751
 8392WAT     H134288   1.266   5.281   2.545  0.2593  2.0202  1.5971
 8392WAT     H234289   1.189   5.169   2.561 -1.0119  2.2681 -1.8868
 8392WAT    EPW34290   1.230   5.229   2.591 -0.0047  0.7325  0.0101
 8393WAT      O34291   1.758   2.465   7.253 -0.1706 -0.4507  0.2260
 8393WAT     H134292   1.746   2.379   7.255 -0.0046 -0.4727  1.4789
 8393WAT     H234293   1.839   2.474   7.286  0.2503  0.1215 -0.9350
 8393WAT    EPW34294   1.768   2.454   7.258 -0.0839 -0.3694  0.2396
 8394WAT      O34295   1.900   6.457   0.091 -0.1437  0.1680 -0.1104
 8394WAT     H134296   1.915   6.376   0.118  1.1508  1.1439  2.4679
 8394WAT     H234297   1.819   6.453   0.058 -0.8798 -1.8013  1.6894
 8394WAT    EPW34298   1.890   6.445   0.091 -0.0612  0.0212  0.5364
 8395WAT      O34299   0.807   1.842   4.840 -0.1756  0.0112 -0.2907
 8395WAT     H134300   0.727   1.809   4.828 -0.8384  1.0122  1.0484
 8395WAT     H234301   0.822   1.886   4.767  0.4753 -2.5852 -1.8678
 8395WAT    EPW34302   0.798   1.843   4.828 -0.1774 -0.2245 -0.3259
 8396WAT      O34303   2.698   4.096   2.257  0.1207  0.0033 -0.0777
 8396WAT     H134304   2.624   4.141   2.243  0.4308  0.7362  0.5820
 8396WAT     H234305   2.681   4.050   2.330 -0.0027 -0.5531 -0.4473
 8396WAT    EPW34306   2.684   4.096   2.266  0.1483  0.0294 -0.0348
 8397WAT      O34307   5.921   3.091   4.484 -0.2825  0.1842 -0.2122
 8397WAT     H134308   5.840   3.070   4.510 -0.7066 -0.0580 -1.6209
 8397WAT     H234309   5.971   3.066   4.551 -1.0216 -2.9931 -0.6455
 8397WAT    EPW34310   5.917   3.084   4.498 -0.4543 -0.3209 -0.4843
 8398WAT      O34311   1.632   1.358   4.485 -0.3099 -0.2305 -0.1647
 8398WAT     H134312   1.572   1.406   4.444  0.9791  0.2179 -1.6240
 8398WAT     H234313   1.612   1.276   4.461 -1.5209 -0.3192  1.0119
 8398WAT    EPW34314   1.620   1.353   4.476 -0.2984 -0.1774 -0.2065
 8399WAT      O34315   2.798   0.045   6.001  0.0240 -0.6371  0.2371
 8399WAT     H134316   2.766   0.114   5.959 -0.4689 -1.1544 -0.2762
 8399WAT     H234317   2.837   0.078   6.071  0.7811  0.2487 -0.5927
 8399WAT    EPW34318   2.799   0.060   6.005  0.0631 -0.5827  0.0387
 8400WAT      O34319   1.885   0.279   0.595  0.5288 -0.8175 -0.1619
 8400WAT     H134320   1.807   0.245   0.616  1.2353 -1.7111  1.1703
 8400WAT     H234321   1.940   0.212   0.604  1.5576 -0.0343 -0.3936
 8400WAT    EPW34322   1.882   0.264   0.599  0.7851 -0.8338  0.0007
 8401WAT      O34323   2.816   0.814   6.135  0.1283 -0.1203 -0.0108
 8401WAT     H134324   2.747   0.770   6.166 -0.1850  0.8351  0.6826
 8401WAT     H234325   2.789   0.897   6.135  0.5695  0.0584 -1.6447
 8401WAT    EPW34326   2.801   0.820   6.139  0.1472  0.0473 -0.1497
 8402WAT      O34327   0.960   1.908   0.595 -0.4844 -0.3523 -0.0309
 8402WAT     H134328   0.903   1.911   0.662 -1.1018  1.8012 -0.5855
 8402WAT     H234329   0.908   1.898   0.525 -0.0114 -0.3069 -0.3889
 8402WAT    EPW34330   0.944   1.907   0.595 -0.5057 -0.0274 -0.1657
 8403WAT      O34331   5.373   1.040   3.974  0.4946  0.1789 -0.6005
 8403WAT     H134332   5.293   1.075   3.980  0.2369 -0.5707  1.1065
 8403WAT     H234333   5.409   1.081   3.907 -1.1952  0.8201 -1.1610
 8403WAT    EPW34334   5.366   1.051   3.965  0.2069  0.1629 -0.4311
 8404WAT      O34335   5.918   0.045   2.812 -0.7296 -0.5638 -0.0355
 8404WAT     H134336   5.977  -0.017   2.831 -1.4230 -1.4037 -0.5226
 8404WAT     H234337   5.849   0.022   2.860 -1.3829 -0.8517 -1.0689
 8404WAT    EPW34338   5.916   0.032   2.822 -0.9286 -0.7304 -0.2601
 8405WAT      O34339   0.211   0.055   2.693  0.1375  0.0790 -0.5293
 8405WAT     H134340   0.129   0.084   2.689 -0.1495 -0.8100 -3.8457
 8405WAT     H234341   0.258   0.123   2.663  0.2481 -0.3972 -1.4673
 8405WAT    EPW34342   0.206   0.069   2.688  0.1115 -0.1227 -1.1578
 8406WAT      O34343   2.750   2.460   5.776  0.0587  0.1003  0.4106
 8406WAT     H134344   2.744   2.525   5.834  0.1095  1.0648 -0.6490
 8406WAT     H234345   2.691   2.402   5.805 -0.9234  1.1922  0.6527
 8406WAT    EPW34346   2.740   2.461   5.789 -0.0789  0.4041  0.2898
 8407WAT      O34347   1.902   3.437   6.660 -0.4627 -0.1782  0.2280
 8407WAT     H134348   1.879   3.378   6.600  0.1404 -0.9169  0.6983
 8407WAT     H234349   1.827   3.460   6.697 -0.6566 -1.2176  0.5293
 8407WAT    EPW34350   1.888   3.431   6.657 -0.4023 -0.4409  0.3420
 8408WAT      O34351   4.265   3.477   0.051 -0.4758  0.2947  0.0532
 8408WAT     H134352   4.241   3.434  -0.020  0.0645 -1.8685  1.0926
 8408WAT     H234353   4.196   3.470   0.104 -0.1662  0.1887  0.4480
 8408WAT    EPW34354   4.251   3.469   0.049 -0.3503 -0.0405  0.2651
 8409WAT      O34355   0.476   0.609   2.746  0.2251  0.4791 -0.0015
 8409WAT     H134356   0.560   0.622   2.728 -0.1706  1.1042 -1.5504
 8409WAT     H234357   0.444   0.689   2.757 -0.3134  0.2930 -0.1556
 8409WAT    EPW34358   0.484   0.623   2.745  0.0871  0.5439 -0.2531
 8410WAT      O34359   5.587   6.885   1.887  0.4478 -0.1813  0.3320
 8410WAT     H134360   5.505   6.915   1.885  0.9110  1.2369  0.7542
 8410WAT     H234361   5.606   6.871   1.803 -0.3690 -0.9792  0.2665
 8410WAT    EPW34362   5.577   6.888   1.875  0.3956 -0.0897  0.3847
 8411WAT      O34363   0.019   0.529   4.436  0.4638 -0.1711 -0.5465
 8411WAT     H134364   0.077   0.510   4.375 -0.7182 -0.8717 -1.4978
 8411WAT     H234365  -0.038   0.463   4.432 -0.3904  0.4722  0.3420
 8411WAT    EPW34366   0.019   0.517   4.426  0.1630 -0.1795 -0.5558
 8412WAT      O34367   5.615   4.595   6.763 -0.1909  0.2553 -0.1508
 8412WAT     H134368   5.574   4.527   6.800 -0.7075 -1.1687 -2.9828
 8412WAT     H234369   5.550   4.646   6.736 -0.0908 -0.4071 -1.8339
 8412WAT    EPW34370   5.599   4.592   6.764 -0.2524 -0.0529 -0.8177
 8413WAT      O34371   4.121   3.151   1.213  0.4549  0.0325 -0.3509
 8413WAT     H134372   4.073   3.078   1.207  0.3779 -0.0931  1.2335
 8413WAT     H234373   4.119   3.169   1.299 -0.5711  2.6018 -0.8204
 8413WAT    EPW34374   4.114   3.143   1.225  0.2919  0.3935 -0.1862
 8414WAT      O34375   1.734   1.000   5.513 -0.7353  0.1471  0.0258
 8414WAT     H134376   1.775   0.970   5.442  0.3493 -1.0918  1.1350
 8414WAT     H234377   1.711   1.081   5.490  0.6014  0.1838 -1.3456
 8414WAT    EPW34378   1.737   1.008   5.499 -0.3776 -0.0305 -0.0129
 8415WAT      O34379   0.150   6.733   4.436  0.1340 -0.5752 -0.0243
 8415WAT     H134380   0.237   6.740   4.431  0.0667 -0.3669 -1.2713
 8415WAT     H234381   0.122   6.814   4.416 -0.3463 -0.7455 -0.0585
 8415WAT    EPW34382   0.159   6.746   4.432  0.0531 -0.5696 -0.2136
 8416WAT      O34383   0.266   2.678   1.018 -0.4471 -0.0640  0.1028
 8416WAT     H134384   0.252   2.594   1.036  3.6414 -1.1526 -0.5794
 8416WAT     H234385   0.277   2.679   0.932 -0.5790  1.2022  0.0795
 8416WAT    EPW34386   0.266   2.666   1.008  0.1373 -0.0378 -0.0014
 8417WAT      O34387   7.109   1.569   2.992 -0.0608  0.1139 -0.1979
 8417WAT     H134388   7.105   1.488   2.960  0.9360 -0.3314  0.7728
 8417WAT     H234389   7.122   1.557   3.077 -1.6750  1.2949  0.2570
 8417WAT    EPW34390   7.110   1.555   3.000 -0.1520  0.2226  0.0127
 8418WAT      O34391   1.937   7.204   7.398  0.1693 -0.0318 -0.1081
 8418WAT     H134392   1.981   7.241   7.464  1.6389  1.6973 -1.9572
 8418WAT     H234393   1.873   7.261   7.383  0.7731  0.3757 -1.1711
 8418WAT    EPW34394   1.934   7.218   7.406  0.4756  0.2838 -0.5383
 8419WAT      O34395   7.217   3.637   4.955 -0.2277  0.1158  0.7907
 8419WAT     H134396   7.282   3.580   4.939  0.6990  0.6553  2.3347
 8419WAT     H234397   7.178   3.603   5.025 -1.3124  0.0609  0.1666
 8419WAT    EPW34398   7.221   3.624   4.963 -0.2510  0.1874  0.9266
 8420WAT      O34399   6.279   0.984   5.401  0.3233  0.3591 -0.1579
 8420WAT     H134400   6.314   0.943   5.471  1.5769 -0.3277 -1.1279
 8420WAT     H234401   6.341   1.041   5.378  0.2207  0.1195 -1.0790
 8420WAT    EPW34402   6.294   0.986   5.408  0.4933  0.2223 -0.4373
 8421WAT      O34403   2.849   6.887   2.616  0.7390 -0.2000 -0.3823
 8421WAT     H134404   2.921   6.837   2.609  1.3321  0.6940 -0.8140
 8421WAT     H234405   2.863   6.952   2.560  0.5937  1.1713  1.1014
 8421WAT    EPW34406   2.862   6.889   2.607  0.8052  0.1347 -0.2269
 8422WAT      O34407   1.223   5.918   3.961 -0.4631 -0.4880 -0.1386
 8422WAT     H134408   1.305   5.897   3.982  0.0329 -0.8067 -2.1764
 8422WAT     H234409   1.223   5.916   3.874 -2.4475  0.2925 -0.2073
 8422WAT    EPW34410   1.235   5.914   3.951 -0.6830 -0.4198 -0.4498
 8423WAT      O34411   1.830   0.782   6.671 -0.3442  0.0008 -0.0378
 8423WAT     H134412   1.810   0.773   6.755 -2.9259  0.4008 -0.5345
 8423WAT     H234413   1.756   0.765   6.630 -0.1982  3.2599 -2.0318
 8423WAT    EPW34414   1.816   0.778   6.677 -0.7040  0.5413 -0.4057
 8424WAT      O34415   0.398   4.147   2.502  0.5153 -0.1763  0.0234
 8424WAT     H134416   0.369   4.082   2.552 -0.8437  0.5512  0.2398
 8424WAT     H234417   0.418   4.109   2.427 -0.7173 -0.7771 -0.0144
 8424WAT    EPW34418   0.397   4.132   2.498  0.1325 -0.1576  0.0498
 8425WAT      O34419   2.937   0.343   6.413 -0.1198 -0.1912 -0.1682
 8425WAT     H134420   2.973   0.336   6.492  1.0098  0.4953 -0.5841
 8425WAT     H234421   3.005   0.362   6.361 -1.2163  2.9575 -0.7335
 8425WAT    EPW34422   2.953   0.345   6.417 -0.1149  0.3753 -0.3132
 8426WAT      O34423   2.565   5.837   5.239 -0.2257  0.1482 -0.1561
 8426WAT     H134424   2.631   5.847   5.295 -1.2074 -2.1195  1.5165
 8426WAT     H234425   2.605   5.840   5.161  1.3192  2.2370  0.6228
 8426WAT    EPW34426   2.581   5.839   5.235 -0.1425  0.1218  0.2060
 8427WAT      O34427   3.324   5.596   3.156  0.5184  0.0728  0.0624
 8427WAT     H134428   3.279   5.644   3.099  1.7049  1.6813  0.3980
 8427WAT     H234429   3.401   5.582   3.116  0.3828 -1.1548  0.1840
 8427WAT    EPW34430   3.329   5.601   3.142  0.6737  0.1291  0.1300
 8428WAT      O34431   0.119   6.331   1.199 -0.6775  0.7682 -0.1808
 8428WAT     H134432   0.139   6.246   1.200 -0.1985  0.8433 -1.4298
 8428WAT     H234433   0.197   6.370   1.199 -0.8926  1.2030  0.2073
 8428WAT    EPW34434   0.134   6.324   1.199 -0.6385  0.8436 -0.3080
 8429WAT      O34435   1.576   7.130   4.563  0.2753  0.0837  0.2723
 8429WAT     H134436   1.548   7.052   4.536  1.0718 -0.0368 -0.2162
 8429WAT     H234437   1.558   7.129   4.649 -3.1346  0.8334 -0.3023
 8429WAT    EPW34438   1.569   7.118   4.572 -0.1107  0.1766  0.1153
 8430WAT      O34439   2.577   1.216   4.244  0.2507 -0.1054  0.2781
 8430WAT     H134440   2.582   1.206   4.158 -1.6567 -4.0428  0.4189
 8430WAT     H234441   2.643   1.167   4.275  0.0352  0.0784  1.0648
 8430WAT    EPW34442   2.587   1.207   4.236 -0.0629 -0.6599  0.4151
 8431WAT      O34443   4.741   4.068   1.912 -0.4369  0.3341 -0.4145
 8431WAT     H134444   4.694   4.129   1.953 -0.5532  0.1292 -0.2430
 8431WAT     H234445   4.759   4.010   1.974 -2.5480 -1.1629 -1.0698
 8431WAT    EPW34446   4.737   4.069   1.927 -0.7659  0.0827 -0.4859
 8432WAT      O34447   3.418   1.408   6.356  0.0367 -0.3983  0.5036
 8432WAT     H134448   3.412   1.426   6.271  2.1204 -0.8767  0.2001
 8432WAT     H234449   3.343   1.367   6.374  0.1957 -1.7114 -1.5008
 8432WAT    EPW34450   3.406   1.404   6.346  0.3680 -0.6630  0.1627
 8433WAT      O34451   5.923   0.276   4.622 -0.0446  0.1185  0.1172
 8433WAT     H134452   5.952   0.285   4.704  1.3908  3.6114 -0.5610
 8433WAT     H234453   5.864   0.339   4.614  1.3437  1.3082 -2.0121
 8433WAT    EPW34454   5.919   0.287   4.633  0.3725  0.8102 -0.2975
 8434WAT      O34455   1.511   0.992   0.959  0.1626 -0.1283  0.6148
 8434WAT     H134456   1.563   1.046   1.004 -0.8500  2.0497 -0.6513
 8434WAT     H234457   1.550   0.915   0.966  2.8015  1.1360  0.8821
 8434WAT    EPW34458   1.524   0.988   0.967  0.4028  0.3802  0.4672
 8435WAT      O34459   0.189   5.135   3.386 -0.1564 -0.2875 -0.5938
 8435WAT     H134460   0.239   5.090   3.442 -1.2595 -1.9135 -0.8588
 8435WAT     H234461   0.166   5.205   3.432  1.0364 -0.3097  0.0856
 8435WAT    EPW34462   0.193   5.139   3.401 -0.1432 -0.5310 -0.5326
 8436WAT      O34463   1.551   3.437   6.556 -0.7096 -0.2423  0.5065
 8436WAT     H134464   1.469   3.431   6.528 -0.0398 -1.0480 -1.5423
 8436WAT     H234465   1.588   3.493   6.500  0.6318 -1.6274 -0.0925
 8436WAT    EPW34466   1.545   3.445   6.543 -0.4125 -0.5659  0.1153
 8437WAT      O34467   6.566   1.567   0.879  0.3676  0.0211  0.2642
 8437WAT     H134468   6.519   1.616   0.825 -1.1986  0.7481  2.1798
 8437WAT     H234469   6.540   1.486   0.861  2.2204 -0.1583 -2.1977
 8437WAT    EPW34470   6.556   1.562   0.869  0.4100  0.1020  0.1835
 8438WAT      O34471   0.830   1.477   1.908  1.0794 -0.0102  0.2500
 8438WAT     H134472   0.914   1.454   1.908  1.0826 -0.0461 -0.5814
 8438WAT     H234473   0.790   1.407   1.874  0.5742 -0.4264  1.6706
 8438WAT    EPW34474   0.836   1.463   1.903  1.0053 -0.0770  0.3371
 8439WAT      O34475   2.806   4.462   2.903  0.1287 -0.5399 -0.7246
 8439WAT     H134476   2.832   4.385   2.873  0.4186 -1.2175  1.1050
 8439WAT     H234477   2.856   4.520   2.861  0.5009 -1.4055 -1.4930
 8439WAT    EPW34478   2.817   4.460   2.892  0.2265 -0.7679 -0.5678
 8440WAT      O34479   3.459   1.230   3.542 -0.0014 -0.3318  0.9067
 8440WAT     H134480   3.430   1.286   3.602  1.0710  1.9921 -0.5760
 8440WAT     H234481   3.543   1.220   3.563 -0.2489 -1.7161  1.3369
 8440WAT    EPW34482   3.467   1.237   3.554  0.1205 -0.1930  0.7512
 8441WAT      O34483   4.786   3.014   5.822  0.0465 -0.1912  0.2611
 8441WAT     H134484   4.799   2.948   5.878  1.2098  1.3171  1.8911
 8441WAT     H234485   4.847   3.001   5.761 -1.6084 -2.1862 -1.0721
 8441WAT    EPW34486   4.797   3.002   5.821 -0.0261 -0.2631  0.3049
 8442WAT      O34487   1.384   4.189   6.576  0.5555  0.1828 -0.5040
 8442WAT     H134488   1.406   4.109   6.548 -2.4230 -0.7033 -0.6345
 8442WAT     H234489   1.399   4.239   6.506  1.9529 -0.3060 -0.5917
 8442WAT    EPW34490   1.389   4.184   6.561  0.3220 -0.0203 -0.5362
 8443WAT      O34491   6.926   3.773   5.252 -0.3340  0.0867 -0.0990
 8443WAT     H134492   6.921   3.768   5.165 -1.4771 -1.2024  0.0254
 8443WAT     H234493   6.859   3.825   5.274  1.3543  2.4170 -0.1110
 8443WAT    EPW34494   6.915   3.780   5.243 -0.2534  0.2405 -0.0824
 8444WAT      O34495   6.702   6.795   5.732 -0.7248 -0.0480 -0.5308
 8444WAT     H134496   6.684   6.734   5.672 -1.4322  1.9575 -2.4432
 8444WAT     H234497   6.706   6.869   5.687 -2.5290  1.7759  2.0086
 8444WAT    EPW34498   6.700   6.797   5.717 -1.0958  0.5177 -0.4382
 8445WAT      O34499   1.919   2.738   2.574 -0.0303  0.0095 -0.0656
 8445WAT     H134500   1.991   2.689   2.577  1.2817  1.8607  2.0066
 8445WAT     H234501   1.897   2.748   2.657 -0.4742  2.4925 -0.3876
 8445WAT    EPW34502   1.926   2.732   2.587  0.0980  0.6498  0.1929
 8446WAT      O34503   7.159   0.289   3.908 -0.1073  0.3901 -0.7195
 8446WAT     H134504   7.232   0.240   3.905  0.1003  0.5939  0.5018
 8446WAT     H234505   7.161   0.324   3.988 -0.3875  2.1914 -1.4486
 8446WAT    EPW34506   7.170   0.287   3.920 -0.1180  0.6863 -0.6468
 8447WAT      O34507   3.089   4.415   5.222 -0.5712 -0.2705  0.1295
 8447WAT     H134508   3.150   4.463   5.182  0.4291 -1.7186 -0.1843
 8447WAT     H234509   3.131   4.383   5.291 -1.7590  0.7437  1.3657
 8447WAT    EPW34510   3.104   4.417   5.226 -0.5989 -0.3346  0.2658
 8448WAT      O34511   7.087   4.325   6.931 -0.4907 -0.7695 -0.2802
 8448WAT     H134512   7.145   4.269   6.896 -0.1271 -0.5388 -0.0586
 8448WAT     H234513   7.086   4.391   6.873  0.3066 -0.2678  0.2454
 8448WAT    EPW34514   7.096   4.327   6.917 -0.3192 -0.6613 -0.1698
 8449WAT      O34515   6.299   0.800   4.156 -0.3878  0.0401  0.1928
 8449WAT     H134516   6.348   0.731   4.133  0.9680  1.2310 -0.7055
 8449WAT     H234517   6.308   0.803   4.243  0.6961 -0.1224  0.1069
 8449WAT    EPW34518   6.308   0.790   4.166 -0.0274  0.1920  0.0474
 8450WAT      O34519   0.994   1.379   2.862 -0.3010  0.2797  0.3142
 8450WAT     H134520   0.916   1.346   2.882  0.5999 -1.7807  0.7245
 8450WAT     H234521   1.032   1.389   2.940  0.4418 -0.4138  0.0606
 8450WAT    EPW34522   0.988   1.375   2.876 -0.0582 -0.1271  0.3373
 8451WAT      O34523   4.486   2.520   4.838  0.6703  0.0960  0.2362
 8451WAT     H134524   4.511   2.568   4.906  0.9456  2.8878 -1.6489
 8451WAT     H234525   4.561   2.504   4.796  0.2667  0.6129 -0.7039
 8451WAT    EPW34526   4.501   2.525   4.842  0.6514  0.5848 -0.1811
 8452WAT      O34527   4.973   5.981   0.509 -0.0786  0.0644  0.0441
 8452WAT     H134528   5.038   6.023   0.469  0.4769 -1.0135 -0.2223
 8452WAT     H234529   4.922   6.046   0.538  0.0900  0.8968 -1.4104
 8452WAT    EPW34530   4.975   5.997   0.508  0.0284  0.0282 -0.2101
 8453WAT      O34531   6.049   3.431   4.662  0.8420  0.3836  0.8934
 8453WAT     H134532   6.066   3.364   4.609  2.9938  0.7526  1.0210
 8453WAT     H234533   6.094   3.497   4.627 -2.2658  2.2291 -0.0112
 8453WAT    EPW34534   6.058   3.431   4.649  0.7008  0.7107  0.7787
 8454WAT      O34535   4.125   3.508   4.667 -0.2329 -0.1592 -0.1051
 8454WAT     H134536   4.048   3.549   4.669  0.7788  1.9347 -1.1166
 8454WAT     H234537   4.103   3.423   4.666 -2.5469  0.3713 -1.4276
 8454WAT    EPW34538   4.110   3.501   4.667 -0.4253  0.2285 -0.4499
 8455WAT      O34539   3.703   2.572   4.939 -0.2173  0.2141 -0.3262
 8455WAT     H134540   3.739   2.608   5.009 -1.2900  0.6180  0.0301
 8455WAT     H234541   3.752   2.602   4.873  1.6523 -1.2333  0.3062
 8455WAT    EPW34542   3.716   2.582   4.940 -0.0995  0.0599 -0.1802
 8456WAT      O34543   5.785   4.894   3.052 -0.8655 -0.4205  0.0522
 8456WAT     H134544   5.864   4.857   3.054 -0.5480  0.1770 -0.9164
 8456WAT     H234545   5.732   4.826   3.041 -0.3639 -0.6971 -0.7616
 8456WAT    EPW34546   5.789   4.879   3.051 -0.7445 -0.3731 -0.2111
 8457WAT      O34547   7.071   6.863   0.843  0.0127  0.7660  0.1888
 8457WAT     H134548   7.110   6.931   0.806 -0.9640  0.7408 -0.9430
 8457WAT     H234549   7.010   6.900   0.894  0.4413  0.7597  0.7197
 8457WAT    EPW34550   7.067   6.878   0.845 -0.0683  0.7613  0.1000
 8458WAT      O34551   3.227   4.471   6.194  0.0339  0.2053 -0.5306
 8458WAT     H134552   3.144   4.458   6.217  0.5328 -1.6675  0.3381
 8458WAT     H234553   3.221   4.539   6.138 -2.4736 -1.7467 -2.9477
 8458WAT    EPW34554   3.214   4.479   6.189 -0.2628 -0.3597 -0.7594
 8459WAT      O34555   5.080   6.766   6.582  0.6409  0.2338  0.4928
 8459WAT     H134556   5.032   6.837   6.564 -1.1147 -0.9432  0.2886
 8459WAT     H234557   5.148   6.773   6.529 -1.6911 -0.4215 -2.9394
 8459WAT    EPW34558   5.083   6.778   6.572  0.0371 -0.0369 -0.0444
 8460WAT      O34559   2.242   6.994   6.021  0.5132  0.1058  0.4849
 8460WAT     H134560   2.173   7.007   5.969  1.0161 -0.1371 -0.2704
 8460WAT     H234561   2.235   6.910   6.042  0.7206  0.0092  0.1810
 8460WAT    EPW34562   2.230   6.983   6.016  0.6181  0.0557  0.3284
 8461WAT      O34563   2.533   6.588   0.623 -0.6396 -0.0732  0.1376
 8461WAT     H134564   2.476   6.653   0.612 -1.1500 -0.6000 -0.4858
 8461WAT     H234565   2.550   6.590   0.709  0.8787  2.0857 -0.1620
 8461WAT    EPW34566   2.527   6.598   0.634 -0.4907  0.1679  0.0013
 8462WAT      O34567   5.609   3.289   5.039  0.5584  0.3974  0.1653
 8462WAT     H134568   5.546   3.326   5.086 -0.6283  0.8509 -1.6772
 8462WAT     H234569   5.581   3.297   4.957  0.9560 -3.1998 -0.4981
 8462WAT    EPW34570   5.596   3.296   5.034  0.4419 -0.0670 -0.2049
 8463WAT      O34571   6.526   1.104   3.741  0.0846 -0.0874  0.5098
 8463WAT     H134572   6.508   1.029   3.782  0.3569  0.2870  1.3321
 8463WAT     H234573   6.454   1.152   3.754  0.6180  0.4546  1.5611
 8463WAT    EPW34574   6.513   1.100   3.749  0.2036  0.0480  0.7866
 8464WAT      O34575   0.870   2.708   7.150 -0.5700  0.0126  0.6100
 8464WAT     H134576   0.866   2.746   7.228 -1.1263  2.7662 -0.6567
 8464WAT     H234577   0.800   2.655   7.148  0.0092 -0.8757  2.2809
 8464WAT    EPW34578   0.859   2.705   7.161 -0.5666  0.2881  0.6697
 8465WAT      O34579   2.085   1.539   2.421 -1.1133  0.5988  0.5007
 8465WAT     H134580   2.150   1.584   2.457 -0.0313  0.3461 -1.0451
 8465WAT     H234581   2.084   1.464   2.465  0.1233  0.3186  0.0821
 8465WAT    EPW34582   2.094   1.535   2.433 -0.7708  0.5201  0.2105
 8466WAT      O34583   1.529   1.004   0.652 -0.0954 -0.2003  0.1664
 8466WAT     H134584   1.484   1.075   0.631  0.2377 -0.6106 -2.2343
 8466WAT     H234585   1.543   1.013   0.738 -0.4788  2.3595  0.0348
 8466WAT    EPW34586   1.524   1.016   0.662 -0.1028  0.1172 -0.2077
 8467WAT      O34587   4.825   2.068   5.179 -0.5884  0.1835 -0.0996
 8467WAT     H134588   4.897   2.065   5.130 -0.7026  0.7445 -0.3084
 8467WAT     H234589   4.803   1.984   5.190 -0.7440  0.0616 -1.2641
 8467WAT    EPW34590   4.832   2.055   5.173 -0.6283  0.2484 -0.3024
 8468WAT      O34591   1.878   3.363   4.007  0.2580  0.1928  0.2171
 8468WAT     H134592   1.795   3.340   3.994 -0.9530  3.0535  1.7621
 8468WAT     H234593   1.904   3.392   3.929 -0.6558  0.3890 -0.0273
 8468WAT    EPW34594   1.870   3.364   3.994 -0.0559  0.6443  0.4092
 8469WAT      O34595   4.411   6.217   1.124  0.1066  0.3360  0.3725
 8469WAT     H134596   4.431   6.291   1.166  1.5961 -0.8724  1.8976
 8469WAT     H234597   4.342   6.186   1.168 -0.0633  0.4615  0.1933
 8469WAT    EPW34598   4.404   6.223   1.137  0.3016  0.1761  0.5713
 8470WAT      O34599   1.990   5.841   4.012 -0.1454 -0.4300 -0.2044
 8470WAT     H134600   1.921   5.863   4.061  0.2727 -0.9835  0.6489
 8470WAT     H234601   2.049   5.815   4.070  0.6282 -0.4049 -0.9605
 8470WAT    EPW34602   1.988   5.840   4.028  0.0306 -0.5081 -0.1901
 8471WAT      O34603   5.415   4.421   1.243  0.3179 -0.7082 -0.4226
 8471WAT     H134604   5.420   4.336   1.222  0.1585 -1.4583  2.1949
 8471WAT     H234605   5.498   4.446   1.250  0.3645 -0.6156 -1.1988
 8471WAT    EPW34606   5.428   4.412   1.241  0.3012 -0.8054 -0.1506
 8472WAT      O34607   0.789   3.858   0.087  0.0637  0.0197 -0.1065
 8472WAT     H134608   0.753   3.839   0.009  0.2526 -0.8030 -0.0035
 8472WAT     H234609   0.838   3.928   0.070 -0.0511 -0.0341 -0.6859
 8472WAT    EPW34610   0.791   3.866   0.073  0.0746 -0.1098 -0.1768
 8473WAT      O34611   0.285   5.657   5.145  0.5007 -0.1757  0.0206
 8473WAT     H134612   0.357   5.612   5.127  0.9780  0.2398  0.8228
 8473WAT     H234613   0.259   5.687   5.067  2.4458  1.5038 -0.0829
 8473WAT    EPW34614   0.292   5.655   5.131  0.8586  0.1338  0.1238
 8474WAT      O34615   4.666   4.179   1.255 -1.1799 -1.0123 -0.0269
 8474WAT     H134616   4.735   4.197   1.206 -1.6868  0.7272 -0.1900
 8474WAT     H234617   4.687   4.212   1.333 -1.8803 -0.2405 -0.1422
 8474WAT    EPW34618   4.679   4.187   1.259 -1.3582 -0.6413 -0.0681
 8475WAT      O34619   0.804   7.101   0.520  0.7579  0.0544  0.5892
 8475WAT     H134620   0.853   7.045   0.475  0.2842 -0.1662  0.3382
 8475WAT     H234621   0.785   7.058   0.594 -0.0867 -0.3536  0.1469
 8475WAT    EPW34622   0.808   7.086   0.525  0.5631 -0.0384  0.4868
 8476WAT      O34623   3.454   1.339   5.434  0.8338  0.0689  0.1705
 8476WAT     H134624   3.440   1.287   5.503  0.3085 -0.3074 -0.2143
 8476WAT     H234625   3.427   1.417   5.461 -3.0388 -0.7363 -0.7985
 8476WAT    EPW34626   3.448   1.343   5.448  0.1841 -0.1056 -0.0295
 8477WAT      O34627   5.243   5.107   4.090 -0.1796 -0.5940  0.0152
 8477WAT     H134628   5.313   5.055   4.080  0.1674  0.1849 -2.5165
 8477WAT     H234629   5.253   5.140   4.170  2.2784 -0.7003 -0.1539
 8477WAT    EPW34630   5.255   5.104   4.100  0.2347 -0.4947 -0.3838
 8478WAT      O34631   4.310   4.120   5.591  0.2653  0.5947 -0.7060
 8478WAT     H134632   4.355   4.108   5.518  0.8893  0.6591 -0.3430
 8478WAT     H234633   4.315   4.043   5.632  1.2787  1.0177 -0.0031
 8478WAT    EPW34634   4.317   4.107   5.587  0.5072  0.6667 -0.5486
 8479WAT      O34635   0.792   2.023   1.927 -0.2711  0.3410  0.3265
 8479WAT     H134636   0.834   1.963   1.879  0.2776  1.0759 -0.1298
 8479WAT     H234637   0.713   2.027   1.889  0.4237  1.4981 -1.0515
 8479WAT    EPW34638   0.786   2.014   1.914 -0.0874  0.6205  0.0555
 8480WAT      O34639   7.183   3.717   3.545  1.0924 -0.4771 -0.0879
 8480WAT     H134640   7.109   3.751   3.575  0.2032 -1.3733 -1.1527
 8480WAT     H234641   7.201   3.653   3.602 -0.0441 -1.5224 -0.8295
 8480WAT    EPW34642   7.175   3.713   3.558  0.7931 -0.7639 -0.3547
 8481WAT      O34643   1.707   4.162   4.455  0.2832 -0.3753  0.1007
 8481WAT     H134644   1.759   4.094   4.438  1.6034  0.2805  1.2979
 8481WAT     H234645   1.629   4.126   4.471  0.4723 -1.4250 -1.2009
 8481WAT    EPW34646   1.703   4.147   4.455  0.5061 -0.4335  0.0852
 8482WAT      O34647   4.687   1.064   2.634 -0.0820 -0.5107  0.5411
 8482WAT     H134648   4.614   1.085   2.591 -0.4992 -1.5268  0.7164
 8482WAT     H234649   4.678   1.102   2.712  1.3544  2.6233 -0.6613
 8482WAT    EPW34650   4.675   1.072   2.639  0.0686 -0.1979  0.3893
 8483WAT      O34651   3.294   0.389   6.547  0.0291  0.3458  0.2266
 8483WAT     H134652   3.338   0.325   6.586  0.3544 -0.2157 -1.0153
 8483WAT     H234653   3.335   0.400   6.471  0.0823  2.1626  0.4573
 8483WAT    EPW34654   3.306   0.381   6.541  0.0850  0.5312  0.0772
 8484WAT      O34655   1.722   2.763   3.922 -0.4891  0.2890 -0.0175
 8484WAT     H134656   1.680   2.837   3.906  1.3911  2.0183  2.3080
 8484WAT     H234657   1.666   2.718   3.971 -2.0040 -0.3363 -2.1976
 8484WAT    EPW34658   1.708   2.767   3.927 -0.4351  0.4521  0.0040
 8485WAT      O34659   0.992   5.695   1.352  0.1626 -0.1334 -0.6807
 8485WAT     H134660   1.036   5.698   1.427 -1.2120 -1.2059  0.2224
 8485WAT     H234661   1.051   5.666   1.294  1.0320 -0.0485  0.1373
 8485WAT    EPW34662   1.007   5.691   1.354  0.0880 -0.2793 -0.4265
 8486WAT      O34663   3.931   7.036   0.909 -0.1469 -0.0562  0.1855
 8486WAT     H134664   3.868   6.990   0.870  0.9025 -0.6848 -0.8561
 8486WAT     H234665   3.934   7.002   0.990 -1.0473 -0.0896  0.2163
 8486WAT    EPW34666   3.922   7.024   0.915 -0.1249 -0.1540  0.0362
 8487WAT      O34667   7.099   2.016   3.005  0.3092  0.9444  0.2217
 8487WAT     H134668   7.166   1.968   2.975 -1.0688 -0.4790 -0.7385
 8487WAT     H234669   7.086   2.075   2.942 -0.5678 -0.0487 -0.5693
 8487WAT    EPW34670   7.107   2.017   2.991 -0.0239  0.5875 -0.0370
 8488WAT      O34671   7.194   1.966   0.053  0.0346  0.1108  0.0408
 8488WAT     H134672   7.266   1.952   0.101  0.0842  1.6695  0.4836
 8488WAT     H234673   7.161   1.886   0.042  0.6183 -0.4227  1.7699
 8488WAT    EPW34674   7.199   1.952   0.059  0.1281  0.2622  0.3616
 8489WAT      O34675   4.356   4.340   1.864  0.2925 -0.2842 -0.5039
 8489WAT     H134676   4.359   4.317   1.948  0.4102  0.7645 -0.1953
 8489WAT     H234677   4.272   4.336   1.844  0.4898 -2.9598 -1.0883
 8489WAT    EPW34678   4.344   4.336   1.873  0.3390 -0.5245 -0.5447
 8490WAT      O34679   3.040   1.260   4.861  0.5719  0.3930 -0.0597
 8490WAT     H134680   2.979   1.241   4.921  2.3851 -2.0447  1.2249
 8490WAT     H234681   3.105   1.294   4.909  1.0350  0.9545 -1.0643
 8490WAT    EPW34682   3.041   1.262   4.877  0.9081  0.1158 -0.0184
 8491WAT      O34683   1.723   6.771   6.078 -0.3307 -0.3466 -0.7529
 8491WAT     H134684   1.782   6.825   6.112  1.0036 -2.9430  1.4296
 8491WAT     H234685   1.730   6.783   5.992  1.6466  1.1290 -0.4384
 8491WAT    EPW34686   1.733   6.781   6.070  0.1585 -0.5122 -0.3840
 8492WAT      O34687   6.858   5.699   5.005  0.7543  0.3771 -0.4052
 8492WAT     H134688   6.823   5.619   5.012  0.0064  0.5837 -1.4619
 8492WAT     H234689   6.833   5.739   5.078  0.2145 -0.0244 -0.3650
 8492WAT    EPW34690   6.849   5.693   5.017  0.5641  0.3483 -0.5553
 8493WAT      O34691   2.135   6.313   2.464  0.1597 -0.5809 -0.0080
 8493WAT     H134692   2.116   6.237   2.503 -1.7441  0.0204  0.3677
 8493WAT     H234693   2.114   6.372   2.524  1.0105  0.2836 -0.5340
 8493WAT    EPW34694   2.129   6.310   2.479  0.0042 -0.3644 -0.0302
 8494WAT      O34695   6.009   4.961   2.224 -0.7553  0.3147  0.3629
 8494WAT     H134696   6.056   4.998   2.287  1.6607 -0.7632 -0.6764
 8494WAT     H234697   5.995   5.026   2.168  2.1212  0.1118 -0.7096
 8494WAT    EPW34698   6.014   4.976   2.225  0.0265  0.1255  0.0509
 8495WAT      O34699   3.863   2.698   5.129  0.4905  0.6659 -0.1423
 8495WAT     H134700   3.829   2.779   5.128  1.1649  0.9613  0.2497
 8495WAT     H234701   3.944   2.710   5.099  0.4656  0.0696 -0.4559
 8495WAT    EPW34702   3.870   2.712   5.124  0.5865  0.6215 -0.1307
 8496WAT      O34703   6.686   7.121   5.353 -0.2363 -0.7111 -0.0680
 8496WAT     H134704   6.600   7.114   5.364 -0.1672 -2.0842 -0.2060
 8496WAT     H234705   6.702   7.069   5.285  1.0409 -2.6562  1.6109
 8496WAT    EPW34706   6.676   7.112   5.345 -0.0374 -1.2013  0.1596
 8497WAT      O34707   1.484   5.893   6.736 -0.4040 -0.1013 -0.1882
 8497WAT     H134708   1.490   5.927   6.656 -0.2956 -0.5226 -0.3603
 8497WAT     H234709   1.557   5.921   6.775 -0.3008 -0.1572 -0.3389
 8497WAT    EPW34710   1.496   5.902   6.730 -0.3727 -0.1718 -0.2359
 8498WAT      O34711   0.827   1.552   2.221 -0.3699 -0.3315  0.4973
 8498WAT     H134712   0.855   1.531   2.141  1.4054 -1.1508  1.2988
 8498WAT     H234713   0.899   1.551   2.269 -1.4469 -0.0968  2.1771
 8498WAT    EPW34714   0.841   1.548   2.216 -0.2667 -0.4179  0.8639
 8499WAT      O34715   5.566   3.022   5.338 -0.9127  0.1548 -0.0661
 8499WAT     H134716   5.541   2.976   5.407 -0.3581 -0.1954 -0.0912
 8499WAT     H234717   5.523   3.097   5.346  1.1998  1.2598  2.1943
 8499WAT    EPW34718   5.556   3.026   5.349 -0.5187  0.2663  0.2641
 8500WAT      O34719   4.105   1.659   3.438  0.3340  0.0822  0.0475
 8500WAT     H134720   4.047   1.619   3.490  0.6856  0.7754  1.0106
 8500WAT     H234721   4.095   1.744   3.459  0.4947  0.3763 -1.0166
 8500WAT    EPW34722   4.095   1.666   3.449  0.4097  0.2281  0.0326
 8501WAT      O34723   1.752   2.407   1.787  0.0287 -0.9268  0.4282
 8501WAT     H134724   1.703   2.471   1.821  0.2505 -0.7107  0.3451
 8501WAT     H234725   1.832   2.423   1.819  0.3430 -0.4435 -0.5475
 8501WAT    EPW34726   1.756   2.419   1.797  0.1079 -0.8235  0.2718
 8502WAT      O34727   4.318   4.542   1.622 -0.0812  1.0448  0.1900
 8502WAT     H134728   4.276   4.471   1.594 -0.4687  1.8657 -1.4736
 8502WAT     H234729   4.331   4.526   1.707 -2.7101  0.2437  0.5461
 8502WAT    EPW34730   4.314   4.529   1.630 -0.5268  1.0477 -0.0031
 8503WAT      O34731   3.041   1.617   5.549 -0.0369  0.1918 -0.2469
 8503WAT     H134732   3.039   1.688   5.499  0.2693  0.7438  0.4936
 8503WAT     H234733   3.059   1.552   5.494 -1.2097  0.5394 -1.0829
 8503WAT    EPW34734   3.043   1.618   5.534 -0.1649  0.3247 -0.2610
 8504WAT      O34735   2.368   3.758   6.829  0.2766  0.3312  0.0389
 8504WAT     H134736   2.425   3.719   6.776  0.2670  1.3549 -0.7581
 8504WAT     H234737   2.367   3.707   6.900 -0.2055 -1.4328 -1.1731
 8504WAT    EPW34738   2.376   3.745   6.832  0.2039  0.2219 -0.2579
 8505WAT      O34739   3.339   1.261   6.865 -0.2831 -0.2311 -0.5436
 8505WAT     H134740   3.329   1.297   6.944 -0.8727 -0.3865 -0.5405
 8505WAT     H234741   3.387   1.190   6.881  0.5380  0.3166 -0.4930
 8505WAT    EPW34742   3.345   1.256   6.879 -0.2489 -0.1731 -0.5357
 8506WAT      O34743   3.297   6.087   6.929  0.4067 -0.3072 -0.0462
 8506WAT     H134744   3.234   6.027   6.930  1.5163 -1.5638 -1.0502
 8506WAT     H234745   3.310   6.102   6.843  0.3603  1.1616  0.1734
 8506WAT    EPW34746   3.290   6.081   6.916  0.5638 -0.2758 -0.1621
 8507WAT      O34747   1.218   1.717   0.525  0.2379  0.3433 -0.1085
 8507WAT     H134748   1.245   1.794   0.556 -1.1338  0.3106  1.3043
 8507WAT     H234749   1.174   1.682   0.592 -1.2063 -0.6150 -1.4700
 8507WAT    EPW34750   1.215   1.723   0.539 -0.1780  0.1969 -0.1009
 8508WAT      O34751   5.677   4.056   1.957 -0.1037  0.3184 -0.0968
 8508WAT     H134752   5.621   3.990   1.965  1.6026 -1.1147  0.7851
 8508WAT     H234753   5.723   4.053   2.031  0.9325  1.6375 -0.6328
 8508WAT    EPW34754   5.676   4.046   1.969  0.3014  0.3016 -0.0457
 8509WAT      O34755   0.118   4.003   6.066  0.2579 -0.5560 -0.0664
 8509WAT     H134756   0.143   3.950   6.001 -0.7835 -0.3246 -0.6754
 8509WAT     H234757   0.134   4.083   6.033  1.3479 -0.4678  0.6475
 8509WAT    EPW34758   0.124   4.007   6.051  0.2651 -0.5088 -0.0509
 8510WAT      O34759   4.404   3.375   6.551 -0.1582  0.0006  0.0296
 8510WAT     H134760   4.393   3.306   6.499  1.9006 -1.1656  1.0146
 8510WAT     H234761   4.445   3.433   6.501  0.6005 -0.5852 -0.0337
 8510WAT    EPW34762   4.408   3.374   6.536  0.2580 -0.2582  0.1658
 8511WAT      O34763   3.769   6.555   3.652 -0.2075  0.0778  0.0402
 8511WAT     H134764   3.776   6.638   3.679  1.1411 -0.6181  1.9826
 8511WAT     H234765   3.844   6.541   3.610 -0.4498 -0.1606 -0.3173
 8511WAT    EPW34766   3.781   6.565   3.649 -0.0441 -0.0602  0.2743
 8512WAT      O34767   0.348   2.732   6.214 -0.1595 -0.5198  0.4695
 8512WAT     H134768   0.366   2.760   6.133 -1.0625  0.5812  0.6393
 8512WAT     H234769   0.389   2.788   6.266  0.1427 -1.0283  0.7948
 8512WAT    EPW34770   0.357   2.744   6.210 -0.2482 -0.4322  0.5426
 8513WAT      O34771   6.992   4.664   4.441  0.4038  0.4981  0.7156
 8513WAT     H134772   6.956   4.606   4.386  0.6551  0.2464  0.8153
 8513WAT     H234773   6.929   4.724   4.451 -0.0175  0.0216  0.9573
 8513WAT    EPW34774   6.977   4.664   4.434  0.3787  0.3905  0.7660
 8514WAT      O34775   4.873   0.984   4.980 -0.1005 -0.5449 -0.2126
 8514WAT     H134776   4.947   0.941   4.996  0.6018  0.7657  0.2814
 8514WAT     H234777   4.901   1.058   4.943 -1.0665  0.4685  0.9993
 8514WAT    EPW34778   4.888   0.989   4.977 -0.1394 -0.2016  0.0394
 8515WAT      O34779   4.817   0.611   2.808  0.1190  0.1017  0.5152
 8515WAT     H134780   4.886   0.641   2.852 -0.7995  1.4362  1.1398
 8515WAT     H234781   4.799   0.675   2.752 -0.8736 -0.0127  0.6816
 8515WAT    EPW34782   4.824   0.625   2.807 -0.1633  0.2820  0.6321
 8516WAT      O34783   2.376   5.805   0.194  0.2347  0.1049 -0.4690
 8516WAT     H134784   2.435   5.781   0.253 -0.1605  0.4587  0.0816
 8516WAT     H234785   2.417   5.793   0.118  1.2900  1.0651 -0.0808
 8516WAT    EPW34786   2.391   5.800   0.191  0.3322  0.2990 -0.3303
 8517WAT      O34787   3.703   5.013   1.240  0.5297  0.3106  0.2140
 8517WAT     H134788   3.675   5.068   1.302  0.3081 -2.0806  2.3752
 8517WAT     H234789   3.636   4.958   1.229  0.7198  0.4240 -1.9221
 8517WAT    EPW34790   3.689   5.013   1.247  0.5250 -0.0259  0.2177
 8518WAT      O34791   3.759   4.729   3.177  0.3023  0.2489 -0.7010
 8518WAT     H134792   3.709   4.730   3.248  0.3939 -1.4675 -0.5872
 8518WAT     H234793   3.828   4.777   3.200  0.2753 -0.1875  0.3223
 8518WAT    EPW34794   3.762   4.736   3.191  0.3118 -0.0691 -0.5330
 8519WAT      O34795   4.790   5.616   7.000 -0.4501 -0.4047 -0.0269
 8519WAT     H134796   4.857   5.647   6.953  0.7218 -0.3336  1.6069
 8519WAT     H234797   4.782   5.534   6.972  0.0730 -0.2930 -0.5244
 8519WAT    EPW34798   4.799   5.608   6.989 -0.1997 -0.3777  0.1409
 8520WAT      O34799   0.621   6.785   4.827 -0.1104  0.6522  0.6743
 8520WAT     H134800   0.586   6.775   4.748 -1.1994 -1.9950  1.3830
 8520WAT     H234801   0.556   6.819   4.875 -0.2904 -0.1536  1.0051
 8520WAT    EPW34802   0.607   6.789   4.822 -0.2978  0.1421  0.8278
 8521WAT      O34803   4.211   6.415   5.648  0.1110 -0.1578  0.2862
 8521WAT     H134804   4.154   6.383   5.706  1.5761 -0.0994  1.8076
 8521WAT     H234805   4.242   6.344   5.609 -0.3265 -0.2432  0.0828
 8521WAT    EPW34806   4.207   6.400   5.651  0.2628 -0.1618  0.4809
 8522WAT      O34807   4.751   1.790   5.171  0.0608  0.4804  0.0201
 8522WAT     H134808   4.732   1.776   5.087 -0.4219 -0.0892  0.2201
 8522WAT     H234809   4.674   1.811   5.206 -0.0536 -0.8638  0.6376
 8522WAT    EPW34810   4.737   1.791   5.164 -0.0274  0.1977  0.1409
 8523WAT      O34811   4.883   4.181   7.354 -0.2606 -0.5129 -0.6712
 8523WAT     H134812   4.877   4.101   7.387 -0.7289 -0.0485  0.4267
 8523WAT     H234813   4.969   4.196   7.351 -0.2013 -0.7455 -0.1073
 8523WAT    EPW34814   4.895   4.171   7.358 -0.3210 -0.4786 -0.4257
 8524WAT      O34815   4.551   3.576   6.436 -0.6228  0.1843 -0.1066
 8524WAT     H134816   4.508   3.603   6.507 -1.9877 -1.0959 -0.4040
 8524WAT     H234817   4.519   3.626   6.372 -0.8451 -0.0010 -0.1413
 8524WAT    EPW34818   4.540   3.587   6.437 -0.8573 -0.0322 -0.1556
 8525WAT      O34819   5.527   3.831   4.827  0.0499  0.3409 -0.3699
 8525WAT     H134820   5.549   3.814   4.744 -0.6365  0.9390 -0.6793
 8525WAT     H234821   5.582   3.895   4.850  0.4257 -0.0151 -0.2711
 8525WAT    EPW34822   5.539   3.838   4.818  0.0040  0.3767 -0.4010
 8526WAT      O34823   2.995   5.152   4.661 -0.1823  0.7418  0.4577
 8526WAT     H134824   3.038   5.077   4.666  1.4374  1.6181  0.4347
 8526WAT     H234825   2.978   5.161   4.576  0.4777  0.8572  0.3378
 8526WAT    EPW34826   2.999   5.142   4.650  0.1544  0.8883  0.4366
 8527WAT      O34827   5.177   2.857   4.672 -0.1044  0.3478  0.1050
 8527WAT     H134828   5.236   2.842   4.735 -1.1652 -0.1219  1.0306
 8527WAT     H234829   5.104   2.872   4.717 -0.5668  1.5994 -0.9959
 8527WAT    EPW34830   5.175   2.857   4.688 -0.3294  0.4633  0.0791
 8528WAT      O34831   1.733   5.933   4.174 -0.1310  0.4180  0.2902
 8528WAT     H134832   1.773   6.010   4.162  1.0702  0.2564  2.6606
 8528WAT     H234833   1.703   5.938   4.256 -0.9214 -1.2545  0.1359
 8528WAT    EPW34834   1.735   5.945   4.184 -0.0703  0.1471  0.6176
 8529WAT      O34835   2.470   2.698   1.727 -0.1290 -0.2137  0.1142
 8529WAT     H134836   2.540   2.738   1.693 -1.0101  0.9702 -0.4162
 8529WAT     H234837   2.458   2.739   1.803  0.1078 -0.8388  0.4947
 8529WAT    EPW34838   2.479   2.710   1.734 -0.2242 -0.1312  0.0921
 8530WAT      O34839   2.035   1.125   1.409  0.1601 -0.0538 -0.1664
 8530WAT     H134840   2.026   1.067   1.344  3.0573 -2.0498  0.9754
 8530WAT     H234841   1.994   1.196   1.379 -0.5537 -1.5712 -3.2007
 8530WAT    EPW34842   2.028   1.127   1.395  0.4827 -0.5728 -0.4459
 8531WAT      O34843   6.213   3.314   3.441 -0.4123 -0.5999 -0.0393
 8531WAT     H134844   6.281   3.368   3.435 -1.1392  0.4125  0.5322
 8531WAT     H234845   6.232   3.264   3.510 -0.1648 -0.4585 -0.0059
 8531WAT    EPW34846   6.226   3.314   3.451 -0.4831 -0.4295  0.0501
 8532WAT      O34847   1.490   4.273   3.908 -0.4173  0.0094 -0.3921
 8532WAT     H134848   1.452   4.342   3.870 -0.2698 -0.5279 -1.5607
 8532WAT     H234849   1.477   4.208   3.851  2.0377 -0.2681 -0.7472
 8532WAT    EPW34850   1.483   4.274   3.894 -0.0329 -0.1109 -0.6172
 8533WAT      O34851   5.872   4.995   2.518 -0.0701  0.8519 -0.0207
 8533WAT     H134852   5.822   5.001   2.589  2.4532  3.1298  1.7537
 8533WAT     H234853   5.919   4.923   2.532 -0.5315  0.5260 -0.1111
 8533WAT    EPW34854   5.872   4.985   2.531  0.2345  1.1402  0.2281
 8534WAT      O34855   4.468   5.323   0.874  0.0447 -0.2184  0.1494
 8534WAT     H134856   4.523   5.342   0.939  0.4769  0.1290 -0.3011
 8534WAT     H234857   4.448   5.239   0.887  0.8849 -0.4221  0.1873
 8534WAT    EPW34858   4.473   5.314   0.886  0.2327 -0.1972  0.0884
 8535WAT      O34859   3.458   2.443   4.016  0.2552  0.3377  0.4086
 8535WAT     H134860   3.492   2.522   4.027  1.4073 -0.2662  1.4007
 8535WAT     H234861   3.409   2.432   4.088 -0.9387  0.6384 -0.3365
 8535WAT    EPW34862   3.455   2.453   4.028  0.2490  0.2929  0.4451
 8536WAT      O34863   3.984   6.234   6.969  0.0538 -0.3400 -1.0087
 8536WAT     H134864   4.015   6.313   6.990 -0.8277  0.2235 -1.7381
 8536WAT     H234865   3.931   6.251   6.902 -0.1297 -1.5654 -1.1833
 8536WAT    EPW34866   3.981   6.248   6.962 -0.1035 -0.4378 -1.1422
 8537WAT      O34867   1.974   6.658   0.267  0.4168 -0.5544  0.1590
 8537WAT     H134868   1.912   6.714   0.243  1.5422  0.9226  0.5489
 8537WAT     H234869   1.962   6.590   0.214 -2.4206 -0.9659  1.2042
 8537WAT    EPW34870   1.963   6.656   0.255  0.1639 -0.3970  0.3710
 8538WAT      O34871   6.821   3.235   5.831  0.1508 -0.0261 -0.6134
 8538WAT     H134872   6.761   3.299   5.830  0.0094 -0.1550 -1.8196
 8538WAT     H234873   6.796   3.185   5.897 -0.9796  0.0247 -0.9850
 8538WAT    EPW34874   6.808   3.237   5.840 -0.0370 -0.0376 -0.8465
 8539WAT      O34875   6.214   3.931   4.804  0.3705 -0.0194 -0.0962
 8539WAT     H134876   6.176   3.856   4.782  2.1265 -0.6098 -1.3299
 8539WAT     H234877   6.230   3.920   4.890 -2.1602  0.2971  0.5006
 8539WAT    EPW34878   6.211   3.918   4.814  0.2561 -0.0598 -0.1903
 8540WAT      O34879   0.453   5.301   4.689  0.3180 -0.6221  0.3377
 8540WAT     H134880   0.462   5.277   4.773 -0.0728  0.8912  0.8427
 8540WAT     H234881   0.372   5.274   4.670  0.2645 -0.6360  0.5742
 8540WAT    EPW34882   0.442   5.293   4.699  0.2524 -0.4006  0.4472
 8541WAT      O34883   1.046   0.279   6.475  0.3144  0.2209 -0.0424
 8541WAT     H134884   1.005   0.210   6.512  1.5979 -0.0239  0.9841
 8541WAT     H234885   1.130   0.263   6.491  0.9281  0.3266 -2.7676
 8541WAT    EPW34886   1.052   0.266   6.483  0.5947  0.2004 -0.2934
 8542WAT      O34887   4.964   5.857   6.184 -0.7058  0.4665 -0.5056
 8542WAT     H134888   4.957   5.853   6.097 -0.2362 -1.8004 -0.4912
 8542WAT     H234889   4.891   5.821   6.213 -0.1888 -0.1957  0.0071
 8542WAT    EPW34890   4.952   5.851   6.175 -0.5600  0.0338 -0.4278
 8543WAT      O34891   2.609   2.649   6.506 -0.1831 -0.0100  0.0434
 8543WAT     H134892   2.563   2.584   6.540 -0.0404  0.1759  0.5936
 8543WAT     H234893   2.584   2.719   6.552 -0.3820  0.3439 -0.5749
 8543WAT    EPW34894   2.598   2.650   6.518 -0.1914  0.0697  0.0333
 8544WAT      O34895   3.749   4.817   6.202  0.7308  0.4075  0.1180
 8544WAT     H134896   3.827   4.843   6.172 -0.1396  2.0937 -0.8564
 8544WAT     H234897   3.710   4.783   6.132 -0.3680  2.0463 -0.1410
 8544WAT    EPW34898   3.755   4.816   6.187  0.4399  0.8987 -0.0642
 8545WAT      O34899   3.347   1.050   1.511 -0.3867 -0.2098  0.4387
 8545WAT     H134900   3.406   0.986   1.513  1.1772  1.1995  1.0097
 8545WAT     H234901   3.343   1.072   1.426 -1.6940 -1.6824  0.0716
 8545WAT    EPW34902   3.355   1.044   1.499 -0.3488 -0.2191  0.4688
 8546WAT      O34903   1.003   7.198   3.477 -0.1634  0.0530  0.3739
 8546WAT     H134904   0.991   7.217   3.393 -1.0438 -0.3139  0.4100
 8546WAT     H234905   0.965   7.265   3.519 -0.5561 -0.2324  0.4799
 8546WAT    EPW34906   0.996   7.211   3.471 -0.3515 -0.0434  0.3949
 8547WAT      O34907   6.198   6.631   4.175 -0.2284 -0.2473 -0.1221
 8547WAT     H134908   6.271   6.646   4.130  0.7318 -4.5933 -0.4662
 8547WAT     H234909   6.226   6.604   4.253 -1.4115 -1.5656 -0.0974
 8547WAT    EPW34910   6.213   6.629   4.180 -0.2613 -1.0840 -0.1693
 8548WAT      O34911   5.295   6.500   3.848 -0.2120 -0.4500 -0.4095
 8548WAT     H134912   5.264   6.564   3.799 -0.4129  0.2045  0.5431
 8548WAT     H234913   5.229   6.442   3.850 -0.2916 -0.3688 -0.7144
 8548WAT    EPW34914   5.280   6.501   3.841 -0.2534 -0.3413 -0.3138
 8549WAT      O34915   2.829   5.850   4.375  0.5319 -0.1510  0.1359
 8549WAT     H134916   2.822   5.812   4.297  0.3221 -0.0610  0.1102
 8549WAT     H234917   2.818   5.785   4.432  1.3987 -0.3454  0.0911
 8549WAT    EPW34918   2.826   5.835   4.372  0.6289 -0.1664  0.1254
 8550WAT      O34919   5.803   6.135   0.303 -0.2192  0.6705 -0.0482
 8550WAT     H134920   5.749   6.145   0.235 -0.2883 -0.5398 -0.2034
 8550WAT     H234921   5.828   6.052   0.296  0.7599  0.8891  0.6957
 8550WAT    EPW34922   5.798   6.124   0.292 -0.0848  0.5240  0.0387
 8551WAT      O34923   2.745   1.078   4.622 -0.2155  0.0785 -0.0070
 8551WAT     H134924   2.817   1.097   4.667 -0.5263 -0.4012  0.7243
 8551WAT     H234925   2.711   1.010   4.666 -1.9093  1.2187  0.5769
 8551WAT    EPW34926   2.750   1.071   4.635 -0.5116  0.1761  0.1873
 8552WAT      O34927   5.523   5.663   3.440 -0.0757  0.1892 -0.4836
 8552WAT     H134928   5.511   5.591   3.487 -3.5733  0.8301 -0.1805
 8552WAT     H234929   5.510   5.637   3.358  1.5223 -0.0022 -0.7229
 8552WAT    EPW34930   5.519   5.649   3.434 -0.3563  0.2556 -0.4742
 8553WAT      O34931   5.582   0.031   0.793 -0.2139 -0.5844  0.2777
 8553WAT     H134932   5.532   0.025   0.722  1.0463  1.8055 -0.9570
 8553WAT     H234933   5.540  -0.018   0.852 -1.9180 -1.7574 -1.7516
 8553WAT    EPW34934   5.568   0.023   0.791 -0.2795 -0.4046 -0.2045
 8554WAT      O34935   3.461   5.787   1.971 -0.4745 -0.7107 -0.0429
 8554WAT     H134936   3.400   5.832   2.013  0.3285  1.5006 -1.0922
 8554WAT     H234937   3.425   5.771   1.893  0.3709  1.0437 -0.8516
 8554WAT    EPW34938   3.447   5.791   1.966 -0.2310 -0.1249 -0.3173
 8555WAT      O34939   0.080   2.806   6.156  0.2160  0.0755 -0.1671
 8555WAT     H134940   0.156   2.800   6.197 -0.8290  0.3966  1.9324
 8555WAT     H234941   0.059   2.890   6.162  0.0521  0.1491 -1.4436
 8555WAT    EPW34942   0.088   2.817   6.163  0.0374  0.1338 -0.0455
 8556WAT      O34943   2.042   2.372   6.033 -0.2057  0.5055  0.5043
 8556WAT     H134944   2.032   2.296   5.992 -0.1553  0.2529  0.9525
 8556WAT     H234945   2.121   2.365   6.070 -0.3583  0.6281  0.8534
 8556WAT    EPW34946   2.052   2.360   6.033 -0.2208  0.4863  0.6221
 8557WAT      O34947   4.590   2.349   6.611 -1.1418 -0.1168  0.3232
 8557WAT     H134948   4.575   2.435   6.606  0.8361  0.3194  1.0103
 8557WAT     H234949   4.510   2.315   6.618 -2.0490  1.5571 -0.9543
 8557WAT    EPW34950   4.576   2.356   6.611 -0.9836  0.1949  0.2360
 8558WAT      O34951   6.852   6.504   4.188 -0.2696 -0.6584  0.2597
 8558WAT     H134952   6.830   6.584   4.163 -0.7147 -0.6307  0.7304
 8558WAT     H234953   6.859   6.510   4.274 -0.8441 -1.2526  0.3535
 8558WAT    EPW34954   6.850   6.517   4.197 -0.4202 -0.7421  0.3431
 8559WAT      O34955   4.234   0.319   7.033 -0.1165  0.2012  0.4751
 8559WAT     H134956   4.169   0.370   7.062  0.0190  0.0121  1.1287
 8559WAT     H234957   4.249   0.266   7.100 -0.8030 -1.2438 -0.4716
 8559WAT    EPW34958   4.227   0.319   7.047 -0.1979 -0.0402  0.4318
 8560WAT      O34959   5.295   2.200   6.212  0.1027  0.1259  0.1001
 8560WAT     H134960   5.246   2.222   6.143  0.2651  1.4820  0.3858
 8560WAT     H234961   5.375   2.227   6.191  0.2734  0.0067  0.5717
 8560WAT    EPW34962   5.299   2.208   6.199  0.1519  0.3086  0.2119
 8561WAT      O34963   7.106   5.517   3.368 -0.4183  0.1820  0.0827
 8561WAT     H134964   7.024   5.492   3.358 -0.7747  0.6697  1.4961
 8561WAT     H234965   7.128   5.550   3.290 -1.3111 -0.6106 -0.5138
 8561WAT    EPW34966   7.097   5.518   3.355 -0.6028  0.1370  0.2033
 8562WAT      O34967   0.257   3.169   6.803 -0.3643 -0.1672  0.5140
 8562WAT     H134968   0.243   3.245   6.763  1.4216 -0.0034  0.1000
 8562WAT     H234969   0.266   3.191   6.887 -0.5652 -0.0222  0.4982
 8562WAT    EPW34970   0.257   3.183   6.810 -0.1301 -0.1216  0.4505
 8563WAT      O34971   5.186   4.196   1.058  0.4251 -0.0912 -0.3388
 8563WAT     H134972   5.183   4.143   0.989  2.3027 -0.3108 -0.2935
 8563WAT     H234973   5.210   4.273   1.025  0.1264  0.1146 -0.0837
 8563WAT    EPW34974   5.189   4.200   1.043  0.6583 -0.0933 -0.2944
 8564WAT      O34975   1.829   5.771   5.491 -0.7713 -0.2452 -0.0833
 8564WAT     H134976   1.894   5.786   5.435  0.5397 -1.2013  1.0701
 8564WAT     H234977   1.807   5.851   5.519  0.1935  0.0962 -0.2396
 8564WAT    EPW34978   1.836   5.785   5.487 -0.4351 -0.3360  0.0640
 8565WAT      O34979   1.177   5.223   5.944  0.5463 -0.0355 -0.5374
 8565WAT     H134980   1.260   5.234   5.968  0.6269 -0.8060 -0.4493
 8565WAT     H234981   1.174   5.141   5.914 -0.2889 -0.2072 -0.0361
 8565WAT    EPW34982   1.189   5.212   5.943  0.4348 -0.1747 -0.4503
 8566WAT      O34983   3.014   4.336   1.906 -0.1299  0.9486 -0.2553
 8566WAT     H134984   3.071   4.275   1.930 -1.3695 -0.0667  0.2300
 8566WAT     H234985   3.062   4.391   1.859  1.8317  1.5065  2.1556
 8566WAT    EPW34986   3.029   4.335   1.903 -0.0233  0.8810  0.1726
 8567WAT      O34987   0.335   3.170   3.542 -0.1935  0.0048 -0.9382
 8567WAT     H134988   0.413   3.209   3.550  0.3267 -1.2066  0.2887
 8567WAT     H234989   0.308   3.160   3.624 -2.5414  1.9972 -1.3598
 8567WAT    EPW34990   0.343   3.174   3.555 -0.4635  0.1201 -0.8193
 8568WAT      O34991   4.590   4.221   6.576 -0.1605  0.2741  0.0129
 8568WAT     H134992   4.635   4.150   6.551 -0.9985 -0.2073 -0.1377
 8568WAT     H234993   4.558   4.199   6.654  2.0679  1.6037  1.4550
 8568WAT    EPW34994   4.592   4.207   6.584  0.0449  0.3994  0.2037
 8569WAT      O34995   5.498   0.395   1.462  0.0553 -0.7013  0.3016
 8569WAT     H134996   5.435   0.400   1.401  0.2346  0.2977  0.1876
 8569WAT     H234997   5.552   0.334   1.429 -0.9662 -1.7945  0.5399
 8569WAT    EPW34998   5.497   0.386   1.448 -0.0691 -0.7152  0.3200
 8570WAT      O34999   2.659   4.852   1.704  0.1470 -0.1198 -0.0820
 8570WAT     H135000   2.602   4.792   1.678  0.3658 -0.1973 -0.3907
 8570WAT     H235001   2.720   4.806   1.747  0.9836 -0.2991 -1.4140
 8570WAT    EPW35002   2.660   4.837   1.707  0.3029 -0.1577 -0.3244
 8571WAT      O35003   1.842   1.958   2.862  0.3606  0.0496  0.5388
 8571WAT     H135004   1.850   2.011   2.931 -1.3413 -0.4447  1.1739
 8571WAT     H235005   1.779   1.903   2.887  0.9679 -1.2560 -0.7365
 8571WAT    EPW35006   1.834   1.958   2.876  0.1989 -0.2163  0.4442
 8572WAT      O35007   5.350   0.823   3.029  0.0949 -0.6537 -0.3675
 8572WAT     H135008   5.314   0.848   2.953  0.2497 -2.5269 -1.1350
 8572WAT     H235009   5.390   0.895   3.058 -0.5181  0.2904 -1.7464
 8572WAT    EPW35010   5.351   0.837   3.022  0.0272 -0.7910 -0.6846
 8573WAT      O35011   2.714   4.244   5.480 -0.0494 -0.2893  0.2979
 8573WAT     H135012   2.698   4.269   5.398 -1.5631 -0.8904  0.3714
 8573WAT     H235013   2.791   4.204   5.475  0.4402  0.7173 -0.5887
 8573WAT    EPW35014   2.723   4.242   5.468 -0.2007 -0.2294  0.1778
 8574WAT      O35015   6.498   2.597   2.242 -0.4238 -0.1131 -0.3217
 8574WAT     H135016   6.460   2.572   2.317  0.1889 -2.8316 -0.8052
 8574WAT     H235017   6.434   2.639   2.200 -1.9929 -1.8213  0.2070
 8574WAT    EPW35018   6.483   2.599   2.247 -0.5651 -0.7670 -0.3150
 8575WAT      O35019   6.513   2.650   6.703 -0.1879  0.5143 -0.0895
 8575WAT     H135020   6.480   2.573   6.678 -0.5523  0.8685 -0.7099
 8575WAT     H235021   6.571   2.628   6.764  1.1897 -0.4426 -1.6726
 8575WAT    EPW35022   6.517   2.635   6.708 -0.0382  0.4253 -0.4150
 8576WAT      O35023   7.308   4.406   7.343  0.0456  0.1693 -0.7066
 8576WAT     H135024   7.317   4.419   7.257 -0.2347 -0.2508 -0.8017
 8576WAT     H235025   7.374   4.452   7.377 -0.0504  0.6274 -1.1207
 8576WAT    EPW35026   7.319   4.414   7.335 -0.0100  0.1749 -0.7818
 8577WAT      O35027   2.303   4.587   6.772 -0.4664 -0.1781  0.8511
 8577WAT     H135028   2.385   4.602   6.747 -0.8249  0.6144  0.1100
 8577WAT     H235029   2.289   4.504   6.749  0.2183 -0.4227  1.2774
 8577WAT    EPW35030   2.313   4.577   6.765 -0.4183 -0.0972  0.8046
 8578WAT      O35031   7.159   3.978   4.487  0.5107 -0.1424 -0.6414
 8578WAT     H135032   7.230   3.978   4.436  2.0960  1.5972  1.3821
 8578WAT     H235033   7.186   3.942   4.561 -0.5242  1.0528  0.3780
 8578WAT    EPW35034   7.173   3.973   4.490  0.5920  0.2911 -0.1919
 8579WAT      O35035   5.793   5.924   7.338  0.3541  0.2416  0.1109
 8579WAT     H135036   5.721   5.888   7.373  1.1389 -1.7271 -0.1805
 8579WAT     H235037   5.858   5.886   7.382  1.2708  2.4755  0.8301
 8579WAT    EPW35038   5.792   5.913   7.350  0.6054  0.2808  0.1741
 8580WAT      O35039   2.590   1.575   3.882  0.8503  0.5028 -0.0527
 8580WAT     H135040   2.634   1.646   3.858  0.6743  0.4594 -0.5085
 8580WAT     H235041   2.649   1.512   3.880  1.0967  0.6973  0.7156
 8580WAT    EPW35042   2.605   1.576   3.878  0.8607  0.5251 -0.0065
 8581WAT      O35043   4.375   0.913   2.291 -0.1326  0.8228 -0.2955
 8581WAT     H135044   4.327   0.843   2.268 -1.7384  1.7933 -0.0240
 8581WAT     H235045   4.455   0.891   2.264 -0.1064 -1.9851  1.5585
 8581WAT    EPW35046   4.380   0.899   2.283 -0.3660  0.5514  0.0185
 8582WAT      O35047   0.129   5.920   2.335  0.1868  0.1452 -0.8887
 8582WAT     H135048   0.166   5.994   2.362  0.1995  0.4299 -1.6545
 8582WAT     H235049   0.086   5.892   2.405  0.2351  0.8466 -0.5659
 8582WAT    EPW35050   0.128   5.927   2.349  0.1958  0.2909 -0.9541
 8583WAT      O35051   5.160   2.141   6.982  0.4583 -0.6426  0.7971
 8583WAT     H135052   5.160   2.225   7.003 -0.7975 -0.3625 -0.1948
 8583WAT     H235053   5.225   2.108   7.030  0.3871  0.7044  1.8852
 8583WAT    EPW35054   5.170   2.148   6.992  0.2623 -0.4023  0.8113
 8584WAT      O35055   6.274   6.981   1.821 -0.3722 -0.7017  0.0253
 8584WAT     H135056   6.187   6.972   1.816 -0.6018  0.9871  0.2744
 8584WAT     H235057   6.298   6.920   1.879 -1.5520 -0.4708  0.7869
 8584WAT    EPW35058   6.265   6.971   1.829 -0.5804 -0.4181  0.1746
 8585WAT      O35059   7.050   0.502   0.990 -0.0739  0.4882 -0.0707
 8585WAT     H135060   6.970   0.476   1.014 -0.2974 -1.2357 -2.2981
 8585WAT     H235061   7.102   0.443   1.028 -0.0861  0.2377 -0.4317
 8585WAT    EPW35062   7.046   0.489   0.999 -0.1087  0.1965 -0.4530
 8586WAT      O35063   6.812   4.933   0.422  0.3442 -0.0732 -0.3657
 8586WAT     H135064   6.737   4.926   0.466  0.1925  0.3384 -0.5455
 8586WAT     H235065   6.845   5.009   0.450  0.2186  0.2227 -0.9800
 8586WAT    EPW35066   6.806   4.943   0.432  0.3032  0.0313 -0.4830
 8587WAT      O35067   6.642   6.334   1.389  0.3732 -0.3143  0.2215
 8587WAT     H135068   6.647   6.351   1.475 -1.5783  2.1797 -0.0261
 8587WAT     H235069   6.558   6.346   1.371  0.9945  0.9658 -2.3165
 8587WAT    EPW35070   6.630   6.339   1.399  0.1767  0.2432 -0.1900
 8588WAT      O35071   2.259   0.245   3.421  0.2674 -0.0817  0.6538
 8588WAT     H135072   2.255   0.181   3.362 -0.3852 -0.4350  1.0737
 8588WAT     H235073   2.187   0.291   3.406  0.7164  0.5557  0.3725
 8588WAT    EPW35074   2.248   0.242   3.410  0.2373 -0.0397  0.6743
 8589WAT      O35075   5.653   0.760   0.834  0.1664  0.1718 -0.0625
 8589WAT     H135076   5.606   0.795   0.770  0.1379  1.8940  0.8257
 8589WAT     H235077   5.709   0.824   0.856  0.6650 -0.6260  1.1117
 8589WAT    EPW35078   5.654   0.775   0.828  0.2358  0.3084  0.2422
 8590WAT      O35079   4.504   2.745   7.126  0.0501 -0.1883 -0.2301
 8590WAT     H135080   4.428   2.777   7.152  0.5522 -0.1357  1.2392
 8590WAT     H235081   4.544   2.813   7.089  0.1014  0.2611  0.6301
 8590WAT    EPW35082   4.499   2.760   7.124  0.1319 -0.1141  0.1140
 8591WAT      O35083   7.290   6.759   5.494  0.1248  0.8650  0.2014
 8591WAT     H135084   7.274   6.680   5.460  0.4262  0.6367  0.5747
 8591WAT     H235085   7.221   6.772   5.547 -0.3025  1.1850 -0.4163
 8591WAT    EPW35086   7.277   6.749   5.497  0.1062  0.8786  0.1653
 8592WAT      O35087   3.736   3.977   5.745 -0.6077  0.4535 -0.1932
 8592WAT     H135088   3.680   3.916   5.717 -0.6663  0.1394  0.5753
 8592WAT     H235089   3.812   3.953   5.710 -0.5497 -0.2954  0.4008
 8592WAT    EPW35090   3.739   3.964   5.736 -0.6078  0.2965  0.0081
 8593WAT      O35091   2.028   6.042   1.671 -0.4846  0.1439 -0.0637
 8593WAT     H135092   2.066   6.041   1.749  0.3173 -1.8964 -0.4297
 8593WAT     H235093   2.089   6.008   1.618 -1.4096  0.4711 -1.3992
 8593WAT    EPW35094   2.043   6.037   1.675 -0.5028 -0.1091 -0.3150
 8594WAT      O35095   1.804   6.805   6.945 -0.1303  0.3120  0.5290
 8594WAT     H135096   1.808   6.720   6.924  3.2330  0.3939  0.2829
 8594WAT     H235097   1.859   6.812   7.012 -0.4752  2.2782  0.6611
 8594WAT    EPW35098   1.813   6.793   6.951  0.3156  0.6145  0.5122
 8595WAT      O35099   5.440   5.301   7.359  0.5658  0.2039 -0.2782
 8595WAT     H135100   5.527   5.299   7.356  0.5771  0.2289 -0.0140
 8595WAT     H235101   5.418   5.217   7.365  0.5295  0.1315 -1.2322
 8595WAT    EPW35102   5.449   5.288   7.359  0.5621  0.1969 -0.3801
 8596WAT      O35103   3.061   4.370   7.344  0.0374  0.0003 -0.2769
 8596WAT     H135104   3.046   4.400   7.263 -1.5479  0.2638  0.0884
 8596WAT     H235105   3.146   4.386   7.356 -0.1643  1.9915 -1.0855
 8596WAT    EPW35106   3.071   4.377   7.334 -0.2266  0.3334 -0.3424
 8597WAT      O35107   3.277   6.330   3.397 -0.5409  0.3511 -0.0241
 8597WAT     H135108   3.343   6.364   3.443 -0.2286 -1.0341  0.6075
 8597WAT     H235109   3.307   6.328   3.315 -0.6877  1.8295 -0.1399
 8597WAT    EPW35110   3.291   6.335   3.392 -0.5165  0.3649  0.0521
 8598WAT      O35111   3.935   0.642   2.334  0.0499 -0.3296 -0.0507
 8598WAT     H135112   3.918   0.713   2.382  0.7065  0.6045 -1.1685
 8598WAT     H235113   3.925   0.576   2.391 -0.2080  0.6734  1.0975
 8598WAT    EPW35114   3.931   0.642   2.350  0.1088 -0.0435 -0.0462
 8599WAT      O35115   1.529   0.518   6.926  0.3347  0.0359  0.0050
 8599WAT     H135116   1.475   0.529   6.993  0.3095  0.4751 -0.0860
 8599WAT     H235117   1.544   0.432   6.926  1.9931  0.2614  1.8837
 8599WAT    EPW35118   1.523   0.507   6.936  0.5759  0.1341  0.2691
 8600WAT      O35119   7.024   3.110   3.789  0.4048  0.3402  0.0771
 8600WAT     H135120   6.953   3.074   3.753  0.2941  0.1779  0.4548
 8600WAT     H235121   7.030   3.187   3.749  0.5281 -0.0097 -0.5907
 8600WAT    EPW35122   7.015   3.116   3.778  0.4067  0.2645  0.0342
 8601WAT      O35123   1.055   3.332   3.579 -0.0510 -0.0567 -0.0521
 8601WAT     H135124   1.094   3.270   3.532  1.1633  0.5836  0.0963
 8601WAT     H235125   1.059   3.403   3.528  1.4652  0.7014  1.0456
 8601WAT    EPW35126   1.061   3.333   3.565  0.3524  0.1499  0.1320
 8602WAT      O35127   2.962   0.404   5.587  0.3030  0.6282  0.5819
 8602WAT     H135128   2.877   0.414   5.601  0.0575 -0.6740  0.1226
 8602WAT     H235129   2.975   0.439   5.508  0.4433  1.8935  1.1338
 8602WAT    EPW35130   2.951   0.411   5.578  0.2874  0.6227  0.5956
 8603WAT      O35131   0.764   3.685   5.400  0.1690  0.0274 -0.3493
 8603WAT     H135132   0.740   3.727   5.327  1.3234 -0.3440 -0.9619
 8603WAT     H235133   0.712   3.615   5.401 -1.6785  1.3321  0.6098
 8603WAT    EPW35134   0.753   3.681   5.389  0.0666  0.1653 -0.2981
 8604WAT      O35135   4.984   5.416   5.340 -0.4210  0.3251  0.1026
 8604WAT     H135136   5.019   5.478   5.288 -0.3866 -1.0506 -1.6047
 8604WAT     H235137   4.985   5.453   5.419 -0.4833  2.5383 -0.8561
 8604WAT    EPW35138   4.989   5.431   5.344 -0.4251  0.4488 -0.2912
 8605WAT      O35139   0.770   0.472   5.577  0.1057  0.2103  0.7493
 8605WAT     H135140   0.685   0.472   5.560  0.4090 -1.8922 -1.2394
 8605WAT     H235141   0.790   0.557   5.584 -1.9737  0.7714  0.5100
 8605WAT    EPW35142   0.761   0.485   5.576 -0.1567 -0.0174  0.4202
 8606WAT      O35143   3.261   7.190   0.194  0.1609 -0.4541 -0.1171
 8606WAT     H135144   3.256   7.103   0.194  4.2154 -0.8656 -0.6789
 8606WAT     H235145   3.293   7.209   0.115 -0.3279  1.5357  0.1160
 8606WAT    EPW35146   3.265   7.180   0.183  0.6876 -0.2210 -0.1657
 8607WAT      O35147   1.146   0.138   2.610  0.0901 -0.7504 -0.6724
 8607WAT     H135148   1.174   0.055   2.614  2.1442 -0.2336 -2.2810
 8607WAT     H235149   1.099   0.148   2.682  1.2056 -2.8241  0.4254
 8607WAT    EPW35150   1.143   0.127   2.621  0.5583 -0.9804 -0.7479
 8608WAT      O35151   2.150   1.595   2.821 -0.7212  0.1602 -0.0424
 8608WAT     H135152   2.078   1.548   2.839 -0.9740  0.2307 -0.8575
 8608WAT     H235153   2.177   1.621   2.900 -1.2964 -0.2994  0.3152
 8608WAT    EPW35154   2.143   1.592   2.836 -0.8435  0.1027 -0.1100
 8609WAT      O35155   0.782   2.162   2.188 -0.4560  0.2144  0.5529
 8609WAT     H135156   0.698   2.158   2.213 -0.4587 -0.7173  0.4432
 8609WAT     H235157   0.788   2.100   2.128 -0.0811  1.4496 -0.7207
 8609WAT    EPW35158   0.771   2.152   2.183 -0.4010  0.2592  0.3486
 8610WAT      O35159   1.310   6.970   0.580  0.2496 -0.4022 -0.3379
 8610WAT     H135160   1.279   6.890   0.596 -0.5966 -0.5489 -2.3880
 8610WAT     H235161   1.386   6.954   0.539  1.6044 -0.0685  1.8866
 8610WAT    EPW35162   1.317   6.956   0.576  0.3248 -0.3746 -0.3122
 8611WAT      O35163   6.327   2.550   3.354  0.4469  0.0566  0.9981
 8611WAT     H135164   6.363   2.530   3.278  0.2649  0.9226  0.6642
 8611WAT     H235165   6.249   2.583   3.332 -0.6305 -1.8334  1.6954
 8611WAT    EPW35166   6.321   2.552   3.340  0.2608 -0.0947  1.0518
 8612WAT      O35167   2.188   1.247   3.349 -0.1158  0.1362  0.7305
 8612WAT     H135168   2.111   1.232   3.386  0.0409 -0.2775  0.8986
 8612WAT     H235169   2.243   1.198   3.396  0.0926 -0.3754 -0.0264
 8612WAT    EPW35170   2.185   1.238   3.362 -0.0619 -0.0005  0.6435
 8613WAT      O35171   1.226   4.203   0.992  0.3001  0.3843 -0.5976
 8613WAT     H135172   1.198   4.277   1.027 -0.2424  0.1357 -0.4957
 8613WAT     H235173   1.171   4.142   1.024  1.9872 -0.3945  0.9710
 8613WAT    EPW35174   1.213   4.205   1.002  0.4692  0.2325 -0.3508
 8614WAT      O35175   0.715   1.672   6.607 -0.9110  0.3103  0.7350
 8614WAT     H135176   0.705   1.716   6.682 -0.1660 -1.3529  1.8920
 8614WAT     H235177   0.711   1.588   6.633 -0.8034 -0.3075 -1.1243
 8614WAT    EPW35178   0.713   1.666   6.622 -0.7850 -0.0266  0.6312
 8615WAT      O35179   6.508   4.080   7.073  0.1186  0.2660  0.5952
 8615WAT     H135180   6.516   4.021   7.137 -1.2148  0.4646  0.9812
 8615WAT     H235181   6.544   4.152   7.107 -0.5468  0.3599  1.1346
 8615WAT    EPW35182   6.515   4.082   7.088 -0.1767  0.3092  0.7319
 8616WAT      O35183   5.583   2.334   4.109 -0.2537  0.1851 -0.3984
 8616WAT     H135184   5.630   2.373   4.172 -0.0165  0.9578 -1.0307
 8616WAT     H235185   5.503   2.332   4.142 -0.1973  0.8859 -0.1879
 8616WAT    EPW35186   5.578   2.340   4.124 -0.2104  0.4028 -0.4607
 8617WAT      O35187   3.010   1.090   2.157 -0.0794  0.1861  0.2078
 8617WAT     H135188   2.982   1.162   2.196  0.7508  0.7235 -0.1634
 8617WAT     H235189   3.068   1.057   2.213  1.0101  0.8833 -0.4731
 8617WAT    EPW35190   3.015   1.096   2.171  0.2042  0.3685  0.0524
 8618WAT      O35191   6.324   3.631   3.367  0.2890 -0.3167  0.2704
 8618WAT     H135192   6.293   3.623   3.285  1.3595  0.7880 -0.2860
 8618WAT     H235193   6.393   3.683   3.357  1.7146 -1.8528  1.5965
 8618WAT    EPW35194   6.330   3.638   3.353  0.6577 -0.3804  0.3841
 8619WAT      O35195   0.265   3.215   0.561 -0.2963  0.6936  0.3557
 8619WAT     H135196   0.255   3.132   0.585 -1.5790  1.2542  1.9873
 8619WAT     H235197   0.247   3.259   0.634 -0.3230  2.4336 -0.6558
 8619WAT    EPW35198   0.261   3.209   0.576 -0.4897  1.0335  0.4473
 8620WAT      O35199   2.524   6.844   1.619 -0.4018 -0.2113  0.3649
 8620WAT     H135200   2.553   6.780   1.670  0.0087 -0.4961 -0.2095
 8620WAT     H235201   2.503   6.803   1.545  0.6656  0.4151 -0.3172
 8620WAT    EPW35202   2.525   6.828   1.616 -0.1835 -0.1609  0.1793
 8621WAT      O35203   5.043   0.848   3.285  0.0701 -0.6646 -0.2958
 8621WAT     H135204   5.075   0.929   3.294  2.2135 -1.4487 -0.5258
 8621WAT     H235205   4.981   0.845   3.347  0.4743  0.8899  0.2476
 8621WAT    EPW35206   5.038   0.859   3.296  0.4464 -0.5508 -0.2495
 8622WAT      O35207   7.184   0.866   3.835  0.3591  0.1640 -0.0877
 8622WAT     H135208   7.108   0.848   3.797  0.4947 -0.9543  0.1402
 8622WAT     H235209   7.224   0.918   3.777 -0.4896  0.6186 -0.2864
 8622WAT    EPW35210   7.179   0.871   3.821  0.2538  0.0659 -0.0834
 8623WAT      O35211   3.970   5.975   3.818  0.3730  0.2335  0.6380
 8623WAT     H135212   3.987   6.042   3.872  1.1822 -0.2976  1.0758
 8623WAT     H235213   4.023   5.912   3.847  2.8766  0.7030 -2.3862
 8623WAT    EPW35214   3.980   5.976   3.830  0.8624  0.2244  0.2559
 8624WAT      O35215   2.496   3.303   4.643 -0.1269 -0.5714 -0.4464
 8624WAT     H135216   2.480   3.267   4.565 -1.3104 -0.3092 -0.3501
 8624WAT     H235217   2.490   3.389   4.627 -1.2528 -0.5308  0.0817
 8624WAT    EPW35218   2.493   3.311   4.629 -0.4681 -0.5267 -0.3542
 8625WAT      O35219   2.515   0.609   5.983 -0.2188  0.0847  0.6408
 8625WAT     H135220   2.531   0.630   6.067  0.5891  1.6582  0.1355
 8625WAT     H235221   2.593   0.585   5.952 -0.2360  0.7996  0.0136
 8625WAT    EPW35222   2.529   0.609   5.991 -0.1020  0.4227  0.4735
 8626WAT      O35223   1.868   6.658   4.226  0.5821  0.3346 -0.1052
 8626WAT     H135224   1.819   6.586   4.218  0.8149 -0.0593  1.6323
 8626WAT     H235225   1.950   6.628   4.225  0.7527  0.7746 -0.9139
 8626WAT    EPW35226   1.873   6.643   4.224  0.6417  0.3414  0.0320
 8627WAT      O35227   1.311   5.259   7.296  0.4493  0.2639 -0.1833
 8627WAT     H135228   1.260   5.207   7.344 -1.0718 -0.8799 -2.7868
 8627WAT     H235229   1.392   5.232   7.316 -0.1456 -0.7745  1.0080
 8627WAT    EPW35230   1.315   5.247   7.306  0.1367 -0.0585 -0.3919
 8628WAT      O35231   2.309   4.697   5.025  0.3046 -0.5727 -0.0796
 8628WAT     H135232   2.365   4.756   4.993  0.1511 -0.5385 -0.2885
 8628WAT     H235233   2.345   4.674   5.101 -2.0270  3.6236  2.7470
 8628WAT    EPW35234   2.323   4.702   5.031 -0.0625  0.0523  0.3071
 8629WAT      O35235   4.471   7.150   5.086 -0.1276 -0.7587  0.6027
 8629WAT     H135236   4.534   7.208   5.068 -0.3088 -0.5031  0.7986
 8629WAT     H235237   4.429   7.141   5.010 -0.4238 -0.2426  0.7003
 8629WAT    EPW35238   4.474   7.157   5.072 -0.1981 -0.6447  0.6460
 8630WAT      O35239   7.311   0.233   2.414  0.0221  0.0087 -0.5539
 8630WAT     H135240   7.240   0.186   2.397  0.1977 -1.1756  1.6918
 8630WAT     H235241   7.281   0.316   2.413 -0.5992 -0.1634 -3.0320
 8630WAT    EPW35242   7.296   0.239   2.411 -0.0438 -0.1917 -0.5882
 8631WAT      O35243   4.633   0.022   3.814 -0.6160 -0.0086 -0.2584
 8631WAT     H135244   4.584  -0.050   3.810 -0.1196 -0.4725  1.2245
 8631WAT     H235245   4.578   0.086   3.795 -2.1080 -0.3998  2.3554
 8631WAT    EPW35246   4.618   0.021   3.810 -0.7631 -0.1349  0.3467
 8632WAT      O35247   0.733   3.360   6.916  0.0298  0.6047 -0.4175
 8632WAT     H135248   0.657   3.381   6.953 -0.3396 -0.5226 -0.4882
 8632WAT     H235249   0.760   3.434   6.878 -1.1757  0.9388 -0.6394
 8632WAT    EPW35250   0.726   3.374   6.916 -0.2028  0.4876 -0.4607
 8633WAT      O35251   2.407   1.862   5.991  0.0800  0.0242  0.3795
 8633WAT     H135252   2.445   1.819   6.057  0.2133  1.4782  1.2902
 8633WAT     H235253   2.349   1.914   6.030 -0.7657 -0.0115 -0.7673
 8633WAT    EPW35254   2.404   1.864   6.006 -0.0252  0.2337  0.3446
 8634WAT      O35255   6.995   3.807   4.116 -0.0248 -0.4521 -0.1955
 8634WAT     H135256   7.063   3.856   4.093  1.0430 -2.3819 -1.4308
 8634WAT     H235257   6.926   3.852   4.086  0.8897  0.3321 -1.1966
 8634WAT    EPW35258   6.995   3.821   4.109  0.2680 -0.6213 -0.5259
 8635WAT      O35259   3.422   1.436   4.139  0.3366  0.2960 -0.4838
 8635WAT     H135260   3.468   1.480   4.080  0.2421  0.1503 -0.6654
 8635WAT     H235261   3.450   1.354   4.130  1.1739  0.4538  0.4766
 8635WAT    EPW35262   3.433   1.431   4.129  0.4463  0.2978 -0.3688
 8636WAT      O35263   2.247   2.275   0.663 -0.0236 -0.0898 -0.1234
 8636WAT     H135264   2.304   2.260   0.599 -0.2732  0.7514 -0.5484
 8636WAT     H235265   2.297   2.304   0.729  0.1022  0.0724 -0.2913
 8636WAT    EPW35266   2.263   2.277   0.663 -0.0419  0.0584 -0.2110
 8637WAT      O35267   6.613   4.330   6.234  0.5410 -0.2622  0.6301
 8637WAT     H135268   6.682   4.374   6.264  0.3763 -0.1592  0.8597
 8637WAT     H235269   6.604   4.264   6.290  1.4496 -1.2423 -0.3112
 8637WAT    EPW35270   6.622   4.327   6.246  0.6509 -0.3917  0.5250
 8638WAT      O35271   6.828   6.275   1.863  0.5596 -0.5849  0.8380
 8638WAT     H135272   6.815   6.360   1.853 -0.2724 -0.8433 -0.5369
 8638WAT     H235273   6.908   6.262   1.831  0.4231 -0.4126  0.4171
 8638WAT    EPW35274   6.838   6.285   1.857  0.4165 -0.5976  0.5727
 8639WAT      O35275   6.676   0.794   0.966 -0.1666  0.0118 -0.3981
 8639WAT     H135276   6.654   0.837   0.894  1.0774  0.3714 -0.5925
 8639WAT     H235277   6.606   0.745   0.983 -0.1369 -0.8407 -2.4254
 8639WAT    EPW35278   6.662   0.793   0.958  0.0216 -0.0610 -0.7263
 8640WAT      O35279   1.913   0.113   1.073 -0.1743  0.1737 -0.7234
 8640WAT     H135280   1.896   0.096   1.157  0.9953  1.5226 -0.1628
 8640WAT     H235281   1.853   0.173   1.052 -2.8843 -2.7351 -2.0458
 8640WAT    EPW35282   1.902   0.119   1.083 -0.4019 -0.0567 -0.8360
 8641WAT      O35283   1.486   1.255   6.390  0.0356  0.0417  0.6972
 8641WAT     H135284   1.429   1.311   6.354 -0.7005  2.0656  4.5122
 8641WAT     H235285   1.449   1.177   6.377 -1.1994  0.8294 -0.9100
 8641WAT    EPW35286   1.472   1.252   6.383 -0.2556  0.4570  1.0233
 8642WAT      O35287   0.170   6.412   2.053 -0.0089  0.0881  0.2479
 8642WAT     H135288   0.118   6.346   2.030  0.7049 -0.5597  0.4464
 8642WAT     H235289   0.127   6.451   2.118 -1.7861  1.5856 -1.6725
 8642WAT    EPW35290   0.156   6.408   2.059 -0.1660  0.2136 -0.0065
 8643WAT      O35291   3.876   2.384   7.397  0.1585  0.3574 -0.2786
 8643WAT     H135292   3.864   2.460   7.437  0.6474  0.4949 -0.3774
 8643WAT     H235293   3.897   2.329   7.461 -0.5249  0.2222 -0.1649
 8643WAT    EPW35294   3.877   2.387   7.412  0.1297  0.3577 -0.2764
 8644WAT      O35295   2.752   0.532   5.877  0.0745 -0.0239 -0.0878
 8644WAT     H135296   2.807   0.573   5.824  0.2155  0.7021  0.5936
 8644WAT     H235297   2.804   0.489   5.932 -0.0430 -2.4595 -1.7003
 8644WAT    EPW35298   2.768   0.532   5.877  0.0780 -0.2764 -0.2253
 8645WAT      O35299   1.002   5.966   5.216 -0.5511 -0.2862 -0.0267
 8645WAT     H135300   0.926   5.991   5.249  0.0442  1.2089  0.3221
 8645WAT     H235301   1.057   6.029   5.242  0.4305 -0.3450 -1.7931
 8645WAT    EPW35302   0.999   5.979   5.225 -0.3181 -0.0741 -0.2361
 8646WAT      O35303   2.154   3.739   3.780  0.5900  0.1281 -0.4769
 8646WAT     H135304   2.207   3.727   3.712  0.8964 -1.5792  0.0129
 8646WAT     H235305   2.201   3.789   3.834  0.3335  1.5117 -1.4807
 8646WAT    EPW35306   2.169   3.745   3.778  0.5974  0.0803 -0.5529
 8647WAT      O35307   3.853   5.663   2.282  0.0279  0.3888  0.4704
 8647WAT     H135308   3.886   5.601   2.334 -0.7730  0.1467  0.7054
 8647WAT     H235309   3.877   5.637   2.202  1.2666  0.7635  0.6853
 8647WAT    EPW35310   3.862   5.650   2.278  0.0925  0.4084  0.5368
 8648WAT      O35311   1.597   0.488   7.318 -0.3193 -0.5258 -0.4272
 8648WAT     H135312   1.528   0.500   7.266 -0.7952 -1.0608  0.0653
 8648WAT     H235313   1.562   0.462   7.393  0.4743 -1.7431 -0.4524
 8648WAT    EPW35314   1.582   0.486   7.321 -0.2724 -0.7847 -0.3582
 8649WAT      O35315   1.754   3.507   7.036  0.0545 -0.6074 -0.6003
 8649WAT     H135316   1.740   3.423   7.016  1.1378 -0.4686 -2.0280
 8649WAT     H235317   1.808   3.503   7.104  0.1118 -1.0591 -0.6704
 8649WAT    EPW35318   1.760   3.494   7.043  0.2230 -0.6536 -0.8216
 8650WAT      O35319   2.639   0.693   1.242 -0.0999  0.0355 -0.0556
 8650WAT     H135320   2.572   0.673   1.190  0.4628 -2.7001  0.1203
 8650WAT     H235321   2.601   0.718   1.317 -0.9027  0.4009 -0.5812
 8650WAT    EPW35322   2.624   0.694   1.246 -0.1353 -0.3146 -0.1072
 8651WAT      O35323   2.763   3.060   0.980  0.3952 -0.3606 -0.0017
 8651WAT     H135324   2.712   3.056   0.910 -0.1600 -2.4144  0.4802
 8651WAT     H235325   2.819   2.994   0.970  0.6041 -0.4196  1.2805
 8651WAT    EPW35326   2.764   3.050   0.968  0.3440 -0.6727  0.2589
 8652WAT      O35327   4.277   4.120   0.624 -0.1218  0.3445  0.0102
 8652WAT     H135328   4.357   4.086   0.614 -0.8796 -0.9965 -2.2554
 8652WAT     H235329   4.225   4.050   0.622 -1.6922  1.3379 -4.0295
 8652WAT    EPW35330   4.281   4.104   0.622 -0.4657  0.2931 -0.9212
 8653WAT      O35331   1.667   6.847   1.098  0.4590 -0.1873 -0.0565
 8653WAT     H135332   1.593   6.814   1.066 -0.7404  1.8659  0.4121
 8653WAT     H235333   1.712   6.871   1.028 -0.0094 -0.0899 -0.3272
 8653WAT    EPW35334   1.663   6.846   1.083  0.2127  0.1304 -0.0272
 8654WAT      O35335   1.741   0.720   6.926  0.1441  0.5945  0.1429
 8654WAT     H135336   1.656   0.705   6.917 -0.0178 -0.8321  2.8148
 8654WAT     H235337   1.769   0.651   6.972  2.8535  0.8131 -0.9847
 8654WAT    EPW35338   1.733   0.707   6.932  0.5204  0.4161  0.3710
 8655WAT      O35339   4.119   4.880   0.778 -0.4737  0.5693 -0.2244
 8655WAT     H135340   4.122   4.837   0.702 -1.5320 -1.0248  0.5729
 8655WAT     H235341   4.083   4.957   0.758  0.9165  0.9143 -1.6008
 8655WAT    EPW35342   4.114   4.885   0.764 -0.4247  0.3848 -0.3099
 8656WAT      O35343   0.416   3.970   1.178 -0.4721  0.2317 -0.1907
 8656WAT     H135344   0.473   4.033   1.158  0.2761  1.0178  3.5265
 8656WAT     H235345   0.359   4.010   1.231 -2.2921 -1.3924 -0.8026
 8656WAT    EPW35346   0.416   3.985   1.183 -0.6304  0.1079  0.2680
 8657WAT      O35347   2.838   6.834   3.642  0.5972  0.3497 -0.2165
 8657WAT     H135348   2.903   6.782   3.667  1.0963  0.7671 -0.6188
 8657WAT     H235349   2.789   6.842   3.714  2.3744  2.1120  0.9036
 8657WAT    EPW35350   2.840   6.828   3.656  0.9334  0.6717 -0.1105
 8658WAT      O35351   0.613   6.091   1.364  0.0793 -1.0554  0.2369
 8658WAT     H135352   0.695   6.063   1.371  0.5720  0.4610  0.9345
 8658WAT     H235353   0.611   6.163   1.414 -0.9806  0.4024 -1.7769
 8658WAT    EPW35354   0.625   6.097   1.373 -0.0045 -0.6160  0.0424
 8659WAT      O35355   5.948   5.543   3.693 -0.4588 -0.6182 -0.0533
 8659WAT     H135356   5.871   5.561   3.730 -0.0996  2.7327 -0.6598
 8659WAT     H235357   5.934   5.558   3.608  1.0268  0.9305 -0.0651
 8659WAT    EPW35358   5.934   5.548   3.686 -0.1863  0.1056 -0.1446
 8660WAT      O35359   6.189   2.024   2.065 -0.0382 -0.2674 -0.2468
 8660WAT     H135360   6.207   2.097   2.020 -1.9893  0.0165 -0.6675
 8660WAT     H235361   6.230   1.961   2.019  0.1890  0.3378 -0.8973
 8660WAT    EPW35362   6.198   2.025   2.051 -0.2928 -0.1360 -0.4050
 8661WAT      O35363   2.589   4.108   3.587  0.3155  0.0105 -0.0820
 8661WAT     H135364   2.674   4.106   3.609  0.8988 -1.3487 -2.1592
 8661WAT     H235365   2.591   4.128   3.502 -1.4377 -0.2893 -0.2153
 8661WAT    EPW35366   2.602   4.111   3.578  0.1427 -0.2346 -0.4085
 8662WAT      O35367   4.567   2.090   1.137 -0.0706 -0.1979 -0.1960
 8662WAT     H135368   4.515   2.046   1.082 -0.5764 -0.5409  0.5339
 8662WAT     H235369   4.646   2.079   1.102 -0.1095 -2.1025  0.1747
 8662WAT    EPW35370   4.571   2.082   1.124 -0.1510 -0.5299 -0.0334
 8663WAT      O35371   0.754   3.943   1.435  0.1336  0.8294  0.5395
 8663WAT     H135372   0.811   3.898   1.483 -0.5358 -0.7916 -0.1094
 8663WAT     H235373   0.804   3.997   1.389  1.2418 -0.8730 -0.3663
 8663WAT    EPW35374   0.769   3.944   1.435  0.1984  0.3385  0.3099
 8664WAT      O35375   5.111   6.868   5.495  0.8634 -0.2222  0.3762
 8664WAT     H135376   5.140   6.803   5.444 -0.7561 -0.5214 -0.2282
 8664WAT     H235377   5.026   6.853   5.500  0.3814  1.9846  0.0340
 8664WAT    EPW35378   5.103   6.856   5.488  0.5530  0.0596  0.2364
 8665WAT      O35379   0.532   5.416   5.380 -0.0755 -0.2836  0.0923
 8665WAT     H135380   0.462   5.428   5.430 -1.4254 -0.5642 -1.6246
 8665WAT     H235381   0.579   5.488   5.393  0.0522 -0.6969  2.3287
 8665WAT    EPW35382   0.529   5.428   5.389 -0.2561 -0.3861  0.1690
 8666WAT      O35383   4.605   6.480   3.791  0.5619  0.3192 -0.2112
 8666WAT     H135384   4.530   6.513   3.762  0.8992  1.4041  0.1015
 8666WAT     H235385   4.626   6.532   3.858  0.7089 -1.0405  0.8420
 8666WAT    EPW35386   4.597   6.493   3.796  0.6335  0.2786 -0.0095
 8667WAT      O35387   5.550   2.700   0.704 -0.1383 -0.1169 -0.3036
 8667WAT     H135388   5.615   2.737   0.659 -0.4487  0.2948 -0.4166
 8667WAT     H235389   5.589   2.634   0.746  0.2473 -0.2132 -0.8041
 8667WAT    EPW35390   5.566   2.696   0.704 -0.1272 -0.0703 -0.3942
 8668WAT      O35391   4.176   7.018   5.041  0.5822  0.5357  0.2127
 8668WAT     H135392   4.140   7.037   5.118  4.2026  1.0038  1.9800
 8668WAT     H235393   4.248   6.974   5.062  0.5869 -1.3506 -3.0851
 8668WAT    EPW35394   4.181   7.015   5.055  1.1177  0.3262 -0.0134
 8669WAT      O35395   5.698   1.157   1.031  0.5260  0.0223 -0.8702
 8669WAT     H135396   5.656   1.176   1.104  2.3640 -0.4256  0.3661
 8669WAT     H235397   5.690   1.229   0.982  0.5796  0.9116  0.4027
 8669WAT    EPW35398   5.691   1.170   1.034  0.8054  0.0875 -0.4996
 8670WAT      O35399   4.649   2.746   4.542 -0.1261  0.1548 -0.4932
 8670WAT     H135400   4.569   2.767   4.569 -0.6427 -0.1859 -1.6786
 8670WAT     H235401   4.635   2.716   4.461  0.9955 -1.3675 -0.1705
 8670WAT    EPW35402   4.635   2.745   4.534 -0.0368 -0.1204 -0.6206
 8671WAT      O35403   3.334   0.680   4.786 -0.6267  0.4419  0.3994
 8671WAT     H135404   3.361   0.640   4.713 -1.6620  1.9717 -0.8765
 8671WAT     H235405   3.290   0.749   4.757  1.4439  2.8574  2.4476
 8671WAT    EPW35406   3.331   0.684   4.771 -0.4737  1.0247  0.5135
 8672WAT      O35407   0.859   6.646   4.859  0.6727  0.4558 -0.5733
 8672WAT     H135408   0.782   6.687   4.846  0.1524 -0.5103 -0.6111
 8672WAT     H235409   0.840   6.562   4.843  1.5460  0.0947  0.2223
 8672WAT    EPW35410   0.845   6.640   4.855  0.7249  0.2598 -0.4613
 8673WAT      O35411   4.260   0.996   4.633 -0.2273 -0.2360  0.1147
 8673WAT     H135412   4.207   1.024   4.570  1.4928  0.2219 -1.2237
 8673WAT     H235413   4.218   1.017   4.706 -1.5566  0.7108 -0.8684
 8673WAT    EPW35414   4.246   1.003   4.635 -0.1696 -0.0285 -0.2283
 8674WAT      O35415   2.419   2.613   4.271  0.1417  0.3796  0.8337
 8674WAT     H135416   2.345   2.606   4.224  1.0249 -0.3981 -0.4764
 8674WAT     H235417   2.434   2.532   4.299 -0.0098  0.7145  1.9606
 8674WAT    EPW35418   2.410   2.600   4.268  0.2498  0.3142  0.8066
 8675WAT      O35419   5.039   5.161   1.872 -0.1988  0.2560 -0.3662
 8675WAT     H135420   5.031   5.075   1.876  0.1762  0.1920 -0.8708
 8675WAT     H235421   4.957   5.190   1.880 -0.2419 -0.0990  0.7164
 8675WAT    EPW35422   5.026   5.153   1.874 -0.1498  0.1941 -0.2808
 8676WAT      O35423   2.404   0.031   4.908  0.1288  0.1289 -0.4833
 8676WAT     H135424   2.436  -0.003   4.835  0.4477  0.4968 -0.5145
 8676WAT     H235425   2.368   0.106   4.882 -1.2047 -0.4997 -0.5407
 8676WAT    EPW35426   2.403   0.037   4.894 -0.0211  0.0904 -0.4964
 8677WAT      O35427   6.193   3.867   5.940  0.4510 -0.2732  0.2405
 8677WAT     H135428   6.253   3.928   5.921  1.3977 -1.8256 -2.2149
 8677WAT     H235429   6.222   3.833   6.015  1.0768  0.8346  0.5270
 8677WAT    EPW35430   6.206   3.871   5.948  0.6833 -0.3389 -0.0799
 8678WAT      O35431   2.297   5.443   1.104  0.0157 -0.3150  0.4806
 8678WAT     H135432   2.276   5.436   1.019 -1.7339 -2.9235  1.0106
 8678WAT     H235433   2.372   5.488   1.103 -2.3294  4.3536 -2.0562
 8678WAT    EPW35434   2.305   5.449   1.091 -0.5892 -0.0107  0.1841
 8679WAT      O35435   3.367   0.052   0.693 -0.1122 -0.0930 -0.4325
 8679WAT     H135436   3.374   0.111   0.629  0.1690  0.5997  0.2147
 8679WAT     H235437   3.282   0.051   0.711 -0.2458 -0.5701 -1.0639
 8679WAT    EPW35438   3.356   0.060   0.686 -0.0904 -0.0611 -0.4302
 8680WAT      O35439   4.202   2.040   0.192 -0.2562  0.0939 -0.1742
 8680WAT     H135440   4.260   2.031   0.127  0.1284  1.3398 -0.0181
 8680WAT     H235441   4.166   1.961   0.198  1.7571 -0.8719  0.0331
 8680WAT    EPW35442   4.205   2.027   0.183  0.0980  0.1353 -0.1205
 8681WAT      O35443   5.836   2.121   2.788  0.7068  0.0556  0.4171
 8681WAT     H135444   5.831   2.154   2.707  0.8669 -0.0660  0.3575
 8681WAT     H235445   5.917   2.142   2.814  0.9479 -0.6208  0.2335
 8681WAT    EPW35446   5.847   2.129   2.780  0.7660 -0.0623  0.3812
 8682WAT      O35447   1.325   3.591   3.465 -0.5143  0.3990  0.8065
 8682WAT     H135448   1.388   3.545   3.425 -1.0677  0.0460  0.3159
 8682WAT     H235449   1.340   3.673   3.439 -1.4437  0.0593 -0.9668
 8682WAT    EPW35450   1.337   3.596   3.455 -0.7334  0.2967  0.4721
 8683WAT      O35451   3.898   1.237   3.895 -0.0781 -0.0752  0.4591
 8683WAT     H135452   3.891   1.159   3.857 -2.2842 -0.9207  2.3363
 8683WAT     H235453   3.816   1.255   3.919  0.8703  1.1600  3.2115
 8683WAT    EPW35454   3.885   1.228   3.893 -0.2639 -0.0176  1.1430
 8684WAT      O35455   5.539   6.346   1.100  0.0533  0.1889  0.0141
 8684WAT     H135456   5.560   6.295   1.033 -0.4757  0.3616 -0.2888
 8684WAT     H235457   5.555   6.297   1.170  0.0813 -0.1878 -0.2559
 8684WAT    EPW35458   5.544   6.331   1.100 -0.0207  0.1587 -0.0705
 8685WAT      O35459   6.645   4.535   6.773  0.8604 -0.1877  0.2233
 8685WAT     H135460   6.569   4.574   6.792  1.6994  0.6412  2.2357
 8685WAT     H235461   6.641   4.459   6.815  1.2090 -0.0549  0.5044
 8685WAT    EPW35462   6.633   4.530   6.782  1.0358 -0.0457  0.5621
 8686WAT      O35463   0.123   1.511   5.817  0.3041 -0.1223 -0.3239
 8686WAT     H135464   0.193   1.537   5.772  1.6934 -1.2602  1.0706
 8686WAT     H235465   0.065   1.492   5.756  1.6021 -0.1995 -1.5701
 8686WAT    EPW35466   0.125   1.512   5.802  0.7010 -0.3018 -0.3020
 8687WAT      O35467   0.475   4.782   3.301  0.4023 -0.3222  0.7151
 8687WAT     H135468   0.464   4.862   3.268  0.5904 -1.2109 -1.6991
 8687WAT     H235469   0.399   4.743   3.284  0.0675 -0.5105  2.4735
 8687WAT    EPW35470   0.462   4.788   3.294  0.3806 -0.4813  0.6182
 8688WAT      O35471   3.919   0.278   2.800 -0.3409  0.5690  0.4012
 8688WAT     H135472   3.992   0.234   2.783 -1.4939 -1.4405  0.3072
 8688WAT     H235473   3.906   0.264   2.885 -0.5905  0.9547  0.4282
 8688WAT    EPW35474   3.928   0.269   2.810 -0.5481  0.3291  0.3913
 8689WAT      O35475   3.094   1.193   3.121  0.5004  0.0752  0.5768
 8689WAT     H135476   3.122   1.276   3.116  0.0844  0.2382  0.9046
 8689WAT     H235477   3.014   1.196   3.085  1.0605 -0.4801 -0.8128
 8689WAT    EPW35478   3.086   1.206   3.115  0.5217  0.0172  0.4199
 8690WAT      O35479   1.412   0.493   6.665  0.0339  0.3679 -0.3771
 8690WAT     H135480   1.442   0.502   6.746 -0.9276  1.9549 -0.1669
 8690WAT     H235481   1.346   0.549   6.660  0.5999  0.9653 -2.5303
 8690WAT    EPW35482   1.407   0.502   6.676 -0.0246  0.6906 -0.6641
 8691WAT      O35483   4.207   0.473   6.054  0.4678 -0.2343  0.0135
 8691WAT     H135484   4.226   0.543   6.101  0.5398  0.9232 -1.6650
 8691WAT     H235485   4.183   0.506   5.977 -1.7321 -1.9252 -0.1342
 8691WAT    EPW35486   4.206   0.488   6.050  0.1535 -0.3131 -0.2563
 8692WAT      O35487   2.010   6.502   3.679 -0.0006  0.3261  0.6636
 8692WAT     H135488   2.096   6.499   3.665  0.0722 -3.7461  0.7797
 8692WAT     H235489   2.003   6.496   3.766 -0.4336  0.4172  0.6393
 8692WAT    EPW35490   2.022   6.501   3.690 -0.0538 -0.2620  0.6771
 8693WAT      O35491   1.207   2.499   0.889  0.4543 -0.0307  0.0914
 8693WAT     H135492   1.250   2.438   0.935  1.0020 -0.1456 -0.5719
 8693WAT     H235493   1.138   2.455   0.857  0.6053 -0.1898 -0.0166
 8693WAT    EPW35494   1.203   2.483   0.891  0.5575 -0.0712 -0.0225
 8694WAT      O35495   7.324   1.373   0.652  0.0122  0.1002 -0.1766
 8694WAT     H135496   7.281   1.449   0.658 -0.0486 -0.0300  2.9748
 8694WAT     H235497   7.260   1.315   0.640 -0.4308  0.2351  1.2705
 8694WAT    EPW35498   7.308   1.376   0.651 -0.0622  0.1009  0.5027
 8695WAT      O35499   6.569   4.237   1.862 -0.3458 -0.2920  0.1095
 8695WAT     H135500   6.484   4.242   1.883 -0.1940 -1.7400  1.2304
 8695WAT     H235501   6.568   4.185   1.791 -0.3644 -0.7725  0.4567
 8695WAT    EPW35502   6.556   4.230   1.854 -0.3261 -0.5769  0.3264
 8696WAT      O35503   5.371   3.365   6.928  0.6014  0.2357  0.0898
 8696WAT     H135504   5.371   3.309   6.995  1.2003 -0.2180 -0.2714
 8696WAT     H235505   5.349   3.314   6.860  1.8358  0.2679 -0.3631
 8696WAT    EPW35506   5.368   3.349   6.928  0.8722  0.1734 -0.0305
 8697WAT      O35507   3.585   7.058   3.268 -0.8431  0.3192  0.1338
 8697WAT     H135508   3.597   7.036   3.352  0.4188 -0.9845 -0.3338
 8697WAT     H235509   3.498   7.058   3.259 -0.9898  0.2307  1.3737
 8697WAT    EPW35510   3.574   7.054   3.279 -0.6783  0.1135  0.2479
 8698WAT      O35511   3.830   2.324   1.198  0.2849 -0.3661  0.4523
 8698WAT     H135512   3.914   2.327   1.223  0.4075 -0.2768  0.0404
 8698WAT     H235513   3.835   2.313   1.112 -0.1080  1.4327  0.1668
 8698WAT    EPW35514   3.843   2.323   1.189  0.2450 -0.0872  0.3493
 8699WAT      O35515   3.551   2.521   3.456 -0.2382 -0.2703 -0.0662
 8699WAT     H135516   3.489   2.578   3.434 -0.7074 -1.5131 -2.2822
 8699WAT     H235517   3.616   2.571   3.485 -1.8839  1.1189  1.4273
 8699WAT    EPW35518   3.551   2.537   3.457 -0.5506 -0.2486 -0.1729
 8700WAT      O35519   0.799   1.844   0.851 -0.3167 -0.0653  1.0582
 8700WAT     H135520   0.746   1.778   0.828  0.1239  0.1678 -0.8226
 8700WAT     H235521   0.745   1.900   0.891 -1.4175 -0.0619 -0.3455
 8700WAT    EPW35522   0.783   1.842   0.853 -0.4142 -0.0304  0.5730
 8701WAT      O35523   2.704   3.941   6.480  0.4613 -0.4558  1.1641
 8701WAT     H135524   2.765   3.996   6.449  0.1406 -0.0287  1.2779
 8701WAT     H235525   2.644   3.995   6.514 -0.9932 -0.7762 -0.7502
 8701WAT    EPW35526   2.704   3.957   6.480  0.1991 -0.4401  0.8981
 8702WAT      O35527   4.123   3.553   0.929 -0.0994 -0.2404  0.5234
 8702WAT     H135528   4.102   3.632   0.959  2.6001  0.1312  1.7260
 8702WAT     H235529   4.111   3.501   0.997 -0.6201 -0.6444  0.1270
 8702WAT    EPW35530   4.118   3.557   0.943  0.2224 -0.2452  0.6425
 8703WAT      O35531   0.707   6.514   5.919  0.1857  0.5960 -0.0707
 8703WAT     H135532   0.657   6.474   5.860 -1.2405  0.8729  0.8851
 8703WAT     H235533   0.734   6.450   5.971  1.3830  0.3622 -0.9348
 8703WAT    EPW35534   0.704   6.499   5.918  0.1519  0.6024 -0.0571
 8704WAT      O35535   1.560   3.451   5.538 -0.2724 -0.7242  0.0849
 8704WAT     H135536   1.625   3.398   5.514  0.3862 -0.8839  2.0046
 8704WAT     H235537   1.583   3.528   5.502  0.7712 -0.8816  0.3677
 8704WAT    EPW35538   1.573   3.455   5.529 -0.0209 -0.7711  0.4102
 8705WAT      O35539   0.518   4.848   4.032 -0.2566 -0.2474  0.6318
 8705WAT     H135540   0.472   4.920   4.014  0.3227 -0.1533 -0.5729
 8705WAT     H235541   0.600   4.870   4.012 -0.0047 -1.0846  0.6979
 8705WAT    EPW35542   0.523   4.862   4.026 -0.1338 -0.3572  0.4636
 8706WAT      O35543   0.515   6.631   6.099  0.6603 -0.2393  0.2519
 8706WAT     H135544   0.574   6.600   6.042  1.0033 -0.5361  0.7603
 8706WAT     H235545   0.455   6.567   6.103  2.1476 -1.6408  2.4885
 8706WAT    EPW35546   0.515   6.617   6.091  0.9307 -0.4902  0.6574
 8707WAT      O35547   7.254   3.114   5.662  0.4620 -0.0477  0.0666
 8707WAT     H135548   7.223   3.165   5.726  0.6087 -0.8446  0.7887
 8707WAT     H235549   7.298   3.052   5.705  3.2196  1.0698 -0.8765
 8707WAT    EPW35550   7.256   3.113   5.678  0.8910 -0.0004  0.0339
 8708WAT      O35551   0.994   3.824   3.526 -0.2176 -0.1314  0.5610
 8708WAT     H135552   0.961   3.889   3.478  0.1470 -0.7537 -0.5544
 8708WAT     H235553   0.972   3.846   3.608 -1.4064  0.6140  0.0645
 8708WAT    EPW35554   0.986   3.837   3.531 -0.3394 -0.1132  0.3229
 8709WAT      O35555   3.364   1.597   5.518  0.1396  0.4815  0.8287
 8709WAT     H135556   3.328   1.546   5.578 -0.5689 -0.5854 -0.4385
 8709WAT     H235557   3.427   1.640   5.561  0.6760 -1.3790  1.9854
 8709WAT    EPW35558   3.368   1.596   5.533  0.1142  0.0491  0.8124
 8710WAT      O35559   5.544   5.082   3.673  0.4639 -0.7635  0.2673
 8710WAT     H135560   5.603   5.042   3.723 -1.7619 -1.0996  2.8587
 8710WAT     H235561   5.471   5.036   3.688 -1.4967  2.2879  0.8456
 8710WAT    EPW35562   5.542   5.069   3.682 -0.1545 -0.3624  0.7355
 8711WAT      O35563   0.946   4.640   1.554 -0.2968  0.2909 -0.0891
 8711WAT     H135564   0.923   4.692   1.488  1.4852  1.1816 -0.0701
 8711WAT     H235565   0.881   4.582   1.557 -1.2587  1.2007 -1.5410
 8711WAT    EPW35566   0.933   4.639   1.544 -0.1756  0.5569 -0.3008
 8712WAT      O35567   0.878   0.714   1.108 -0.5877 -0.6110  0.4087
 8712WAT     H135568   0.799   0.747   1.127 -0.8363 -1.6390  1.2893
 8712WAT     H235569   0.895   0.662   1.176  0.9283 -0.2981  0.2981
 8712WAT    EPW35570   0.869   0.711   1.121 -0.4005 -0.7166  0.5224
 8713WAT      O35571   3.196   3.658   0.969  0.2940  0.0626  0.6489
 8713WAT     H135572   3.235   3.615   0.903  1.5146  0.2692  1.2019
 8713WAT     H235573   3.201   3.601   1.035 -1.6972 -0.4916  0.4012
 8713WAT    EPW35574   3.203   3.643   0.969  0.1802  0.0113  0.6940
 8714WAT      O35575   0.528   1.752   7.017  0.1142 -0.0355 -0.4091
 8714WAT     H135576   0.602   1.771   6.975  0.0159 -0.4904 -0.7993
 8714WAT     H235577   0.543   1.777   7.099  0.2959  0.9148 -0.7178
 8714WAT    EPW35578   0.541   1.759   7.023  0.1265  0.0377 -0.5124
 8715WAT      O35579   3.221   2.180   6.226 -0.3825  0.1013  0.1546
 8715WAT     H135580   3.213   2.208   6.144 -0.4277 -0.4680 -0.0396
 8715WAT     H235581   3.147   2.208   6.265 -0.9833 -0.7515 -0.3374
 8715WAT    EPW35582   3.209   2.188   6.220 -0.4779 -0.1088  0.0533
 8716WAT      O35583   2.729   6.770   1.933 -0.6189 -0.1092  0.3595
 8716WAT     H135584   2.720   6.852   1.905  0.7369 -0.3058 -0.7684
 8716WAT     H235585   2.743   6.778   2.019  2.2581  1.0960 -0.1349
 8716WAT    EPW35586   2.729   6.783   1.942  0.0064  0.0398  0.1199
 8717WAT      O35587   2.235   6.020   1.394  0.0693 -0.4111  0.3024
 8717WAT     H135588   2.307   6.034   1.347 -0.7190  0.2367 -0.7821
 8717WAT     H235589   2.236   6.084   1.453  0.4313 -0.4661  0.3555
 8717WAT    EPW35590   2.246   6.032   1.396  0.0063 -0.3235  0.1500
 8718WAT      O35591   1.018   3.896   2.487  0.4282 -0.3741 -0.4457
 8718WAT     H135592   1.050   3.819   2.464  0.2835  0.0275 -2.1682
 8718WAT     H235593   0.933   3.891   2.465 -0.2319 -0.6040  1.8594
 8718WAT    EPW35594   1.010   3.884   2.480  0.3093 -0.3487 -0.3596
 8719WAT      O35595   4.171   5.668   4.426  0.3978 -0.2818  0.2312
 8719WAT     H135596   4.100   5.673   4.477 -1.4314  0.2267 -2.1775
 8719WAT     H235597   4.223   5.731   4.457 -0.3926 -0.3039  1.7244
 8719WAT    EPW35598   4.168   5.678   4.438  0.0108 -0.2100  0.0960
 8720WAT      O35599   5.925   2.440   1.525 -0.2932  0.0441 -0.0969
 8720WAT     H135600   5.868   2.463   1.463  0.7843 -0.3308 -1.2827
 8720WAT     H235601   5.978   2.383   1.484 -0.0483 -0.8674  1.4155
 8720WAT    EPW35602   5.925   2.435   1.510 -0.0979 -0.1459 -0.0487
 8721WAT      O35603   7.115   7.000   3.425 -0.0671  0.2672  0.1983
 8721WAT     H135604   7.058   6.982   3.363 -0.9039  0.7159  0.8101
 8721WAT     H235605   7.114   6.930   3.476 -0.6698  0.5740  0.6292
 8721WAT    EPW35606   7.106   6.987   3.424 -0.2797  0.3788  0.3523
 8722WAT      O35607   0.312   3.167   1.967  0.0561  0.0526  0.2808
 8722WAT     H135608   0.248   3.217   1.936  0.1603 -0.7142 -1.2830
 8722WAT     H235609   0.302   3.171   2.053 -1.3896  0.8561  0.1027
 8722WAT    EPW35610   0.301   3.175   1.975 -0.1421  0.0580  0.0235
 8723WAT      O35611   0.098   3.053   2.559  0.4501 -0.2999 -0.0651
 8723WAT     H135612   0.134   3.021   2.486  1.9819  1.0359  0.0639
 8723WAT     H235613   0.157   3.037   2.621  0.2198  0.6756  0.4294
 8723WAT    EPW35614   0.112   3.046   2.557  0.6424  0.0415  0.0270
 8724WAT      O35615   3.273   1.338   2.585 -0.4048  0.2035 -0.0432
 8724WAT     H135616   3.338   1.373   2.539 -1.6122  2.0234 -0.4572
 8724WAT     H235617   3.257   1.398   2.646  0.3095 -1.5997  2.0331
 8724WAT    EPW35618   3.280   1.352   2.587 -0.4777  0.2060  0.2024
 8725WAT      O35619   6.227   6.929   6.803 -0.5250 -0.3537  0.6139
 8725WAT     H135620   6.228   6.842   6.812 -3.4350 -0.4014  1.3648
 8725WAT     H235621   6.173   6.943   6.736  0.0182  0.8752  0.4039
 8725WAT    EPW35622   6.219   6.918   6.794 -0.8746 -0.1792  0.6938
 8726WAT      O35623   2.994   2.856   6.268  0.4012 -0.1756 -0.0098
 8726WAT     H135624   2.977   2.813   6.342 -2.3648  3.1039  1.5206
 8726WAT     H235625   2.944   2.815   6.209 -2.0664  0.6426  1.3564
 8726WAT    EPW35626   2.984   2.843   6.270 -0.3719  0.4297  0.4181
 8727WAT      O35627   6.574   1.844   5.221  0.0799  0.1887  0.0614
 8727WAT     H135628   6.654   1.836   5.255  0.6743 -1.6692 -1.6158
 8727WAT     H235629   6.553   1.762   5.199 -2.2946  0.6343  0.4069
 8727WAT    EPW35630   6.582   1.831   5.223 -0.1831 -0.0199 -0.1353
 8728WAT      O35631   4.939   0.852   0.060  0.0521 -0.6488  0.0903
 8728WAT     H135632   5.018   0.860   0.024 -0.2006 -0.3701 -0.4134
 8728WAT     H235633   4.928   0.929   0.101 -0.2601 -0.3976 -0.4586
 8728WAT    EPW35634   4.949   0.865   0.061 -0.0314 -0.5705 -0.0652
 8729WAT      O35635   6.540   0.675   1.441 -0.0995 -0.0512 -0.4836
 8729WAT     H135636   6.491   0.743   1.466 -1.3968 -1.0846 -0.0579
 8729WAT     H235637   6.619   0.693   1.473 -0.4917  1.1013 -0.1230
 8729WAT    EPW35638   6.544   0.687   1.449 -0.3491 -0.0336 -0.3675
 8730WAT      O35639   5.367   1.039   0.915  0.3407  0.1893  0.1531
 8730WAT     H135640   5.370   1.121   0.885  0.9664  0.4225  0.8164
 8730WAT     H235641   5.310   1.043   0.980 -0.5653 -0.1854 -0.6003
 8730WAT    EPW35642   5.359   1.052   0.920  0.2993  0.1684  0.1398
 8731WAT      O35643   1.078   0.319   1.786  0.2078 -0.4327 -0.3393
 8731WAT     H135644   1.164   0.336   1.784  0.5969 -1.6963  1.9248
 8731WAT     H235645   1.071   0.255   1.844 -2.1977 -1.0981 -1.2332
 8731WAT    EPW35646   1.090   0.312   1.794 -0.0900 -0.7177 -0.1369
 8732WAT      O35647   2.828   4.631   1.429  0.1079  0.3425  0.6418
 8732WAT     H135648   2.753   4.588   1.429 -0.5100  1.3723  1.1290
 8732WAT     H235649   2.856   4.624   1.347 -1.5894  1.6894 -0.1168
 8732WAT    EPW35650   2.821   4.624   1.417 -0.2341  0.6936  0.6017
 8733WAT      O35651   6.136   2.722   7.153  0.0011 -0.2410  0.3121
 8733WAT     H135652   6.088   2.745   7.084  2.8022  2.3601 -1.0576
 8733WAT     H235653   6.113   2.780   7.215  0.0430 -0.2029  0.2925
 8733WAT    EPW35654   6.126   2.734   7.152  0.4211  0.1489  0.1069
 8734WAT      O35655   1.760   6.732   1.510  0.3539  0.1622  0.4828
 8734WAT     H135656   1.686   6.711   1.551  0.8740  0.3888  1.5747
 8734WAT     H235657   1.756   6.818   1.501  1.0523  0.3487  1.7381
 8734WAT    EPW35658   1.749   6.741   1.515  0.5339  0.2233  0.8296
 8735WAT      O35659   5.000   7.045   3.876 -0.5608  0.4123  0.4861
 8735WAT     H135660   5.061   7.081   3.926 -0.6928 -0.0171  0.9675
 8735WAT     H235661   4.966   7.112   3.832  0.0938  0.6866  0.3865
 8735WAT    EPW35662   5.004   7.060   3.877 -0.4836  0.3894  0.5425
 8736WAT      O35663   1.761   7.153   6.287 -0.8056  0.0517  0.1148
 8736WAT     H135664   1.796   7.230   6.304 -1.6361  0.3483  0.5501
 8736WAT     H235665   1.678   7.172   6.267 -1.4362 -0.8509  1.7295
 8736WAT    EPW35666   1.754   7.167   6.286 -1.0214 -0.0378  0.4177
 8737WAT      O35667   1.031   0.862   2.691  0.1052  0.0594 -0.4415
 8737WAT     H135668   0.979   0.847   2.760 -0.2217  0.2279 -0.6489
 8737WAT     H235669   1.056   0.945   2.703 -0.0786  0.1400 -0.6069
 8737WAT    EPW35670   1.027   0.872   2.703  0.0298  0.0962 -0.4966
 8738WAT      O35671   3.332   5.643   6.423  0.2149 -0.3057  0.0084
 8738WAT     H135672   3.252   5.662   6.395  0.2525  0.2401  0.2548
 8738WAT     H235673   3.321   5.572   6.472 -0.0827 -0.3530 -0.1263
 8738WAT    EPW35674   3.319   5.636   6.426  0.1765 -0.2321  0.0249
 8739WAT      O35675   0.304   3.039   2.755 -0.3132  0.1693  0.5691
 8739WAT     H135676   0.249   3.058   2.820  0.1455 -0.8049  1.2702
 8739WAT     H235677   0.327   3.117   2.724 -1.8045  0.6087  0.4857
 8739WAT    EPW35678   0.299   3.054   2.760 -0.4657  0.0903  0.6604
 8740WAT      O35679   5.554   2.401   3.466 -0.1777 -0.3527  0.4597
 8740WAT     H135680   5.561   2.486   3.448 -0.1462 -0.5707 -0.6011
 8740WAT     H235681   5.482   2.397   3.515  0.7772  0.4820  2.0203
 8740WAT    EPW35682   5.544   2.413   3.471 -0.0320 -0.2616  0.5335
 8741WAT      O35683   3.775   5.879   5.827  0.3380 -0.0491  0.3376
 8741WAT     H135684   3.791   5.963   5.842  0.2593  0.1533 -0.6473
 8741WAT     H235685   3.854   5.842   5.833  0.4531  0.1784  0.2416
 8741WAT    EPW35686   3.789   5.886   5.830  0.3434  0.0144  0.1779
 8742WAT      O35687   3.398   0.056   5.500 -0.0147  0.0846 -0.2474
 8742WAT     H135688   3.389  -0.018   5.455  0.6905 -0.6949  0.8207
 8742WAT     H235689   3.428   0.113   5.441 -0.1260 -0.6118 -0.9856
 8742WAT    EPW35690   3.401   0.054   5.485  0.0730 -0.1334 -0.1987
 8743WAT      O35691   1.172   1.037   2.312  0.4615 -0.5224  0.0909
 8743WAT     H135692   1.112   0.980   2.342 -0.9021  1.0425  0.5097
 8743WAT     H235693   1.236   1.032   2.371 -0.7582  0.1469  1.5550
 8743WAT    EPW35694   1.173   1.028   2.325  0.0799 -0.1924  0.3691
 8744WAT      O35695   1.545   1.607   5.249 -0.1780  0.0585 -0.1263
 8744WAT     H135696   1.563   1.655   5.178  0.5158  0.0552  0.0427
 8744WAT     H235697   1.458   1.607   5.251 -0.2937 -1.4495 -2.0148
 8744WAT    EPW35698   1.535   1.614   5.238 -0.0926 -0.1647 -0.3803
 8745WAT      O35699   1.108   2.675   3.705  0.2221 -0.6952  0.0376
 8745WAT     H135700   1.086   2.706   3.626  1.4394 -1.0216 -0.4450
 8745WAT     H235701   1.060   2.603   3.712  0.1673 -0.7086 -0.4361
 8745WAT    EPW35702   1.098   2.669   3.694  0.3938 -0.7454 -0.1037
 8746WAT      O35703   3.606   1.750   4.338  0.2636 -0.1551  0.4744
 8746WAT     H135704   3.665   1.688   4.325  0.9790  0.6460 -0.2856
 8746WAT     H235705   3.611   1.798   4.265 -2.8843 -1.2804 -0.6558
 8746WAT    EPW35706   3.615   1.748   4.325 -0.0957 -0.2030  0.1952
 8747WAT      O35707   6.808   3.040   3.635 -0.4980 -0.0567 -0.6503
 8747WAT     H135708   6.812   2.953   3.644  1.2788  0.1634  1.3872
 8747WAT     H235709   6.827   3.053   3.551 -1.2199 -1.6443 -1.0887
 8747WAT    EPW35710   6.811   3.029   3.624 -0.3421 -0.2587 -0.4140
 8748WAT      O35711   3.269   1.513   7.275 -0.7045 -0.0169  0.0222
 8748WAT     H135712   3.313   1.450   7.234 -0.1294 -0.2731  1.0013
 8748WAT     H235713   3.304   1.514   7.355 -2.9660 -0.7298  1.1006
 8748WAT    EPW35714   3.281   1.504   7.281 -0.9536 -0.1601  0.3261
 8749WAT      O35715   6.134   3.087   1.169 -0.2617 -0.6425 -0.9543
 8749WAT     H135716   6.116   3.084   1.084  1.0382  0.4555 -1.2983
 8749WAT     H235717   6.132   3.003   1.193 -1.2504 -0.9124 -1.9125
 8749WAT    EPW35718   6.131   3.074   1.160 -0.2157 -0.5202 -1.1466
 8750WAT      O35719   0.782   5.414   0.798  0.2017  0.5231  0.0764
 8750WAT     H135720   0.756   5.497   0.792  0.0468  0.4050 -1.3966
 8750WAT     H235721   0.797   5.403   0.883  1.7561  2.5254  0.1343
 8750WAT    EPW35722   0.780   5.424   0.809  0.4085  0.8014 -0.1327
 8751WAT      O35723   4.281   5.514   4.026 -0.1051 -0.0850  0.0776
 8751WAT     H135724   4.340   5.572   4.056  2.6331 -2.2310 -0.7031
 8751WAT     H235725   4.242   5.485   4.099  0.2483  0.9034  0.6922
 8751WAT    EPW35726   4.284   5.518   4.041  0.3516 -0.2560  0.0531
 8752WAT      O35727   2.385   7.102   5.779  0.0736  0.0424 -0.9062
 8752WAT     H135728   2.346   7.078   5.854 -0.5096  0.6299 -1.0146
 8752WAT     H235729   2.463   7.063   5.784  0.8582  1.6453  0.9432
 8752WAT    EPW35730   2.391   7.092   5.791  0.1034  0.3659 -0.6490
 8753WAT      O35731   4.043   6.905   6.282 -0.2650  0.2008 -0.3777
 8753WAT     H135732   4.065   6.874   6.360 -1.0336 -0.6540 -0.4887
 8753WAT     H235733   4.111   6.882   6.232 -1.0854 -1.9848 -0.6071
 8753WAT    EPW35734   4.056   6.897   6.286 -0.4997 -0.2483 -0.4280
 8754WAT      O35735   0.688   2.072   4.962  0.1924  0.2096 -0.0459
 8754WAT     H135736   0.651   2.060   5.040  0.6106  0.7918  0.2492
 8754WAT     H235737   0.728   1.996   4.946  1.8261  0.7196  1.2525
 8754WAT    EPW35738   0.689   2.059   4.971  0.4955  0.3709  0.1895
 8755WAT      O35739   4.375   1.224   1.090 -0.0263 -0.3614  0.4313
 8755WAT     H135740   4.348   1.291   1.138  0.6419 -0.6444  1.2310
 8755WAT     H235741   4.365   1.155   1.144 -1.6672 -1.0779 -0.7039
 8755WAT    EPW35742   4.369   1.223   1.105 -0.1700 -0.5090  0.3817
 8756WAT      O35743   1.514   0.805   4.604 -0.3635 -0.1801 -0.5948
 8756WAT     H135744   1.435   0.826   4.573  0.8778  0.5458 -3.5757
 8756WAT     H235745   1.528   0.725   4.574  0.4866  0.1335 -1.0597
 8756WAT    EPW35746   1.504   0.796   4.595 -0.0546 -0.0265 -1.1038
 8757WAT      O35747   1.405   1.408   6.618 -0.1600  0.4156 -0.5696
 8757WAT     H135748   1.455   1.480   6.610  1.3419 -0.2722  1.6691
 8757WAT     H235749   1.427   1.361   6.548  1.8789  0.4471 -0.0147
 8757WAT    EPW35750   1.416   1.412   6.606  0.3630  0.3186 -0.1570
 8758WAT      O35751   2.484   3.791   0.947 -0.2888  0.7794 -0.3496
 8758WAT     H135752   2.404   3.813   0.974 -1.5848 -3.4632  0.0700
 8758WAT     H235753   2.477   3.791   0.860 -0.7626  0.4812 -0.3157
 8758WAT    EPW35754   2.471   3.794   0.938 -0.5503  0.1086 -0.2826
 8759WAT      O35755   0.289   1.873   0.787  0.4648  0.2861  0.6227
 8759WAT     H135756   0.325   1.936   0.738 -0.6029  0.2559 -0.2648
 8759WAT     H235757   0.324   1.800   0.755  1.1896  0.3721  1.1939
 8759WAT    EPW35758   0.299   1.872   0.775  0.4141  0.2943  0.5760
 8760WAT      O35759   6.194   5.905   2.839  0.3531  0.2003  0.2443
 8760WAT     H135760   6.120   5.916   2.795  0.0119 -0.5880  0.6120
 8760WAT     H235761   6.246   5.865   2.781  0.1454 -0.1909  0.3311
 8760WAT    EPW35762   6.191   5.901   2.824  0.2720  0.0261  0.3114
 8761WAT      O35763   5.262   6.771   3.406 -0.0428  0.6279 -0.3993
 8761WAT     H135764   5.231   6.745   3.329 -1.7824  2.8087 -0.5310
 8761WAT     H235765   5.192   6.774   3.457  0.9821 -0.1799  1.1266
 8761WAT    EPW35766   5.247   6.768   3.402 -0.1484  0.8307 -0.1934
 8762WAT      O35767   0.853   2.466   1.807  0.5105  0.7218 -0.2532
 8762WAT     H135768   0.834   2.540   1.766 -0.7143  1.0023  0.7642
 8762WAT     H235769   0.877   2.491   1.886 -2.6813  0.0118  1.1082
 8762WAT    EPW35770   0.854   2.481   1.812 -0.1420  0.6584  0.0982
 8763WAT      O35771   3.764   5.248   0.288 -0.1338  0.1387 -0.1317
 8763WAT     H135772   3.822   5.201   0.244  0.2084  0.3147  0.1254
 8763WAT     H235773   3.744   5.314   0.234  0.7419  0.6952  0.2037
 8763WAT    EPW35774   3.770   5.251   0.274  0.0461  0.2469 -0.0442
 8764WAT      O35775   4.480   1.737   1.887 -0.3033 -0.7677 -0.1464
 8764WAT     H135776   4.495   1.657   1.854 -4.0096 -0.9117 -1.9684
 8764WAT     H235777   4.504   1.791   1.823 -0.5601 -0.5931 -0.0960
 8764WAT    EPW35778   4.486   1.733   1.873 -0.8887 -0.7632 -0.4081
 8765WAT      O35779   4.106   2.620   2.058 -0.2240 -0.0515 -0.0339
 8765WAT     H135780   4.128   2.548   2.101 -0.6624  0.7043  1.5363
 8765WAT     H235781   4.171   2.675   2.076  0.6569 -0.3169 -2.0839
 8765WAT    EPW35782   4.119   2.617   2.067 -0.1586  0.0210 -0.1048
 8766WAT      O35783   4.704   2.935   1.275  0.1897  0.3738 -0.4448
 8766WAT     H135784   4.693   2.999   1.218  0.0402  0.6890 -0.0695
 8766WAT     H235785   4.676   2.969   1.350 -0.7258 -0.4046 -0.4031
 8766WAT    EPW35786   4.698   2.949   1.278  0.0323  0.3054 -0.3832
 8767WAT      O35787   1.826   2.186   5.422 -0.3740  0.6731 -0.9785
 8767WAT     H135788   1.739   2.180   5.427 -0.4927  0.7530 -2.5654
 8767WAT     H235789   1.854   2.120   5.472 -1.3289  0.9836 -0.0058
 8767WAT    EPW35790   1.817   2.175   5.430 -0.5326  0.7307 -1.0692
 8768WAT      O35791   2.927   0.649   4.292 -0.6478 -0.0599 -1.0393
 8768WAT     H135792   2.845   0.640   4.320 -0.7488  3.5291  0.2540
 8768WAT     H235793   2.925   0.725   4.248  2.3465  1.2590  0.8574
 8768WAT    EPW35794   2.914   0.659   4.290 -0.2204  0.6651 -0.5681
 8769WAT      O35795   0.716   4.227   1.911 -0.3424  0.1667 -0.4635
 8769WAT     H135796   0.701   4.172   1.844  0.1357  1.0809 -1.3279
 8769WAT     H235797   0.786   4.272   1.886  1.6279 -1.3729  1.8763
 8769WAT    EPW35798   0.724   4.225   1.897  0.0193  0.0743 -0.2455
 8770WAT      O35799   1.922   4.228   4.628  0.4573 -0.5277 -0.3836
 8770WAT     H135800   1.920   4.303   4.673  0.2837 -0.6510 -0.1845
 8770WAT     H235801   1.854   4.234   4.575 -1.4938 -1.8502  1.7596
 8770WAT    EPW35802   1.912   4.240   4.627  0.1434 -0.7413 -0.0376
 8771WAT      O35803   3.733   0.725   5.681 -0.2741 -0.5819  0.7902
 8771WAT     H135804   3.734   0.686   5.759  0.7455  1.3822  1.8520
 8771WAT     H235805   3.707   0.806   5.699  1.4761  0.3759 -0.6342
 8771WAT    EPW35806   3.729   0.731   5.695  0.1350 -0.1502  0.7367
 8772WAT      O35807   6.675   3.147   5.286 -0.2649  0.1492  1.0246
 8772WAT     H135808   6.760   3.144   5.265 -0.3756  2.2132 -0.0226
 8772WAT     H235809   6.675   3.178   5.367  0.0082  0.0669  1.0569
 8772WAT    EPW35810   6.688   3.151   5.295 -0.2409  0.4419  0.8747
 8773WAT      O35811   3.756   0.660   2.099 -0.1594  0.0980  0.2200
 8773WAT     H135812   3.810   0.641   2.164  0.2960 -0.1732 -0.2313
 8773WAT     H235813   3.680   0.675   2.139 -0.4095 -2.1131  0.6678
 8773WAT    EPW35814   3.753   0.660   2.114 -0.1291 -0.2687  0.2195
 8774WAT      O35815   6.510   0.755   2.174  0.2570 -0.1357 -0.4064
 8774WAT     H135816   6.532   0.831   2.137 -1.5576  0.0857 -1.1319
 8774WAT     H235817   6.527   0.766   2.258  0.8410  0.7548 -0.6348
 8774WAT    EPW35818   6.516   0.768   2.181  0.0752  0.0285 -0.5473
 8775WAT      O35819   1.928   2.590   7.011  0.2272  0.5125  0.0130
 8775WAT     H135820   1.900   2.607   6.930 -0.9031  0.5233  0.3900
 8775WAT     H235821   1.903   2.660   7.057 -1.0437 -0.3916  0.7861
 8775WAT    EPW35822   1.920   2.603   7.006 -0.1275  0.3806  0.1829
 8776WAT      O35823   6.370   6.849   1.010  0.5348  0.2937  0.3466
 8776WAT     H135824   6.381   6.857   1.096  1.6775  0.9800  0.1495
 8776WAT     H235825   6.296   6.804   1.003 -0.7491  2.0808  1.6554
 8776WAT    EPW35826   6.361   6.843   1.022  0.5140  0.6591  0.5108
 8777WAT      O35827   3.683   1.532   3.608  0.0400 -0.3013  0.1241
 8777WAT     H135828   3.700   1.448   3.592 -0.5498 -0.1097 -1.6794
 8777WAT     H235829   3.696   1.571   3.531  1.3034  1.4612  1.1471
 8777WAT    EPW35830   3.688   1.525   3.594  0.1395 -0.0126  0.0088
 8778WAT      O35831   1.877   2.622   1.285  0.2329  0.1022  0.1827
 8778WAT     H135832   1.894   2.707   1.288  0.4758  0.0962 -0.6393
 8778WAT     H235833   1.903   2.592   1.363 -0.5859  0.8927  0.7747
 8778WAT    EPW35834   1.884   2.630   1.297  0.1478  0.2181  0.1488
 8779WAT      O35835   1.089   4.105   2.274  0.0138 -0.3062 -0.0757
 8779WAT     H135836   1.039   4.162   2.317 -1.7059 -0.2937 -1.9262
 8779WAT     H235837   1.097   4.038   2.330 -2.3048 -0.3914  0.2782
 8779WAT    EPW35838   1.083   4.103   2.288 -0.5827 -0.3169 -0.2968
 8780WAT      O35839   2.632   6.581   2.319  0.1676 -1.1183  0.4206
 8780WAT     H135840   2.590   6.585   2.395 -0.1615  1.5732  0.1831
 8780WAT     H235841   2.570   6.556   2.263  0.0117 -1.5056  0.7574
 8780WAT    EPW35842   2.616   6.578   2.322  0.0959 -0.7779  0.4353
 8781WAT      O35843   3.041   5.783   6.650  0.0564 -0.3757 -0.1071
 8781WAT     H135844   3.065   5.807   6.731 -0.6484 -0.8397  0.2471
 8781WAT     H235845   3.085   5.839   6.599  0.2174  0.1716  0.6094
 8781WAT    EPW35846   3.051   5.795   6.655 -0.0239 -0.3634  0.0510
 8782WAT      O35847   1.569   2.206   0.325 -0.2447  0.2008 -0.3815
 8782WAT     H135848   1.518   2.271   0.353 -1.3097 -0.6140 -0.3690
 8782WAT     H235849   1.603   2.237   0.251 -1.5197  0.4032 -0.9048
 8782WAT    EPW35850   1.567   2.220   0.318 -0.5904  0.1103 -0.4569
 8783WAT      O35851   5.179   5.694   6.278 -0.0252 -0.1975  0.0140
 8783WAT     H135852   5.196   5.769   6.320  0.6956  0.0644 -0.7230
 8783WAT     H235853   5.094   5.701   6.259  0.1417  0.6600 -0.4724
 8783WAT    EPW35854   5.169   5.706   6.282  0.1059 -0.0321 -0.1667
 8784WAT      O35855   1.770   1.964   5.260  0.0798 -0.3236  0.1678
 8784WAT     H135856   1.776   2.013   5.332 -2.5844  0.5564 -0.0983
 8784WAT     H235857   1.817   2.008   5.201 -0.9039  1.0282  0.3768
 8784WAT    EPW35858   1.778   1.978   5.262 -0.4590  0.0061  0.1594
 8785WAT      O35859   3.003   2.888   2.084 -0.1813 -0.2667 -0.1188
 8785WAT     H135860   3.072   2.934   2.058  0.7578 -0.4140  1.9044
 8785WAT     H235861   2.936   2.940   2.068  0.6674  1.0192  0.3468
 8785WAT    EPW35862   3.003   2.902   2.078  0.0828 -0.0985  0.2488
 8786WAT      O35863   0.399   4.304   6.398  0.5145 -0.0865  0.0364
 8786WAT     H135864   0.354   4.238   6.364  1.4115 -0.0110 -1.3384
 8786WAT     H235865   0.456   4.265   6.451  0.0069 -0.2911  0.4450
 8786WAT    EPW35866   0.401   4.289   6.401  0.5720 -0.1056 -0.1063
 8787WAT      O35867   3.777   0.627   3.295  0.0945  0.1830 -0.4548
 8787WAT     H135868   3.835   0.597   3.236 -0.4384  1.0330 -1.4235
 8787WAT     H235869   3.700   0.602   3.263 -0.1115 -1.2099  0.9847
 8787WAT    EPW35870   3.774   0.619   3.281 -0.0147  0.1028 -0.3853
 8788WAT      O35871   7.238   6.538   7.130 -0.3574 -0.0787  0.5328
 8788WAT     H135872   7.316   6.504   7.111 -0.5470 -0.5870  0.6486
 8788WAT     H235873   7.214   6.497   7.203 -0.2648  0.8458  1.0935
 8788WAT    EPW35874   7.246   6.527   7.138 -0.3717 -0.0172  0.6327
 8789WAT      O35875   1.792   3.241   6.882  0.4152 -0.3785  0.2054
 8789WAT     H135876   1.779   3.224   6.797 -0.8639 -2.1681  0.6977
 8789WAT     H235877   1.877   3.259   6.887  0.8055 -1.5774 -1.2820
 8789WAT    EPW35878   1.803   3.241   6.870  0.2839 -0.8199  0.0584
 8790WAT      O35879   0.769   3.516   2.560  0.2887  0.6322  0.6959
 8790WAT     H135880   0.780   3.430   2.560 -2.6967  0.1335 -1.1926
 8790WAT     H235881   0.685   3.527   2.579  0.7117  3.2179  1.5632
 8790WAT    EPW35882   0.759   3.505   2.563 -0.0898  0.9405  0.5450
 8791WAT      O35883   4.390   4.167   6.781  0.6722 -0.3247 -0.0392
 8791WAT     H135884   4.378   4.219   6.850 -1.9672 -0.4525 -0.2730
 8791WAT     H235885   4.453   4.113   6.806  1.0088  0.7493  1.5727
 8791WAT    EPW35886   4.397   4.167   6.795  0.3320 -0.1849  0.1644
 8792WAT      O35887   6.259   5.480   4.076 -0.5307 -0.5801 -0.2581
 8792WAT     H135888   6.316   5.445   4.132 -0.0575  0.2791 -0.1892
 8792WAT     H235889   6.186   5.435   4.091  0.4187 -2.5416 -1.2135
 8792WAT    EPW35890   6.256   5.468   4.087 -0.3206 -0.7430 -0.3890
 8793WAT      O35891   1.803   4.471   4.509  0.5498 -0.0783 -0.1511
 8793WAT     H135892   1.772   4.393   4.485 -0.6207  0.2382  0.2615
 8793WAT     H235893   1.731   4.521   4.513  0.5886 -0.0668  3.8904
 8793WAT    EPW35894   1.788   4.467   4.506  0.3826 -0.0298  0.5069
 8794WAT      O35895   0.445   0.375   2.941  0.1109 -0.9088 -0.1121
 8794WAT     H135896   0.428   0.429   2.875 -0.6737 -0.4223  0.4612
 8794WAT     H235897   0.522   0.339   2.920  0.6258  0.3870 -0.5488
 8794WAT    EPW35898   0.454   0.378   2.928  0.0710 -0.6455 -0.0919
 8795WAT      O35899   1.871   5.564   1.676 -0.5420 -0.0333 -0.6543
 8795WAT     H135900   1.862   5.632   1.729  1.4597 -0.0395 -0.2195
 8795WAT     H235901   1.839   5.497   1.722 -2.4110  0.5342 -1.0388
 8795WAT    EPW35902   1.865   5.564   1.691 -0.5224  0.0496 -0.6469
 8796WAT      O35903   3.159   1.508   4.040  0.1291 -0.4084 -0.5870
 8796WAT     H135904   3.224   1.479   4.090  0.0449 -0.1425 -0.3234
 8796WAT     H235905   3.101   1.443   4.041 -0.7690  0.3505  1.2600
 8796WAT    EPW35906   3.160   1.494   4.047 -0.0160 -0.2570 -0.2753
 8797WAT      O35907   5.714   7.199   1.336 -0.1892  0.2089 -0.1039
 8797WAT     H135908   5.756   7.140   1.385 -0.3181  1.3080  1.4049
 8797WAT     H235909   5.727   7.274   1.379 -2.7708  0.7747 -0.1653
 8797WAT    EPW35910   5.722   7.202   1.349 -0.5896  0.4548  0.1099
 8798WAT      O35911   6.024   1.001   0.057 -0.3063 -0.2368 -0.2918
 8798WAT     H135912   6.060   0.961   0.125  1.5368  0.2638 -0.9232
 8798WAT     H235913   5.943   0.969   0.055 -0.4263 -0.2334  2.1216
 8798WAT    EPW35914   6.017   0.990   0.067 -0.0517 -0.1623 -0.0286
 8799WAT      O35915   2.556   7.164   3.769 -0.0262  0.1594  0.0213
 8799WAT     H135916   2.515   7.111   3.713  0.4897  0.0540 -0.2589
 8799WAT     H235917   2.577   7.111   3.835 -1.5002  0.4786  0.7817
 8799WAT    EPW35918   2.553   7.148   3.770 -0.1677  0.1910  0.0922
 8800WAT      O35919   4.751   2.282   2.310  0.4804  0.0759 -0.0329
 8800WAT     H135920   4.813   2.240   2.355  0.0113 -0.5223  0.0773
 8800WAT     H235921   4.727   2.224   2.249 -0.6176 -0.0765  0.5078
 8800WAT    EPW35922   4.756   2.267   2.307  0.2489 -0.0350  0.0633
 8801WAT      O35923   1.927   4.309   6.184 -0.0948 -0.4363 -0.3858
 8801WAT     H135924   1.847   4.343   6.192 -0.2531 -0.2753 -2.0906
 8801WAT     H235925   1.928   4.244   6.242 -1.5540 -0.5594 -0.4612
 8801WAT    EPW35926   1.915   4.304   6.194 -0.3337 -0.4307 -0.6488
 8802WAT      O35927   5.610   3.441   5.583  0.6162 -0.2262  0.4253
 8802WAT     H135928   5.648   3.510   5.545  1.0693 -0.4202  0.5091
 8802WAT     H235929   5.675   3.382   5.585  0.9876  0.2036  2.6443
 8802WAT    EPW35930   5.625   3.442   5.577  0.7380 -0.1913  0.7654
 8803WAT      O35931   1.496   0.053   2.461 -0.2278  0.3207 -0.1382
 8803WAT     H135932   1.447   0.021   2.396 -1.4312  0.4484  0.6875
 8803WAT     H235933   1.576   0.057   2.425 -0.4487 -1.5084 -0.9715
 8803WAT    EPW35934   1.500   0.049   2.446 -0.4382  0.0694 -0.1393
 8804WAT      O35935   6.899   0.786   5.741 -0.1497 -0.3609 -0.4494
 8804WAT     H135936   6.899   0.873   5.735  1.5656 -0.0061  2.6817
 8804WAT     H235937   6.968   0.762   5.693  1.0117  0.3214  0.8134
 8804WAT    EPW35938   6.909   0.795   5.733  0.2752 -0.2077  0.1997
 8805WAT      O35939   2.285   5.358   7.179  0.5727  0.2067 -0.0627
 8805WAT     H135940   2.233   5.294   7.150  0.2348  0.8422 -0.9042
 8805WAT     H235941   2.242   5.388   7.249  1.3648 -1.3008  1.1058
 8805WAT    EPW35942   2.271   5.353   7.185  0.6398  0.0779 -0.0144
 8806WAT      O35943   3.418   0.187   6.693 -0.1352  0.4591  0.8191
 8806WAT     H135944   3.359   0.147   6.744 -0.4474 -0.4373 -0.1898
 8806WAT     H235945   3.448   0.252   6.743 -0.0875 -0.6498  2.2976
 8806WAT    EPW35946   3.413   0.191   6.708 -0.1743  0.1629  0.8885
 8807WAT      O35947   4.538   3.344   6.779 -0.4456  0.3151 -0.4478
 8807WAT     H135948   4.614   3.378   6.753  0.5973  0.1289  2.0753
 8807WAT     H235949   4.487   3.351   6.708  0.9832  3.1965 -1.3291
 8807WAT    EPW35950   4.541   3.350   6.765 -0.0805  0.7132 -0.2053
 8808WAT      O35951   3.484   5.039   2.466 -0.4641 -0.0866  0.1273
 8808WAT     H135952   3.570   5.034   2.481 -0.6165 -0.8343  0.8041
 8808WAT     H235953   3.469   4.975   2.409 -0.5648  0.0760 -0.0287
 8808WAT    EPW35954   3.495   5.029   2.460 -0.5015 -0.1730  0.2042
 8809WAT      O35955   5.912   1.423   6.951 -0.0403  0.3957  0.3386
 8809WAT     H135956   5.847   1.475   6.977 -0.5165 -0.4797  0.9650
 8809WAT     H235957   5.898   1.413   6.866 -1.1078 -0.2875  0.5800
 8809WAT    EPW35958   5.900   1.429   6.943 -0.2683  0.1654  0.4668
 8810WAT      O35959   2.093   3.202   4.072  0.1568 -0.0618  0.4299
 8810WAT     H135960   2.026   3.252   4.049  1.9188  3.2735  1.7866
 8810WAT     H235961   2.138   3.192   3.998  0.0821  0.9718  0.2258
 8810WAT    EPW35962   2.090   3.208   4.058  0.4060  0.5836  0.6001
 8811WAT      O35963   2.774   5.516   3.863  0.1286  0.5059  0.6637
 8811WAT     H135964   2.807   5.518   3.944  0.9833  0.5538  0.3315
 8811WAT     H235965   2.802   5.591   3.828  0.3517  0.1686  0.1059
 8811WAT    EPW35966   2.783   5.527   3.870  0.2878  0.4632  0.5322
 8812WAT      O35967   6.485   5.464   1.194  0.1752  0.0947  0.2434
 8812WAT     H135968   6.490   5.551   1.192  1.1779  0.0288 -1.0518
 8812WAT     H235969   6.558   5.441   1.236  0.3895 -0.1515 -0.2639
 8812WAT    EPW35970   6.496   5.474   1.200  0.3550  0.0486 -0.0229
 8813WAT      O35971   6.253   4.348   1.592  0.5294 -0.8955  0.2590
 8813WAT     H135972   6.201   4.408   1.556  0.2456 -1.8878 -1.0610
 8813WAT     H235973   6.264   4.290   1.528  2.7836 -1.0384  0.7083
 8813WAT    EPW35974   6.247   4.348   1.577  0.8204 -1.0632  0.1304
 8814WAT      O35975   7.277   6.442   5.477  0.1325 -0.4364  0.4160
 8814WAT     H135976   7.350   6.426   5.524  1.6943 -0.6301 -1.9226
 8814WAT     H235977   7.250   6.363   5.455  1.2283 -0.3192 -1.5401
 8814WAT    EPW35978   7.284   6.428   5.481  0.5251 -0.4477 -0.2184
 8815WAT      O35979   4.664   6.108   4.803  0.1273 -0.2199 -0.0544
 8815WAT     H135980   4.715   6.178   4.813  0.9431 -0.7077 -0.6061
 8815WAT     H235981   4.671   6.066   4.879 -0.2491  0.2221  0.2247
 8815WAT    EPW35982   4.673   6.112   4.815  0.1922 -0.2266 -0.0947
 8816WAT      O35983   1.863   6.298   3.564  0.0965 -0.3220  0.0434
 8816WAT     H135984   1.877   6.231   3.619 -0.5424 -0.3827  0.1375
 8816WAT     H235985   1.904   6.365   3.603 -1.1996 -0.1148  1.1324
 8816WAT    EPW35986   1.871   6.298   3.578 -0.1894 -0.3003  0.2181
 8817WAT      O35987   3.630   2.076   2.572  0.0772 -0.1687  0.1172
 8817WAT     H135988   3.660   2.113   2.645 -0.3188 -0.3385  0.3718
 8817WAT     H235989   3.546   2.060   2.590 -0.1890  0.3707 -0.6109
 8817WAT    EPW35990   3.622   2.079   2.585 -0.0206 -0.1141  0.0472
 8818WAT      O35991   0.268   5.817   6.905  0.3716 -0.2972 -1.1083
 8818WAT     H135992   0.225   5.816   6.829 -0.9556 -1.5391 -0.4040
 8818WAT     H235993   0.205   5.809   6.964  1.2387  1.9968  0.2501
 8818WAT    EPW35994   0.252   5.816   6.903  0.3036 -0.1418 -0.8036
 8819WAT      O35995   3.248   3.563   5.552  0.0544  0.1253  0.1170
 8819WAT     H135996   3.173   3.540   5.514 -0.1964 -0.9996  1.2172
 8819WAT     H235997   3.282   3.487   5.577  1.7977  0.5720 -0.7200
 8819WAT    EPW35998   3.242   3.549   5.550  0.2749  0.0251  0.1559
 8820WAT      O35999   0.550   2.078   1.839 -0.0769  0.2220  0.5633
 8820WAT     H136000   0.572   2.155   1.806 -1.6596  0.7818  0.7806
 8820WAT     H236001   0.569   2.022   1.775 -0.1918  0.9405 -0.1072
 8820WAT    EPW36002   0.556   2.081   1.825 -0.3277  0.4108  0.4964
 8821WAT      O36003   5.346   4.453   4.182  0.5553 -0.5933 -0.1283
 8821WAT     H136004   5.286   4.506   4.147  0.2265 -1.8192 -1.5083
 8821WAT     H236005   5.318   4.373   4.159  1.5506 -1.3207  1.0806
 8821WAT    EPW36006   5.333   4.449   4.173  0.6538 -0.8819 -0.1536
 8822WAT      O36007   6.349   4.564   2.503 -0.0103  0.3704  0.0440
 8822WAT     H136008   6.398   4.511   2.552  3.2615  1.8280 -1.3631
 8822WAT     H236009   6.340   4.635   2.553 -0.2990  0.2684  0.1354
 8822WAT    EPW36010   6.355   4.566   2.517  0.4304  0.5707 -0.1504
 8823WAT      O36011   6.814   2.855   1.236 -0.5097 -0.1687  0.1477
 8823WAT     H136012   6.761   2.792   1.266  0.5161 -1.3066 -0.3208
 8823WAT     H236013   6.759   2.911   1.197 -1.2942 -2.5975 -2.6442
 8823WAT    EPW36014   6.798   2.854   1.234 -0.4741 -0.6956 -0.3339
 8824WAT      O36015   3.433   4.256   3.516 -0.1707  0.2003 -0.2134
 8824WAT     H136016   3.453   4.196   3.455 -0.4490  0.8236 -0.9431
 8824WAT     H236017   3.360   4.226   3.552 -0.8060  0.5268 -1.1938
 8824WAT    EPW36018   3.425   4.243   3.512 -0.3056  0.3406 -0.4660
 8825WAT      O36019   2.709   6.836   1.190 -0.3264  0.4144  0.2152
 8825WAT     H136020   2.786   6.873   1.172 -0.2167  0.3463  0.5442
 8825WAT     H236021   2.713   6.758   1.151 -0.8719  1.0413 -1.1866
 8825WAT    EPW36022   2.721   6.830   1.181 -0.3908  0.4969  0.0567
 8826WAT      O36023   5.336   0.995   5.234  0.0851 -0.4029  0.1451
 8826WAT     H136024   5.323   1.048   5.302 -1.6970 -0.2775 -0.2442
 8826WAT     H236025   5.379   1.044   5.177 -0.4835  0.2350  0.2593
 8826WAT    EPW36026   5.341   1.010   5.236 -0.2622 -0.2901  0.1045
 8827WAT      O36027   6.133   6.801   0.478  0.1971 -0.4560 -0.2084
 8827WAT     H136028   6.219   6.793   0.467  0.1410 -1.7357  0.1465
 8827WAT     H236029   6.099   6.750   0.416 -0.3561  0.9419 -1.0991
 8827WAT    EPW36030   6.141   6.792   0.467  0.1071 -0.4386 -0.2875
 8828WAT      O36031   5.730   6.657   6.534  0.5727 -0.3413 -0.1207
 8828WAT     H136032   5.675   6.676   6.469  1.2726 -0.5261 -0.7859
 8828WAT     H236033   5.782   6.727   6.537  2.4619 -1.5588 -1.8391
 8828WAT    EPW36034   5.729   6.670   6.525  0.9551 -0.5485 -0.4728
 8829WAT      O36035   4.634   1.214   0.729 -0.2588 -0.3623  0.3872
 8829WAT     H136036   4.641   1.237   0.813 -0.0250  1.2366 -0.0399
 8829WAT     H236037   4.583   1.276   0.696  1.4417  0.3080 -1.1144
 8829WAT    EPW36038   4.627   1.227   0.737  0.0269 -0.0271  0.1023
 8830WAT      O36039   7.067   0.061   6.773  0.1054 -0.6284  0.5634
 8830WAT     H136040   7.111   0.119   6.725 -1.7559  0.1401 -0.3108
 8830WAT     H236041   7.101   0.071   6.853  1.2875  0.1378 -0.0040
 8830WAT    EPW36042   7.079   0.071   6.778  0.0051 -0.4017  0.3504
 8831WAT      O36043   0.345   4.480   6.885  0.3717  0.0312 -0.1909
 8831WAT     H136044   0.431   4.481   6.902  0.2334  0.7737  0.5444
 8831WAT     H236045   0.315   4.549   6.930 -0.2874  1.0876 -2.1234
 8831WAT    EPW36046   0.354   4.491   6.894  0.2539  0.2969 -0.3677
 8832WAT      O36047   3.291   3.797   6.099  0.4200  0.2828  0.2712
 8832WAT     H136048   3.278   3.842   6.025  1.1191 -1.3030 -0.8906
 8832WAT     H236049   3.377   3.781   6.098  0.3789 -0.0542  1.2660
 8832WAT    EPW36050   3.302   3.801   6.088  0.5172 -0.0012  0.2465
 8833WAT      O36051   0.356   1.005   3.006 -0.5970  0.6495  0.2643
 8833WAT     H136052   0.330   0.935   3.052 -0.3000  1.4118  1.6383
 8833WAT     H236053   0.443   1.000   3.010 -0.5751  1.0657  0.3280
 8833WAT    EPW36054   0.365   0.994   3.013 -0.5499  0.8236  0.4767
 8834WAT      O36055   4.260   1.979   4.891 -0.0072 -0.1871 -0.0115
 8834WAT     H136056   4.252   2.018   4.969  0.8276  1.1555 -0.5603
 8834WAT     H236057   4.180   1.949   4.875 -0.5189  0.6916  0.7766
 8834WAT    EPW36058   4.247   1.980   4.900  0.0405  0.1410  0.0239
 8835WAT      O36059   6.278   2.611   1.374 -0.7865  0.6631 -0.0609
 8835WAT     H136060   6.286   2.531   1.340  1.3136  1.3318 -1.2868
 8835WAT     H236061   6.253   2.596   1.456  2.8195 -1.5323  0.8623
 8835WAT    EPW36062   6.275   2.597   1.381  0.0564  0.4376 -0.1056
 8836WAT      O36063   0.600   1.048   1.282 -0.1518  0.0466 -0.4458
 8836WAT     H136064   0.609   0.978   1.230 -0.4574 -0.2422 -0.1074
 8836WAT     H236065   0.682   1.077   1.291 -0.1630  0.5060 -1.6485
 8836WAT    EPW36066   0.614   1.042   1.275 -0.1986  0.0718 -0.5735
 8837WAT      O36067   4.721   4.628   1.351  0.2134  0.5385  0.1267
 8837WAT     H136068   4.729   4.714   1.364 -0.3975  0.7308 -0.6785
 8837WAT     H236069   4.671   4.623   1.279 -0.0330 -0.4921  0.3569
 8837WAT    EPW36070   4.715   4.640   1.342  0.0868  0.4147  0.0418
 8838WAT      O36071   0.625   0.796   1.970 -0.2850  1.0882  0.5180
 8838WAT     H136072   0.698   0.749   1.958 -2.0220 -1.3048 -2.1850
 8838WAT     H236073   0.654   0.876   1.987  2.9713  0.2828 -0.5857
 8838WAT    EPW36074   0.640   0.801   1.971 -0.0606  0.6157 -0.0443
 8839WAT      O36075   4.361   5.824   6.742  0.6687  0.4069  0.1243
 8839WAT     H136076   4.421   5.783   6.790  1.1720  1.3986  0.3627
 8839WAT     H236077   4.295   5.768   6.740  2.1209 -1.3632 -1.3794
 8839WAT    EPW36078   4.360   5.810   6.749  0.9575  0.2919 -0.0626
 8840WAT      O36079   0.483   2.647   1.335 -0.2190 -0.1189  0.9516
 8840WAT     H136080   0.540   2.654   1.269  0.4881 -0.1729  1.5459
 8840WAT     H236081   0.429   2.583   1.309 -3.4998  3.3992 -2.1290
 8840WAT    EPW36082   0.483   2.639   1.322 -0.5992  0.3928  0.5843
 8841WAT      O36083   2.704   2.112   4.014  0.0159 -0.4295 -0.4406
 8841WAT     H136084   2.695   2.026   4.024  0.5969 -0.6300 -1.5788
 8841WAT     H236085   2.740   2.121   3.935 -1.0622  0.9103 -0.8301
 8841WAT    EPW36086   2.708   2.101   4.004 -0.0575 -0.2612 -0.6663
 8842WAT      O36087   4.088   3.331   6.571  0.5104 -0.6420 -0.5884
 8842WAT     H136088   4.063   3.273   6.632 -0.6625 -1.2741 -1.6316
 8842WAT     H236089   4.174   3.319   6.567  0.4426 -1.5113  0.0336
 8842WAT    EPW36090   4.097   3.320   6.579  0.3271 -0.8638 -0.6506
 8843WAT      O36091   6.179   6.882   6.256 -0.1411  0.0547  0.3063
 8843WAT     H136092   6.164   6.967   6.259  0.0150  0.0909  0.1201
 8843WAT     H236093   6.117   6.852   6.202 -0.6109 -0.0490  0.8959
 8843WAT    EPW36094   6.168   6.890   6.248 -0.1874  0.0447  0.3659
 8844WAT      O36095   2.744   3.731   6.079  0.2863 -0.8423 -0.0105
 8844WAT     H136096   2.687   3.679   6.038 -0.2616 -0.0012 -0.3548
 8844WAT     H236097   2.817   3.684   6.083 -0.8389 -2.5615  1.8004
 8844WAT    EPW36098   2.746   3.717   6.074  0.0391 -0.9720  0.2061
 8845WAT      O36099   2.632   1.201   3.979 -0.0989  0.2058 -0.4727
 8845WAT     H136100   2.549   1.180   3.964 -0.2269  0.1583  0.2491
 8845WAT     H236101   2.676   1.131   3.952 -0.3308  0.0443 -0.4414
 8845WAT    EPW36102   2.626   1.188   3.973 -0.1521  0.1749 -0.3615
 8846WAT      O36103   2.799   2.915   3.310  0.0770  0.1546  0.5979
 8846WAT     H136104   2.884   2.922   3.291 -0.3578  1.1293 -1.1999
 8846WAT     H236105   2.785   2.979   3.368  0.1236  1.5780 -0.9037
 8846WAT    EPW36106   2.809   2.925   3.316  0.0196  0.5088  0.1105
 8847WAT      O36107   3.933   6.572   5.214 -0.1278 -0.4539 -0.3772
 8847WAT     H136108   3.973   6.603   5.285 -3.7924 -0.5290  1.9943
 8847WAT     H236109   3.880   6.636   5.190 -0.1781 -1.0668 -2.0899
 8847WAT    EPW36110   3.931   6.586   5.221 -0.6766 -0.5556 -0.2799
 8848WAT      O36111   5.988   4.772   1.312  0.4257 -0.5366  0.1144
 8848WAT     H136112   6.019   4.826   1.251  0.4688 -1.3990 -0.6609
 8848WAT     H236113   6.036   4.790   1.382 -0.6892  1.5992  0.4029
 8848WAT    EPW36114   5.999   4.783   1.313  0.2673 -0.3485  0.0425
 8849WAT      O36115   1.450   1.588   0.430  0.2319 -0.0060 -0.2278
 8849WAT     H136116   1.508   1.647   0.402  0.1112 -0.2443 -0.9953
 8849WAT     H236117   1.377   1.634   0.442 -0.3880 -0.2476 -2.5465
 8849WAT    EPW36118   1.448   1.603   0.428  0.1225 -0.0769 -0.6837
 8850WAT      O36119   4.706   4.614   4.255  0.2080 -0.0550 -0.1099
 8850WAT     H136120   4.657   4.594   4.325  0.3830 -0.5173 -0.1179
 8850WAT     H236121   4.667   4.571   4.190  1.1750 -1.2122  0.0506
 8850WAT    EPW36122   4.693   4.605   4.255  0.3767 -0.2943 -0.0874
 8851WAT      O36123   2.736   1.114   5.803  0.2040  0.2152 -0.1881
 8851WAT     H136124   2.712   1.031   5.787  1.2330  0.2056 -1.9812
 8851WAT     H236125   2.823   1.112   5.793  0.5265  1.0845  1.9727
 8851WAT    EPW36126   2.745   1.101   5.799  0.4036  0.3422 -0.1337
 8852WAT      O36127   4.829   6.315   4.734 -0.3648  0.5542  0.3231
 8852WAT     H136128   4.804   6.393   4.765  0.1750  1.5878 -1.6635
 8852WAT     H236129   4.789   6.309   4.657 -2.0503 -2.1279  1.2662
 8852WAT    EPW36130   4.820   6.326   4.727 -0.5340  0.3107  0.1690
 8853WAT      O36131   6.723   2.803   4.188  0.2524  0.3866  0.7965
 8853WAT     H136132   6.741   2.761   4.113  0.3640  1.2167  0.3515
 8853WAT     H236133   6.744   2.744   4.249  0.4777 -0.1819  0.1890
 8853WAT    EPW36134   6.729   2.788   4.186  0.3021  0.4252  0.6410
 8854WAT      O36135   1.563   2.117   4.889  0.5219 -0.4126  0.1549
 8854WAT     H136136   1.620   2.092   4.950 -1.3228 -1.0232  1.7081
 8854WAT     H236137   1.485   2.103   4.926 -0.6731  1.8508 -1.2833
 8854WAT    EPW36138   1.560   2.111   4.903  0.0729 -0.1684  0.1719
 8855WAT      O36139   5.800   4.068   5.938 -0.4676 -0.5167 -0.5637
 8855WAT     H136140   5.865   4.094   5.989 -0.8061 -0.1019 -0.3329
 8855WAT     H236141   5.835   4.064   5.859 -0.4467  0.8252 -0.6396
 8855WAT    EPW36142   5.815   4.071   5.934 -0.5145 -0.2572 -0.5408
 8856WAT      O36143   6.514   3.600   1.000  0.0174 -0.2751 -0.5419
 8856WAT     H136144   6.515   3.574   0.917  0.3027 -0.0235 -0.6191
 8856WAT     H236145   6.455   3.548   1.037  0.4449 -0.9049 -0.7302
 8856WAT    EPW36146   6.505   3.589   0.994  0.1227 -0.3310 -0.5811
 8857WAT      O36147   3.585   5.605   7.346  0.2482  0.2534 -0.4343
 8857WAT     H136148   3.610   5.538   7.297  0.1122 -0.3193  0.2606
 8857WAT     H236149   3.618   5.675   7.305  0.8325 -0.2831 -0.8810
 8857WAT    EPW36150   3.593   5.606   7.333  0.3144  0.0896 -0.3976
 8858WAT      O36151   1.085   6.615   4.067 -0.1568  0.3450 -0.2576
 8858WAT     H136152   1.012   6.576   4.095 -0.1207  0.2094 -0.3538
 8858WAT     H236153   1.071   6.628   3.982 -0.5000  1.2731 -0.0796
 8858WAT    EPW36154   1.072   6.611   4.059 -0.2022  0.4621 -0.2455
 8859WAT      O36155   2.788   5.695   4.604  0.2315 -0.0841  0.2272
 8859WAT     H136156   2.789   5.753   4.669 -0.3713 -1.6443  1.6827
 8859WAT     H236157   2.866   5.657   4.609  1.3431  1.6508 -1.8308
 8859WAT    EPW36158   2.800   5.698   4.614  0.3067 -0.0583  0.1382
 8860WAT      O36159   2.411   1.664   1.514 -0.5871 -0.3922  0.7800
 8860WAT     H136160   2.366   1.739   1.523  0.0592  0.1222 -0.0409
 8860WAT     H236161   2.448   1.673   1.436  4.3458  1.1417  2.9298
 8860WAT    EPW36162   2.410   1.677   1.504  0.2371 -0.0896  0.9763
 8861WAT      O36163   6.361   2.683   7.004 -0.0016  0.2463  0.2802
 8861WAT     H136164   6.289   2.703   7.049  1.9959  0.3779  3.8339
 8861WAT     H236165   6.414   2.750   7.022  2.1470 -1.4914  0.7868
 8861WAT    EPW36166   6.358   2.696   7.014  0.6109  0.0090  0.8800
 8862WAT      O36167   2.276   0.677   0.164 -0.8567  0.1147  0.3814
 8862WAT     H136168   2.326   0.669   0.093 -1.9488 -0.1475 -0.3962
 8862WAT     H236169   2.225   0.746   0.144 -2.2867 -0.9480  0.1673
 8862WAT    EPW36170   2.276   0.686   0.150 -1.2293 -0.0810  0.2349
 8863WAT      O36171   6.556   6.687   6.726  0.2801 -1.0182  0.2825
 8863WAT     H136172   6.481   6.675   6.769 -0.4710  0.3787 -0.5269
 8863WAT     H236173   6.531   6.733   6.655  1.6966 -1.7813 -0.7636
 8863WAT    EPW36174   6.541   6.692   6.722  0.3784 -0.9246  0.0084
 8864WAT      O36175   5.937   4.251   0.273 -0.3947  0.7566  0.0009
 8864WAT     H136176   5.998   4.189   0.280  0.8373  1.8883 -0.2496
 8864WAT     H236177   5.866   4.214   0.307  0.2359 -0.8607 -0.3414
 8864WAT    EPW36178   5.936   4.236   0.279 -0.1195  0.6849 -0.0866
 8865WAT      O36179   6.253   5.579   6.374 -0.1733 -0.4677  0.0771
 8865WAT     H136180   6.281   5.574   6.456  0.2838  0.7080  0.0087
 8865WAT     H236181   6.326   5.575   6.327 -0.3078  0.2629 -0.2066
 8865WAT    EPW36182   6.268   5.578   6.379 -0.1256 -0.1861  0.0251
 8866WAT      O36183   5.211   3.697   7.339  0.3481 -0.0397  0.2518
 8866WAT     H136184   5.290   3.731   7.355  0.0508  1.0227 -0.3981
 8866WAT     H236185   5.183   3.743   7.270 -0.6420 -0.7268  0.1792
 8866WAT    EPW36186   5.219   3.709   7.331  0.1579  0.0158  0.1451
 8867WAT      O36187   7.155   2.497   5.891 -0.4587  0.0545 -0.2237
 8867WAT     H136188   7.177   2.435   5.834 -0.8772 -0.5451  0.2472
 8867WAT     H236189   7.227   2.546   5.897 -0.4437  0.1916 -1.3359
 8867WAT    EPW36190   7.169   2.495   5.883 -0.5183 -0.0138 -0.3184
 8868WAT      O36191   0.042   5.672   2.143  0.1115 -0.0595  0.0320
 8868WAT     H136192   0.052   5.602   2.195 -1.6771  0.4747  1.1963
 8868WAT     H236193   0.033   5.638   2.064  0.6966 -1.0445  0.3687
 8868WAT    EPW36194   0.042   5.656   2.139 -0.0663 -0.1261  0.2537
 8869WAT      O36195   0.632   7.235   5.841 -0.0585 -0.6904 -0.9894
 8869WAT     H136196   0.606   7.248   5.759 -0.3921 -0.5872 -0.8703
 8869WAT     H236197   0.568   7.271   5.889 -0.1866 -1.3298 -0.6753
 8869WAT    EPW36198   0.619   7.242   5.836 -0.1267 -0.7696 -0.9254
 8870WAT      O36199   6.255   2.057   2.322  0.2690 -0.9198  0.3784
 8870WAT     H136200   6.248   2.054   2.235 -2.3688  0.6124  0.4352
 8870WAT     H236201   6.249   1.973   2.346  1.7780 -1.4397 -0.8864
 8870WAT    EPW36202   6.253   2.044   2.313  0.1023 -0.7702  0.1999
 8871WAT      O36203   6.616   6.100   0.476 -0.1523  0.4171  0.9624
 8871WAT     H136204   6.685   6.071   0.521 -0.2214 -0.8168  0.3195
 8871WAT     H236205   6.573   6.150   0.533 -0.3253 -1.2299  2.3346
 8871WAT    EPW36206   6.620   6.103   0.491 -0.1880 -0.0085  1.0702
 8872WAT      O36207   1.997   0.004   3.461 -0.1581 -0.7655 -0.0116
 8872WAT     H136208   1.925   0.045   3.488 -0.3436 -0.7823 -0.4706
 8872WAT     H236209   2.043  -0.007   3.534  0.0982  0.6656  0.0762
 8872WAT    EPW36210   1.993   0.008   3.476 -0.1477 -0.5566 -0.0664
 8873WAT      O36211   0.542   2.604   6.434  0.5947 -0.4628 -0.3048
 8873WAT     H136212   0.565   2.604   6.350 -0.8857 -1.4325 -0.7376
 8873WAT     H236213   0.459   2.628   6.433  0.3672 -1.1178  0.8208
 8873WAT    EPW36214   0.533   2.608   6.422  0.3424 -0.7028 -0.2025
 8874WAT      O36215   1.409   1.818   2.039  1.2098  0.1520 -0.2962
 8874WAT     H136216   1.479   1.858   2.004  1.5350 -0.7778 -0.7362
 8874WAT     H236217   1.444   1.765   2.099  1.0775 -1.7235 -1.8096
 8874WAT    EPW36218   1.425   1.816   2.043  1.2383 -0.2624 -0.5848
 8875WAT      O36219   2.614   4.920   3.173 -0.1840 -0.2425  0.5159
 8875WAT     H136220   2.641   4.846   3.210  0.2639 -0.8534 -0.9323
 8875WAT     H236221   2.529   4.906   3.159 -0.3375 -0.0392  1.2079
 8875WAT    EPW36222   2.606   4.907   3.176 -0.1405 -0.3027  0.4042
 8876WAT      O36223   0.921   3.569   0.179  0.0013 -0.0489 -0.2632
 8876WAT     H136224   0.914   3.653   0.202  0.4684  0.5115 -2.0475
 8876WAT     H236225   0.842   3.549   0.150 -0.7972 -0.9665  2.2597
 8876WAT    EPW36226   0.909   3.579   0.178 -0.0477 -0.1016 -0.1541
 8877WAT      O36227   1.996   1.186   0.670 -0.1485  0.3163  0.3856
 8877WAT     H136228   2.067   1.236   0.672  1.5031 -1.6541 -2.2010
 8877WAT     H236229   1.999   1.143   0.746  2.3978 -0.7787 -0.2100
 8877WAT    EPW36230   2.007   1.187   0.681  0.4716 -0.1365 -0.0845
 8878WAT      O36231   6.129   3.828   7.025 -0.5537  0.0887  0.0479
 8878WAT     H136232   6.164   3.879   7.087 -0.8529  0.9243 -0.4511
 8878WAT     H236233   6.045   3.851   7.026 -0.8894 -1.0995  0.4688
 8878WAT    EPW36234   6.122   3.839   7.034 -0.6475  0.0367  0.0364
 8879WAT      O36235   5.404   3.808   3.518 -0.5192 -0.2959 -0.0311
 8879WAT     H136236   5.385   3.782   3.599 -0.1044 -0.9439 -0.1414
 8879WAT     H236237   5.469   3.755   3.493  0.5916  1.0587 -0.1297
 8879WAT    EPW36238   5.411   3.797   3.526 -0.2938 -0.1915 -0.0620
 8880WAT      O36239   3.673   0.534   5.453 -0.2667 -0.1738  0.3870
 8880WAT     H136240   3.668   0.596   5.514 -0.7713  0.7582 -0.5669
 8880WAT     H236241   3.631   0.569   5.385 -1.5628 -1.9917  0.1591
 8880WAT    EPW36242   3.666   0.548   5.452 -0.5327 -0.3047  0.2124
 8881WAT      O36243   5.599   3.026   7.307  0.3306 -0.3305  0.3708
 8881WAT     H136244   5.639   3.075   7.368 -1.5322  2.6945 -0.6073
 8881WAT     H236245   5.527   2.998   7.347  0.6564 -1.0300  0.4763
 8881WAT    EPW36246   5.594   3.029   7.322  0.1036  0.0130  0.2419
 8882WAT      O36247   6.069   0.238   6.025  0.1510  0.3934  0.4225
 8882WAT     H136248   5.996   0.286   6.023  0.7314  1.2687 -0.4517
 8882WAT     H236249   6.045   0.167   6.069 -1.9061 -0.4265 -1.7678
 8882WAT    EPW36250   6.054   0.235   6.031 -0.0671  0.4016 -0.0302
 8883WAT      O36251   0.228   1.172   0.053  0.3882  0.0224  0.3776
 8883WAT     H136252   0.301   1.170   0.101  0.7625 -0.7742 -0.1942
 8883WAT     H236253   0.195   1.092   0.064  0.3472 -0.0868 -0.4734
 8883WAT    EPW36254   0.234   1.160   0.062  0.4374 -0.1114  0.1674
 8884WAT      O36255   3.421   0.580   0.491 -0.2411  0.7524 -0.5174
 8884WAT     H136256   3.337   0.587   0.511 -0.5531 -0.0388 -1.4392
 8884WAT     H236257   3.456   0.539   0.560 -1.1702 -1.4216 -1.2458
 8884WAT    EPW36258   3.414   0.575   0.504 -0.4244  0.3143 -0.7611
 8885WAT      O36259   1.609   0.797   5.660  0.3084 -0.4064 -0.1717
 8885WAT     H136260   1.650   0.868   5.631  0.9060 -0.5942  0.1957
 8885WAT     H236261   1.667   0.732   5.647 -0.4889 -0.9492 -1.1392
 8885WAT    EPW36262   1.624   0.798   5.654  0.2789 -0.5143 -0.2603
 8886WAT      O36263   3.801   2.236   2.218  0.4860 -0.3091 -0.1135
 8886WAT     H136264   3.738   2.269   2.269  0.0635  1.9785 -1.9290
 8886WAT     H236265   3.874   2.251   2.263  0.1105  1.5005 -0.0121
 8886WAT    EPW36266   3.802   2.243   2.232  0.3681  0.2962 -0.3667
 8887WAT      O36267   7.229   4.338   4.227 -0.7677 -0.2374  0.4705
 8887WAT     H136268   7.315   4.329   4.244 -0.2618  3.5335  0.8572
 8887WAT     H236269   7.192   4.335   4.306 -0.8427 -0.6633  0.4208
 8887WAT    EPW36270   7.237   4.336   4.241 -0.7040  0.2568  0.5203
 8888WAT      O36271   0.640   2.642   0.102 -0.1775  0.2280  0.5482
 8888WAT     H136272   0.603   2.605   0.172  1.3513  0.0726  1.3036
 8888WAT     H236273   0.676   2.574   0.060 -0.1191  0.4712  0.2014
 8888WAT    EPW36274   0.640   2.626   0.106  0.0570  0.2409  0.6085
 8889WAT      O36275   4.058   5.874   2.232  0.0216  0.5221 -0.1202
 8889WAT     H136276   3.997   5.832   2.278 -0.0002  0.3567 -0.2991
 8889WAT     H236277   4.031   5.866   2.149 -0.0654  1.0259 -0.1424
 8889WAT    EPW36278   4.045   5.866   2.227  0.0055  0.5721 -0.1499
 8890WAT      O36279   3.952   2.167   4.755 -0.1183 -0.0645 -0.4335
 8890WAT     H136280   4.022   2.215   4.738 -0.0268  0.0582  0.2491
 8890WAT     H236281   3.985   2.089   4.777  0.1162  0.9198  3.4180
 8890WAT    EPW36282   3.967   2.163   4.756 -0.0701  0.0990  0.2363
 8891WAT      O36283   2.024   5.001   2.282  0.4373  0.3365  0.3704
 8891WAT     H136284   2.105   4.989   2.311  0.2871  0.6900  0.9702
 8891WAT     H236285   2.000   4.923   2.253  0.6530 -0.0017  1.0790
 8891WAT    EPW36286   2.032   4.988   2.282  0.4470  0.3387  0.5637
 8892WAT      O36287   4.087   3.730   5.066  0.2827 -0.3952 -0.6425
 8892WAT     H136288   4.015   3.681   5.071  0.9016 -1.2785 -0.1270
 8892WAT     H236289   4.152   3.671   5.058  1.1700  0.2253  1.2350
 8892WAT    EPW36290   4.086   3.714   5.066  0.5052 -0.4341 -0.2890
 8893WAT      O36291   1.708   6.489   7.176  0.7949  0.0401  0.3217
 8893WAT     H136292   1.687   6.486   7.091  0.8601 -0.5930  0.3254
 8893WAT     H236293   1.767   6.553   7.180  0.8901 -0.0151 -0.1291
 8893WAT    EPW36294   1.713   6.498   7.164  0.8186 -0.0616  0.2556
 8894WAT      O36295   7.253   0.520   2.086  0.3349 -0.3923 -0.2833
 8894WAT     H136296   7.302   0.555   2.022  1.2798 -0.1402  0.5538
 8894WAT     H236297   7.263   0.577   2.152 -0.0310 -1.0297  0.3301
 8894WAT    EPW36298   7.262   0.534   2.086  0.4204 -0.4492 -0.0690
 8895WAT      O36299   3.086   3.771   1.838  0.7147 -0.3308 -0.2523
 8895WAT     H136300   3.147   3.749   1.779  0.3136 -1.4856 -0.2501
 8895WAT     H236301   3.048   3.695   1.857  0.9776 -0.0260  1.6709
 8895WAT    EPW36302   3.090   3.757   1.832  0.6943 -0.4564  0.0321
 8896WAT      O36303   0.298   6.905   1.164  0.0710 -0.5983  0.6038
 8896WAT     H136304   0.222   6.936   1.133  1.1301 -0.3188 -1.9548
 8896WAT     H236305   0.277   6.825   1.192 -1.4464  0.0245  1.3289
 8896WAT    EPW36306   0.283   6.897   1.163  0.0033 -0.4650  0.3330
 8897WAT      O36307   0.744   6.443   0.502  0.6297 -0.5877  0.0846
 8897WAT     H136308   0.704   6.380   0.457  0.4551  0.5671 -1.4827
 8897WAT     H236309   0.678   6.485   0.540  0.4884  0.0951 -0.8672
 8897WAT    EPW36310   0.728   6.440   0.501  0.5830 -0.3163 -0.2875
 8898WAT      O36311   6.044   1.806   0.422  0.5744 -0.3300  0.2150
 8898WAT     H136312   6.130   1.794   0.414  0.6870  0.8533 -0.5388
 8898WAT     H236313   6.037   1.876   0.473  0.0375 -0.6252  0.5650
 8898WAT    EPW36314   6.055   1.814   0.429  0.5117 -0.1988  0.1553
 8899WAT      O36315   6.438   2.688   1.067 -0.1632 -0.1287  0.8441
 8899WAT     H136316   6.414   2.722   0.990 -0.7274 -1.5700  0.3610
 8899WAT     H236317   6.416   2.604   1.061 -0.2662 -0.2680  2.6102
 8899WAT    EPW36318   6.431   2.681   1.055 -0.2618 -0.3622  1.0336
 8900WAT      O36319   4.768   0.563   0.437 -0.6052  0.0565 -0.2633
 8900WAT     H136320   4.822   0.540   0.372  1.0185 -1.1658  1.4039
 8900WAT     H236321   4.715   0.495   0.445 -1.8241  0.8491 -1.2527
 8900WAT    EPW36322   4.768   0.550   0.429 -0.5454 -0.0069 -0.1632
 8901WAT      O36323   5.738   1.252   1.704 -0.2313  0.2746 -0.2443
 8901WAT     H136324   5.699   1.209   1.639 -0.0110  0.5485 -0.5613
 8901WAT     H236325   5.672   1.285   1.749 -0.4682 -1.3618  0.7004
 8901WAT    EPW36326   5.723   1.250   1.701 -0.2338  0.0733 -0.1516
 8902WAT      O36327   0.199   2.560   4.772  0.5719  0.5374  0.3331
 8902WAT     H136328   0.219   2.539   4.854 -1.8422 -2.7237  0.2782
 8902WAT     H236329   0.127   2.609   4.780 -0.7061 -1.2095  0.2685
 8902WAT    EPW36330   0.191   2.564   4.785  0.0265 -0.2024  0.3154
 8903WAT      O36331   6.041   2.150   7.387 -0.3938  0.3555  0.6538
 8903WAT     H136332   6.002   2.122   7.315  0.0804 -0.4023  0.6706
 8903WAT     H236333   5.994   2.115   7.451 -0.3647  0.3955  0.6974
 8903WAT    EPW36334   6.029   2.141   7.386 -0.3194  0.2495  0.6627
 8904WAT      O36335   5.017   5.039   1.201  0.0954 -0.4061  0.0864
 8904WAT     H136336   5.040   5.073   1.124  1.3272  0.3880  0.7586
 8904WAT     H236337   4.966   5.100   1.236  2.3905  0.9550  1.3375
 8904WAT    EPW36338   5.013   5.053   1.195  0.6164 -0.0877  0.3705
 8905WAT      O36339   6.781   0.216   6.536 -0.1256 -0.3952 -0.3430
 8905WAT     H136340   6.803   0.299   6.516 -0.4511 -0.6556 -1.9720
 8905WAT     H236341   6.801   0.209   6.620  0.7536  1.0778 -0.3893
 8905WAT    EPW36342   6.787   0.227   6.545 -0.0438 -0.2160 -0.5905
 8906WAT      O36343   5.227   1.414   6.893  0.0064 -0.1784  0.6525
 8906WAT     H136344   5.184   1.489   6.880 -1.0513 -0.8905 -0.1497
 8906WAT     H236345   5.219   1.373   6.816  0.9888 -0.9157  0.9227
 8906WAT    EPW36346   5.220   1.419   6.880 -0.0047 -0.3925  0.5739
 8907WAT      O36347   1.575   0.268   4.624  0.0636  0.9224 -0.1215
 8907WAT     H136348   1.493   0.270   4.653 -0.0551 -2.4160  0.1641
 8907WAT     H236349   1.571   0.213   4.556  2.1585 -0.0882  0.4850
 8907WAT    EPW36350   1.562   0.260   4.618  0.3555  0.2799  0.0103
 8908WAT      O36351   4.095   2.196   5.746 -0.0818  0.0328  0.4080
 8908WAT     H136352   4.049   2.128   5.776  0.9066 -0.8097  0.0806
 8908WAT     H236353   4.178   2.172   5.759  0.3342  0.5450 -1.0513
 8908WAT    EPW36354   4.101   2.182   5.752  0.1256 -0.0160  0.1440
 8909WAT      O36355   7.069   1.599   4.589 -0.3061 -0.1244 -0.1584
 8909WAT     H136356   7.025   1.546   4.643 -0.1983 -2.1181 -1.8679
 8909WAT     H236357   7.152   1.575   4.601 -0.2190 -0.0919 -0.6844
 8909WAT    EPW36358   7.075   1.588   4.599 -0.2773 -0.4141 -0.4887
 8910WAT      O36359   5.710   5.032   2.720 -0.4880 -0.2788 -0.1928
 8910WAT     H136360   5.635   5.028   2.674  0.4437  1.1960 -1.9534
 8910WAT     H236361   5.717   5.116   2.741 -0.5949 -0.8134  2.3343
 8910WAT    EPW36362   5.700   5.044   2.716 -0.3661 -0.1399 -0.0795
 8911WAT      O36363   4.833   6.778   5.470 -0.4975  1.0708 -0.1152
 8911WAT     H136364   4.747   6.792   5.478 -0.4624  0.6935  1.1784
 8911WAT     H236365   4.848   6.709   5.521  0.8149  2.0699  0.9417
 8911WAT    EPW36366   4.823   6.770   5.478 -0.2985  1.1627  0.2320
 8912WAT      O36367   1.731   2.106   2.342  0.8279  0.6851 -0.4599
 8912WAT     H136368   1.754   2.022   2.334  1.6993  0.7405  1.0370
 8912WAT     H236369   1.740   2.121   2.428 -2.6536  1.3835 -0.0940
 8912WAT    EPW36370   1.736   2.096   2.354  0.4424  0.7965 -0.1847
 8913WAT      O36371   4.071   4.591   5.572 -0.0107 -0.2040 -0.4835
 8913WAT     H136372   4.030   4.532   5.522 -0.3155  0.4749 -1.0564
 8913WAT     H236373   4.101   4.649   5.514 -0.8056  0.8709  0.1621
 8913WAT    EPW36374   4.070   4.591   5.556 -0.1732  0.0550 -0.4728
 8914WAT      O36375   1.952   1.023   6.595  0.2188  0.0167  0.2255
 8914WAT     H136376   1.920   0.947   6.625  1.1083 -0.9600 -1.1461
 8914WAT     H236377   1.972   1.004   6.512  1.3669  1.4985  0.1350
 8914WAT    EPW36378   1.950   1.009   6.587  0.5198  0.0913  0.0095
 8915WAT      O36379   0.121   2.754   0.469  0.1756  0.2794 -0.2046
 8915WAT     H136380   0.048   2.759   0.517  0.2194  2.5851 -0.3045
 8915WAT     H236381   0.176   2.808   0.509  1.4816 -0.5857 -0.7707
 8915WAT    EPW36382   0.118   2.763   0.482  0.3750  0.4922 -0.3030
 8916WAT      O36383   1.599   4.571   1.076 -0.1705 -0.3403  0.3853
 8916WAT     H136384   1.577   4.535   1.152 -2.7646 -1.4615 -0.7979
 8916WAT     H236385   1.637   4.506   1.032  2.0368  0.4983  0.8724
 8916WAT    EPW36386   1.601   4.556   1.081 -0.2277 -0.3820  0.2825
 8917WAT      O36387   3.555   7.248   0.989 -0.0527  0.8676  0.7157
 8917WAT     H136388   3.535   7.276   0.909  2.9134 -0.4086 -0.6504
 8917WAT     H236389   3.501   7.180   1.000 -0.3977  0.9469 -0.3059
 8917WAT    EPW36390   3.544   7.242   0.979  0.3345  0.6908  0.3630
 8918WAT      O36391   1.121   0.758   5.562  0.3785  0.8035 -0.2570
 8918WAT     H136392   1.130   0.816   5.627 -1.9383  1.7705 -0.6889
 8918WAT     H236393   1.174   0.789   5.500  1.4411  0.7330  0.5904
 8918WAT    EPW36394   1.130   0.772   5.563  0.1932  0.9359 -0.1956
 8919WAT      O36395   6.167   5.294   6.475  0.2786  0.4163 -0.2612
 8919WAT     H136396   6.209   5.367   6.494 -0.2237  0.4997  0.5608
 8919WAT     H236397   6.208   5.233   6.523 -0.8880  0.6020  1.0329
 8919WAT    EPW36398   6.179   5.296   6.485  0.0320  0.4561  0.0514
 8920WAT      O36399   1.070   5.673   2.814  0.1691  0.0708 -0.4824
 8920WAT     H136400   1.037   5.694   2.736 -0.2151  0.6228 -0.1740
 8920WAT     H236401   1.146   5.716   2.817 -1.3377  2.9100  0.8198
 8920WAT    EPW36402   1.076   5.682   2.803 -0.1102  0.5717 -0.2445
 8921WAT      O36403   2.921   4.109   1.531  0.1951  0.3295  0.5390
 8921WAT     H136404   2.981   4.168   1.553  0.0827  0.7565 -0.2895
 8921WAT     H236405   2.941   4.040   1.582  1.3870  0.4572  0.2703
 8921WAT    EPW36406   2.933   4.107   1.542  0.3545  0.4114  0.3769
 8922WAT      O36407   2.002   2.212   7.203  0.2782 -0.1695 -0.0717
 8922WAT     H136408   2.070   2.174   7.243  0.1263 -0.4124 -0.0427
 8922WAT     H236409   2.008   2.183   7.121  0.7618  0.5618 -0.3046
 8922WAT    EPW36410   2.013   2.202   7.197  0.3272 -0.0974 -0.1018
 8923WAT      O36411   6.297   3.767   6.166  0.1005  0.3334 -0.5416
 8923WAT     H136412   6.356   3.718   6.208 -1.5157 -0.5758  0.7766
 8923WAT     H236413   6.222   3.745   6.203 -1.1867  0.9920 -2.5860
 8923WAT    EPW36414   6.295   3.756   6.178 -0.3284  0.2963 -0.6489
 8924WAT      O36415   6.225   5.750   3.439 -0.1611  0.0428 -0.2592
 8924WAT     H136416   6.261   5.743   3.360  1.3113  1.4269  0.2296
 8924WAT     H236417   6.199   5.833   3.442 -1.1588 -0.2696  0.3459
 8924WAT    EPW36418   6.226   5.761   3.428 -0.0910  0.2011 -0.0976
 8925WAT      O36419   4.784   4.477   6.596  0.5404 -0.2214 -0.3432
 8925WAT     H136420   4.729   4.409   6.600  0.5543 -0.2040  0.2139
 8925WAT     H236421   4.856   4.444   6.559  0.7934 -0.6843  0.5308
 8925WAT    EPW36422   4.787   4.462   6.591  0.5798 -0.2872 -0.1318
 8926WAT      O36423   1.487   0.207   4.053  0.2996  0.8355 -0.3899
 8926WAT     H136424   1.456   0.155   4.116  1.6193  0.0203 -0.3838
 8926WAT     H236425   1.426   0.202   3.991 -0.1828  0.2649  0.1128
 8926WAT    EPW36426   1.473   0.199   4.053  0.4233  0.6308 -0.3147
 8927WAT      O36427   0.765   0.927   6.688  0.0488 -0.2224 -0.4119
 8927WAT     H136428   0.737   0.847   6.666  1.2607 -0.6017 -0.6751
 8927WAT     H236429   0.849   0.914   6.708 -0.0169  0.7957  0.6711
 8927WAT    EPW36430   0.773   0.913   6.688  0.2181 -0.1280 -0.2908
 8928WAT      O36431   3.033   4.758   6.455 -0.1005 -0.2628  0.0576
 8928WAT     H136432   2.988   4.817   6.409  1.9278  1.9073  0.6054
 8928WAT     H236433   3.116   4.772   6.429  0.6334 -1.7402  1.4473
 8928WAT    EPW36434   3.039   4.769   6.444  0.3075 -0.1605  0.3438
 8929WAT      O36435   5.721   1.001   4.879 -0.7550 -0.5663  0.4231
 8929WAT     H136436   5.638   1.028   4.872 -0.6493 -0.2906  0.2463
 8929WAT     H236437   5.738   0.964   4.802 -0.6972 -0.5736  0.4392
 8929WAT    EPW36438   5.711   1.000   4.867 -0.7309 -0.5266  0.3994
 8930WAT      O36439   5.538   4.076   2.322 -0.1827  0.0988  0.0690
 8930WAT     H136440   5.559   4.158   2.300 -0.3743  0.0745 -0.2011
 8930WAT     H236441   5.522   4.083   2.408  1.5234 -0.0038  0.4411
 8930WAT    EPW36442   5.539   4.089   2.332  0.0410  0.0801  0.0841
 8931WAT      O36443   0.508   4.016   6.130 -0.2545  1.1829  0.3398
 8931WAT     H136444   0.564   4.035   6.195  0.8976  2.3994 -0.9373
 8931WAT     H236445   0.448   4.079   6.136 -0.5181  0.9077  0.6203
 8931WAT    EPW36446   0.508   4.028   6.141 -0.1233  1.3219  0.1926
 8932WAT      O36447   4.528   1.044   6.788 -0.4049  0.5296  0.0840
 8932WAT     H136448   4.530   0.967   6.828  0.2678  0.5878  0.1771
 8932WAT     H236449   4.470   1.090   6.833 -0.0319  0.4217  0.6817
 8932WAT    EPW36450   4.520   1.039   6.801 -0.2505  0.5223  0.1860
 8933WAT      O36451   2.275   6.303   1.314  0.4241  0.1247  0.1783
 8933WAT     H136452   2.197   6.286   1.280  0.1952  0.4392  0.5357
 8933WAT     H236453   2.257   6.357   1.381  0.6234 -2.0573  2.1041
 8933WAT    EPW36454   2.261   6.309   1.319  0.4197 -0.1512  0.5155
 8934WAT      O36455   4.296   6.400   2.783  0.0240 -0.0274 -0.2766
 8934WAT     H136456   4.261   6.341   2.730 -0.0757  0.2723 -0.5480
 8934WAT     H236457   4.374   6.416   2.747 -0.0476  0.1832 -0.3443
 8934WAT    EPW36458   4.302   6.394   2.770 -0.0013  0.0480 -0.3267
 8935WAT      O36459   6.255   4.605   3.550  0.5148  0.0734  0.3380
 8935WAT     H136460   6.303   4.624   3.480 -0.1803  0.6238 -0.0063
 8935WAT     H236461   6.216   4.681   3.569 -1.6112 -0.7229 -0.4978
 8935WAT    EPW36462   6.256   4.619   3.543  0.0980  0.0371  0.1637
 8936WAT      O36463   4.497   3.836   5.047  0.0652  0.0655  0.4183
 8936WAT     H136464   4.449   3.853   4.976  2.1312 -0.4643 -1.1973
 8936WAT     H236465   4.519   3.915   5.077 -0.1249  0.2840 -0.0143
 8936WAT    EPW36466   4.493   3.850   5.041  0.3423  0.0195  0.1157
 8937WAT      O36467   5.717   0.891   3.046  0.3126  0.4077  0.0228
 8937WAT     H136468   5.749   0.925   2.972  0.5895  0.1275  0.0096
 8937WAT     H236469   5.788   0.878   3.095  0.3232 -0.9323 -0.3030
 8937WAT    EPW36470   5.732   0.894   3.042  0.3551  0.1683 -0.0273
 8938WAT      O36471   5.342   7.066   5.745  0.1913 -0.1597 -0.0374
 8938WAT     H136472   5.365   7.027   5.819  2.1136 -1.3187 -1.1466
 8938WAT     H236473   5.389   7.023   5.684 -1.6101  0.4377 -1.9716
 8938WAT    EPW36474   5.352   7.054   5.747  0.2092 -0.2427 -0.4869
 8939WAT      O36475   3.283   2.090   1.688  0.3760  0.6291 -0.2876
 8939WAT     H136476   3.294   2.003   1.695  0.1728  0.3662 -2.6095
 8939WAT     H236477   3.245   2.111   1.764 -0.7794 -1.5410 -0.1706
 8939WAT    EPW36478   3.279   2.080   1.700  0.1753  0.2697 -0.6133
 8940WAT      O36479   5.042   0.573   6.818  0.0799 -0.0746  0.2330
 8940WAT     H136480   5.036   0.618   6.893  1.0104 -0.0661  0.3166
 8940WAT     H236481   5.100   0.620   6.772  0.6570 -0.8981  0.1110
 8940WAT    EPW36482   5.050   0.587   6.823  0.3026 -0.1950  0.2273
 8941WAT      O36483   2.006   3.094   0.890 -0.4329 -0.0314 -0.4090
 8941WAT     H136484   1.948   3.030   0.875 -1.2332  0.0980  1.6550
 8941WAT     H236485   1.957   3.166   0.889 -0.0233  0.2540 -0.1898
 8941WAT    EPW36486   1.990   3.095   0.888 -0.4907  0.0298 -0.0717
 8942WAT      O36487   0.739   7.216   2.954  0.5888 -0.2343  0.0068
 8942WAT     H136488   0.812   7.172   2.971 -0.5430 -1.5328  1.8198
 8942WAT     H236489   0.703   7.171   2.888  1.4458  0.4998 -0.9960
 8942WAT    EPW36490   0.744   7.203   2.946  0.5482 -0.3177  0.1265
 8943WAT      O36491   5.645   2.290   6.464  0.4384 -0.1468 -0.0691
 8943WAT     H136492   5.679   2.341   6.526  1.6397  0.1224 -0.9239
 8943WAT     H236493   5.564   2.322   6.454  0.5368  0.3873  0.7067
 8943WAT    EPW36494   5.638   2.302   6.472  0.6304 -0.0281 -0.0808
 8944WAT      O36495   0.987   4.766   3.455 -0.1547 -0.1368  0.6577
 8944WAT     H136496   0.962   4.839   3.413  0.6943 -1.1723 -1.8467
 8944WAT     H236497   1.070   4.756   3.432 -0.8047 -3.0252 -0.9557
 8944WAT    EPW36498   0.995   4.775   3.445 -0.1253 -0.7165  0.0494
 8945WAT      O36499   0.031   3.899   4.689  0.4938  0.0721  0.0401
 8945WAT     H136500   0.046   3.916   4.773  0.2488 -1.5892  0.4585
 8945WAT     H236501   0.105   3.921   4.650  0.8085  0.3481  0.7756
 8945WAT    EPW36502   0.044   3.905   4.696  0.5041 -0.1325  0.2106
 8946WAT      O36503   3.505   6.888   0.012  0.0470 -0.0800 -0.2846
 8946WAT     H136504   3.581   6.918   0.041  1.3266  0.5835 -3.7471
 8946WAT     H236505   3.461   6.960  -0.011 -1.1306 -0.5202  0.4688
 8946WAT    EPW36506   3.510   6.903   0.013  0.0621 -0.0470 -0.6848
 8947WAT      O36507   2.317   6.207   4.132 -0.2930 -0.1478  0.0093
 8947WAT     H136508   2.347   6.288   4.141  0.5371 -0.3036 -1.1233
 8947WAT     H236509   2.249   6.216   4.077  0.6148 -0.3430 -1.1990
 8947WAT    EPW36510   2.311   6.220   4.125 -0.0363 -0.1997 -0.3365
 8948WAT      O36511   6.349   3.948   0.463  0.4932  0.0531  0.1558
 8948WAT     H136512   6.399   3.982   0.525  0.1837  2.5562 -0.8298
 8948WAT     H236513   6.371   3.993   0.392 -2.3702  0.5559 -0.5410
 8948WAT    EPW36514   6.360   3.959   0.461  0.0245  0.4971 -0.0927
 8949WAT      O36515   2.748   6.619   0.099 -0.2965  0.0642  0.0599
 8949WAT     H136516   2.729   6.702   0.080 -0.9291  0.2135  1.2593
 8949WAT     H236517   2.678   6.591   0.143  0.0746 -0.9878  0.0163
 8949WAT    EPW36518   2.735   6.627   0.103 -0.3351 -0.0691  0.2306
 8950WAT      O36519   1.954   0.524   4.334 -0.3140 -0.3059 -0.7228
 8950WAT     H136520   2.004   0.488   4.396 -0.8898  3.0667  2.0168
 8950WAT     H236521   2.008   0.580   4.295 -1.4606  3.0426  1.9677
 8950WAT    EPW36522   1.970   0.527   4.337 -0.5685  0.6870  0.0793
 8951WAT      O36523   7.006   4.029   2.112  0.6665  0.4736 -0.0916
 8951WAT     H136524   7.002   4.046   2.198  0.6828  1.3185 -0.2432
 8951WAT     H236525   7.078   4.070   2.087  0.2380  0.9114 -0.6388
 8951WAT    EPW36526   7.016   4.038   2.121  0.6056  0.6631 -0.1948
 8952WAT      O36527   3.156   3.210   2.992  0.0444 -0.2529  0.0328
 8952WAT     H136528   3.193   3.132   3.006 -0.3787 -0.4893 -0.1586
 8952WAT     H236529   3.201   3.263   3.045 -0.9554 -0.9572  1.6595
 8952WAT    EPW36530   3.168   3.206   3.002 -0.1658 -0.3918  0.2448
 8953WAT      O36531   4.222   3.449   3.603 -0.9490  0.3604 -0.5894
 8953WAT     H136532   4.153   3.502   3.602 -0.2278  1.3377 -0.3194
 8953WAT     H236533   4.284   3.495   3.563 -0.0798  0.0332  0.3341
 8953WAT    EPW36534   4.221   3.464   3.597 -0.7141  0.4565 -0.4131
 8954WAT      O36535   5.628   3.792   2.896 -0.5357 -0.1183 -0.1118
 8954WAT     H136536   5.669   3.745   2.957 -1.0429  0.3507  0.6005
 8954WAT     H236537   5.636   3.743   2.824  2.4024  0.5493 -0.3534
 8954WAT    EPW36538   5.635   3.777   2.894 -0.1766  0.0496 -0.0423
 8955WAT      O36539   2.587   3.160   1.211  0.0131  0.3248 -0.0587
 8955WAT     H136540   2.658   3.144   1.162 -0.5800  0.3855 -0.9549
 8955WAT     H236541   2.556   3.081   1.229  1.0462  0.2315  1.4824
 8955WAT    EPW36542   2.593   3.146   1.206  0.0781  0.3200  0.0366
 8956WAT      O36543   1.985   4.551   3.627 -0.2159  0.0066  0.3024
 8956WAT     H136544   2.037   4.495   3.670 -0.2339  0.5273  1.0357
 8956WAT     H236545   1.906   4.514   3.632 -0.0906 -0.2931  0.0793
 8956WAT    EPW36546   1.981   4.537   3.634 -0.2001  0.0392  0.3778
 8957WAT      O36547   3.994   6.454   3.549 -0.5284  0.2754  0.4144
 8957WAT     H136548   4.019   6.414   3.623 -1.8712  0.2370  0.8796
 8957WAT     H236549   4.039   6.529   3.551 -0.4117  0.1993  1.1781
 8957WAT    EPW36550   4.005   6.459   3.560 -0.7095  0.2585  0.5959
 8958WAT      O36551   2.255   4.837   5.293 -0.0749  0.3674 -0.0374
 8958WAT     H136552   2.242   4.917   5.325  0.0653 -0.1830  1.5030
 8958WAT     H236553   2.220   4.840   5.214 -1.5771  1.4800  0.6213
 8958WAT    EPW36554   2.248   4.849   5.286 -0.2761  0.4505  0.2874
 8959WAT      O36555   6.785   2.718   5.693  0.7921 -0.7003  0.0354
 8959WAT     H136556   6.765   2.803   5.698  0.0207 -0.8207 -0.8006
 8959WAT     H236557   6.709   2.680   5.673  1.3309 -1.4672 -0.6419
 8959WAT    EPW36558   6.771   2.725   5.691  0.7577 -0.8313 -0.1882
 8960WAT      O36559   1.895   1.431   4.510  0.3897 -0.4088 -0.2213
 8960WAT     H136560   1.932   1.352   4.508 -1.0072 -1.2174  2.0889
 8960WAT     H236561   1.810   1.414   4.514  0.1086  1.1041  1.8020
 8960WAT    EPW36562   1.888   1.417   4.511  0.1418 -0.3048  0.4188
 8961WAT      O36563   5.681   2.996   6.286  0.9679 -0.1756 -0.8506
 8961WAT     H136564   5.597   2.982   6.268  0.9285 -1.5680  0.2647
 8961WAT     H236565   5.722   2.974   6.213  0.5112 -1.6893 -0.6764
 8961WAT    EPW36566   5.674   2.991   6.273  0.8946 -0.6049 -0.6601
 8962WAT      O36567   4.971   3.378   0.074  0.3669 -0.1358  0.0184
 8962WAT     H136568   5.027   3.408   0.014  0.6997 -0.5414  0.1192
 8962WAT     H236569   4.903   3.431   0.067  0.1276 -0.5763 -1.1667
 8962WAT    EPW36570   4.969   3.390   0.064  0.3807 -0.2608 -0.1418
 8963WAT      O36571   4.433   5.157   3.164  0.3580  0.5221  0.3929
 8963WAT     H136572   4.363   5.175   3.211  0.6484  0.0693  1.0148
 8963WAT     H236573   4.446   5.071   3.178  1.0143  0.5944  0.2658
 8963WAT    EPW36574   4.425   5.147   3.173  0.4979  0.4659  0.4660
 8964WAT      O36575   5.718   2.525   2.364  0.0744  0.2221 -0.5293
 8964WAT     H136576   5.732   2.516   2.450 -0.1337  0.4110 -0.4744
 8964WAT     H236577   5.796   2.508   2.329 -0.1955 -1.4514 -0.4045
 8964WAT    EPW36578   5.731   2.521   2.372  0.0038  0.0028 -0.5027
 8965WAT      O36579   2.088   6.035   7.317 -0.0026  0.1894 -0.0072
 8965WAT     H136580   2.126   5.962   7.344  0.8266 -0.4463 -2.6264
 8965WAT     H236581   2.003   6.022   7.336  0.5942  0.6545  3.7804
 8965WAT    EPW36582   2.081   6.022   7.324  0.2081  0.1642  0.1654
 8966WAT      O36583   5.490   4.277   6.413 -0.1796 -0.3252  0.8950
 8966WAT     H136584   5.408   4.249   6.424 -0.6698  0.7251  0.1490
 8966WAT     H236585   5.481   4.364   6.408  0.9784 -0.1991  0.7768
 8966WAT    EPW36586   5.476   4.286   6.414 -0.0810 -0.1514  0.7674
 8967WAT      O36587   5.492   4.930   2.901 -0.0007  0.4042 -0.2866
 8967WAT     H136588   5.479   4.879   2.832  2.1748  0.1353 -0.5814
 8967WAT     H236589   5.571   4.964   2.886 -0.0283  1.3488  1.4646
 8967WAT    EPW36590   5.502   4.928   2.889  0.3166  0.5040 -0.0714
 8968WAT      O36591   2.132   0.899   4.316 -0.0435  0.7264 -0.1807
 8968WAT     H136592   2.149   0.886   4.401  0.2870  1.4212 -0.1304
 8968WAT     H236593   2.187   0.963   4.294 -0.1996  0.6233 -0.8984
 8968WAT    EPW36594   2.143   0.906   4.326 -0.0178  0.8138 -0.2793
 8969WAT      O36595   3.907   1.497   0.035 -0.2071 -0.1261 -0.2737
 8969WAT     H136596   3.865   1.573   0.030  0.9941  0.6176  0.6883
 8969WAT     H236597   3.946   1.489  -0.042 -1.0442 -0.2076 -0.6989
 8969WAT    EPW36598   3.906   1.507   0.023 -0.1533 -0.0283 -0.1944
 8970WAT      O36599   6.668   6.782   3.008 -0.4162  0.2205 -0.4760
 8970WAT     H136600   6.686   6.807   2.926 -0.8103 -1.4764 -1.1348
 8970WAT     H236601   6.735   6.731   3.029 -0.5572  0.2574  0.0691
 8970WAT    EPW36602   6.680   6.778   2.999 -0.4953 -0.0247 -0.4928
 8971WAT      O36603   0.128   0.193   0.591  0.5463  0.1474 -1.2168
 8971WAT     H136604   0.119   0.125   0.536  1.8244  0.6517 -2.1001
 8971WAT     H236605   0.074   0.253   0.558 -2.2852 -1.0857  0.8071
 8971WAT    EPW36606   0.119   0.192   0.578  0.3168  0.0398 -1.0483
 8972WAT      O36607   5.138   1.178   2.779 -0.3476 -0.5696  0.3223
 8972WAT     H136608   5.211   1.191   2.733 -0.4244  2.0845  0.7711
 8972WAT     H236609   5.143   1.237   2.843 -2.6021 -0.7250  0.7232
 8972WAT    EPW36610   5.150   1.189   2.781 -0.6920 -0.2005  0.4478
 8973WAT      O36611   4.805   2.038   0.141  0.5031 -0.0303 -0.3500
 8973WAT     H136612   4.805   2.094   0.074  0.8615 -0.0142 -0.3363
 8973WAT     H236613   4.751   2.076   0.198 -0.3140 -0.3642 -0.8916
 8973WAT    EPW36614   4.797   2.052   0.140  0.4354 -0.0773 -0.4280
 8974WAT      O36615   0.716   6.830   7.179 -0.0129  0.7629  0.2467
 8974WAT     H136616   0.719   6.745   7.157 -0.2181  0.0685  2.6013
 8974WAT     H236617   0.631   6.844   7.193  0.1538  1.0141  1.0451
 8974WAT    EPW36618   0.704   6.819   7.178 -0.0186  0.6975  0.7125
 8975WAT      O36619   1.237   1.925   7.384  0.2678 -0.3289  0.0240
 8975WAT     H136620   1.266   1.959   7.459  0.0498 -0.8156  0.3369
 8975WAT     H236621   1.223   1.841   7.404 -0.2632 -0.3532 -0.4261
 8975WAT    EPW36622   1.239   1.917   7.398  0.1571 -0.4044  0.0038
 8976WAT      O36623   2.431   5.171   2.140  0.7591  0.0138  0.1317
 8976WAT     H136624   2.364   5.143   2.092 -0.5816  2.3868  0.5029
 8976WAT     H236625   2.494   5.186   2.082  1.3107 -2.7644 -0.1741
 8976WAT    EPW36626   2.430   5.169   2.125  0.6425 -0.0461  0.1414
 8977WAT      O36627   2.220   3.995   3.435 -0.4838  0.3817 -0.2895
 8977WAT     H136628   2.290   3.943   3.434 -0.4061  0.4745  0.1040
 8977WAT     H236629   2.220   4.028   3.516 -1.4795 -0.3045  0.0196
 8977WAT    EPW36630   2.230   3.992   3.447 -0.6194  0.2940 -0.1857
 8978WAT      O36631   2.651   5.323   3.090  0.3257 -0.4055 -0.5024
 8978WAT     H136632   2.671   5.251   3.044  0.1172 -0.7502 -0.0657
 8978WAT     H236633   2.662   5.297   3.173 -3.0013 -1.0267 -0.1023
 8978WAT    EPW36634   2.655   5.308   3.095 -0.1966 -0.5482 -0.3788
 8979WAT      O36635   2.259   4.806   4.706  0.3735 -0.4270 -0.8447
 8979WAT     H136636   2.275   4.861   4.771 -1.7241 -0.7649  0.0345
 8979WAT     H236637   2.312   4.738   4.722  1.6050  0.4946 -0.8867
 8979WAT    EPW36638   2.270   4.804   4.718  0.2456 -0.3408 -0.7210
 8980WAT      O36639   5.922   6.280   5.566 -0.2271 -0.1423  0.2200
 8980WAT     H136640   5.852   6.302   5.613 -1.2699 -2.3179 -0.1837
 8980WAT     H236641   5.975   6.244   5.625 -0.3110 -0.2552  0.2293
 8980WAT    EPW36642   5.919   6.278   5.582 -0.3936 -0.4803  0.1618
 8981WAT      O36643   2.022   0.396   5.137  0.0508 -0.2189 -0.1292
 8981WAT     H136644   2.025   0.313   5.113  0.1441 -0.0166 -0.8457
 8981WAT     H236645   1.939   0.407   5.163  0.7653 -1.3287  3.0288
 8981WAT    EPW36646   2.010   0.386   5.137  0.1701 -0.3530  0.2314
 8982WAT      O36647   1.482   5.157   0.212 -0.1715 -0.0129  0.2323
 8982WAT     H136648   1.488   5.094   0.152  1.5700  0.5086 -0.1955
 8982WAT     H236649   1.481   5.230   0.164  0.8620  0.3956  0.8198
 8982WAT    EPW36650   1.482   5.158   0.196  0.2384  0.1245  0.2559
 8983WAT      O36651   6.399   2.532   2.496  0.1569 -0.3915 -0.2900
 8983WAT     H136652   6.344   2.490   2.550 -2.6683  1.8337 -1.1520
 8983WAT     H236653   6.439   2.589   2.548 -0.2186 -0.3813 -0.0040
 8983WAT    EPW36654   6.397   2.534   2.512 -0.3159 -0.0613 -0.3751
 8984WAT      O36655   6.890   3.319   1.993 -0.0169 -0.1265 -0.2652
 8984WAT     H136656   6.967   3.341   2.028  1.6868 -0.4231 -3.4981
 8984WAT     H236657   6.900   3.235   1.972 -1.6283 -0.4529  0.1233
 8984WAT    EPW36658   6.903   3.310   1.995 -0.0033 -0.2185 -0.6854
 8985WAT      O36659   5.783   1.155   0.704 -0.1886 -0.1771 -0.2514
 8985WAT     H136660   5.700   1.153   0.679 -0.1377 -1.2215 -0.3672
 8985WAT     H236661   5.790   1.087   0.758  0.2779  0.6696  0.8004
 8985WAT    EPW36662   5.772   1.144   0.708 -0.1122 -0.2063 -0.1131
 8986WAT      O36663   2.843   5.128   6.646 -0.3262  0.0712 -0.7126
 8986WAT     H136664   2.854   5.074   6.713 -2.1670 -0.3573 -0.6982
 8986WAT     H236665   2.923   5.134   6.611  0.1817 -1.6836  0.0218
 8986WAT    EPW36666   2.857   5.121   6.651 -0.5231 -0.2513 -0.6020
 8987WAT      O36667   3.192   0.714   7.236 -1.0907  0.0615 -0.8796
 8987WAT     H136668   3.121   0.765   7.233 -0.8553  0.6415  1.3477
 8987WAT     H236669   3.170   0.653   7.294  0.3883  0.6162  0.3366
 8987WAT    EPW36670   3.178   0.713   7.244 -0.8375  0.2291 -0.3709
 8988WAT      O36671   2.109   3.171   7.325 -0.0577  0.5235  0.0029
 8988WAT     H136672   2.131   3.095   7.363  0.3499 -0.3120 -1.7755
 8988WAT     H236673   2.102   3.226   7.392  0.9006 -0.7811  1.2528
 8988WAT    EPW36674   2.112   3.168   7.340  0.1441  0.2073 -0.0752
 8989WAT      O36675   6.216   2.450   6.357  0.0770 -0.1237 -0.4600
 8989WAT     H136676   6.203   2.379   6.404 -1.0620 -0.0127 -0.5853
 8989WAT     H236677   6.158   2.507   6.389  2.7381  1.7081  1.5001
 8989WAT    EPW36678   6.206   2.448   6.368  0.3019  0.1633 -0.1890
 8990WAT      O36679   6.862   4.896   5.323 -0.3989 -0.0714 -0.2442
 8990WAT     H136680   6.849   4.976   5.290  1.0471  0.2101 -0.1821
 8990WAT     H236681   6.873   4.847   5.252 -0.0597  0.0207 -0.2579
 8990WAT    EPW36682   6.862   4.901   5.307 -0.1352 -0.0162 -0.2370
 8991WAT      O36683   7.257   5.818   2.565  0.2135 -0.0446 -0.3249
 8991WAT     H136684   7.283   5.835   2.647 -0.9104 -2.9493  0.7925
 8991WAT     H236685   7.187   5.869   2.555 -1.2322 -1.4742  1.6267
 8991WAT    EPW36686   7.251   5.828   2.576 -0.1661 -0.6848  0.1285
 8992WAT      O36687   4.340   4.490   6.131  0.3639  0.5214 -0.6677
 8992WAT     H136688   4.311   4.543   6.067 -2.7471 -0.5033 -0.3081
 8992WAT     H236689   4.325   4.410   6.099  0.3266 -0.0362  0.6761
 8992WAT    EPW36690   4.333   4.486   6.117 -0.1012  0.2877 -0.4160
 8993WAT      O36691   2.041   5.810   5.323  0.3332  0.1525 -0.2249
 8993WAT     H136692   2.109   5.854   5.358  2.4206 -1.4826 -1.9264
 8993WAT     H236693   2.051   5.823   5.237 -0.5885 -1.3877 -0.5931
 8993WAT    EPW36694   2.053   5.819   5.315  0.5054 -0.3165 -0.5306
 8994WAT      O36695   2.080   3.501   5.632 -0.5243 -0.1428  0.7725
 8994WAT     H136696   2.025   3.514   5.565  0.5164 -2.7187 -0.7526
 8994WAT     H236697   2.064   3.418   5.655  0.9804 -0.1425  1.9684
 8994WAT    EPW36698   2.069   3.490   5.626 -0.1483 -0.5233  0.7239
 8995WAT      O36699   3.201   6.801   2.940  0.6325  0.5218 -0.6478
 8995WAT     H136700   3.123   6.827   2.968 -0.0560  0.0118 -2.0252
 8995WAT     H236701   3.255   6.862   2.973 -0.0587 -0.0740  1.8294
 8995WAT    EPW36702   3.198   6.814   2.949  0.4287  0.3584 -0.4854
 8996WAT      O36703   1.349   7.005   3.670  0.0359 -0.1248  0.2885
 8996WAT     H136704   1.344   6.930   3.626  1.9882 -0.6808  0.9139
 8996WAT     H236705   1.422   6.996   3.717 -0.0033  1.9438  0.8225
 8996WAT    EPW36706   1.359   6.992   3.670  0.3185  0.0986  0.4598
 8997WAT      O36707   5.295   2.202   0.581 -0.3747 -0.0357  0.2591
 8997WAT     H136708   5.331   2.213   0.503  0.5658 -1.1346  0.5101
 8997WAT     H236709   5.229   2.147   0.565  0.0173 -0.5188  0.2734
 8997WAT    EPW36710   5.290   2.195   0.567 -0.1778 -0.2694  0.2983
 8998WAT      O36711   3.912   6.457   6.110 -0.4389 -0.2416  0.2151
 8998WAT     H136712   3.921   6.532   6.154 -1.3947  0.5959 -0.9520
 8998WAT     H236713   3.951   6.398   6.162  0.2377  1.0276  1.2157
 8998WAT    EPW36714   3.919   6.459   6.124 -0.4801  0.0696  0.1905
 8999WAT      O36715   3.956   1.281   4.987  0.0695  0.6592 -0.2965
 8999WAT     H136716   3.913   1.318   5.053 -1.1768  1.9918 -1.7474
 8999WAT     H236717   3.896   1.277   4.923  1.3823  0.0715 -1.5621
 8999WAT    EPW36718   3.940   1.286   4.987  0.0793  0.7692 -0.6978
 9000WAT      O36719   3.775   3.034   6.159 -0.1139 -0.1379  0.1566
 9000WAT     H136720   3.787   3.120   6.161  1.8480 -0.1542 -3.2201
 9000WAT     H236721   3.717   3.022   6.096 -0.0735 -1.3281  0.3079
 9000WAT    EPW36722   3.768   3.045   6.150  0.1819 -0.3162 -0.3198
 9001WAT      O36723   5.812   4.764   3.436  0.4124 -0.1590  0.0973
 9001WAT     H136724   5.789   4.842   3.404  0.4404  0.1930  0.9022
 9001WAT     H236725   5.899   4.770   3.443  0.3663 -0.0879  0.6073
 9001WAT    EPW36726   5.822   4.776   3.432  0.4097 -0.0965  0.2915
 9002WAT      O36727   6.359   2.706   2.993 -0.4469 -0.0122  0.4390
 9002WAT     H136728   6.387   2.647   3.051  1.2163  0.5454  0.2497
 9002WAT     H236729   6.369   2.782   3.035 -0.1981  0.3189 -0.2162
 9002WAT    EPW36730   6.365   2.708   3.008 -0.1645  0.1190  0.3142
 9003WAT      O36731   4.550   0.346   1.326  0.2059  0.2081 -0.0137
 9003WAT     H136732   4.532   0.263   1.347  1.3105 -0.2353 -0.7327
 9003WAT     H236733   4.492   0.391   1.372  0.2653 -0.9054  1.2434
 9003WAT    EPW36734   4.539   0.340   1.336  0.3778 -0.0219  0.0658
 9004WAT      O36735   3.793   3.897   0.896  0.6726 -0.3256  0.2867
 9004WAT     H136736   3.763   3.947   0.831 -1.2561  0.5005  1.6799
 9004WAT     H236737   3.734   3.834   0.902  1.5271 -1.1288  0.4267
 9004WAT    EPW36738   3.780   3.895   0.887  0.5139 -0.3222  0.5132
 9005WAT      O36739   7.119   6.899   4.226 -0.0542 -0.1977  0.0677
 9005WAT     H136740   7.056   6.869   4.278  1.7077  0.0209  2.5217
 9005WAT     H236741   7.152   6.826   4.191  0.2457 -0.6082  1.1605
 9005WAT    EPW36742   7.115   6.884   4.229  0.2504 -0.2261  0.5916
 9006WAT      O36743   4.739   1.487   2.664 -0.3768 -0.0332 -0.7475
 9006WAT     H136744   4.675   1.471   2.607 -0.0746 -0.9283 -0.8513
 9006WAT     H236745   4.802   1.522   2.615 -0.2287 -0.5313 -0.9191
 9006WAT    EPW36746   4.739   1.490   2.648 -0.3103 -0.2390 -0.7882
 9007WAT      O36747   4.241   6.852   7.195 -0.3298  0.4236  0.1824
 9007WAT     H136748   4.255   6.928   7.236  0.4430  0.8968 -0.8845
 9007WAT     H236749   4.185   6.810   7.247 -1.1913  1.9380  0.5564
 9007WAT    EPW36750   4.235   6.857   7.209 -0.3429  0.7172  0.0801
 9008WAT      O36751   7.244   1.316   3.546 -0.3403  0.1568  0.2034
 9008WAT     H136752   7.177   1.336   3.493  1.1515  1.7892 -1.2135
 9008WAT     H236753   7.313   1.316   3.492  0.8783 -0.9876  1.6852
 9008WAT    EPW36754   7.244   1.319   3.530  0.0601  0.2289  0.2130
 9009WAT      O36755   6.454   5.215   5.562 -0.2972 -0.0593 -0.6536
 9009WAT     H136756   6.506   5.148   5.583 -0.8959 -0.8647 -1.7128
 9009WAT     H236757   6.416   5.236   5.638 -1.0156 -1.7127 -0.5239
 9009WAT    EPW36758   6.456   5.208   5.577 -0.4918 -0.4225 -0.7909
 9010WAT      O36759   0.337   1.977   1.045 -0.2740 -0.2285 -0.3470
 9010WAT     H136760   0.261   2.007   1.077 -0.3665  2.0444 -2.4278
 9010WAT     H236761   0.318   1.959   0.962  1.7053  1.5577 -1.2607
 9010WAT    EPW36762   0.323   1.979   1.037  0.0047  0.3711 -0.7893
 9011WAT      O36763   0.679   0.614   6.940  0.0285 -0.4007  0.0627
 9011WAT     H136764   0.686   0.593   6.855  0.6830  1.6257 -0.4473
 9011WAT     H236765   0.595   0.596   6.958 -0.3084 -0.2576 -1.2085
 9011WAT    EPW36766   0.667   0.608   6.930  0.0754 -0.0802 -0.2004
 9012WAT      O36767   3.620   5.455   4.262 -0.0060 -0.0011  0.1962
 9012WAT     H136768   3.607   5.536   4.233  1.3776  0.1591 -0.0834
 9012WAT     H236769   3.647   5.467   4.344  0.1071 -0.1730  0.1844
 9012WAT    EPW36770   3.622   5.469   4.270  0.2151 -0.0028  0.1531
 9013WAT      O36771   1.697   6.351   3.224  0.4566 -0.0040  0.0176
 9013WAT     H136772   1.662   6.396   3.290  1.3713  2.4415 -1.0276
 9013WAT     H236773   1.722   6.413   3.168  3.5126 -1.7117 -0.7503
 9013WAT    EPW36774   1.695   6.367   3.225  1.0432  0.1050 -0.2502
 9014WAT      O36775   6.697   2.411   3.551 -0.4568 -0.3738 -0.0655
 9014WAT     H136776   6.620   2.373   3.534 -0.1968 -1.1002  0.2963
 9014WAT     H236777   6.714   2.385   3.633  0.3723 -0.5717 -0.2905
 9014WAT    EPW36778   6.688   2.401   3.561 -0.2959 -0.5103 -0.0453
 9015WAT      O36779   7.192   2.248   3.117  0.0636 -0.5262  0.2672
 9015WAT     H136780   7.177   2.166   3.091  0.8371 -0.4176 -0.5917
 9015WAT     H236781   7.117   2.272   3.155  0.1190 -1.9119  1.3327
 9015WAT    EPW36782   7.179   2.240   3.119  0.1861 -0.7148  0.2977
 9016WAT      O36783   7.267   2.583   5.560 -0.1625  0.5035  0.0093
 9016WAT     H136784   7.354   2.587   5.558 -0.1761  0.6848 -0.7625
 9016WAT     H236785   7.251   2.498   5.573  0.1667 -0.1078 -2.8319
 9016WAT    EPW36786   7.277   2.571   5.561 -0.1159  0.4399 -0.5244
 9017WAT      O36787   4.394   2.053   2.589 -0.3084  0.0839  0.1401
 9017WAT     H136788   4.475   2.087   2.587 -1.0204  2.2200 -3.9144
 9017WAT     H236789   4.358   2.090   2.659  1.0302  2.5555 -0.3390
 9017WAT    EPW36790   4.401   2.063   2.599 -0.2158  0.7646 -0.5296
 9018WAT      O36791   3.707   5.826   7.227  0.3056  0.7526 -0.3144
 9018WAT     H136792   3.661   5.876   7.173  0.0372  0.8817  0.0287
 9018WAT     H236793   3.726   5.879   7.293  1.6296  0.9302 -0.8067
 9018WAT    EPW36794   3.703   5.841   7.229  0.4615  0.7979 -0.3365
 9019WAT      O36795   5.882   3.398   1.904 -0.1963  0.4631  0.1961
 9019WAT     H136796   5.947   3.413   1.847  0.4303 -0.4574  0.6493
 9019WAT     H236797   5.829   3.466   1.891  0.5701  0.9503 -0.5839
 9019WAT    EPW36798   5.884   3.410   1.893  0.0095  0.3991  0.1479
 9020WAT      O36799   0.740   6.719   0.731  0.0406 -0.6443  0.1492
 9020WAT     H136800   0.820   6.729   0.764  0.2588 -0.8050 -0.3201
 9020WAT     H236801   0.719   6.637   0.753 -0.2501 -0.4015  0.8038
 9020WAT    EPW36802   0.749   6.708   0.739  0.0299 -0.6322  0.1765
 9021WAT      O36803   1.841   6.354   5.686  0.0744 -0.1179  0.0250
 9021WAT     H136804   1.792   6.296   5.730  0.7907  0.1452  1.1952
 9021WAT     H236805   1.786   6.384   5.625  0.1200 -3.1494 -1.6676
 9021WAT    EPW36806   1.825   6.350   5.683  0.1870 -0.5268 -0.0522
 9022WAT      O36807   2.181   2.752   3.113 -0.3151  0.8804 -0.4919
 9022WAT     H136808   2.110   2.782   3.154 -0.3981  0.7623 -0.5520
 9022WAT     H236809   2.247   2.781   3.163 -0.3974  1.1300 -0.5274
 9022WAT    EPW36810   2.180   2.761   3.127 -0.3396  0.8998 -0.5060
 9023WAT      O36811   0.439   6.798   7.398  0.6735 -0.2045 -0.5490
 9023WAT     H136812   0.488   6.864   7.428  0.3621 -0.5111  0.7088
 9023WAT     H236813   0.432   6.814   7.313  0.6554  1.3663 -0.2775
 9023WAT    EPW36814   0.445   6.810   7.390  0.6248 -0.0178 -0.3231
 9024WAT      O36815   0.396   2.221   6.622  0.0562 -0.0071  0.3062
 9024WAT     H136816   0.380   2.288   6.675  1.1455 -0.1746  0.8812
 9024WAT     H236817   0.321   2.210   6.579 -0.5096  0.8215  1.0498
 9024WAT    EPW36818   0.382   2.229   6.624  0.1336  0.0906  0.5010
 9025WAT      O36819   3.532   3.823   5.579 -0.3448  0.0224  0.3311
 9025WAT     H136820   3.452   3.829   5.545 -0.2688  0.3254  0.2059
 9025WAT     H236821   3.584   3.821   5.509 -0.3126 -1.5481  0.3523
 9025WAT    EPW36822   3.528   3.824   5.563 -0.3288 -0.1648  0.3158
 9026WAT      O36823   3.493   3.534   1.088 -0.3208 -0.0389  0.2769
 9026WAT     H136824   3.489   3.570   1.167  1.3450  0.4352  0.1721
 9026WAT     H236825   3.414   3.497   1.079 -0.7496  0.3841  1.9086
 9026WAT    EPW36826   3.481   3.534   1.099 -0.1381  0.0936  0.5025
 9027WAT      O36827   6.620   4.614   4.141 -0.1566 -0.5519 -0.5363
 9027WAT     H136828   6.623   4.604   4.055 -0.3922  0.9922 -0.7506
 9027WAT     H236829   6.621   4.700   4.152  1.3371 -0.7204  1.0710
 9027WAT    EPW36830   6.621   4.625   4.130  0.0292 -0.3487 -0.3305
 9028WAT      O36831   3.153   4.154   6.376  0.2020 -0.4109  0.1632
 9028WAT     H136832   3.212   4.208   6.340 -1.3148  0.1139 -1.6604
 9028WAT     H236833   3.184   4.075   6.356  1.3948 -0.2266  1.1257
 9028WAT    EPW36834   3.166   4.150   6.368  0.1541 -0.3062  0.0360
 9029WAT      O36835   0.427   4.377   2.863  0.3764 -0.4268  0.2778
 9029WAT     H136836   0.450   4.382   2.947  0.7938 -1.2069  0.2279
 9029WAT     H236837   0.367   4.440   2.854 -0.1261 -0.7262  1.3104
 9029WAT    EPW36838   0.421   4.387   2.874  0.3638 -0.5863  0.4230
 9030WAT      O36839   3.178   0.000   5.260 -0.2696 -0.4357  0.0979
 9030WAT     H136840   3.197   0.057   5.197 -0.3599 -1.1781 -0.6175
 9030WAT     H236841   3.118   0.042   5.308  0.2805  0.3946  0.0887
 9030WAT    EPW36842   3.172   0.015   5.258 -0.2017 -0.4227 -0.0091
 9031WAT      O36843   1.611   4.495   2.045 -0.1933 -0.1125  0.1529
 9031WAT     H136844   1.633   4.558   2.101 -0.4954  0.9705 -0.9185
 9031WAT     H236845   1.677   4.438   2.050  0.6818  0.8890  0.2368
 9031WAT    EPW36846   1.624   4.496   2.054 -0.1086  0.1955  0.0070
 9032WAT      O36847   5.035   1.713   5.133  0.4406 -0.2754  0.5639
 9032WAT     H136848   4.957   1.730   5.169 -0.0365 -1.5032  0.1554
 9032WAT     H236849   5.090   1.760   5.182 -0.5841  0.9225  0.6153
 9032WAT    EPW36850   5.031   1.722   5.146  0.2187 -0.2798  0.5111
 9033WAT      O36851   4.260   2.983   5.036  0.1398  0.1112 -0.3785
 9033WAT     H136852   4.253   3.069   5.044  2.2382  0.3072 -0.1278
 9033WAT     H236853   4.341   2.966   5.063 -0.1632 -1.9278 -0.5762
 9033WAT    EPW36854   4.271   2.993   5.041  0.4050 -0.1610 -0.3706
 9034WAT      O36855   3.931   0.249   1.194 -0.1465  0.1447  0.2031
 9034WAT     H136856   3.918   0.206   1.269 -3.2023 -0.6630 -0.6401
 9034WAT     H236857   3.934   0.186   1.134  0.8299  0.8618 -0.5482
 9034WAT    EPW36858   3.929   0.234   1.196 -0.4537  0.1313 -0.0325
 9035WAT      O36859   3.872   1.377   5.565 -0.1191  0.2108  0.7053
 9035WAT     H136860   3.901   1.458   5.550  1.6988 -0.6211 -0.5815
 9035WAT     H236861   3.944   1.332   5.586 -1.0638 -1.1378  1.2549
 9035WAT    EPW36862   3.887   1.382   5.566  0.0099 -0.1113  0.5964
 9036WAT      O36863   5.640   3.772   6.998  0.4027 -0.1618 -0.1946
 9036WAT     H136864   5.633   3.743   6.916 -1.0222 -2.5304  0.6740
 9036WAT     H236865   5.570   3.824   7.007  0.6547  0.2375 -0.5170
 9036WAT    EPW36866   5.628   3.775   6.987  0.2295 -0.4527 -0.1139
 9037WAT      O36867   6.108   4.181   3.363  0.4301  0.2585 -0.0069
 9037WAT     H136868   6.138   4.100   3.370  0.7790  0.3597 -0.2583
 9037WAT     H236869   6.057   4.191   3.433  1.6683  0.3669  0.9251
 9037WAT    EPW36870   6.105   4.171   3.374  0.6646  0.2894  0.0937
 9038WAT      O36871   4.970   1.085   5.768 -0.3247  0.4119 -0.1729
 9038WAT     H136872   4.920   1.119   5.830  0.6139  1.9328 -0.1878
 9038WAT     H236873   4.966   0.999   5.783  0.4654  0.7470  2.4969
 9038WAT    EPW36874   4.962   1.077   5.780 -0.0694  0.6861  0.2193
 9039WAT      O36875   6.629   0.358   4.110 -0.3834 -0.3004 -0.4424
 9039WAT     H136876   6.674   0.376   4.182  0.1135  0.0564 -0.8269
 9039WAT     H236877   6.552   0.330   4.139 -1.5055  3.0875  0.2518
 9039WAT    EPW36878   6.624   0.356   4.125 -0.4757  0.2528 -0.3967
 9040WAT      O36879   5.473   1.878   2.498 -0.3217  0.0201 -0.3326
 9040WAT     H136880   5.535   1.906   2.443  0.3584 -0.7779  0.0033
 9040WAT     H236881   5.428   1.951   2.516  1.0515  0.8118  0.0863
 9040WAT    EPW36882   5.476   1.893   2.493 -0.0184  0.0191 -0.2211
 9041WAT      O36883   6.760   2.599   6.537 -0.0235  0.5298 -0.6955
 9041WAT     H136884   6.793   2.529   6.497  0.8792  0.9603 -0.7249
 9041WAT     H236885   6.774   2.583   6.622  0.2061  0.6881 -0.7039
 9041WAT    EPW36886   6.767   2.586   6.544  0.1438  0.6168 -0.7011
 9042WAT      O36887   6.359   1.017   0.389  0.1286  0.2747 -0.0979
 9042WAT     H136888   6.385   1.080   0.335  1.7570 -0.3343 -0.0805
 9042WAT     H236889   6.428   0.963   0.392 -0.3938 -0.3514  1.6001
 9042WAT    EPW36890   6.373   1.018   0.381  0.2920  0.0923  0.1555
 9043WAT      O36891   6.274   3.340   4.827 -0.6882 -0.4393  0.3591
 9043WAT     H136892   6.210   3.342   4.767 -0.0868 -0.7517 -0.3100
 9043WAT     H236893   6.251   3.273   4.879  0.4090 -2.3664 -1.4381
 9043WAT    EPW36894   6.261   3.330   4.826 -0.4373 -0.7701 -0.0052
 9044WAT      O36895   7.146   0.089   5.035  0.8324  0.1233 -0.0636
 9044WAT     H136896   7.105   0.161   5.064 -0.9441 -0.5202 -0.8222
 9044WAT     H236897   7.173   0.112   4.955  0.9086  0.1707 -0.0248
 9044WAT    EPW36898   7.144   0.103   5.028  0.5812  0.0352 -0.1699
 9045WAT      O36899   3.719   1.493   2.711  0.3056  0.2821 -0.2864
 9045WAT     H136900   3.641   1.531   2.704 -0.7857 -1.3428  1.9106
 9045WAT     H236901   3.770   1.558   2.740 -0.3427  1.2166 -1.1609
 9045WAT    EPW36902   3.715   1.508   2.714  0.0486  0.1801 -0.0910
 9046WAT      O36903   1.340   4.862   0.128 -0.0454  0.1008 -0.0990
 9046WAT     H136904   1.365   4.850   0.211  0.0079 -1.1704 -0.2854
 9046WAT     H236905   1.272   4.917   0.136 -1.1065 -1.2808  0.9673
 9046WAT    EPW36906   1.333   4.868   0.142 -0.1943 -0.2911  0.0310
 9047WAT      O36907   6.546   0.309   6.173  0.5408  0.0962 -0.3405
 9047WAT     H136908   6.611   0.252   6.187 -0.3891 -0.6750  1.0887
 9047WAT     H236909   6.546   0.359   6.244  0.1985  0.7457 -0.7821
 9047WAT    EPW36910   6.556   0.308   6.185  0.3528  0.0782 -0.1946
 9048WAT      O36911   2.577   0.178   3.367  0.5169 -0.0055 -0.4530
 9048WAT     H136912   2.581   0.206   3.449 -0.7237  2.2533 -1.0550
 9048WAT     H236913   2.521   0.112   3.370 -0.4045  0.7813  0.3853
 9048WAT    EPW36914   2.569   0.172   3.379  0.1975  0.4444 -0.4181
 9049WAT      O36915   6.028   3.819   4.381  0.0938 -0.0864  0.2899
 9049WAT     H136916   6.003   3.830   4.298 -1.1252  0.1189  0.6572
 9049WAT     H236917   6.025   3.900   4.414 -0.9416 -0.3627  0.9156
 9049WAT    EPW36918   6.024   3.833   4.374 -0.2392 -0.0969  0.4366
 9050WAT      O36919   6.007   0.835   3.354 -0.0863  0.0322 -0.0145
 9050WAT     H136920   6.004   0.822   3.440  2.8118 -1.6741 -0.0194
 9050WAT     H236921   5.958   0.906   3.341 -2.3912 -0.8873  2.6969
 9050WAT    EPW36922   5.999   0.843   3.365  0.0013 -0.3557  0.3853
 9051WAT      O36923   1.035   7.248   1.300  0.5201 -0.1442 -0.0223
 9051WAT     H136924   1.095   7.192   1.329  1.5556  0.8905 -0.1076
 9051WAT     H236925   1.043   7.316   1.353  0.0818  0.3995 -0.6425
 9051WAT    EPW36926   1.045   7.250   1.312  0.6084  0.0890 -0.1265
 9052WAT      O36927   6.612   6.043   0.900  0.0023 -0.0590 -0.2292
 9052WAT     H136928   6.559   5.979   0.874 -0.7932  0.7621 -0.6993
 9052WAT     H236929   6.575   6.073   0.973 -0.0480  0.3486 -0.4179
 9052WAT    EPW36930   6.598   6.038   0.907 -0.1227  0.1225 -0.3265
 9053WAT      O36931   6.822   7.051   4.524  0.1840 -0.0223  0.0035
 9053WAT     H136932   6.739   7.080   4.521  0.2534  0.0851 -1.7186
 9053WAT     H236933   6.834   7.033   4.608 -2.2982 -2.0396  0.0361
 9053WAT    EPW36934   6.811   7.053   4.536 -0.1724 -0.3044 -0.2461
 9054WAT      O36935   1.655   2.062   1.551  0.6081 -0.1087  0.0535
 9054WAT     H136936   1.568   2.071   1.560  0.9113  1.7007  2.2265
 9054WAT     H236937   1.667   2.058   1.465 -1.5949  0.0935 -0.3147
 9054WAT    EPW36938   1.644   2.063   1.540  0.3275  0.1885  0.3201
 9055WAT      O36939   4.013   0.969   5.489 -0.3532  0.0589  0.4277
 9055WAT     H136940   4.034   1.000   5.568 -0.6483 -0.2551  0.6290
 9055WAT     H236941   4.018   0.883   5.497  0.4924  0.0449 -0.1473
 9055WAT    EPW36942   4.017   0.961   5.502 -0.2719  0.0105  0.3725
 9056WAT      O36943   5.131   1.112   6.194 -0.1286 -0.5134  0.4344
 9056WAT     H136944   5.105   1.184   6.235 -1.4290 -0.8112  0.1642
 9056WAT     H236945   5.178   1.143   6.127 -0.3165  0.0582  0.5635
 9056WAT    EPW36946   5.134   1.127   6.190 -0.3485 -0.4730  0.4136
 9057WAT      O36947   5.696   6.382   3.818  0.4400 -0.1614  0.1743
 9057WAT     H136948   5.690   6.460   3.778  1.9000  0.6166  1.3693
 9057WAT     H236949   5.636   6.386   3.880  0.5422  0.0452  0.2611
 9057WAT    EPW36950   5.687   6.394   3.821  0.6708 -0.0160  0.3637
 9058WAT      O36951   5.046   2.477   0.599  0.1340  0.0996  0.0662
 9058WAT     H136952   5.133   2.470   0.596  0.0788 -0.6078 -0.1724
 9058WAT     H236953   5.025   2.452   0.680  0.0742 -0.9498 -0.2493
 9058WAT    EPW36954   5.055   2.472   0.610  0.1170 -0.1599 -0.0156
 9059WAT      O36955   7.265   3.156   2.063 -0.9706  0.3268  0.1807
 9059WAT     H136956   7.247   3.234   2.098  1.5734  1.7006 -1.2301
 9059WAT     H236957   7.347   3.141   2.089  0.0185  0.0915 -2.6506
 9059WAT    EPW36958   7.274   3.166   2.072 -0.4487  0.4950 -0.4460
 9060WAT      O36959   0.873   3.917   2.901  0.0914  0.3553 -0.4001
 9060WAT     H136960   0.801   3.937   2.947  0.2785 -1.4529  0.7851
 9060WAT     H236961   0.869   3.971   2.833 -2.8398 -0.1938 -0.8151
 9060WAT    EPW36962   0.862   3.928   2.898 -0.3139  0.0071 -0.2863
 9061WAT      O36963   5.323   4.209   0.267  0.8106 -0.8618 -0.4768
 9061WAT     H136964   5.377   4.196   0.200  1.4586 -0.7398  0.0104
 9061WAT     H236965   5.311   4.295   0.268 -0.2571 -0.9717 -1.2255
 9061WAT    EPW36966   5.329   4.220   0.257  0.7486 -0.8600 -0.5154
 9062WAT      O36967   3.496   0.216   5.284 -0.6193  0.1660 -0.0413
 9062WAT     H136968   3.519   0.160   5.221  0.3688  1.1316 -0.5683
 9062WAT     H236969   3.569   0.262   5.298 -1.5542  1.6848  0.0060
 9062WAT    EPW36970   3.510   0.214   5.277 -0.6115  0.5330 -0.1122
 9063WAT      O36971   5.928   5.126   7.363  0.3279  0.5255  0.7344
 9063WAT     H136972   5.894   5.066   7.417 -0.2804 -0.3459 -0.5593
 9063WAT     H236973   5.983   5.080   7.314  2.9969  1.7833  2.3190
 9063WAT    EPW36974   5.931   5.110   7.364  0.6323  0.5826  0.7774
 9064WAT      O36975   6.319   6.743   5.731 -0.1042 -0.2828 -0.0238
 9064WAT     H136976   6.359   6.675   5.693 -0.5531 -0.7476  0.3259
 9064WAT     H236977   6.380   6.776   5.783  0.5369  0.3881 -1.1461
 9064WAT    EPW36978   6.334   6.738   5.733 -0.0758 -0.2524 -0.1379
 9065WAT      O36979   4.471   6.446   3.177 -0.1899 -0.6176  0.2337
 9065WAT     H136980   4.408   6.476   3.229 -0.1970 -1.3264  0.6575
 9065WAT     H236981   4.544   6.481   3.211 -0.2978 -0.2319  0.0722
 9065WAT    EPW36982   4.473   6.456   3.190 -0.2069 -0.6653  0.2725
 9066WAT      O36983   3.736   1.227   2.605 -0.1568  0.2937 -0.0418
 9066WAT     H136984   3.717   1.235   2.520  2.5759 -1.8173 -1.0194
 9066WAT     H236985   3.740   1.309   2.633 -0.7687  1.0757 -2.0514
 9066WAT    EPW36986   3.734   1.240   2.597  0.1565  0.0974 -0.4831
 9067WAT      O36987   3.308   3.062   6.543  0.8881  0.2113  0.8073
 9067WAT     H136988   3.301   2.978   6.565 -0.2254 -0.2172 -0.9972
 9067WAT     H236989   3.361   3.061   6.474  3.1959  1.3576  2.4214
 9067WAT    EPW36990   3.315   3.050   6.537  1.0645  0.3174  0.7792
 9068WAT      O36991   5.518   2.619   5.756  0.9964 -0.3020  0.4765
 9068WAT     H136992   5.540   2.550   5.707 -0.3015 -0.1205 -0.3902
 9068WAT     H236993   5.454   2.588   5.807  0.0128  0.3924 -0.3103
 9068WAT    EPW36994   5.512   2.604   5.756  0.6594 -0.1726  0.2323
 9069WAT      O36995   0.917   6.775   6.144 -0.0297  0.2225 -0.3689
 9069WAT     H136996   0.862   6.714   6.173  0.3939 -0.0249 -0.0712
 9069WAT     H236997   0.890   6.848   6.184 -0.5753  0.2456 -0.7755
 9069WAT    EPW36998   0.905   6.777   6.154 -0.0477  0.1894 -0.3850
 9070WAT      O36999   2.339   2.197   3.666 -0.6678  0.2425 -0.1619
 9070WAT     H137000   2.344   2.269   3.715 -2.2115  0.7926 -0.7488
 9070WAT     H237001   2.383   2.138   3.712  2.4219  1.9985 -0.5539
 9070WAT    EPW37002   2.346   2.199   3.680 -0.4394  0.5832 -0.3065
 9071WAT      O37003   2.670   1.412   0.270 -0.4588  0.1722 -0.2913
 9071WAT     H137004   2.631   1.443   0.198  0.0963  0.2946 -0.5459
 9071WAT     H237005   2.608   1.362   0.307 -0.8760  0.4199 -0.6474
 9071WAT    EPW37006   2.655   1.409   0.265 -0.4384  0.2269 -0.3815
 9072WAT      O37007   5.487   5.920   7.045 -0.1847 -0.1160 -0.2754
 9072WAT     H137008   5.429   5.871   7.001 -1.0229  0.6087 -0.0061
 9072WAT     H237009   5.549   5.863   7.068 -1.5028 -1.2326  0.6798
 9072WAT    EPW37010   5.487   5.904   7.042 -0.5032 -0.1739 -0.0946
 9073WAT      O37011   7.273   4.345   5.216 -0.0286  0.0847  0.0230
 9073WAT     H137012   7.352   4.337   5.252 -0.7828 -0.8991  1.5658
 9073WAT     H237013   7.274   4.426   5.183  1.5165  0.1916  0.2648
 9073WAT    EPW37014   7.285   4.356   5.217  0.0883 -0.0449  0.2867
 9074WAT      O37015   6.725   5.847   0.326  0.0299  0.7336  0.2058
 9074WAT     H137016   6.655   5.820   0.282  0.2221 -1.0917  0.9207
 9074WAT     H237017   6.692   5.877   0.401 -0.1013  1.4724 -0.1406
 9074WAT    EPW37018   6.710   5.847   0.331  0.0389  0.5731  0.2602
 9075WAT      O37019   3.880   5.171   5.683 -0.1951  0.1253 -0.0237
 9075WAT     H137020   3.955   5.201   5.717  0.1694 -0.6795 -0.0784
 9075WAT     H237021   3.898   5.087   5.668 -1.4474 -0.3232  0.9130
 9075WAT    EPW37022   3.894   5.163   5.686 -0.3263 -0.0598  0.1066
 9076WAT      O37023   2.777   0.942   1.500 -0.1618 -0.2534 -0.4050
 9076WAT     H137024   2.838   1.002   1.486 -0.6581  0.0984 -1.0714
 9076WAT     H237025   2.715   0.962   1.443 -0.4947 -1.1736 -0.3767
 9076WAT    EPW37026   2.777   0.954   1.490 -0.2843 -0.3374 -0.4993
 9077WAT      O37027   3.414   5.728   3.648  0.0586 -0.7586 -0.3867
 9077WAT     H137028   3.373   5.710   3.574  0.1900  0.8061 -0.8794
 9077WAT     H237029   3.482   5.673   3.648  0.3047 -0.4890 -1.6525
 9077WAT    EPW37030   3.418   5.717   3.637  0.1144 -0.4877 -0.6465
 9078WAT      O37031   2.448   3.115   4.397  0.2506  0.2253  0.3607
 9078WAT     H137032   2.462   3.034   4.367  0.7051 -0.3313  1.9615
 9078WAT     H237033   2.449   3.164   4.326 -0.1960 -1.1976 -0.6723
 9078WAT    EPW37034   2.450   3.110   4.382  0.2518 -0.0671  0.4446
 9079WAT      O37035   3.018   2.334   6.331 -0.3940 -0.0442 -0.3221
 9079WAT     H137036   2.944   2.356   6.370  0.4610  0.8714  0.8582
 9079WAT     H237037   3.073   2.399   6.352  1.1289 -1.3529 -0.0169
 9079WAT    EPW37038   3.015   2.347   6.340 -0.0427 -0.1023 -0.1027
 9080WAT      O37039   0.404   2.989   3.324  0.2180 -0.8651  0.0683
 9080WAT     H137040   0.409   3.038   3.396 -0.1983  0.9443 -1.0519
 9080WAT     H237041   0.324   2.954   3.329 -0.7663  1.1133 -0.5559
 9080WAT    EPW37042   0.393   2.991   3.335  0.0111 -0.3055 -0.1894
 9081WAT      O37043   1.005   3.608   4.784  0.6032 -0.0799  0.0619
 9081WAT     H137044   0.943   3.638   4.837  1.6226  0.6877  0.8585
 9081WAT     H237045   1.008   3.523   4.801  0.1517 -0.0237  0.4201
 9081WAT    EPW37046   0.996   3.600   4.794  0.6871  0.0418  0.2325
 9082WAT      O37047   1.031   4.667   4.960  0.4063 -0.2890 -0.2533
 9082WAT     H137048   0.989   4.593   4.977  3.8619 -1.8895  2.4933
 9082WAT     H237049   1.024   4.713   5.034 -0.0772  1.3733 -1.2660
 9082WAT    EPW37050   1.024   4.663   4.973  0.8454 -0.2799  0.0029
 9083WAT      O37051   4.339   0.282   4.198  0.1048  0.4921 -0.0852
 9083WAT     H137052   4.397   0.345   4.215 -0.1183  1.3366 -2.1388
 9083WAT     H237053   4.390   0.215   4.174  0.2985  1.3409 -2.2277
 9083WAT    EPW37054   4.355   0.281   4.197  0.1005  0.7422 -0.7051
 9084WAT      O37055   2.005   3.245   4.653  0.2964  0.0852  0.1373
 9084WAT     H137056   2.081   3.236   4.695  1.5284 -0.5337 -1.9966
 9084WAT     H237057   2.026   3.226   4.570 -2.1778  0.0437 -0.5707
 9084WAT    EPW37058   2.019   3.241   4.647  0.1129 -0.0123 -0.2825
 9085WAT      O37059   4.024   1.082   0.859  0.3729  0.0527  0.2089
 9085WAT     H137060   4.071   1.014   0.832 -1.8163 -1.9951  1.1069
 9085WAT     H237061   3.961   1.089   0.799  0.5441  1.2613  0.1569
 9085WAT    EPW37062   4.022   1.073   0.846  0.0748 -0.0713  0.3339
 9086WAT      O37063   0.163   4.302   2.481  0.1988 -0.1893  0.2424
 9086WAT     H137064   0.195   4.353   2.419  0.1779 -1.7378 -1.1131
 9086WAT     H237065   0.233   4.264   2.515  0.1474  0.0687  0.6463
 9086WAT    EPW37066   0.178   4.304   2.477  0.1882 -0.3799  0.1018
 9087WAT      O37067   1.319   1.347   1.566  0.0660  0.4485 -0.1274
 9087WAT     H137068   1.396   1.384   1.580 -0.0046  0.2098  1.0677
 9087WAT     H237069   1.262   1.404   1.600 -0.1437 -0.0825  0.4592
 9087WAT    EPW37070   1.322   1.361   1.573  0.0246  0.3348  0.1358
 9088WAT      O37071   4.978   1.943   4.920  0.1027  0.5061  0.1836
 9088WAT     H137072   4.985   1.860   4.945 -1.7959  0.4430  0.6648
 9088WAT     H237073   4.957   1.937   4.836 -2.8584  0.3148  0.8411
 9088WAT    EPW37074   4.976   1.930   4.911 -0.6152  0.4686  0.3518
 9089WAT      O37075   3.783   5.839   6.327 -0.4486  0.2966  1.0919
 9089WAT     H137076   3.731   5.794   6.273  2.4457 -0.4692 -1.3328
 9089WAT     H237077   3.785   5.919   6.292 -0.8113  0.6289  1.8140
 9089WAT    EPW37078   3.775   5.844   6.314 -0.0746  0.2326  0.8404
 9090WAT      O37079   2.159   5.694   1.209 -0.0135 -0.3646  0.0678
 9090WAT     H137080   2.223   5.748   1.235 -0.6588 -0.6903  2.6017
 9090WAT     H237081   2.201   5.632   1.166  1.0829  0.6518 -0.3889
 9090WAT    EPW37082   2.174   5.693   1.207  0.0531 -0.2626  0.3747
 9091WAT      O37083   2.085   2.251   2.957  0.5700 -0.0391 -0.3872
 9091WAT     H137084   2.128   2.304   3.013  1.1043  1.6911 -2.3002
 9091WAT     H237085   2.143   2.239   2.893 -0.1291 -1.7291 -0.7379
 9091WAT    EPW37086   2.100   2.257   2.956  0.5456 -0.0332 -0.7216
 9092WAT      O37087   5.762   3.444   6.392  0.1548  0.3727  0.1789
 9092WAT     H137088   5.707   3.376   6.389  1.2247 -0.5481  0.2970
 9092WAT     H237089   5.787   3.446   6.476  0.9910  0.1771 -0.0581
 9092WAT    EPW37090   5.758   3.434   6.404  0.4363  0.2078  0.1613
 9093WAT      O37091   1.825   6.186   6.607 -0.1893 -0.1946 -0.2440
 9093WAT     H137092   1.867   6.172   6.682  1.4867 -1.4081 -1.3194
 9093WAT     H237093   1.847   6.267   6.585  0.2179 -0.2232  0.0544
 9093WAT    EPW37094   1.835   6.196   6.615  0.1184 -0.3781 -0.3588
 9094WAT      O37095   7.111   0.587   3.403  0.2454  0.9556  0.0756
 9094WAT     H137096   7.166   0.604   3.468  0.1456  0.0279  0.4215
 9094WAT     H237097   7.118   0.657   3.351  1.7262  0.8837  0.1249
 9094WAT    EPW37098   7.120   0.600   3.405  0.4494  0.8079  0.1340
 9095WAT      O37099   2.418   6.525   4.992 -0.7012 -0.4374  0.0574
 9095WAT     H137100   2.446   6.462   5.045 -0.5959 -0.8103 -0.4419
 9095WAT     H237101   2.434   6.598   5.037 -0.9141 -0.7687  0.6808
 9095WAT    EPW37102   2.424   6.526   5.007 -0.7171 -0.5414  0.0757
 9096WAT      O37103   1.410   0.289   2.577  0.0973 -0.5106 -1.0928
 9096WAT     H137104   1.335   0.260   2.609  1.8796 -1.3664  2.8784
 9096WAT     H237105   1.456   0.216   2.562  1.4600 -0.0005  0.3537
 9096WAT    EPW37106   1.406   0.274   2.579  0.5619 -0.5617 -0.2925
 9097WAT      O37107   2.081   6.564   4.702 -0.5013  0.1260  0.0987
 9097WAT     H137108   2.022   6.627   4.712 -0.2709  0.2993  0.4079
 9097WAT     H237109   2.131   6.593   4.636 -1.2447 -0.4084 -0.7239
 9097WAT    EPW37110   2.080   6.578   4.694 -0.5771  0.0727  0.0229
 9098WAT      O37111   7.311   3.617   6.644  0.2885  0.1904 -0.1887
 9098WAT     H137112   7.327   3.622   6.559  1.4024 -0.5627 -0.0424
 9098WAT     H237113   7.324   3.698   6.673 -0.5146  0.5476 -0.7797
 9098WAT    EPW37114   7.315   3.630   6.636  0.3344  0.1319 -0.2544
 9099WAT      O37115   3.578   6.147   5.339 -0.0899 -0.3648 -0.3013
 9099WAT     H137116   3.518   6.197   5.378  1.2456  1.8810 -0.8855
 9099WAT     H237117   3.558   6.066   5.364 -1.2102  0.6326  2.3532
 9099WAT    EPW37118   3.566   6.143   5.348 -0.0581  0.1143  0.0046
 9100WAT      O37119   0.922   2.364   3.191  0.5507 -0.1183  0.6970
 9100WAT     H137120   1.008   2.347   3.184  0.5065  0.3852 -2.7748
 9100WAT     H237121   0.905   2.410   3.119 -2.4976  0.6109  1.7691
 9100WAT    EPW37122   0.932   2.368   3.179  0.0939  0.0638  0.3425
 9101WAT      O37123   1.697   3.892   3.469 -0.0827 -0.0756  0.4712
 9101WAT     H137124   1.615   3.908   3.445 -0.0129 -0.2297  0.1260
 9101WAT     H237125   1.697   3.907   3.555 -0.7978 -1.3276  0.7203
 9101WAT    EPW37126   1.685   3.896   3.478 -0.1780 -0.2833  0.4570
 9102WAT      O37127   1.935   1.020   3.709 -0.3542 -0.4368 -0.0923
 9102WAT     H137128   1.951   0.938   3.683 -0.7599 -1.1341  1.7207
 9102WAT     H237129   1.896   1.010   3.787  1.4717  1.5205  1.1817
 9102WAT    EPW37130   1.932   1.006   3.717 -0.1444 -0.2507  0.3637
 9103WAT      O37131   1.035   3.129   6.089  0.5844 -0.3701 -0.0931
 9103WAT     H137132   1.087   3.176   6.036 -1.6129  0.7843 -1.3952
 9103WAT     H237133   0.976   3.095   6.034 -0.5479 -0.9178  1.4073
 9103WAT    EPW37134   1.034   3.131   6.073  0.0926 -0.2805 -0.0638
 9104WAT      O37135   2.951   2.536   7.422 -0.9420  0.2803  0.3052
 9104WAT     H137136   2.920   2.455   7.433  0.6766 -0.1777  1.9998
 9104WAT     H237137   2.921   2.579   7.491 -1.6221  1.1121 -0.4808
 9104WAT    EPW37138   2.942   2.531   7.434 -0.8034  0.3355  0.4394
 9105WAT      O37139   0.291   1.172   3.749  0.1088 -0.7176 -0.2051
 9105WAT     H137140   0.334   1.201   3.819 -0.7534 -3.6230  1.7124
 9105WAT     H237141   0.344   1.190   3.682  2.5713 -0.8253  1.5934
 9105WAT    EPW37142   0.305   1.179   3.749  0.3452 -1.1627  0.3438
 9106WAT      O37143   4.199   6.585   4.151  0.5156 -0.1207 -0.0006
 9106WAT     H137144   4.119   6.559   4.128  0.7921 -0.0480 -1.1160
 9106WAT     H237145   4.245   6.576   4.077  1.5788 -0.3316  0.6641
 9106WAT    EPW37146   4.194   6.580   4.137  0.7135 -0.1411 -0.0671
 9107WAT      O37147   4.445   1.827   3.497  0.8152 -0.0904 -0.4826
 9107WAT     H137148   4.399   1.843   3.425  0.0239 -1.1625 -0.2324
 9107WAT     H237149   4.511   1.778   3.469  0.6256 -0.3287 -0.5117
 9107WAT    EPW37150   4.448   1.822   3.482  0.6703 -0.2840 -0.4500
 9108WAT      O37151   0.011   1.864   4.446 -0.0592  0.3097 -0.0938
 9108WAT     H137152   0.073   1.808   4.470  1.3494  1.0898 -1.6959
 9108WAT     H237153   0.031   1.936   4.490 -1.1495 -0.0425  1.0317
 9108WAT    EPW37154   0.023   1.866   4.456 -0.0122  0.3729 -0.1642
 9109WAT      O37155   1.577   3.831   3.066  0.0474 -0.2069  0.2501
 9109WAT     H137156   1.663   3.837   3.076  0.1684 -0.9616 -0.1824
 9109WAT     H237157   1.564   3.745   3.059 -0.7909 -0.1245  0.7207
 9109WAT    EPW37158   1.588   3.819   3.066 -0.0586 -0.3062  0.2557
 9110WAT      O37159   5.532   0.791   4.870  0.4722  0.5122 -0.4560
 9110WAT     H137160   5.576   0.829   4.935  1.7196  0.8281 -1.4361
 9110WAT     H237161   5.456   0.834   4.868  0.6761  0.9288  0.3505
 9110WAT    EPW37162   5.527   0.803   4.879  0.6866  0.6204 -0.4817
 9111WAT      O37163   1.864   5.013   6.630 -0.5671  0.3725  0.0323
 9111WAT     H137164   1.839   4.986   6.551  0.5093 -1.2952  0.2191
 9111WAT     H237165   1.918   5.079   6.612 -1.4629  0.9797 -0.5384
 9111WAT    EPW37166   1.868   5.019   6.616 -0.5404  0.2159 -0.0244
 9112WAT      O37167   3.213   2.806   0.204 -0.3798  0.6316  0.5055
 9112WAT     H137168   3.257   2.790   0.131  0.2489  0.5329  0.9004
 9112WAT     H237169   3.131   2.817   0.176 -0.7365 -2.2832  0.0765
 9112WAT    EPW37170   3.207   2.806   0.189 -0.3396  0.1865  0.5005
 9113WAT      O37171   3.141   4.479   3.083 -0.0045  0.0495  0.7814
 9113WAT     H137172   3.066   4.499   3.122  0.4075  2.0124  0.6826
 9113WAT     H237173   3.192   4.454   3.149 -0.4360 -0.3518  0.9712
 9113WAT    EPW37174   3.137   4.478   3.098 -0.0074  0.2802  0.7949
 9114WAT      O37175   0.636   0.680   4.335  0.2436 -0.1946 -0.1363
 9114WAT     H137176   0.706   0.708   4.291 -0.5668  0.0868 -1.3147
 9114WAT     H237177   0.618   0.603   4.298 -0.6153  0.1705 -0.5044
 9114WAT    EPW37178   0.643   0.673   4.323 -0.0030 -0.0991 -0.3647
 9115WAT      O37179   5.960   4.077   4.453 -0.2414  0.6128  0.6684
 9115WAT     H137180   5.990   4.159   4.445  0.3278  0.5933  2.2080
 9115WAT     H237181   5.874   4.085   4.438 -0.0154  1.2561 -0.4115
 9115WAT    EPW37182   5.952   4.091   4.450 -0.1239  0.7049  0.7363
 9116WAT      O37183   2.982   4.013   5.204  0.3458 -0.0252  0.1531
 9116WAT     H137184   2.983   4.062   5.276  1.3172 -1.2222  0.9865
 9116WAT     H237185   3.052   4.040   5.160  1.7295 -1.5587  1.2901
 9116WAT    EPW37186   2.992   4.024   5.208  0.6937 -0.4285  0.4442
 9117WAT      O37187   7.221   2.191   2.368  0.0750  0.1792 -0.6294
 9117WAT     H137188   7.231   2.108   2.392 -1.1501  0.0544 -0.4811
 9117WAT     H237189   7.174   2.185   2.294 -0.5787  0.7521 -0.2715
 9117WAT    EPW37190   7.215   2.178   2.360 -0.2025  0.2454 -0.5546
 9118WAT      O37191   2.829   4.241   3.674  0.4728 -0.4174  0.6246
 9118WAT     H137192   2.886   4.188   3.713  2.4084 -1.2284 -2.8807
 9118WAT     H237193   2.872   4.269   3.603 -2.5504  1.2315 -0.7386
 9118WAT    EPW37194   2.844   4.237   3.669  0.3121 -0.2936 -0.0946
 9119WAT      O37195   4.712   1.489   6.696  0.2852 -0.1845 -0.6393
 9119WAT     H137196   4.772   1.429   6.677 -1.3402 -2.5109  0.8276
 9119WAT     H237197   4.709   1.487   6.784 -2.0269 -0.3578 -0.6650
 9119WAT    EPW37198   4.720   1.480   6.706 -0.2965 -0.5537 -0.4264
 9120WAT      O37199   6.734   0.451   0.861 -0.2287  0.1692 -0.0478
 9120WAT     H137200   6.652   0.466   0.836 -0.8169 -0.2838  1.5073
 9120WAT     H237201   6.743   0.365   0.849 -1.1040 -0.4013  2.7224
 9120WAT    EPW37202   6.723   0.441   0.856 -0.4449  0.0180  0.5911
 9121WAT      O37203   6.217   4.609   6.607 -0.4513  0.8636 -0.3361
 9121WAT     H137204   6.163   4.647   6.665 -1.2983  0.0905 -0.5979
 9121WAT     H237205   6.256   4.677   6.569 -0.6823  1.4220  0.3854
 9121WAT    EPW37206   6.215   4.625   6.610 -0.6106  0.8319 -0.2682
 9122WAT      O37207   1.121   0.925   4.116  0.5110 -0.3429  0.1543
 9122WAT     H137208   1.045   0.968   4.114 -0.0301 -1.3109 -0.5331
 9122WAT     H237209   1.118   0.882   4.192  2.0521  2.4873  2.0279
 9122WAT    EPW37210   1.110   0.925   4.127  0.6587 -0.0678  0.3295
 9123WAT      O37211   1.750   3.345   7.369  0.2528 -0.6787  0.0689
 9123WAT     H137212   1.710   3.272   7.344 -0.3134 -1.5459  3.1238
 9123WAT     H237213   1.760   3.335   7.455  1.5099  2.2126  0.3810
 9123WAT    EPW37214   1.745   3.333   7.378  0.3549 -0.3797  0.5663
 9124WAT      O37215   5.090   5.550   4.289  0.0536  0.1522  0.5976
 9124WAT     H137216   5.017   5.589   4.316 -0.8207 -0.7478 -0.4247
 9124WAT     H237217   5.153   5.603   4.318 -1.0766  2.6188 -1.1345
 9124WAT    EPW37218   5.089   5.564   4.297 -0.2425  0.3836  0.1908
 9125WAT      O37219   3.702   0.217   5.822  0.7760  0.4430  0.4389
 9125WAT     H137220   3.625   0.229   5.860 -1.7201 -0.3223 -3.6964
 9125WAT     H237221   3.682   0.171   5.750  4.9874  0.8645 -1.2905
 9125WAT    EPW37222   3.688   0.212   5.817  1.0294  0.3922 -0.4274
 9126WAT      O37223   0.955   4.088   0.227  0.2560 -0.6215 -0.0801
 9126WAT     H137224   0.976   4.158   0.275  3.0728 -0.5625 -1.2181
 9126WAT     H237225   0.931   4.122   0.150  2.4806 -0.8124 -0.9345
 9126WAT    EPW37226   0.954   4.103   0.223  1.0007 -0.6410 -0.3745
 9127WAT      O37227   2.677   0.723   2.839  0.1216 -0.6541  0.3692
 9127WAT     H137228   2.653   0.734   2.922 -1.9779  2.2446 -0.4504
 9127WAT     H237229   2.727   0.792   2.823  0.0744 -0.8970 -0.9103
 9127WAT    EPW37230   2.681   0.734   2.849 -0.1955 -0.2617  0.0591
 9128WAT      O37231   4.908   3.034   6.188  0.7361 -0.2304 -0.4643
 9128WAT     H137232   4.895   3.109   6.145  2.8153  1.1940  1.1538
 9128WAT     H237233   4.828   2.998   6.192  0.2066  0.0913 -4.2862
 9128WAT    EPW37234   4.894   3.040   6.182  0.9651  0.0275 -0.7898
 9129WAT      O37235   5.866   2.009   5.940  0.0903 -0.3903  0.1950
 9129WAT     H137236   5.828   1.965   5.875  0.2145 -0.4941  0.1912
 9129WAT     H237237   5.892   2.083   5.902 -0.4200 -0.1654  0.2810
 9129WAT    EPW37238   5.864   2.013   5.925  0.0333 -0.3724  0.2072
 9130WAT      O37239   1.068   6.319   3.364  0.0705 -0.7061 -0.0665
 9130WAT     H137240   1.078   6.303   3.449 -0.2651  0.1444  0.1454
 9130WAT     H237241   1.005   6.264   3.340  0.7384 -1.5301  0.0396
 9130WAT    EPW37242   1.060   6.309   3.373  0.1196 -0.7022 -0.0195
 9131WAT      O37243   3.205   2.241   0.904 -0.4948  0.4625  0.1832
 9131WAT     H137244   3.154   2.294   0.857 -0.1430 -0.3682 -1.1698
 9131WAT     H237245   3.148   2.189   0.946 -0.7905 -0.3152 -1.1422
 9131WAT    EPW37246   3.189   2.241   0.903 -0.4865  0.2249 -0.2125
 9132WAT      O37247   1.273   1.099   5.980 -0.8890  0.3565 -0.5467
 9132WAT     H137248   1.335   1.060   6.027 -0.5564  1.3873 -0.0934
 9132WAT     H237249   1.252   1.039   5.920 -0.5837 -0.5979  0.2708
 9132WAT    EPW37250   1.279   1.085   5.978 -0.7948  0.3678 -0.3590
 9133WAT      O37251   2.465   3.123   6.747 -0.0157  0.3957  0.4150
 9133WAT     H137252   2.519   3.186   6.718 -0.2453  0.8882  1.0173
 9133WAT     H237253   2.433   3.088   6.674 -0.6197  1.6285  0.0541
 9133WAT    EPW37254   2.468   3.127   6.732 -0.1388  0.6506  0.4507
 9134WAT      O37255   2.467   3.225   4.132  0.0871 -0.1430  0.0074
 9134WAT     H137256   2.451   3.310   4.117 -0.0782  0.3608  2.5815
 9134WAT     H237257   2.554   3.220   4.125  0.2119  0.5120  0.9268
 9134WAT    EPW37258   2.478   3.237   4.128  0.0811  0.0282  0.5235
 9135WAT      O37259   5.453   0.284   2.783  0.3881  0.3884  0.2410
 9135WAT     H137260   5.524   0.260   2.828  0.0991 -0.4655  0.2523
 9135WAT     H237261   5.422   0.209   2.751 -0.6416  0.7052  0.4393
 9135WAT    EPW37262   5.459   0.270   2.785  0.1933  0.3091  0.2719
 9136WAT      O37263   0.336   1.432   3.904 -0.0807 -0.1667 -0.2619
 9136WAT     H137264   0.388   1.500   3.887  1.0759 -0.5179  1.6183
 9136WAT     H237265   0.391   1.365   3.912 -0.9891 -0.9067  0.0176
 9136WAT    EPW37266   0.352   1.432   3.903 -0.0440 -0.3279  0.0571
 9137WAT      O37267   5.198   0.213   4.309 -0.5093 -0.4410 -0.2325
 9137WAT     H137268   5.171   0.145   4.262 -0.3147 -0.7114  0.0413
 9137WAT     H237269   5.124   0.257   4.324 -0.6267 -0.5511 -0.4741
 9137WAT    EPW37270   5.183   0.209   4.304 -0.4979 -0.4972 -0.2277
 9138WAT      O37271   5.902   2.915   1.658  0.1690 -0.3130  0.5697
 9138WAT     H137272   5.944   2.967   1.714  0.7620  0.8162 -0.8788
 9138WAT     H237273   5.825   2.954   1.647  1.3292  1.4927 -2.0549
 9138WAT    EPW37274   5.897   2.928   1.665  0.4280  0.1205 -0.0320
 9139WAT      O37275   3.619   2.104   0.632  0.1236 -0.1477 -0.2327
 9139WAT     H137276   3.699   2.110   0.600  0.6957  1.5587  1.3184
 9139WAT     H237277   3.568   2.135   0.568  0.6258 -1.4705 -1.3193
 9139WAT    EPW37278   3.623   2.109   0.618  0.2823 -0.0910 -0.1641
 9140WAT      O37279   1.520   3.722   2.263 -0.0307  0.4603  0.1593
 9140WAT     H137280   1.482   3.665   2.208  0.3553 -0.1820  0.5441
 9140WAT     H237281   1.533   3.792   2.213 -0.1567  0.0697 -0.4356
 9140WAT    EPW37282   1.516   3.724   2.247  0.0077  0.3078  0.1283
 9141WAT      O37283   1.055   6.798   3.727 -0.0259  0.5505 -0.2319
 9141WAT     H137284   1.019   6.826   3.653  0.9424 -0.6263 -1.1874
 9141WAT     H237285   1.076   6.872   3.769 -0.2777  1.2387 -1.2839
 9141WAT    EPW37286   1.053   6.813   3.722  0.0800  0.4783 -0.5284
 9142WAT      O37287   6.715   6.023   6.913  0.0766  0.4347  0.5583
 9142WAT     H137288   6.758   5.949   6.892 -0.5383 -0.2718  1.7022
 9142WAT     H237289   6.776   6.071   6.952  0.2901  0.1885  0.5338
 9142WAT    EPW37290   6.731   6.019   6.915  0.0173  0.2939  0.7237
 9143WAT      O37291   1.853   4.459   0.045 -0.4513 -0.2169  0.0408
 9143WAT     H137292   1.884   4.532   0.007  0.2976 -0.6871 -0.2864
 9143WAT     H237293   1.782   4.486   0.086  0.2117  0.8568  0.5369
 9143WAT    EPW37294   1.847   4.474   0.045 -0.2427 -0.1278  0.0657
 9144WAT      O37295   5.412   7.107   5.371 -0.0705 -0.0796  0.2231
 9144WAT     H137296   5.438   7.137   5.294 -0.2875  2.6141  1.0840
 9144WAT     H237297   5.326   7.095   5.361  0.1206 -1.0108 -0.3124
 9144WAT    EPW37298   5.403   7.110   5.358 -0.0744  0.1808  0.2711
 9145WAT      O37299   6.601   3.903   2.846  0.0597  0.4590 -0.4916
 9145WAT     H137300   6.650   3.951   2.900 -1.0738 -0.7235  1.7232
 9145WAT     H237301   6.521   3.936   2.855 -0.3352 -0.4003 -0.6751
 9145WAT    EPW37302   6.596   3.915   2.855 -0.1661  0.1574 -0.1915
 9146WAT      O37303   6.303   5.384   5.105 -0.6215 -0.5339  0.2852
 9146WAT     H137304   6.251   5.441   5.145 -1.3115 -1.3776  0.6522
 9146WAT     H237305   6.278   5.389   5.022  1.1649  1.5934 -0.2010
 9146WAT    EPW37306   6.292   5.393   5.099 -0.4595 -0.3443  0.2676
 9147WAT      O37307   0.573   3.129   1.845 -0.2224 -0.1050 -0.2704
 9147WAT     H137308   0.633   3.168   1.894 -0.3903 -0.0175 -0.1326
 9147WAT     H237309   0.498   3.147   1.887 -0.4291  0.4448 -0.8573
 9147WAT    EPW37310   0.571   3.138   1.859 -0.2777 -0.0108 -0.3367
 9148WAT      O37311   4.850   6.631   4.318 -0.0395 -0.5686 -0.3287
 9148WAT     H137312   4.796   6.579   4.274 -1.0599  1.3959 -1.5244
 9148WAT     H237313   4.876   6.689   4.258  0.6325  0.6330  1.0612
 9148WAT    EPW37314   4.846   6.632   4.302 -0.0909 -0.1009 -0.3000
 9149WAT      O37315   6.183   0.622   1.877 -0.1148  0.2246 -0.2989
 9149WAT     H137316   6.116   0.666   1.912  0.9108  1.4177  0.2588
 9149WAT     H237317   6.163   0.538   1.892 -0.8820  0.6015  0.9672
 9149WAT    EPW37318   6.170   0.616   1.884 -0.0766  0.4565 -0.0295
 9150WAT      O37319   5.154   6.795   2.534 -0.0808 -0.5238 -0.2435
 9150WAT     H137320   5.180   6.712   2.531  2.7955  0.2160  1.3197
 9150WAT     H237321   5.228   6.840   2.529 -1.5616  2.0012 -1.0235
 9150WAT    EPW37322   5.168   6.789   2.532  0.1253 -0.0415 -0.1278
 9151WAT      O37323   4.651   0.707   6.303  0.6561  0.2170  0.2298
 9151WAT     H137324   4.574   0.748   6.304  1.2232  1.3228  0.4538
 9151WAT     H237325   4.650   0.664   6.228 -0.5880 -0.6310  0.6830
 9151WAT    EPW37326   4.639   0.707   6.292  0.5561  0.2551  0.3299
 9152WAT      O37327   6.930   0.263   1.628  0.0250  0.2060 -0.1628
 9152WAT     H137328   7.003   0.242   1.584  0.9684  1.5893  0.6725
 9152WAT     H237329   6.932   0.350   1.631 -3.0670  0.5151 -2.3430
 9152WAT    EPW37330   6.941   0.272   1.622 -0.2924  0.4560 -0.3615
 9153WAT      O37331   2.813   4.398   6.173  0.5348  0.3155  0.2552
 9153WAT     H137332   2.879   4.415   6.228  1.2972  0.1564 -0.5792
 9153WAT     H237333   2.848   4.415   6.094 -0.9796  2.0140 -0.1221
 9153WAT    EPW37334   2.828   4.403   6.169  0.4237  0.5429  0.0762
 9154WAT      O37335   0.893   0.950   1.833 -0.6448  0.3733 -0.1598
 9154WAT     H137336   0.868   0.934   1.915 -1.8246  1.7309 -0.2150
 9154WAT     H237337   0.978   0.970   1.842 -0.2801 -1.2641  0.4481
 9154WAT    EPW37338   0.902   0.951   1.847 -0.7652  0.3320 -0.0782
 9155WAT      O37339   5.527   0.205   6.345 -0.2238  0.2302 -0.2966
 9155WAT     H137340   5.512   0.255   6.415  1.1754  0.9442 -0.4807
 9155WAT     H237341   5.455   0.155   6.340 -0.5635  0.4998  1.3536
 9155WAT    EPW37342   5.514   0.205   6.355 -0.0673  0.3755 -0.0800
 9156WAT      O37343   6.730   1.874   3.935  0.1600  0.3137 -0.1114
 9156WAT     H137344   6.748   1.836   4.011 -1.5451 -0.3305  0.0277
 9156WAT     H237345   6.775   1.948   3.937 -1.3025  1.2751  2.4169
 9156WAT    EPW37346   6.739   1.879   3.946 -0.3080  0.3606  0.2827
 9157WAT      O37347   1.517   2.042   4.330 -0.0243 -0.4584  0.2822
 9157WAT     H137348   1.486   1.961   4.328 -0.3535 -0.3192 -0.5401
 9157WAT     H237349   1.492   2.072   4.408 -0.2481 -1.0105  0.4249
 9157WAT    EPW37350   1.509   2.034   4.341 -0.1060 -0.5194  0.1818
 9158WAT      O37351   5.468   4.235   0.018 -0.6726  0.1469  0.4965
 9158WAT     H137352   5.498   4.317   0.013  0.0863 -0.1099  0.7370
 9158WAT     H237353   5.540   4.187   0.033 -0.9469 -0.6889 -0.7005
 9158WAT    EPW37354   5.483   4.240   0.020 -0.6010 -0.0145  0.3552
 9159WAT      O37355   4.354   1.557   1.540 -0.6524  0.5453 -0.5527
 9159WAT     H137356   4.294   1.591   1.594  0.4891  2.7387 -0.5250
 9159WAT     H237357   4.429   1.580   1.577  0.1797  0.2883 -2.0206
 9159WAT    EPW37358   4.356   1.566   1.553 -0.3609  0.8314 -0.7654
 9160WAT      O37359   2.148   5.667   1.865  0.3769 -0.1077 -0.3685
 9160WAT     H137360   2.063   5.675   1.847  0.0315  1.0705  1.4548
 9160WAT     H237361   2.153   5.588   1.902  0.0360 -0.1301 -0.3640
 9160WAT    EPW37362   2.136   5.656   1.868  0.2755  0.0630 -0.0985
 9161WAT      O37363   3.593   6.169   5.706  0.3475  0.1658 -0.2147
 9161WAT     H137364   3.621   6.251   5.697 -0.0660  0.0997 -3.5786
 9161WAT     H237365   3.650   6.123   5.658 -0.8146 -1.1410 -0.3974
 9161WAT    EPW37366   3.606   6.174   5.697  0.1148 -0.0370 -0.7386
 9162WAT      O37367   2.128   6.758   3.878  0.0740  0.2733  0.2858
 9162WAT     H137368   2.139   6.816   3.942 -0.5085  0.9990 -0.2397
 9162WAT     H237369   2.045   6.732   3.889  0.3985 -0.6220  0.6415
 9162WAT    EPW37370   2.117   6.763   3.889  0.0359  0.2482  0.2607
 9163WAT      O37371   4.612   2.980   1.542  0.3039  0.4381  0.8198
 9163WAT     H137372   4.582   2.900   1.527  0.3753  0.3736  1.0134
 9163WAT     H237373   4.540   3.025   1.564  0.2920  0.3775  0.9075
 9163WAT    EPW37374   4.597   2.975   1.543  0.3127  0.4196  0.8614
 9164WAT      O37375   6.969   1.550   6.287  0.8991  0.7039  0.0345
 9164WAT     H137376   6.963   1.637   6.283  1.4193  0.7201 -0.4559
 9164WAT     H237377   7.015   1.529   6.216  2.7295  0.2082  1.3087
 9164WAT    EPW37378   6.975   1.560   6.276  1.2463  0.6331  0.1503
 9165WAT      O37379   3.158   7.015   0.550  0.1142  0.1645 -0.0397
 9165WAT     H137380   3.231   6.988   0.512 -0.4978  0.8151 -1.7876
 9165WAT     H237381   3.147   7.096   0.519 -1.5363 -0.0642 -0.1715
 9165WAT    EPW37382   3.167   7.023   0.540 -0.2200  0.2268 -0.3173
 9166WAT      O37383   4.394   0.778   0.144 -0.3791  0.5002  0.3701
 9166WAT     H137384   4.432   0.791   0.222 -2.0541  0.7006  1.1962
 9166WAT     H237385   4.414   0.850   0.100  2.1185 -0.3726 -0.1055
 9166WAT    EPW37386   4.402   0.791   0.149 -0.2576  0.4008  0.4219
 9167WAT      O37387   1.922   3.800   0.377 -0.8769 -0.4986  0.1028
 9167WAT     H137388   1.941   3.722   0.410  1.9499 -0.1949 -0.5727
 9167WAT     H237389   1.978   3.810   0.311  0.9711  3.1685  1.8834
 9167WAT    EPW37390   1.933   3.790   0.372 -0.1863  0.0880  0.2661
 9168WAT      O37391   5.352   0.466   0.568  0.0141  0.4585  0.0214
 9168WAT     H137392   5.435   0.482   0.546  0.1430  0.8371  0.7540
 9168WAT     H237393   5.354   0.464   0.655 -0.3407 -1.7398  0.0371
 9168WAT    EPW37394   5.365   0.468   0.578 -0.0193  0.1897  0.1319
 9169WAT      O37395   2.219   6.617   4.470 -0.2301 -0.7583  0.1246
 9169WAT     H137396   2.171   6.605   4.397 -0.7656  1.5945  0.0181
 9169WAT     H237397   2.290   6.657   4.441  1.2025 -2.8362  0.5158
 9169WAT    EPW37398   2.222   6.621   4.455 -0.0976 -0.7177  0.1667
 9170WAT      O37399   6.629   3.612   1.672  0.0139  0.2900  0.2769
 9170WAT     H137400   6.678   3.675   1.638  0.6752 -1.2330 -1.8153
 9170WAT     H237401   6.668   3.593   1.748  0.6098  1.3975  0.2622
 9170WAT    EPW37402   6.642   3.618   1.678  0.1996  0.2286 -0.0343
 9171WAT      O37403   5.584   5.571   6.916  0.1126  0.1437 -0.1279
 9171WAT     H137404   5.541   5.532   6.980 -0.1792  0.6217 -0.0260
 9171WAT     H237405   5.651   5.610   6.956 -0.1311  0.5335 -0.0929
 9171WAT    EPW37406   5.588   5.571   6.931  0.0335  0.2719 -0.1077
 9172WAT      O37407   0.998   1.413   3.715 -0.2011  0.2774  0.4112
 9172WAT     H137408   1.069   1.454   3.745 -1.2358  2.3122  0.2457
 9172WAT     H237409   0.944   1.415   3.783 -0.4043 -0.5511  0.2847
 9172WAT    EPW37410   1.001   1.419   3.730 -0.3839  0.4556  0.3681
 9173WAT      O37411   6.410   5.464   0.686  0.2773 -0.4241 -0.5723
 9173WAT     H137412   6.405   5.378   0.680  0.3840 -0.4841  0.0678
 9173WAT     H237413   6.368   5.482   0.760 -2.4373  0.3767 -2.1668
 9173WAT    EPW37414   6.403   5.454   0.696 -0.1079 -0.3147 -0.7133
 9174WAT      O37415   6.578   7.226   2.278  0.6884 -0.0187  0.4025
 9174WAT     H137416   6.528   7.173   2.326  0.9492 -0.7681 -0.1257
 9174WAT     H237417   6.658   7.212   2.308  1.0404 -1.4852 -1.0696
 9174WAT    EPW37418   6.582   7.216   2.289  0.7789 -0.3460  0.1070
 9175WAT      O37419   0.687   6.804   1.069 -0.1946  0.1168 -0.1766
 9175WAT     H137420   0.657   6.743   1.125  0.0316  0.7790  0.6867
 9175WAT     H237421   0.773   6.801   1.081  0.0333 -0.9596 -1.7948
 9175WAT    EPW37422   0.695   6.794   1.079 -0.1275  0.0556 -0.2881
 9176WAT      O37423   1.819   0.124   0.312  0.6882 -0.0211 -0.6354
 9176WAT     H137424   1.873   0.093   0.251  3.9333  0.4220  1.7746
 9176WAT     H237425   1.845   0.084   0.385 -2.3311  0.2558  0.7476
 9176WAT    EPW37426   1.831   0.113   0.314  0.7216  0.0853 -0.0751
 9177WAT      O37427   4.349   2.636   1.328  0.0734 -0.1539 -0.0899
 9177WAT     H137428   4.322   2.611   1.249 -0.6492  0.6167 -0.0979
 9177WAT     H237429   4.339   2.723   1.327 -2.0517 -0.2902  1.5802
 9177WAT    EPW37430   4.344   2.645   1.317 -0.3472 -0.0602  0.1556
 9178WAT      O37431   4.757   5.686   3.881 -0.2065 -0.6474 -0.4363
 9178WAT     H137432   4.838   5.718   3.893  0.0343 -1.7655  1.2040
 9178WAT     H237433   4.744   5.697   3.795  0.3666  2.5837 -0.2548
 9178WAT    EPW37434   4.767   5.693   3.870 -0.0863 -0.3353 -0.1672
 9179WAT      O37435   4.194   6.036   3.642  0.2117  0.8831 -0.5631
 9179WAT     H137436   4.200   6.083   3.568 -0.0225  0.4032 -0.8942
 9179WAT     H237437   4.111   6.045   3.665  0.6478  2.3937  0.5750
 9179WAT    EPW37438   4.183   6.044   3.634  0.2415  1.0353 -0.4439
 9180WAT      O37439   6.519   1.673   3.288  0.6934  0.0314  0.2383
 9180WAT     H137440   6.556   1.715   3.355  0.3339  0.1342  0.3727
 9180WAT     H237441   6.574   1.606   3.273  0.9241  0.1723  0.4483
 9180WAT    EPW37442   6.533   1.669   3.296  0.6744  0.0674  0.2892
 9181WAT      O37443   1.656   2.829   4.838  0.1283 -0.7635  0.0831
 9181WAT     H137444   1.622   2.867   4.909  0.5326  1.4700 -0.8354
 9181WAT     H237445   1.685   2.752   4.868 -1.5953 -0.8039  1.8435
 9181WAT    EPW37446   1.655   2.823   4.853 -0.0666 -0.4395  0.2074
 9182WAT      O37447   4.327   2.908   1.356  0.3843 -0.0299 -0.0498
 9182WAT     H137448   4.286   2.936   1.427  0.6244 -0.2178  0.1637
 9182WAT     H237449   4.309   2.970   1.296  1.3046  0.8489  0.5459
 9182WAT    EPW37450   4.318   2.922   1.357  0.5557  0.0722  0.0697
 9183WAT      O37451   2.864   4.501   3.172 -0.1443 -0.1948  0.1411
 9183WAT     H137452   2.849   4.466   3.093 -1.2024  0.3540  0.0815
 9183WAT     H237453   2.865   4.587   3.158 -3.4819  0.1761  1.0931
 9183WAT    EPW37454   2.862   4.508   3.159 -0.7936 -0.0589  0.2729
 9184WAT      O37455   5.635   5.776   0.526  0.3271 -0.5638 -0.1022
 9184WAT     H137456   5.667   5.718   0.582  1.4586 -0.4968 -0.6516
 9184WAT     H237457   5.553   5.788   0.553  0.7989 -0.6461  1.4290
 9184WAT    EPW37458   5.628   5.769   0.538  0.5640 -0.5660  0.0428
 9185WAT      O37459   1.886   1.481   0.913  0.1855 -0.1652  0.1581
 9185WAT     H137460   1.893   1.544   0.974 -1.5731  0.4725 -0.2405
 9185WAT     H237461   1.952   1.500   0.858  0.2734  0.7592  0.5488
 9185WAT    EPW37462   1.897   1.493   0.914 -0.0613  0.0656  0.1569
 9186WAT      O37463   3.228   6.118   4.316 -0.0766 -0.5968 -0.4705
 9186WAT     H137464   3.259   6.182   4.265  1.9611 -0.6508  0.6042
 9186WAT     H237465   3.294   6.062   4.322  0.0814 -0.2541  2.7425
 9186WAT    EPW37466   3.242   6.119   4.309  0.2478 -0.5542  0.1629
 9187WAT      O37467   5.590   0.709   3.371 -0.1194  0.1285  0.3501
 9187WAT     H137468   5.576   0.695   3.286  0.6433 -1.4909  0.4470
 9187WAT     H237469   5.544   0.781   3.388 -1.8290 -0.5627 -1.0148
 9187WAT    EPW37470   5.581   0.717   3.360 -0.2593 -0.2128  0.1628
 9188WAT      O37471   5.424   0.071   1.914  0.2844 -0.1656 -0.4199
 9188WAT     H137472   5.424   0.077   2.001 -0.7418 -1.4541 -0.3128
 9188WAT     H237473   5.485   0.011   1.898  1.1524  0.7516 -0.6751
 9188WAT    EPW37474   5.433   0.063   1.925  0.2611 -0.2205 -0.4418
 9189WAT      O37475   6.366   4.992   0.782 -0.0381  0.6935  0.6090
 9189WAT     H137476   6.409   4.960   0.851 -1.7356  0.1665  1.4977
 9189WAT     H237477   6.286   4.960   0.792 -0.4839  1.0744 -1.3317
 9189WAT    EPW37478   6.360   4.983   0.794 -0.3547  0.6719  0.4536
 9190WAT      O37479   4.112   4.571   2.112  0.0777  0.1410  0.4193
 9190WAT     H137480   4.076   4.505   2.156 -0.3409  0.0195 -0.0991
 9190WAT     H237481   4.146   4.621   2.175  3.0530 -2.0282  0.7442
 9190WAT    EPW37482   4.112   4.568   2.128  0.4554 -0.1974  0.3907
 9191WAT      O37483   0.838   5.153   1.808 -0.0812  0.1456  0.1850
 9191WAT     H137484   0.914   5.158   1.850 -0.7105 -1.6253  1.6302
 9191WAT     H237485   0.808   5.235   1.812  1.0540  0.5524  0.9331
 9191WAT    EPW37486   0.845   5.166   1.815 -0.0065 -0.0559  0.5090
 9192WAT      O37487   4.508   2.048   6.143 -0.3662 -0.4053 -0.4680
 9192WAT     H137488   4.516   2.034   6.229 -0.1324 -0.2153 -0.4574
 9192WAT     H237489   4.466   2.124   6.139 -0.4464 -0.4529 -0.5214
 9192WAT    EPW37490   4.503   2.057   6.156 -0.3435 -0.3843 -0.4743
 9193WAT      O37491   7.047   0.430   6.011  0.3574 -0.0812 -0.3212
 9193WAT     H137492   7.010   0.423   5.932  2.2658 -1.4287 -1.1940
 9193WAT     H237493   7.044   0.348   6.042  1.1130  0.0984  0.2617
 9193WAT    EPW37494   7.041   0.417   6.004  0.7509 -0.2537 -0.3640
 9194WAT      O37495   6.857   3.098   6.452  0.1970  0.6475  0.1934
 9194WAT     H137496   6.884   3.163   6.401  1.0566  0.4595  0.3954
 9194WAT     H237497   6.823   3.138   6.521  0.7583  0.8938  0.3354
 9194WAT    EPW37498   6.856   3.113   6.455  0.4069  0.6561  0.2442
 9195WAT      O37499   6.386   6.494   5.595 -0.7396 -0.0678  0.4600
 9195WAT     H137500   6.405   6.416   5.629 -1.3442 -0.9834 -1.1763
 9195WAT     H237501   6.320   6.477   5.541 -0.4397  1.4572 -0.4449
 9195WAT    EPW37502   6.379   6.480   5.592 -0.7846  0.0223  0.0846
 9196WAT      O37503   3.483   6.753   0.610  0.6049 -0.0469 -0.6746
 9196WAT     H137504   3.547   6.714   0.565  0.5319  0.5771 -1.3352
 9196WAT     H237505   3.453   6.814   0.555  0.0148  0.2393 -0.0521
 9196WAT    EPW37506   3.488   6.757   0.596  0.5069  0.0875 -0.6803
 9197WAT      O37507   2.994   3.399   5.597 -0.8601 -0.5101 -0.5348
 9197WAT     H137508   2.981   3.343   5.531 -1.4620 -2.2748  0.9894
 9197WAT     H237509   2.927   3.454   5.591 -2.0756 -1.8986 -0.2335
 9197WAT    EPW37510   2.982   3.399   5.586 -1.1286 -0.9759 -0.2651
 9198WAT      O37511   2.525   0.420   7.180 -0.1099  0.4325  0.2034
 9198WAT     H137512   2.442   0.446   7.186 -0.1024  0.5560 -0.2354
 9198WAT     H237513   2.570   0.495   7.188 -0.0578  0.4339 -0.1093
 9198WAT    EPW37514   2.520   0.435   7.182 -0.1011  0.4509  0.0924
 9199WAT      O37515   1.200   6.732   7.079  0.1922  0.4510 -0.0777
 9199WAT     H137516   1.287   6.735   7.077  0.2516 -0.7548 -0.9483
 9199WAT     H237517   1.176   6.798   7.028  0.5325  1.6111  1.1996
 9199WAT    EPW37518   1.210   6.742   7.071  0.2513  0.4443 -0.0176
 9200WAT      O37519   5.726   0.469   4.495 -0.7131  0.0017  0.0152
 9200WAT     H137520   5.675   0.538   4.510 -0.6508  0.0083  0.1931
 9200WAT     H237521   5.730   0.466   4.408 -0.4835  0.3948  0.0079
 9200WAT    EPW37522   5.719   0.479   4.484 -0.6700  0.0607  0.0404
 9201WAT      O37523   2.332   3.674   5.585  0.0273  0.7566 -1.0954
 9201WAT     H137524   2.280   3.614   5.622 -1.0972  2.0658 -0.4750
 9201WAT     H237525   2.323   3.658   5.500  0.3595 -0.4336 -0.9352
 9201WAT    EPW37526   2.323   3.662   5.578 -0.0898  0.7742 -0.9801
 9202WAT      O37527   2.103   0.701   6.139 -0.0083 -0.0526  0.1375
 9202WAT     H137528   2.026   0.716   6.177  0.5723  0.5452  1.1142
 9202WAT     H237529   2.108   0.614   6.137 -0.6524 -0.0915  0.1804
 9202WAT    EPW37530   2.093   0.690   6.144 -0.0177  0.0299  0.2882
 9203WAT      O37531   5.281   4.446   1.000 -0.0134  0.5070 -0.0409
 9203WAT     H137532   5.219   4.507   0.992  0.6788  1.1172 -0.9111
 9203WAT     H237533   5.317   4.463   1.078  0.4244  1.4659 -0.4370
 9203WAT    EPW37534   5.277   4.457   1.010  0.1535  0.7388 -0.2280
 9204WAT      O37535   4.227   0.614   4.316  0.3570 -0.0405 -0.1023
 9204WAT     H137536   4.202   0.531   4.323 -0.5786 -0.1140 -2.8482
 9204WAT     H237537   4.312   0.608   4.297  0.0965 -0.4803 -1.2338
 9204WAT    EPW37538   4.236   0.601   4.314  0.1803 -0.1163 -0.6751
 9205WAT      O37539   1.566   7.177   6.056  0.1543  0.5287 -0.2334
 9205WAT     H137540   1.531   7.252   6.083 -0.8732 -0.0408  0.0740
 9205WAT     H237541   1.555   7.178   5.970 -0.1136  0.6030 -0.1972
 9205WAT    EPW37542   1.559   7.188   6.047 -0.0371  0.4555 -0.1826
 9206WAT      O37543   1.458   0.062   6.774 -0.0736  0.0191 -0.4649
 9206WAT     H137544   1.518   0.103   6.822 -0.1635 -0.2286 -0.1393
 9206WAT     H237545   1.437   0.121   6.713 -0.2472  0.4802  0.0346
 9206WAT    EPW37546   1.464   0.077   6.772 -0.1126  0.0507 -0.3430
 9207WAT      O37547   4.819   0.365   3.906 -0.2257  0.2306 -0.6256
 9207WAT     H137548   4.894   0.333   3.875 -0.5042 -1.4360  0.2928
 9207WAT     H237549   4.763   0.356   3.840  0.2144  0.8699 -1.0935
 9207WAT    EPW37550   4.822   0.359   3.892 -0.2018  0.0788 -0.5591
 9208WAT      O37551   2.487   3.342   0.047 -0.6288  0.5395  0.2109
 9208WAT     H137552   2.488   3.270  -0.002  2.0958  0.5449  0.0959
 9208WAT     H237553   2.463   3.314   0.125  0.8287 -0.6466  0.2786
 9208WAT    EPW37554   2.484   3.327   0.051 -0.0110  0.3651  0.2039
 9209WAT      O37555   3.114   6.877   2.458  0.6434  0.9909  0.3788
 9209WAT     H137556   3.199   6.859   2.465  0.4340 -0.3756 -0.2165
 9209WAT     H237557   3.100   6.873   2.372 -0.3388 -0.5078  0.5759
 9209WAT    EPW37558   3.125   6.874   2.446  0.4674  0.5677  0.3200
 9210WAT      O37559   3.392   6.625   5.498 -0.2451  0.1433  0.0990
 9210WAT     H137560   3.473   6.606   5.471 -0.6841 -2.1926  0.1683
 9210WAT     H237561   3.353   6.655   5.426 -0.4786 -2.9081 -1.2207
 9210WAT    EPW37562   3.398   6.626   5.483 -0.3444 -0.6525 -0.0857
 9211WAT      O37563   4.745   7.179   4.557  0.0242 -0.3320  0.1475
 9211WAT     H137564   4.789   7.115   4.597 -1.0489 -1.5532 -0.5836
 9211WAT     H237565   4.718   7.143   4.482 -0.7176  0.9359 -0.2356
 9211WAT    EPW37566   4.748   7.165   4.552 -0.2439 -0.3251 -0.0171
 9212WAT      O37567   6.531   4.029   0.655  0.0661  0.3795  0.1158
 9212WAT     H137568   6.591   4.082   0.619  0.7418 -0.3546  0.1301
 9212WAT     H237569   6.570   3.951   0.654 -0.6419  0.0106  0.7416
 9212WAT    EPW37570   6.546   4.026   0.649  0.0613  0.2166  0.2104
 9213WAT      O37571   5.963   2.631   0.192 -0.0565  0.2252  0.1104
 9213WAT     H137572   5.895   2.577   0.205 -0.0480  0.3968  0.8870
 9213WAT     H237573   5.939   2.678   0.123 -0.1590 -0.6166 -0.4508
 9213WAT    EPW37574   5.950   2.630   0.183 -0.0704  0.1262  0.1422
 9214WAT      O37575   5.434   5.202   6.150  0.7409 -0.0623 -0.2157
 9214WAT     H137576   5.440   5.198   6.063 -0.5058 -0.9720 -0.2757
 9214WAT     H237577   5.474   5.278   6.170 -2.3186  2.2164 -1.9439
 9214WAT    EPW37578   5.441   5.213   6.140  0.1048  0.1399 -0.4799
 9215WAT      O37579   4.390   7.050   4.339 -0.2386 -0.1330  0.1233
 9215WAT     H137580   4.343   7.106   4.292  0.4690 -1.4310 -2.3102
 9215WAT     H237581   4.354   6.972   4.320  0.1455 -0.7517  1.7273
 9215WAT    EPW37582   4.378   7.047   4.329 -0.0773 -0.4161  0.0008
 9216WAT      O37583   6.770   3.133   2.710 -0.0621  0.5001  0.4437
 9216WAT     H137584   6.749   3.116   2.627 -0.2480 -0.4525  0.6660
 9216WAT     H237585   6.701   3.105   2.755  1.0192 -1.3724  1.0865
 9216WAT    EPW37586   6.757   3.126   2.704  0.0702  0.0828  0.5715
 9217WAT      O37587   5.295   2.125   6.594  0.1859 -0.2549 -0.2894
 9217WAT     H137588   5.362   2.102   6.645  0.6520 -1.1520 -1.2671
 9217WAT     H237589   5.225   2.101   6.640  0.4864  1.1205  0.9583
 9217WAT    EPW37590   5.295   2.118   6.608  0.2992 -0.1843 -0.2495
 9218WAT      O37591   6.678   1.300   5.770 -0.0281 -0.1755  0.1023
 9218WAT     H137592   6.650   1.226   5.807  0.0910 -0.6147 -0.6697
 9218WAT     H237593   6.666   1.359   5.832  1.2246 -1.0820  1.2554
 9218WAT    EPW37594   6.672   1.298   5.784  0.1745 -0.3743  0.1586
 9219WAT      O37595   0.468   4.289   0.167 -0.0014  0.0783  0.1015
 9219WAT     H137596   0.542   4.320   0.201  0.3092  0.2388 -0.6929
 9219WAT     H237597   0.448   4.346   0.104  0.5337 -1.2317 -1.3331
 9219WAT    EPW37598   0.476   4.302   0.163  0.1235 -0.0915 -0.2278
 9220WAT      O37599   3.688   3.103   1.052  0.0722  0.2180  0.0010
 9220WAT     H137600   3.685   3.183   1.086  1.2340  0.8447 -1.2905
 9220WAT     H237601   3.636   3.109   0.982  0.2288 -0.1330 -0.1492
 9220WAT    EPW37602   3.680   3.116   1.046  0.2670  0.2587 -0.2119
 9221WAT      O37603   3.426   1.286   3.056  0.2344 -0.1050  0.2821
 9221WAT     H137604   3.484   1.335   3.099  0.1037  0.0862  0.2418
 9221WAT     H237605   3.465   1.269   2.980  1.0422 -1.5929  0.9934
 9221WAT    EPW37606   3.440   1.291   3.051  0.3344 -0.2966  0.3813
 9222WAT      O37607   6.209   6.339   7.135 -0.0487 -0.1567 -0.3563
 9222WAT     H137608   6.132   6.353   7.173 -0.0410 -0.6832 -0.1377
 9222WAT     H237609   6.212   6.252   7.125  0.4958 -0.1393 -0.3953
 9222WAT    EPW37610   6.198   6.328   7.139  0.0328 -0.2319 -0.3297
 9223WAT      O37611   1.406   5.809   4.763  0.2785 -0.3604  0.3322
 9223WAT     H137612   1.327   5.846   4.757 -0.1488 -1.3968 -0.8543
 9223WAT     H237613   1.409   5.755   4.694  1.8110 -0.7543  0.6636
 9223WAT    EPW37614   1.395   5.807   4.752  0.4418 -0.5717  0.2059
 9224WAT      O37615   0.177   0.225   4.742 -0.1117  0.3718 -0.8113
 9224WAT     H137616   0.244   0.175   4.768  0.6619  0.1195 -3.0344
 9224WAT     H237617   0.165   0.280   4.808  0.6090 -1.2139  0.6913
 9224WAT    EPW37618   0.185   0.226   4.755  0.1091  0.1003 -0.9177
 9225WAT      O37619   1.171   0.356   1.186 -0.2762 -0.2085 -0.1603
 9225WAT     H137620   1.172   0.282   1.139 -0.6827  0.4610 -1.2482
 9225WAT     H237621   1.131   0.413   1.133  0.5206  0.9358  0.4508
 9225WAT    EPW37622   1.165   0.353   1.171 -0.2186  0.0595 -0.2307
 9226WAT      O37623   5.910   6.337   0.941  0.7301 -0.2815 -0.5795
 9226WAT     H137624   5.915   6.400   1.001 -0.9626 -0.5885 -0.0689
 9226WAT     H237625   5.841   6.360   0.893  0.0249 -1.7629 -0.3260
 9226WAT    EPW37626   5.901   6.350   0.943  0.3759 -0.5457 -0.4666
 9227WAT      O37627   3.359   5.198   6.368 -0.2493 -0.0316  0.6324
 9227WAT     H137628   3.421   5.137   6.380 -0.5798 -0.1645  1.7733
 9227WAT     H237629   3.403   5.265   6.333 -0.0038 -1.1424 -1.3328
 9227WAT    EPW37630   3.375   5.199   6.364 -0.2619 -0.2153  0.5106
 9228WAT      O37631   4.331   4.637   1.891  0.5408  0.0759  0.2101
 9228WAT     H137632   4.281   4.695   1.851  2.0358  0.3257 -1.3891
 9228WAT     H237633   4.274   4.590   1.938 -1.3535 -0.2113 -2.1576
 9228WAT    EPW37634   4.316   4.638   1.892  0.4818  0.0704 -0.3759
 9229WAT      O37635   5.043   7.113   0.596 -0.0689  0.4163 -0.0394
 9229WAT     H137636   5.092   7.042   0.610 -1.1514 -0.7110 -1.5915
 9229WAT     H237637   5.078   7.148   0.524  0.3049  1.3456  0.5757
 9229WAT    EPW37638   5.055   7.107   0.587 -0.1736  0.3871 -0.1778
 9230WAT      O37639   2.130   2.327   4.295 -0.0814 -0.3562  0.5441
 9230WAT     H137640   2.137   2.408   4.327 -1.5446 -0.5873  1.5232
 9230WAT     H237641   2.181   2.329   4.224 -1.4022  1.9587 -0.4828
 9230WAT    EPW37642   2.138   2.339   4.289 -0.4926 -0.0484  0.5370
 9231WAT      O37643   1.821   7.124   3.011  0.4491  0.5988 -0.4202
 9231WAT     H137644   1.879   7.100   3.072 -0.3479  0.0630  0.1474
 9231WAT     H237645   1.855   7.093   2.937  1.1140  0.7039 -0.1651
 9231WAT    EPW37646   1.835   7.116   3.009  0.4296  0.5352 -0.2987
 9232WAT      O37647   1.301   3.826   7.043  0.6742  0.0393 -0.3505
 9232WAT     H137648   1.262   3.760   7.003 -0.3030  0.7689 -0.6179
 9232WAT     H237649   1.348   3.787   7.105 -1.5215 -0.8059  0.8772
 9232WAT    EPW37650   1.302   3.811   7.046  0.2055  0.0222 -0.2086
 9233WAT      O37651   4.083   4.446   0.839  0.0615  0.0346  0.3378
 9233WAT     H137652   4.037   4.380   0.804 -0.2439 -0.2421  1.2263
 9233WAT     H237653   4.161   4.410   0.855  0.5190  0.4257 -0.9067
 9233WAT    EPW37654   4.088   4.431   0.836  0.0839  0.0515  0.2852
 9234WAT      O37655   5.275   0.650   0.374 -0.0215  0.0452  0.7884
 9234WAT     H137656   5.215   0.595   0.344 -1.8760  1.3528  1.9061
 9234WAT     H237657   5.324   0.601   0.428 -0.5077 -0.8870  0.3882
 9234WAT    EPW37658   5.274   0.635   0.378 -0.3673  0.1007  0.8943
 9235WAT      O37659   2.056   0.155   4.767  0.2433 -0.6270  0.3702
 9235WAT     H137660   2.066   0.086   4.715 -0.0321 -1.1523  1.0100
 9235WAT     H237661   2.138   0.178   4.787  0.3397 -0.6142 -0.0348
 9235WAT    EPW37662   2.070   0.148   4.762  0.2168 -0.7027  0.4049
 9236WAT      O37663   6.140   3.113   3.874  0.3147 -0.2197 -0.1657
 9236WAT     H137664   6.082   3.048   3.869 -1.4750  1.1946  0.9409
 9236WAT     H237665   6.201   3.090   3.816 -1.3969 -1.7439 -1.4913
 9236WAT    EPW37666   6.141   3.100   3.864 -0.2025 -0.2359 -0.1981
 9237WAT      O37667   5.696   2.579   5.302 -0.7176 -0.1713 -0.1045
 9237WAT     H137668   5.678   2.651   5.256  1.2116  0.3186 -0.1674
 9237WAT     H237669   5.714   2.520   5.241 -1.0637 -0.3566 -0.0283
 9237WAT    EPW37670   5.696   2.581   5.286 -0.4837 -0.1263 -0.1025
 9238WAT      O37671   4.620   6.090   2.875 -0.4116  0.4985  0.0184
 9238WAT     H137672   4.561   6.127   2.926  0.2271  2.7151 -0.7306
 9238WAT     H237673   4.609   6.130   2.798  2.0162  1.0373 -0.1421
 9238WAT    EPW37674   4.610   6.101   2.871  0.0414  0.9055 -0.1159
 9239WAT      O37675   6.633   3.542   7.283 -0.1576 -0.2552  0.0097
 9239WAT     H137676   6.603   3.504   7.209  0.4907 -1.1860  0.2076
 9239WAT     H237677   6.695   3.596   7.254 -0.2368 -0.2577 -0.1712
 9239WAT    EPW37678   6.638   3.544   7.268 -0.0735 -0.3931  0.0122
 9240WAT      O37679   3.070   3.325   0.926 -0.1692 -0.2885 -0.6626
 9240WAT     H137680   3.012   3.278   0.971 -0.9164  1.1513 -0.0453
 9240WAT     H237681   3.060   3.297   0.844  1.5334 -3.2903  0.0066
 9240WAT    EPW37682   3.059   3.314   0.921 -0.0281 -0.5192 -0.4725
 9241WAT      O37683   5.655   3.758   3.418 -0.2661 -0.0025  0.3129
 9241WAT     H137684   5.712   3.825   3.413  1.0761 -1.1508 -0.8773
 9241WAT     H237685   5.706   3.691   3.440 -1.5151 -0.7182  1.0552
 9241WAT    EPW37686   5.671   3.758   3.420 -0.2524 -0.2778  0.2467
 9242WAT      O37687   3.217   4.349   0.336 -0.0321  0.2490  0.3966
 9242WAT     H137688   3.302   4.362   0.317 -0.1104  0.0396 -0.1041
 9242WAT     H237689   3.177   4.414   0.294 -0.2935 -0.7417 -0.9530
 9242WAT    EPW37690   3.224   4.360   0.327 -0.0823  0.0717  0.1233
 9243WAT      O37691   6.936   3.035   3.403 -0.0588  0.4454  0.5789
 9243WAT     H137692   7.007   3.084   3.415  0.9417 -0.8298  0.0582
 9243WAT     H237693   6.898   3.070   3.333  0.3558  0.7820  0.5211
 9243WAT    EPW37694   6.941   3.047   3.395  0.1503  0.3067  0.4935
 9244WAT      O37695   3.301   2.447   5.282 -0.0126  0.1697 -0.0799
 9244WAT     H137696   3.245   2.386   5.254  0.0991  0.6114 -1.3136
 9244WAT     H237697   3.282   2.454   5.367 -0.4636 -1.1081 -0.0498
 9244WAT    EPW37698   3.290   2.439   5.291 -0.0627  0.0462 -0.2577
 9245WAT      O37699   3.107   0.909   3.030 -0.5060 -0.6654 -0.2000
 9245WAT     H137700   3.081   0.978   3.077 -0.2657 -0.7562  0.0737
 9245WAT     H237701   3.164   0.943   2.973  0.1320 -0.7339  0.3831
 9245WAT    EPW37702   3.111   0.924   3.029 -0.3763 -0.6889 -0.0735
 9246WAT      O37703   3.761   0.203   4.589 -0.2781 -0.4961  0.6586
 9246WAT     H137704   3.751   0.186   4.674  0.0422  0.9190  1.0199
 9246WAT     H237705   3.840   0.170   4.570  0.8277  1.4060  1.6078
 9246WAT    EPW37706   3.771   0.196   4.598 -0.0675 -0.0061  0.8522
 9247WAT      O37707   1.495   5.736   2.394 -0.0665  0.1116  0.0630
 9247WAT     H137708   1.499   5.726   2.481  2.1073 -1.6266 -0.1547
 9247WAT     H237709   1.555   5.797   2.377 -0.5474  0.5133 -0.2410
 9247WAT    EPW37710   1.504   5.744   2.404  0.1836 -0.0858 -0.0141
 9248WAT      O37711   6.199   6.624   1.482  0.6480  0.1142  0.2229
 9248WAT     H137712   6.275   6.592   1.510  0.1557  0.5546  2.2315
 9248WAT     H237713   6.156   6.553   1.454  1.6394 -0.1744 -0.6600
 9248WAT    EPW37714   6.204   6.609   1.482  0.7217  0.1367  0.3892
 9249WAT      O37715   4.877   3.916   2.114  0.2204  0.1670 -0.4919
 9249WAT     H137716   4.932   3.970   2.156  1.3600 -0.1448 -1.5278
 9249WAT     H237717   4.908   3.837   2.132  0.2272 -0.0060 -1.2149
 9249WAT    EPW37718   4.890   3.913   2.123  0.3897  0.0954 -0.7517
 9250WAT      O37719   6.792   4.016   3.551 -0.3575  1.3803 -0.3866
 9250WAT     H137720   6.795   4.088   3.501  0.6621  1.2790 -0.4850
 9250WAT     H237721   6.774   4.047   3.630  0.8716  1.8447 -0.2709
 9250WAT    EPW37722   6.790   4.031   3.555 -0.0253  1.4340 -0.3840
 9251WAT      O37723   1.860   6.248   2.307 -0.0074 -0.1284  0.2049
 9251WAT     H137724   1.820   6.232   2.383 -0.0794 -1.4342 -0.0912
 9251WAT     H237725   1.892   6.329   2.318 -0.2757 -0.1726  1.5049
 9251WAT    EPW37726   1.859   6.258   2.320 -0.0577 -0.3278  0.3532
 9252WAT      O37727   3.066   6.045   7.287  0.0804  0.2935  0.1906
 9252WAT     H137728   3.061   6.063   7.372 -2.5477  1.0015 -0.0314
 9252WAT     H237729   2.987   6.015   7.267  0.8307 -0.5154 -1.8981
 9252WAT    EPW37730   3.054   6.043   7.296 -0.1970  0.2786 -0.1508
 9253WAT      O37731   2.031   4.163   1.845 -0.5556  0.7516  0.0653
 9253WAT     H137732   2.036   4.123   1.768  1.1705 -0.7546  0.9066
 9253WAT     H237733   1.987   4.107   1.895 -1.2066  1.4853  0.3421
 9253WAT    EPW37734   2.025   4.149   1.841 -0.3968  0.6375  0.2304
 9254WAT      O37735   2.816   1.936   2.809  0.3189 -0.0992 -0.2230
 9254WAT     H137736   2.884   1.899   2.849 -0.8713 -1.6593  0.4697
 9254WAT     H237737   2.829   2.021   2.822  1.3927 -0.4249  1.1535
 9254WAT    EPW37738   2.828   1.943   2.817  0.3017 -0.3777  0.0827
 9255WAT      O37739   0.759   2.944   3.968  0.1976  0.0803  0.0476
 9255WAT     H137740   0.838   2.934   3.931  0.6563 -2.0238  1.4107
 9255WAT     H237741   0.708   2.892   3.920 -0.0621  0.3502  0.0303
 9255WAT    EPW37742   0.763   2.935   3.955  0.2270 -0.1907  0.2464
 9256WAT      O37743   0.804   2.936   2.646  0.4707 -0.2257  0.0319
 9256WAT     H137744   0.800   3.022   2.663  0.5943 -0.2039 -0.0478
 9256WAT     H237745   0.727   2.907   2.672 -0.3388  0.2244 -1.7320
 9256WAT    EPW37746   0.792   2.945   2.653  0.3694 -0.1560 -0.2405
 9257WAT      O37747   1.002   0.857   5.195  0.8042  0.0330  0.7449
 9257WAT     H137748   1.034   0.911   5.256  1.6217  1.0483 -0.5169
 9257WAT     H237749   1.033   0.890   5.120  2.1803 -2.7398 -0.0578
 9257WAT    EPW37750   1.011   0.870   5.193  1.1283 -0.2266  0.4399
 9258WAT      O37751   5.606   3.968   5.258 -0.6788  0.2027 -0.4719
 9258WAT     H137752   5.569   3.983   5.181  0.4794 -2.6323 -1.7121
 9258WAT     H237753   5.596   4.043   5.301 -4.0149  0.9120 -2.2259
 9258WAT    EPW37754   5.599   3.981   5.253 -1.0005 -0.1113 -0.9142
 9259WAT      O37755   0.409   5.577   4.718  0.0322 -0.1991 -0.0798
 9259WAT     H137756   0.455   5.588   4.792  1.6691 -1.3254 -0.8683
 9259WAT     H237757   0.438   5.500   4.688 -0.0660  0.5648 -2.2684
 9259WAT    EPW37758   0.420   5.567   4.725  0.2595 -0.2527 -0.5195
 9260WAT      O37759   1.996   6.447   2.060  0.2992 -0.0419 -0.1876
 9260WAT     H137760   2.059   6.387   2.057  0.1301 -0.2076 -2.9207
 9260WAT     H237761   1.982   6.466   1.976 -1.0853  2.3407  0.4933
 9260WAT    EPW37762   2.003   6.441   2.047  0.0697  0.2856 -0.4908
 9261WAT      O37763   4.600   0.532   3.503 -0.4434  0.3535  0.2628
 9261WAT     H137764   4.638   0.490   3.437 -0.6734  0.1616  0.2497
 9261WAT     H237765   4.579   0.610   3.469  1.6996  1.2311  0.8225
 9261WAT    EPW37766   4.602   0.537   3.488 -0.1608  0.4548  0.3435
 9262WAT      O37767   0.141   1.059   3.419 -0.0244  0.2761 -0.3500
 9262WAT     H137768   0.078   1.057   3.479  1.0447  2.3811  0.9593
 9262WAT     H237769   0.129   1.136   3.379  1.0253  0.2040 -0.8458
 9262WAT    EPW37770   0.130   1.070   3.422  0.2886  0.5764 -0.2298
 9263WAT      O37771   3.094   2.062   0.207 -0.7450  0.4819 -0.0008
 9263WAT     H137772   3.144   1.995   0.232 -1.7370  0.0302  0.8704
 9263WAT     H237773   3.136   2.132   0.238 -0.4780  0.1324  0.4308
 9263WAT    EPW37774   3.107   2.062   0.216 -0.8521  0.3635  0.1917
 9264WAT      O37775   0.088   3.374   4.348  0.1025 -0.0512  0.1568
 9264WAT     H137776   0.166   3.377   4.309  0.3609 -0.7182  0.6082
 9264WAT     H237777   0.054   3.299   4.319 -1.8335  1.7159 -2.7146
 9264WAT    EPW37778   0.095   3.364   4.338 -0.1453  0.1113 -0.2007
 9265WAT      O37779   5.298   6.248   2.609 -0.1558  0.2758 -0.1054
 9265WAT     H137780   5.255   6.172   2.604  1.6499 -0.8017 -0.0948
 9265WAT     H237781   5.302   6.263   2.695 -2.2066  1.4584 -0.1534
 9265WAT    EPW37782   5.292   6.239   2.621 -0.1920  0.2913 -0.1109
 9266WAT      O37783   3.161   4.266   5.441 -0.6043  0.2368  0.0151
 9266WAT     H137784   3.203   4.291   5.513 -0.9130  0.6686  0.0511
 9266WAT     H237785   3.224   4.246   5.385 -0.3607 -0.2434  0.4513
 9266WAT    EPW37786   3.176   4.267   5.443 -0.6139  0.2296  0.0848
 9267WAT      O37787   0.200   6.896   6.502 -0.7075 -0.3232 -0.0157
 9267WAT     H137788   0.169   6.845   6.439 -0.7562  0.8883 -1.0065
 9267WAT     H237789   0.134   6.950   6.519 -1.1847 -1.4530  2.0531
 9267WAT    EPW37790   0.186   6.896   6.495 -0.7852 -0.3112  0.1435
 9268WAT      O37791   3.569   4.549   1.652  0.2749  0.2175 -0.2853
 9268WAT     H137792   3.580   4.494   1.585  0.2328  1.4890 -1.3955
 9268WAT     H237793   3.482   4.550   1.663  0.1015  1.3339 -1.4470
 9268WAT    EPW37794   3.558   4.541   1.644  0.2431  0.5703 -0.6209
 9269WAT      O37795   1.277   1.854   6.530 -0.5138  0.0344  0.4175
 9269WAT     H137796   1.277   1.811   6.606  1.8550  0.1664  0.5744
 9269WAT     H237797   1.309   1.796   6.473 -1.3086  0.2612 -0.2794
 9269WAT    EPW37798   1.281   1.839   6.533 -0.2813  0.0874  0.3377
 9270WAT      O37799   3.441   2.322   1.188  0.0386  0.3142  0.1367
 9270WAT     H137800   3.424   2.285   1.111 -1.0065  1.2840 -0.1332
 9270WAT     H237801   3.363   2.326   1.227  0.3121  1.1234  0.6453
 9270WAT    EPW37802   3.427   2.317   1.183 -0.0754  0.5770  0.1719
 9271WAT      O37803   3.248   6.928   7.064 -0.6139  0.0158  0.5518
 9271WAT     H137804   3.162   6.927   7.081 -0.6183 -0.6389  0.5073
 9271WAT     H237805   3.253   6.957   6.982 -0.7486  0.7223  0.7902
 9271WAT    EPW37806   3.236   6.932   7.055 -0.6344  0.0234  0.5805
 9272WAT      O37807   0.964   2.175   1.333  0.1081 -0.0466  0.8418
 9272WAT     H137808   0.952   2.113   1.273  0.6309  0.4738  0.1798
 9272WAT     H237809   0.970   2.249   1.286  0.4906  0.3762  1.5309
 9272WAT    EPW37810   0.963   2.177   1.317  0.2418  0.0927  0.8458
 9273WAT      O37811   1.991   5.396   4.324 -0.2473  0.0535 -0.6406
 9273WAT     H137812   1.935   5.361   4.381  0.4084  0.3104  0.1826
 9273WAT     H237813   1.970   5.481   4.324  0.4400  0.2464  0.0687
 9273WAT    EPW37814   1.980   5.403   4.333 -0.0489  0.1199 -0.4142
 9274WAT      O37815   2.455   0.444   3.315 -0.3239 -0.1527 -0.1421
 9274WAT     H137816   2.449   0.445   3.228  2.9872 -0.1359 -0.5045
 9274WAT     H237817   2.472   0.361   3.334  0.1401  0.0335  0.3103
 9274WAT    EPW37818   2.457   0.432   3.305  0.2337 -0.1227 -0.1288
 9275WAT      O37819   2.690   7.034   3.096  0.0175 -0.2730  0.3713
 9275WAT     H137820   2.715   7.112   3.127  2.8681 -1.2280  0.8140
 9275WAT     H237821   2.723   7.033   3.015  0.5096 -1.1758  0.5603
 9275WAT    EPW37822   2.699   7.045   3.088  0.5113 -0.5474  0.4646
 9276WAT      O37823   5.122   0.949   4.153  0.3747 -0.0444  0.3630
 9276WAT     H137824   5.160   1.028   4.149  2.8812 -1.1472  0.1978
 9276WAT     H237825   5.092   0.945   4.235  0.8800  0.7965  0.6010
 9276WAT    EPW37826   5.123   0.960   4.165  0.8196 -0.0831  0.3738
 9277WAT      O37827   3.129   2.881   0.949 -0.2350 -0.0998 -0.1307
 9277WAT     H137828   3.173   2.811   0.978 -0.2904  0.4235  1.3327
 9277WAT     H237829   3.187   2.946   0.957 -0.1705  0.0335 -1.5249
 9277WAT    EPW37830   3.144   2.880   0.955 -0.2336 -0.0028 -0.1205
 9278WAT      O37831   7.190   2.264   4.788 -0.1586  0.7120  0.5682
 9278WAT     H137832   7.226   2.239   4.864  0.7962  1.9031  0.5339
 9278WAT     H237833   7.229   2.213   4.729  1.0496  1.5491  0.6072
 9278WAT    EPW37834   7.201   2.253   4.791  0.1609  1.0116  0.5689
 9279WAT      O37835   7.039   6.553   6.176  0.0054  0.1612 -0.2004
 9279WAT     H137836   7.005   6.486   6.219 -1.7274  0.4604 -1.0234
 9279WAT     H237837   7.078   6.515   6.107 -1.5582 -0.0087 -1.0368
 9279WAT    EPW37838   7.040   6.537   6.172 -0.4815  0.1803 -0.4455
 9280WAT      O37839   1.442   5.056   3.666 -0.1761 -0.0951 -0.1134
 9280WAT     H137840   1.431   5.137   3.697 -0.8914 -0.5114  0.7570
 9280WAT     H237841   1.526   5.056   3.641  0.3525  0.3927  1.4985
 9280WAT    EPW37842   1.453   5.068   3.667 -0.2037 -0.0845  0.2533
 9281WAT      O37843   5.854   3.880   0.792 -0.7228  0.0534  0.2001
 9281WAT     H137844   5.777   3.841   0.779 -0.7534  0.1355  0.1308
 9281WAT     H237845   5.848   3.910   0.873 -0.9291  0.4269  0.0516
 9281WAT    EPW37846   5.841   3.879   0.802 -0.7578  0.1207  0.1679
 9282WAT      O37847   6.873   5.136   7.125  0.8379  0.5942 -0.7621
 9282WAT     H137848   6.897   5.176   7.051  2.0841  0.4552 -0.4485
 9282WAT     H237849   6.948   5.114   7.162  0.2358 -1.9250 -0.8431
 9282WAT    EPW37850   6.887   5.139   7.119  0.9331  0.2015 -0.7277
 9283WAT      O37851   4.395   3.587   1.318 -0.2663 -0.2409 -0.4860
 9283WAT     H137852   4.413   3.571   1.234  0.0580 -0.1925 -0.4270
 9283WAT     H237853   4.309   3.578   1.322 -0.1913 -1.1699 -0.6343
 9283WAT    EPW37854   4.385   3.583   1.306 -0.2073 -0.3710 -0.4992
 9284WAT      O37855   4.973   7.008   0.967 -0.3050  0.5982 -0.1813
 9284WAT     H137856   4.989   6.961   1.039  0.6720  1.8915  0.4852
 9284WAT     H237857   4.900   6.973   0.936 -0.8178  0.0663  1.5124
 9284WAT    EPW37858   4.965   6.996   0.973 -0.2365  0.7106  0.1673
 9285WAT      O37859   5.529   6.971   3.570 -0.0599 -0.2336 -0.2472
 9285WAT     H137860   5.491   6.906   3.613 -1.4757  1.3288  0.9826
 9285WAT     H237861   5.517   6.951   3.486 -1.3073 -1.0840  0.1174
 9285WAT    EPW37862   5.522   6.959   3.564 -0.4533 -0.1284 -0.0117
 9286WAT      O37863   4.941   0.446   6.198  0.6262 -0.1018  0.5675
 9286WAT     H137864   4.997   0.413   6.139  3.0689  0.7482  2.2659
 9286WAT     H237865   4.927   0.379   6.252  0.0646 -0.2630  0.2387
 9286WAT    EPW37866   4.947   0.431   6.197  0.9041 -0.0000  0.7698
 9287WAT      O37867   5.280   6.926   5.973  0.5131  0.5567 -0.1270
 9287WAT     H137868   5.324   6.974   6.031  1.7115  1.7600 -1.9355
 9287WAT     H237869   5.340   6.874   5.938 -0.1614 -0.0852 -0.3649
 9287WAT    EPW37870   5.295   6.926   5.976  0.5905  0.6396 -0.4293
 9288WAT      O37871   7.202   2.024   0.691  0.3445 -0.3233 -0.4580
 9288WAT     H137872   7.160   2.091   0.726 -0.5239 -0.6887 -0.7615
 9288WAT     H237873   7.216   1.970   0.758  2.2844  0.7428  0.0557
 9288WAT    EPW37874   7.198   2.026   0.706  0.5028 -0.2198 -0.4270
 9289WAT      O37875   0.362   4.451   3.829 -0.5502  0.0419 -0.3781
 9289WAT     H137876   0.352   4.365   3.817  1.6218 -0.5558  1.2676
 9289WAT     H237877   0.293   4.473   3.878 -0.2040 -1.2027  0.7269
 9289WAT    EPW37878   0.350   4.441   3.835 -0.1782 -0.2302  0.0282
 9290WAT      O37879   2.856   0.277   2.285 -0.7200  0.3623  0.0289
 9290WAT     H137880   2.905   0.326   2.233  0.6271  0.0606  0.9340
 9290WAT     H237881   2.908   0.263   2.354 -1.0822 -2.1634 -0.1082
 9290WAT    EPW37882   2.871   0.282   2.288 -0.5745 -0.0554  0.1424
 9291WAT      O37883   2.123   0.909   0.107 -0.0772 -0.1496  0.2902
 9291WAT     H137884   2.103   0.959   0.176 -1.7728 -0.6005  0.1646
 9291WAT     H237885   2.046   0.883   0.077  0.7209 -2.1450 -0.1886
 9291WAT    EPW37886   2.109   0.913   0.113 -0.2098 -0.5110  0.2009
 9292WAT      O37887   6.190   3.898   1.862  0.2069  0.1891 -0.0186
 9292WAT     H137888   6.274   3.900   1.838 -0.0470  0.0816 -0.9322
 9292WAT     H237889   6.194   3.878   1.947  1.0674 -0.8298 -0.2810
 9292WAT    EPW37890   6.203   3.895   1.871  0.2965  0.0227 -0.1923
 9293WAT      O37891   5.104   5.013   4.714 -0.2098  0.0495 -0.4616
 9293WAT     H137892   5.133   4.934   4.691  0.8040  0.2461  0.0759
 9293WAT     H237893   5.082   5.003   4.798  1.8033  0.8006  0.2070
 9293WAT    EPW37894   5.105   5.000   4.723  0.2374  0.1895 -0.2835
 9294WAT      O37895   6.534   4.514   2.739 -0.2208  0.2821 -0.4067
 9294WAT     H137896   6.619   4.513   2.720  0.5054 -1.6746  2.3542
 9294WAT     H237897   6.510   4.430   2.734 -2.1441  0.8307 -1.4866
 9294WAT    EPW37898   6.543   4.502   2.736 -0.3976  0.0741 -0.1583
 9295WAT      O37899   0.708   4.025   6.338 -0.2462 -0.0596 -0.1053
 9295WAT     H137900   0.654   4.057   6.398  0.5794 -0.0502  0.6492
 9295WAT     H237901   0.784   4.067   6.353 -0.1047  0.1707 -1.3504
 9295WAT    EPW37902   0.712   4.036   6.349 -0.1033 -0.0242 -0.1778
 9296WAT      O37903   4.861   3.033   3.290 -0.4871  0.3149 -0.2669
 9296WAT     H137904   4.902   3.085   3.347 -0.0023 -1.0522  0.6935
 9296WAT     H237905   4.924   2.977   3.265 -1.4620 -1.1135  0.3579
 9296WAT    EPW37906   4.877   3.032   3.295 -0.5595 -0.0981 -0.0328
 9297WAT      O37907   4.014   2.276   6.323  0.0677 -0.1563  0.0744
 9297WAT     H137908   4.041   2.348   6.283 -0.9274  0.4235  0.4167
 9297WAT     H237909   4.088   2.230   6.333  1.6034  2.5945  3.6384
 9297WAT    EPW37910   4.029   2.280   6.318  0.1476  0.3357  0.6515
 9298WAT      O37911   2.998   2.252   0.008 -0.3741  0.2327 -0.3026
 9298WAT     H137912   2.990   2.178   0.054 -0.2685  0.2578 -0.2446
 9298WAT     H237913   3.084   2.268   0.009 -0.5882  1.4900  1.4675
 9298WAT    EPW37914   3.010   2.243   0.015 -0.3901  0.4222 -0.0326
 9299WAT      O37915   3.978   6.361   0.216 -0.1176  0.1981  0.1262
 9299WAT     H137916   4.058   6.389   0.194 -0.2626 -0.5901 -1.5401
 9299WAT     H237917   3.986   6.342   0.300  1.6545 -0.5360 -0.1576
 9299WAT    EPW37918   3.991   6.363   0.225  0.1228 -0.0268 -0.1619
 9300WAT      O37919   5.449   5.429   4.404  0.1162 -1.2963  0.2342
 9300WAT     H137920   5.397   5.359   4.410 -1.1208 -0.3865  0.6619
 9300WAT     H237921   5.463   5.450   4.488  0.6156 -1.1121  0.1084
 9300WAT    EPW37922   5.443   5.421   4.417  0.0072 -1.1347  0.2788
 9301WAT      O37923   2.557   4.592   2.946  0.0324 -0.5776  0.0320
 9301WAT     H137924   2.516   4.564   3.018  0.8242  0.5781  0.9567
 9301WAT     H237925   2.619   4.532   2.933  0.8764  0.0099  1.2327
 9301WAT    EPW37926   2.560   4.579   2.954  0.2741 -0.3201  0.3460
 9302WAT      O37927   6.639   2.689   3.569  0.3272 -0.1959 -0.3760
 9302WAT     H137928   6.719   2.716   3.589  0.5996 -0.2718 -1.2954
 9302WAT     H237929   6.651   2.605   3.546  0.2613  0.2128 -2.0184
 9302WAT    EPW37930   6.653   2.680   3.568  0.3577 -0.1467 -0.7544
 9303WAT      O37931   3.369   1.014   7.194 -0.0356 -0.3131 -0.0932
 9303WAT     H137932   3.286   1.041   7.191 -0.1910 -0.8461 -1.2414
 9303WAT     H237933   3.391   1.006   7.109  1.7910  1.6010  0.1164
 9303WAT    EPW37934   3.360   1.017   7.181  0.2113 -0.1091 -0.2318
 9304WAT      O37935   2.959   1.663   6.250  0.1919 -0.0803 -0.0943
 9304WAT     H137936   3.025   1.716   6.271 -0.2880  0.0222  1.2658
 9304WAT     H237937   2.920   1.704   6.183  1.5068 -0.1727 -0.9436
 9304WAT    EPW37938   2.963   1.677   6.243  0.3153 -0.0788 -0.0188
 9305WAT      O37939   5.533   6.145   1.302  0.2997  0.7200 -0.0009
 9305WAT     H137940   5.465   6.091   1.310 -0.1465  1.2441 -0.1881
 9305WAT     H237941   5.601   6.091   1.300  0.0966  0.2579  2.3154
 9305WAT    EPW37942   5.533   6.129   1.303  0.2038  0.7292  0.3136
 9306WAT      O37943   2.154   6.443   0.682  0.2059 -0.8255 -0.3304
 9306WAT     H137944   2.086   6.389   0.672  0.0475 -0.2461 -3.3521
 9306WAT     H237945   2.223   6.390   0.673  0.0690 -0.9143 -0.9433
 9306WAT    EPW37946   2.154   6.427   0.679  0.1623 -0.7530 -0.8673
 9307WAT      O37947   5.362   0.622   3.563  0.1470 -0.0098 -0.0263
 9307WAT     H137948   5.445   0.610   3.538  0.3258 -0.1535  0.6147
 9307WAT     H237949   5.320   0.633   3.488  0.8698  0.8610 -0.3254
 9307WAT    EPW37950   5.368   0.622   3.548  0.2802  0.0976  0.0242
 9308WAT      O37951   6.594   3.977   4.861  0.2991 -0.0051  1.1554
 9308WAT     H137952   6.522   4.022   4.879 -0.7448 -0.8452 -0.5882
 9308WAT     H237953   6.635   3.971   4.938 -0.6397  1.9256  1.8621
 9308WAT    EPW37954   6.590   3.983   4.875  0.0062  0.1560  1.0022
 9309WAT      O37955   1.208   1.800   1.847  0.4503  0.3067  0.5590
 9309WAT     H137956   1.271   1.810   1.906  0.4507 -0.1472  0.6456
 9309WAT     H237957   1.135   1.797   1.895  0.4738 -0.3220  0.5676
 9309WAT    EPW37958   1.206   1.801   1.863  0.4538  0.1468  0.5731
 9310WAT      O37959   4.126   0.050   1.598 -0.0115 -0.3093  0.3522
 9310WAT     H137960   4.158  -0.015   1.548  0.2903 -0.0693  0.2327
 9310WAT     H237961   4.136   0.020   1.679  2.1854  0.4863  0.4299
 9310WAT    EPW37962   4.132   0.036   1.603  0.3576 -0.1563  0.3460
 9311WAT      O37963   3.026   4.763   0.821 -0.6438 -0.4144 -0.6970
 9311WAT     H137964   3.048   4.847   0.811  1.9810 -0.7882  0.9452
 9311WAT     H237965   2.972   4.763   0.889  0.5515 -0.1350  0.2890
 9311WAT    EPW37966   3.021   4.775   0.829 -0.0795 -0.4283 -0.3088
 9312WAT      O37967   0.293   6.835   5.287  0.1766 -0.0223 -0.3055
 9312WAT     H137968   0.329   6.893   5.232 -0.3594 -0.0845 -0.7328
 9312WAT     H237969   0.324   6.858   5.365  1.2506 -0.1711 -0.6804
 9312WAT    EPW37970   0.303   6.847   5.290  0.2561 -0.0535 -0.4240
 9313WAT      O37971   1.394   1.426   4.821  1.3903  0.2614 -0.1747
 9313WAT     H137972   1.470   1.385   4.816  0.1723 -2.1504 -0.3983
 9313WAT     H237973   1.339   1.374   4.778 -0.1568  2.6205 -1.3098
 9313WAT    EPW37974   1.397   1.412   4.814  0.9819  0.2536 -0.3754
 9314WAT      O37975   3.400   6.938   0.402 -0.7643 -0.2527  0.3945
 9314WAT     H137976   3.362   6.898   0.335 -0.1249 -0.6875  0.2909
 9314WAT     H237977   3.458   6.991   0.365 -0.3109 -0.5959  0.6055
 9314WAT    EPW37978   3.403   6.940   0.387 -0.6029 -0.3676  0.4104
 9315WAT      O37979   6.394   1.250   3.207 -0.8207  0.1018 -0.7183
 9315WAT     H137980   6.474   1.229   3.180  0.0779  1.5308  0.6551
 9315WAT     H237981   6.387   1.209   3.283 -0.7913  1.1031 -0.1498
 9315WAT    EPW37982   6.405   1.241   3.214 -0.6836  0.4608 -0.4314
 9316WAT      O37983   1.110   0.245   7.372 -0.1955 -0.0287 -0.2512
 9316WAT     H137984   1.165   0.287   7.425 -0.0399 -1.4156  0.7417
 9316WAT     H237985   1.081   0.179   7.421 -1.7565 -0.0934 -1.1916
 9316WAT    EPW37986   1.114   0.242   7.387 -0.4031 -0.2431 -0.2435
 9317WAT      O37987   2.316   5.928   1.686  0.0484  0.0862 -0.4337
 9317WAT     H137988   2.314   6.015   1.680 -0.4456  0.3305  2.1673
 9317WAT     H237989   2.346   5.913   1.766  1.2320 -2.2122 -1.2047
 9317WAT    EPW37990   2.320   5.939   1.697  0.1502 -0.2172 -0.1634
 9318WAT      O37991   2.011   3.673   6.957  0.2276  0.3795 -0.6883
 9318WAT     H137992   1.934   3.655   6.995 -0.2346  0.8438 -1.3860
 9318WAT     H237993   2.040   3.742   7.001  0.2989  0.1366 -0.3528
 9318WAT    EPW37994   2.004   3.680   6.969  0.1699  0.4122 -0.7418
 9319WAT      O37995   5.007   4.195   1.798  0.0890  0.4468 -0.4572
 9319WAT     H137996   4.984   4.233   1.873  2.6946  0.1727  0.5822
 9319WAT     H237997   5.042   4.260   1.752  0.9491  0.0901 -0.3143
 9319WAT    EPW37998   5.009   4.211   1.802  0.6010  0.3536 -0.2826
 9320WAT      O37999   5.527   3.247   0.605 -0.4901 -0.3857 -0.0430
 9320WAT     H138000   5.484   3.322   0.618  0.8421  0.3327  0.4304
 9320WAT     H238001   5.569   3.234   0.680 -1.8652 -2.4552  0.4614
 9320WAT    EPW38002   5.526   3.256   0.618 -0.4965 -0.5853  0.1014
 9321WAT      O38003   0.111   3.439   1.521  0.4839 -0.1339  0.1628
 9321WAT     H138004   0.180   3.493   1.521  1.1528 -0.9223  1.6243
 9321WAT     H238005   0.070   3.459   1.595 -1.1579  0.6167 -0.8861
 9321WAT    EPW38006   0.115   3.450   1.532  0.3402 -0.1395  0.2238
 9322WAT      O38007   6.399   0.869   7.187  0.0537 -0.2006  0.2980
 9322WAT     H138008   6.346   0.932   7.216  0.1349  0.5499 -1.0920
 9322WAT     H238009   6.380   0.863   7.102 -0.4417 -2.5739  0.5184
 9322WAT    EPW38010   6.389   0.878   7.179 -0.0075 -0.4404  0.1253
 9323WAT      O38011   4.917   0.019   3.769  0.7794 -0.2114  0.1141
 9323WAT     H138012   4.834   0.046   3.768  0.7594 -0.2803 -0.2231
 9323WAT     H238013   4.963   0.093   3.773  0.7016 -0.1673  0.1805
 9323WAT    EPW38014   4.912   0.034   3.769  0.7650 -0.2151  0.0741
 9324WAT      O38015   6.552   2.615   2.741  0.2451 -0.4448  0.7312
 9324WAT     H138016   6.473   2.614   2.777  0.7022  2.1143  2.0515
 9324WAT     H238017   6.605   2.606   2.810  1.1107  0.5456  0.2206
 9324WAT    EPW38018   6.548   2.614   2.757  0.4405  0.0795  0.8508
 9325WAT      O38019   5.772   0.407   0.328  0.0812 -0.3275 -0.3907
 9325WAT     H138020   5.837   0.439   0.279 -0.0349  1.2393  0.4306
 9325WAT     H238021   5.812   0.380   0.401 -0.2882  2.0517  0.7802
 9325WAT    EPW38022   5.788   0.408   0.331  0.0095  0.2554 -0.0964
 9326WAT      O38023   6.558   0.974   2.926 -0.2663 -0.0772 -0.0770
 9326WAT     H138024   6.492   0.983   2.869  0.7597  1.3984 -1.1189
 9326WAT     H238025   6.607   0.912   2.889  0.0259  0.3627 -0.4360
 9326WAT    EPW38026   6.555   0.966   2.912 -0.0716  0.2058 -0.2840
 9327WAT      O38027   2.217   2.748   0.691 -0.4987 -0.5798  0.5309
 9327WAT     H138028   2.303   2.756   0.678 -0.2526  4.2343  2.9182
 9327WAT     H238029   2.183   2.755   0.611  1.3322  2.3187 -0.1267
 9327WAT    EPW38030   2.225   2.750   0.677 -0.1919  0.5595  0.7864
 9328WAT      O38031   3.208   6.132   0.788 -0.2886  0.0345  0.3324
 9328WAT     H138032   3.171   6.077   0.845 -1.9142 -0.3275 -0.9957
 9328WAT     H238033   3.209   6.087   0.713  2.9628  0.0318  0.2499
 9328WAT    EPW38034   3.203   6.117   0.785 -0.0484 -0.0193  0.1240
 9329WAT      O38035   4.975   5.527   1.014 -0.3357  0.2725 -0.0031
 9329WAT     H138036   4.907   5.508   0.963  1.5522 -1.1969 -2.1813
 9329WAT     H238037   4.950   5.499   1.092 -2.0409 -0.6435 -0.8122
 9329WAT    EPW38038   4.961   5.520   1.018 -0.3087 -0.0798 -0.4444
 9330WAT      O38039   5.824   0.345   6.357  0.0564 -0.0747 -0.2999
 9330WAT     H138040   5.804   0.421   6.394  1.4576 -0.4057  1.2208
 9330WAT     H238041   5.880   0.309   6.413  1.4084 -1.1018 -2.2119
 9330WAT    EPW38042   5.829   0.351   6.370  0.4631 -0.2753 -0.3577
 9331WAT      O38043   6.910   1.061   0.088  0.3207 -0.1806 -0.6002
 9331WAT     H138044   6.997   1.061   0.092  0.3190  2.2075  1.1192
 9331WAT     H238045   6.890   1.139   0.054 -1.1496  0.4028  1.3961
 9331WAT    EPW38046   6.920   1.072   0.084  0.1033  0.2584 -0.0513
 9332WAT      O38047   3.550   5.895   2.802  0.2523 -0.1248 -0.2108
 9332WAT     H138048   3.552   5.934   2.725 -1.9356 -0.8266 -0.6992
 9332WAT     H238049   3.632   5.903   2.832  1.2520 -0.1163 -2.7098
 9332WAT    EPW38050   3.563   5.902   2.795  0.0768 -0.2272 -0.6521
 9333WAT      O38051   7.266   0.897   0.541 -0.1459 -0.2674  0.0238
 9333WAT     H138052   7.286   0.896   0.626  0.3584  0.0126 -0.0842
 9333WAT     H238053   7.187   0.860   0.538  0.3696 -1.4520  0.4711
 9333WAT    EPW38054   7.257   0.891   0.553  0.0048 -0.4010  0.0740
 9334WAT      O38055   5.969   5.578   6.411  0.0402 -0.2044 -0.1371
 9334WAT     H138056   5.959   5.515   6.470 -0.7325  1.7853  1.9594
 9334WAT     H238057   6.054   5.573   6.390  0.9027  0.3651  2.8193
 9334WAT    EPW38058   5.980   5.568   6.416  0.0535  0.1736  0.6093
 9335WAT      O38059   1.967   1.523   4.764 -0.0456  0.1905 -0.4740
 9335WAT     H138060   1.922   1.486   4.699 -3.2463 -0.7132  1.9809
 9335WAT     H238061   1.922   1.596   4.781 -0.1995 -0.3187  1.5770
 9335WAT    EPW38062   1.953   1.528   4.757 -0.5412 -0.0182  0.1916
 9336WAT      O38063   0.813   6.491   1.658 -0.1415 -0.1913 -0.2253
 9336WAT     H138064   0.893   6.458   1.657 -0.2431 -0.4259 -0.6065
 9336WAT     H238065   0.808   6.530   1.736  1.0926  1.7411 -1.0529
 9336WAT    EPW38066   0.824   6.492   1.670  0.0258  0.0595 -0.4039
 9337WAT      O38067   0.608   3.845   7.023 -0.3903 -0.1839  0.3241
 9337WAT     H138068   0.678   3.856   6.972  0.5086  1.0425  1.7341
 9337WAT     H238069   0.643   3.836   7.103 -1.8351 -0.0745  0.9901
 9337WAT    EPW38070   0.624   3.845   7.027 -0.4709  0.0134  0.6308
 9338WAT      O38071   4.967   0.220   4.663  0.0623 -0.0923  0.1619
 9338WAT     H138072   5.027   0.163   4.636  0.6829  1.2961 -1.6129
 9338WAT     H238073   5.005   0.260   4.731  0.9193  0.3214 -0.5421
 9338WAT    EPW38074   4.981   0.218   4.669  0.2805  0.1739 -0.2043
 9339WAT      O38075   4.321   3.680   4.574  0.5074 -0.1764  0.5806
 9339WAT     H138076   4.320   3.671   4.488 -0.6671  1.5598  0.3506
 9339WAT     H238077   4.277   3.610   4.603 -2.0019  0.8091 -0.5144
 9339WAT    EPW38078   4.314   3.668   4.566 -0.0368  0.2256  0.3848
 9340WAT      O38079   4.711   0.030   2.304 -0.6213  0.0612 -0.3798
 9340WAT     H138080   4.703   0.039   2.217 -1.0917  3.1136 -0.1325
 9340WAT     H238081   4.636   0.062   2.335 -1.2298 -2.5724  1.2071
 9340WAT    EPW38082   4.699   0.036   2.296 -0.7807  0.1231 -0.1088
 9341WAT      O38083   7.289   4.104   6.824 -0.1927 -0.3122  0.1626
 9341WAT     H138084   7.354   4.161   6.820  0.4278 -0.9383  0.9651
 9341WAT     H238085   7.280   4.077   6.742 -0.5972  1.0350 -0.2524
 9341WAT    EPW38086   7.297   4.109   6.812 -0.1608 -0.2057  0.2198
 9342WAT      O38087   3.436   5.590   6.844  0.1720 -0.0611  0.0523
 9342WAT     H138088   3.394   5.614   6.916 -0.3099  1.7681 -0.7560
 9342WAT     H238089   3.409   5.649   6.785  1.3432 -0.8612 -1.3464
 9342WAT    EPW38090   3.425   5.602   6.846  0.2738  0.0909 -0.2737
 9343WAT      O38091   2.605   2.971   0.151  0.5721  0.0582 -0.3146
 9343WAT     H138092   2.631   3.035   0.205  0.5357  0.2713 -0.5522
 9343WAT     H238093   2.586   3.013   0.077 -0.3423 -0.1139 -0.1882
 9343WAT    EPW38094   2.606   2.987   0.148  0.4316  0.0643 -0.3310
 9344WAT      O38095   3.979   4.234   5.937 -0.4723  0.0070  0.9298
 9344WAT     H138096   3.954   4.152   5.951  0.9468 -0.2741  2.1078
 9344WAT     H238097   3.980   4.241   5.850  1.6804 -2.0218  0.6717
 9344WAT    EPW38098   3.975   4.223   5.927  0.0553 -0.3342  1.0657
 9345WAT      O38099   1.070   7.113   7.228 -0.0654 -0.0291  0.0110
 9345WAT     H138100   0.992   7.085   7.199 -0.4815 -0.2490  1.3145
 9345WAT     H238101   1.108   7.040   7.257 -0.3266  0.4078  1.5313
 9345WAT    EPW38102   1.065   7.098   7.228 -0.1655  0.0030  0.4282
 9346WAT      O38103   5.306   0.970   6.357 -0.3751  0.1150  0.1648
 9346WAT     H138104   5.261   1.013   6.297 -1.1281 -0.9556 -0.0718
 9346WAT     H238105   5.364   0.924   6.311  0.5876  1.0536  0.4297
 9346WAT    EPW38106   5.308   0.969   6.342 -0.3441  0.0955  0.1690
 9347WAT      O38107   4.483   0.547   7.264 -0.0432 -0.2297  0.3519
 9347WAT     H138108   4.528   0.503   7.204 -1.3866 -1.7056  0.3715
 9347WAT     H238109   4.534   0.544   7.334  1.6458  1.7000 -0.6896
 9347WAT    EPW38110   4.497   0.540   7.266  0.0079 -0.1626  0.2009
 9348WAT      O38111   4.206   5.898   7.271 -0.6966 -0.3900  0.2546
 9348WAT     H138112   4.250   5.973   7.279  0.3127 -1.0078  0.7224
 9348WAT     H238113   4.122   5.923   7.269 -0.4062  0.7025  1.0109
 9348WAT    EPW38114   4.200   5.913   7.272 -0.5046 -0.3199  0.4354
 9349WAT      O38115   3.363   4.540   6.809  0.0490  0.4025 -0.2901
 9349WAT     H138116   3.290   4.491   6.819 -0.2179  0.8542  0.0066
 9349WAT     H238117   3.380   4.534   6.724 -1.1015  1.3589 -0.6227
 9349WAT    EPW38118   3.354   4.532   6.798 -0.1604  0.6105 -0.2954
 9350WAT      O38119   6.130   3.015   6.513 -0.0523 -0.3460  0.4703
 9350WAT     H138120   6.168   3.002   6.435 -0.7737 -1.2262  0.2457
 9350WAT     H238121   6.053   2.975   6.505  0.0937 -0.9588  1.8248
 9350WAT    EPW38122   6.124   3.007   6.500 -0.1373 -0.5666  0.6372
 9351WAT      O38123   5.741   0.919   6.735  0.0174 -0.6724 -0.2281
 9351WAT     H138124   5.744   0.949   6.653  0.6701  1.1401  0.4244
 9351WAT     H238125   5.658   0.893   6.744 -0.2821 -0.0954 -1.1893
 9351WAT    EPW38126   5.729   0.919   6.724  0.0695 -0.3194 -0.2737
 9352WAT      O38127   3.714   0.233   1.639  0.2051  0.6493  0.5522
 9352WAT     H138128   3.747   0.228   1.719  0.2611 -0.2415  0.4901
 9352WAT     H238129   3.690   0.316   1.631  0.5329  0.8273  1.3572
 9352WAT    EPW38130   3.715   0.244   1.649  0.2618  0.5440  0.6620
 9353WAT      O38131   0.234   3.757   4.251 -0.1527 -0.2535 -0.6746
 9353WAT     H138132   0.256   3.680   4.215  1.1005 -0.3092  0.1202
 9353WAT     H238133   0.312   3.795   4.265 -0.6719  0.4597  0.4125
 9353WAT    EPW38134   0.249   3.751   4.248 -0.0443 -0.1564 -0.3966
 9354WAT      O38135   6.797   5.003   2.108  0.3687  0.2516  0.2515
 9354WAT     H138136   6.740   5.031   2.167  1.8282 -0.0097  1.8546
 9354WAT     H238137   6.873   5.005   2.150  1.1773 -1.9111 -0.9450
 9354WAT    EPW38138   6.800   5.007   2.123  0.7037 -0.1065  0.3116
 9355WAT      O38139   3.094   1.896   1.216 -0.2711  0.1120 -0.1048
 9355WAT     H138140   3.150   1.862   1.158  0.0127 -0.5906  0.5749
 9355WAT     H238141   3.024   1.845   1.208 -0.5222  0.4944 -0.3751
 9355WAT    EPW38142   3.092   1.884   1.206 -0.2662  0.0647 -0.0443
 9356WAT      O38143   1.794   5.368   3.825  0.4323 -0.5690  0.0542
 9356WAT     H138144   1.821   5.378   3.908  1.6269 -0.6252 -0.3060
 9356WAT     H238145   1.715   5.334   3.833 -1.0668  2.7516  1.2467
 9356WAT    EPW38146   1.787   5.365   3.839  0.3874 -0.0868  0.1772
 9357WAT      O38147   0.788   5.361   1.094 -0.0345 -0.4294  0.5977
 9357WAT     H138148   0.729   5.423   1.112  1.4773  1.7632 -1.3187
 9357WAT     H238149   0.844   5.366   1.161 -0.7656 -0.9166  1.2678
 9357WAT    EPW38150   0.788   5.371   1.107  0.0808 -0.1775  0.4136
 9358WAT      O38151   2.140   6.903   4.152  0.5101  0.5773 -0.2854
 9358WAT     H138152   2.203   6.960   4.173  0.3155  1.1086 -1.1086
 9358WAT     H238153   2.067   6.942   4.180  0.5300 -0.0816  0.7579
 9358WAT    EPW38154   2.138   6.917   4.159  0.4843  0.5585 -0.2529
 9359WAT      O38155   3.161   5.386   4.446 -0.5007 -0.3250  0.0347
 9359WAT     H138156   3.137   5.305   4.425  0.6161 -0.8019  0.5298
 9359WAT     H238157   3.105   5.436   4.401 -1.1925 -1.3547 -0.2937
 9359WAT    EPW38158   3.149   5.382   4.436 -0.4379 -0.5476  0.0594
 9360WAT      O38159   2.394   0.828   5.099  0.5753  0.1107  0.0492
 9360WAT     H138160   2.433   0.791   5.030  2.3359  0.3515  0.8458
 9360WAT     H238161   2.442   0.899   5.113  0.0198  0.2620  1.2834
 9360WAT    EPW38162   2.407   0.833   5.091  0.7533  0.1686  0.3492
 9361WAT      O38163   5.642   5.092   6.797  0.1162  0.1545 -0.1592
 9361WAT     H138164   5.672   5.106   6.716  0.7590 -0.2252  0.0105
 9361WAT     H238165   5.697   5.137   6.848  0.4287 -0.5784  0.1586
 9361WAT    EPW38166   5.655   5.101   6.793  0.2573 -0.0099 -0.0872
 9362WAT      O38167   4.780   5.113   2.401  0.1951  0.1774  0.3153
 9362WAT     H138168   4.836   5.147   2.458 -0.0379 -0.8344  1.1722
 9362WAT     H238169   4.793   5.027   2.407 -2.3532 -0.2350  1.6058
 9362WAT    EPW38170   4.790   5.105   2.411 -0.2158 -0.0330  0.6325
 9363WAT      O38171   4.844   0.041   0.198 -0.0132  0.6029  0.0011
 9363WAT     H138172   4.811   0.073   0.272 -2.5799 -0.4667 -0.5884
 9363WAT     H238173   4.893   0.107   0.167  0.4376  1.3652  2.1951
 9363WAT    EPW38174   4.847   0.056   0.204 -0.3258  0.5575  0.2381
 9364WAT      O38175   0.569   4.918   2.074  0.1610 -0.3623  0.3915
 9364WAT     H138176   0.641   4.927   2.123 -0.7719  1.2099  1.5922
 9364WAT     H238177   0.587   4.850   2.023  1.6326 -1.4300  2.1960
 9364WAT    EPW38178   0.582   4.909   2.074  0.2406 -0.2878  0.8354
 9365WAT      O38179   6.300   4.811   0.517  0.6490  0.2403 -0.7869
 9365WAT     H138180   6.261   4.858   0.579  2.3103  0.0294  0.4661
 9365WAT     H238181   6.274   4.851   0.443 -0.2610  1.3524  0.0896
 9365WAT    EPW38182   6.291   4.824   0.515  0.7600  0.3734 -0.4723
 9366WAT      O38183   2.103   4.385   5.705  0.0268 -0.1402 -0.4258
 9366WAT     H138184   2.124   4.302   5.723  2.8815  0.5993  0.1387
 9366WAT     H238185   2.066   4.412   5.779  2.0055 -0.0834  0.6026
 9366WAT    EPW38186   2.101   4.376   5.719  0.7408 -0.0225 -0.1905
 9367WAT      O38187   0.326   2.073   2.013  0.1718  0.4814 -0.3677
 9367WAT     H138188   0.298   2.151   1.987  1.0594  1.3215  1.0260
 9367WAT     H238189   0.410   2.072   1.990  0.4925  0.4941  0.7130
 9367WAT    EPW38190   0.334   2.085   2.006  0.3503  0.6074 -0.0022
 9368WAT      O38191   0.632   6.178   4.508  0.3012  0.0117  0.7119
 9368WAT     H138192   0.687   6.150   4.445 -0.8022 -1.5608  0.3981
 9368WAT     H238193   0.597   6.251   4.473  0.0911 -0.5508 -0.2964
 9368WAT    EPW38194   0.635   6.185   4.493  0.1071 -0.3037  0.5166
 9369WAT      O38195   2.589   1.941   0.974  0.1429  0.0842  0.2251
 9369WAT     H138196   2.508   1.923   1.001  0.4096  0.1738  1.1199
 9369WAT     H238197   2.639   1.920   1.042  0.7047  1.7523  0.3744
 9369WAT    EPW38198   2.584   1.936   0.988  0.2653  0.3438  0.3793
 9370WAT      O38199   4.518   0.325   1.824 -0.0202  0.1350 -0.3018
 9370WAT     H138200   4.459   0.274   1.864  0.5743  0.9217  1.7118
 9370WAT     H238201   4.499   0.405   1.855  2.4943  0.3104  1.0071
 9370WAT    EPW38202   4.506   0.330   1.835  0.4391  0.2771  0.1890
 9371WAT      O38203   0.501   5.073   2.338  0.0138  0.6021  0.1142
 9371WAT     H138204   0.423   5.033   2.330 -0.3666  1.2902  0.2930
 9371WAT     H238205   0.532   5.074   2.256  0.4388 -0.8327  0.2243
 9371WAT    EPW38206   0.494   5.067   2.325  0.0204  0.4918  0.1569
 9372WAT      O38207   0.113   1.315   3.341  0.4183 -0.0994  0.4559
 9372WAT     H138208   0.177   1.372   3.358 -0.8246  1.3971  0.3192
 9372WAT     H238209   0.122   1.299   3.255  2.6088 -2.5099  1.0384
 9372WAT    EPW38210   0.124   1.321   3.331  0.5583 -0.2344  0.5218
 9373WAT      O38211   3.010   1.289   4.039  0.1065 -0.0337  0.6179
 9373WAT     H138212   3.056   1.272   3.967  0.2292  0.4085  0.5874
 9373WAT     H238213   2.938   1.327   4.008  1.1580  2.3539  0.8047
 9373WAT    EPW38214   3.006   1.292   4.024  0.2800  0.3843  0.6410
 9374WAT      O38215   6.178   5.896   0.717 -0.6470  0.7984  0.4249
 9374WAT     H138216   6.159   5.975   0.751  0.4408  1.1479  0.2587
 9374WAT     H238217   6.161   5.906   0.632 -0.9561  0.7117  0.4773
 9374WAT    EPW38218   6.173   5.909   0.710 -0.5320  0.8373  0.4081
 9375WAT      O38219   1.813   1.491   7.219  0.4852 -0.4993 -0.1048
 9375WAT     H138220   1.895   1.474   7.244  1.2941  2.4791 -0.3322
 9375WAT     H238221   1.769   1.495   7.295  1.3649  1.2426  0.3858
 9375WAT    EPW38222   1.818   1.489   7.234  0.7346  0.1980 -0.0659
 9376WAT      O38223   3.945   1.664   6.600  0.5030  0.4984  0.0829
 9376WAT     H138224   4.017   1.620   6.619 -1.5127 -2.5684  1.3950
 9376WAT     H238225   3.907   1.615   6.538 -0.0195  2.6385 -1.4220
 9376WAT    EPW38226   3.950   1.650   6.594  0.1281  0.3615  0.0544
 9377WAT      O38227   4.165   5.446   3.079  0.8500  0.2259 -0.5581
 9377WAT     H138228   4.182   5.528   3.101  0.6365  0.6501 -1.8941
 9377WAT     H238229   4.223   5.428   3.016  0.5619 -0.4701 -0.6379
 9377WAT    EPW38230   4.176   5.455   3.073  0.7759  0.1857 -0.7672
 9378WAT      O38231   5.493   5.804   4.979  0.3402 -0.1646 -0.1632
 9378WAT     H138232   5.442   5.866   5.013  0.4089 -1.1049  1.7855
 9378WAT     H238233   5.531   5.844   4.911 -2.2384  0.8287 -1.1298
 9378WAT    EPW38234   5.491   5.819   4.974 -0.0306 -0.1568 -0.0181
 9379WAT      O38235   1.079   4.728   0.580 -0.4071 -0.0443 -0.0352
 9379WAT     H138236   1.150   4.713   0.629 -0.4073  2.0660  0.7119
 9379WAT     H238237   1.096   4.686   0.506  1.5096  0.1730  0.2304
 9379WAT    EPW38238   1.092   4.720   0.576 -0.1240  0.2996  0.1144
 9380WAT      O38239   3.010   5.530   7.072  0.2329 -0.1751 -0.5059
 9380WAT     H138240   2.961   5.525   7.144  2.0208 -0.1711  0.7817
 9380WAT     H238241   3.075   5.474   7.088  3.1206  2.9784 -0.0458
 9380WAT    EPW38242   3.013   5.521   7.085  0.9236  0.2913 -0.2477
 9381WAT      O38243   2.473   0.753   4.597  0.5038  0.1133  0.1489
 9381WAT     H138244   2.442   0.830   4.571  0.9115 -0.0185 -0.7703
 9381WAT     H238245   2.407   0.698   4.583 -0.0744  0.3938  1.5502
 9381WAT    EPW38246   2.459   0.756   4.591  0.4786  0.1352  0.2202
 9382WAT      O38247   5.817   1.220   2.123  0.1334 -0.3961 -0.1314
 9382WAT     H138248   5.791   1.168   2.058  1.7676 -0.8668 -0.4585
 9382WAT     H238249   5.903   1.209   2.125  0.6246  2.5447 -0.4111
 9382WAT    EPW38250   5.826   1.211   2.114  0.4474 -0.0312 -0.2211
 9383WAT      O38251   1.351   1.826   1.402  0.3825 -0.2540  0.3387
 9383WAT     H138252   1.287   1.799   1.454  0.4037  0.6193  0.8482
 9383WAT     H238253   1.373   1.904   1.436 -1.6225  1.8504 -2.6542
 9383WAT    EPW38254   1.345   1.834   1.415  0.0895  0.1858 -0.0281
 9384WAT      O38255   1.651   5.957   4.449  0.4254 -0.4653  0.1406
 9384WAT     H138256   1.600   5.999   4.507 -0.1294 -1.0104  0.0593
 9384WAT     H238257   1.632   5.873   4.462  1.3995 -0.6911  0.1858
 9384WAT    EPW38258   1.641   5.951   4.460  0.4873 -0.5791  0.1353
 9385WAT      O38259   7.184   5.457   0.266 -0.8706  0.0226 -0.0394
 9385WAT     H138260   7.108   5.431   0.299 -0.2852  0.9052  2.2379
 9385WAT     H238261   7.185   5.543   0.281 -0.4449  0.4665 -2.3071
 9385WAT    EPW38262   7.173   5.466   0.273 -0.7213  0.2186 -0.0380
 9386WAT      O38263   2.394   0.765   6.983  0.2621 -0.8648  0.1111
 9386WAT     H138264   2.350   0.838   6.962  0.3246 -0.7096  0.5007
 9386WAT     H238265   2.477   0.792   6.987  0.8585 -1.7093 -3.3431
 9386WAT    EPW38266   2.400   0.780   6.981  0.3595 -0.9666 -0.3416
 9387WAT      O38267   1.759   3.248   6.508 -0.2700 -0.6779  0.4954
 9387WAT     H138268   1.715   3.187   6.552 -2.6725  0.0147 -0.7367
 9387WAT     H238269   1.697   3.305   6.485  1.4732  0.9175 -0.5571
 9387WAT    EPW38270   1.743   3.248   6.511 -0.3674 -0.3399  0.1579
 9388WAT      O38271   4.338   3.998   5.327  0.1839 -0.1940 -0.1322
 9388WAT     H138272   4.396   3.983   5.264  0.2442  0.8253 -0.3434
 9388WAT     H238273   4.288   3.926   5.327  0.6682 -0.5436 -0.8030
 9388WAT    EPW38274   4.339   3.985   5.318  0.2643 -0.0950 -0.2625
 9389WAT      O38275   1.720   1.888   4.558 -0.0617  0.6677  0.2488
 9389WAT     H138276   1.755   1.893   4.478 -1.1050  0.7558 -0.2155
 9389WAT     H238277   1.754   1.957   4.599  2.1851 -0.5465  0.6102
 9389WAT    EPW38278   1.730   1.899   4.552  0.1161  0.5014  0.2336
 9390WAT      O38279   5.787   6.175   2.935 -0.3488 -0.5741  0.5636
 9390WAT     H138280   5.815   6.092   2.936  2.0221  0.1250 -0.6562
 9390WAT     H238281   5.773   6.193   3.019 -1.5397 -2.3501  0.8150
 9390WAT    EPW38282   5.789   6.165   2.948 -0.1745 -0.7332  0.4206
 9391WAT      O38283   2.687   2.816   2.372  0.5304  0.3390 -0.5741
 9391WAT     H138284   2.653   2.740   2.398  1.3855  0.0683 -0.1882
 9391WAT     H238285   2.770   2.795   2.354  1.0952  1.3872  0.6265
 9391WAT    EPW38286   2.694   2.801   2.373  0.7401  0.4539 -0.3397
 9392WAT      O38287   7.292   4.286   6.003  0.6472 -0.4035  1.2260
 9392WAT     H138288   7.252   4.358   5.973  0.0634 -1.2012  0.0388
 9392WAT     H238289   7.228   4.241   6.042  1.1642  0.0543  2.6705
 9392WAT    EPW38290   7.277   4.290   6.004  0.6374 -0.4537  1.2640
 9393WAT      O38291   6.731   1.880   4.388  0.4547  0.0909  0.3455
 9393WAT     H138292   6.783   1.863   4.456  0.3583 -1.2996  0.1031
 9393WAT     H238293   6.658   1.910   4.426 -0.6435 -3.1947  1.1502
 9393WAT    EPW38294   6.728   1.882   4.404  0.2782 -0.5999  0.4286
 9394WAT      O38295   2.913   7.113   0.686  0.3073 -0.9475 -0.3026
 9394WAT     H138296   2.899   7.041   0.732  0.5396 -1.9141 -1.6768
 9394WAT     H238297   2.919   7.084   0.604  1.4300  0.5113 -0.7753
 9394WAT    EPW38298   2.912   7.098   0.680  0.5075 -0.8748 -0.5754
 9395WAT      O38299   3.914   6.852   1.621  0.4440 -0.1370  0.3357
 9395WAT     H138300   3.961   6.844   1.548 -0.6536 -2.9198 -0.1759
 9395WAT     H238301   3.864   6.781   1.621 -1.0510  0.8021  2.7958
 9395WAT    EPW38302   3.914   6.841   1.610  0.0610 -0.4094  0.6235
 9396WAT      O38303   1.966   0.118   2.054 -0.1344  0.6249  0.0759
 9396WAT     H138304   2.025   0.138   2.115 -0.2933  1.7572 -0.1210
 9396WAT     H238305   2.012   0.122   1.979  0.0061 -0.5321  0.0787
 9396WAT    EPW38306   1.982   0.121   2.052 -0.1371  0.6212  0.0473
 9397WAT      O38307   3.965   5.640   0.551 -0.2980  0.8199  0.5940
 9397WAT     H138308   3.909   5.683   0.602 -0.6871 -1.0396  1.8474
 9397WAT     H238309   3.917   5.575   0.518 -0.0947  2.0139 -2.3604
 9397WAT    EPW38310   3.950   5.637   0.554 -0.3254  0.7216  0.3427
 9398WAT      O38311   0.518   6.526   0.976  0.2265  0.3630 -0.1162
 9398WAT     H138312   0.513   6.555   0.894  2.0674  2.9988  0.6061
 9398WAT     H238313   0.601   6.501   0.984  0.3236  1.0397  1.1959
 9398WAT    EPW38314   0.529   6.526   0.965  0.5128  0.8523  0.1843
 9399WAT      O38315   6.551   1.335   5.509 -0.0783  0.4087  0.4766
 9399WAT     H138316   6.552   1.316   5.594  0.3268  0.5833  0.5105
 9399WAT     H238317   6.466   1.349   5.492 -0.1544  0.4054  0.8596
 9399WAT    EPW38318   6.538   1.334   5.519 -0.0297  0.4340  0.5382
 9400WAT      O38319   1.191   2.902   6.713 -0.1189  0.0674  0.6177
 9400WAT     H138320   1.183   2.860   6.789 -0.7782  0.0071  0.5215
 9400WAT     H238321   1.143   2.974   6.724 -3.9164 -1.8688 -1.1111
 9400WAT    EPW38322   1.183   2.906   6.726 -0.7773 -0.2275  0.3481
 9401WAT      O38323   0.035   7.032   7.274  0.1592 -0.1491 -0.3607
 9401WAT     H138324   0.073   6.959   7.301 -1.7180 -0.5074  1.5377
 9401WAT     H238325  -0.043   7.006   7.246 -0.1086  1.0056 -0.7661
 9401WAT    EPW38326   0.029   7.017   7.274 -0.1576 -0.0314 -0.1401
 9402WAT      O38327   4.668   3.388   3.829  0.0277 -0.4975  0.0053
 9402WAT     H138328   4.597   3.407   3.875  0.3661 -0.5057  0.5467
 9402WAT     H238329   4.692   3.310   3.860  1.2375  0.2603  1.0637
 9402WAT    EPW38330   4.661   3.379   3.841  0.2564 -0.3868  0.2416
 9403WAT      O38331   2.393   5.408   3.538  0.1021  0.6164 -0.3446
 9403WAT     H138332   2.340   5.476   3.526  0.7983  1.5477  1.3485
 9403WAT     H238333   2.368   5.351   3.478 -3.0510  0.8464  0.5658
 9403WAT    EPW38334   2.382   5.410   3.528 -0.2608  0.7880  0.0400
 9404WAT      O38335   6.143   7.163   6.300 -0.4478  0.1241  0.2689
 9404WAT     H138336   6.169   7.225   6.356 -1.4759 -0.1495  1.0883
 9404WAT     H238337   6.071   7.196   6.264 -0.0323  0.1159 -0.5945
 9404WAT    EPW38338   6.136   7.177   6.303 -0.5383  0.0825  0.2624
 9405WAT      O38339   4.338   5.457   4.673  0.1968 -0.2485 -0.3860
 9405WAT     H138340   4.259   5.485   4.695  0.0344  0.9546 -2.3237
 9405WAT     H238341   4.325   5.374   4.650 -0.9024  0.4184 -2.4163
 9405WAT    EPW38342   4.325   5.449   4.673  0.0105  0.0277 -0.9722
 9406WAT      O38343   2.416   1.313   2.303  0.2495 -0.0919 -0.1034
 9406WAT     H138344   2.381   1.345   2.229 -1.7148 -0.5614  0.5637
 9406WAT     H238345   2.453   1.383   2.339 -2.7441  1.2909  0.6306
 9406WAT    EPW38346   2.416   1.328   2.297 -0.4829  0.0430  0.1036
 9407WAT      O38347   1.396   6.210   5.764  0.6510  0.4133  0.2393
 9407WAT     H138348   1.353   6.206   5.840  0.3384  1.2648  0.1175
 9407WAT     H238349   1.372   6.137   5.722 -1.1661  1.1576 -0.0783
 9407WAT    EPW38350   1.386   6.199   5.769  0.3364  0.6490  0.1744
 9408WAT      O38351   5.583   4.379   2.921  0.0752  0.0076  0.0535
 9408WAT     H138352   5.560   4.463   2.909  2.4899  0.7374  0.0609
 9408WAT     H238353   5.508   4.341   2.947 -1.9151  1.4348 -2.9472
 9408WAT    EPW38354   5.568   4.386   2.923  0.1379  0.3262 -0.3887
 9409WAT      O38355   1.067   2.917   3.827 -0.3454  0.1283 -0.0345
 9409WAT     H138356   1.001   2.948   3.780  0.5226  0.5455 -1.0285
 9409WAT     H238357   1.089   2.843   3.785  0.8557  0.8426 -0.7120
 9409WAT    EPW38358   1.061   2.911   3.814 -0.0398  0.2955 -0.2814
 9410WAT      O38359   6.691   6.774   0.753  0.2326 -0.0406 -0.4962
 9410WAT     H138360   6.608   6.777   0.726  0.4069 -1.4602 -1.2826
 9410WAT     H238361   6.684   6.762   0.839 -0.3799 -0.0948 -0.5461
 9410WAT    EPW38362   6.677   6.772   0.762  0.1678 -0.2583 -0.6197
 9411WAT      O38363   6.363   5.068   4.635  0.4398  0.1220  0.5997
 9411WAT     H138364   6.394   5.005   4.583 -1.3902 -0.7974  0.5287
 9411WAT     H238365   6.293   5.032   4.671 -0.5862  2.0554  0.6860
 9411WAT    EPW38366   6.357   5.053   4.632  0.0179  0.2718  0.6019
 9412WAT      O38367   4.994   5.166   6.873 -0.0995 -0.1014  1.0934
 9412WAT     H138368   4.974   5.089   6.837  0.6878  0.3419 -0.3523
 9412WAT     H238369   5.064   5.191   6.829  0.5956  0.7343  2.6133
 9412WAT    EPW38370   5.001   5.158   6.862  0.1195  0.0876  1.1043
 9413WAT      O38371   5.961   1.812   6.133 -0.0504 -0.0496 -0.1455
 9413WAT     H138372   5.928   1.843   6.057  0.4626 -1.8121 -1.1339
 9413WAT     H238373   6.044   1.839   6.131  0.2755 -1.0450 -0.7936
 9413WAT    EPW38374   5.968   1.821   6.121  0.0735 -0.4570 -0.3873
 9414WAT      O38375   4.792   4.169   7.074 -0.3561  0.0472  0.4118
 9414WAT     H138376   4.789   4.256   7.072  1.5383  0.1532 -0.2631
 9414WAT     H238377   4.856   4.152   7.131  0.8845 -0.7838 -1.1280
 9414WAT    EPW38378   4.801   4.179   7.082  0.1070 -0.0599  0.0846
 9415WAT      O38379   7.231   2.584   7.007  0.6085  0.0210 -0.3428
 9415WAT     H138380   7.208   2.553   7.085 -1.7866  0.3191 -0.8473
 9415WAT     H238381   7.258   2.513   6.964  2.1109 -0.1211  0.7485
 9415WAT    EPW38382   7.231   2.569   7.012  0.4766  0.0441 -0.2561
 9416WAT      O38383   0.839   0.455   6.077  0.2653 -0.5499 -0.2707
 9416WAT     H138384   0.836   0.383   6.126 -0.5078 -0.6495 -0.4474
 9416WAT     H238385   0.798   0.432   6.004  1.6000 -0.4697 -1.0700
 9416WAT    EPW38386   0.832   0.441   6.074  0.3483 -0.5527 -0.4149
 9417WAT      O38387   6.061   1.085   0.985 -0.4059  0.1139 -0.1971
 9417WAT     H138388   6.046   1.102   1.070  1.1417  0.3041  0.0543
 9417WAT     H238389   6.081   1.163   0.952  3.4909 -0.4940  0.2697
 9417WAT    EPW38390   6.061   1.099   0.993  0.3983  0.0522 -0.0910
 9418WAT      O38391   3.611   0.476   6.057  0.3242  0.1336 -0.1725
 9418WAT     H138392   3.664   0.452   6.122 -0.6082 -2.2240 -0.1937
 9418WAT     H238393   3.548   0.521   6.098  0.0962 -0.7535  0.4859
 9418WAT    EPW38394   3.610   0.479   6.073  0.1528 -0.3457 -0.0783
 9419WAT      O38395   5.207   6.973   1.434  0.3893 -0.1138  0.7385
 9419WAT     H138396   5.243   6.899   1.462  1.7498  0.7962  1.5153
 9419WAT     H238397   5.276   7.023   1.414 -0.5071  0.7684 -0.2466
 9419WAT    EPW38398   5.223   6.969   1.436  0.4579  0.1509  0.7077
 9420WAT      O38399   1.437   3.361   0.110  0.3892 -0.4789  0.6878
 9420WAT     H138400   1.421   3.389   0.029  0.8612 -0.4265  0.6046
 9420WAT     H238401   1.459   3.434   0.153 -1.5144 -0.2282  1.3229
 9420WAT    EPW38402   1.438   3.376   0.104  0.1777 -0.4341  0.7693
 9421WAT      O38403   1.241   0.324   6.246  0.8193 -0.2174 -0.1031
 9421WAT     H138404   1.288   0.320   6.173  0.0638 -1.0115 -0.5571
 9421WAT     H238405   1.178   0.265   6.234  0.1872  0.2344  0.8367
 9421WAT    EPW38406   1.239   0.315   6.234  0.6143 -0.2679 -0.0314
 9422WAT      O38407   4.463   7.156   6.076 -0.3733  0.1377 -0.0597
 9422WAT     H138408   4.438   7.103   6.142  0.9474  1.0995  1.2809
 9422WAT     H238409   4.491   7.100   6.015  0.2392 -0.7570  0.9894
 9422WAT    EPW38410   4.463   7.140   6.077 -0.0877  0.1476  0.2933
 9423WAT      O38411   5.927   2.383   4.765  0.5599 -0.1890 -0.2522
 9423WAT     H138412   5.943   2.299   4.745 -0.1024 -0.5425  0.6259
 9423WAT     H238413   5.873   2.409   4.702 -0.4143 -0.8782  0.2756
 9423WAT    EPW38414   5.922   2.374   4.753  0.3181 -0.3430 -0.0445
 9424WAT      O38415   3.098   5.219   4.061  0.2562 -0.2606 -0.0744
 9424WAT     H138416   3.144   5.201   4.132  1.1606 -1.6735 -0.9753
 9424WAT     H238417   3.159   5.243   4.003 -0.5426  1.8604 -0.1403
 9424WAT    EPW38418   3.114   5.220   4.063  0.2718 -0.1560 -0.2172
 9425WAT      O38419   6.050   2.575   1.756 -0.1658  0.3863 -0.9453
 9425WAT     H138420   6.027   2.531   1.684  1.3841  1.9041 -2.4689
 9425WAT     H238421   6.092   2.645   1.724  0.5175  1.1476  1.4495
 9425WAT    EPW38422   6.053   2.579   1.740  0.1641  0.7229 -0.8166
 9426WAT      O38423   6.468   6.244   5.697  0.2003 -0.0600 -0.4196
 9426WAT     H138424   6.451   6.166   5.734  0.5781 -0.2716 -0.6869
 9426WAT     H238425   6.500   6.223   5.619 -2.3872  0.3931 -1.7085
 9426WAT    EPW38426   6.470   6.229   5.691 -0.1261 -0.0243 -0.6495
 9427WAT      O38427   1.968   4.823   2.046  0.0146 -0.0983  0.3600
 9427WAT     H138428   2.052   4.842   2.030 -0.3795  0.9328 -0.6215
 9427WAT     H238429   1.965   4.737   2.035  0.5567  0.0737 -1.7745
 9427WAT    EPW38430   1.980   4.813   2.042  0.0364  0.0794 -0.1003
 9428WAT      O38431   0.165   2.958   1.006 -0.5719 -0.0708  0.2879
 9428WAT     H138432   0.118   2.967   1.079 -0.4864 -1.2215  0.5023
 9428WAT     H238433   0.223   2.897   1.027 -0.3524 -0.1949 -0.6592
 9428WAT    EPW38434   0.167   2.951   1.020 -0.5269 -0.2591  0.1797
 9429WAT      O38435   3.889   4.667   2.318 -0.1855  0.0853 -0.2594
 9429WAT     H138436   3.940   4.735   2.337 -0.9652  0.4023  0.8136
 9429WAT     H238437   3.820   4.704   2.279 -0.1734 -0.2043 -0.5587
 9429WAT    EPW38438   3.886   4.683   2.315 -0.2989  0.0893 -0.1451
 9430WAT      O38439   0.646   5.548   3.080 -0.0208  0.1581  0.5953
 9430WAT     H138440   0.631   5.631   3.100  0.8589  1.1591 -2.3679
 9430WAT     H238441   0.732   5.545   3.066  0.1683 -1.5825  1.7403
 9430WAT    EPW38442   0.656   5.560   3.081  0.1371  0.0488  0.3267
 9431WAT      O38443   0.727   0.241   3.394  0.3279  0.0191 -0.0305
 9431WAT     H138444   0.670   0.180   3.368 -0.0686  0.2807  0.2120
 9431WAT     H238445   0.754   0.211   3.471  1.4785 -0.7399 -0.7034
 9431WAT    EPW38446   0.722   0.228   3.401  0.4393 -0.0544 -0.0941
 9432WAT      O38447   2.493   4.554   3.649  0.5436  0.3829 -0.4663
 9432WAT     H138448   2.545   4.579   3.714 -0.2432 -0.3172  0.4735
 9432WAT     H238449   2.483   4.626   3.601  1.7701  0.7091 -0.2623
 9432WAT    EPW38450   2.499   4.568   3.651  0.6086  0.3277 -0.2973
 9433WAT      O38451   6.609   1.232   0.640 -0.2173  0.3491  0.0179
 9433WAT     H138452   6.600   1.258   0.723 -1.4339  0.1828 -0.0479
 9433WAT     H238453   6.544   1.273   0.599 -0.4347 -0.5917 -0.6093
 9433WAT    EPW38454   6.598   1.242   0.646 -0.4291  0.1856 -0.0845
 9434WAT      O38455   4.580   4.937   1.804  0.5160 -0.1268 -0.3651
 9434WAT     H138456   4.549   4.929   1.723  0.4607 -0.1264 -0.3444
 9434WAT     H238457   4.584   4.855   1.833 -1.3892 -0.0195  0.3415
 9434WAT    EPW38458   4.576   4.924   1.797  0.2264 -0.1109 -0.2577
 9435WAT      O38459   3.615   5.465   0.171  0.1199  0.0320  0.5234
 9435WAT     H138460   3.636   5.524   0.232 -1.1020  0.8979  0.1220
 9435WAT     H238461   3.591   5.512   0.102  0.6571 -0.9403 -0.3628
 9435WAT    EPW38462   3.615   5.481   0.170  0.0188  0.0163  0.3332
 9436WAT      O38463   6.339   0.471   4.566 -0.3632 -0.1554  0.2585
 9436WAT     H138464   6.405   0.418   4.587  0.8458  0.5763 -1.3940
 9436WAT     H238465   6.320   0.511   4.641  1.4438 -0.0186  0.7057
 9436WAT    EPW38466   6.346   0.469   4.580  0.0823 -0.0271  0.0805
 9437WAT      O38467   0.644   6.617   2.466  0.2247  0.2370  0.5699
 9437WAT     H138468   0.642   6.530   2.463  0.8428  0.1770  1.5647
 9437WAT     H238469   0.729   6.636   2.463  0.1341  0.7699  1.2096
 9437WAT    EPW38470   0.656   6.607   2.465  0.3026  0.3068  0.8114
 9438WAT      O38471   0.817   6.079   4.331  0.3148 -0.0643 -0.1703
 9438WAT     H138472   0.854   6.123   4.266  0.5451  0.7648  0.5047
 9438WAT     H238473   0.778   6.012   4.291 -0.8090  1.2264 -1.3514
 9438WAT    EPW38474   0.816   6.076   4.316  0.1828  0.2488 -0.2450
 9439WAT      O38475   3.443   1.874   7.067  0.5269  0.4689 -0.1149
 9439WAT     H138476   3.431   1.878   7.153  0.4770 -0.3583 -0.0774
 9439WAT     H238477   3.369   1.838   7.037 -0.7056  3.2887 -0.8385
 9439WAT    EPW38478   3.430   1.870   7.075  0.3374  0.7633 -0.2162
 9440WAT      O38479   1.001   7.062   4.883  0.3440 -0.0588 -0.1319
 9440WAT     H138480   1.056   7.027   4.942  0.9881  3.3539  1.5455
 9440WAT     H238481   0.993   6.999   4.823  3.1534 -2.1178  1.3898
 9440WAT    EPW38482   1.008   7.047   4.883  0.8541  0.1412  0.3407
 9441WAT      O38483   1.486   4.252   5.323 -0.0999  0.0777 -0.2161
 9441WAT     H138484   1.486   4.274   5.238 -0.5904 -0.6770 -0.4194
 9441WAT     H238485   1.472   4.166   5.322 -0.2276  0.0813  0.6398
 9441WAT    EPW38486   1.484   4.243   5.310 -0.1912 -0.0332 -0.1197
 9442WAT      O38487   4.973   5.794   1.095 -0.0312 -0.6973  0.2659
 9442WAT     H138488   4.967   5.711   1.070  0.7882 -0.7115  0.0839
 9442WAT     H238489   4.892   5.826   1.080 -0.0373 -1.1499 -0.7991
 9442WAT    EPW38490   4.960   5.787   1.089  0.0890 -0.7663  0.0817
 9443WAT      O38491   4.270   1.216   3.404 -0.4074  0.2432  0.4482
 9443WAT     H138492   4.226   1.279   3.363 -0.7546  0.5045  1.1904
 9443WAT     H238493   4.212   1.185   3.462 -0.0848 -0.4276  0.4251
 9443WAT    EPW38494   4.255   1.220   3.406 -0.4110  0.1827  0.5544
 9444WAT      O38495   1.332   3.331   3.751  0.4716  1.1730 -0.3439
 9444WAT     H138496   1.247   3.353   3.744  0.6989  2.0166 -0.5790
 9444WAT     H238497   1.330   3.244   3.757 -0.4661  1.2180  0.3748
 9444WAT    EPW38498   1.319   3.321   3.751  0.3667  1.3043 -0.2725
 9445WAT      O38499   4.143   0.497   5.771  0.1872 -0.3359 -0.9751
 9445WAT     H138500   4.093   0.427   5.787 -0.4094  0.3268  0.1641
 9445WAT     H238501   4.090   0.551   5.728 -0.2796  0.5480  0.6107
 9445WAT    EPW38502   4.128   0.494   5.767  0.0301 -0.1074 -0.5725
 9446WAT      O38503   1.040   5.849   3.330  0.1147  0.8708  0.6275
 9446WAT     H138504   1.124   5.871   3.322  0.8821 -2.1742 -1.9372
 9446WAT     H238505   0.999   5.895   3.268 -0.3066  2.7520  2.2212
 9446WAT    EPW38506   1.046   5.859   3.320  0.1658  0.6989  0.4841
 9447WAT      O38507   5.836   4.045   2.486  0.1621  0.3930  0.6847
 9447WAT     H138508   5.776   4.069   2.544  1.8783 -1.9666  3.7849
 9447WAT     H238509   5.895   4.109   2.490  0.0650  0.4565  1.3296
 9447WAT    EPW38510   5.836   4.058   2.496  0.4013  0.0538  1.2379
 9448WAT      O38511   6.425   5.644   2.004 -0.6047 -0.5537 -0.4308
 9448WAT     H138512   6.357   5.678   1.962 -0.2758 -0.1848 -0.6712
 9448WAT     H238513   6.473   5.608   1.940 -0.8917 -1.3794 -0.1938
 9448WAT    EPW38514   6.422   5.644   1.989 -0.5985 -0.6212 -0.4313
 9449WAT      O38515   1.973   1.782   5.206 -0.5754  0.5668  0.0264
 9449WAT     H138516   2.032   1.804   5.145  0.0929 -1.6170 -0.2182
 9449WAT     H238517   1.912   1.844   5.198  0.8722  1.9735 -0.8591
 9449WAT    EPW38518   1.973   1.795   5.196 -0.2629  0.4520 -0.1406
 9450WAT      O38519   1.546   4.653   2.280 -0.4955 -0.7716 -0.3772
 9450WAT     H138520   1.502   4.723   2.253 -3.2699 -2.4359 -0.5342
 9450WAT     H238521   1.484   4.599   2.310  1.6443 -2.5162  1.3448
 9450WAT    EPW38522   1.530   4.655   2.281 -0.5893 -1.2752 -0.1461
 9451WAT      O38523   1.015   7.197   6.818 -0.3428  0.5041  0.1743
 9451WAT     H138524   1.098   7.197   6.845 -0.1781 -0.7741 -0.2574
 9451WAT     H238525   1.013   7.257   6.755  0.2517  0.5600  0.2036
 9451WAT    EPW38526   1.027   7.206   6.813 -0.2306  0.3236  0.1148
 9452WAT      O38527   1.087   2.710   0.067  0.2757  0.2873  0.3160
 9452WAT     H138528   1.103   2.644   0.012  1.0721 -0.3188  1.2321
 9452WAT     H238529   1.160   2.757   0.065  0.4960  0.0071  1.1711
 9452WAT    EPW38530   1.100   2.707   0.059  0.4259  0.1564  0.5776
 9453WAT      O38531   0.275   4.806   5.281  0.0543  0.1999  0.0147
 9453WAT     H138532   0.290   4.888   5.307  1.3177 -0.2036  0.6558
 9453WAT     H238533   0.204   4.783   5.327 -0.0468  0.7863  0.1634
 9453WAT    EPW38534   0.266   4.814   5.292  0.2260  0.2270  0.1314
 9454WAT      O38535   6.927   6.137   5.466  0.6835 -0.3243 -0.1460
 9454WAT     H138536   7.010   6.151   5.486  1.3728 -3.3137 -0.4720
 9454WAT     H238537   6.927   6.136   5.379 -0.3048  2.3875 -0.2562
 9454WAT    EPW38538   6.939   6.139   5.456  0.6393 -0.3653 -0.2104
 9455WAT      O38539   2.009   0.721   5.361 -0.0221  0.2684 -0.1180
 9455WAT     H138540   2.039   0.778   5.301  1.1362 -1.3501 -1.1488
 9455WAT     H238541   2.060   0.735   5.430  0.3714  0.3681 -0.4267
 9455WAT    EPW38542   2.021   0.732   5.362  0.2071  0.0440 -0.3159
 9456WAT      O38543   3.067   5.980   0.970 -0.6853  0.3295 -0.3146
 9456WAT     H138544   3.093   6.000   1.050 -0.3303  2.9293 -0.9936
 9456WAT     H238545   3.105   5.903   0.954  0.2826  0.3950  1.5133
 9456WAT    EPW38546   3.077   5.972   0.979 -0.4898  0.7232 -0.1449
 9457WAT      O38547   0.026   5.309   1.126 -0.2604  0.0816  0.3519
 9457WAT     H138548   0.040   5.258   1.057 -3.3729 -1.4947  0.7164
 9457WAT     H238549  -0.052   5.345   1.110 -0.8172  0.1127  2.7729
 9457WAT    EPW38550   0.017   5.307   1.113 -0.8024 -0.1467  0.7634
 9458WAT      O38551   4.625   0.799   0.368  0.4195 -0.1705 -0.3866
 9458WAT     H138552   4.609   0.851   0.436 -2.0662 -0.8069 -0.3746
 9458WAT     H238553   4.646   0.723   0.405 -0.5368 -0.4051 -0.2858
 9458WAT    EPW38554   4.626   0.795   0.383 -0.0890 -0.2992 -0.3699
 9459WAT      O38555   1.891   3.703   2.583 -0.2880 -0.7155  0.3714
 9459WAT     H138556   1.974   3.712   2.609 -0.6072  1.0644  0.9697
 9459WAT     H238557   1.891   3.737   2.503 -0.4469 -0.6021  0.4186
 9459WAT    EPW38558   1.903   3.710   2.575 -0.3586 -0.4358  0.4668
 9460WAT      O38559   6.110   4.938   0.822  0.3033  0.3053  0.8496
 9460WAT     H138560   6.056   5.006   0.815  0.7039  0.6589  1.1409
 9460WAT     H238561   6.057   4.869   0.821  0.0157  0.4461 -1.8529
 9460WAT    EPW38562   6.095   4.938   0.821  0.3200  0.3783  0.4934
 9461WAT      O38563   2.649   5.485   3.563  0.2619 -0.0091 -0.0447
 9461WAT     H138564   2.563   5.473   3.557 -0.0119  0.7837  1.6852
 9461WAT     H238565   2.673   5.429   3.625  0.9414 -0.0022 -0.2960
 9461WAT    EPW38566   2.640   5.475   3.572  0.3218  0.1090  0.1738
 9462WAT      O38567   1.222   0.906   4.561  0.3151  0.5944 -0.4792
 9462WAT     H138568   1.243   0.981   4.521 -0.2806  0.3163 -1.3397
 9462WAT     H238569   1.160   0.930   4.617  0.2966  0.7883 -0.5798
 9462WAT    EPW38570   1.216   0.921   4.563  0.2244  0.5820 -0.6212
 9463WAT      O38571   7.181   5.445   3.648 -0.2356 -0.2444 -0.2028
 9463WAT     H138572   7.262   5.416   3.630 -0.4209 -0.1069 -1.3495
 9463WAT     H238573   7.150   5.469   3.570 -1.1989  0.2022  0.2967
 9463WAT    EPW38574   7.188   5.444   3.634 -0.4053 -0.1581 -0.2984
 9464WAT      O38575   0.713   3.441   5.943 -0.5017  0.4396 -0.3224
 9464WAT     H138576   0.629   3.466   5.946 -0.0969  1.8819 -0.0646
 9464WAT     H238577   0.748   3.477   6.014  0.6649  1.2196 -1.2414
 9464WAT    EPW38578   0.706   3.450   5.954 -0.2696  0.7679 -0.4201
 9465WAT      O38579   3.959   0.680   6.841  0.4429  0.4473 -0.0637
 9465WAT     H138580   3.981   0.634   6.770  0.1513 -0.2065  0.2657
 9465WAT     H238581   3.878   0.653   6.859 -0.8047  2.9755 -1.3895
 9465WAT    EPW38582   3.950   0.669   6.833  0.2155  0.7242 -0.2109
 9466WAT      O38583   1.251   5.917   7.103 -0.1888  0.3432 -0.3001
 9466WAT     H138584   1.330   5.881   7.109  0.0239  0.6861 -0.9452
 9466WAT     H238585   1.227   5.901   7.020 -1.2634 -0.6928  0.1813
 9466WAT    EPW38586   1.259   5.909   7.091 -0.3161  0.2408 -0.3243
 9467WAT      O38587   0.691   4.046   5.377  0.7767  0.1680 -0.4302
 9467WAT     H138588   0.707   4.123   5.340  1.0414  0.0259 -0.6085
 9467WAT     H238589   0.770   4.018   5.402  0.7427 -0.2595 -0.7898
 9467WAT    EPW38590   0.705   4.053   5.375  0.8108  0.0839 -0.5097
 9468WAT      O38591   7.300   4.633   1.597 -0.0797 -0.3017 -0.2000
 9468WAT     H138592   7.243   4.568   1.582  0.1629 -0.5568 -0.0300
 9468WAT     H238593   7.373   4.605   1.556  0.4307 -0.7541  0.9841
 9468WAT    EPW38594   7.302   4.619   1.589  0.0315 -0.4062  0.0000
 9469WAT      O38595   5.256   6.398   6.532  0.3743  0.3264  0.3325
 9469WAT     H138596   5.290   6.328   6.571 -1.2572 -0.9871 -0.4771
 9469WAT     H238597   5.230   6.368   6.455 -2.0239  1.3415  0.6483
 9469WAT    EPW38598   5.258   6.383   6.527 -0.2209  0.2823  0.2595
 9470WAT      O38599   7.155   7.204   4.535 -0.2309 -0.0401  0.1843
 9470WAT     H138600   7.080   7.219   4.492 -0.9722 -1.2247  0.9985
 9470WAT     H238601   7.176   7.123   4.512  0.8104  0.2846 -0.0287
 9470WAT    EPW38602   7.147   7.194   4.525 -0.1866 -0.1672  0.2731
 9471WAT      O38603   0.223   4.298   7.195 -0.3522  0.3978 -0.5128
 9471WAT     H138604   0.178   4.366   7.164 -1.1474  1.6423  2.9146
 9471WAT     H238605   0.171   4.230   7.180 -1.7290  1.2832  0.0213
 9471WAT    EPW38606   0.208   4.298   7.189 -0.6731  0.7125  0.0724
 9472WAT      O38607   5.208   0.241   6.524 -0.1664  0.0795  0.0239
 9472WAT     H138608   5.252   0.247   6.599  0.4643 -1.0592 -0.2202
 9472WAT     H238609   5.135   0.199   6.545 -0.0250 -0.1703  0.0207
 9472WAT    EPW38610   5.204   0.236   6.538 -0.0523 -0.1256 -0.0126
 9473WAT      O38611   4.970   3.243   1.366  0.1429 -0.3962  0.5957
 9473WAT     H138612   4.983   3.191   1.435  0.0057 -1.5047 -0.1794
 9473WAT     H238613   5.032   3.218   1.310  0.2473  0.4771  0.3121
 9473WAT    EPW38614   4.981   3.231   1.368  0.1380 -0.4310  0.4393
 9474WAT      O38615   1.480   2.167   7.412  0.7439 -0.2264  0.1159
 9474WAT     H138616   1.431   2.208   7.352 -1.3270  0.6603  2.2395
 9474WAT     H238617   1.552   2.216   7.417  0.3778  0.4153 -0.7594
 9474WAT    EPW38618   1.484   2.180   7.404  0.3839 -0.0006  0.3003
 9475WAT      O38619   1.878   1.708   1.065 -0.4876  0.1853  0.0630
 9475WAT     H138620   1.882   1.711   1.152  0.3763  2.4995  0.0129
 9475WAT     H238621   1.937   1.767   1.039 -1.0951 -0.0437 -2.1004
 9475WAT    EPW38622   1.887   1.717   1.074 -0.4497  0.4933 -0.2640
 9476WAT      O38623   3.842   0.894   1.941 -0.3869 -0.4521 -0.3654
 9476WAT     H138624   3.852   0.831   2.001 -0.3609 -0.1528 -0.0522
 9476WAT     H238625   3.843   0.850   1.866  1.6541 -0.6550 -0.2908
 9476WAT    EPW38626   3.844   0.878   1.939 -0.0816 -0.4378 -0.3081
 9477WAT      O38627   6.516   5.116   2.340 -0.4184  0.0393 -0.1724
 9477WAT     H138628   6.528   5.197   2.311 -0.4947  0.3885  0.7406
 9477WAT     H238629   6.596   5.087   2.356 -0.4232  0.1182 -0.0081
 9477WAT    EPW38630   6.530   5.124   2.338 -0.4303  0.1025 -0.0133
 9478WAT      O38631   5.339   4.488   0.249  0.2359  0.1415  0.2679
 9478WAT     H138632   5.293   4.562   0.243 -0.4203 -0.3057 -0.2751
 9478WAT     H238633   5.412   4.506   0.205  0.0552  0.4436  0.0855
 9478WAT    EPW38634   5.343   4.502   0.242  0.1122  0.1200  0.1607
 9479WAT      O38635   4.088   1.746   3.135  0.0411 -0.0181 -1.0122
 9479WAT     H138636   4.045   1.805   3.087  0.9570  1.1935 -0.3924
 9479WAT     H238637   4.024   1.705   3.179 -0.5643  1.2815 -0.6165
 9479WAT    EPW38638   4.072   1.749   3.135  0.0870  0.3528 -0.8622
 9480WAT      O38639   4.684   4.042   4.532  0.2849  0.1264  0.2417
 9480WAT     H138640   4.668   3.961   4.504  0.5488  0.1841 -0.0781
 9480WAT     H238641   4.717   4.082   4.462  0.5223  0.4003  0.5072
 9480WAT    EPW38642   4.686   4.036   4.518  0.3589  0.1754  0.2337
 9481WAT      O38643   6.518   5.412   3.222 -0.0387 -1.0704 -0.2432
 9481WAT     H138644   6.440   5.379   3.201 -1.3080  1.4674  0.1127
 9481WAT     H238645   6.510   5.431   3.307  0.1591  1.1188 -0.6605
 9481WAT    EPW38646   6.505   5.410   3.231 -0.1970 -0.3721 -0.2523
 9482WAT      O38647   4.618   6.669   2.684 -0.2744 -0.6019  0.8706
 9482WAT     H138648   4.583   6.644   2.760 -1.3654  2.0999  1.3774
 9482WAT     H238649   4.696   6.699   2.706  0.0196 -1.1902  0.6575
 9482WAT    EPW38650   4.624   6.669   2.698 -0.3921 -0.2897  0.9140
 9483WAT      O38651   3.325   5.256   5.585 -0.0415  0.1932  0.5237
 9483WAT     H138652   3.343   5.341   5.584 -0.9165  0.4620 -2.3203
 9483WAT     H238653   3.396   5.221   5.622  1.1809  2.0363  0.0779
 9483WAT    EPW38654   3.338   5.263   5.590  0.0098  0.5051  0.0377
 9484WAT      O38655   6.911   2.381   4.305 -0.0657  0.3172  1.0370
 9484WAT     H138656   6.930   2.303   4.271  0.3694  1.3088 -1.1472
 9484WAT     H238657   6.824   2.379   4.314  0.0056 -0.6498  1.7092
 9484WAT    EPW38658   6.901   2.370   4.301  0.0091  0.3208  0.8136
 9485WAT      O38659   0.568   1.373   0.913 -0.0201 -0.1833  0.5961
 9485WAT     H138660   0.584   1.297   0.873  1.1033  0.0657  0.5380
 9485WAT     H238661   0.506   1.409   0.865  2.0628  0.6313 -1.6656
 9485WAT    EPW38662   0.561   1.367   0.900  0.4536 -0.0261  0.2534
 9486WAT      O38663   5.045   6.607   0.512 -0.1871  0.2592 -0.2424
 9486WAT     H138664   5.004   6.682   0.531 -0.3934 -0.6381  3.5362
 9486WAT     H238665   4.980   6.550   0.504  0.0301 -0.5516  2.7135
 9486WAT    EPW38666   5.029   6.610   0.514 -0.1855  0.0069  0.7524
 9487WAT      O38667   4.053   0.268   0.351  0.3929  0.0137  0.7410
 9487WAT     H138668   4.008   0.303   0.417  3.1844  2.1559  1.7156
 9487WAT     H238669   4.023   0.311   0.281 -2.0475 -1.7419  0.5693
 9487WAT    EPW38670   4.042   0.279   0.351  0.4448  0.0708  0.8596
 9488WAT      O38671   5.167   0.069   2.211  0.1460  0.8466  0.3208
 9488WAT     H138672   5.254   0.072   2.215  0.0934  1.3343  1.5343
 9488WAT     H238673   5.151   0.039   2.131  1.4492 -0.6129  0.5668
 9488WAT    EPW38674   5.177   0.065   2.200  0.3307  0.7030  0.5364
 9489WAT      O38675   1.611   5.674   4.502 -0.0503 -0.0027 -0.0133
 9489WAT     H138676   1.540   5.635   4.471 -0.6112  1.4127 -0.6189
 9489WAT     H238677   1.637   5.622   4.566 -1.6088 -0.5893  0.1845
 9489WAT    EPW38678   1.605   5.661   4.507 -0.3634  0.1197 -0.0736
 9490WAT      O38679   4.194   7.197   1.887 -0.3978 -0.4324  0.3774
 9490WAT     H138680   4.149   7.130   1.854 -1.1498 -0.2673  1.0319
 9490WAT     H238681   4.238   7.162   1.954  2.3666 -1.1202 -1.6129
 9490WAT    EPW38682   4.194   7.182   1.892 -0.1006 -0.5096  0.1801
 9491WAT      O38683   1.980   3.278   2.729 -0.2706 -0.5406  0.0076
 9491WAT     H138684   2.065   3.282   2.708 -0.6389  0.7261 -1.4656
 9491WAT     H238685   1.975   3.211   2.784  1.6739 -0.6983  0.0528
 9491WAT    EPW38686   1.992   3.269   2.734 -0.0378 -0.3768 -0.2034
 9492WAT      O38687   3.722   0.181   4.863  0.0783  0.1897  0.0454
 9492WAT     H138688   3.789   0.136   4.897  0.4475  0.4347 -0.3455
 9492WAT     H238689   3.657   0.167   4.920  0.9173  1.3220  1.3285
 9492WAT    EPW38690   3.722   0.172   4.877  0.2568  0.3932  0.1772
 9493WAT      O38691   1.824   0.414   6.587  0.4452 -0.3570 -0.2447
 9493WAT     H138692   1.832   0.476   6.526  0.1216 -0.0090  0.0586
 9493WAT     H238693   1.755   0.440   6.633  1.1712 -0.1733  0.7712
 9493WAT    EPW38694   1.815   0.427   6.585  0.5046 -0.2785 -0.0498
 9494WAT      O38695   5.795   4.959   7.086  0.3434  0.2525  0.2768
 9494WAT     H138696   5.714   4.981   7.064  0.4354 -0.3548 -0.7536
 9494WAT     H238697   5.832   4.937   7.009  1.0265 -0.9107  0.9091
 9494WAT    EPW38698   5.789   4.959   7.071  0.4579 -0.0091  0.2180
 9495WAT      O38699   0.884   4.150   3.593  0.4398  0.6899  0.3260
 9495WAT     H138700   0.965   4.155   3.625  0.8927  1.5176 -0.8652
 9495WAT     H238701   0.892   4.184   3.513 -0.9517  0.1486 -0.0701
 9495WAT    EPW38702   0.897   4.156   3.586  0.3012  0.7322  0.0915
 9496WAT      O38703   2.977   7.090   6.817  0.3314 -0.2784 -0.0349
 9496WAT     H138704   2.975   7.012   6.856 -1.1356 -0.4400 -0.3829
 9496WAT     H238705   3.057   7.121   6.836 -0.2537 -0.3646  3.0523
 9496WAT    EPW38706   2.989   7.083   6.826  0.0283 -0.3150  0.3697
 9497WAT      O38707   2.256   2.666   1.279  0.1382  0.0267  0.3703
 9497WAT     H138708   2.244   2.589   1.240  2.6423 -0.1496 -0.2724
 9497WAT     H238709   2.234   2.652   1.362  1.0874 -1.5774  0.3857
 9497WAT    EPW38710   2.251   2.653   1.285  0.6483 -0.2363  0.2776
 9498WAT      O38711   3.072   1.962   6.475 -0.0296  0.0310 -0.2305
 9498WAT     H138712   3.098   1.908   6.538  1.8029  1.0348 -0.0428
 9498WAT     H238713   3.076   2.041   6.512  2.4119  0.8096 -1.8389
 9498WAT    EPW38714   3.077   1.966   6.490  0.6017  0.2943 -0.4404
 9499WAT      O38715   0.635   2.126   3.251 -0.0681  0.4512  0.2806
 9499WAT     H138716   0.591   2.202   3.254  0.6927  0.9019  0.1561
 9499WAT     H238717   0.689   2.132   3.319 -1.1250 -0.6961  1.2716
 9499WAT    EPW38718   0.636   2.138   3.262 -0.1118  0.3483  0.4086
 9500WAT      O38719   5.298   4.978   0.407  0.0003 -0.1148  0.2968
 9500WAT     H138720   5.363   5.009   0.358  0.0602 -1.4477 -0.5187
 9500WAT     H238721   5.234   5.036   0.393 -0.4545 -1.1059 -2.5514
 9500WAT    EPW38722   5.298   4.991   0.397 -0.0580 -0.4581 -0.2444
 9501WAT      O38723   5.706   0.490   1.093  0.1442 -0.2977  0.2217
 9501WAT     H138724   5.741   0.514   1.017 -2.1285  2.7539 -0.0693
 9501WAT     H238725   5.627   0.526   1.091 -1.5642 -3.4562  2.4459
 9501WAT    EPW38726   5.699   0.499   1.082 -0.4439 -0.3135  0.5073
 9502WAT      O38727   2.105   5.180   6.551  0.6604  0.3769 -0.0572
 9502WAT     H138728   2.117   5.186   6.637  2.2992 -0.8292 -0.1561
 9502WAT     H238729   2.141   5.104   6.530 -0.9695 -0.0425 -1.6352
 9502WAT    EPW38730   2.112   5.170   6.560  0.6617  0.1367 -0.3049
 9503WAT      O38731   3.835   6.900   6.105 -0.2972  0.2765  0.2109
 9503WAT     H138732   3.776   6.922   6.166 -0.3319 -0.7034  0.5509
 9503WAT     H238733   3.911   6.907   6.147 -0.0508  2.5338 -0.5181
 9503WAT    EPW38734   3.837   6.904   6.120 -0.2659  0.4652  0.1534
 9504WAT      O38735   1.674   2.348   0.083 -0.2743  0.3214  0.0102
 9504WAT     H138736   1.646   2.406   0.143  0.1739 -0.2450  0.7921
 9504WAT     H238737   1.759   2.339   0.103 -0.6732 -1.8291  0.9628
 9504WAT    EPW38738   1.682   2.356   0.095 -0.2670 -0.0799  0.2664
 9505WAT      O38739   4.498   3.710   5.335  0.3613  0.0179 -0.1878
 9505WAT     H138740   4.506   3.761   5.265  0.3099 -0.3133 -0.4395
 9505WAT     H238741   4.534   3.756   5.399  0.4919  0.2855 -0.4529
 9505WAT    EPW38742   4.504   3.724   5.334  0.3730  0.0085 -0.2641
 9506WAT      O38743   1.626   4.771   2.575 -0.3746 -0.2164  0.3281
 9506WAT     H138744   1.623   4.855   2.599  1.6773 -0.2156  0.8263
 9506WAT     H238745   1.548   4.757   2.539 -0.5545  2.0919 -0.3881
 9506WAT    EPW38746   1.614   4.782   2.573 -0.0981  0.1247  0.2959
 9507WAT      O38747   4.490   5.748   3.802 -0.6430 -0.3166 -0.0017
 9507WAT     H138748   4.564   5.732   3.844  0.1140  0.7189 -0.8854
 9507WAT     H238749   4.465   5.826   3.833 -0.8158 -0.1900 -0.4538
 9507WAT    EPW38750   4.497   5.758   3.813 -0.5567 -0.1449 -0.1990
 9508WAT      O38751   1.626   5.174   3.233  0.4776 -0.5548  0.1654
 9508WAT     H138752   1.542   5.166   3.211  0.4672 -0.2570  0.1012
 9508WAT     H238753   1.634   5.121   3.302  0.5930 -1.7727 -0.7496
 9508WAT    EPW38754   1.615   5.165   3.240  0.4931 -0.6907  0.0208
 9509WAT      O38755   1.521   2.394   5.112 -0.8381 -0.8605  0.0670
 9509WAT     H138756   1.605   2.370   5.111 -0.0147  1.1685 -3.8745
 9509WAT     H238757   1.520   2.464   5.163  0.2824 -0.1049 -0.8824
 9509WAT    EPW38758   1.533   2.401   5.119 -0.5509 -0.4492 -0.6555
 9510WAT      O38759   3.719   0.705   7.081 -0.1984  0.5095  0.5311
 9510WAT     H138760   3.640   0.715   7.116 -0.2997  1.6485  0.0199
 9510WAT     H238761   3.763   0.775   7.111 -0.4546  1.8523 -2.0090
 9510WAT    EPW38762   3.714   0.717   7.091 -0.2512  0.8761  0.0804
 9511WAT      O38763   5.161   5.520   4.028 -0.3648 -0.0310 -0.3477
 9511WAT     H138764   5.122   5.520   4.107  1.5251 -0.6226  0.6375
 9511WAT     H238765   5.117   5.582   3.984 -0.6384  1.2474  1.6006
 9511WAT    EPW38766   5.149   5.529   4.033 -0.1260  0.0705  0.0856
 9512WAT      O38767   2.441   0.353   5.987  0.0951  0.0589 -0.1236
 9512WAT     H138768   2.504   0.307   5.948 -0.4454  0.8288 -2.0431
 9512WAT     H238769   2.460   0.435   5.967 -1.9025  0.2639 -1.5098
 9512WAT    EPW38770   2.453   0.358   5.978 -0.2798  0.2029 -0.6119
 9513WAT      O38771   5.783   1.487   5.491  0.5897  0.1199 -0.6113
 9513WAT     H138772   5.712   1.534   5.469  0.9358  0.0619 -1.9385
 9513WAT     H238773   5.765   1.408   5.459  0.4123 -0.4373  0.8062
 9513WAT    EPW38774   5.770   1.482   5.483  0.6146  0.0290 -0.5980
 9514WAT      O38775   3.219   7.192   5.975 -0.4886  0.0504 -0.3005
 9514WAT     H138776   3.254   7.271   5.962 -1.1493  0.6875  1.4232
 9514WAT     H238777   3.285   7.137   5.959  0.6938  1.0991  0.7074
 9514WAT    EPW38778   3.234   7.195   5.971 -0.4115  0.2994  0.1031
 9515WAT      O38779   2.700   3.857   0.509  0.0708 -0.7240  0.0099
 9515WAT     H138780   2.763   3.797   0.517  1.5653  0.9115  1.2813
 9515WAT     H238781   2.743   3.933   0.504 -1.7701  0.3850 -0.1980
 9515WAT    EPW38782   2.716   3.859   0.509  0.0196 -0.3186  0.1670
 9516WAT      O38783   0.028   3.351   3.913  0.5424  0.2871  0.0840
 9516WAT     H138784   0.115   3.359   3.906  0.5515  1.7596  1.4883
 9516WAT     H238785   0.019   3.276   3.957  1.0642 -0.0308 -0.3217
 9516WAT    EPW38786   0.040   3.341   3.918  0.6208  0.4576  0.2315
 9517WAT      O38787   6.402   4.794   0.179  0.0123  0.0043  0.0121
 9517WAT     H138788   6.431   4.749   0.110  0.5647 -1.2141  0.9984
 9517WAT     H238789   6.475   4.829   0.212 -0.1190 -0.1660  0.4911
 9517WAT    EPW38790   6.417   4.793   0.173  0.0745 -0.2009  0.2286
 9518WAT      O38791   0.442   1.591   2.700  0.1905  0.1987  0.0848
 9518WAT     H138792   0.497   1.573   2.636  0.3137  0.2291  0.1823
 9518WAT     H238793   0.428   1.513   2.738  0.5886  0.2755  0.3985
 9518WAT    EPW38794   0.448   1.577   2.696  0.2675  0.2145  0.1455
 9519WAT      O38795   0.823   6.327   1.243 -0.4752 -0.2057 -0.5243
 9519WAT     H138796   0.746   6.310   1.281 -1.5271  1.0368 -2.0061
 9519WAT     H238797   0.803   6.385   1.181  1.6950  0.2691 -0.8452
 9519WAT    EPW38798   0.808   6.333   1.240 -0.3100  0.0480 -0.7906
 9520WAT      O38799   4.536   2.869   5.130  0.0971 -0.5589  0.4858
 9520WAT     H138800   4.555   2.900   5.209 -0.8967 -0.2632  0.6185
 9520WAT     H238801   4.493   2.795   5.146 -0.9166 -0.0364  0.2594
 9520WAT    EPW38802   4.532   2.863   5.144 -0.1994 -0.4381  0.4719
 9521WAT      O38803   3.217   4.800   1.381 -0.0764  0.3742  0.1151
 9521WAT     H138804   3.140   4.820   1.416 -0.4146 -0.3555 -0.1874
 9521WAT     H238805   3.200   4.797   1.295  0.7109  2.0333 -0.1321
 9521WAT    EPW38806   3.203   4.803   1.374 -0.0100  0.5115  0.0339
 9522WAT      O38807   2.614   5.047   0.821  0.0172  0.5281 -0.2603
 9522WAT     H138808   2.670   5.074   0.882  0.1460 -0.6664  0.1937
 9522WAT     H238809   2.574   4.979   0.859 -0.8810  0.6218 -1.0150
 9522WAT    EPW38810   2.617   5.041   0.835 -0.0964  0.3655 -0.3048
 9523WAT      O38811   3.950   6.132   0.042  0.3865  0.3944  0.3927
 9523WAT     H138812   3.934   6.164  -0.038 -2.1663  0.3972  0.8225
 9523WAT     H238813   3.984   6.201   0.084 -1.1554  1.3812  0.1278
 9523WAT    EPW38814   3.953   6.147   0.037 -0.2184  0.5406  0.4171
 9524WAT      O38815   2.313   6.752   1.223  0.3965  0.0499  0.3353
 9524WAT     H138816   2.226   6.757   1.223  0.4616  1.7264 -0.4623
 9524WAT     H238817   2.330   6.696   1.287 -1.3513 -2.3247 -1.1055
 9524WAT    EPW38818   2.303   6.744   1.233  0.1480 -0.0533  0.0047
 9525WAT      O38819   1.026   7.146   5.486 -0.0973  0.4131 -0.1467
 9525WAT     H138820   1.082   7.082   5.465 -0.2319  0.6321 -1.2097
 9525WAT     H238821   1.035   7.153   5.573  2.2552  1.0909 -0.3607
 9525WAT    EPW38822   1.036   7.138   5.496  0.2303  0.5456 -0.3354
 9526WAT      O38823   3.871   5.710   1.357 -0.3690  0.3522 -0.4713
 9526WAT     H138824   3.930   5.725   1.419  1.2957  0.1366 -1.9293
 9526WAT     H238825   3.914   5.662   1.299 -1.7822  0.7471 -1.9126
 9526WAT    EPW38826   3.886   5.705   1.358 -0.3319  0.3787 -0.8996
 9527WAT      O38827   4.605   1.572   1.696 -0.3116  0.1848 -0.1794
 9527WAT     H138828   4.687   1.600   1.686 -0.2924 -0.3637 -1.9033
 9527WAT     H238829   4.614   1.487   1.715 -0.4584  0.1260 -0.3587
 9527WAT    EPW38830   4.618   1.563   1.697 -0.3304  0.0951 -0.4605
 9528WAT      O38831   0.715   6.089   0.146  0.2952  0.8087  0.0903
 9528WAT     H138832   0.697   6.008   0.119  1.7401 -0.0085  1.4055
 9528WAT     H238833   0.759   6.124   0.079 -1.0836  0.8353 -0.8283
 9528WAT    EPW38834   0.719   6.082   0.133  0.3050  0.6919  0.1489
 9529WAT      O38835   3.423   4.374   0.680 -0.3138 -0.0898  0.0830
 9529WAT     H138836   3.478   4.437   0.702  0.5350 -0.7609 -0.0606
 9529WAT     H238837   3.459   4.339   0.608  0.4779 -2.2005  1.4139
 9529WAT    EPW38838   3.437   4.378   0.672 -0.0714 -0.5007  0.2584
 9530WAT      O38839   0.879   4.765   1.325  0.2521  0.4275 -0.0287
 9530WAT     H138840   0.935   4.826   1.297  0.2462  0.1368 -0.6909
 9530WAT     H238841   0.801   4.799   1.307  0.1973  0.8578  0.9481
 9530WAT    EPW38842   0.876   4.779   1.318  0.2431  0.4481  0.0178
 9531WAT      O38843   2.430   0.647   0.556  0.3690 -0.4468 -0.5927
 9531WAT     H138844   2.497   0.632   0.611 -0.6968  2.8519  1.9690
 9531WAT     H238845   2.447   0.727   0.526 -1.7476 -0.0500 -0.8498
 9531WAT    EPW38846   2.442   0.657   0.560 -0.1011  0.0991 -0.2523
 9532WAT      O38847   0.411   6.168   1.165  0.2776 -0.2152  0.2492
 9532WAT     H138848   0.484   6.140   1.128  0.5722  1.4910 -0.5505
 9532WAT     H238849   0.426   6.160   1.251  0.3595 -2.3094  0.0917
 9532WAT    EPW38850   0.424   6.163   1.172  0.3332 -0.2725  0.1078
 9533WAT      O38851   1.127   0.603   2.607 -0.1574 -0.0785 -0.1794
 9533WAT     H138852   1.102   0.574   2.529  0.3325 -2.2283  0.3995
 9533WAT     H238853   1.090   0.682   2.613 -3.5119 -1.4382 -0.9554
 9533WAT    EPW38854   1.118   0.611   2.597 -0.5806 -0.5969 -0.2085
 9534WAT      O38855   6.939   6.733   0.625 -0.3986  0.1716  0.1679
 9534WAT     H138856   7.002   6.742   0.684  0.2298  0.1248 -0.4748
 9534WAT     H238857   6.866   6.750   0.669  0.1117  0.7796  0.7923
 9534WAT    EPW38858   6.937   6.737   0.640 -0.2304  0.2545  0.1652
 9535WAT      O38859   1.633   3.969   6.599 -0.1297 -0.2563  0.0412
 9535WAT     H138860   1.641   4.041   6.647 -1.4234 -1.0492  1.5388
 9535WAT     H238861   1.693   3.915   6.634 -0.1102 -0.3727 -0.1679
 9535WAT    EPW38862   1.643   3.971   6.611 -0.3179 -0.3906  0.2316
 9536WAT      O38863   4.101   0.958   2.639  0.0293 -0.0988  0.1267
 9536WAT     H138864   4.122   0.879   2.610  1.0412 -0.6373  2.1036
 9536WAT     H238865   4.065   0.997   2.570 -0.9709 -2.4366 -0.7690
 9536WAT    EPW38866   4.099   0.952   2.625  0.0310 -0.5237  0.2864
 9537WAT      O38867   4.999   6.278   0.878 -0.1345  0.6808 -0.2596
 9537WAT     H138868   4.966   6.272   0.797 -0.6614  0.4220 -0.0338
 9537WAT     H238869   5.013   6.364   0.888 -6.0992  1.9648  1.6071
 9537WAT    EPW38870   4.996   6.290   0.868 -1.0934  0.8323  0.0495
 9538WAT      O38871   3.268   3.457   0.259  0.2399 -0.5333  0.0817
 9538WAT     H138872   3.191   3.429   0.231 -0.0661 -1.2516  1.5487
 9538WAT     H238873   3.278   3.534   0.218 -1.2186 -0.4568 -0.1766
 9538WAT    EPW38874   3.258   3.464   0.249 -0.0208 -0.6281  0.2602
 9539WAT      O38875   4.475   0.075   4.057  0.6394  0.1144  0.1414
 9539WAT     H138876   4.407   0.042   4.012  0.6768 -0.6222  0.6098
 9539WAT     H238877   4.544   0.050   4.009  0.5577  2.2980 -1.2694
 9539WAT    EPW38878   4.475   0.066   4.043  0.6329  0.3281  0.0022
 9540WAT      O38879   6.425   4.012   2.284  0.0323  0.4344  0.0147
 9540WAT     H138880   6.411   4.096   2.303 -0.4060  0.6893 -1.2944
 9540WAT     H238881   6.367   3.995   2.221  2.3369  0.1382 -2.2018
 9540WAT    EPW38882   6.414   4.022   2.277  0.3080  0.4283 -0.5061
 9541WAT      O38883   1.352   5.736   5.502  0.3126  0.0175 -0.1933
 9541WAT     H138884   1.290   5.719   5.443 -0.4152 -0.5216  0.6948
 9541WAT     H238885   1.349   5.823   5.511 -0.5365 -0.0253  0.0500
 9541WAT    EPW38886   1.342   5.747   5.495  0.0797 -0.0685 -0.0261
 9542WAT      O38887   2.920   0.002   3.658  0.1816 -0.2988 -0.2859
 9542WAT     H138888   2.984   0.058   3.638 -0.0564 -0.1292 -0.5828
 9542WAT     H238889   2.961  -0.075   3.667  0.3876 -0.2397 -0.7309
 9542WAT    EPW38890   2.935  -0.001   3.657  0.1769 -0.2650 -0.3955
 9543WAT      O38891   5.633   6.781   4.084 -0.1664 -0.2859 -0.1986
 9543WAT     H138892   5.689   6.824   4.135  0.9606 -1.1385 -0.6692
 9543WAT     H238893   5.611   6.712   4.131 -0.4665 -0.1897 -0.1973
 9543WAT    EPW38894   5.638   6.777   4.098 -0.0443 -0.3977 -0.2679
 9544WAT      O38895   5.927   4.166   4.053 -0.0033  0.4559  0.6691
 9544WAT     H138896   5.900   4.087   4.078 -1.5589  1.0522  0.9701
 9544WAT     H238897   5.973   4.150   3.980  0.0275 -0.7567  0.9430
 9544WAT    EPW38898   5.930   4.152   4.046 -0.2285  0.3649  0.7540
 9545WAT      O38899   0.825   7.052   5.942 -0.2133 -0.2220  0.1097
 9545WAT     H138900   0.814   7.058   6.028 -2.1181  1.9037 -0.1753
 9545WAT     H238901   0.782   7.122   5.911  4.1258  1.7936 -2.3160
 9545WAT    EPW38902   0.817   7.063   5.950  0.1463  0.3898 -0.2907
 9546WAT      O38903   1.700   2.290   4.278 -0.0789  0.3417 -0.2290
 9546WAT     H138904   1.650   2.219   4.269  0.8189 -0.1466 -1.6435
 9546WAT     H238905   1.752   2.288   4.208  2.1501  0.6538  1.3149
 9546WAT    EPW38906   1.700   2.279   4.266  0.3830  0.3157 -0.2099
 9547WAT      O38907   4.465   1.887   0.638 -0.1929 -0.5939 -0.2624
 9547WAT     H138908   4.459   1.974   0.636  0.3568 -0.5220  0.6378
 9547WAT     H238909   4.482   1.866   0.555 -1.0070  0.0941 -0.6152
 9547WAT    EPW38910   4.467   1.897   0.626 -0.2320 -0.4817 -0.1815
 9548WAT      O38911   4.021   7.133   3.103  0.2493 -0.1893  0.0930
 9548WAT     H138912   4.026   7.184   3.174  2.6687 -1.7846  1.1817
 9548WAT     H238913   4.043   7.187   3.038 -2.6627  1.4854  0.3022
 9548WAT    EPW38914   4.025   7.148   3.104  0.1765 -0.1776  0.2847
 9549WAT      O38915   7.296   2.542   3.759  0.1141  0.3975  0.2671
 9549WAT     H138916   7.352   2.485   3.724  0.2344  0.4573  0.3591
 9549WAT     H238917   7.295   2.608   3.702  0.4563  0.5794  0.4685
 9549WAT    EPW38918   7.304   2.544   3.746  0.1824  0.4332  0.3104
 9550WAT      O38919   6.992   4.578   6.777 -0.0670  0.3899  0.3303
 9550WAT     H138920   6.946   4.531   6.720  0.6529  1.4908 -1.2400
 9550WAT     H238921   7.073   4.574   6.745  0.0450  2.4964  0.2400
 9550WAT    EPW38922   6.997   4.570   6.764  0.0559  0.8637  0.0850
 9551WAT      O38923   2.454   3.412   6.213  0.0810  0.3161  0.1507
 9551WAT     H138924   2.446   3.328   6.236 -0.5757  0.3252 -0.0237
 9551WAT     H238925   2.413   3.455   6.276  2.4115  0.7064  1.5114
 9551WAT    EPW38926   2.447   3.406   6.225  0.3282  0.3751  0.3259
 9552WAT      O38927   3.719   1.577   1.902  0.7538  0.0419  0.2398
 9552WAT     H138928   3.784   1.538   1.947  0.5186 -0.1142  0.4444
 9552WAT     H238929   3.711   1.654   1.941  1.2525  0.3241 -0.1955
 9552WAT    EPW38930   3.728   1.583   1.914  0.7927  0.0605  0.2058
 9553WAT      O38931   7.300   3.885   4.975  0.1043  0.3368 -0.0929
 9553WAT     H138932   7.241   3.943   5.000  0.2963  0.4066  0.2023
 9553WAT     H238933   7.261   3.808   4.989  0.6094  0.3283  1.5051
 9553WAT    EPW38934   7.286   3.882   4.981  0.2073  0.3459  0.1867
 9554WAT      O38935   6.760   0.331   3.192 -0.3175  0.2034 -0.3014
 9554WAT     H138936   6.766   0.256   3.147 -1.0838 -0.2070  0.2609
 9554WAT     H238937   6.837   0.337   3.233 -1.0105 -1.4124  1.3622
 9554WAT    EPW38938   6.772   0.321   3.191 -0.5331 -0.0959  0.0274
 9555WAT      O38939   0.693   5.356   5.849 -0.4162  0.0303 -0.4946
 9555WAT     H138940   0.742   5.338   5.780 -0.4701 -1.8114 -0.0983
 9555WAT     H238941   0.635   5.413   5.819  0.4697  0.3958 -1.5687
 9555WAT    EPW38942   0.692   5.362   5.834 -0.2933 -0.1878 -0.5947
 9556WAT      O38943   1.847   3.382   2.107  0.2281  0.0921  0.0929
 9556WAT     H138944   1.926   3.365   2.074 -0.5395 -0.0866 -1.8107
 9556WAT     H238945   1.834   3.466   2.089  0.2465  0.2994  1.0133
 9556WAT    EPW38946   1.857   3.392   2.100  0.1174  0.0963 -0.0523
 9557WAT      O38947   1.513   6.949   6.205 -0.2530  0.4105  0.4177
 9557WAT     H138948   1.581   6.899   6.182  1.7197  1.9894  2.3966
 9557WAT     H238949   1.514   7.013   6.146 -1.8975 -0.9789 -1.2541
 9557WAT    EPW38950   1.524   6.951   6.193 -0.2046  0.4385  0.4631
 9558WAT      O38951   3.843   1.770   0.100  0.2382  0.0288 -0.0795
 9558WAT     H138952   3.927   1.786   0.118 -0.5227  0.9617  3.2233
 9558WAT     H238953   3.833   1.800   0.019  2.7011  1.3834  0.0353
 9558WAT    EPW38954   3.854   1.777   0.091  0.4896  0.3667  0.4254
 9559WAT      O38955   0.263   5.728   1.398  0.3862  0.3437  0.4684
 9559WAT     H138956   0.340   5.763   1.377  0.2030 -0.2809 -1.4128
 9559WAT     H238957   0.262   5.652   1.354 -2.1112  1.2442 -1.2280
 9559WAT    EPW38958   0.274   5.722   1.388 -0.0098  0.3844 -0.0601
 9560WAT      O38959   6.889   5.174   4.878  0.1703 -0.0984 -0.0842
 9560WAT     H138960   6.856   5.160   4.958  0.3603  1.4036  0.2789
 9560WAT     H238961   6.818   5.183   4.828  0.0231 -2.3185 -0.3848
 9560WAT    EPW38962   6.873   5.173   4.882  0.1766 -0.2044 -0.0749
 9561WAT      O38963   4.284   0.874   3.259 -0.4913 -0.1421  0.3968
 9561WAT     H138964   4.198   0.872   3.249 -0.5296 -0.2026  0.7502
 9561WAT     H238965   4.307   0.949   3.220 -0.5381 -0.7957 -0.9341
 9561WAT    EPW38966   4.275   0.885   3.252 -0.5039 -0.2476  0.2524
 9562WAT      O38967   2.593   5.584   5.523  0.0291  0.0848 -0.7100
 9562WAT     H138968   2.562   5.590   5.605  1.1137 -1.9996 -0.0715
 9562WAT     H238969   2.655   5.646   5.520  1.0356 -0.7990  0.6112
 9562WAT    EPW38970   2.597   5.594   5.535  0.3380 -0.3537 -0.4205
 9563WAT      O38971   6.353   1.198   1.433  0.0577 -0.6603  1.0045
 9563WAT     H138972   6.366   1.282   1.451  0.3758 -0.7094  1.0208
 9563WAT     H238973   6.273   1.182   1.463 -0.4699 -0.0785 -0.0481
 9563WAT    EPW38974   6.343   1.208   1.440  0.0267 -0.5816  0.8514
 9564WAT      O38975   1.048   4.620   4.516  0.0843 -0.6122  0.0540
 9564WAT     H138976   1.119   4.638   4.467 -0.5990 -0.6405 -0.9872
 9564WAT     H238977   1.051   4.680   4.579  1.5425 -1.1990  0.5762
 9564WAT    EPW38978   1.059   4.632   4.518  0.1988 -0.7030 -0.0227
 9565WAT      O38979   6.726   6.839   2.744 -0.3321 -0.0830  0.1455
 9565WAT     H138980   6.703   6.923   2.737 -1.6251  0.1674  4.4395
 9565WAT     H238981   6.662   6.796   2.703 -0.5884  0.9697 -0.5801
 9565WAT    EPW38982   6.713   6.845   2.737 -0.5610  0.1095  0.6726
 9566WAT      O38983   5.340   1.817   0.900  0.1085 -0.6355 -0.6175
 9566WAT     H138984   5.315   1.737   0.923 -1.9622  0.2728  0.5839
 9566WAT     H238985   5.404   1.836   0.955  0.6983 -1.4825 -0.9967
 9566WAT    EPW38986   5.346   1.808   0.911 -0.1102 -0.6265 -0.4961
 9567WAT      O38987   3.474   1.185   2.718 -0.8686  0.3079  0.2874
 9567WAT     H138988   3.553   1.193   2.683 -0.2315 -1.0283  1.3094
 9567WAT     H238989   3.429   1.252   2.684  0.0611 -0.1319 -1.9650
 9567WAT    EPW38990   3.479   1.196   2.708 -0.6371  0.0456  0.1056
 9568WAT      O38991   3.273   3.714   0.126 -0.5249  0.7350 -0.1944
 9568WAT     H138992   3.269   3.670   0.051 -1.5396  0.1476  0.1740
 9568WAT     H238993   3.193   3.749   0.133 -0.6215  0.3502  0.8469
 9568WAT    EPW38994   3.260   3.713   0.116 -0.6890  0.5914  0.0139
 9569WAT      O38995   3.413   4.175   1.991  0.6856  0.6587 -0.0419
 9569WAT     H138996   3.486   4.223   1.986  1.9995 -1.2073  0.3480
 9569WAT     H238997   3.408   4.137   1.912 -0.0442  0.9498 -0.1525
 9569WAT    EPW38998   3.423   4.177   1.978  0.7719  0.4260 -0.0006
 9570WAT      O38999   4.290   5.256   6.193  0.5926  0.1814  0.6791
 9570WAT     H139000   4.344   5.213   6.247  0.2997  0.2519  1.0299
 9570WAT     H239001   4.344   5.306   6.146  0.8318  0.2652  1.0370
 9570WAT    EPW39002   4.306   5.257   6.194  0.5846  0.2042  0.7838
 9571WAT      O39003   3.330   0.572   6.224 -0.6652  0.4604 -0.2790
 9571WAT     H139004   3.301   0.625   6.161  0.5036  1.5982  0.0895
 9571WAT     H239005   3.408   0.607   6.245  0.2890 -1.5712 -0.2106
 9571WAT    EPW39006   3.337   0.585   6.218 -0.3516  0.3283 -0.2144
 9572WAT      O39007   2.775   2.776   4.414 -0.2886  0.1164  0.2688
 9572WAT     H139008   2.799   2.771   4.330  1.8679 -1.3353  0.8913
 9572WAT     H239009   2.738   2.699   4.429 -0.5222  0.3112  0.7035
 9572WAT    EPW39010   2.773   2.764   4.403 -0.0046 -0.0692  0.4250
 9573WAT      O39011   5.557   0.542   2.640 -0.2139 -0.0613  0.1735
 9573WAT     H139012   5.519   0.463   2.640  0.7285 -0.5384  0.0161
 9573WAT     H239013   5.496   0.595   2.608 -0.8269 -0.7464  0.1858
 9573WAT    EPW39014   5.542   0.538   2.636 -0.1653 -0.2330  0.1521
 9574WAT      O39015   0.596   4.208   4.019 -0.3394 -0.2290 -0.6744
 9574WAT     H139016   0.644   4.219   4.091 -1.0575 -3.2536  0.4228
 9574WAT     H239017   0.643   4.248   3.957  2.2935 -0.7947  0.7961
 9574WAT    EPW39018   0.610   4.216   4.021 -0.0566 -0.7594 -0.2951
 9575WAT      O39019   4.293   1.693   7.389  0.0528  0.0441  0.8350
 9575WAT     H139020   4.306   1.611   7.365  1.0583  0.3804  0.1952
 9575WAT     H239021   4.372   1.720   7.414 -0.6644  0.1338  3.2728
 9575WAT    EPW39022   4.306   1.685   7.389  0.0954  0.1070  1.1006
 9576WAT      O39023   1.285   0.007   7.120  0.3470  0.6103 -0.7160
 9576WAT     H139024   1.207  -0.021   7.146 -0.8289  3.6777 -0.5708
 9576WAT     H239025   1.330   0.015   7.195 -0.3377  1.8925 -0.4195
 9576WAT    EPW39026   1.280   0.004   7.135  0.0722  1.2528 -0.6507
 9577WAT      O39027   1.191   1.272   3.258  0.6362 -0.0255 -0.2273
 9577WAT     H139028   1.194   1.211   3.321 -0.5080 -0.5958 -0.6863
 9577WAT     H239029   1.138   1.236   3.198  0.4580  1.1553 -0.7978
 9577WAT    EPW39030   1.184   1.257   3.259  0.4408  0.0646 -0.3794
 9578WAT      O39031   0.937   2.437   5.593 -0.5396  0.0347 -0.4412
 9578WAT     H139032   0.956   2.468   5.672  0.0619 -0.5602 -0.3456
 9578WAT     H239033   0.964   2.354   5.596  0.8315  0.3874 -1.7360
 9578WAT    EPW39034   0.944   2.429   5.605 -0.2482 -0.0010 -0.6184
 9579WAT      O39035   1.943   5.640   3.822 -0.1757 -0.2115 -0.0396
 9579WAT     H139036   1.956   5.688   3.894 -1.8992  0.9628 -0.4528
 9579WAT     H239037   1.873   5.592   3.842  0.7101 -1.6107 -0.1403
 9579WAT    EPW39038   1.935   5.640   3.836 -0.2995 -0.2447 -0.1155
 9580WAT      O39039   0.016   6.951   1.185 -0.0226 -0.0776 -0.0944
 9580WAT     H139040  -0.024   6.878   1.159  0.5592 -0.5496  0.2935
 9580WAT     H239041   0.030   6.937   1.270 -0.1289  0.5976  0.0414
 9580WAT    EPW39042   0.012   6.938   1.194  0.0476 -0.0476 -0.0171
 9581WAT      O39043   0.523   6.037   6.666  0.2527 -0.2994 -0.8180
 9581WAT     H139044   0.490   5.977   6.720 -0.6025  0.8527 -0.0206
 9581WAT     H239045   0.518   6.111   6.712  3.4507  0.0938 -0.8406
 9581WAT    EPW39046   0.517   6.039   6.681  0.5988 -0.0711 -0.7036
 9582WAT      O39047   2.616   6.035   3.323  0.0565 -0.4052 -0.4778
 9582WAT     H139048   2.662   6.055   3.394 -0.1237 -0.2038 -0.4154
 9582WAT     H239049   2.566   5.968   3.349 -1.1032  0.6206  0.0435
 9582WAT    EPW39050   2.615   6.028   3.337 -0.1414 -0.2239 -0.3916
 9583WAT      O39051   2.923   5.838   5.109 -0.8006  0.6485  0.2219
 9583WAT     H139052   2.859   5.805   5.060 -0.6900  0.3318  0.2899
 9583WAT     H239053   2.925   5.785   5.179  1.0211 -0.7179 -0.7956
 9583WAT    EPW39054   2.914   5.826   5.112 -0.5152  0.3999  0.0817
 9584WAT      O39055   0.369   7.098   2.569 -0.1103 -0.6234 -0.1834
 9584WAT     H139056   0.318   7.160   2.603  0.6494 -0.3865  0.5506
 9584WAT     H239057   0.334   7.024   2.598  0.1345 -0.4476  0.5720
 9584WAT    EPW39058   0.357   7.096   2.578  0.0381 -0.5625  0.0366
 9585WAT      O39059   2.949   0.994   5.069 -0.6868 -0.0699  0.1695
 9585WAT     H139060   3.036   0.999   5.065 -0.4894 -0.5542  2.5623
 9585WAT     H239061   2.924   1.076   5.083 -0.5348 -0.0645  0.4130
 9585WAT    EPW39062   2.958   1.006   5.070 -0.6352 -0.1407  0.5589
 9586WAT      O39063   5.430   3.305   5.433  0.1310  0.4343  0.4264
 9586WAT     H139064   5.473   3.344   5.497  1.1607 -1.5379  1.0202
 9586WAT     H239065   5.355   3.279   5.471 -0.6571  1.9391 -0.0279
 9586WAT    EPW39066   5.425   3.307   5.448  0.1667  0.3653  0.4470
 9587WAT      O39067   6.369   6.345   0.013 -0.1397 -0.4382 -0.5511
 9587WAT     H139068   6.330   6.379  -0.058  2.6826  1.3497 -1.3887
 9587WAT     H239069   6.425   6.287  -0.020  0.8612  0.0538  0.2450
 9587WAT    EPW39070   6.371   6.341  -0.002  0.4251 -0.1014 -0.5573
 9588WAT      O39071   1.338   2.356   3.769  0.3061  0.4275  0.2290
 9588WAT     H139072   1.326   2.423   3.715 -0.4068  0.1233 -0.0032
 9588WAT     H239073   1.312   2.287   3.722  0.6281  0.0432  0.6131
 9588WAT    EPW39074   1.332   2.356   3.754  0.2484  0.3258  0.2515
 9589WAT      O39075   6.022   5.792   0.036  0.0492 -0.5625  0.3195
 9589WAT     H139076   6.075   5.830  -0.021  0.9105 -2.1780  0.0029
 9589WAT     H239077   6.031   5.707   0.020  0.4015 -1.1099  2.9042
 9589WAT    EPW39078   6.031   5.785   0.026  0.2285 -0.8820  0.6546
 9590WAT      O39079   5.015   0.876   2.293 -0.0741 -0.2304 -0.3714
 9590WAT     H139080   5.014   0.912   2.372 -0.7472  1.0000 -0.9154
 9590WAT     H239081   4.969   0.802   2.303  0.6156 -0.5550  0.5705
 9590WAT    EPW39082   5.008   0.870   2.306 -0.0717 -0.0966 -0.3126
 9591WAT      O39083   2.554   1.928   0.300  0.0677 -0.3551 -0.2343
 9591WAT     H139084   2.594   1.958   0.228  2.5484  0.9737  1.5280
 9591WAT     H239085   2.612   1.871   0.333 -0.3543  0.1031  1.3881
 9591WAT    EPW39086   2.569   1.924   0.294  0.3718 -0.0912  0.2657
 9592WAT      O39087   3.475   0.083   5.024  0.5416  0.0537 -0.0208
 9592WAT     H139088   3.474  -0.003   5.011 -0.4477  0.2701 -1.6538
 9592WAT     H239089   3.454   0.116   4.945  0.9697  1.7819  0.5486
 9592WAT    EPW39090   3.472   0.075   5.010  0.4587  0.3410 -0.1779
 9593WAT      O39091   2.927   6.299   7.180 -0.0577 -0.7238  0.2759
 9593WAT     H139092   2.941   6.256   7.105  0.1136 -0.2158  0.0155
 9593WAT     H239093   2.981   6.259   7.237  0.0462 -0.9023  0.0532
 9593WAT    EPW39094   2.937   6.287   7.178 -0.0170 -0.6751  0.2045
 9594WAT      O39095   1.857   5.953   4.765  1.0285 -0.0294 -0.2971
 9594WAT     H139096   1.798   5.906   4.809  1.1917 -0.0275 -0.0751
 9594WAT     H239097   1.917   5.971   4.825  1.7609 -0.8773 -0.7576
 9594WAT    EPW39098   1.857   5.948   4.781  1.1608 -0.1544 -0.3324
 9595WAT      O39099   2.389   6.624   3.385 -0.8130  0.1922  0.0998
 9595WAT     H139100   2.378   6.548   3.426 -2.4341  0.8283  0.9018
 9595WAT     H239101   2.342   6.616   3.312 -0.5341  0.2394 -0.0901
 9595WAT    EPW39102   2.381   6.612   3.380 -1.0113  0.2932  0.1902
 9596WAT      O39103   4.991   1.500   0.384 -0.1500 -0.5759  0.3211
 9596WAT     H139104   5.055   1.448   0.357 -0.5882 -1.2145  0.4824
 9596WAT     H239105   5.031   1.576   0.401  0.5742 -0.9976  0.5257
 9596WAT    EPW39106   5.006   1.504   0.383 -0.1077 -0.7325  0.3751
 9597WAT      O39107   2.615   1.346   4.589  0.4811 -0.6466  0.7620
 9597WAT     H139108   2.629   1.260   4.593 -0.1357 -1.1129 -2.9727
 9597WAT     H239109   2.691   1.379   4.563 -0.0776 -0.5869 -0.9415
 9597WAT    EPW39110   2.628   1.338   4.586  0.3075 -0.7067 -0.0414
 9598WAT      O39111   0.345   5.374   7.178  0.4744  0.2913  0.4664
 9598WAT     H139112   0.335   5.307   7.233  0.3202  0.7579  1.0224
 9598WAT     H239113   0.423   5.361   7.142  0.3827 -0.2585  0.4654
 9598WAT    EPW39114   0.355   5.362   7.181  0.4381  0.2790  0.5484
 9599WAT      O39115   6.323   6.011   4.098 -0.2590 -0.2769  0.3082
 9599WAT     H139116   6.310   6.063   4.168  2.6572  1.2752 -0.1472
 9599WAT     H239117   6.310   6.065   4.031  1.1448 -0.5786 -0.2209
 9599WAT    EPW39118   6.319   6.027   4.099  0.3792 -0.0922  0.1628
 9600WAT      O39119   2.675   3.226   1.999  0.0113 -0.3029  0.5265
 9600WAT     H139120   2.743   3.253   1.953 -0.5878 -0.8955 -0.7442
 9600WAT     H239121   2.702   3.234   2.082  1.0744  0.8631  0.1039
 9600WAT    EPW39122   2.689   3.231   2.005  0.0798 -0.2182  0.2763
 9601WAT      O39123   0.138   6.635   2.240  0.0477 -0.0732 -0.1870
 9601WAT     H139124   0.055   6.658   2.257 -0.0466 -0.7378  0.3058
 9601WAT     H239125   0.170   6.704   2.197 -0.9116 -0.0142 -0.8470
 9601WAT    EPW39126   0.130   6.649   2.236 -0.1080 -0.1627 -0.2117
 9602WAT      O39127   0.098   5.990   2.074 -0.2420 -0.1432  0.0251
 9602WAT     H139128   0.092   5.979   2.160  0.1332 -1.1368 -0.0518
 9602WAT     H239129   0.124   5.911   2.046  0.3141  0.3599 -0.9197
 9602WAT    EPW39130   0.101   5.976   2.083 -0.1045 -0.2157 -0.1258
 9603WAT      O39131   5.628   1.615   4.528 -0.6001  0.1285  0.3800
 9603WAT     H139132   5.672   1.654   4.464 -0.2814 -2.7504 -1.2810
 9603WAT     H239133   5.667   1.646   4.600 -0.7892  3.2474 -0.6990
 9603WAT    EPW39134   5.640   1.625   4.529 -0.5810  0.1639 -0.0247
 9604WAT      O39135   0.126   6.409   4.042 -0.2116  0.2482  0.3336
 9604WAT     H139136   0.116   6.379   3.960  0.3897 -0.1219  0.3914
 9604WAT     H239137   0.131   6.495   4.032  1.1938  0.1289 -0.1624
 9604WAT    EPW39138   0.125   6.417   4.028  0.0848  0.1759  0.2689
 9605WAT      O39139   5.792   0.381   3.519 -0.1512  0.8015 -0.8382
 9605WAT     H139140   5.786   0.324   3.585  1.0418  1.8691  0.2465
 9605WAT     H239141   5.783   0.331   3.448  1.3641 -0.8681  0.0595
 9605WAT    EPW39142   5.790   0.365   3.518  0.2489  0.7125 -0.5454
 9606WAT      O39143   1.507   5.073   7.341 -0.2657  0.1818 -0.6096
 9606WAT     H139144   1.489   4.994   7.309 -0.6175 -0.3357  0.7732
 9606WAT     H239145   1.594   5.078   7.337 -0.0260 -1.2297  1.2975
 9606WAT    EPW39146   1.517   5.062   7.336 -0.2823 -0.1031 -0.1236
 9607WAT      O39147   3.419   5.407   4.878 -0.4326  0.0009 -0.2217
 9607WAT     H139148   3.415   5.387   4.963 -0.1084  1.8514  0.2847
 9607WAT     H239149   3.345   5.376   4.846 -0.8201 -0.2407  0.8717
 9607WAT    EPW39150   3.408   5.400   4.886 -0.4420  0.2386  0.0146
 9608WAT      O39151   6.233   0.859   3.779  0.1132 -0.4870 -0.1867
 9608WAT     H139152   6.195   0.819   3.847  0.3579 -0.7919 -0.2253
 9608WAT     H239153   6.235   0.943   3.803  0.7413 -0.6736  0.4458
 9608WAT    EPW39154   6.227   0.865   3.793  0.2421 -0.5596 -0.0990
 9609WAT      O39155   0.909   3.185   1.401 -0.1356 -0.4072 -0.0114
 9609WAT     H139156   0.884   3.262   1.433  0.2040  0.0105 -0.7193
 9609WAT     H239157   0.843   3.163   1.349  0.1905 -0.1306 -0.5475
 9609WAT    EPW39158   0.895   3.193   1.398 -0.0373 -0.3046 -0.1952
 9610WAT      O39159   3.945   4.885   5.672  0.2648  0.0810 -0.0337
 9610WAT     H139160   3.914   4.834   5.736 -1.4565 -0.6210 -1.3526
 9610WAT     H239161   3.968   4.829   5.610 -1.7411  0.8154 -1.5470
 9610WAT    EPW39162   3.944   4.869   5.672 -0.2858  0.0858 -0.4521
 9611WAT      O39163   5.753   2.439   0.136 -0.8058 -0.4391 -0.4572
 9611WAT     H139164   5.751   2.356   0.162  0.7061 -0.9241 -1.7383
 9611WAT     H239165   5.728   2.436   0.052 -1.1430  0.4558 -0.4075
 9611WAT    EPW39166   5.749   2.427   0.127 -0.6323 -0.3786 -0.6391
 9612WAT      O39167   2.024   3.645   2.912 -0.1779  0.2961  0.3132
 9612WAT     H139168   2.047   3.695   2.979 -2.0585  0.0378  1.2084
 9612WAT     H239169   2.055   3.688   2.842 -2.4576  3.2427  0.9458
 9612WAT    EPW39170   2.032   3.659   2.911 -0.7924  0.6932  0.5389
 9613WAT      O39171   1.313   4.843   2.904  0.5750 -0.0445 -0.1143
 9613WAT     H139172   1.230   4.867   2.891  1.1847  2.5054  0.0440
 9613WAT     H239173   1.316   4.827   2.990 -0.1471 -2.1252 -0.4348
 9613WAT    EPW39174   1.301   4.844   2.915  0.5584  0.0248 -0.1383
 9614WAT      O39175   2.735   3.235   6.106  0.8697  0.1359  0.3999
 9614WAT     H139176   2.705   3.154   6.119 -0.0860  0.1775 -1.1970
 9614WAT     H239177   2.779   3.253   6.179  1.2453 -1.8802  0.7316
 9614WAT    EPW39178   2.737   3.225   6.118  0.7840 -0.1558  0.2130
 9615WAT      O39179   4.534   1.362   6.508 -0.5255  0.0103 -0.2220
 9615WAT     H139180   4.570   1.393   6.581 -0.8854 -0.1411  0.0256
 9615WAT     H239181   4.568   1.282   6.501  1.1700  0.7798 -1.4011
 9615WAT    EPW39182   4.544   1.354   6.518 -0.3282  0.1016 -0.3596
 9616WAT      O39183   6.886   3.658   4.311 -0.0827 -0.4746 -0.1120
 9616WAT     H139184   6.945   3.639   4.372  1.4854 -0.4149 -1.5390
 9616WAT     H239185   6.927   3.714   4.259 -1.2982 -0.6582 -1.3310
 9616WAT    EPW39186   6.901   3.663   4.312 -0.0306 -0.4929 -0.5029
 9617WAT      O39187   2.142   4.747   0.571  0.0213 -0.3570 -0.2774
 9617WAT     H139188   2.135   4.784   0.492 -1.0835  0.1230  0.0384
 9617WAT     H239189   2.135   4.815   0.625 -3.0564 -1.0423  0.3613
 9617WAT    EPW39190   2.140   4.763   0.567 -0.5965 -0.3874 -0.1364
 9618WAT      O39191   6.551   2.684   6.101  0.3478  0.1688  0.1950
 9618WAT     H139192   6.520   2.764   6.116 -0.4729  0.3306 -1.9026
 9618WAT     H239193   6.519   2.637   6.167  0.7541  1.5401  1.4031
 9618WAT    EPW39194   6.541   2.689   6.113  0.2866  0.3953  0.0636
 9619WAT      O39195   6.597   4.032   1.039 -0.1902  0.8425 -0.3811
 9619WAT     H139196   6.554   4.093   0.994 -0.0818  0.8875 -0.4247
 9619WAT     H239197   6.540   3.967   1.046 -0.7392  1.4106  0.7243
 9619WAT    EPW39198   6.582   4.032   1.033 -0.2553  0.9331 -0.2242
 9620WAT      O39199   2.459   2.888   0.565  0.5801  0.0319 -0.0054
 9620WAT     H139200   2.482   2.805   0.551  2.5123  0.3657  0.7532
 9620WAT     H239201   2.412   2.909   0.495  1.4929 -1.2220 -1.0411
 9620WAT    EPW39202   2.456   2.879   0.553  1.0004 -0.1040 -0.0463
 9621WAT      O39203   0.407   6.124   0.115  0.3327  0.3307  0.0753
 9621WAT     H139204   0.494   6.134   0.118  0.5894 -1.6205  1.4117
 9621WAT     H239205   0.397   6.037   0.121 -1.6522  0.2158 -2.9176
 9621WAT    EPW39206   0.418   6.112   0.116  0.0774  0.0255 -0.1694
 9622WAT      O39207   0.995   1.134   0.782 -0.4122 -0.1370 -0.7724
 9622WAT     H139208   1.081   1.144   0.771 -0.6718  0.6152 -2.6651
 9622WAT     H239209   0.987   1.055   0.818  1.1363  0.5590  1.2298
 9622WAT    EPW39210   1.006   1.124   0.786 -0.2218  0.0769 -0.7562
 9623WAT      O39211   3.607   5.024   6.345 -0.0437 -0.0893  0.2422
 9623WAT     H139212   3.644   4.967   6.291  1.5346 -0.2205  1.3767
 9623WAT     H239213   3.647   5.099   6.327  1.0428 -0.2820  1.6638
 9623WAT    EPW39214   3.618   5.027   6.334  0.3500 -0.1372  0.6198
 9624WAT      O39215   4.657   7.032   2.033  0.0966  0.5040 -0.3641
 9624WAT     H139216   4.639   7.082   1.963  3.0100  3.5093  0.7541
 9624WAT     H239217   4.607   7.066   2.095  1.7677  1.9401  0.2930
 9624WAT    EPW39218   4.647   7.045   2.032  0.7738  1.1601 -0.1019
 9625WAT      O39219   0.008   4.401   2.680  0.7762  0.2469  0.0951
 9625WAT     H139220   0.060   4.463   2.711  0.8080 -0.1476  0.8351
 9625WAT     H239221   0.051   4.371   2.610  1.4599  0.0542  0.5889
 9625WAT    EPW39222   0.022   4.406   2.674  0.8819  0.1602  0.2773
 9626WAT      O39223   0.183   6.054   4.189  0.5426  0.0902 -0.2205
 9626WAT     H139224   0.182   6.012   4.265  2.3599  0.5754  0.1246
 9626WAT     H239225   0.231   6.002   4.138  1.8545  1.1618 -0.1189
 9626WAT    EPW39226   0.190   6.040   4.193  1.0049  0.3202 -0.1545
 9627WAT      O39227   1.515   1.737   4.331 -0.1847 -0.4675 -1.1378
 9627WAT     H139228   1.547   1.730   4.412 -0.9333  0.3187 -0.7561
 9627WAT     H239229   1.583   1.714   4.281  0.8006  0.5456 -0.3333
 9627WAT    EPW39230   1.530   1.733   4.336 -0.1497 -0.2017 -0.9625
 9628WAT      O39231   4.173   5.469   2.015  0.3687  0.2407 -0.4072
 9628WAT     H139232   4.239   5.423   1.980 -0.1104  1.8109 -3.7760
 9628WAT     H239233   4.110   5.410   2.026  0.9750 -0.5495 -1.0823
 9628WAT    EPW39234   4.173   5.453   2.012  0.3875  0.3559 -1.0045
 9629WAT      O39235   1.770   4.836   7.106  0.1048  0.1509  0.1095
 9629WAT     H139236   1.805   4.857   7.029 -0.8436  1.1309 -0.0674
 9629WAT     H239237   1.706   4.780   7.086 -0.7671  1.1352  0.0700
 9629WAT    EPW39238   1.766   4.831   7.092 -0.1641  0.4411  0.0775
 9630WAT      O39239   4.652   0.507   4.768 -0.6457  0.4094  0.3779
 9630WAT     H139240   4.582   0.548   4.801  0.3102  2.6154 -0.1649
 9630WAT     H239241   4.636   0.507   4.682  0.5995  2.2082  0.1009
 9630WAT    EPW39242   4.639   0.513   4.760 -0.3205  1.0010  0.2568
 9631WAT      O39243   1.692   3.930   3.740 -0.1186 -0.3579  0.0563
 9631WAT     H139244   1.737   4.004   3.730  0.5495 -0.8041 -0.3276
 9631WAT     H239245   1.611   3.957   3.759  0.1916  0.4624  0.2370
 9631WAT    EPW39246   1.687   3.945   3.741  0.0259 -0.3026  0.0263
 9632WAT      O39247   1.853   2.099   1.773  0.4241 -0.3087 -0.7003
 9632WAT     H139248   1.781   2.109   1.726  0.3972  0.4414 -0.5095
 9632WAT     H239249   1.836   2.144   1.846  1.3476  0.5055 -0.9577
 9632WAT    EPW39250   1.840   2.107   1.777  0.5565 -0.0776 -0.7101
 9633WAT      O39251   2.128   0.660   2.983 -0.0581 -0.0769  0.1129
 9633WAT     H139252   2.086   0.667   2.907 -1.5082  0.5210  0.9257
 9633WAT     H239253   2.207   0.693   2.966 -1.4418  3.3927 -0.3153
 9633WAT    EPW39254   2.134   0.666   2.969 -0.4767  0.5239  0.1697
 9634WAT      O39255   4.404   5.057   5.899  0.0777  0.3348 -0.2526
 9634WAT     H139256   4.378   5.044   5.817  0.4976 -1.6280 -0.1258
 9634WAT     H239257   4.331   5.079   5.941 -0.6007 -0.9914 -0.7095
 9634WAT    EPW39258   4.390   5.059   5.893  0.0395 -0.1511 -0.3013
 9635WAT      O39259   1.309   6.247   3.265 -0.2184 -0.2880  0.0181
 9635WAT     H139260   1.357   6.255   3.338 -0.8636 -1.0136  0.5386
 9635WAT     H239261   1.229   6.271   3.290 -1.2312 -3.6787  0.5044
 9635WAT    EPW39262   1.304   6.252   3.280 -0.4633 -0.8961  0.1668
 9636WAT      O39263   7.053   2.529   0.206 -0.5150 -0.0510  0.1716
 9636WAT     H139264   7.022   2.585   0.265  2.5193 -1.2364  3.2175
 9636WAT     H239265   7.134   2.559   0.190  0.3592 -2.2239  0.1850
 9636WAT    EPW39266   7.061   2.542   0.212  0.0624 -0.5471  0.6235
 9637WAT      O39267   3.374   4.979   2.028  0.6993  0.3304 -0.2708
 9637WAT     H139268   3.384   5.038   2.092 -0.6185 -1.3837  1.6458
 9637WAT     H239269   3.407   5.019   1.958 -0.3172  3.4488  0.8474
 9637WAT    EPW39270   3.380   4.994   2.027  0.3545  0.5379  0.1775
 9638WAT      O39271   0.457   6.371   4.438  0.0982 -0.3505 -0.4765
 9638WAT     H139272   0.420   6.332   4.369  0.5684 -0.9116 -0.4289
 9638WAT     H239273   0.479   6.450   4.408  0.4207 -0.6379 -1.0148
 9638WAT    EPW39274   0.455   6.377   4.424  0.2153 -0.4758 -0.5490
 9639WAT      O39275   1.912   5.083   6.271  0.0279  0.1818 -0.5500
 9639WAT     H139276   1.858   5.111   6.208 -0.8714  0.7532  0.4280
 9639WAT     H239277   1.906   5.146   6.332 -0.2349 -1.0182  0.7106
 9639WAT    EPW39278   1.903   5.097   6.271 -0.1438  0.0889 -0.2193
 9640WAT      O39279   2.745   0.484   2.453 -0.2074 -0.0795  0.1220
 9640WAT     H139280   2.765   0.408   2.416 -1.8884 -1.0590  1.0956
 9640WAT     H239281   2.742   0.465   2.539 -1.1855  0.9294  0.3304
 9640WAT    EPW39282   2.747   0.470   2.461 -0.6002 -0.0752  0.2966
 9641WAT      O39283   0.515   2.971   6.297 -0.4171  0.3967  0.0175
 9641WAT     H139284   0.601   2.978   6.284 -0.3480 -0.9569 -0.3464
 9641WAT     H239285   0.502   3.018   6.370  0.2277  2.5836 -1.1683
 9641WAT    EPW39286   0.526   2.979   6.306 -0.3116  0.5198 -0.2114
 9642WAT      O39287   6.420   0.455   1.600 -0.4623 -0.5179 -0.0415
 9642WAT     H139288   6.497   0.433   1.634 -0.3056 -0.9446 -0.6453
 9642WAT     H239289   6.439   0.524   1.549 -0.5096 -0.5251 -0.0690
 9642WAT    EPW39290   6.434   0.462   1.597 -0.4461 -0.5820 -0.1348
 9643WAT      O39291   0.906   5.246   5.364  0.4371 -0.0140  0.2965
 9643WAT     H139292   0.950   5.179   5.398  0.6029 -0.2964 -0.4440
 9643WAT     H239293   0.823   5.221   5.369  0.5061 -0.3331 -0.0796
 9643WAT    EPW39294   0.901   5.233   5.369  0.4717 -0.1028  0.1316
 9644WAT      O39295   2.021   6.030   1.215 -0.2995  0.1156 -0.0227
 9644WAT     H139296   2.037   6.116   1.214 -1.7427  0.4187  0.5839
 9644WAT     H239297   2.090   5.997   1.257  1.5904  0.6175 -2.4789
 9644WAT    EPW39298   2.034   6.038   1.221 -0.2335  0.2345 -0.2959
 9645WAT      O39299   1.329   0.169   5.216 -0.8163 -0.4820 -0.1033
 9645WAT     H139300   1.250   0.134   5.229 -0.3391 -1.8537 -0.6949
 9645WAT     H239301   1.383   0.105   5.237  0.1476  0.3356 -0.0310
 9645WAT    EPW39302   1.325   0.154   5.221 -0.6035 -0.5638 -0.1800
 9646WAT      O39303   4.333   2.194   0.390  0.3395 -0.0106  0.5938
 9646WAT     H139304   4.290   2.137   0.340 -0.1354  0.5361  0.3711
 9646WAT     H239305   4.327   2.269   0.346  1.9251 -0.0093  0.3166
 9646WAT    EPW39306   4.326   2.197   0.376  0.5036  0.0704  0.5200
 9647WAT      O39307   6.041   1.795   6.733 -0.3750  0.3745 -0.2348
 9647WAT     H139308   6.089   1.863   6.759 -0.3675 -0.1506  1.1857
 9647WAT     H239309   5.959   1.823   6.742 -0.3663  0.5812 -0.7557
 9647WAT    EPW39310   6.036   1.809   6.738 -0.3726  0.3275 -0.1019
 9648WAT      O39311   5.431   6.459   3.421  0.1858  0.1014  0.2045
 9648WAT     H139312   5.477   6.533   3.413  2.3502 -1.1241  0.5500
 9648WAT     H239313   5.480   6.410   3.474 -0.7671 -1.9065 -0.6695
 9648WAT    EPW39314   5.445   6.463   3.428  0.3648 -0.3763  0.1264
 9649WAT      O39315   4.276   2.137   1.355 -0.1567 -0.7168  0.6327
 9649WAT     H139316   4.289   2.088   1.284 -1.0879  1.4260 -1.1011
 9649WAT     H239317   4.356   2.155   1.383  0.2741 -0.1521 -0.9234
 9649WAT    EPW39318   4.290   2.132   1.349 -0.2307 -0.3168  0.1467
 9650WAT      O39319   3.858   1.163   0.617  0.1988  0.5397 -0.0599
 9650WAT     H139320   3.919   1.149   0.557 -0.3111 -0.0792 -0.4524
 9650WAT     H239321   3.796   1.105   0.597 -1.5555  2.6244 -1.0757
 9650WAT    EPW39322   3.858   1.153   0.605 -0.1357  0.7563 -0.2679
 9651WAT      O39323   6.976   3.050   1.429 -0.0463  0.5476  0.9286
 9651WAT     H139324   6.928   2.994   1.380  0.1850 -1.1067  2.4853
 9651WAT     H239325   7.054   3.048   1.390 -0.8762  2.4518 -1.0070
 9651WAT    EPW39326   6.980   3.041   1.416 -0.1347  0.5845  0.8726
 9652WAT      O39327   5.700   5.612   3.794  0.4501  0.1941  0.2658
 9652WAT     H139328   5.716   5.621   3.880 -0.4958  1.5282  0.3367
 9652WAT     H239329   5.637   5.552   3.791 -0.6066  1.2442  0.6556
 9652WAT    EPW39330   5.693   5.605   3.806  0.1542  0.5463  0.3338
 9653WAT      O39331   2.700   3.538   2.541  0.2173 -0.0163  0.0292
 9653WAT     H139332   2.730   3.587   2.475 -1.2296 -0.3286 -0.9014
 9653WAT     H239333   2.616   3.526   2.521  0.2833 -2.0116  0.7804
 9653WAT    EPW39334   2.692   3.544   2.528  0.0133 -0.3572  0.0027
 9654WAT      O39335   2.222   0.650   2.688  0.1660  0.5249  0.4058
 9654WAT     H139336   2.138   0.676   2.684  0.3033  1.0348  0.7329
 9654WAT     H239337   2.264   0.710   2.641  0.3280  0.1575  0.0762
 9654WAT    EPW39338   2.216   0.663   2.680  0.2102  0.5459  0.4054
 9655WAT      O39339   3.234   4.150   3.686  0.3529 -0.3338 -0.0217
 9655WAT     H139340   3.274   4.112   3.754 -2.1650  0.6780  2.1987
 9655WAT     H239341   3.227   4.233   3.711 -1.2696 -0.0769 -1.2050
 9655WAT    EPW39342   3.239   4.156   3.700 -0.2587 -0.1464  0.1315
 9656WAT      O39343   1.566   5.796   5.202  0.4981  0.1008 -0.1806
 9656WAT     H139344   1.480   5.800   5.184  0.2447  1.9601  1.0914
 9656WAT     H239345   1.573   5.725   5.252 -0.7045  0.9058  1.2474
 9656WAT    EPW39346   1.554   5.786   5.207  0.2830  0.4944  0.2182
 9657WAT      O39347   5.334   0.709   2.540  0.0075 -0.5623 -0.5780
 9657WAT     H139348   5.367   0.722   2.460 -1.1960  0.8579 -0.8989
 9657WAT     H239349   5.277   0.774   2.549  1.3939  0.4219  2.1893
 9657WAT    EPW39350   5.330   0.720   2.529  0.0345 -0.2071 -0.2166
 9658WAT      O39351   1.342   5.798   1.778  0.0242  0.0065  0.1812
 9658WAT     H139352   1.276   5.804   1.835  0.6077 -0.7859  0.9830
 9658WAT     H239353   1.400   5.856   1.808 -0.4900  1.0606 -0.8086
 9658WAT    EPW39354   1.341   5.808   1.791  0.0344  0.0451  0.1534
 9659WAT      O39355   0.589   5.349   3.263 -0.0767 -0.6805  0.0679
 9659WAT     H139356   0.620   5.419   3.221 -0.6170 -0.7013 -0.3753
 9659WAT     H239357   0.644   5.286   3.241  1.5375 -0.0260  1.9695
 9659WAT    EPW39358   0.601   5.350   3.253  0.0819 -0.5869  0.2833
 9660WAT      O39359   3.635   6.122   3.668  0.1638  0.0012 -0.3488
 9660WAT     H139360   3.691   6.144   3.606 -0.5122  0.5564 -0.7735
 9660WAT     H239361   3.655   6.039   3.685 -0.0415 -0.3490 -1.7449
 9660WAT    EPW39362   3.646   6.113   3.661  0.0336  0.0315 -0.6178
 9661WAT      O39363   6.356   5.787   5.635  0.4090 -0.1359  0.1560
 9661WAT     H139364   6.333   5.712   5.673 -0.2082  0.0981  0.2643
 9661WAT     H239365   6.438   5.773   5.608 -0.1902 -1.3625 -1.1344
 9661WAT    EPW39366   6.365   5.774   5.637  0.2293 -0.2825 -0.0186
 9662WAT      O39367   0.708   2.295   2.621  0.8072 -0.1722 -0.0405
 9662WAT     H139368   0.733   2.239   2.559 -0.2756 -0.5140 -0.1823
 9662WAT     H239369   0.770   2.356   2.619  1.2100 -0.5954 -0.9151
 9662WAT    EPW39370   0.721   2.296   2.612  0.7067 -0.2852 -0.1906
 9663WAT      O39371   3.807   6.106   5.563  0.5523  0.1192 -0.0007
 9663WAT     H139372   3.800   6.173   5.508 -0.9824  1.1743  1.3879
 9663WAT     H239373   3.809   6.037   5.510  1.8240  1.2013 -1.4541
 9663WAT    EPW39374   3.806   6.106   5.547  0.5135  0.4349 -0.0102
 9664WAT      O39375   5.413   6.253   3.651 -0.1053 -0.1156  0.0963
 9664WAT     H139376   5.336   6.213   3.660  1.4678 -3.3475  0.7419
 9664WAT     H239377   5.424   6.294   3.727 -0.7800 -0.4384  0.3789
 9664WAT    EPW39378   5.403   6.253   3.664  0.0274 -0.6407  0.2334
 9665WAT      O39379   0.346   5.923   3.993  0.3198 -0.2196 -0.7080
 9665WAT     H139380   0.327   5.976   3.926  0.7346  0.6393 -0.1611
 9665WAT     H239381   0.373   5.850   3.954 -3.1790 -1.2800 -1.5632
 9665WAT    EPW39382   0.347   5.920   3.977 -0.1357 -0.2494 -0.7535
 9666WAT      O39383   0.365   7.222   1.656 -0.0000 -0.4495 -0.0364
 9666WAT     H139384   0.404   7.291   1.620 -1.0443  0.4600  0.5225
 9666WAT     H239385   0.365   7.163   1.591 -0.5300  0.6392 -1.0812
 9666WAT    EPW39386   0.371   7.223   1.641 -0.2326 -0.1544 -0.1081
 9667WAT      O39387   0.206   0.290   3.091  0.1491 -0.1831  0.2340
 9667WAT     H139388   0.277   0.335   3.067 -0.1875  0.1875 -0.0880
 9667WAT     H239389   0.190   0.319   3.172  0.4215 -0.3429  0.3458
 9667WAT    EPW39390   0.214   0.301   3.100  0.1396 -0.1519  0.2029
 9668WAT      O39391   1.109   4.156   7.264  0.4317 -0.0302 -0.5472
 9668WAT     H139392   1.114   4.099   7.198  1.0706  0.4829 -0.9628
 9668WAT     H239393   1.107   4.233   7.223  3.3236  0.4597  0.0456
 9668WAT    EPW39394   1.109   4.159   7.248  0.9533  0.1180 -0.5211
 9669WAT      O39395   1.214   6.625   4.452  0.0806  0.3517  0.7298
 9669WAT     H139396   1.284   6.612   4.402 -0.3020 -0.4027  0.3663
 9669WAT     H239397   1.200   6.546   4.487 -1.6210  0.0358 -0.5607
 9669WAT    EPW39398   1.222   6.611   4.450 -0.2273  0.1936  0.4855
 9670WAT      O39399   6.863   5.437   0.083 -0.1176  0.1557  0.5824
 9670WAT     H139400   6.817   5.366   0.062  0.3762  0.0831 -0.3064
 9670WAT     H239401   6.903   5.459   0.008 -0.4122  1.4923  0.7939
 9670WAT    EPW39402   6.862   5.430   0.069 -0.0882  0.3424  0.4824
 9671WAT      O39403   4.399   0.168   6.026 -0.3745 -0.4686 -0.4438
 9671WAT     H139404   4.417   0.220   6.095 -0.9529 -1.2097  0.2814
 9671WAT     H239405   4.420   0.089   6.054 -0.9221 -0.8228 -1.0114
 9671WAT    EPW39406   4.405   0.164   6.041 -0.5409 -0.6304 -0.4206
 9672WAT      O39407   4.153   1.036   2.179 -0.3468 -0.0604 -0.1058
 9672WAT     H139408   4.139   1.033   2.093  0.0947 -1.7569 -0.1494
 9672WAT     H239409   4.227   0.991   2.190  0.2745  1.1793  1.0466
 9672WAT    EPW39410   4.162   1.029   2.168 -0.1898 -0.1279  0.0580
 9673WAT      O39411   5.605   2.784   4.000 -0.7005 -0.6513  0.1944
 9673WAT     H139412   5.659   2.738   3.949  0.9034  0.4305  0.8405
 9673WAT     H239413   5.525   2.756   3.976 -0.2186  0.9517 -4.0978
 9673WAT    EPW39414   5.601   2.773   3.989 -0.3924 -0.2547 -0.3442
 9674WAT      O39415   6.422   5.451   4.395  0.6136 -0.0175  0.7484
 9674WAT     H139416   6.449   5.402   4.328  0.1319  0.2163  0.3745
 9674WAT     H239417   6.466   5.526   4.384 -2.2222  1.5347 -1.6202
 9674WAT    EPW39418   6.433   5.455   4.383  0.1235  0.2463  0.3433
 9675WAT      O39419   5.439   7.135   1.283  0.6342 -0.2590 -0.0164
 9675WAT     H139420   5.428   7.123   1.198  2.1373  0.5477 -0.3743
 9675WAT     H239421   5.526   7.128   1.294  0.2594 -4.1029  2.1063
 9675WAT    EPW39422   5.450   7.132   1.272  0.8009 -0.7076  0.2443
 9676WAT      O39423   6.182   1.064   4.198  0.2205 -0.6162  0.3045
 9676WAT     H139424   6.181   1.115   4.128  1.0764 -0.0488  0.6787
 9676WAT     H239425   6.226   0.993   4.171  0.7898 -0.2812  0.3325
 9676WAT    EPW39426   6.189   1.061   4.184  0.4310 -0.4829  0.3639
 9677WAT      O39427   6.824   3.396   4.545 -0.0614 -0.0089 -0.1831
 9677WAT     H139428   6.884   3.441   4.589 -0.7476  0.8533 -0.1155
 9677WAT     H239429   6.832   3.315   4.577 -0.3987  0.5518  1.3751
 9677WAT    EPW39430   6.834   3.391   4.556 -0.2126  0.2013  0.0571
 9678WAT      O39431   4.164   0.228   2.481 -0.0828  0.0862 -0.0290
 9678WAT     H139432   4.212   0.201   2.548 -0.0634 -0.7158 -0.3603
 9678WAT     H239433   4.146   0.155   2.437 -0.3862  0.5561 -0.7086
 9678WAT    EPW39434   4.168   0.213   2.484 -0.1247  0.0371 -0.1783
 9679WAT      O39435   0.203   6.572   1.579  0.4775 -0.3695 -0.1625
 9679WAT     H139436   0.180   6.545   1.659  2.0100  0.8291  0.7432
 9679WAT     H239437   0.243   6.502   1.544  0.4027 -0.6918  0.3853
 9679WAT    EPW39438   0.206   6.558   1.586  0.6928 -0.2401  0.0522
 9680WAT      O39439   3.315   1.087   3.227 -0.0470 -0.1166 -0.3672
 9680WAT     H139440   3.368   1.137   3.180 -0.2170  0.2395 -0.1788
 9680WAT     H239441   3.236   1.123   3.214 -0.1190 -0.1254  0.0541
 9680WAT    EPW39442   3.311   1.100   3.218 -0.0827 -0.0653 -0.2771
 9681WAT      O39443   7.184   1.514   2.486  0.5010  0.5639  0.3862
 9681WAT     H139444   7.228   1.463   2.430 -1.8564  1.4960 -2.5768
 9681WAT     H239445   7.245   1.571   2.512  1.8004 -0.0778 -1.0413
 9681WAT    EPW39446   7.200   1.515   2.481  0.3447  0.6068 -0.2624
 9682WAT      O39447   3.869   4.164   0.357 -0.1533 -0.2290  0.4673
 9682WAT     H139448   3.936   4.161   0.301 -0.5543 -3.9801 -0.0410
 9682WAT     H239449   3.904   4.195   0.430  1.4816  0.3668 -0.5157
 9682WAT    EPW39450   3.884   4.168   0.359  0.0289 -0.6951  0.2470
 9683WAT      O39451   6.496   2.249   4.789  0.7783 -0.0215 -0.2095
 9683WAT     H139452   6.513   2.301   4.721  0.1691 -0.3443 -0.6139
 9683WAT     H239453   6.569   2.202   4.797  0.4493 -0.7689 -1.3630
 9683WAT    EPW39454   6.510   2.250   4.780  0.6397 -0.1796 -0.4396
 9684WAT      O39455   1.304   6.141   2.437  0.4635  0.1552 -0.0641
 9684WAT     H139456   1.241   6.089   2.467  1.3517 -0.8287  0.1298
 9684WAT     H239457   1.356   6.153   2.505  1.0023  0.1757 -0.4718
 9684WAT    EPW39458   1.302   6.135   2.451  0.6743  0.0129 -0.0957
 9685WAT      O39459   3.200   4.706   1.111  0.1307 -0.3419  0.0766
 9685WAT     H139460   3.204   4.619   1.110 -0.0234 -0.3483  0.0754
 9685WAT     H239461   3.191   4.728   1.026 -1.0217 -0.3758  0.1774
 9685WAT    EPW39462   3.199   4.697   1.098 -0.0623 -0.3478  0.0913
 9686WAT      O39463   2.158   5.221   4.003 -0.4374  0.4209  0.0028
 9686WAT     H139464   2.214   5.169   4.045  0.3423  1.7672  0.7173
 9686WAT     H239465   2.189   5.224   3.922  0.1123  0.5814  0.2152
 9686WAT    EPW39466   2.171   5.214   3.997 -0.2410  0.6435  0.1397
 9687WAT      O39467   5.829   6.624   6.049  0.1810 -0.3817  0.1768
 9687WAT     H139468   5.791   6.629   5.971  0.2949  0.2799  0.1606
 9687WAT     H239469   5.780   6.566   6.092 -0.0618 -0.5191 -0.2793
 9687WAT    EPW39470   5.816   6.616   6.044  0.1619 -0.3043  0.1071
 9688WAT      O39471   6.635   6.976   3.210  0.4573 -0.0078 -0.0322
 9688WAT     H139472   6.554   7.005   3.223  0.5763 -0.2727  1.4950
 9688WAT     H239473   6.628   6.925   3.139 -0.8784 -0.7038  0.5802
 9688WAT    EPW39474   6.622   6.973   3.201  0.2776 -0.1497  0.2839
 9689WAT      O39475   5.977   2.767   0.425  0.1492 -0.2079  0.2175
 9689WAT     H139476   6.040   2.825   0.408 -0.7881  1.0252  0.7856
 9689WAT     H239477   5.971   2.721   0.351  1.9167 -0.5792  0.2617
 9689WAT    EPW39478   5.986   2.769   0.411  0.2719 -0.0806  0.3080
 9690WAT      O39479   4.692   4.670   6.404 -0.0586  0.4600  0.0012
 9690WAT     H139480   4.617   4.663   6.361 -0.1041 -0.4997  0.2094
 9690WAT     H239481   4.689   4.604   6.462  0.7994  0.6010  0.2251
 9690WAT    EPW39482   4.681   4.659   6.407  0.0614  0.3391  0.0651
 9691WAT      O39483   2.349   3.839   6.275  0.0081 -0.0228  0.1780
 9691WAT     H139484   2.429   3.872   6.265 -0.1423  0.0231 -1.0302
 9691WAT     H239485   2.335   3.797   6.200 -1.0497 -0.1457  0.4297
 9691WAT    EPW39486   2.359   3.838   6.263 -0.1704 -0.0342  0.0367
 9692WAT      O39487   5.507   0.547   6.976  0.3141 -0.3182 -0.3083
 9692WAT     H139488   5.430   0.507   6.981 -0.0547  0.0765 -2.2108
 9692WAT     H239489   5.549   0.518   7.047 -2.1656  0.8748  1.8259
 9692WAT    EPW39490   5.502   0.537   6.987 -0.1067 -0.0836 -0.2741
 9693WAT      O39491   1.984   4.549   7.213  0.2688  0.0517  0.0450
 9693WAT     H139492   2.065   4.554   7.245  0.0123  1.3470  0.5867
 9693WAT     H239493   1.978   4.620   7.162 -0.2185 -0.5545 -0.7658
 9693WAT    EPW39494   1.995   4.560   7.210  0.1589  0.1535  0.0052
 9694WAT      O39495   3.415   6.883   2.727  0.2948 -0.5007  0.3664
 9694WAT     H139496   3.385   6.916   2.802 -2.4101 -0.3590 -0.6707
 9694WAT     H239497   3.402   6.947   2.670  0.8831 -1.1595 -0.5393
 9694WAT    EPW39498   3.409   6.897   2.730 -0.0179 -0.5771  0.0794
 9695WAT      O39499   4.845   4.066   6.811  0.2458  0.0224 -0.3598
 9695WAT     H139500   4.932   4.065   6.808  0.4498  3.2438  0.8087
 9695WAT     H239501   4.827   4.092   6.892 -1.8273 -0.6723 -0.5244
 9695WAT    EPW39502   4.855   4.070   6.822 -0.0303  0.3956 -0.2115
 9696WAT      O39503   4.549   5.998   7.127 -0.3253  0.1418 -0.2272
 9696WAT     H139504   4.563   5.915   7.152 -0.4748  0.6236  1.5827
 9696WAT     H239505   4.626   6.023   7.095 -0.3250 -0.7210 -0.9703
 9696WAT    EPW39506   4.562   5.989   7.126 -0.3473  0.0855 -0.0696
 9697WAT      O39507   4.775   3.303   5.844 -0.1431  0.1574 -0.3597
 9697WAT     H139508   4.717   3.323   5.782  0.2674  0.8616 -0.5274
 9697WAT     H239509   4.790   3.218   5.832  1.0939  0.5854 -2.2526
 9697WAT    EPW39510   4.769   3.294   5.833  0.1003  0.3246 -0.6641
 9698WAT      O39511   6.997   1.785   3.594  0.3339 -0.4013  0.0163
 9698WAT     H139512   6.973   1.718   3.644  0.7677 -1.6205 -1.3222
 9698WAT     H239513   6.921   1.818   3.566  0.0916 -1.7283 -1.0213
 9698WAT    EPW39514   6.982   1.780   3.597  0.3622 -0.7774 -0.3347
 9699WAT      O39515   5.489   0.107   3.359 -0.0147 -0.1258 -0.4740
 9699WAT     H139516   5.516   0.184   3.328 -1.2460  0.2201 -0.7589
 9699WAT     H239517   5.402   0.115   3.360 -0.1284 -1.2019  0.3239
 9699WAT    EPW39518   5.480   0.120   3.355 -0.2134 -0.2337 -0.3982
 9700WAT      O39519   6.127   6.143   5.733  0.2894 -0.2571 -0.2066
 9700WAT     H139520   6.207   6.176   5.727  0.1425  0.3457  0.8273
 9700WAT     H239521   6.118   6.126   5.818 -0.0293 -2.0473 -0.5439
 9700WAT    EPW39522   6.137   6.145   5.744  0.2206 -0.4325 -0.1037
 9701WAT      O39523   3.985   3.893   5.646  0.1467 -0.3409 -0.0798
 9701WAT     H139524   4.024   3.859   5.575  1.1615  4.0190 -1.9637
 9701WAT     H239525   4.050   3.932   5.688 -1.0916  0.8336  0.8277
 9701WAT    EPW39526   4.000   3.893   5.642  0.1137  0.4766 -0.2240
 9702WAT      O39527   1.286   5.747   3.103 -0.4856  0.5361  0.0745
 9702WAT     H139528   1.347   5.685   3.112 -1.4035 -0.2176  1.4890
 9702WAT     H239529   1.297   5.796   3.175 -2.4190 -0.4543  1.1222
 9702WAT    EPW39530   1.297   5.745   3.115 -0.9068  0.2785  0.4382
 9703WAT      O39531   5.491   3.732   3.208 -0.4137 -0.4570  0.1739
 9703WAT     H139532   5.440   3.801   3.227 -2.5002 -2.2191  1.4975
 9703WAT     H239533   5.553   3.734   3.269 -0.7625 -0.0285  0.5205
 9703WAT    EPW39534   5.492   3.743   3.220 -0.7734 -0.6540  0.4207
 9704WAT      O39535   1.235   6.405   2.870  0.3474  0.1616 -0.0547
 9704WAT     H139536   1.275   6.466   2.822  0.7445 -0.1332 -0.1013
 9704WAT     H239537   1.247   6.432   2.952  0.1406  0.3750 -0.0920
 9704WAT    EPW39538   1.242   6.418   2.875  0.3755  0.1496 -0.0671
 9705WAT      O39539   4.597   3.061   6.740 -0.4411  0.7117 -0.4074
 9705WAT     H139540   4.558   3.136   6.760 -0.8472  0.0362  1.5173
 9705WAT     H239541   4.535   3.017   6.696 -0.1234  1.5374 -1.7550
 9705WAT    EPW39542   4.582   3.066   6.736 -0.4541  0.7339 -0.3222
 9706WAT      O39543   1.405   0.614   3.623 -0.2024 -0.1580  0.3486
 9706WAT     H139544   1.381   0.696   3.602  0.4270  0.5062  2.0858
 9706WAT     H239545   1.373   0.603   3.703  0.5677 -1.2558  0.5192
 9706WAT    EPW39546   1.397   0.625   3.631  0.0044 -0.2221  0.6304
 9707WAT      O39547   4.214   0.756   6.548 -0.0644 -0.1414  0.3510
 9707WAT     H139548   4.281   0.717   6.587 -1.3920  0.2038  3.2814
 9707WAT     H239549   4.241   0.838   6.537 -0.1372  0.1687  2.1319
 9707WAT    EPW39550   4.228   0.763   6.552 -0.2713 -0.0446  1.0470
 9708WAT      O39551   2.201   6.189   0.108  0.0232 -0.1604 -0.0121
 9708WAT     H139552   2.237   6.267   0.091 -1.2261  0.3620 -0.4245
 9708WAT     H239553   2.180   6.159   0.028  0.9386 -1.1467  0.1108
 9708WAT    EPW39554   2.203   6.196   0.094 -0.0261 -0.2289 -0.0549
 9709WAT      O39555   6.886   4.058   4.261  0.2622  0.4114 -0.0516
 9709WAT     H139556   6.824   4.050   4.200 -1.0611  2.2385  0.9301
 9709WAT     H239557   6.951   4.099   4.219  0.0991  0.0820 -0.6459
 9709WAT    EPW39558   6.886   4.063   4.246  0.0427  0.6326  0.0057
 9710WAT      O39559   1.119   0.536   2.326 -0.1077  0.0040  0.3433
 9710WAT     H139560   1.193   0.493   2.307  0.2181  1.5044 -2.3326
 9710WAT     H239561   1.059   0.473   2.325  0.7875 -0.8843 -0.2316
 9710WAT    EPW39562   1.121   0.520   2.323  0.0727  0.0944 -0.1369
 9711WAT      O39563   2.673   0.478   1.713  0.1216 -0.0461 -0.5182
 9711WAT     H139564   2.706   0.536   1.657  1.6755 -0.0458  0.3421
 9711WAT     H239565   2.686   0.515   1.791 -0.2047 -0.8949 -0.0494
 9711WAT    EPW39566   2.680   0.492   1.716  0.3030 -0.1715 -0.3219
 9712WAT      O39567   1.380   6.224   1.814  0.0319 -0.3624  0.3139
 9712WAT     H139568   1.435   6.203   1.750 -0.2601 -0.1096 -0.0257
 9712WAT     H239569   1.413   6.184   1.884  0.1880 -0.8851 -0.0584
 9712WAT    EPW39570   1.393   6.215   1.815  0.0118 -0.4023  0.2087
 9713WAT      O39571   2.743   5.422   5.169 -0.3287  0.5018 -0.0135
 9713WAT     H139572   2.700   5.489   5.134 -0.9863  0.3444  0.4818
 9713WAT     H239573   2.710   5.416   5.249  1.1890  0.9050  0.6987
 9713WAT    EPW39574   2.732   5.431   5.176 -0.2017  0.5381  0.1649
 9714WAT      O39575   7.106   1.017   2.493 -0.4269 -0.0036 -0.0639
 9714WAT     H139576   7.107   0.953   2.553  1.1297  0.7876  0.8299
 9714WAT     H239577   7.117   1.090   2.541  0.1976  0.7193 -1.2660
 9714WAT    EPW39578   7.107   1.019   2.509 -0.1047  0.2201 -0.1095
 9715WAT      O39579   3.723   6.764   5.213  0.1864 -0.5571 -0.0389
 9715WAT     H139580   3.665   6.740   5.152  0.8870 -1.6365 -0.3139
 9715WAT     H239581   3.701   6.716   5.282  0.6639 -0.8701 -0.1028
 9715WAT    EPW39582   3.711   6.753   5.214  0.3604 -0.7628 -0.0890
 9716WAT      O39583   0.386   1.928   4.599  0.3988 -0.4126  0.3403
 9716WAT     H139584   0.408   1.995   4.547 -1.5009 -0.5648 -0.7728
 9716WAT     H239585   0.444   1.931   4.663  1.8018  0.8532 -0.9189
 9716WAT    EPW39586   0.398   1.938   4.600  0.3254 -0.2481 -0.0101
 9717WAT      O39587   5.343   2.424   2.107  0.5970  0.0376  0.2732
 9717WAT     H139588   5.357   2.361   2.048 -0.7400 -0.6840  0.6969
 9717WAT     H239589   5.422   2.461   2.116  1.4650 -1.6714  0.1329
 9717WAT    EPW39590   5.357   2.420   2.100  0.5277 -0.3214  0.3151
 9718WAT      O39591   6.284   6.037   1.519 -0.3200 -0.1621  0.2393
 9718WAT     H139592   6.369   6.021   1.512 -0.2494  0.4657 -0.4187
 9718WAT     H239593   6.247   5.961   1.495  0.0424 -0.3051  0.1222
 9718WAT    EPW39594   6.291   6.023   1.515 -0.2560 -0.0905  0.1248
 9719WAT      O39595   3.598   4.365   1.266 -0.3257 -0.4439 -0.1408
 9719WAT     H139596   3.666   4.413   1.239  1.0696 -3.2897 -2.1451
 9719WAT     H239597   3.529   4.404   1.228  0.6083  0.4978 -0.9343
 9719WAT    EPW39598   3.598   4.378   1.257  0.0184 -0.7252 -0.5541
 9720WAT      O39599   4.479   3.781   1.505  0.1199 -0.0191  0.1352
 9720WAT     H139600   4.433   3.713   1.475 -3.1874  1.2848  1.7412
 9720WAT     H239601   4.515   3.815   1.433 -1.9972 -0.8001 -1.3720
 9720WAT    EPW39602   4.478   3.776   1.490 -0.6814  0.0582  0.1498
 9721WAT      O39603   3.572   5.748   5.717 -0.4537  0.3909 -0.0448
 9721WAT     H139604   3.507   5.804   5.729 -1.4765 -0.5581 -0.9464
 9721WAT     H239605   3.636   5.779   5.768 -0.9602  2.3749 -0.5420
 9721WAT    EPW39606   3.572   5.761   5.727 -0.6796  0.5438 -0.2515
 9722WAT      O39607   2.701   0.152   3.070  0.3002  0.4911 -0.1636
 9722WAT     H139608   2.715   0.237   3.055 -1.0822  0.7988  0.1509
 9722WAT     H239609   2.688   0.148   3.156 -1.6486  0.3184 -0.4194
 9722WAT    EPW39610   2.701   0.164   3.080 -0.1919  0.5110 -0.1549
 9723WAT      O39611   4.640   6.432   2.307  0.5660  0.5009 -0.1946
 9723WAT     H139612   4.720   6.448   2.338  0.1444  1.1733  0.5639
 9723WAT     H239613   4.628   6.495   2.247  0.5237  0.5309 -0.1548
 9723WAT    EPW39614   4.650   6.444   2.303  0.4975  0.6047 -0.0766
 9724WAT      O39615   1.365   0.207   2.957 -0.1015 -0.0608  0.1607
 9724WAT     H139616   1.370   0.238   3.038  2.7733 -0.3994  0.2176
 9724WAT     H239617   1.319   0.134   2.966 -3.8236  2.0936  0.6118
 9724WAT    EPW39618   1.359   0.201   2.970 -0.2267  0.2074  0.2357
 9725WAT      O39619   3.024   4.854   2.770  0.0266  0.3711  0.5802
 9725WAT     H139620   2.980   4.896   2.707  1.5019  0.8564 -0.1885
 9725WAT     H239621   3.015   4.770   2.748  0.7280  0.5425 -0.4624
 9725WAT    EPW39622   3.016   4.848   2.757  0.3481  0.4681  0.3126
 9726WAT      O39623   1.274   7.166   6.885  0.7176  0.1178 -0.1841
 9726WAT     H139624   1.322   7.221   6.838 -2.3119  2.1250 -1.2881
 9726WAT     H239625   1.269   7.205   6.963 -1.3790  1.6276 -0.9486
 9726WAT    EPW39626   1.280   7.180   6.890 -0.0396  0.6374 -0.4601
 9727WAT      O39627   4.724   4.451   2.104 -0.4162 -0.6326 -0.1813
 9727WAT     H139628   4.682   4.377   2.084 -2.4607  0.6025 -0.7855
 9727WAT     H239629   4.703   4.505   2.038  0.1821  0.7880  0.7317
 9727WAT    EPW39630   4.714   4.448   2.091 -0.6298 -0.2403 -0.1357
 9728WAT      O39631   0.934   0.496   2.775  0.5487  0.4970  0.5261
 9728WAT     H139632   0.987   0.544   2.725  0.4786  2.0158  1.8077
 9728WAT     H239633   0.985   0.432   2.803  0.7833  0.0523 -0.8562
 9728WAT    EPW39634   0.949   0.494   2.772  0.5730  0.6557  0.5112
 9729WAT      O39635   4.403   1.470   6.862  0.4510 -0.2282  0.5138
 9729WAT     H139636   4.483   1.493   6.890  0.4458 -1.5021  1.6908
 9729WAT     H239637   4.400   1.385   6.877 -0.8516 -0.3453 -0.2892
 9729WAT    EPW39638   4.414   1.461   6.869  0.2578 -0.4337  0.5690
 9730WAT      O39639   6.957   7.139   7.154  0.1048 -0.0859 -0.4043
 9730WAT     H139640   6.901   7.140   7.222 -0.2729  2.1264 -0.6700
 9730WAT     H239641   6.905   7.127   7.085 -0.0666  1.6477 -0.6207
 9730WAT    EPW39642   6.941   7.138   7.154  0.0237  0.4970 -0.4755
 9731WAT      O39643   1.310   7.260   1.759  0.5693  0.3574 -0.2038
 9731WAT     H139644   1.359   7.292   1.823 -0.2806 -1.1296  1.2641
 9731WAT     H239645   1.300   7.328   1.705  0.3171  2.0180  1.8191
 9731WAT    EPW39646   1.316   7.275   1.760  0.4065  0.3831  0.3119
 9732WAT      O39647   3.202   4.612   5.960 -0.3494 -0.2847 -0.0889
 9732WAT     H139648   3.238   4.559   5.900 -0.4795 -2.3145  1.5017
 9732WAT     H239649   3.117   4.589   5.959 -0.6909  0.9058 -0.3027
 9732WAT    EPW39650   3.194   4.600   5.951 -0.4191 -0.4087  0.1145
 9733WAT      O39651   4.098   2.083   0.923 -0.0999 -0.1687 -0.6097
 9733WAT     H139652   4.116   2.085   0.838  0.8241  0.4315 -0.4199
 9733WAT     H239653   4.176   2.071   0.960 -0.5562 -0.8924  0.1373
 9733WAT    EPW39654   4.112   2.082   0.916 -0.0308 -0.1869 -0.4713
 9734WAT      O39655   5.598   5.407   0.689  0.2617 -0.5926 -0.0783
 9734WAT     H139656   5.631   5.339   0.646  0.4079 -1.4134  1.2720
 9734WAT     H239657   5.668   5.448   0.719  0.1325 -0.7331  0.4194
 9734WAT    EPW39658   5.613   5.403   0.687  0.2642 -0.7346  0.1947
 9735WAT      O39659   5.767   1.393   5.944  0.0655  0.5207 -0.3744
 9735WAT     H139660   5.816   1.379   5.873 -0.8463 -2.2654 -0.5427
 9735WAT     H239661   5.688   1.364   5.922 -1.7006  4.3266  0.1038
 9735WAT    EPW39662   5.763   1.387   5.930 -0.3301  0.6714 -0.3286
 9736WAT      O39663   0.895   5.660   3.040 -0.2789 -0.1322  0.1661
 9736WAT     H139664   0.941   5.668   2.967 -0.3752 -0.2402  0.0935
 9736WAT     H239665   0.955   5.635   3.099 -0.4843 -1.7112 -0.2435
 9736WAT    EPW39666   0.911   5.657   3.038 -0.3235 -0.3814  0.0948
 9737WAT      O39667   0.691   0.660   2.339  0.1696 -0.1235 -0.3653
 9737WAT     H139668   0.661   0.579   2.343 -0.7669  0.1142 -2.0624
 9737WAT     H239669   0.705   0.680   2.423 -1.2704 -1.4037  0.2312
 9737WAT    EPW39670   0.689   0.651   2.352 -0.1814 -0.2775 -0.5279
 9738WAT      O39671   0.086   4.958   4.559 -0.1183  0.4394  0.0978
 9738WAT     H139672   0.042   4.984   4.489 -1.5199  0.7357  1.0603
 9738WAT     H239673   0.107   5.032   4.599 -1.1370  0.2422  1.0539
 9738WAT    EPW39674   0.083   4.972   4.554 -0.4758  0.4541  0.3812
 9739WAT      O39675   2.554   0.029   0.952  0.1766 -0.3406  0.7599
 9739WAT     H139676   2.572   0.094   0.898  1.6732 -0.3237  1.2437
 9739WAT     H239677   2.504   0.066   1.013  0.3295  0.1572  0.5849
 9739WAT    EPW39678   2.549   0.044   0.953  0.4203 -0.2645  0.8055
 9740WAT      O39679   7.180   3.070   2.872  0.4287 -0.2342  0.1332
 9740WAT     H139680   7.146   3.130   2.818  1.7665 -0.0784 -0.5751
 9740WAT     H239681   7.260   3.099   2.887  0.2564 -0.5447  1.8490
 9740WAT    EPW39682   7.187   3.083   2.866  0.6009 -0.2571  0.2820
 9741WAT      O39683   6.276   1.278   2.945  0.3733  0.3406  0.2902
 9741WAT     H139684   6.274   1.237   3.022  0.4990  1.0354  0.6697
 9741WAT     H239685   6.203   1.326   2.945  0.2957  0.2261 -0.0890
 9741WAT    EPW39686   6.265   1.279   2.956  0.3804  0.4263  0.2902
 9742WAT      O39687   5.336   0.939   3.520  0.5993  0.4352 -0.3100
 9742WAT     H139688   5.302   0.947   3.440  0.1501  0.1414 -0.1482
 9742WAT     H239689   5.278   0.889   3.563  2.3749 -2.1626 -0.7237
 9742WAT    EPW39690   5.322   0.933   3.515  0.7952  0.0081 -0.3472
 9743WAT      O39691   4.083   4.888   4.478  0.2071 -0.3570  0.6317
 9743WAT     H139692   4.081   4.916   4.561 -0.8991 -0.4401  0.6471
 9743WAT     H239693   4.104   4.804   4.486 -0.6440 -0.5567  0.8995
 9743WAT    EPW39694   4.086   4.880   4.491 -0.0820 -0.3988  0.6735
 9744WAT      O39695   2.172   7.261   3.759 -0.0596 -0.5677 -0.3107
 9744WAT     H139696   2.112   7.203   3.783  0.7413 -1.2501  0.1005
 9744WAT     H239697   2.235   7.251   3.819  0.0175  0.8630 -0.1223
 9744WAT    EPW39698   2.172   7.251   3.772  0.0701 -0.4572 -0.2222
 9745WAT      O39699   3.493   5.278   5.924 -0.6683 -0.2782 -0.0570
 9745WAT     H139700   3.471   5.219   5.985  0.5507 -0.8782 -0.1593
 9745WAT     H239701   3.482   5.234   5.850 -3.9769  1.0213 -0.5067
 9745WAT    EPW39702   3.488   5.263   5.922 -0.9770 -0.1748 -0.1386
 9746WAT      O39703   5.833   6.401   6.561  0.1829  0.2700  0.1223
 9746WAT     H139704   5.913   6.419   6.591 -0.2054 -0.3880  1.6555
 9746WAT     H239705   5.795   6.479   6.555 -0.3758  0.4020  3.4420
 9746WAT    EPW39706   5.839   6.415   6.564  0.0430  0.1923  0.8392
 9747WAT      O39707   1.853   2.858   0.779  0.0059 -0.1381  0.3739
 9747WAT     H139708   1.877   2.878   0.697 -1.4822  0.2044 -0.0145
 9747WAT     H239709   1.888   2.780   0.792  0.7350  0.0467 -0.3866
 9747WAT    EPW39710   1.862   2.850   0.769 -0.1062 -0.0602  0.2042
 9748WAT      O39711   0.979   3.659   7.140 -0.2410  0.2093 -0.1069
 9748WAT     H139712   1.030   3.655   7.210  0.3551  0.2218 -0.5321
 9748WAT     H239713   1.035   3.666   7.073 -0.7697 -0.3529 -0.6331
 9748WAT    EPW39714   0.995   3.659   7.140 -0.2310  0.1281 -0.2475
 9749WAT      O39715   0.522   4.871   1.691  0.0611  0.4339 -0.7013
 9749WAT     H139716   0.463   4.817   1.655 -0.4839 -0.4564  1.3564
 9749WAT     H239717   0.475   4.917   1.748  0.9558  1.4432 -0.7534
 9749WAT    EPW39718   0.506   4.869   1.694  0.1127  0.4515 -0.4050
 9750WAT      O39719   1.085   1.894   3.696  0.6527  0.0342  0.3798
 9750WAT     H139720   1.090   1.832   3.636  1.1988  0.3739  0.0656
 9750WAT     H239721   1.003   1.924   3.689 -0.2120 -1.8154  1.7287
 9750WAT    EPW39722   1.074   1.889   3.686  0.6057 -0.1888  0.5326
 9751WAT      O39723   2.267   2.793   6.803 -0.1798 -0.7981 -0.2189
 9751WAT     H139724   2.285   2.760   6.882  0.8214 -1.1783 -0.5868
 9751WAT     H239725   2.201   2.849   6.818 -1.4176 -2.3691  0.5659
 9751WAT    EPW39726   2.260   2.796   6.817 -0.2148 -1.0863 -0.1573
 9752WAT      O39727   0.515   0.549   5.534  0.3700 -0.2454 -0.7909
 9752WAT     H139728   0.450   0.574   5.586  1.2729  0.1496  0.2085
 9752WAT     H239729   0.480   0.486   5.485 -0.5742 -0.5201  0.1953
 9752WAT    EPW39730   0.500   0.544   5.535  0.3639 -0.2276 -0.4976
 9753WAT      O39731   4.827   5.644   4.346  0.0762  0.1866  0.0981
 9753WAT     H139732   4.761   5.611   4.299  1.3665  0.4401 -1.9977
 9753WAT     H239733   4.808   5.730   4.350 -0.2797  0.0960  0.5034
 9753WAT    EPW39734   4.814   5.652   4.340  0.2142  0.2107 -0.1517
 9754WAT      O39735   1.747   4.798   1.109  1.1701 -0.0689 -0.6617
 9754WAT     H139736   1.811   4.782   1.052  1.7899 -1.6559  0.4465
 9754WAT     H239737   1.691   4.732   1.097  0.8064  0.1309 -0.1228
 9754WAT    EPW39738   1.748   4.786   1.099  1.2080 -0.2738 -0.4184
 9755WAT      O39739   1.078   2.557   7.045  0.8945 -0.2646 -0.3004
 9755WAT     H139740   0.999   2.577   7.075  0.0752 -2.3857 -0.9204
 9755WAT     H239741   1.103   2.630   7.004 -0.6844  0.4648 -0.0412
 9755WAT    EPW39742   1.070   2.571   7.043  0.5403 -0.4702 -0.3537
 9756WAT      O39743   0.085   0.667   1.871 -0.2012 -1.1460  0.0600
 9756WAT     H139744   0.099   0.744   1.910 -1.9699 -0.9208  0.3378
 9756WAT     H239745   0.163   0.646   1.838  0.8376 -0.2980  1.8437
 9756WAT    EPW39746   0.099   0.675   1.872 -0.3090 -0.9875  0.3645
 9757WAT      O39747   2.019   7.031   1.379  0.1366  0.2538 -0.9410
 9757WAT     H139748   2.040   7.060   1.300 -3.5063  0.2934 -2.0467
 9757WAT     H239749   1.934   7.045   1.385 -0.4578 -3.0575  1.5662
 9757WAT    EPW39750   2.010   7.037   1.368 -0.4894 -0.2295 -0.7340
 9758WAT      O39751   4.778   1.849   1.425  0.6744 -0.5255 -0.2161
 9758WAT     H139752   4.811   1.793   1.483  1.1735  0.6142  0.6486
 9758WAT     H239753   4.836   1.915   1.425 -0.8587  0.8885  0.2806
 9758WAT    EPW39754   4.791   1.850   1.434  0.5217 -0.1483 -0.0150
 9759WAT      O39755   4.740   3.791   3.805  0.3788  0.2498  0.1145
 9759WAT     H139756   4.666   3.803   3.850 -0.5354 -0.9574 -1.0060
 9759WAT     H239757   4.771   3.715   3.835  1.5527  1.0449  1.0331
 9759WAT    EPW39758   4.734   3.782   3.816  0.4172  0.1889  0.0847
 9760WAT      O39759   3.745   1.267   3.566 -0.4660 -0.0213 -0.4514
 9760WAT     H139760   3.772   1.224   3.638  0.5538 -0.0464 -0.8418
 9760WAT     H239761   3.786   1.226   3.501 -0.1746  0.9911 -0.9186
 9760WAT    EPW39762   3.755   1.254   3.567 -0.2723  0.1246 -0.5781
 9761WAT      O39763   4.379   0.969   1.230  0.2192 -0.3819 -0.7982
 9761WAT     H139764   4.296   0.948   1.212 -0.1365 -2.4228  2.4474
 9761WAT     H239765   4.418   0.892   1.239  1.7797  0.4977  0.4377
 9761WAT    EPW39766   4.372   0.954   1.229  0.3972 -0.5534 -0.1362
 9762WAT      O39767   3.230   7.074   6.448 -0.0493 -0.3327 -0.4011
 9762WAT     H139768   3.293   7.120   6.486 -0.9981  0.6069  0.0953
 9762WAT     H239769   3.222   7.110   6.369 -0.6519  0.2578 -0.0864
 9762WAT    EPW39770   3.238   7.086   6.442 -0.2785 -0.1067 -0.2813
 9763WAT      O39771   1.538   5.393   4.639 -0.0917 -0.2753 -0.1912
 9763WAT     H139772   1.466   5.442   4.636 -0.9262 -1.4640 -0.2398
 9763WAT     H239773   1.551   5.382   4.724 -0.6687 -1.0370 -0.1938
 9763WAT    EPW39774   1.529   5.399   4.651 -0.3002 -0.5634 -0.1987
 9764WAT      O39775   6.067   1.463   3.742 -0.4233 -0.3118  0.2831
 9764WAT     H139776   6.024   1.496   3.810 -0.7096 -0.6317  0.2564
 9764WAT     H239777   6.092   1.384   3.768  0.2722 -0.0776  0.3470
 9764WAT    EPW39778   6.064   1.456   3.756 -0.3629 -0.3245  0.2886
 9765WAT      O39779   1.345   6.592   2.438  0.1777 -0.4574 -0.0082
 9765WAT     H139780   1.370   6.606   2.521  0.9476 -1.5214 -0.0521
 9765WAT     H239781   1.382   6.516   2.417 -1.3888 -1.0612 -0.7786
 9765WAT    EPW39782   1.354   6.583   2.447  0.0600 -0.7037 -0.1285
 9766WAT      O39783   0.464   1.356   4.850 -0.0833  0.2865 -0.0620
 9766WAT     H139784   0.409   1.324   4.792  0.7110  0.5663 -0.9973
 9766WAT     H239785   0.526   1.295   4.857 -0.6080 -0.1497  1.1809
 9766WAT    EPW39786   0.465   1.342   4.843 -0.0435  0.2634 -0.0166
 9767WAT      O39787   5.983   3.440   0.784 -0.5650 -0.0086  0.2210
 9767WAT     H139788   5.913   3.470   0.827  0.8689  2.1338  1.2301
 9767WAT     H239789   6.033   3.406   0.847 -0.3571 -0.8940 -0.3968
 9767WAT    EPW39790   5.980   3.439   0.800 -0.3225  0.1771  0.2788
 9768WAT      O39791   1.550   0.181   5.425  0.4068 -0.0108  0.1084
 9768WAT     H139792   1.633   0.160   5.407  0.7177  0.5123  0.9110
 9768WAT     H239793   1.554   0.265   5.448 -0.2036 -0.2368  1.0909
 9768WAT    EPW39794   1.563   0.190   5.425  0.3626  0.0331  0.3721
 9769WAT      O39795   2.661   6.877   0.748 -0.6282  0.0668 -0.2079
 9769WAT     H139796   2.627   6.868   0.668  0.2276 -1.6770 -0.4171
 9769WAT     H239797   2.652   6.798   0.783  0.2982  0.4229  0.9036
 9769WAT    EPW39798   2.655   6.864   0.741 -0.3649 -0.1382 -0.0746
 9770WAT      O39799   6.748   6.755   4.156 -0.2876 -0.3565  0.4283
 9770WAT     H139800   6.672   6.722   4.184 -0.4465  0.1979  0.6701
 9770WAT     H239801   6.786   6.783   4.229  0.5287 -1.3690  0.4087
 9770WAT    EPW39802   6.742   6.755   4.171 -0.1905 -0.4242  0.4611
 9771WAT      O39803   2.057   7.014   3.220  0.2022 -0.1725  0.1009
 9771WAT     H139804   2.127   6.974   3.186 -1.1909 -0.3308 -2.9562
 9771WAT     H239805   2.081   7.098   3.223  0.3994 -0.1400 -1.4681
 9771WAT    EPW39806   2.071   7.021   3.215  0.0255 -0.1911 -0.5825
 9772WAT      O39807   0.420   2.509   6.772 -0.0422 -0.2068  0.0605
 9772WAT     H139808   0.354   2.516   6.716 -0.5897  0.5427  0.7898
 9772WAT     H239809   0.383   2.517   6.850  1.0291  1.3633  0.4615
 9772WAT    EPW39810   0.405   2.511   6.776  0.0351  0.1358  0.2274
 9773WAT      O39811   1.356   6.781   2.876  0.0041 -0.1552  0.1790
 9773WAT     H139812   1.329   6.845   2.823  1.7479  0.4275 -0.0654
 9773WAT     H239813   1.408   6.822   2.932  0.4668 -1.2346  0.5649
 9773WAT    EPW39814   1.360   6.796   2.876  0.3300 -0.2286  0.1999
 9774WAT      O39815   2.681   2.759   0.420  0.0563 -0.0081  0.1144
 9774WAT     H139816   2.713   2.840   0.418 -0.9620  0.4172  0.3701
 9774WAT     H239817   2.711   2.727   0.496 -1.5650  1.0307  1.2598
 9774WAT    EPW39818   2.690   2.766   0.431 -0.3336  0.2082  0.3214
 9775WAT      O39819   1.597   1.276   3.939  0.4077 -0.3136  0.4049
 9775WAT     H139820   1.669   1.306   3.901  0.1178  0.8964  0.7698
 9775WAT     H239821   1.536   1.283   3.877  0.6463 -1.6516 -0.0140
 9775WAT    EPW39822   1.599   1.281   3.925  0.4001 -0.3325  0.3969
 9776WAT      O39823   5.314   1.307   5.295 -0.1207 -0.2141  0.7305
 9776WAT     H139824   5.383   1.361   5.296  0.2007 -0.5324  3.1625
 9776WAT     H239825   5.248   1.358   5.323 -0.7638 -0.0854 -0.9197
 9776WAT    EPW39826   5.314   1.323   5.299 -0.1682 -0.2421  0.8460
 9777WAT      O39827   0.941   5.517   4.742  0.4759  0.0700  0.8204
 9777WAT     H139828   0.922   5.519   4.827 -0.8773 -3.1477  0.7325
 9777WAT     H239829   0.958   5.433   4.726  2.2511  0.7771 -1.8408
 9777WAT    EPW39830   0.941   5.505   4.752  0.5382 -0.3009  0.4143
 9778WAT      O39831   1.449   5.304   1.624  0.1644  0.0327 -0.2744
 9778WAT     H139832   1.370   5.272   1.643 -0.8491  1.0640 -2.3575
 9778WAT     H239833   1.445   5.386   1.654  1.0856 -0.3578  1.0189
 9778WAT    EPW39834   1.436   5.311   1.631  0.1508  0.1274 -0.3911
 9779WAT      O39835   1.471   6.215   6.948  0.5092 -0.7056 -0.4528
 9779WAT     H139836   1.425   6.245   7.016 -0.7451 -0.3593 -1.4167
 9779WAT     H239837   1.450   6.130   6.945  0.3741 -0.6687 -0.5531
 9779WAT    EPW39838   1.461   6.207   6.958  0.3040 -0.6490 -0.6100
 9780WAT      O39839   5.186   6.894   0.673  0.0329 -0.0724 -0.7214
 9780WAT     H139840   5.202   6.904   0.758 -1.4999 -1.3808 -0.2101
 9780WAT     H239841   5.240   6.829   0.649 -1.7347 -1.9884  0.1208
 9780WAT    EPW39842   5.196   6.886   0.682 -0.4546 -0.5487 -0.5215
 9781WAT      O39843   6.467   6.887   5.015  0.3066 -0.2203  0.2374
 9781WAT     H139844   6.442   6.970   5.021  0.5450 -0.2362  1.9328
 9781WAT     H239845   6.541   6.884   5.061 -0.0399 -1.5009  0.7708
 9781WAT    EPW39846   6.475   6.899   5.023  0.2907 -0.4118  0.5666
 9782WAT      O39847   2.841   3.688   6.844 -0.7501 -0.4323  0.0401
 9782WAT     H139848   2.862   3.611   6.808  0.9586  0.8072 -1.8722
 9782WAT     H239849   2.813   3.735   6.776  3.7030  2.4161 -0.2860
 9782WAT    EPW39850   2.840   3.683   6.828  0.1602  0.1715 -0.2906
 9783WAT      O39851   3.837   3.778   0.042 -0.7100 -0.4207 -0.0665
 9783WAT     H139852   3.831   3.707  -0.007  0.0054  0.0614 -0.8834
 9783WAT     H239853   3.757   3.789   0.073 -0.4536 -2.6160  1.5936
 9783WAT    EPW39854   3.825   3.769   0.039 -0.5665 -0.6737  0.0580
 9784WAT      O39855   0.783   0.690   3.718 -0.1324  0.2610 -0.6002
 9784WAT     H139856   0.751   0.768   3.697  1.1763  1.2956  1.0249
 9784WAT     H239857   0.846   0.708   3.776 -0.8516 -2.0872  1.0593
 9784WAT    EPW39858   0.788   0.704   3.724 -0.0453  0.0669 -0.1150
 9785WAT      O39859   2.934   5.801   3.096  0.2387  0.2899 -0.0032
 9785WAT     H139860   3.010   5.794   3.054  0.6318  0.3155  0.6931
 9785WAT     H239861   2.957   5.816   3.179 -0.5135 -0.2729  0.3237
 9785WAT    EPW39862   2.948   5.802   3.102  0.1857  0.2105  0.1480
 9786WAT      O39863   7.256   4.560   1.935 -0.0656  0.2360 -0.5487
 9786WAT     H139864   7.194   4.517   1.979 -0.6210  0.7882 -0.7675
 9786WAT     H239865   7.221   4.639   1.923  0.8842  0.7085 -0.2705
 9786WAT    EPW39866   7.241   4.565   1.939 -0.0073  0.3874 -0.5399
 9787WAT      O39867   3.030   2.835   0.675 -0.3138 -0.2251 -0.3823
 9787WAT     H139868   3.056   2.849   0.757 -0.5920  0.5614 -0.4189
 9787WAT     H239869   3.099   2.857   0.627 -0.9017  1.6244 -0.4664
 9787WAT    EPW39870   3.044   2.840   0.680 -0.4417  0.1643 -0.4002
 9788WAT      O39871   3.973   2.866   1.239  0.1121 -0.4183 -0.4446
 9788WAT     H139872   3.991   2.845   1.322 -0.8255  0.4804  0.0102
 9788WAT     H239873   3.889   2.890   1.242 -0.0233 -0.6962 -1.7260
 9788WAT    EPW39874   3.963   2.866   1.252 -0.0464 -0.3266 -0.5667
 9789WAT      O39875   7.181   6.777   6.288  0.0138  0.2103  0.3618
 9789WAT     H139876   7.141   6.724   6.233  0.3130  0.2883  0.0628
 9789WAT     H239877   7.262   6.746   6.292  0.6201  1.4736 -0.9644
 9789WAT    EPW39878   7.187   6.765   6.281  0.1475  0.4084  0.1217
 9790WAT      O39879   5.305   2.535   5.942  0.3781  0.3644  0.0625
 9790WAT     H139880   5.246   2.562   5.884 -0.6141  1.5785  1.5513
 9790WAT     H239881   5.264   2.471   5.984  1.0392 -0.4120 -0.4447
 9790WAT    EPW39882   5.290   2.530   5.940  0.3292  0.4291  0.2075
 9791WAT      O39883   3.666   3.220   0.621  0.0307  0.1671 -0.6423
 9791WAT     H139884   3.628   3.198   0.696 -0.1248 -0.5742 -0.9252
 9791WAT     H239885   3.600   3.226   0.565  0.0874  1.2468 -0.6160
 9791WAT    EPW39886   3.651   3.217   0.624  0.0161  0.2171 -0.6802
 9792WAT      O39887   0.191   6.229   5.313 -0.3385 -0.0000  0.1549
 9792WAT     H139888   0.226   6.269   5.382  1.6919 -0.6580 -0.4142
 9792WAT     H239889   0.164   6.153   5.345 -1.8335  0.7160  0.7056
 9792WAT    EPW39890   0.192   6.224   5.328 -0.2595  0.0086  0.1522
 9793WAT      O39891   2.090   4.250   3.541 -0.7777 -0.3213 -0.1745
 9793WAT     H139892   2.161   4.236   3.590 -0.6302 -1.4314 -0.6827
 9793WAT     H239893   2.123   4.261   3.461 -1.1880 -1.3228 -0.4979
 9793WAT    EPW39894   2.106   4.250   3.537 -0.8165 -0.6332 -0.2973
 9794WAT      O39895   5.994   6.370   3.762 -0.3196  0.2452  0.3517
 9794WAT     H139896   5.909   6.362   3.779 -0.9562  2.2015 -1.4070
 9794WAT     H239897   6.026   6.408   3.833 -1.0461  0.0830  0.7729
 9794WAT    EPW39898   5.986   6.375   3.775 -0.5210  0.5102  0.1542
 9795WAT      O39899   4.828   4.549   3.849  0.0216 -0.4683 -0.7440
 9795WAT     H139900   4.811   4.469   3.879 -1.0071 -1.0050 -2.5581
 9795WAT     H239901   4.751   4.589   3.851  0.1959 -0.0781 -1.3439
 9795WAT    EPW39902   4.814   4.543   3.854 -0.1046 -0.4899 -1.1006
 9796WAT      O39903   0.725   5.241   4.070 -0.5615 -0.6432 -0.1651
 9796WAT     H139904   0.709   5.167   4.113 -1.2688  0.1394  0.9965
 9796WAT     H239905   0.649   5.284   4.075  0.2370  0.7721  0.4866
 9796WAT    EPW39906   0.711   5.236   4.077 -0.5480 -0.3185  0.1028
 9797WAT      O39907   3.641   4.816   1.846 -0.0998 -0.5168  0.3479
 9797WAT     H139908   3.710   4.761   1.851 -0.5444 -1.0330  0.9156
 9797WAT     H239909   3.662   4.868   1.780  1.1549 -0.2315  0.9454
 9797WAT    EPW39910   3.655   4.815   1.837  0.0199 -0.5509  0.5200
 9798WAT      O39911   7.035   1.402   0.137 -0.0167 -0.2329  0.7440
 9798WAT     H139912   7.085   1.347   0.183 -0.4540 -0.3003  1.1439
 9798WAT     H239913   6.958   1.398   0.177 -0.2220  0.2098  0.4005
 9798WAT    EPW39914   7.031   1.393   0.149 -0.1116 -0.1775  0.7523
 9799WAT      O39915   4.332   6.294   5.338 -0.5141  0.3815 -0.6163
 9799WAT     H139916   4.346   6.230   5.281  0.9005 -0.7907  0.9491
 9799WAT     H239917   4.380   6.360   5.306 -0.9357  0.2488 -1.5546
 9799WAT    EPW39918   4.341   6.294   5.325 -0.3674  0.1887 -0.5237
 9800WAT      O39919   5.936   6.534   5.725  0.0248  0.4231 -0.1800
 9800WAT     H139920   6.007   6.529   5.775 -0.8315 -1.5515  0.9102
 9800WAT     H239921   5.951   6.475   5.663 -0.7156 -0.0844  0.1234
 9800WAT    EPW39922   5.949   6.525   5.723 -0.2110  0.0564  0.0259
 9801WAT      O39923   5.486   1.572   0.307  0.2638  0.2807  0.3576
 9801WAT     H139924   5.439   1.633   0.266 -0.2517 -1.3169 -1.6088
 9801WAT     H239925   5.445   1.561   0.383  0.8858  2.9258  1.1742
 9801WAT    EPW39926   5.473   1.580   0.312  0.2796  0.4354  0.1878
 9802WAT      O39927   6.866   3.565   3.790  0.0335  0.5752  0.2134
 9802WAT     H139928   6.887   3.641   3.754  0.3174  0.6059  0.4386
 9802WAT     H239929   6.778   3.565   3.788  0.0394  0.7760 -0.0551
 9802WAT    EPW39930   6.856   3.576   3.784  0.0763  0.6094  0.2070
 9803WAT      O39931   0.844   6.004   3.746 -0.6058  0.3172 -0.0500
 9803WAT     H139932   0.818   6.013   3.829  0.9758 -0.7548  0.6010
 9803WAT     H239933   0.866   5.920   3.740 -1.4672  0.1685 -1.8263
 9803WAT    EPW39934   0.843   5.993   3.757 -0.4994  0.1369 -0.2162
 9804WAT      O39935   1.679   1.277   0.181  0.2272 -0.0824  0.9973
 9804WAT     H139936   1.749   1.273   0.233  0.2857 -1.6860  0.8457
 9804WAT     H239937   1.645   1.197   0.186  0.3351 -0.3628 -1.5456
 9804WAT    EPW39938   1.685   1.264   0.189  0.2518 -0.3607  0.5993
 9805WAT      O39939   1.614   1.965   1.934  0.8123 -0.0685  0.7181
 9805WAT     H139940   1.556   2.008   1.886 -0.5884 -1.9021  0.6449
 9805WAT     H239941   1.683   2.019   1.937  0.3425  0.8336 -1.9224
 9805WAT    EPW39942   1.616   1.979   1.927  0.5360 -0.2061  0.3172
 9806WAT      O39943   7.195   7.117   2.521  0.0484  0.3057 -0.2391
 9806WAT     H139944   7.128   7.066   2.542 -1.1017  1.1330 -1.7060
 9806WAT     H239945   7.233   7.075   2.454 -0.8930  1.2811 -1.4416
 9806WAT    EPW39946   7.191   7.103   2.514 -0.2606  0.5720 -0.6334
 9807WAT      O39947   5.788   1.372   4.993 -0.2873  0.4292  0.0558
 9807WAT     H139948   5.707   1.363   4.961 -0.2231  1.4176 -0.4032
 9807WAT     H239949   5.789   1.452   5.026  0.2170  0.0718  0.9530
 9807WAT    EPW39950   5.776   1.382   4.993 -0.2033  0.5224  0.1205
 9808WAT      O39951   6.911   5.708   3.161  0.0181 -0.1679 -0.1435
 9808WAT     H139952   6.993   5.708   3.134  0.1356 -0.7616  0.2004
 9808WAT     H239953   6.909   5.771   3.221  0.4106 -0.6528  0.3877
 9808WAT    EPW39954   6.923   5.717   3.166  0.0934 -0.3272 -0.0142
 9809WAT      O39955   6.934   0.770   4.611  0.1932  0.3861 -0.0637
 9809WAT     H139956   6.909   0.688   4.627  0.4955 -0.2183 -2.3459
 9809WAT     H239957   6.859   0.814   4.604  0.0245  0.2792  0.8817
 9809WAT    EPW39958   6.919   0.764   4.612  0.2130  0.2810 -0.2612
 9810WAT      O39959   4.834   0.894   3.724  0.2215 -0.2296  0.0992
 9810WAT     H139960   4.807   0.823   3.767  1.8352 -0.7374  0.3562
 9810WAT     H239961   4.853   0.950   3.788  0.7786 -0.2846 -0.0087
 9810WAT    EPW39962   4.833   0.892   3.740  0.5422 -0.3127  0.1212
 9811WAT      O39963   1.227   1.214   4.735  0.4002  0.2251  0.3343
 9811WAT     H139964   1.261   1.153   4.786 -0.8186 -0.7793  0.0041
 9811WAT     H239965   1.270   1.205   4.659  0.3207 -0.1396  0.3319
 9811WAT    EPW39966   1.238   1.204   4.731  0.2084  0.0229  0.2852
 9812WAT      O39967   1.558   3.350   0.846 -0.2089 -0.0167 -0.1206
 9812WAT     H139968   1.498   3.311   0.896 -0.0588 -0.0842  0.0073
 9812WAT     H239969   1.522   3.427   0.826  0.6755  1.0654  2.0602
 9812WAT    EPW39970   1.544   3.356   0.850 -0.0561  0.1332  0.2205
 9813WAT      O39971   3.207   1.563   1.102 -0.0707 -0.0149 -0.4828
 9813WAT     H139972   3.240   1.642   1.082 -0.0953  0.2776  0.5562
 9813WAT     H239973   3.172   1.575   1.181  0.8018 -1.3196  0.1324
 9813WAT    EPW39974   3.207   1.577   1.111  0.0546 -0.1644 -0.2384
 9814WAT      O39975   0.638   6.112   3.560 -0.2621 -0.0479  0.6972
 9814WAT     H139976   0.572   6.055   3.568 -1.4312  1.2845  0.9697
 9814WAT     H239977   0.700   6.080   3.611 -0.2025 -1.9977 -0.5046
 9814WAT    EPW39978   0.637   6.099   3.568 -0.4260 -0.1391  0.5599
 9815WAT      O39979   5.780   0.576   5.562 -0.3805 -0.0002 -0.0997
 9815WAT     H139980   5.732   0.577   5.634 -1.7131  1.3766 -0.9519
 9815WAT     H239981   5.861   0.594   5.590 -0.7602 -0.1179  1.0991
 9815WAT    EPW39982   5.785   0.579   5.577 -0.6335  0.1858 -0.0485
 9816WAT      O39983   2.921   3.967   3.728  0.4156 -0.0076  0.6558
 9816WAT     H139984   2.854   3.912   3.719  1.0501 -0.9997  1.6890
 9816WAT     H239985   2.970   3.953   3.657 -0.2639  0.4708  0.0726
 9816WAT    EPW39986   2.918   3.957   3.716  0.4090 -0.0835  0.7223
 9817WAT      O39987   4.491   0.168   5.304 -0.0994  0.1507  0.5064
 9817WAT     H139988   4.416   0.140   5.270  0.8976 -1.4605 -0.4758
 9817WAT     H239989   4.537   0.196   5.235  0.6585 -0.0104  0.9266
 9817WAT    EPW39990   4.487   0.168   5.289  0.1599 -0.1111  0.4234
 9818WAT      O39991   3.888   2.775   6.083 -0.0969 -0.1249 -0.2386
 9818WAT     H139992   3.893   2.787   5.996  1.4704  1.5841  0.0208
 9818WAT     H239993   3.860   2.852   6.112  1.3135 -0.0146  0.9047
 9818WAT    EPW39994   3.885   2.788   6.074  0.3430  0.1438 -0.0314
 9819WAT      O39995   6.806   1.660   4.855 -0.1702  0.1361 -0.2598
 9819WAT     H139996   6.728   1.628   4.834  0.0422 -0.9304  0.5077
 9819WAT     H239997   6.861   1.594   4.838  0.6233  0.9573 -1.0462
 9819WAT    EPW39998   6.802   1.646   4.849 -0.0216  0.0999 -0.2626
 9820WAT      O39999   7.240   6.559   2.572 -0.3199  0.1418 -0.0333
 9820WAT     H140000   7.320   6.591   2.563 -0.4700  0.2110 -1.2179
 9820WAT     H240001   7.224   6.567   2.658 -0.0283  2.4675 -0.1535
 9820WAT    EPW40002   7.249   6.565   2.583 -0.2990  0.4956 -0.2261
 9821WAT      O40003   1.584   3.050   3.424  0.1520 -0.0961 -0.4088
 9821WAT     H140004   1.511   3.094   3.407  0.3460  0.4963  0.2392
 9821WAT     H240005   1.558   2.966   3.423 -0.6162  0.1248  0.2015
 9821WAT    EPW40006   1.570   3.044   3.421  0.0672  0.0240 -0.2229
 9822WAT      O40007   3.205   5.726   1.470  0.1232 -0.0480  0.0917
 9822WAT     H140008   3.162   5.650   1.469  0.8462 -0.4655 -0.4450
 9822WAT     H240009   3.169   5.771   1.404 -0.5992  0.2551  0.6807
 9822WAT    EPW40010   3.193   5.722   1.460  0.1233 -0.0649  0.0994
 9823WAT      O40011   4.388   3.180   5.673  0.7152 -0.2259 -0.5120
 9823WAT     H140012   4.359   3.160   5.753  2.1196  0.6343  0.2621
 9823WAT     H240013   4.315   3.180   5.624  0.0287 -2.3118  0.3936
 9823WAT    EPW40014   4.373   3.177   5.677  0.8212 -0.4069 -0.2638
 9824WAT      O40015   3.639   0.898   1.535 -0.1053 -0.8049  0.6040
 9824WAT     H140016   3.687   0.970   1.542  2.1581 -2.1926  0.6183
 9824WAT     H240017   3.594   0.895   1.610 -1.6813  1.4431 -0.1462
 9824WAT    EPW40018   3.639   0.908   1.547 -0.0037 -0.6778  0.4953
 9825WAT      O40019   2.307   6.758   6.337 -0.0475 -0.1581 -0.0644
 9825WAT     H140020   2.278   6.839   6.353  1.2134  0.0725  1.1861
 9825WAT     H240021   2.264   6.736   6.264 -1.4783  1.0830  0.3424
 9825WAT    EPW40022   2.296   6.767   6.328 -0.0726  0.0593  0.1804
 9826WAT      O40023   2.400   3.768   0.345 -0.3863  0.3017  0.6550
 9826WAT     H140024   2.406   3.726   0.421  1.8229  1.2195  1.0755
 9826WAT     H240025   2.466   3.736   0.298 -1.2643  0.2839 -0.6233
 9826WAT    EPW40026   2.411   3.757   0.349 -0.1896  0.4346  0.5283
 9827WAT      O40027   2.201   1.066   0.965  0.0544 -0.3616  0.7091
 9827WAT     H140028   2.245   1.142   0.968 -1.9531  0.9408 -0.5494
 9827WAT     H240029   2.245   1.015   1.021  1.6707  1.6180  1.3770
 9827WAT    EPW40030   2.214   1.070   0.974 -0.0034  0.1232  0.6218
 9828WAT      O40031   3.018   0.528   4.045  0.3899  0.1901  0.0887
 9828WAT     H140032   3.000   0.567   4.120  1.6131  1.1279 -0.0707
 9828WAT     H240033   2.941   0.499   4.017 -0.0958 -0.1100  1.6556
 9828WAT    EPW40034   3.004   0.529   4.052  0.4988  0.2843  0.2966
 9829WAT      O40035   6.894   2.942   2.883 -0.5160 -0.1702 -0.0942
 9829WAT     H140036   6.874   3.010   2.831 -0.3078  0.7986  1.0362
 9829WAT     H240037   6.957   2.974   2.934  0.1806 -1.5119 -0.1012
 9829WAT    EPW40038   6.900   2.957   2.883 -0.3824 -0.2253  0.0718
 9830WAT      O40039   0.676   6.850   5.586 -0.2756 -0.5016 -0.0518
 9830WAT     H140040   0.654   6.777   5.543  1.2216 -1.8614  1.3678
 9830WAT     H240041   0.707   6.821   5.662  0.3080  1.6310  0.5971
 9830WAT    EPW40042   0.678   6.835   5.591  0.0318 -0.3874  0.2537
 9831WAT      O40043   5.560   4.496   5.147  0.0981  0.5982  0.0569
 9831WAT     H140044   5.547   4.566   5.097  0.9059  0.8120  0.1365
 9831WAT     H240045   5.482   4.482   5.183 -0.5421  0.3372 -1.3687
 9831WAT    EPW40046   5.547   4.504   5.145  0.1229  0.5912 -0.1420
 9832WAT      O40047   6.476   7.071   1.264 -0.1797 -0.2861 -0.4088
 9832WAT     H140048   6.543   7.072   1.209  0.0400  3.7832 -0.3537
 9832WAT     H240049   6.431   7.142   1.243 -1.6546 -0.0671  2.8545
 9832WAT    EPW40050   6.479   7.081   1.253 -0.3651  0.3474  0.0814
 9833WAT      O40051   6.883   1.929   4.926  0.0661  0.1961  0.0225
 9833WAT     H140052   6.843   1.851   4.926 -0.5751  0.3862 -3.2943
 9833WAT     H240053   6.967   1.909   4.936 -0.0412 -0.9970 -1.1913
 9833WAT    EPW40054   6.889   1.914   4.927 -0.0445  0.0480 -0.6468
 9834WAT      O40055   0.913   4.378   4.966 -0.4227 -0.0875  0.9650
 9834WAT     H140056   0.915   4.327   4.895 -1.0873  0.3815  0.5909
 9834WAT     H240057   0.872   4.329   5.025 -2.5503  0.5361  0.1260
 9834WAT    EPW40058   0.907   4.363   4.964 -0.8352  0.0739  0.7858
 9835WAT      O40059   6.101   0.518   2.304  1.1047  0.1231  0.2774
 9835WAT     H140060   6.021   0.548   2.287  0.4822  0.6209  3.4069
 9835WAT     H240061   6.153   0.570   2.258 -0.2515  2.1939  0.9515
 9835WAT    EPW40062   6.096   0.530   2.295  0.8124  0.5025  0.8392
 9836WAT      O40063   6.884   3.739   2.207 -0.0030  0.1257 -0.1967
 9836WAT     H140064   6.814   3.789   2.213  0.8894  1.3030  0.9254
 9836WAT     H240065   6.923   3.766   2.134 -1.1274 -1.1555 -1.3300
 9836WAT    EPW40066   6.880   3.750   2.197 -0.0373  0.1104 -0.1984
 9837WAT      O40067   1.316   4.690   0.979  0.2568 -0.1533  0.1072
 9837WAT     H140068   1.398   4.663   0.992 -0.0370 -0.6079  1.1373
 9837WAT     H240069   1.268   4.620   0.997 -0.3911  0.2525  0.0048
 9837WAT    EPW40070   1.321   4.676   0.984  0.1177 -0.1605  0.2442
 9838WAT      O40071   6.826   0.996   0.350 -0.2189 -0.3665 -0.2765
 9838WAT     H140072   6.847   1.022   0.269  0.8063  0.5159  0.2508
 9838WAT     H240073   6.838   1.068   0.398 -0.6714 -0.9246  0.6881
 9838WAT    EPW40074   6.831   1.011   0.345 -0.1343 -0.3186 -0.0561
 9839WAT      O40075   0.029   3.718   5.407  0.0886  0.1836 -0.2017
 9839WAT     H140076  -0.029   3.667   5.448  0.5766  1.4126  2.2449
 9839WAT     H240077   0.044   3.677   5.332  0.1941 -3.0826  1.4230
 9839WAT    EPW40078   0.022   3.704   5.402  0.1763 -0.1173  0.3997
 9840WAT      O40079   2.918   2.260   4.735  0.3782  0.9165  0.1027
 9840WAT     H140080   2.897   2.344   4.742 -2.2814  0.3318  0.5264
 9840WAT     H240081   2.997   2.261   4.698  0.4466  3.5629  0.1149
 9840WAT    EPW40082   2.926   2.272   4.730 -0.0046  1.2210  0.1671
 9841WAT      O40083   1.614   6.591   3.066  0.0958  0.0820 -0.3321
 9841WAT     H140084   1.651   6.569   2.990  0.6148 -0.4952  0.0788
 9841WAT     H240085   1.633   6.676   3.074  0.5369  0.0085 -0.5792
 9841WAT    EPW40086   1.623   6.600   3.056  0.2376 -0.0141 -0.3079
 9842WAT      O40087   5.648   3.274   6.863 -0.5857  0.3183  0.2376
 9842WAT     H140088   5.575   3.309   6.896 -0.4053  0.4978  0.4561
 9842WAT     H240089   5.662   3.205   6.914 -1.1156 -0.2588 -0.3934
 9842WAT    EPW40090   5.639   3.269   6.876 -0.6374  0.2595  0.1767
 9843WAT      O40091   2.507   1.468   5.859  0.0233 -0.4740 -0.2090
 9843WAT     H140092   2.496   1.459   5.945 -0.8177 -1.6621 -0.4214
 9843WAT     H240093   2.451   1.532   5.838  2.3814  2.0522  0.5234
 9843WAT    EPW40094   2.497   1.476   5.869  0.2474 -0.2764 -0.1322
 9844WAT      O40095   5.351   4.298   0.615  0.0529  0.3253 -0.0052
 9844WAT     H140096   5.402   4.296   0.544 -0.7357  1.0122 -0.6106
 9844WAT     H240097   5.374   4.372   0.655  0.4682 -0.0417  0.4412
 9844WAT    EPW40098   5.362   4.309   0.610 -0.0022  0.3725 -0.0287
 9845WAT      O40099   5.344   6.550   6.204 -0.2298  0.1882  0.0863
 9845WAT     H140100   5.277   6.598   6.175 -0.9002 -0.1047  1.1390
 9845WAT     H240101   5.308   6.473   6.222  0.6369 -0.3782 -0.5312
 9845WAT    EPW40102   5.329   6.546   6.202 -0.2008  0.0612  0.1506
 9846WAT      O40103   4.460   7.244   0.152 -0.2040 -0.5147  0.2900
 9846WAT     H140104   4.516   7.202   0.204  1.8163 -0.2638 -1.5358
 9846WAT     H240105   4.410   7.289   0.208  0.7510 -1.5377  2.0590
 9846WAT    EPW40106   4.461   7.245   0.168  0.2355 -0.6288  0.2816
 9847WAT      O40107   2.842   0.549   1.064  0.3139  0.4354  0.1811
 9847WAT     H140108   2.823   0.626   1.027  0.1987  0.7709  0.9200
 9847WAT     H240109   2.853   0.569   1.148 -1.6060 -0.6347  0.7519
 9847WAT    EPW40110   2.841   0.563   1.071  0.0133  0.3269  0.3746
 9848WAT      O40111   6.690   4.895   6.755 -0.0638 -0.7319 -0.1906
 9848WAT     H140112   6.769   4.931   6.747  0.1531 -1.3852 -1.2882
 9848WAT     H240113   6.636   4.961   6.739  0.2474 -0.2732  0.5921
 9848WAT    EPW40114   6.694   4.910   6.751  0.0142 -0.7606 -0.2371
 9849WAT      O40115   1.664   6.184   5.789  0.0077  0.0059  0.2039
 9849WAT     H140116   1.578   6.193   5.779  0.3012  1.0995 -1.7771
 9849WAT     H240117   1.678   6.211   5.871 -1.5094 -0.2435  0.5798
 9849WAT    EPW40118   1.654   6.189   5.800 -0.1731  0.1306 -0.0332
 9850WAT      O40119   2.578   5.564   2.114  0.2742  0.4235  0.4092
 9850WAT     H140120   2.589   5.636   2.067  2.6921 -0.0916  0.0793
 9850WAT     H240121   2.543   5.508   2.058 -0.3746  0.9198  0.3042
 9850WAT    EPW40122   2.575   5.566   2.099  0.5355  0.4207  0.3450
 9851WAT      O40123   6.646   3.740   6.563  0.2333 -0.2840 -0.3526
 9851WAT     H140124   6.716   3.725   6.612  1.1202 -1.1968 -1.8149
 9851WAT     H240125   6.643   3.671   6.510 -1.5544 -0.0723 -0.5995
 9851WAT    EPW40126   6.656   3.728   6.563  0.1002 -0.3875 -0.6051
 9852WAT      O40127   2.404   1.869   1.957 -0.7203 -0.0973  0.1060
 9852WAT     H140128   2.394   1.806   2.017 -1.5045 -0.8694 -0.7992
 9852WAT     H240129   2.332   1.862   1.908  0.7582 -0.7950 -2.1139
 9852WAT    EPW40130   2.392   1.859   1.959 -0.6177 -0.3144 -0.3557
 9853WAT      O40131   0.355   1.457   0.749 -0.2975  0.1285  0.3206
 9853WAT     H140132   0.304   1.494   0.809 -0.1990  0.4531  0.2069
 9853WAT     H240133   0.381   1.524   0.700  0.3518 -0.0039  0.4646
 9853WAT    EPW40134   0.351   1.472   0.751 -0.1870  0.1569  0.3251
 9854WAT      O40135   0.161   3.868   7.002 -0.2473  0.1590  0.2161
 9854WAT     H140136   0.202   3.936   7.038 -1.2041  0.3444  0.9695
 9854WAT     H240137   0.224   3.808   6.996  0.3132  0.6853  0.6565
 9854WAT    EPW40138   0.176   3.869   7.006 -0.3059  0.2641  0.3925
 9855WAT      O40139   1.348   3.005   6.362  0.2923 -0.6952 -0.0113
 9855WAT     H140140   1.327   2.934   6.317  0.1209 -1.9527  1.9324
 9855WAT     H240141   1.407   2.977   6.420  0.4923  0.8204  0.5817
 9855WAT    EPW40142   1.354   2.991   6.364  0.2965 -0.6571  0.3635
 9856WAT      O40143   4.706   1.788   4.897  0.5508 -0.0869 -0.0098
 9856WAT     H140144   4.791   1.771   4.882  1.1859  1.1638  1.8729
 9856WAT     H240145   4.696   1.870   4.868 -0.5395 -0.8458 -1.9511
 9856WAT    EPW40146   4.717   1.797   4.890  0.4836 -0.0142 -0.0184
 9857WAT      O40147   5.784   3.783   5.193 -0.5390 -0.0714  0.1397
 9857WAT     H140148   5.754   3.862   5.215 -0.3484 -0.3529  1.5390
 9857WAT     H240149   5.713   3.741   5.166 -1.3716 -0.4729  2.6462
 9857WAT    EPW40150   5.769   3.789   5.192 -0.6339 -0.1723  0.7167
 9858WAT      O40151   6.239   3.962   6.782  0.2505  0.4262  0.0686
 9858WAT     H140152   6.197   3.909   6.837 -2.4126  1.4552 -0.8087
 9858WAT     H240153   6.232   3.921   6.705  0.9931  0.6041 -0.1071
 9858WAT    EPW40154   6.232   3.948   6.778 -0.0332  0.6045 -0.0870
 9859WAT      O40155   6.044   7.073   7.027  0.4625 -0.1755 -0.0800
 9859WAT     H140156   5.985   7.043   6.970 -0.1774 -1.2054  1.0856
 9859WAT     H240157   6.120   7.041   6.996  0.2434  0.0292 -0.8446
 9859WAT    EPW40158   6.047   7.064   7.014  0.3356 -0.2974 -0.0208
 9860WAT      O40159   3.009   4.278   6.601 -0.1491  0.1219 -1.1129
 9860WAT     H140160   3.057   4.221   6.555 -0.1188 -1.0135  0.2667
 9860WAT     H240161   2.928   4.249   6.592 -0.4579  1.2460 -2.3035
 9860WAT    EPW40162   3.004   4.265   6.593 -0.1903  0.1202 -1.0850
 9861WAT      O40163   6.329   5.004   7.405 -0.0573  0.2971  0.1063
 9861WAT     H140164   6.335   4.941   7.464 -2.2641  1.3418  1.5484
 9861WAT     H240165   6.339   5.077   7.452  1.7992  1.1280 -1.4232
 9861WAT    EPW40166   6.331   5.005   7.421 -0.1091  0.5742  0.0934
 9862WAT      O40167   7.221   0.766   6.891  0.1207  0.2261  0.4270
 9862WAT     H140168   7.193   0.685   6.906 -1.2943  0.3998 -0.9492
 9862WAT     H240169   7.306   0.763   6.911  0.1555 -1.6431  0.1616
 9862WAT    EPW40170   7.229   0.754   6.897 -0.0832 -0.0244  0.1845
 9863WAT      O40171   2.254   7.161   0.622  0.6654  0.4136  0.8417
 9863WAT     H140172   2.331   7.160   0.579  0.3867  0.6349  0.3318
 9863WAT     H240173   2.200   7.120   0.567 -0.1763  2.4306  0.0524
 9863WAT    EPW40174   2.258   7.155   0.607  0.4999  0.7443  0.6498
 9864WAT      O40175   6.488   6.039   1.169  0.3928 -0.1151  0.1026
 9864WAT     H140176   6.535   6.071   1.234 -0.8419  0.0224  0.9688
 9864WAT     H240177   6.466   5.959   1.196  1.5955 -0.8840 -1.0741
 9864WAT    EPW40178   6.492   6.032   1.182  0.3881 -0.2084  0.0567
 9865WAT      O40179   0.747   2.872   1.181  0.1928 -0.1219 -0.2613
 9865WAT     H140180   0.681   2.837   1.135 -0.9114 -0.8593  1.7110
 9865WAT     H240181   0.737   2.958   1.170 -0.9737 -0.2325 -0.2246
 9865WAT    EPW40182   0.736   2.879   1.173 -0.1426 -0.2471  0.0355
 9866WAT      O40183   3.700   1.308   0.798 -0.0792  0.0731 -0.2884
 9866WAT     H140184   3.758   1.286   0.736  0.2919  0.3538 -0.0538
 9866WAT     H240185   3.632   1.257   0.783 -0.0975  0.3217 -1.0969
 9866WAT    EPW40186   3.699   1.297   0.787 -0.0271  0.1513 -0.3732
 9867WAT      O40187   2.559   2.500   1.185  0.4278  0.4427  0.4341
 9867WAT     H140188   2.571   2.557   1.250  2.5699  0.3173  0.2292
 9867WAT     H240189   2.640   2.476   1.165 -0.2989 -0.8107 -1.1537
 9867WAT    EPW40190   2.573   2.505   1.192  0.6369  0.2390  0.1693
 9868WAT      O40191   2.349   5.991   4.335 -0.1072  0.5363  0.0088
 9868WAT     H140192   2.309   6.039   4.275 -1.3130 -0.7707 -0.2664
 9868WAT     H240193   2.298   6.000   4.406 -0.3011 -0.2705 -0.0251
 9868WAT    EPW40194   2.336   6.000   4.337 -0.3139  0.2240 -0.0369
 9869WAT      O40195   6.099   0.132   3.456 -0.5191 -0.6840  0.2571
 9869WAT     H140196   6.119   0.217   3.465  0.1358 -0.6828 -0.9417
 9869WAT     H240197   6.036   0.119   3.515 -0.5651  0.6174  0.5213
 9869WAT    EPW40198   6.093   0.143   3.466 -0.4291 -0.4916  0.1190
 9870WAT      O40199   4.383   7.190   2.521 -0.1154  0.6310  0.0447
 9870WAT     H140200   4.371   7.268   2.559 -1.2421  0.9351 -0.8713
 9870WAT     H240201   4.402   7.137   2.588 -0.0559  1.5414  0.7660
 9870WAT    EPW40202   4.384   7.194   2.537 -0.2730  0.8104  0.0159
 9871WAT      O40203   0.756   0.387   1.891 -0.2818 -0.4119 -0.3237
 9871WAT     H140204   0.788   0.467   1.903  0.0876 -0.1636 -2.5279
 9871WAT     H240205   0.828   0.337   1.885 -0.4158 -0.5480 -0.9494
 9871WAT    EPW40206   0.771   0.391   1.892 -0.2470 -0.3953 -0.7417
 9872WAT      O40207   4.902   2.854   5.437 -0.4203 -0.3950  0.0313
 9872WAT     H140208   4.899   2.787   5.493  0.8369  2.6456  4.2051
 9872WAT     H240209   4.820   2.857   5.405 -0.8701 -2.9743  0.6956
 9872WAT    EPW40210   4.889   2.844   5.440 -0.3010 -0.3269  0.7460
 9873WAT      O40211   2.630   0.407   4.804 -0.7730  0.7926 -1.0027
 9873WAT     H140212   2.557   0.400   4.850 -0.0552  0.3625  0.1139
 9873WAT     H240213   2.688   0.359   4.849  0.3427  1.5635 -1.5547
 9873WAT    EPW40214   2.628   0.399   4.818 -0.5022  0.8429 -0.9193
 9874WAT      O40215   2.446   3.522   2.456 -0.2205  0.5261 -0.4048
 9874WAT     H140216   2.417   3.451   2.413  1.3241 -0.4375  0.0387
 9874WAT     H240217   2.414   3.511   2.536 -1.0071  0.9907 -0.6511
 9874WAT    EPW40218   2.437   3.510   2.461 -0.1085  0.4524 -0.3756
 9875WAT      O40219   2.451   6.699   0.112  0.7415  0.2882  0.0336
 9875WAT     H140220   2.423   6.751   0.048  2.0338  1.3802  0.3160
 9875WAT     H240221   2.416   6.621   0.093  1.8966  0.3286 -2.5443
 9875WAT    EPW40222   2.441   6.695   0.100  1.1031  0.4555 -0.3055
 9876WAT      O40223   4.478   2.464   0.464 -0.4279 -0.0455  0.1393
 9876WAT     H140224   4.532   2.512   0.514 -1.9646  1.0359  0.8453
 9876WAT     H240225   4.499   2.489   0.383 -0.9968  1.6791  0.4741
 9876WAT    EPW40226   4.489   2.475   0.459 -0.7390  0.3690  0.2931
 9877WAT      O40227   1.436   5.598   2.168  0.5187 -0.4698  0.0292
 9877WAT     H140228   1.481   5.626   2.099 -0.5855  3.4034  0.6271
 9877WAT     H240229   1.459   5.653   2.231 -2.2635 -0.6031  1.3076
 9877WAT    EPW40230   1.446   5.611   2.167 -0.0554  0.0827  0.3064
 9878WAT      O40231   3.378   5.870   4.277 -0.2675  0.4102 -0.2489
 9878WAT     H140232   3.403   5.818   4.343  1.7989  1.9640  0.3120
 9878WAT     H240233   3.358   5.814   4.214 -3.1592 -1.1851  1.8578
 9878WAT    EPW40234   3.379   5.854   4.277 -0.3894  0.4041  0.1452
 9879WAT      O40235   5.381   0.670   0.122  0.6170  0.1079 -0.2092
 9879WAT     H140236   5.321   0.625   0.078  0.0457  0.7096 -0.0513
 9879WAT     H240237   5.362   0.653   0.206 -0.1529  1.3258 -0.1200
 9879WAT    EPW40238   5.370   0.661   0.128  0.4189  0.3767 -0.1727
 9880WAT      O40239   2.354   5.720   6.478  0.2831 -0.3113  0.0786
 9880WAT     H140240   2.289   5.742   6.531 -0.7617 -0.5857 -1.0308
 9880WAT     H240241   2.421   5.768   6.505 -0.3746 -0.0382  1.2682
 9880WAT    EPW40242   2.354   5.730   6.490  0.0316 -0.3115  0.0905
 9881WAT      O40243   6.465   1.922   3.919 -0.7227  0.6180  0.1774
 9881WAT     H140244   6.549   1.916   3.942 -0.9010  1.7678  1.2719
 9881WAT     H240245   6.444   1.841   3.896 -0.1781 -0.5096  3.1720
 9881WAT    EPW40246   6.475   1.909   3.919 -0.6686  0.6213  0.7814
 9882WAT      O40247   3.096   1.792   4.102  0.5534 -0.6238 -0.3369
 9882WAT     H140248   3.130   1.821   4.027 -1.0933  0.5981 -0.6828
 9882WAT     H240249   3.057   1.862   4.135  0.6233 -1.3209  1.3234
 9882WAT    EPW40250   3.095   1.806   4.096  0.3204 -0.5463 -0.1427
 9883WAT      O40251   1.462   3.157   4.792 -0.0532 -0.5517 -0.0259
 9883WAT     H140252   1.435   3.076   4.775 -2.5894 -0.3118  2.0836
 9883WAT     H240253   1.405   3.208   4.750  0.8620  0.1423 -0.4698
 9883WAT    EPW40254   1.450   3.153   4.783 -0.2927 -0.4137  0.2202
 9884WAT      O40255   7.292   1.797   1.910 -0.5020 -0.0520 -0.1888
 9884WAT     H140256   7.373   1.813   1.882 -1.1464 -0.1499 -2.2725
 9884WAT     H240257   7.299   1.803   1.997  1.5813  0.5914 -0.3417
 9884WAT    EPW40258   7.305   1.800   1.919 -0.2894  0.0286 -0.5192
 9885WAT      O40259   0.183   1.781   4.983  0.1907  0.3754 -0.3093
 9885WAT     H140260   0.116   1.797   5.037  0.0242  0.1373 -0.4439
 9885WAT     H240261   0.182   1.849   4.929 -0.2519  0.1330 -0.6172
 9885WAT    EPW40262   0.173   1.794   4.983  0.1007  0.3044 -0.3747
 9886WAT      O40263   3.110   7.161   4.048 -0.2735  0.2835  0.3479
 9886WAT     H140264   3.141   7.080   4.036 -1.6020 -0.0351 -1.2249
 9886WAT     H240265   3.092   7.163   4.134 -1.0471 -1.4242  0.2754
 9886WAT    EPW40266   3.112   7.150   4.059 -0.5840 -0.0158  0.1049
 9887WAT      O40267   2.858   4.801   0.178  0.1476 -0.0333 -0.5150
 9887WAT     H140268   2.876   4.731   0.129  1.5216  0.5311 -0.8770
 9887WAT     H240269   2.866   4.868   0.122  0.3066  0.5087  0.1448
 9887WAT    EPW40270   2.862   4.801   0.162  0.3741  0.1302 -0.4710
 9888WAT      O40271   6.693   4.053   3.798 -0.0477  0.0998 -0.7305
 9888WAT     H140272   6.610   4.026   3.799  0.3817 -1.3318  1.1821
 9888WAT     H240273   6.730   4.010   3.864  2.0983  1.1536 -1.1478
 9888WAT    EPW40274   6.686   4.043   3.808  0.3327  0.0439 -0.5096
 9889WAT      O40275   6.673   2.951   0.004  0.0162  0.1645 -0.0711
 9889WAT     H140276   6.594   2.985   0.021  0.4121  0.2001  1.9463
 9889WAT     H240277   6.654   2.868  -0.018 -0.6361  0.3936 -0.4099
 9889WAT    EPW40278   6.658   2.944   0.003 -0.0217  0.2036  0.1768
 9890WAT      O40279   6.077   6.544   4.664  0.6702  0.0656 -0.0755
 9890WAT     H140280   6.150   6.497   4.651  0.3271 -0.9499  1.3551
 9890WAT     H240281   6.096   6.589   4.736  0.1433  0.3534 -0.1193
 9890WAT    EPW40282   6.091   6.543   4.673  0.5417 -0.0419  0.1294
 9891WAT      O40283   0.203   6.857   2.933 -0.1191 -0.0927  0.1265
 9891WAT     H140284   0.239   6.872   3.011 -0.4421 -1.0708  0.4781
 9891WAT     H240285   0.180   6.936   2.906 -1.3967  0.1303  1.7075
 9891WAT    EPW40286   0.205   6.871   2.940 -0.3555 -0.2042  0.4120
 9892WAT      O40287   2.859   4.760   3.063  0.4502  0.4744 -0.4484
 9892WAT     H140288   2.859   4.839   3.099 -1.8348  1.5211 -2.4438
 9892WAT     H240289   2.820   4.772   2.986  0.5618 -2.4930 -1.1075
 9892WAT    EPW40290   2.853   4.773   3.057  0.1291  0.1907 -0.8405
 9893WAT      O40291   3.001   6.387   4.309  0.6059  0.2321  0.2710
 9893WAT     H140292   2.962   6.322   4.266  1.4022  0.5532 -1.0115
 9893WAT     H240293   2.935   6.429   4.347 -0.2114  0.1507 -0.9928
 9893WAT    EPW40294   2.985   6.384   4.308  0.6028  0.2675 -0.1051
 9894WAT      O40295   5.521   6.985   0.399  0.3493  0.2373  0.0890
 9894WAT     H140296   5.443   6.956   0.372  1.0504 -1.6156 -0.1035
 9894WAT     H240297   5.543   6.930   0.463  1.0058  1.4348  0.9296
 9894WAT    EPW40298   5.513   6.973   0.404  0.5498  0.1405  0.1847
 9895WAT      O40299   3.890   6.727   4.324 -0.5750 -0.0327  0.1149
 9895WAT     H140300   3.816   6.772   4.336 -0.7221 -0.5468  1.2642
 9895WAT     H240301   3.878   6.655   4.371  0.4535 -0.3679 -0.1119
 9895WAT    EPW40302   3.877   6.723   4.333 -0.4448 -0.1581  0.2511
 9896WAT      O40303   5.368   2.164   0.852 -0.3480 -0.1050  0.2436
 9896WAT     H140304   5.338   2.176   0.771 -0.4841 -1.1060  0.1409
 9896WAT     H240305   5.296   2.160   0.900 -0.3143 -0.6887  0.2483
 9896WAT    EPW40306   5.353   2.165   0.847 -0.3632 -0.3391  0.2291
 9897WAT      O40307   1.392   1.080   4.912  0.5461  0.0808 -0.4941
 9897WAT     H140308   1.423   1.141   4.967  1.6888  0.0270 -1.0537
 9897WAT     H240309   1.462   1.032   4.893 -0.5474 -2.2811  0.9526
 9897WAT    EPW40310   1.407   1.082   4.917  0.5533 -0.2761 -0.3631
 9898WAT      O40311   5.835   3.452   0.199  0.6507 -0.3874 -0.7287
 9898WAT     H140312   5.807   3.408   0.268 -0.6161  1.0255 -0.3053
 9898WAT     H240313   5.762   3.479   0.160  1.3782  0.8527 -1.2866
 9898WAT    EPW40314   5.820   3.449   0.203  0.5711  0.0045 -0.7485
 9899WAT      O40315   3.273   0.846   4.442 -0.0731 -0.5848  0.3840
 9899WAT     H140316   3.353   0.881   4.445 -0.7399  0.9949  0.3145
 9899WAT     H240317   3.239   0.879   4.370 -0.6112 -1.7189  0.0974
 9899WAT    EPW40318   3.280   0.856   4.432 -0.2511 -0.5190  0.3314
 9900WAT      O40319   6.784   4.522   6.375  0.2228  0.2798  0.0379
 9900WAT     H140320   6.825   4.490   6.446 -0.0525 -1.7243 -0.6514
 9900WAT     H240321   6.849   4.533   6.318  0.3041  0.8731  0.2416
 9900WAT    EPW40322   6.800   4.519   6.377  0.1941  0.0714 -0.0338
 9901WAT      O40323   1.558   1.989   0.474  0.4926 -0.2428  0.3870
 9901WAT     H140324   1.475   1.982   0.500  1.2320 -0.8233  2.8748
 9901WAT     H240325   1.559   2.064   0.430 -1.1937  0.2308  1.0621
 9901WAT    EPW40326   1.546   1.999   0.472  0.3527 -0.2586  0.8542
 9902WAT      O40327   3.831   4.691   0.674 -0.1037  0.1361  0.0994
 9902WAT     H140328   3.867   4.682   0.753  2.2531 -0.8753 -0.9918
 9902WAT     H240329   3.809   4.775   0.671 -0.4235  0.1473  1.8885
 9902WAT    EPW40330   3.833   4.702   0.685  0.1972 -0.0116  0.2025
 9903WAT      O40331   4.177   2.484   5.334  0.1598  0.0611 -0.6637
 9903WAT     H140332   4.095   2.475   5.363  0.2037 -0.2475 -0.6328
 9903WAT     H240333   4.208   2.403   5.334  0.9667  0.3295  0.8367
 9903WAT    EPW40334   4.170   2.471   5.339  0.2855  0.0551 -0.4375
 9904WAT      O40335   5.282   0.015   6.780 -0.3336  0.0804 -0.5755
 9904WAT     H140336   5.199   0.023   6.755 -0.1640  3.6517 -0.4728
 9904WAT     H240337   5.286   0.060   6.855  2.1209  2.3208 -1.8859
 9904WAT    EPW40338   5.271   0.023   6.788  0.0540  0.9389 -0.7539
 9905WAT      O40339   4.978   0.093   5.035 -0.1285  0.0282  0.0731
 9905WAT     H140340   5.052   0.051   5.021  0.4960  0.8545  0.7579
 9905WAT     H240341   4.922   0.056   4.979  0.9742 -0.1215 -0.9670
 9905WAT    EPW40342   4.981   0.082   5.025  0.1266  0.1281  0.0206
 9906WAT      O40343   6.794   1.896   6.260  0.1548  0.2661  0.1049
 9906WAT     H140344   6.741   1.848   6.210  0.2329  0.0741  0.2035
 9906WAT     H240345   6.874   1.876   6.230  0.2949 -0.7530  1.0563
 9906WAT    EPW40346   6.798   1.886   6.248  0.1870  0.0872  0.2600
 9907WAT      O40347   1.187   6.141   4.159  0.2867 -0.1834 -0.2275
 9907WAT     H140348   1.105   6.160   4.180 -0.2631 -1.6952 -0.8337
 9907WAT     H240349   1.182   6.119   4.074  1.6628  1.4953 -0.8112
 9907WAT    EPW40350   1.174   6.140   4.149  0.4087 -0.1588 -0.4033
 9908WAT      O40351   2.291   0.423   0.467  0.4629  0.1636  0.1347
 9908WAT     H140352   2.326   0.503   0.469 -1.1174  0.9048 -0.2849
 9908WAT     H240353   2.298   0.396   0.549  2.4016  0.0640 -0.0129
 9908WAT    EPW40354   2.297   0.431   0.479  0.5158  0.2584  0.0509
 9909WAT      O40355   1.972   3.522   3.786  0.1295 -0.6912 -0.3976
 9909WAT     H140356   2.038   3.577   3.799  0.0324 -0.6482 -0.0727
 9909WAT     H240357   1.901   3.573   3.791  0.0460 -0.8256 -0.2179
 9909WAT    EPW40358   1.971   3.538   3.788  0.1029 -0.7047 -0.3230
 9910WAT      O40359   7.243   3.504   1.102  0.3272  0.3461 -0.3985
 9910WAT     H140360   7.297   3.571   1.114 -1.3067  1.3671  1.8267
 9910WAT     H240361   7.281   3.439   1.147  0.1758  0.8055  0.4115
 9910WAT    EPW40362   7.257   3.504   1.110  0.0635  0.5648  0.0499
 9911WAT      O40363   6.732   6.959   6.085 -0.7973  0.0203  0.1293
 9911WAT     H140364   6.650   6.946   6.060 -0.2066 -1.6924 -1.1008
 9911WAT     H240365   6.769   7.000   6.017 -0.3536 -0.3037  0.1658
 9911WAT    EPW40366   6.726   6.964   6.071 -0.6445 -0.2806 -0.0470
 9912WAT      O40367   6.591   4.811   3.498 -0.4801 -0.2890  0.3134
 9912WAT     H140368   6.676   4.812   3.479 -0.6129  1.2139 -0.3040
 9912WAT     H240369   6.552   4.799   3.421 -0.8606 -0.3646  0.5100
 9912WAT    EPW40370   6.598   4.809   3.484 -0.5559 -0.0781  0.2512
 9913WAT      O40371   1.363   1.120   2.887  0.9634 -0.0378  0.2201
 9913WAT     H140372   1.324   1.054   2.845 -0.0446 -0.5324  1.8334
 9913WAT     H240373   1.330   1.191   2.850 -0.1191 -0.4507  0.3710
 9913WAT    EPW40374   1.352   1.120   2.875  0.6546 -0.1719  0.4807
 9914WAT      O40375   2.227   4.664   2.287 -0.3946  0.4493 -0.3907
 9914WAT     H140376   2.164   4.611   2.259 -1.7027  1.9724 -0.4820
 9914WAT     H240377   2.291   4.610   2.310 -1.2664 -1.1010 -1.4261
 9914WAT    EPW40378   2.227   4.648   2.286 -0.7166  0.4453 -0.5572
 9915WAT      O40379   3.085   2.300   7.156 -0.1718  0.1244  0.0285
 9915WAT     H140380   3.038   2.374   7.155  1.6012  1.3076  0.4860
 9915WAT     H240381   3.059   2.261   7.229 -2.1184 -0.4559 -0.8788
 9915WAT    EPW40382   3.074   2.305   7.166 -0.1975  0.2135 -0.0379
 9916WAT      O40383   4.632   5.460   1.636 -0.0779 -0.0499  0.7476
 9916WAT     H140384   4.565   5.406   1.625  1.7822 -2.0946 -1.9600
 9916WAT     H240385   4.613   5.527   1.583 -0.1318 -0.5059  0.1785
 9916WAT    EPW40386   4.619   5.462   1.626  0.1889 -0.4193  0.2636
 9917WAT      O40387   2.546   6.856   4.947 -0.1295  0.2912  0.2007
 9917WAT     H140388   2.516   6.825   5.023 -3.7591 -0.2040 -1.2381
 9917WAT     H240389   2.552   6.942   4.960 -3.0629  0.5496  0.5083
 9917WAT    EPW40390   2.542   6.864   4.960 -1.0990  0.2562  0.0336
 9918WAT      O40391   6.198   3.000   4.320 -0.8928 -0.0954 -0.3948
 9918WAT     H140392   6.274   2.990   4.280  0.2355 -0.1158  1.6247
 9918WAT     H240393   6.144   3.027   4.257  0.6426 -0.6026 -1.9724
 9918WAT    EPW40394   6.201   3.003   4.305 -0.4993 -0.1733 -0.3296
 9919WAT      O40395   1.754   1.540   5.917  0.0253  0.2331  0.1005
 9919WAT     H140396   1.814   1.560   5.856  0.3180  0.8468  0.5762
 9919WAT     H240397   1.725   1.618   5.943 -0.1499 -0.0227  0.6923
 9919WAT    EPW40398   1.759   1.555   5.912  0.0426  0.2860  0.2582
 9920WAT      O40399   4.518   1.794   0.133  0.2990 -0.1652 -0.0972
 9920WAT     H140400   4.584   1.768   0.082 -0.4717 -0.8496 -0.7579
 9920WAT     H240401   4.495   1.871   0.098  0.9558  0.2472  0.3482
 9920WAT    EPW40402   4.524   1.802   0.121  0.2822 -0.2054 -0.1290
 9921WAT      O40403   2.151   5.574   5.384 -0.4809 -0.3052 -0.5023
 9921WAT     H140404   2.227   5.584   5.342 -0.3532  1.5052  0.0666
 9921WAT     H240405   2.106   5.646   5.363 -2.4550 -1.7531 -1.5630
 9921WAT    EPW40406   2.155   5.586   5.375 -0.7536 -0.2517 -0.5749
 9922WAT      O40407   7.254   2.783   2.451  0.2702 -0.0371 -0.1326
 9922WAT     H140408   7.230   2.810   2.531 -0.4849  1.8932 -0.9401
 9922WAT     H240409   7.336   2.810   2.444 -0.2288  1.4598 -0.6335
 9922WAT    EPW40410   7.262   2.791   2.462  0.0850  0.4692 -0.3259
 9923WAT      O40411   7.118   4.301   1.407 -0.0693  0.1137  0.0542
 9923WAT     H140412   7.038   4.309   1.440 -0.3139 -1.6595 -0.0023
 9923WAT     H240413   7.158   4.249   1.465  1.0646  0.9837  0.0840
 9923WAT    EPW40414   7.112   4.294   1.421  0.0620 -0.0197  0.0502
 9924WAT      O40415   1.108   1.691   6.839 -0.1591  0.1819 -0.0528
 9924WAT     H140416   1.159   1.641   6.888 -2.1102 -1.9510 -0.0601
 9924WAT     H240417   1.100   1.646   6.765 -2.2062  0.3224  0.0356
 9924WAT    EPW40418   1.115   1.677   6.835 -0.7497 -0.1124 -0.0408
 9925WAT      O40419   3.095   6.059   4.701  0.0057  0.0811 -0.1247
 9925WAT     H140420   3.117   6.125   4.648  1.2992 -0.5690 -0.4645
 9925WAT     H240421   3.124   6.085   4.779  2.1662 -0.7546 -0.5637
 9925WAT    EPW40422   3.103   6.073   4.705  0.5159 -0.1384 -0.2398
 9926WAT      O40423   1.323   4.212   2.415  0.4014 -0.8455  0.4108
 9926WAT     H140424   1.372   4.275   2.450  1.7120 -1.9049  0.5643
 9926WAT     H240425   1.260   4.200   2.475 -0.6113  1.1165 -0.1764
 9926WAT    EPW40426   1.320   4.220   2.429  0.4454 -0.7122  0.3467
 9927WAT      O40427   6.354   0.066   1.189  0.1640 -0.4201  0.1114
 9927WAT     H140428   6.392   0.124   1.243  3.2930 -0.5200 -1.7423
 9927WAT     H240429   6.277   0.103   1.172  0.9196  1.8458  1.1129
 9927WAT    EPW40430   6.348   0.080   1.195  0.7379 -0.1002 -0.0145
 9928WAT      O40431   4.149   3.153   6.225 -0.5994  0.4168  0.3284
 9928WAT     H140432   4.142   3.070   6.197 -0.7286  0.0385  1.4514
 9928WAT     H240433   4.075   3.189   6.198 -0.8572 -0.0212  0.4375
 9928WAT    EPW40434   4.137   3.146   6.217 -0.6566  0.2962  0.5104
 9929WAT      O40435   2.815   5.558   2.970 -0.3449 -0.0055 -0.5738
 9929WAT     H140436   2.841   5.619   3.027  0.0152  0.7268 -1.5097
 9929WAT     H240437   2.759   5.509   3.017 -0.5381  0.9556  0.2302
 9929WAT    EPW40438   2.810   5.560   2.986 -0.3202  0.2447 -0.5933
 9930WAT      O40439   4.793   0.092   4.114 -0.1119  0.6249  0.0617
 9930WAT     H140440   4.801   0.167   4.071  0.7163  0.0249 -0.8817
 9930WAT     H240441   4.765   0.116   4.193 -0.6332  1.8460 -0.4782
 9930WAT    EPW40442   4.790   0.106   4.119 -0.0666  0.7167 -0.1574
 9931WAT      O40443   4.061   4.510   1.361 -0.0712 -0.4366 -0.0643
 9931WAT     H140444   3.989   4.518   1.312 -0.8835 -1.7573  0.8737
 9931WAT     H240445   4.125   4.528   1.305 -1.1319  1.9321 -0.6548
 9931WAT    EPW40446   4.060   4.514   1.345 -0.3479 -0.2818 -0.0130
 9932WAT      O40447   3.610   0.478   2.907 -0.2234  0.3805 -0.1418
 9932WAT     H140448   3.622   0.550   2.859  1.2361  0.6631  0.6065
 9932WAT     H240449   3.651   0.416   2.862  0.8153  0.5700  0.5027
 9932WAT    EPW40450   3.617   0.479   2.893  0.1456  0.4502  0.0640
 9933WAT      O40451   0.076   4.018   5.454  0.2555  0.6703 -0.3783
 9933WAT     H140452  -0.005   4.040   5.431 -0.6186 -0.4279  1.4414
 9933WAT     H240453   0.081   3.934   5.430  0.7289  0.6361 -0.1694
 9933WAT    EPW40454   0.065   4.009   5.447  0.1963  0.5030 -0.0786
 9934WAT      O40455   1.563   6.047   5.345  0.2503 -0.0263 -0.3725
 9934WAT     H140456   1.521   6.090   5.282  1.1584 -0.3003 -1.1874
 9934WAT     H240457   1.575   5.968   5.311  2.8674  0.4972 -0.8902
 9934WAT    EPW40458   1.559   6.042   5.331  0.7710  0.0105 -0.5694
 9935WAT      O40459   0.734   5.107   6.981  0.5352  0.5760  0.6392
 9935WAT     H140460   0.775   5.134   6.909  0.1048 -0.2818  0.0575
 9935WAT     H240461   0.800   5.084   7.034  0.8461  0.9117  0.4099
 9935WAT    EPW40462   0.750   5.108   6.979  0.5175  0.4989  0.5194
 9936WAT      O40463   6.139   5.575   5.200  0.2066  0.1406 -0.1392
 9936WAT     H140464   6.081   5.557   5.263  0.9255 -1.6471  0.0712
 9936WAT     H240465   6.100   5.637   5.153 -1.0536  0.3299  1.0854
 9936WAT    EPW40466   6.125   5.582   5.202  0.1267 -0.0955  0.0727
 9937WAT      O40467   3.389   0.890   1.127 -0.2576 -0.4163  0.0199
 9937WAT     H140468   3.426   0.828   1.175 -0.2729  0.6384  1.4676
 9937WAT     H240469   3.303   0.880   1.142 -0.2072  0.5428  1.0622
 9937WAT    EPW40470   3.381   0.880   1.136 -0.2524 -0.1188  0.3877
 9938WAT      O40471   2.422   6.584   5.672 -0.0231  0.5327 -0.1610
 9938WAT     H140472   2.497   6.600   5.631  0.8421  0.3386  1.2598
 9938WAT     H240473   2.441   6.598   5.756 -1.3970 -0.1579  0.3052
 9938WAT    EPW40474   2.436   6.588   5.679 -0.0983  0.4020  0.1177
 9939WAT      O40475   6.383   2.115   6.031 -0.5426  1.0901 -0.0685
 9939WAT     H140476   6.448   2.168   6.054  1.3453 -0.8276 -0.6623
 9939WAT     H240477   6.390   2.111   5.944 -1.0850  0.3630 -0.0855
 9939WAT    EPW40478   6.393   2.123   6.021 -0.3438  0.6994 -0.1587
 9940WAT      O40479   4.392   2.431   4.295  0.0816 -0.3935 -0.1401
 9940WAT     H140480   4.393   2.352   4.258  0.5681 -0.7567  0.6295
 9940WAT     H240481   4.311   2.460   4.279 -0.8244 -1.9101  1.3457
 9940WAT    EPW40482   4.380   2.424   4.287  0.0197 -0.6712  0.1931
 9941WAT      O40483   1.958   2.368   3.858 -0.0209 -0.2192  0.1162
 9941WAT     H140484   1.985   2.285   3.849 -2.0688 -0.8916 -0.5124
 9941WAT     H240485   1.917   2.367   3.935 -1.7494 -0.3637 -0.7595
 9941WAT    EPW40486   1.956   2.355   3.868 -0.5788 -0.3399 -0.1060
 9942WAT      O40487   5.539   3.758   4.544  0.1198  0.2415 -0.0959
 9942WAT     H140488   5.615   3.716   4.558 -0.8545 -1.5290  0.1248
 9942WAT     H240489   5.530   3.754   4.458  0.2795  0.4563 -0.1228
 9942WAT    EPW40490   5.549   3.751   4.533 -0.0005  0.0117 -0.0673
 9943WAT      O40491   1.125   3.680   0.500  0.1793 -0.0897  0.7933
 9943WAT     H140492   1.146   3.752   0.456  2.2642  0.3859  2.4132
 9943WAT     H240493   1.074   3.710   0.564 -3.8340 -0.9205 -1.6752
 9943WAT    EPW40494   1.120   3.695   0.503 -0.1056 -0.1422  0.6680
 9944WAT      O40495   0.618   4.273   5.034 -0.3965 -0.3255  0.3118
 9944WAT     H140496   0.641   4.198   4.997 -1.0969 -0.1668 -0.4747
 9944WAT     H240497   0.531   4.269   5.036 -0.4342  0.4059  0.3852
 9944WAT    EPW40498   0.609   4.261   5.029 -0.5055 -0.1940  0.2064
 9945WAT      O40499   3.058   4.188   0.968 -0.2047 -0.0467 -0.2846
 9945WAT     H140500   3.145   4.191   0.977 -0.2001  0.7244 -0.5060
 9945WAT     H240501   3.040   4.103   0.973  0.6408 -0.2873 -0.9771
 9945WAT    EPW40502   3.068   4.176   0.970 -0.0791  0.0317 -0.4196
 9946WAT      O40503   7.085   4.585   0.746  0.3070  0.1524  0.5515
 9946WAT     H140504   7.014   4.605   0.700  0.6744  0.8884  0.2727
 9946WAT     H240505   7.070   4.504   0.774 -0.8713  0.4908  0.9634
 9946WAT    EPW40506   7.073   4.576   0.743  0.1872  0.3111  0.5711
 9947WAT      O40507   2.187   4.428   7.019 -0.3550 -0.3298 -0.5109
 9947WAT     H140508   2.137   4.482   7.065  0.5422  0.0047  0.0950
 9947WAT     H240509   2.205   4.364   7.076  0.5326 -0.0546 -0.4752
 9947WAT    EPW40510   2.182   4.426   7.034 -0.0914 -0.2398 -0.4161
 9948WAT      O40511   2.151   4.940   5.001  0.5313  0.8529  0.1218
 9948WAT     H140512   2.077   4.954   4.956  0.8151  0.6019 -0.4305
 9948WAT     H240513   2.147   4.855   5.021 -1.1792  1.5653  3.4550
 9948WAT    EPW40514   2.139   4.929   4.997  0.3205  0.9210  0.5326
 9949WAT      O40515   2.001   6.783   5.728 -0.5646  0.1008  0.1550
 9949WAT     H140516   2.057   6.759   5.666 -0.8779 -0.2991  0.0192
 9949WAT     H240517   2.019   6.867   5.741 -1.0834  0.4194 -1.0913
 9949WAT    EPW40518   2.012   6.792   5.721 -0.6875  0.0888 -0.0491
 9950WAT      O40519   1.645   5.341   5.324  0.7153  0.6442  0.4467
 9950WAT     H140520   1.672   5.400   5.382 -0.8761 -0.1363  2.0604
 9950WAT     H240521   1.566   5.370   5.300  0.6962  0.1325 -0.1416
 9950WAT    EPW40522   1.637   5.354   5.329  0.4774  0.4533  0.5981
 9951WAT      O40523   3.701   2.402   5.719  0.2718 -0.0917 -0.2006
 9951WAT     H140524   3.783   2.425   5.734  0.4291  0.4426 -1.7136
 9951WAT     H240525   3.663   2.475   5.692 -0.5544 -0.4613 -0.0833
 9951WAT    EPW40526   3.707   2.416   5.717  0.1730 -0.0674 -0.4068
 9952WAT      O40527   1.769   1.242   0.890 -0.2332  0.0949 -0.2183
 9952WAT     H140528   1.693   1.248   0.849  0.8674  0.6959 -2.3393
 9952WAT     H240529   1.796   1.325   0.894  1.1176 -0.2513 -1.2375
 9952WAT    EPW40530   1.762   1.255   0.885  0.1289  0.1325 -0.6822
 9953WAT      O40531   2.015   0.014   5.639  0.7671 -0.1878 -0.3124
 9953WAT     H140532   2.007   0.099   5.619 -0.1640 -0.5415 -1.5494
 9953WAT     H240533   2.031  -0.023   5.562  1.3974 -1.1230  0.2522
 9953WAT    EPW40534   2.017   0.021   5.625  0.7226 -0.3782 -0.4118
 9954WAT      O40535   6.379   0.542   5.741  0.2977  0.0737  0.2696
 9954WAT     H140536   6.459   0.526   5.771  1.0925  1.4745 -0.9773
 9954WAT     H240537   6.379   0.504   5.662 -0.6680 -0.8580  0.6887
 9954WAT    EPW40538   6.391   0.534   5.734  0.2724  0.1430  0.1473
 9955WAT      O40539   1.587   0.772   5.259  0.3608  0.7360  0.1044
 9955WAT     H140540   1.634   0.725   5.315 -0.5742  0.7696  0.9481
 9955WAT     H240541   1.586   0.722   5.187  1.0170  0.3833  0.3287
 9955WAT    EPW40542   1.594   0.757   5.256  0.3196  0.6889  0.2621
 9956WAT      O40543   2.197   2.944   2.619 -0.8843  0.0447 -0.0646
 9956WAT     H140544   2.158   2.909   2.689 -0.1690 -1.0352 -0.1940
 9956WAT     H240545   2.281   2.951   2.643 -0.5201 -0.8529 -0.9881
 9956WAT    EPW40546   2.204   2.940   2.633 -0.7248 -0.2474 -0.2201
 9957WAT      O40547   4.216   0.472   4.627 -0.6683 -0.4191 -0.4067
 9957WAT     H140548   4.162   0.535   4.654 -0.9903 -0.1973 -1.5282
 9957WAT     H240549   4.173   0.435   4.561 -0.2538 -1.4796 -0.1111
 9957WAT    EPW40550   4.201   0.476   4.621 -0.6546 -0.5430 -0.5287
 9958WAT      O40551   1.929   2.373   6.359  0.5469 -0.5704  0.3634
 9958WAT     H140552   1.886   2.305   6.325  1.0017 -1.2062  1.0408
 9958WAT     H240553   1.954   2.418   6.288 -1.3437 -0.0810 -0.0539
 9958WAT    EPW40554   1.927   2.370   6.343  0.3348 -0.5920  0.4018
 9959WAT      O40555   0.793   6.859   6.803  0.0893  0.4286 -0.1263
 9959WAT     H140556   0.772   6.941   6.822  0.2873  0.4789 -0.1255
 9959WAT     H240557   0.829   6.865   6.723  0.4360  0.3922  0.0246
 9959WAT    EPW40558   0.795   6.872   6.794  0.1697  0.4306 -0.1039
 9960WAT      O40559   4.240   1.761   3.887 -0.6296  0.1711  0.5880
 9960WAT     H140560   4.244   1.839   3.847  0.9197  1.3416  2.8048
 9960WAT     H240561   4.306   1.716   3.852  0.6857  1.1666  1.6707
 9960WAT    EPW40562   4.250   1.766   3.876 -0.2064  0.4910  1.0754
 9961WAT      O40563   3.030   1.353   5.966  0.6113  0.6325 -0.3518
 9961WAT     H140564   2.948   1.337   5.992  0.4964  0.1001 -1.0205
 9961WAT     H240565   3.021   1.422   5.913  0.2076 -0.9860 -2.4847
 9961WAT    EPW40566   3.016   1.361   5.962  0.5347  0.3148 -0.7657
 9962WAT      O40567   4.488   2.487   5.556 -0.2208 -0.5591  0.0399
 9962WAT     H140568   4.475   2.455   5.636 -2.2155 -1.6194 -0.6465
 9962WAT     H240569   4.463   2.570   5.562 -0.5171 -0.6802  0.4866
 9962WAT    EPW40570   4.483   2.494   5.568 -0.5592 -0.7336  0.0045
 9963WAT      O40571   6.347   5.054   6.465 -0.6770 -0.2877  0.1537
 9963WAT     H140572   6.355   4.968   6.475  1.3277 -0.0909  0.7128
 9963WAT     H240573   6.347   5.064   6.378 -0.3199 -0.8193  0.0874
 9963WAT    EPW40574   6.348   5.043   6.453 -0.3281 -0.3372  0.2265
 9964WAT      O40575   6.987   1.645   2.358  0.3391 -0.3944 -0.9966
 9964WAT     H140576   7.045   1.596   2.400  1.8184  0.8869 -1.4693
 9964WAT     H240577   7.008   1.636   2.274 -0.3119 -0.1069 -1.2019
 9964WAT    EPW40578   6.998   1.637   2.352  0.4614 -0.1626 -1.0968
 9965WAT      O40579   1.547   4.277   3.540 -0.3781 -0.5312  0.5398
 9965WAT     H140580   1.486   4.337   3.556 -1.5591 -1.1377 -1.3147
 9965WAT     H240581   1.616   4.304   3.587 -0.8249  2.2844 -0.2367
 9965WAT    EPW40582   1.548   4.290   3.549 -0.6186 -0.2049  0.1511
 9966WAT      O40583   0.608   2.151   7.025 -0.3025  0.7679 -0.0437
 9966WAT     H140584   0.689   2.118   7.025 -1.3084 -2.1418 -2.3564
 9966WAT     H240585   0.614   2.219   6.972  0.6051  0.4915 -0.3224
 9966WAT    EPW40586   0.621   2.156   7.017 -0.3170  0.2973 -0.4265
 9967WAT      O40587   4.608   5.040   6.201 -0.0502 -0.2757  0.0341
 9967WAT     H140588   4.531   5.054   6.238 -0.0612 -0.6007  0.1309
 9967WAT     H240589   4.592   4.980   6.140  0.3047 -1.1014  0.7238
 9967WAT    EPW40590   4.595   5.033   6.198  0.0006 -0.4457  0.1503
 9968WAT      O40591   5.570   6.306   5.946  0.1117  0.0260 -0.2556
 9968WAT     H140592   5.490   6.278   5.966  0.2931  0.2457  0.8015
 9968WAT     H240593   5.585   6.371   6.002  1.6408 -1.0287  0.6254
 9968WAT    EPW40594   5.560   6.311   5.957  0.3644 -0.0974  0.0307
 9969WAT      O40595   3.894   1.997   5.568  0.2340 -0.2284 -0.2732
 9969WAT     H140596   3.937   2.051   5.514 -1.2410  0.3507 -0.9371
 9969WAT     H240597   3.890   1.922   5.523  0.4233 -0.2435 -0.2654
 9969WAT    EPW40598   3.900   1.994   5.553  0.0440 -0.1451 -0.3701
 9970WAT      O40599   1.953   4.394   6.676 -0.4820 -0.1052  0.3686
 9970WAT     H140600   1.950   4.307   6.676 -2.3193 -0.0730  0.7617
 9970WAT     H240601   2.038   4.411   6.669  0.0572 -1.9353  1.5974
 9970WAT    EPW40602   1.965   4.384   6.675 -0.6737 -0.3708  0.6082
 9971WAT      O40603   6.747   0.973   1.242 -0.1968  0.1847  0.1524
 9971WAT     H140604   6.708   0.980   1.320 -0.5223  2.6338 -0.1553
 9971WAT     H240605   6.769   0.889   1.238  0.5926  0.1214  3.2251
 9971WAT    EPW40606   6.744   0.962   1.253 -0.1283  0.5371  0.5608
 9972WAT      O40607   0.928   0.530   4.330  0.4468  0.1175 -0.1628
 9972WAT     H140608   0.865   0.475   4.357  0.7759 -0.1055  0.1557
 9972WAT     H240609   0.964   0.488   4.263 -1.0716  1.1306 -1.7142
 9972WAT    EPW40610   0.924   0.516   4.324  0.2711  0.2342 -0.3449
 9973WAT      O40611   2.524   1.958   6.884  0.3220  0.1872  0.0238
 9973WAT     H140612   2.516   1.905   6.953  1.1220  0.8049  0.6229
 9973WAT     H240613   2.573   1.913   6.829  0.4143  0.0249  0.2375
 9973WAT    EPW40614   2.530   1.944   6.886  0.4538  0.2544  0.1439
 9974WAT      O40615   0.934   5.426   4.208 -0.0971 -0.2157 -0.2377
 9974WAT     H140616   0.915   5.418   4.292  1.3667 -1.4728  0.0124
 9974WAT     H240617   0.894   5.358   4.170  0.7146 -0.6928 -0.2653
 9974WAT    EPW40618   0.926   5.415   4.215  0.2391 -0.4719 -0.2048
 9975WAT      O40619   1.979   4.508   1.458 -0.1183  0.5119  0.4042
 9975WAT     H140620   1.934   4.463   1.398  0.1818 -0.9684  1.2331
 9975WAT     H240621   1.967   4.591   1.435  0.6584  0.0047 -2.2038
 9975WAT    EPW40622   1.971   4.514   1.445  0.0408  0.2183  0.1414
 9976WAT      O40623   1.540   4.465   1.331 -0.5942  0.4119  0.1485
 9976WAT     H140624   1.489   4.446   1.399  0.5738  0.2566  1.0044
 9976WAT     H240625   1.566   4.386   1.303 -0.1545  0.5181  0.2531
 9976WAT    EPW40626   1.536   4.450   1.337 -0.3567  0.4046  0.2904
 9977WAT      O40627   5.950   2.013   5.375  0.3341 -0.1873 -0.2056
 9977WAT     H140628   5.933   1.940   5.421 -1.7178  0.9519  1.0227
 9977WAT     H240629   5.951   2.075   5.436  0.0844  1.0505 -1.4245
 9977WAT    EPW40630   5.948   2.011   5.391 -0.0059  0.1638 -0.2042
 9978WAT      O40631   4.948   6.463   0.147 -0.2913 -0.4628 -0.2598
 9978WAT     H140632   4.967   6.547   0.162 -1.8093 -0.0701 -0.4562
 9978WAT     H240633   4.978   6.422   0.218  2.0100 -0.0271 -0.8951
 9978WAT    EPW40634   4.955   6.469   0.160 -0.1756 -0.3404 -0.3826
 9979WAT      O40635   4.283   0.510   2.882  0.1439  0.4284  0.0475
 9979WAT     H140636   4.264   0.516   2.967  0.4077  1.2175  0.0550
 9979WAT     H240637   4.309   0.590   2.861 -2.8135  1.1398 -1.5009
 9979WAT    EPW40638   4.284   0.523   2.891 -0.2540  0.6500 -0.1801
 9980WAT      O40639   2.488   2.344   4.310  0.4144  0.2857 -0.1311
 9980WAT     H140640   2.436   2.278   4.330  0.0851  0.3328 -0.7934
 9980WAT     H240641   2.524   2.320   4.234  1.1324  0.3866  0.1634
 9980WAT    EPW40642   2.486   2.331   4.302  0.4718  0.3075 -0.1854
 9981WAT      O40643   4.401   0.526   5.706  0.1889 -0.7859  0.4031
 9981WAT     H140644   4.401   0.516   5.620  0.7278  1.7251  0.0507
 9981WAT     H240645   4.323   0.496   5.731 -0.0805 -1.2811 -0.9817
 9981WAT    EPW40646   4.390   0.520   5.697  0.2287 -0.4881  0.1465
 9982WAT      O40647   1.964   2.630   0.209 -0.2814  0.3633  0.4571
 9982WAT     H140648   2.020   2.574   0.175 -0.8787  0.7285 -1.2418
 9982WAT     H240649   1.952   2.688   0.145  0.4557  2.5709  2.1778
 9982WAT    EPW40650   1.970   2.631   0.195 -0.2607  0.7434  0.4603
 9983WAT      O40651   4.853   5.436   5.983  0.6053 -0.0839 -0.9399
 9983WAT     H140652   4.924   5.389   6.004  0.4800  1.0918  2.6976
 9983WAT     H240653   4.789   5.376   5.983  1.2951 -0.9246 -2.9734
 9983WAT    EPW40654   4.854   5.420   5.986  0.6887 -0.0344 -0.7030
 9984WAT      O40655   4.449   3.469   1.779  0.0694  0.5260  0.5072
 9984WAT     H140656   4.472   3.397   1.824  1.7252  0.4700 -0.3367
 9984WAT     H240657   4.520   3.520   1.785 -1.6626  2.9053  2.5221
 9984WAT    EPW40658   4.463   3.466   1.786  0.0581  0.8692  0.6802
 9985WAT      O40659   2.144   4.745   6.646 -0.5706  0.5239 -0.1975
 9985WAT     H140660   2.200   4.718   6.707 -0.8414  1.1216  0.3333
 9985WAT     H240661   2.068   4.749   6.689 -0.3318  3.3480  0.1465
 9985WAT    EPW40662   2.141   4.742   6.662 -0.5753  1.0294 -0.0683
 9986WAT      O40663   2.274   1.870   5.570 -0.3002 -0.0436 -0.0759
 9986WAT     H140664   2.265   1.947   5.610  1.4401 -0.1285  0.5720
 9986WAT     H240665   2.283   1.813   5.636 -1.7638 -0.8771 -0.5363
 9986WAT    EPW40666   2.274   1.873   5.586 -0.2593 -0.1793 -0.0482
 9987WAT      O40667   2.615   6.150   0.112 -0.9260 -0.3647  0.6113
 9987WAT     H140668   2.611   6.186   0.033 -2.1959 -0.9308  0.3962
 9987WAT     H240669   2.607   6.218   0.166  0.9814  0.1610  0.3212
 9987WAT    EPW40670   2.613   6.165   0.109 -0.8318 -0.3707  0.5367
 9988WAT      O40671   5.686   4.045   4.902  0.1619  0.1776 -0.0634
 9988WAT     H140672   5.770   4.060   4.881  0.1435 -0.5233 -0.6725
 9988WAT     H240673   5.655   4.124   4.921  0.9425  0.4529  0.0811
 9988WAT    EPW40674   5.694   4.059   4.902  0.2745  0.1147 -0.1320
 9989WAT      O40675   2.192   3.882   0.998  0.6939 -0.6667  0.2679
 9989WAT     H140676   2.159   3.818   1.047 -0.2363 -0.4939 -0.0977
 9989WAT     H240677   2.132   3.945   1.005  0.2456 -0.8286 -1.4947
 9989WAT    EPW40678   2.178   3.882   1.006  0.4903 -0.6651 -0.0464
 9990WAT      O40679   4.240   7.017   2.981 -0.6728 -0.5385  0.1526
 9990WAT     H140680   4.169   7.007   3.031 -1.6996  1.6082 -0.7731
 9990WAT     H240681   4.296   7.059   3.033 -0.8264 -0.4390  0.2388
 9990WAT    EPW40682   4.238   7.022   2.996 -0.8471 -0.2067  0.0286
 9991WAT      O40683   7.128   4.831   5.442 -0.4512 -0.4994 -0.6341
 9991WAT     H140684   7.156   4.913   5.445  0.0371 -0.6639 -0.5475
 9991WAT     H240685   7.052   4.836   5.399  1.0481 -0.4008 -3.4584
 9991WAT    EPW40686   7.121   4.844   5.436 -0.1576 -0.5091 -1.0385
 9992WAT      O40687   1.306   1.463   0.697 -0.3254 -0.4613  0.3034
 9992WAT     H140688   1.230   1.499   0.718  0.0690  1.5904 -1.3836
 9992WAT     H240689   1.365   1.524   0.718  0.3907  0.0410 -2.6406
 9992WAT    EPW40690   1.304   1.477   0.703 -0.1613 -0.0840 -0.3807
 9993WAT      O40691   0.851   0.673   7.340  0.0165 -0.4890 -0.2858
 9993WAT     H140692   0.848   0.637   7.261 -1.0694 -0.7375 -0.1460
 9993WAT     H240693   0.840   0.606   7.394 -2.0270 -0.0218 -0.0263
 9993WAT    EPW40694   0.849   0.658   7.336 -0.4458 -0.4567 -0.2268
 9994WAT      O40695   4.313   7.175   4.817  0.1881  0.0368 -0.1824
 9994WAT     H140696   4.251   7.125   4.852  0.2219  0.5339  0.6311
 9994WAT     H240697   4.347   7.126   4.754 -0.5262 -0.5271 -0.1338
 9994WAT    EPW40698   4.309   7.160   4.813  0.0876  0.0269 -0.0550
 9995WAT      O40699   2.544   4.872   5.004  0.7504  0.3183  0.5233
 9995WAT     H140700   2.561   4.888   4.920 -1.1570  1.8766  0.3585
 9995WAT     H240701   2.595   4.803   5.022  1.2140 -0.0803 -1.8865
 9995WAT    EPW40702   2.554   4.864   4.994  0.5371  0.4896  0.1430
 9996WAT      O40703   2.088   3.133   2.424  0.2344  0.1561  0.5444
 9996WAT     H140704   2.028   3.072   2.408  0.2563  0.2992 -0.0744
 9996WAT     H240705   2.133   3.099   2.491  1.8030 -1.6705 -1.2902
 9996WAT    EPW40706   2.086   3.119   2.432  0.4694 -0.0926  0.1820
 9997WAT      O40707   5.373   1.258   6.340  0.2895  0.4313  0.0050
 9997WAT     H140708   5.311   1.278   6.283 -0.7883  0.8289  1.2587
 9997WAT     H240709   5.383   1.171   6.331 -0.4412  0.3711 -0.2226
 9997WAT    EPW40710   5.365   1.248   6.330  0.0223  0.4811  0.1565
 9998WAT      O40711   1.076   6.962   0.833  0.6453 -0.2118 -0.0416
 9998WAT     H140712   1.082   7.022   0.770 -1.0488 -0.0874 -0.1334
 9998WAT     H240713   1.152   6.968   0.875 -0.0800  3.3042  1.0921
 9998WAT    EPW40714   1.088   6.972   0.830  0.2879  0.3259  0.1123
 9999WAT      O40715   1.407   0.478   1.203  0.1066  0.1228  0.0503
 9999WAT     H140716   1.331   0.437   1.207 -0.3287  0.7610 -1.2718
 9999WAT     H240717   1.385   0.561   1.184  1.0683  0.5450  0.6734
 9999WAT    EPW40718   1.393   0.484   1.201  0.1843  0.2795 -0.0530
10000WAT      O40719   3.398   5.419   4.579 -0.1851  0.2352  0.5434
10000WAT     H140720   3.363   5.399   4.656  0.0950  0.8515  0.8414
10000WAT     H240721   3.333   5.403   4.522  0.3318 -2.4743  0.5961
10000WAT    EPW40722   3.383   5.414   4.582 -0.0674 -0.0740  0.5952
10001WAT      O40723   2.374   5.420   3.093  0.3945 -0.2516 -0.7879
10001WAT     H140724   2.456   5.392   3.101  0.0510 -0.9172  1.0977
10001WAT     H240725   2.327   5.354   3.124 -0.5567  1.6579  2.3614
10001WAT    EPW40726   2.379   5.406   3.099  0.2032 -0.0679 -0.0441
10002WAT      O40727   2.289   1.870   2.387  0.2233  0.1219 -0.2142
10002WAT     H140728   2.341   1.940   2.382  1.4709 -0.7111  0.5578
10002WAT     H240729   2.216   1.895   2.346  0.9671  1.5663 -0.7010
10002WAT    EPW40730   2.286   1.884   2.380  0.5175  0.2122 -0.1721
10003WAT      O40731   4.659   1.795   3.758 -0.0546 -0.6082 -0.2194
10003WAT     H140732   4.579   1.767   3.737 -0.4458  0.0063  0.3938
10003WAT     H240733   4.675   1.754   3.834  1.1222 -2.4036 -1.3670
10003WAT    EPW40734   4.649   1.784   3.766  0.0615 -0.7826 -0.2983
10004WAT      O40735   1.500   2.633   5.298 -0.4772 -0.1542  0.0998
10004WAT     H140736   1.541   2.680   5.237 -2.6473  2.6080  0.5552
10004WAT     H240737   1.558   2.628   5.363  0.7723 -0.4913 -0.9948
10004WAT    EPW40738   1.514   2.639   5.298 -0.6132  0.2040  0.0054
10005WAT      O40739   0.524   4.143   1.002 -0.3115 -0.3519 -0.0201
10005WAT     H140740   0.604   4.177   1.002 -0.1815 -0.6619  0.1745
10005WAT     H240741   0.473   4.213   1.011 -0.0947 -0.0832 -0.8038
10005WAT    EPW40742   0.528   4.159   1.003 -0.2603 -0.3580 -0.1071
10006WAT      O40743   1.346   0.009   0.640  0.7600  0.3545  0.8250
10006WAT     H140744   1.355   0.030   0.724 -0.7456 -1.4042  1.4957
10006WAT     H240745   1.378  -0.072   0.636 -0.8910 -0.2965  0.1500
10006WAT    EPW40746   1.352   0.000   0.652  0.2937 -0.0015  0.8244
10007WAT      O40747   6.183   5.832   2.116 -0.0972  0.6634 -0.3709
10007WAT     H140748   6.137   5.765   2.084 -1.1277  0.5444  1.2812
10007WAT     H240749   6.264   5.799   2.123 -0.8025 -0.8391  1.4576
10007WAT    EPW40750   6.188   5.817   2.112 -0.3536  0.4239  0.1432
10008WAT      O40751   0.303   4.727   7.042  0.0773 -0.8373 -0.1337
10008WAT     H140752   0.258   4.781   6.990 -0.3666 -0.1853  0.9015
10008WAT     H240753   0.386   4.755   7.034  0.0620 -0.9336 -0.6994
10008WAT    EPW40754   0.309   4.739   7.033  0.0095 -0.7552 -0.0643
10009WAT      O40755   6.479   4.935   5.279 -0.2000 -0.1204 -1.5464
10009WAT     H140756   6.516   4.945   5.201  2.3049  0.0410 -0.4191
10009WAT     H240757   6.527   4.873   5.318 -1.4009 -0.2416 -0.1251
10009WAT    EPW40758   6.491   4.927   5.273 -0.0074 -0.1145 -1.1699
10010WAT      O40759   6.085   3.663   5.802  0.3970 -0.6437 -0.5827
10010WAT     H140760   6.137   3.594   5.794  1.1027 -0.1489 -0.3523
10010WAT     H240761   6.135   3.723   5.841 -0.4783 -0.3072  0.0755
10010WAT    EPW40762   6.100   3.662   5.807  0.3719 -0.5209 -0.4514
10011WAT      O40763   3.120   6.543   2.438  0.3536 -0.2882 -0.1720
10011WAT     H140764   3.128   6.612   2.491 -0.5285  1.6961 -2.4588
10011WAT     H240765   3.126   6.578   2.358 -0.3890 -2.8474 -1.4391
10011WAT    EPW40766   3.122   6.558   2.434  0.1136 -0.3731 -0.6970
10012WAT      O40767   2.682   1.375   6.772  0.3698 -0.0338  0.5948
10012WAT     H140768   2.746   1.425   6.805  0.5512  0.3566 -0.3040
10012WAT     H240769   2.681   1.306   6.825 -0.6723  1.4048  2.5913
10012WAT    EPW40770   2.692   1.372   6.785  0.2426  0.2364  0.7570
10013WAT      O40771   1.648   5.819   4.913  0.5985 -0.1004 -0.1277
10013WAT     H140772   1.625   5.814   4.997 -1.1795 -0.0573 -0.5659
10013WAT     H240773   1.572   5.834   4.872  1.6013  1.1366 -1.6288
10013WAT    EPW40774   1.633   5.820   4.919  0.4840  0.0887 -0.4142
10014WAT      O40775   6.069   6.995   1.299  0.0461  0.3057 -0.1975
10014WAT     H140776   6.079   7.052   1.233 -0.8229 -0.2047 -0.7941
10014WAT     H240777   6.144   6.951   1.299  0.4632  0.9971 -0.1671
10014WAT    EPW40778   6.081   6.997   1.289 -0.0207  0.3324 -0.2811
10015WAT      O40779   6.977   0.872   4.902  0.1952 -0.2090  0.0996
10015WAT     H140780   7.007   0.878   4.983 -1.2678 -0.4963  0.6842
10015WAT     H240781   7.050   0.872   4.853  1.0978 -0.2273  1.4030
10015WAT    EPW40782   6.992   0.873   4.906  0.1124 -0.2542  0.3785
10016WAT      O40783   2.705   4.904   1.408 -0.8132  0.5755  0.2694
10016WAT     H140784   2.682   4.909   1.492 -2.5615  0.1884 -0.1416
10016WAT     H240785   2.726   4.820   1.397 -1.1394  0.5043  0.1901
10016WAT    EPW40786   2.705   4.892   1.419 -1.1197  0.5078  0.1969
10017WAT      O40787   1.614   0.067   4.841  0.2907 -0.3926  0.5406
10017WAT     H140788   1.616   0.117   4.770 -2.5266 -2.1166 -0.9589
10017WAT     H240789   1.588   0.121   4.904 -0.6921  0.4657 -0.5673
10017WAT    EPW40790   1.610   0.082   4.840 -0.2706 -0.5205  0.1554
10018WAT      O40791   1.653   5.523   1.958  0.3537 -0.3040  0.0053
10018WAT     H140792   1.721   5.543   2.009  0.5494 -1.7668  0.3648
10018WAT     H240793   1.675   5.445   1.924 -0.8093 -0.4481 -0.4670
10018WAT    EPW40794   1.667   5.514   1.960  0.2108 -0.5413 -0.0114
10019WAT      O40795   2.261   4.887   1.440 -0.4193 -0.0496  0.3828
10019WAT     H140796   2.299   4.922   1.510  0.5603 -2.3307  1.1096
10019WAT     H240797   2.186   4.931   1.432 -0.0796  0.9458  2.2444
10019WAT    EPW40798   2.256   4.898   1.449 -0.2244 -0.2395  0.7652
10020WAT      O40799   6.577   1.443   3.819 -0.8128  0.1317 -0.1263
10020WAT     H140800   6.533   1.413   3.750 -0.5304  0.2411 -0.3548
10020WAT     H240801   6.612   1.518   3.791 -0.1498 -0.1492 -0.0823
10020WAT    EPW40802   6.576   1.449   3.804 -0.6731  0.1064 -0.1535
10021WAT      O40803   5.891   4.370   5.693  0.2512  0.0170  0.1205
10021WAT     H140804   5.807   4.349   5.705  0.7746 -2.3060  0.0707
10021WAT     H240805   5.923   4.375   5.774  0.2670 -0.0174  0.1164
10021WAT    EPW40806   5.883   4.368   5.707  0.3308 -0.3312  0.1126
10022WAT      O40807   4.849   6.778   2.792 -0.0044  0.3986  0.1360
10022WAT     H140808   4.863   6.863   2.780  0.8183  0.3656  0.8213
10022WAT     H240809   4.927   6.747   2.815 -0.3065 -0.5365 -0.0644
10022WAT    EPW40810   4.862   6.786   2.794  0.0725  0.2556  0.2076
10023WAT      O40811   4.223   6.057   4.150  0.1777 -1.0610 -0.5909
10023WAT     H140812   4.298   6.100   4.141  0.3741 -1.4002 -0.5738
10023WAT     H240813   4.217   6.044   4.236 -0.2133 -0.4824 -0.5224
10023WAT    EPW40814   4.233   6.061   4.161  0.1490 -1.0256 -0.5782
10024WAT      O40815   4.154   0.365   5.323 -0.8968  0.0466 -0.5238
10024WAT     H140816   4.125   0.307   5.381 -1.5576 -0.5396 -1.4237
10024WAT     H240817   4.233   0.388   5.355 -1.4174  0.0673  0.8119
10024WAT    EPW40818   4.162   0.360   5.337 -1.0713 -0.0370 -0.4594
10025WAT      O40819   1.111   2.323   6.518 -0.2323  0.3303  0.8522
10025WAT     H140820   1.088   2.370   6.449 -2.2071 -1.2667  0.3269
10025WAT     H240821   1.198   2.317   6.511 -0.0693  2.5163  0.1306
10025WAT    EPW40822   1.121   2.329   6.507 -0.5000  0.4173  0.6680
10026WAT      O40823   0.982   1.163   3.117 -0.1308  0.3549  0.4528
10026WAT     H140824   1.010   1.088   3.083 -1.1476  0.2655 -0.2270
10026WAT     H240825   0.915   1.139   3.168 -0.1388  0.7525  0.6367
10026WAT    EPW40826   0.976   1.148   3.120 -0.2822  0.4004  0.3796
10027WAT      O40827   2.950   5.044   5.498 -0.0032  0.5369 -0.5532
10027WAT     H140828   2.973   5.128   5.501 -0.9331  0.8106 -0.6741
10027WAT     H240829   2.906   5.032   5.573  0.0542  0.1771 -0.5721
10027WAT    EPW40830   2.947   5.055   5.509 -0.1321  0.5242 -0.5738
10028WAT      O40831   3.185   6.394   7.027 -0.0484  0.1098 -0.3837
10028WAT     H140832   3.171   6.400   7.113 -2.3230  0.4685 -0.7132
10028WAT     H240833   3.210   6.311   7.016  1.1532  0.2917  0.6916
10028WAT    EPW40834   3.186   6.383   7.038 -0.2069  0.1896 -0.2735
10029WAT      O40835   0.989   6.318   2.806  0.0481  0.1441  0.2755
10029WAT     H140836   0.984   6.259   2.870  0.7073  0.0822  0.2779
10029WAT     H240837   1.064   6.360   2.822 -0.5506  1.1853  0.4425
10029WAT    EPW40838   1.000   6.316   2.818  0.0571  0.2888  0.3005
10030WAT      O40839   1.357   6.669   4.710 -0.0394 -0.1755 -0.0745
10030WAT     H140840   1.370   6.755   4.720  1.6373 -0.0301 -2.5221
10030WAT     H240841   1.303   6.665   4.641  1.2401 -1.0240 -1.0816
10030WAT    EPW40842   1.351   6.681   4.701  0.3973 -0.2793 -0.5848
10031WAT      O40843   1.426   5.539   0.820  0.5303  0.1079 -0.0333
10031WAT     H140844   1.416   5.461   0.782  0.0671  0.8038 -1.3932
10031WAT     H240845   1.416   5.595   0.755 -0.9637  1.4048  1.2459
10031WAT    EPW40846   1.423   5.536   0.805  0.2412  0.4023 -0.0452
10032WAT      O40847   3.520   4.774   1.276 -0.2037  0.3621  0.2703
10032WAT     H140848   3.442   4.739   1.290  0.2524 -0.5282  0.6472
10032WAT     H240849   3.538   4.753   1.194  0.3941 -0.9678  0.7234
10032WAT    EPW40850   3.511   4.766   1.266 -0.0480  0.0341  0.3929
10033WAT      O40851   4.000   6.896   6.765  0.5505  0.4377  0.3574
10033WAT     H140852   3.915   6.912   6.754  0.4009 -0.3056  0.3656
10033WAT     H240853   4.033   6.974   6.787 -0.2292  0.6121  0.9763
10033WAT    EPW40854   3.992   6.910   6.767  0.4133  0.3537  0.4501
10034WAT      O40855   0.003   3.626   4.385 -0.5478  0.2662  0.1437
10034WAT     H140856   0.043   3.665   4.318 -0.8785  0.2356 -0.0748
10034WAT     H240857   0.026   3.543   4.377 -0.1429  0.3510  0.3916
10034WAT    EPW40858   0.012   3.620   4.374 -0.5368  0.2742  0.1480
10035WAT      O40859   2.764   0.974   0.578 -0.3000  0.6518 -0.7435
10035WAT     H140860   2.682   0.974   0.608 -0.4188  0.4992 -1.0614
10035WAT     H240861   2.799   1.046   0.612 -0.2865  0.2348  0.1467
10035WAT    EPW40862   2.757   0.984   0.587 -0.3155  0.5676 -0.6590
10036WAT      O40863   2.312   0.264   4.778  0.7040 -0.3226  0.2120
10036WAT     H140864   2.331   0.329   4.833  0.5552 -0.5363  0.5163
10036WAT     H240865   2.319   0.301   4.700 -0.1073  0.2625  0.4010
10036WAT    EPW40866   2.316   0.279   4.775  0.5622 -0.2677  0.2848
10037WAT      O40867   0.111   6.400   5.103 -0.6821 -0.3022  0.0725
10037WAT     H140868   0.150   6.357   5.168  1.2311  1.0920 -0.0898
10037WAT     H240869   0.141   6.361   5.031  0.7134  0.9443 -0.0607
10037WAT    EPW40870   0.121   6.388   5.102 -0.1934  0.0879  0.0289
10038WAT      O40871   0.968   6.862   4.689 -0.1565 -0.4731  0.1678
10038WAT     H140872   0.992   6.846   4.606  0.1241 -0.1145  0.1776
10038WAT     H240873   0.958   6.782   4.723  0.1391 -0.6263 -0.0959
10038WAT    EPW40874   0.970   6.847   4.682 -0.0714 -0.4427  0.1303
10039WAT      O40875   5.257   4.671   5.452  0.1521 -0.3605 -0.3540
10039WAT     H140876   5.296   4.743   5.422 -1.2636  0.5675 -0.0669
10039WAT     H240877   5.282   4.609   5.395  1.6027  0.2651 -0.4567
10039WAT    EPW40878   5.267   4.672   5.439  0.1572 -0.1310 -0.3268
10040WAT      O40879   6.577   0.765   5.911 -0.0257  0.0151 -0.1329
10040WAT     H140880   6.522   0.716   5.959  2.3967 -1.1605  1.6544
10040WAT     H240881   6.563   0.738   5.829 -0.6242 -1.8159  0.5188
10040WAT    EPW40882   6.567   0.754   5.906  0.2437 -0.4290  0.2274
10041WAT      O40883   2.251   1.389   3.773  0.1168  0.3089 -0.0178
10041WAT     H140884   2.235   1.306   3.794 -2.0588 -0.3237 -3.3440
10041WAT     H240885   2.319   1.383   3.718  0.9674  0.9866  0.9190
10041WAT    EPW40886   2.259   1.376   3.768 -0.0789  0.3155 -0.3708
10042WAT      O40887   3.491   4.463   0.274  0.4915  0.6433 -0.4920
10042WAT     H140888   3.562   4.425   0.239 -1.1323 -3.1090 -0.1578
10042WAT     H240889   3.524   4.530   0.319  3.8003 -0.6627 -0.6806
10042WAT    EPW40890   3.506   4.467   0.275  0.7404 -0.1039 -0.4705
10043WAT      O40891   7.130   5.670   5.749  0.1593  0.2422 -0.1814
10043WAT     H140892   7.192   5.609   5.754  1.9430  1.8875 -1.0797
10043WAT     H240893   7.139   5.703   5.669 -1.3303  1.0893 -0.0353
10043WAT    EPW40894   7.141   5.666   5.738  0.2028  0.6104 -0.2925
10044WAT      O40895   1.080   7.250   5.890  0.2284  0.1802  0.4604
10044WAT     H140896   1.062   7.170   5.859  2.9979 -0.0653 -0.7746
10044WAT     H240897   1.007   7.295   5.873 -0.8490 -1.7024 -0.1853
10044WAT    EPW40898   1.066   7.245   5.883  0.4783 -0.1342  0.1826
10045WAT      O40899   2.160   3.814   3.086 -0.3550 -0.8247  0.4582
10045WAT     H140900   2.195   3.852   3.015 -1.8831 -2.3911 -1.2623
10045WAT     H240901   2.226   3.811   3.143  0.9526  0.4820 -0.8900
10045WAT    EPW40902   2.175   3.819   3.084 -0.3876 -0.8631  0.0049
10046WAT      O40903   4.683   1.164   4.102  0.0886  0.8413  0.1051
10046WAT     H140904   4.666   1.083   4.131  1.9538  0.7234  1.0123
10046WAT     H240905   4.642   1.167   4.025  1.1097 -1.4987 -0.6382
10046WAT    EPW40906   4.674   1.153   4.095  0.5149  0.4782  0.1293
10047WAT      O40907   5.341   5.432   1.479 -0.0543 -0.1470  0.1344
10047WAT     H140908   5.374   5.383   1.416  0.7661 -0.3606  0.7139
10047WAT     H240909   5.301   5.374   1.531 -1.3671  0.1041 -0.5467
10047WAT    EPW40910   5.340   5.416   1.478 -0.1270 -0.1415  0.1194
10048WAT      O40911   6.694   6.444   6.707 -0.3832  0.5557 -0.3703
10048WAT     H140912   6.650   6.518   6.721 -0.6917  0.2382  0.3783
10048WAT     H240913   6.760   6.470   6.656  0.4092  1.6713  1.1237
10048WAT    EPW40914   6.697   6.459   6.701 -0.3117  0.6736 -0.0391
10049WAT      O40915   6.274   7.039   3.777 -0.2991  0.3652 -0.2649
10049WAT     H140916   6.305   7.084   3.709 -0.0363 -0.9872 -1.0655
10049WAT     H240917   6.272   7.099   3.841  1.9482  1.0698 -0.7412
10049WAT    EPW40918   6.278   7.055   3.777  0.0717  0.2695 -0.4535
10050WAT      O40919   1.374   0.723   4.302 -0.2208 -0.0342 -0.2457
10050WAT     H140920   1.353   0.642   4.278 -0.6039 -0.5267  1.5807
10050WAT     H240921   1.296   0.762   4.310  0.0040  0.9724 -2.4594
10050WAT    EPW40922   1.359   0.717   4.300 -0.2442  0.0417 -0.3029
10051WAT      O40923   2.585   4.066   5.846 -0.2462  0.6401 -0.0359
10051WAT     H140924   2.548   4.142   5.826  0.8771  1.6545  1.4415
10051WAT     H240925   2.518   4.016   5.870 -0.9034  1.6330  0.2813
10051WAT    EPW40926   2.570   4.070   5.847 -0.1773  0.9366  0.2292
10052WAT      O40927   0.732   3.939   3.709 -0.5244  0.3022 -0.0923
10052WAT     H140928   0.654   3.943   3.671 -1.0593  1.4347  1.0619
10052WAT     H240929   0.778   4.002   3.668 -0.6082  0.4678  0.0674
10052WAT    EPW40930   0.727   3.949   3.697 -0.6158  0.4940  0.1018
10053WAT      O40931   0.031   3.786   5.673 -0.1262  0.2751 -0.2932
10053WAT     H140932   0.114   3.808   5.688 -0.9449  3.9627 -0.2821
10053WAT     H240933   0.027   3.775   5.587  0.0750  1.9993 -0.5588
10053WAT    EPW40934   0.042   3.787   5.663 -0.2174  1.0745 -0.3308
10054WAT      O40935   2.392   4.269   4.142 -0.2312 -0.8341 -0.4492
10054WAT     H140936   2.343   4.221   4.087 -0.5036 -0.3939 -0.6003
10054WAT     H240937   2.336   4.292   4.204 -1.0610  2.1279 -2.0936
10054WAT    EPW40938   2.376   4.265   4.143 -0.3940 -0.3315 -0.7144
10055WAT      O40939   4.512   2.381   2.418  0.0808  0.0990  0.1911
10055WAT     H140940   4.548   2.430   2.481  0.4954  0.3370 -0.2165
10055WAT     H240941   4.581   2.341   2.382  0.1363  1.5210 -1.4236
10055WAT    EPW40942   4.528   2.383   2.422  0.1503  0.3442 -0.1076
10056WAT      O40943   0.859   3.508   2.301 -0.3351  0.6482 -0.3357
10056WAT     H140944   0.813   3.441   2.270  1.1535  0.0341 -1.3320
10056WAT     H240945   0.814   3.533   2.372 -0.4685 -1.9969  0.6162
10056WAT    EPW40946   0.846   3.502   2.307 -0.1349  0.1668 -0.3422
10057WAT      O40947   4.375   2.832   4.602 -0.6180  0.6752  0.3102
10057WAT     H140948   4.313   2.795   4.651 -1.7015  0.4701 -1.1121
10057WAT     H240949   4.341   2.829   4.521  1.0763  0.9679 -0.4634
10057WAT    EPW40950   4.361   2.826   4.597 -0.5277  0.6882 -0.0142
10058WAT      O40951   6.668   5.073   6.268 -0.7768 -0.2755  0.3607
10058WAT     H140952   6.720   5.078   6.337 -1.2415 -0.3405  0.7179
10058WAT     H240953   6.599   5.121   6.291 -0.3562  0.8267 -0.5796
10058WAT    EPW40954   6.666   5.081   6.281 -0.7833 -0.1223  0.2746
10059WAT      O40955   3.665   7.100   2.290  0.6709  0.2267  0.4227
10059WAT     H140956   3.695   7.154   2.352  1.2876 -0.0695  0.3898
10059WAT     H240957   3.666   7.022   2.329 -0.8313  0.2991  0.6870
10059WAT    EPW40958   3.669   7.097   2.305  0.5401  0.1936  0.4569
10060WAT      O40959   3.740   3.154   7.264 -0.4788  0.0782 -0.6724
10060WAT     H140960   3.742   3.192   7.343  1.1315  0.2175 -0.7473
10060WAT     H240961   3.717   3.219   7.211 -0.9516  0.1365 -0.4022
10060WAT    EPW40962   3.737   3.170   7.268 -0.3108  0.1074 -0.6435
10061WAT      O40963   7.029   6.967   5.569 -0.0358 -0.1007 -0.0686
10061WAT     H140964   7.067   6.947   5.645  1.7300  0.9938 -0.5913
10061WAT     H240965   6.945   6.980   5.590  0.3425 -0.2238  1.6060
10061WAT    EPW40966   7.022   6.966   5.583  0.2809  0.0428  0.1015
10062WAT      O40967   3.259   6.649   1.478 -0.0728 -0.7708  0.0531
10062WAT     H140968   3.334   6.605   1.487 -1.4079 -3.2910 -0.3498
10062WAT     H240969   3.280   6.714   1.424  1.1173 -3.5248 -3.1529
10062WAT    EPW40970   3.273   6.652   1.472 -0.0942 -1.5499 -0.4800
10063WAT      O40971   6.627   6.700   1.033  0.3787 -0.4895  0.1527
10063WAT     H140972   6.618   6.696   1.120 -0.1435 -0.0053  0.1266
10063WAT     H240973   6.554   6.739   1.006  1.0658  0.4513 -0.4050
10063WAT    EPW40974   6.615   6.705   1.042  0.4030 -0.2790  0.0665
10064WAT      O40975   5.789   2.193   3.242 -0.3648 -0.5945 -0.0590
10064WAT     H140976   5.769   2.176   3.159  2.1329 -0.2387 -0.8120
10064WAT     H240977   5.790   2.280   3.246  3.8925 -0.3964 -1.0156
10064WAT    EPW40978   5.786   2.203   3.230  0.6331 -0.5127 -0.3115
10065WAT      O40979   5.282   4.038   4.306  0.1907 -0.0102  0.5203
10065WAT     H140980   5.324   4.039   4.382 -0.8959 -1.5310  1.1945
10065WAT     H240981   5.250   3.957   4.301 -1.8995  0.7902 -0.3477
10065WAT    EPW40982   5.283   4.026   4.316 -0.2786 -0.1166  0.4916
10066WAT      O40983   4.605   2.778   0.794  0.1535 -0.0739 -0.0777
10066WAT     H140984   4.630   2.844   0.743  1.0540 -0.2620  0.0970
10066WAT     H240985   4.527   2.802   0.823 -0.4323  0.0027 -1.6139
10066WAT    EPW40986   4.597   2.791   0.790  0.2000 -0.0904 -0.2788
10067WAT      O40987   1.707   4.111   4.029 -0.1799  0.1830 -0.5867
10067WAT     H140988   1.658   4.177   3.998  0.6949  0.8432 -0.6040
10067WAT     H240989   1.767   4.152   4.078 -0.8092 -0.7477  1.0300
10067WAT    EPW40990   1.708   4.127   4.032 -0.1436  0.1431 -0.3505
10068WAT      O40991   6.376   6.929   3.390 -0.7539 -0.5901 -0.1292
10068WAT     H140992   6.435   6.911   3.451  0.0082  0.1627 -0.6261
10068WAT     H240993   6.327   6.991   3.427  1.0278  1.4697 -0.9973
10068WAT    EPW40994   6.377   6.935   3.404 -0.3781 -0.1746 -0.3308
10069WAT      O40995   1.075   1.782   4.869 -0.0620 -0.4566  0.1252
10069WAT     H140996   0.988   1.778   4.865  0.0057 -2.0290 -0.6034
10069WAT     H240997   1.100   1.699   4.858  1.6158  0.2788 -3.0747
10069WAT    EPW40998   1.066   1.769   4.867  0.1958 -0.5802 -0.4551
10070WAT      O40999   3.918   1.158   5.292 -0.0099 -0.6140 -0.7745
10070WAT     H141000   3.994   1.199   5.277  0.3583 -0.9649  0.0654
10070WAT     H241001   3.942   1.086   5.336 -0.7783 -1.0072 -0.9862
10070WAT    EPW41002   3.933   1.154   5.296 -0.0691 -0.7239 -0.6817
10071WAT      O41003   2.752   5.941   0.210  0.2996  0.5330 -0.2037
10071WAT     H141004   2.710   6.015   0.191  0.8996  0.8371 -0.3922
10071WAT     H241005   2.768   5.905   0.132 -0.2272  0.0627 -0.1001
10071WAT    EPW41006   2.748   5.947   0.196  0.3104  0.5085 -0.2162
10072WAT      O41007   6.464   4.893   4.443 -0.4537 -0.7466 -0.5484
10072WAT     H141008   6.518   4.874   4.509 -1.2838 -0.1433  0.3335
10072WAT     H241009   6.397   4.839   4.455 -0.5666 -0.6993 -0.9552
10072WAT    EPW41010   6.462   4.883   4.454 -0.5930 -0.6505 -0.4782
10073WAT      O41011   6.475   5.762   1.242 -0.8055 -0.0135 -0.0242
10073WAT     H141012   6.477   5.788   1.326 -0.8205  0.9076 -0.2978
10073WAT     H241013   6.557   5.772   1.215 -0.5333 -1.4285  0.1851
10073WAT    EPW41014   6.487   5.767   1.251 -0.7675 -0.0865 -0.0337
10074WAT      O41015   1.134   3.605   7.380 -0.7326  0.4802 -0.0398
10074WAT     H141016   1.089   3.554   7.436  0.6221 -0.0783  0.6004
10074WAT     H241017   1.201   3.554   7.356  1.2221  2.2289  1.3558
10074WAT    EPW41018   1.137   3.590   7.385 -0.2437  0.6560  0.2609
10075WAT      O41019   6.087   4.436   1.031 -0.8569 -0.3390 -0.3983
10075WAT     H141020   6.170   4.448   1.058 -1.1146  0.3700  0.1058
10075WAT     H241021   6.094   4.435   0.944 -0.5660  1.9264 -0.4565
10075WAT    EPW41022   6.101   4.438   1.022 -0.8520  0.1004 -0.3325
10076WAT      O41023   2.029   6.396   7.092  0.0757  0.2970  0.6293
10076WAT     H141024   1.954   6.358   7.072 -0.2490  0.8611  0.7445
10076WAT     H241025   2.089   6.348   7.051 -0.4839  0.8809 -0.9416
10076WAT    EPW41026   2.027   6.383   7.083 -0.0549  0.4666  0.4142
10077WAT      O41027   5.232   4.355   6.265 -0.0506  0.6575 -0.4821
10077WAT     H141028   5.219   4.430   6.222 -0.6527  0.5525 -0.4965
10077WAT     H241029   5.278   4.307   6.209 -1.0558  0.4243 -1.1313
10077WAT    EPW41030   5.236   4.359   6.251 -0.2880  0.6075 -0.5801
10078WAT      O41031   1.022   6.813   5.520 -0.3710 -0.2139 -0.7683
10078WAT     H141032   0.999   6.848   5.443 -0.5053  0.8384 -0.2728
10078WAT     H241033   1.108   6.804   5.514 -0.5349 -1.4990 -1.5682
10078WAT    EPW41034   1.031   6.817   5.507 -0.4151 -0.2483 -0.8133
10079WAT      O41035   6.884   1.924   0.347 -0.2061  0.3265  0.2430
10079WAT     H141036   6.835   1.982   0.390 -0.8342 -1.1343  1.5878
10079WAT     H241037   6.965   1.942   0.373 -0.5060 -0.0735  1.5345
10079WAT    EPW41038   6.889   1.936   0.357 -0.3432  0.0516  0.6324
10080WAT      O41039   5.246   4.556   4.616  0.4505  0.3215 -0.2654
10080WAT     H141040   5.277   4.630   4.582  0.8834 -0.0748 -0.7632
10080WAT     H241041   5.164   4.576   4.639  0.8581  1.2012  0.4530
10080WAT    EPW41042   5.238   4.570   4.614  0.5746  0.3929 -0.2328
10081WAT      O41043   1.779   2.376   6.957  0.1038 -0.2834  0.1231
10081WAT     H141044   1.801   2.438   7.014 -2.3740 -0.3634  1.3070
10081WAT     H241045   1.800   2.302   6.997 -0.8118 -0.3087  0.5822
10081WAT    EPW41046   1.786   2.374   6.971 -0.3975 -0.2990  0.3658
10082WAT      O41047   6.191   2.483   5.691  0.3120  0.6869  0.0969
10082WAT     H141048   6.161   2.502   5.771 -1.5378  0.0064 -0.4051
10082WAT     H241049   6.273   2.457   5.707  0.3857  1.6721  1.6265
10082WAT    EPW41050   6.199   2.482   5.705  0.0496  0.7319  0.2487
10083WAT      O41051   1.873   5.657   4.336 -0.0708 -0.1077 -0.2643
10083WAT     H141052   1.798   5.661   4.380  0.3716  0.5228  0.4708
10083WAT     H241053   1.915   5.730   4.361 -0.1607  0.7311 -2.4062
10083WAT    EPW41054   1.868   5.668   4.346 -0.0187  0.1094 -0.4721
10084WAT      O41055   6.018   2.219   2.352  0.3491 -0.1752  0.4065
10084WAT     H141056   6.038   2.269   2.420  1.1944 -2.1707  1.7080
10084WAT     H241057   6.088   2.167   2.342 -1.1065 -2.2618  0.2693
10084WAT    EPW41058   6.031   2.218   2.361  0.2590 -0.7782  0.5785
10085WAT      O41059   0.568   7.266   3.340  0.0129 -0.0033  0.0551
10085WAT     H141060   0.553   7.204   3.280  0.6425 -2.7357  2.4633
10085WAT     H241061   0.489   7.287   3.369 -0.1699 -0.2943 -0.2324
10085WAT    EPW41062   0.554   7.260   3.336  0.0789 -0.4499  0.3684
10086WAT      O41063   2.531   1.510   2.755  0.1426 -0.7745 -0.3177
10086WAT     H141064   2.499   1.563   2.693  1.4860 -0.1801 -0.5395
10086WAT     H241065   2.464   1.457   2.772 -1.4478  1.2558  0.2520
10086WAT    EPW41066   2.516   1.510   2.748  0.1061 -0.3868 -0.2663
10087WAT      O41067   6.952   3.888   6.495 -0.3577 -0.2039  0.3191
10087WAT     H141068   6.935   3.940   6.427  0.5767 -0.4697 -0.1316
10087WAT     H241069   6.920   3.810   6.469 -1.1577 -0.0253  0.7244
10087WAT    EPW41070   6.945   3.884   6.481 -0.3378 -0.2168  0.3124
10088WAT      O41071   4.662   0.494   1.613  0.2718 -0.0738  0.5922
10088WAT     H141072   4.684   0.540   1.542  0.1228 -0.1615  0.4863
10088WAT     H241073   4.700   0.416   1.599 -0.8150 -0.5176 -0.0155
10088WAT    EPW41074   4.671   0.489   1.600  0.0892 -0.1523  0.4868
10089WAT      O41075   4.766   5.354   6.909 -0.3263 -0.4910 -0.2330
10089WAT     H141076   4.839   5.332   6.868 -0.4006 -0.8907 -0.1606
10089WAT     H241077   4.703   5.337   6.851 -0.4943 -1.7812  0.2818
10089WAT    EPW41078   4.767   5.348   6.895 -0.3621 -0.7406 -0.1463
10090WAT      O41079   5.830   3.257   3.543  0.3067  0.3362 -0.1325
10090WAT     H141080   5.891   3.255   3.605  1.3127  0.4980 -1.0805
10090WAT     H241081   5.791   3.334   3.556 -0.7118 -0.3869  1.3854
10090WAT    EPW41082   5.833   3.268   3.554  0.3049  0.2533 -0.0483
10091WAT      O41083   2.328   3.401   3.150  0.0703  0.0762 -0.1956
10091WAT     H141084   2.261   3.397   3.095 -0.9628 -2.6443  1.0919
10091WAT     H241085   2.297   3.448   3.217 -0.1648 -0.2220 -0.0945
10091WAT    EPW41086   2.314   3.407   3.152 -0.1171 -0.3697  0.0095
10092WAT      O41087   2.120   2.083   4.083  0.1145  0.0327 -0.1573
10092WAT     H141088   2.161   2.149   4.043  0.6002 -0.8253 -1.1262
10092WAT     H241089   2.127   2.103   4.167 -1.4184  2.1829 -0.4524
10092WAT    EPW41090   2.127   2.096   4.089 -0.0402  0.2236 -0.3440
10093WAT      O41091   3.024   6.639   3.721  0.2922 -0.1650  0.1065
10093WAT     H141092   2.981   6.638   3.797 -0.0366 -2.1741 -0.0436
10093WAT     H241093   3.106   6.618   3.744 -0.1649 -2.5991 -0.1908
10093WAT    EPW41094   3.030   6.636   3.736  0.1761 -0.8214  0.0404
10094WAT      O41095   0.423   6.662   4.390  0.5378  0.0957 -0.0193
10094WAT     H141096   0.495   6.686   4.433 -0.2513  1.6170  0.5323
10094WAT     H241097   0.440   6.685   4.308  1.1233 -0.6405 -0.1167
10094WAT    EPW41098   0.436   6.669   4.384  0.5077  0.2117  0.0478
10095WAT      O41099   1.901   1.212   4.029 -0.1058 -0.5764 -0.1366
10095WAT     H141100   1.924   1.224   4.113  0.1021  1.4942 -0.4227
10095WAT     H241101   1.850   1.142   4.031 -0.8285 -0.0628  1.8921
10095WAT    EPW41102   1.897   1.204   4.042 -0.1818 -0.1946  0.1209
10096WAT      O41103   3.209   1.921   4.940 -0.1121  0.2921  0.6669
10096WAT     H141104   3.251   1.998   4.944  0.6798 -0.0599 -0.3039
10096WAT     H241105   3.137   1.941   4.895  0.7385  0.2470 -0.8021
10096WAT    EPW41106   3.205   1.935   4.934  0.1305  0.2334  0.3065
10097WAT      O41107   6.109   4.170   2.003 -0.0957 -0.0803 -0.7772
10097WAT     H141108   6.167   4.210   1.952 -0.6234  0.1055 -1.2571
10097WAT     H241109   6.123   4.086   1.989  1.5844 -0.1302  0.8791
10097WAT    EPW41110   6.119   4.164   1.993  0.0745 -0.0602 -0.6034
10098WAT      O41111   0.717   5.937   2.248 -0.5209  0.2170 -0.1445
10098WAT     H141112   0.726   5.916   2.164  2.9692  1.5965 -0.2700
10098WAT     H241113   0.655   5.999   2.247 -1.0366 -0.2874 -1.5618
10098WAT    EPW41114   0.709   5.943   2.235 -0.0815  0.3463 -0.3724
10099WAT      O41115   2.073   4.755   3.185  0.4252  0.6905  0.6787
10099WAT     H141116   2.028   4.802   3.127  2.0700  0.6099 -0.7426
10099WAT     H241117   2.155   4.781   3.174  1.3699 -2.0993  0.1763
10099WAT    EPW41118   2.078   4.766   3.175  0.8077  0.2665  0.3945
10100WAT      O41119   2.561   6.672   6.377 -0.6302  0.1605 -0.0550
10100WAT     H141120   2.478   6.700   6.372 -1.4070 -1.5269  1.9283
10100WAT     H241121   2.575   6.664   6.463  0.5795 -2.3723 -0.3903
10100WAT    EPW41122   2.551   6.675   6.389 -0.5662 -0.4629  0.1884
10101WAT      O41123   3.053   1.108   4.231 -0.2475 -0.7539 -0.0131
10101WAT     H141124   3.070   1.172   4.288  2.2015 -1.3567  0.0162
10101WAT     H241125   3.038   1.151   4.156  1.5213 -0.0925 -0.0323
10101WAT    EPW41126   3.053   1.124   4.228  0.3756 -0.7452 -0.0116
10102WAT      O41127   0.953   5.544   6.334 -0.3657  0.1275 -0.7353
10102WAT     H141128   0.894   5.534   6.270 -0.4617  1.1786 -0.8410
10102WAT     H241129   1.024   5.573   6.292 -0.1271 -0.0812 -0.4780
10102WAT    EPW41130   0.955   5.547   6.319 -0.3446  0.2520 -0.7129
10103WAT      O41131   4.783   6.993   6.289  0.0607  0.2670 -0.5761
10103WAT     H141132   4.700   7.018   6.295  0.0779  0.2684 -0.3137
10103WAT     H241133   4.828   7.067   6.306  0.1139  0.2355 -0.5784
10103WAT    EPW41134   4.778   7.008   6.293  0.0711  0.2626 -0.5377
10104WAT      O41135   1.242   3.252   0.286  0.2010 -0.0974 -0.3784
10104WAT     H141136   1.293   3.291   0.227  0.3128  0.6554  0.1852
10104WAT     H241137   1.298   3.218   0.343  0.0885 -0.5065 -0.5060
10104WAT    EPW41138   1.258   3.253   0.286  0.2009 -0.0466 -0.3140
10105WAT      O41139   7.145   7.053   6.158  0.8319  0.0595 -0.3006
10105WAT     H141140   7.143   6.980   6.205  0.5809  0.9525  1.1415
10105WAT     H241141   7.081   7.043   6.100  0.9900 -0.9583 -0.3121
10105WAT    EPW41142   7.136   7.041   6.156  0.8181  0.0411 -0.0893
10106WAT      O41143   4.979   2.319   0.368 -0.5300  0.1694 -0.1873
10106WAT     H141144   4.927   2.376   0.328  0.7394  0.7310 -1.1176
10106WAT     H241145   5.004   2.361   0.440 -1.0336  0.0533  0.0601
10106WAT    EPW41146   4.975   2.333   0.373 -0.4169  0.2352 -0.2882
10107WAT      O41147   0.547   6.365   3.458 -0.1365 -0.1561  1.1634
10107WAT     H141148   0.540   6.291   3.504 -0.6445  0.6011  2.3850
10107WAT     H241149   0.598   6.415   3.508  0.1441  0.3432  0.3889
10107WAT    EPW41150   0.553   6.361   3.472 -0.1701  0.0295  1.2294
10108WAT      O41151   2.897   5.499   4.929 -0.1260  0.4399 -0.0475
10108WAT     H141152   2.898   5.412   4.940 -0.0079  0.5110  0.5167
10108WAT     H241153   2.940   5.509   4.853  0.3283  0.0398  0.1484
10108WAT    EPW41154   2.904   5.488   4.919 -0.0414  0.3913  0.0648
10109WAT      O41155   0.864   1.519   4.641  0.1218 -0.1030  0.4454
10109WAT     H141156   0.895   1.583   4.591 -0.2170  0.1723  0.5794
10109WAT     H241157   0.897   1.536   4.720  2.4153 -1.7426 -0.0747
10109WAT    EPW41158   0.873   1.531   4.645  0.4105 -0.3045  0.3884
10110WAT      O41159   0.630   6.497   4.108  0.3175  0.6159  0.4735
10110WAT     H141160   0.576   6.564   4.090 -0.7883 -0.4666 -0.3758
10110WAT     H241161   0.577   6.429   4.114  1.4061 -0.1770  1.5757
10110WAT    EPW41162   0.614   6.497   4.106  0.3150  0.3389  0.5109
10111WAT      O41163   5.509   4.856   2.616 -0.4688 -0.1225  0.8401
10111WAT     H141164   5.465   4.781   2.609  0.6255 -0.6573 -0.9936
10111WAT     H241165   5.491   4.898   2.541 -0.1682  0.9568  1.3467
10111WAT    EPW41166   5.500   4.851   2.604 -0.2628 -0.0420  0.6441
10112WAT      O41167   0.937   0.766   5.975 -0.4968  0.1115 -0.0707
10112WAT     H141168   0.903   0.812   6.041  1.2960 -0.3830  1.2802
10112WAT     H241169   0.972   0.697   6.015  1.3671  0.2126 -1.4164
10112WAT    EPW41170   0.937   0.763   5.991  0.0434  0.0534 -0.0699
10113WAT      O41171   6.667   1.445   6.024 -0.2642 -0.5572 -0.2077
10113WAT     H141172   6.704   1.406   6.093  0.1340  0.4484  0.1595
10113WAT     H241173   6.679   1.530   6.039 -1.5032 -0.2611 -0.7856
10113WAT    EPW41174   6.674   1.451   6.036 -0.3884 -0.3649 -0.2388
10114WAT      O41175   7.283   3.835   1.634 -0.3422 -0.0706  0.3054
10114WAT     H141176   7.210   3.795   1.611 -0.6010  0.0677  0.8682
10114WAT     H241177   7.292   3.816   1.718  2.2216 -3.1194 -0.4888
10114WAT    EPW41178   7.274   3.826   1.643 -0.0017 -0.5006  0.2712
10115WAT      O41179   2.620   1.302   2.621  0.0855 -0.2834 -0.5756
10115WAT     H141180   2.658   1.318   2.544  1.6150 -1.0009 -0.0201
10115WAT     H241181   2.594   1.381   2.648  1.5975  0.3278 -0.8044
10115WAT    EPW41182   2.622   1.316   2.614  0.5348 -0.2991 -0.5274
10116WAT      O41183   2.514   2.851   4.334  0.4652  0.2907  0.5183
10116WAT     H141184   2.471   2.776   4.320 -1.3576  1.2049  1.0139
10116WAT     H241185   2.595   2.823   4.354  0.6492 -1.4033 -2.0380
10116WAT    EPW41186   2.520   2.836   4.335  0.2231  0.1755  0.2139
10117WAT      O41187   3.268   1.815   1.021  0.0665 -0.5932  0.1742
10117WAT     H141188   3.345   1.854   1.035  0.4024 -1.2586  0.2294
10117WAT     H241189   3.257   1.824   0.935 -0.9570  1.5846  0.4595
10117WAT    EPW41190   3.278   1.822   1.010 -0.0351 -0.3698  0.2245
10118WAT      O41191   0.242   6.331   2.834  0.4233 -0.1747  0.0324
10118WAT     H141192   0.241   6.262   2.887 -0.5817  0.3732  0.7637
10118WAT     H241193   0.327   6.346   2.821  0.7598  0.3057  2.3686
10118WAT    EPW41194   0.254   6.323   2.840  0.3246 -0.0228  0.4855
10119WAT      O41195   0.636   0.827   1.123 -0.1843 -0.5775  0.0974
10119WAT     H141196   0.602   0.836   1.043 -1.4813  0.8985  0.7620
10119WAT     H241197   0.574   0.782   1.166  0.3697 -1.0992  0.3614
10119WAT    EPW41198   0.622   0.821   1.118 -0.2940 -0.4365  0.2346
10120WAT      O41199   7.041   6.836   5.305 -0.1911 -0.4487  0.5368
10120WAT     H141200   7.029   6.883   5.378 -0.4147 -0.2199  0.3561
10120WAT     H241201   7.112   6.871   5.269 -0.1257 -0.5110  0.6050
10120WAT    EPW41202   7.050   6.848   5.311 -0.2145 -0.4241  0.5202
10121WAT      O41203   6.369   6.444   3.991 -0.8426  0.0922 -0.3889
10121WAT     H141204   6.377   6.531   3.992 -1.0638  0.1172  0.6251
10121WAT     H241205   6.385   6.421   4.074  0.9500 -1.0050 -0.9914
10121WAT    EPW41206   6.372   6.454   4.004 -0.6105 -0.0662 -0.3281
10122WAT      O41207   2.475   2.901   1.188 -0.1789 -0.1417 -0.4444
10122WAT     H141208   2.391   2.923   1.200  0.3966  1.4279  1.2733
10122WAT     H241209   2.487   2.837   1.246 -0.1979 -0.4058 -0.7308
10122WAT    EPW41210   2.464   2.895   1.199 -0.0967  0.0511 -0.2329
10123WAT      O41211   4.738   1.128   0.442  0.0055  0.0976 -0.0616
10123WAT     H141212   4.801   1.068   0.439 -0.7944 -0.8019  0.2085
10123WAT     H241213   4.686   1.099   0.506 -1.1194  0.3392 -0.8316
10123WAT    EPW41214   4.739   1.115   0.451 -0.2789  0.0004 -0.1355
10124WAT      O41215   7.301   4.579   1.096 -0.5388 -0.8440 -0.3830
10124WAT     H141216   7.308   4.641   1.158  1.2494 -1.7280  0.3811
10124WAT     H241217   7.266   4.622   1.028  1.1154  1.1735 -0.0636
10124WAT    EPW41218   7.297   4.595   1.095 -0.0303 -0.6766 -0.2229
10125WAT      O41219   1.062   5.719   5.068 -0.1448  0.3526 -0.3461
10125WAT     H141220   1.098   5.743   4.992  1.7703 -0.9950  0.0675
10125WAT     H241221   1.065   5.792   5.116  1.7322  0.3988 -0.4726
10125WAT    EPW41222   1.067   5.734   5.064  0.4154  0.1603 -0.3037
10126WAT      O41223   6.793   7.023   6.372  0.4131 -0.7428  0.5183
10126WAT     H141224   6.824   6.954   6.414 -0.8363 -0.6048  1.7288
10126WAT     H241225   6.802   7.001   6.288  0.6399 -2.0863  0.8693
10126WAT    EPW41226   6.799   7.010   6.366  0.2621 -0.9209  0.7489
10127WAT      O41227   6.458   4.531   3.357  0.0362 -0.1927  0.0657
10127WAT     H141228   6.529   4.504   3.314 -1.0175 -1.5185 -0.9220
10127WAT     H241229   6.392   4.505   3.306 -1.2520 -0.9873  2.0194
10127WAT    EPW41230   6.459   4.523   3.343 -0.3098 -0.5060  0.2084
10128WAT      O41231   5.617   6.264   0.141  0.0037  0.4514 -0.2319
10128WAT     H141232   5.545   6.227   0.109 -0.5492 -0.6039  2.0560
10128WAT     H241233   5.590   6.302   0.214  1.8003 -0.2794  0.8789
10128WAT    EPW41234   5.602   6.264   0.147  0.1874  0.1875  0.2701
10129WAT      O41235   2.264   3.165   0.559 -0.4614 -0.6904  0.1923
10129WAT     H141236   2.281   3.116   0.630  0.6389  0.5998  0.8734
10129WAT     H241237   2.276   3.247   0.588 -2.3221  0.0100 -0.8964
10129WAT    EPW41238   2.269   3.170   0.574 -0.5737 -0.3963  0.1321
10130WAT      O41239   0.929   3.419   6.411 -0.1552  0.3070  0.3123
10130WAT     H141240   0.855   3.375   6.423 -0.7950  0.5988 -2.1349
10130WAT     H241241   0.987   3.356   6.393  0.1251  0.1262  1.7028
10130WAT    EPW41242   0.927   3.403   6.410 -0.2083  0.3234  0.1562
10131WAT      O41243   2.745   6.665   0.475  0.6659 -0.1687  0.3080
10131WAT     H141244   2.786   6.595   0.444 -1.4316 -0.4398 -2.2249
10131WAT     H241245   2.684   6.632   0.527  0.7552 -0.0738  0.4752
10131WAT    EPW41246   2.742   6.650   0.478  0.3692 -0.1948 -0.0415
10132WAT      O41247   0.550   4.488   2.216 -0.2560 -0.2702  0.0261
10132WAT     H141248   0.527   4.563   2.253 -2.3269 -1.0150  0.3822
10132WAT     H241249   0.560   4.508   2.132  0.9703  0.7236  0.3853
10132WAT    EPW41250   0.548   4.502   2.209 -0.3807 -0.2334  0.1318
10133WAT      O41251   6.367   3.343   7.085 -0.0821 -0.5432 -0.0515
10133WAT     H141252   6.314   3.411   7.068  1.3012  0.0552 -2.3422
10133WAT     H241253   6.325   3.276   7.049  0.7707  0.0009 -2.2541
10133WAT    EPW41254   6.353   3.343   7.077  0.2482 -0.3744 -0.7153
10134WAT      O41255   5.057   4.170   5.536  0.1561  0.0226 -0.2122
10134WAT     H141256   5.027   4.088   5.527 -0.8626  0.2906  0.5733
10134WAT     H241257   4.989   4.213   5.568  0.4297  1.3768 -1.3548
10134WAT    EPW41258   5.043   4.164   5.539  0.0461  0.2622 -0.2650
10135WAT      O41259   1.931   5.460   0.928 -0.0728 -0.9743  0.1206
10135WAT     H141260   2.000   5.442   0.877 -0.0669  0.1230 -0.2718
10135WAT     H241261   1.959   5.439   1.008  0.4012 -1.3838 -0.1416
10135WAT    EPW41262   1.946   5.454   0.932 -0.0019 -0.8727  0.0239
10136WAT      O41263   0.947   6.387   6.789 -0.4526  0.0888 -0.0034
10136WAT     H141264   1.006   6.416   6.731  1.2064  0.8252  1.9300
10136WAT     H241265   0.994   6.336   6.842 -1.5000  0.8200  1.7006
10136WAT    EPW41266   0.963   6.384   6.788 -0.3623  0.3056  0.5339
10137WAT      O41267   2.061   5.058   1.377  0.7285 -0.8377  0.2562
10137WAT     H141268   2.005   5.109   1.420  0.7985 -0.4019 -0.1552
10137WAT     H241269   2.089   5.109   1.312  0.4330 -1.5659 -0.4531
10137WAT    EPW41270   2.057   5.073   1.374  0.6952 -0.8809  0.0907
10138WAT      O41271   2.726   4.625   5.413  0.0614  0.4566 -0.2144
10138WAT     H141272   2.729   4.547   5.373  1.0287  0.7776 -0.7916
10138WAT     H241273   2.810   4.647   5.421 -0.1967  2.5625 -2.2988
10138WAT    EPW41274   2.739   4.617   5.409  0.1662  0.8151 -0.6076
10139WAT      O41275   1.201   4.913   5.642  0.4149 -0.1481 -0.1382
10139WAT     H141276   1.267   4.881   5.596 -0.3324 -2.5211  0.2961
10139WAT     H241277   1.145   4.940   5.581  1.7063  1.8733 -0.5061
10139WAT    EPW41278   1.202   4.912   5.626  0.4953 -0.2000 -0.1284
10140WAT      O41279   2.044   6.246   3.210 -0.7077  0.0613  0.0650
10140WAT     H141280   2.077   6.171   3.181 -1.6725 -0.3649  0.0363
10140WAT     H241281   1.997   6.223   3.279  0.4891  0.8945  1.2071
10140WAT    EPW41282   2.042   6.232   3.216 -0.6735  0.1214  0.2294
10141WAT      O41283   3.626   1.410   4.928  0.3940  0.0338 -0.2996
10141WAT     H141284   3.682   1.371   4.874  1.2063 -0.6455  0.9825
10141WAT     H241285   3.626   1.493   4.901  1.2621 -0.1563 -0.9286
10141WAT    EPW41286   3.634   1.417   4.916  0.6422 -0.0946 -0.2031
10142WAT      O41287   6.681   6.858   1.972  0.2534  0.0063 -0.1125
10142WAT     H141288   6.668   6.943   1.958  0.5406  0.4514  2.0676
10142WAT     H241289   6.736   6.836   1.908 -0.5163  1.2185 -1.2622
10142WAT    EPW41290   6.687   6.867   1.960  0.1821  0.2511  0.0397
10143WAT      O41291   0.109   6.513   0.035 -0.4384  0.1097  0.2686
10143WAT     H141292   0.105   6.512   0.122 -1.7408 -2.4973  0.2817
10143WAT     H241293   0.057   6.447   0.011  0.3948  0.3005 -2.4743
10143WAT    EPW41294   0.101   6.503   0.044 -0.5077 -0.2472 -0.1346
10144WAT      O41295   5.167   5.343   1.028 -0.5353  0.5197 -0.6753
10144WAT     H141296   5.098   5.394   1.013  0.4928  1.5775 -2.0868
10144WAT     H241297   5.234   5.399   1.028  0.3700 -0.5154  0.3360
10144WAT    EPW41298   5.166   5.359   1.026 -0.2497  0.5230 -0.7344
10145WAT      O41299   0.184   3.052   3.745 -0.6227  0.6263  0.2679
10145WAT     H141300   0.101   3.047   3.774 -0.8852 -2.1528 -0.7179
10145WAT     H241301   0.224   2.986   3.785  0.0203 -0.7278 -2.4045
10145WAT    EPW41302   0.177   3.042   3.756 -0.5665  0.0157 -0.2725
10146WAT      O41303   5.740   1.036   1.933 -0.0274  0.4281 -0.5084
10146WAT     H141304   5.780   0.981   1.879  0.6389  1.9648 -1.6477
10146WAT     H241305   5.668   1.059   1.890  0.5600  1.7539 -0.8546
10146WAT    EPW41306   5.735   1.032   1.919  0.1578  0.8510 -0.7278
10147WAT      O41307   2.164   3.229   5.220 -0.4012 -0.2770 -0.7144
10147WAT     H141308   2.230   3.243   5.276 -1.1124  0.0378  0.0632
10147WAT     H241309   2.194   3.264   5.145 -0.7929  2.6709  0.3450
10147WAT    EPW41310   2.178   3.236   5.217 -0.5641  0.2050 -0.4430
10148WAT      O41311   2.114   4.034   7.341 -0.5230  0.3398  0.4232
10148WAT     H141312   2.152   3.972   7.390 -1.0978 -0.5597 -0.2228
10148WAT     H241313   2.035   4.044   7.378 -1.4689 -1.2736 -0.9818
10148WAT    EPW41314   2.108   4.026   7.354 -0.7476 -0.0314  0.1202
10149WAT      O41315   0.953   4.838   6.746 -0.2330  0.5834 -0.5912
10149WAT     H141316   0.989   4.758   6.745 -1.1002  0.0330  2.3525
10149WAT     H241317   1.016   4.889   6.776 -0.8270  0.1578  1.5950
10149WAT    EPW41318   0.967   4.833   6.750 -0.4489  0.4393  0.1666
10150WAT      O41319   6.711   2.756   1.640 -0.0319  0.0928 -0.0026
10150WAT     H141320   6.648   2.737   1.584 -0.4910  0.5460  0.3464
10150WAT     H241321   6.722   2.682   1.685  0.0128 -0.1281 -0.3773
10150WAT    EPW41322   6.703   2.743   1.638 -0.0931  0.1271 -0.0064
10151WAT      O41323   0.334   5.155   4.331  0.1402  0.0476 -0.0191
10151WAT     H141324   0.274   5.127   4.274  0.7176  0.4683 -0.8561
10151WAT     H241325   0.332   5.096   4.394 -0.7179 -0.2804 -0.3361
10151WAT    EPW41326   0.325   5.142   4.332  0.0987  0.0613 -0.1896
10152WAT      O41327   5.668   5.262   3.485  0.2739 -0.0467  0.5273
10152WAT     H141328   5.754   5.245   3.487  0.4074  0.5899  0.3073
10152WAT     H241329   5.635   5.206   3.544  1.0450  0.7747  1.7985
10152WAT    EPW41330   5.676   5.251   3.494  0.4075  0.1687  0.6826
10153WAT      O41331   1.328   0.029   5.499  0.7668 -0.3201 -0.1241
10153WAT     H141332   1.389   0.088   5.479  0.1928  0.1393 -0.5509
10153WAT     H241333   1.255   0.076   5.504  0.4221 -0.8890  0.2356
10153WAT    EPW41334   1.326   0.045   5.497  0.6311 -0.3363 -0.1340
10154WAT      O41335   5.403   0.388   0.237 -0.2165 -0.0257 -0.0579
10154WAT     H141336   5.457   0.329   0.203  1.3230  1.2875 -0.0036
10154WAT     H241337   5.455   0.435   0.289 -1.4069  1.3315 -0.0499
10154WAT    EPW41338   5.418   0.386   0.240 -0.1649  0.3687 -0.0487
10155WAT      O41339   1.896   6.038   2.090  0.3678 -0.2383  0.3490
10155WAT     H141340   1.969   6.033   2.044  0.1410  0.2094 -0.0713
10155WAT     H241341   1.920   6.077   2.164  0.6737 -0.6894  0.4937
10155WAT    EPW41342   1.910   6.043   2.095  0.3795 -0.2388  0.3083
10156WAT      O41343   5.735   7.090   6.600  0.1041  0.1278 -0.3848
10156WAT     H141344   5.789   7.076   6.666  1.5027 -0.0399 -1.5056
10156WAT     H241345   5.687   7.159   6.626  1.9163  1.2821  0.0479
10156WAT    EPW41346   5.736   7.098   6.613  0.5784  0.2735 -0.4865
10157WAT      O41347   3.042   1.834   5.361  0.1606  0.0442 -0.3812
10157WAT     H141348   2.977   1.859   5.308  0.8021 -0.6781 -1.5315
10157WAT     H241349   3.112   1.835   5.310  0.6518 -1.5520  0.2070
10157WAT    EPW41350   3.043   1.838   5.346  0.3279 -0.2983 -0.4643
10158WAT      O41351   4.700   3.006   2.023 -0.5442  0.7852 -0.9637
10158WAT     H141352   4.657   3.066   2.069  1.1080  0.1343  1.6870
10158WAT     H241353   4.775   3.046   2.002 -0.2062  0.2626 -0.7864
10158WAT    EPW41354   4.705   3.021   2.026 -0.2502  0.6118 -0.5460
10159WAT      O41355   6.243   1.932   4.480  0.1917 -0.1157 -0.0030
10159WAT     H141356   6.307   1.989   4.492 -0.5207  1.0071 -1.3755
10159WAT     H241357   6.195   1.966   4.416 -1.1860 -1.4477  0.2451
10159WAT    EPW41358   6.245   1.945   4.473 -0.1171 -0.1466 -0.1691
10160WAT      O41359   4.632   6.233   2.017  0.0540 -0.6840 -0.2203
10160WAT     H141360   4.590   6.274   1.952 -0.0682  0.3609  0.4975
10160WAT     H241361   4.575   6.234   2.083  0.4025 -1.1897  0.0940
10160WAT    EPW41362   4.617   6.239   2.017  0.0874 -0.6043 -0.0678
10161WAT      O41363   6.157   7.042   0.331 -0.7246 -0.2056  0.0545
10161WAT     H141364   6.149   6.969   0.378 -2.8827 -0.0153  0.1211
10161WAT     H241365   6.191   7.099   0.387 -1.1687 -0.5715  0.7028
10161WAT    EPW41366   6.161   7.040   0.346 -1.1090 -0.2315  0.1601
10162WAT      O41367   5.353   5.446   3.611  0.6680 -0.1402 -0.4085
10162WAT     H141368   5.344   5.384   3.550  1.2867 -0.1834 -0.4666
10162WAT     H241369   5.367   5.400   3.684 -0.8613 -0.1129 -0.0621
10162WAT    EPW41370   5.354   5.430   3.613  0.5335 -0.1425 -0.3659
10163WAT      O41371   0.767   1.046   4.650  0.6455 -0.1973 -0.0813
10163WAT     H141372   0.821   1.113   4.663 -0.6603  0.9289 -0.2741
10163WAT     H241373   0.740   1.057   4.568  0.8920 -1.3465 -0.3348
10163WAT    EPW41374   0.771   1.057   4.640  0.4890 -0.2007 -0.1472
10164WAT      O41375   0.349   3.942   3.303 -0.1520 -0.1748 -0.1183
10164WAT     H141376   0.296   3.920   3.237 -0.0492  0.5462 -0.4510
10164WAT     H241377   0.339   4.028   3.309  0.3841 -0.1411  0.3400
10164WAT    EPW41378   0.340   3.951   3.294 -0.0576 -0.0633 -0.0997
10165WAT      O41379   3.495   6.013   0.121 -0.1885 -0.5229  0.1611
10165WAT     H141380   3.580   5.992   0.118 -0.0045  0.2588 -0.2144
10165WAT     H241381   3.477   6.039   0.040 -0.5983  0.0205  0.4186
10165WAT    EPW41382   3.505   6.014   0.109 -0.2218 -0.3272  0.1437
10166WAT      O41383   4.432   4.263   7.058  0.6491 -0.4576  0.2586
10166WAT     H141384   4.516   4.286   7.064  0.3710  1.7517 -2.3145
10166WAT     H241385   4.392   4.314   7.116  0.9456 -0.4190  0.4304
10166WAT    EPW41386   4.438   4.274   7.067  0.6518 -0.1255 -0.0961
10167WAT      O41387   6.617   5.663   3.870 -0.1665 -0.1662 -0.0795
10167WAT     H141388   6.656   5.612   3.930  0.5708  2.9350  2.3922
10167WAT     H241389   6.541   5.624   3.856 -0.4705 -1.0662  3.1199
10167WAT    EPW41390   6.612   5.650   3.877 -0.1025  0.1589  0.7583
10168WAT      O41391   1.070   1.298   2.353  0.2352  0.4695  0.1116
10168WAT     H141392   1.117   1.293   2.426 -0.6095 -0.8258  0.6009
10168WAT     H241393   1.117   1.252   2.295  0.7005  1.1484 -0.0615
10168WAT    EPW41394   1.084   1.291   2.355  0.1792  0.3784  0.1583
10169WAT      O41395   1.917   3.747   5.731 -0.4045  0.2656 -0.5108
10169WAT     H141396   1.974   3.686   5.756 -0.1976  0.3674 -0.7434
10169WAT     H241397   1.865   3.755   5.801  1.4561  2.1174  0.7758
10169WAT    EPW41398   1.917   3.739   5.745 -0.0991  0.5542 -0.3551
10170WAT      O41399   6.959   2.843   5.308 -0.3084  0.8387 -0.1931
10170WAT     H141400   6.872   2.839   5.310 -0.3068  0.0853 -0.9264
10170WAT     H241401   6.984   2.773   5.354 -0.1508 -0.8492 -2.6445
10170WAT    EPW41402   6.950   2.832   5.315 -0.2849  0.4780 -0.6635
10171WAT      O41403   3.268   2.813   6.306  0.1057  0.5872 -0.0153
10171WAT     H141404   3.323   2.877   6.285  1.6447 -1.0423 -1.4139
10171WAT     H241405   3.190   2.850   6.301  0.9838  3.0719  2.2419
10171WAT    EPW41406   3.265   2.828   6.302  0.4627  0.7135  0.1115
10172WAT      O41407   0.196   2.160   0.477  0.3079 -0.2471  0.0020
10172WAT     H141408   0.215   2.166   0.392 -1.8308 -1.7740 -0.6650
10172WAT     H241409   0.144   2.229   0.491 -0.2222 -0.5824 -0.2457
10172WAT    EPW41410   0.191   2.171   0.466 -0.0864 -0.5222 -0.1331
10173WAT      O41411   2.188   5.601   3.494  0.8069  0.2569 -0.4266
10173WAT     H141412   2.114   5.562   3.470  0.8389  0.9460 -1.7516
10173WAT     H241413   2.194   5.583   3.579 -1.1900  0.6993 -0.1454
10173WAT    EPW41414   2.178   5.592   3.503  0.5166  0.4240 -0.5808
10174WAT      O41415   6.012   4.990   1.653  0.5166 -0.0542 -0.5012
10174WAT     H141416   6.057   4.979   1.727 -0.0728  1.6875  0.1528
10174WAT     H241417   5.929   4.997   1.680  0.2624  0.3297 -1.3473
10174WAT    EPW41418   6.006   4.989   1.668  0.3920  0.2598 -0.5296
10175WAT      O41419   4.785   2.790   6.003 -0.1918 -0.4870 -0.6010
10175WAT     H141420   4.752   2.712   5.982  0.4231 -1.2533  1.1185
10175WAT     H241421   4.754   2.805   6.084  0.4104  0.6511 -0.5545
10175WAT    EPW41422   4.775   2.781   6.012 -0.0120 -0.4321 -0.3401
10176WAT      O41423   6.851   0.309   2.059  0.1071 -0.4205  0.0545
10176WAT     H141424   6.774   0.343   2.084 -0.0988 -1.0237  0.2713
10176WAT     H241425   6.836   0.285   1.976  0.3191  0.2007 -0.1686
10176WAT    EPW41426   6.837   0.310   2.050  0.1080 -0.4178  0.0535
10177WAT      O41427   2.366   0.618   3.706 -0.4415 -0.1982  0.0193
10177WAT     H141428   2.388   0.557   3.764  0.1934  0.6829  0.7382
10177WAT     H241429   2.334   0.683   3.755 -1.8353 -0.2349 -0.7872
10177WAT    EPW41430   2.365   0.619   3.722 -0.5536 -0.0735  0.0064
10178WAT      O41431   3.276   5.411   1.951 -0.2484 -0.2699 -0.3068
10178WAT     H141432   3.351   5.443   1.984  0.2710 -1.5319 -0.1839
10178WAT     H241433   3.251   5.472   1.894  0.8561  0.1976 -0.3260
10178WAT    EPW41434   3.284   5.425   1.948 -0.0085 -0.3873 -0.2915
10179WAT      O41435   5.520   4.807   3.872 -0.2985 -0.1811  0.5378
10179WAT     H141436   5.581   4.778   3.816  2.4146  5.3554 -0.0499
10179WAT     H241437   5.465   4.851   3.821 -1.1071  0.1935  1.7111
10179WAT    EPW41438   5.521   4.809   3.856 -0.0172  0.6921  0.6243
10180WAT      O41439   5.099   1.939   3.156 -0.0847 -0.4374 -0.0947
10180WAT     H141440   5.113   1.903   3.234 -5.3526 -0.2266  1.3289
10180WAT     H241441   5.095   1.870   3.103 -0.1482 -0.9763  0.5900
10180WAT    EPW41442   5.101   1.924   3.160 -0.8723 -0.4859  0.2167
10181WAT      O41443   2.135   4.027   6.275  0.1838  0.4114 -0.3388
10181WAT     H141444   2.074   3.985   6.228  0.9999  0.7552 -1.7819
10181WAT     H241445   2.198   3.967   6.284 -0.7353 -0.2860  2.0470
10181WAT    EPW41446   2.135   4.012   6.269  0.1686  0.3591 -0.1996
10182WAT      O41447   0.396   2.394   0.777  0.0429  0.7498  0.1353
10182WAT     H141448   0.398   2.343   0.706  2.1189  0.1670  0.5342
10182WAT     H241449   0.340   2.457   0.756 -1.4727 -0.8644 -0.9515
10182WAT    EPW41450   0.388   2.396   0.764  0.1257  0.4252  0.0337
10183WAT      O41451   6.038   6.161   2.233  0.5352  0.0096 -0.2792
10183WAT     H141452   6.034   6.086   2.277 -0.1419  0.4604  0.4419
10183WAT     H241453   6.060   6.220   2.293 -0.2879  0.6152 -0.5495
10183WAT    EPW41454   6.040   6.159   2.248  0.3136  0.1656 -0.2126
10184WAT      O41455   6.813   0.164   7.382  0.5006 -0.8364 -0.5038
10184WAT     H141456   6.735   0.126   7.388 -1.0309  2.0368 -0.5054
10184WAT     H241457   6.821   0.182   7.297  0.1671  0.7097 -0.2321
10184WAT    EPW41458   6.803   0.161   7.370  0.2251 -0.1836 -0.4639
10185WAT      O41459   0.437   6.961   7.156 -0.7532 -0.1869  1.0074
10185WAT     H141460   0.377   7.018   7.182 -1.5976 -0.8663  0.6113
10185WAT     H241461   0.434   6.967   7.069  1.1146  1.1354  0.9905
10185WAT    EPW41462   0.428   6.970   7.147 -0.6020 -0.0919  0.9464
10186WAT      O41463   5.670   0.158   2.400 -0.1891 -0.2145  0.5185
10186WAT     H141464   5.668   0.231   2.352 -1.1922  0.4594  1.5226
10186WAT     H241465   5.732   0.173   2.458 -1.1337  0.3439  1.4247
10186WAT    EPW41466   5.679   0.171   2.401 -0.4768 -0.0325  0.8007
10187WAT      O41467   2.976   4.225   3.021  0.2401  0.3738 -0.3282
10187WAT     H141468   3.018   4.295   3.052 -1.8007  1.5004  0.0699
10187WAT     H241469   3.025   4.199   2.955  2.3988  0.6168  1.0751
10187WAT    EPW41470   2.989   4.231   3.016  0.2575  0.5761 -0.0621
10188WAT      O41471   2.336   1.542   3.996 -0.6508  0.0879 -0.1715
10188WAT     H141472   2.417   1.557   3.966 -0.3060 -1.2694  0.0392
10188WAT     H241473   2.298   1.498   3.931 -0.0142 -2.5591  1.1233
10188WAT    EPW41474   2.342   1.538   3.982 -0.5059 -0.5036  0.0509
10189WAT      O41475   2.190   4.077   4.799 -0.5412  0.2408 -0.5216
10189WAT     H141476   2.165   4.038   4.872 -0.9732  1.3386 -0.0521
10189WAT     H241477   2.115   4.104   4.763 -0.2142  1.5587 -0.2733
10189WAT    EPW41478   2.176   4.075   4.804 -0.5567  0.5976 -0.4156
10190WAT      O41479   0.081   1.046   0.816  0.0947  0.2951 -0.0443
10190WAT     H141480   0.155   1.090   0.800  0.2227 -0.0495 -0.3968
10190WAT     H241481   0.028   1.107   0.850  0.5046  0.5651  0.1141
10190WAT    EPW41482   0.084   1.062   0.819  0.1742  0.2841 -0.0730
10191WAT      O41483   6.642   2.411   0.850  0.0351 -0.3829  0.7388
10191WAT     H141484   6.683   2.377   0.780 -0.7113  0.6377 -0.2328
10191WAT     H241485   6.707   2.427   0.906  0.8638  0.3618 -0.4083
10191WAT    EPW41486   6.658   2.408   0.848  0.0473 -0.1222  0.4259
10192WAT      O41487   7.135   5.178   4.721  0.3893  0.4130 -0.2257
10192WAT     H141488   7.188   5.247   4.718  2.2762 -0.9470 -0.6980
10192WAT     H241489   7.060   5.210   4.752  1.4166  2.5002  0.2885
10192WAT    EPW41490   7.132   5.193   4.725  0.8197  0.5204 -0.2195
10193WAT      O41491   4.519   4.646   0.021 -0.4269 -0.1687  0.2570
10193WAT     H141492   4.458   4.668  -0.038 -1.0606 -1.0215  0.5610
10193WAT     H241493   4.583   4.611  -0.027 -0.1191  0.8242 -0.0756
10193WAT    EPW41494   4.519   4.644   0.006 -0.4751 -0.1480  0.2528
10194WAT      O41495   1.598   0.672   3.306 -0.1934  0.2166  0.1442
10194WAT     H141496   1.680   0.704   3.310  0.3448 -1.1105  0.2758
10194WAT     H241497   1.596   0.613   3.370 -0.6391 -1.0704 -0.9947
10194WAT    EPW41498   1.610   0.668   3.316 -0.1797 -0.1696 -0.0046
10195WAT      O41499   2.852   4.144   1.269 -0.0638 -0.3467 -0.4344
10195WAT     H141500   2.877   4.070   1.231 -0.1248 -0.4144 -0.3432
10195WAT     H241501   2.865   4.129   1.354 -1.5357 -0.8139 -0.2723
10195WAT    EPW41502   2.858   4.131   1.276 -0.2902 -0.4257 -0.3970
10196WAT      O41503   4.990   4.871   0.515 -0.1895  0.5264 -0.0746
10196WAT     H141504   4.922   4.818   0.500 -1.5952  2.3377 -0.3759
10196WAT     H241505   5.054   4.835   0.469 -0.3699 -2.2580  1.6322
10196WAT    EPW41506   4.989   4.858   0.506 -0.4238  0.3826  0.1330
10197WAT      O41507   6.836   0.510   4.662 -0.4909 -0.3903  0.1127
10197WAT     H141508   6.879   0.436   4.645 -0.7901 -0.6450  0.4699
10197WAT     H241509   6.849   0.523   4.747 -0.7231 -0.2107  0.1236
10197WAT    EPW41510   6.845   0.501   4.672 -0.5694 -0.4014  0.1671
10198WAT      O41511   4.574   1.273   5.432 -0.3169 -0.2951 -0.1409
10198WAT     H141512   4.641   1.237   5.475 -0.3692  1.2028  1.3429
10198WAT     H241513   4.607   1.348   5.402 -1.1582  0.2199  0.1637
10198WAT    EPW41514   4.589   1.279   5.434 -0.4489  0.0022  0.1233
10199WAT      O41515   2.461   5.709   4.837 -0.1171 -0.0394 -0.7333
10199WAT     H141516   2.432   5.630   4.815  2.9467 -1.4692 -0.2366
10199WAT     H241517   2.495   5.740   4.763  1.5055 -0.6448 -0.2954
10199WAT    EPW41518   2.462   5.702   4.823  0.5752 -0.3401 -0.5953
10200WAT      O41519   1.402   0.701   4.980 -0.4304 -0.3304 -0.0384
10200WAT     H141520   1.384   0.779   4.943 -0.3539 -1.3658 -2.4240
10200WAT     H241521   1.323   0.672   5.004 -0.6827 -0.2599 -0.7525
10200WAT    EPW41522   1.388   0.708   4.978 -0.4564 -0.4729 -0.4963
10201WAT      O41523   5.684   0.656   1.719 -0.1314  0.0172 -0.5233
10201WAT     H141524   5.751   0.712   1.722 -0.0063 -0.1580 -0.0249
10201WAT     H241525   5.627   0.689   1.776  1.3180 -2.1135  2.3617
10201WAT    EPW41526   5.686   0.669   1.728  0.1012 -0.3234 -0.0235
10202WAT      O41527   2.486   4.229   1.821  0.1961 -0.3736  0.5828
10202WAT     H141528   2.569   4.202   1.816  0.3739  0.2381  0.0774
10202WAT     H241529   2.459   4.228   1.738  0.3747  1.4416  0.4567
10202WAT    EPW41530   2.494   4.225   1.808  0.2488 -0.0151  0.4895
10203WAT      O41531   0.477   3.788   2.146 -0.0349  0.5770  0.1671
10203WAT     H141532   0.463   3.751   2.069 -2.5658  1.1673  0.2564
10203WAT     H241533   0.564   3.787   2.154  0.4165  1.4040 -3.1286
10203WAT    EPW41534   0.488   3.783   2.136 -0.3421  0.7863 -0.3066
10204WAT      O41535   3.559   4.158   6.045  0.1616  1.3618 -0.0415
10204WAT     H141536   3.630   4.208   6.047 -1.1332  3.3060  0.1170
10204WAT     H241537   3.532   4.165   5.962 -1.0206  2.4633  0.4052
10204WAT    EPW41538   3.565   4.167   6.033 -0.2043  1.8117  0.0479
10205WAT      O41539   6.772   3.040   4.905  0.3045  0.0483 -0.1604
10205WAT     H141540   6.785   2.984   4.839  0.4716  0.7674 -0.7562
10205WAT     H241541   6.853   3.064   4.927  0.2855 -0.6667  0.7475
10205WAT    EPW41542   6.786   3.035   4.899  0.3263  0.0489 -0.1143
10206WAT      O41543   2.003   4.505   4.331  0.2682  0.0975  0.2574
10206WAT     H141544   1.987   4.588   4.310 -2.1168 -0.7927 -2.0000
10206WAT     H241545   1.951   4.491   4.399  0.7759  0.4856  0.7274
10206WAT    EPW41546   1.993   4.515   4.338 -0.0091  0.0233 -0.0067
10207WAT      O41547   6.807   4.173   5.606 -0.6211  0.3091  0.3829
10207WAT     H141548   6.880   4.138   5.574 -0.1385  2.4806 -1.0866
10207WAT     H241549   6.832   4.203   5.684  0.0867  1.0319 -0.1051
10207WAT    EPW41550   6.821   4.172   5.613 -0.4453  0.7366  0.0937
10208WAT      O41551   5.643   2.163   2.984  0.2807 -0.0653 -0.7170
10208WAT     H141552   5.702   2.169   2.921  0.2742  1.4121 -0.6013
10208WAT     H241553   5.601   2.239   2.981 -0.4035 -0.3718  0.4028
10208WAT    EPW41554   5.645   2.175   2.974  0.1787  0.1077 -0.5345
10209WAT      O41555   5.479   1.150   7.218  0.4154 -0.3906  0.4218
10209WAT     H141556   5.447   1.088   7.166  1.0823  0.0605 -0.5640
10209WAT     H241557   5.412   1.170   7.270 -0.7576  0.1072 -1.1824
10209WAT    EPW41558   5.464   1.144   7.218  0.3407 -0.2505  0.0392
10210WAT      O41559   3.309   4.577   5.133 -0.4105 -0.2694 -0.0369
10210WAT     H141560   3.376   4.587   5.188 -0.9215 -0.6545  0.6694
10210WAT     H241561   3.300   4.656   5.098 -2.7918  1.3137  3.6084
10210WAT    EPW41562   3.318   4.590   5.136 -0.8377 -0.0925  0.6059
10211WAT      O41563   1.077   1.242   0.246  0.2011  0.2483  0.1058
10211WAT     H141564   1.031   1.316   0.245 -2.4544 -1.2046  1.6122
10211WAT     H241565   1.135   1.254   0.310  0.7430  1.4596 -0.5750
10211WAT    EPW41566   1.079   1.255   0.255 -0.1111  0.2126  0.2278
10212WAT      O41567   1.768   5.939   1.690  0.4076 -0.4186  0.1180
10212WAT     H141568   1.840   5.988   1.687  0.6994 -0.8675 -0.8157
10212WAT     H241569   1.748   5.928   1.605 -0.8245 -0.1993  0.3698
10212WAT    EPW41570   1.776   5.944   1.677  0.2687 -0.4525  0.0172
10213WAT      O41571   2.074   5.672   2.861  0.0914 -0.2838 -0.2470
10213WAT     H141572   2.052   5.628   2.933  1.5206 -1.1292 -0.2897
10213WAT     H241573   2.161   5.678   2.866  0.1750  0.1009 -1.6457
10213WAT    EPW41574   2.083   5.666   2.872  0.3149 -0.3519 -0.4599
10214WAT      O41575   1.995   1.033   4.719 -0.3372 -0.4479  0.1512
10214WAT     H141576   2.011   1.100   4.665 -1.2772  1.2919  1.9079
10214WAT     H241577   1.928   0.992   4.682 -0.2082 -0.0020 -0.5904
10214WAT    EPW41578   1.988   1.037   4.706 -0.4570 -0.1250  0.3011
10215WAT      O41579   7.054   3.307   2.399  0.4489 -0.1724 -0.1029
10215WAT     H141580   7.137   3.318   2.422  0.2236 -2.1100  1.9387
10215WAT     H241581   7.046   3.221   2.390 -1.4256 -0.0574  0.0341
10215WAT    EPW41582   7.065   3.296   2.401  0.1387 -0.4417  0.2190
10216WAT      O41583   3.469   0.603   5.271 -0.0968  0.0637 -0.5184
10216WAT     H141584   3.467   0.527   5.228 -0.5071 -1.3813  1.8784
10216WAT     H241585   3.406   0.650   5.233 -0.8711 -1.3618 -1.0840
10216WAT    EPW41586   3.460   0.598   5.259 -0.2718 -0.3603 -0.2479
10217WAT      O41587   7.192   6.712   4.970 -0.1728 -0.2003  0.4045
10217WAT     H141588   7.271   6.721   5.006 -0.1663 -3.5224  1.5838
10217WAT     H241589   7.185   6.626   4.958 -3.2749  0.0681 -0.5244
10217WAT    EPW41590   7.203   6.701   4.974 -0.6301 -0.6514  0.4415
10218WAT      O41591   5.780   0.893   4.562 -0.2108  0.0254 -0.1949
10218WAT     H141592   5.749   0.922   4.486 -2.5580  0.4133  0.7928
10218WAT     H241593   5.722   0.832   4.585 -0.0430  0.5040  1.6368
10218WAT    EPW41594   5.767   0.888   4.554 -0.5327  0.1534  0.2216
10219WAT      O41595   0.594   0.388   1.626  0.4106 -0.3576  0.0569
10219WAT     H141596   0.625   0.366   1.704  1.8059 -0.5242 -0.5049
10219WAT     H241597   0.545   0.458   1.642  1.9605  0.5964  0.8948
10219WAT    EPW41598   0.591   0.395   1.640  0.8456 -0.2413  0.0977
10220WAT      O41599   1.022   5.009   5.451  0.3240  1.0284  0.5454
10220WAT     H141600   0.961   4.994   5.512 -0.9644  2.2207 -0.3745
10220WAT     H241601   1.004   4.950   5.389  1.6322 -0.1833  1.2853
10220WAT    EPW41602   1.010   4.998   5.451  0.3269  1.0255  0.5188
10221WAT      O41603   3.022   6.853   2.202  0.8513  0.1880 -0.0259
10221WAT     H141604   2.936   6.837   2.199  0.6597  0.9279  0.9180
10221WAT     H241605   3.058   6.777   2.179 -0.0385  0.5650 -3.1990
10221WAT    EPW41606   3.015   6.839   2.198  0.6916  0.3530 -0.3552
10222WAT      O41607   1.027   1.261   6.545  0.1316  0.3024 -0.6832
10222WAT     H141608   1.047   1.195   6.491 -2.2277  0.5659 -1.9878
10222WAT     H241609   1.029   1.223   6.624  2.4763 -0.3675 -0.9723
10222WAT    EPW41610   1.030   1.246   6.548  0.1295  0.2424 -0.9186
10223WAT      O41611   5.896   7.255   3.168  0.1118  0.0822  0.3175
10223WAT     H141612   5.824   7.238   3.122  0.8492 -0.8034 -0.5623
10223WAT     H241613   5.880   7.217   3.245 -1.8984  3.1337  1.5954
10223WAT    EPW41614   5.883   7.247   3.173 -0.0762  0.4021  0.3763
10224WAT      O41615   1.876   0.307   4.603  0.0015 -0.1757 -0.0554
10224WAT     H141616   1.803   0.320   4.649  0.1317  2.1864 -0.3870
10224WAT     H241617   1.926   0.260   4.657 -0.7341  0.5430  1.3091
10224WAT    EPW41618   1.872   0.302   4.618 -0.0879  0.2794  0.0972
10225WAT      O41619   3.512   0.768   3.577  0.8078 -0.3633  0.2380
10225WAT     H141620   3.452   0.825   3.548  0.3369 -0.5068  0.9316
10225WAT     H241621   3.465   0.701   3.606  1.3146 -0.5777  0.5777
10225WAT    EPW41622   3.496   0.767   3.577  0.8131 -0.4162  0.3906
10226WAT      O41623   1.282   1.552   6.989  0.2799 -0.4750 -0.0928
10226WAT     H141624   1.290   1.469   6.966 -0.0847 -0.7276  0.6752
10226WAT     H241625   1.255   1.549   7.072  0.6529  0.4077  0.0816
10226WAT    EPW41626   1.279   1.539   6.998  0.2811 -0.3819  0.0464
10227WAT      O41627   2.329   3.368   6.885  0.4944 -0.2210  0.1398
10227WAT     H141628   2.387   3.308   6.860  1.1725  0.5583 -0.2311
10227WAT     H241629   2.307   3.407   6.810 -0.3878 -0.3822  0.2989
10227WAT    EPW41630   2.334   3.365   6.870  0.4642 -0.1297  0.1085
10228WAT      O41631   3.610   2.001   3.121 -0.2875 -0.3132  0.3599
10228WAT     H141632   3.523   2.004   3.118 -0.3699 -2.0416 -2.0728
10228WAT     H241633   3.634   2.076   3.084 -0.7890 -0.3839 -0.1183
10228WAT    EPW41634   3.601   2.013   3.115 -0.3737 -0.5790 -0.0701
10229WAT      O41635   0.007   1.195   2.018  0.4128 -0.0499 -0.0893
10229WAT     H141636  -0.065   1.241   2.000  1.1653  1.3959  0.4212
10229WAT     H241637  -0.020   1.135   2.075 -0.1870  1.3463  1.1905
10229WAT    EPW41638  -0.007   1.193   2.024  0.4353  0.3699  0.1752
10230WAT      O41639   5.211   3.873   0.670  0.3413 -0.6719 -0.0025
10230WAT     H141640   5.208   3.905   0.589 -0.3641 -0.5282  0.0733
10230WAT     H241641   5.297   3.870   0.688  0.5457 -1.3004 -0.9856
10230WAT    EPW41642   5.223   3.877   0.660  0.2673 -0.7435 -0.1365
10231WAT      O41643   2.259   4.589   7.313  0.5006 -0.2544 -0.5543
10231WAT     H141644   2.282   4.662   7.354 -0.7021  0.1961 -0.6617
10231WAT     H241645   2.299   4.526   7.360  0.5536  0.3749  0.2712
10231WAT    EPW41646   2.268   4.590   7.326  0.3308 -0.0949 -0.4483
10232WAT      O41647   4.355   7.132   1.012 -0.0320 -0.3128 -0.2780
10232WAT     H141648   4.300   7.200   1.022  0.0031 -0.2674 -0.3932
10232WAT     H241649   4.422   7.166   0.968  0.1205 -0.3538 -0.0734
10232WAT    EPW41650   4.357   7.147   1.007 -0.0043 -0.3121 -0.2648
10233WAT      O41651   1.936   3.553   1.488 -0.1596 -0.0518  0.0479
10233WAT     H141652   1.857   3.565   1.453  0.4210 -0.6425 -1.5570
10233WAT     H241653   1.952   3.629   1.529 -1.0082  0.5723 -0.7370
10233WAT    EPW41654   1.927   3.566   1.489 -0.1992 -0.0468 -0.3051
10234WAT      O41655   1.670   4.516   1.777  0.6343 -0.2558  0.3150
10234WAT     H141656   1.679   4.511   1.863 -0.0111  1.3524  0.5000
10234WAT     H241657   1.745   4.483   1.747  1.6352  0.8091  1.5373
10234WAT    EPW41658   1.682   4.510   1.785  0.6868  0.1391  0.5229
10235WAT      O41659   2.315   3.691   6.025 -0.0514  0.0800 -0.3076
10235WAT     H141660   2.233   3.664   6.009 -0.1782  1.3485 -2.2229
10235WAT     H241661   2.362   3.618   6.020 -1.0545 -0.6966  0.9416
10235WAT    EPW41662   2.310   3.676   6.022 -0.2183  0.1526 -0.4060
10236WAT      O41663   2.634   3.091   3.472  0.5486  0.4565 -0.3715
10236WAT     H141664   2.566   3.138   3.446  0.7754  0.7655 -0.4189
10236WAT     H241665   2.695   3.151   3.491  1.6463  0.1591 -2.6241
10236WAT    EPW41666   2.633   3.106   3.471  0.7442  0.4582 -0.7113
10237WAT      O41667   5.121   5.520   4.803 -0.6618 -0.3673  0.0132
10237WAT     H141668   5.141   5.446   4.761 -0.4664 -0.1183 -0.3337
10237WAT     H241669   5.173   5.518   4.873  1.4650  0.8015 -1.4287
10237WAT    EPW41670   5.132   5.508   4.807 -0.3188 -0.1579 -0.2510
10238WAT      O41671   5.577   6.540   4.199  0.1583 -0.1889  0.4086
10238WAT     H141672   5.543   6.553   4.278  0.8615  0.4258  0.6154
10238WAT     H241673   5.660   6.518   4.215  0.5970  0.9452 -0.1752
10238WAT    EPW41674   5.584   6.539   4.213  0.3270  0.0695  0.3529
10239WAT      O41675   1.153   1.523   6.598  0.1547 -0.2927  0.1929
10239WAT     H141676   1.112   1.448   6.581  0.1365 -0.8182  2.3019
10239WAT     H241677   1.237   1.504   6.590  0.3775 -1.5855  3.9991
10239WAT    EPW41678   1.159   1.509   6.594  0.1849 -0.5613  1.0667
10240WAT      O41679   7.141   0.491   6.830 -0.2788 -0.0341  0.0358
10240WAT     H141680   7.171   0.409   6.840 -2.4256 -1.1496 -1.6574
10240WAT     H241681   7.067   0.491   6.877 -0.3465  0.9105 -0.0660
10240WAT    EPW41682   7.134   0.479   6.839 -0.6059 -0.0593 -0.2293
10241WAT      O41683   1.679   4.487   6.151 -0.0260 -0.1452 -1.0731
10241WAT     H141684   1.713   4.516   6.226  0.3846 -0.6072 -1.0704
10241WAT     H241685   1.693   4.552   6.095 -1.7764  0.8927 -0.3979
10241WAT    EPW41686   1.686   4.501   6.154 -0.2239 -0.0601 -0.9729
10242WAT      O41687   0.747   1.038   7.220  0.0905  0.0208 -0.4445
10242WAT     H141688   0.746   0.976   7.281 -2.4721  0.9578  0.6340
10242WAT     H241689   0.677   1.020   7.172 -0.3209  1.6395 -0.5060
10242WAT    EPW41690   0.737   1.026   7.222 -0.3488  0.3983 -0.2943
10243WAT      O41691   5.910   0.013   4.567 -0.2113  0.3904  0.3040
10243WAT     H141692   5.910  -0.023   4.646 -2.7361 -0.9507 -0.1997
10243WAT     H241693   5.906   0.099   4.584 -0.6047  0.1337  1.6371
10243WAT    EPW41694   5.909   0.021   4.581 -0.6424  0.1544  0.4265
10244WAT      O41695   1.140   4.477   1.044  0.4288 -0.5942  0.0418
10244WAT     H141696   1.101   4.490   1.122  0.2381 -1.8760  0.1811
10244WAT     H241697   1.078   4.500   0.987  1.4028  2.9098  0.1540
10244WAT    EPW41698   1.125   4.482   1.047  0.5445 -0.2660  0.0789
10245WAT      O41699   5.195   1.998   6.377  0.2504  0.4545 -0.6836
10245WAT     H141700   5.233   2.045   6.313  0.6115  0.5409 -0.4080
10245WAT     H241701   5.238   2.022   6.449  0.6105 -0.4770 -0.5701
10245WAT    EPW41702   5.207   2.009   6.378  0.3569  0.3297 -0.6261
10246WAT      O41703   1.974   2.279   2.478  0.2780 -0.2609 -0.0964
10246WAT     H141704   1.903   2.284   2.528  2.4203  2.2328  3.1447
10246WAT     H241705   2.019   2.213   2.513  0.3543 -0.6466 -0.9157
10246WAT    EPW41706   1.970   2.270   2.491  0.6057  0.0505  0.2614
10247WAT      O41707   1.024   5.209   2.025  0.0991 -0.2153 -0.1472
10247WAT     H141708   1.018   5.272   2.086 -1.9406  0.5946 -1.0845
10247WAT     H241709   1.045   5.138   2.072  0.1222  0.6749  1.2731
10247WAT    EPW41710   1.026   5.208   2.041 -0.1988  0.0358 -0.0759
10248WAT      O41711   4.201   5.313   0.031 -0.0341  0.0878  0.6085
10248WAT     H141712   4.136   5.276  -0.014  0.0002  0.8937 -0.1307
10248WAT     H241713   4.186   5.398   0.023  2.1669  0.3912 -1.2182
10248WAT    EPW41714   4.189   5.320   0.023  0.2961  0.2516  0.2294
10249WAT      O41715   4.675   0.950   1.497 -0.0302 -0.3981  0.2722
10249WAT     H141716   4.589   0.968   1.496  0.0046 -0.2287 -0.7748
10249WAT     H241717   4.704   0.993   1.567 -0.7491 -0.2061  0.4639
10249WAT    EPW41718   4.666   0.959   1.507 -0.1312 -0.3447  0.1459
10250WAT      O41719   0.211   1.211   2.223  0.0750  0.0491  0.0423
10250WAT     H141720   0.155   1.237   2.162 -0.0081 -0.3742 -0.0687
10250WAT     H241721   0.280   1.182   2.177  0.3677  0.5270  0.1755
10250WAT    EPW41722   0.213   1.210   2.207  0.1060  0.0572  0.0456
10251WAT      O41723   2.038   6.716   1.759 -0.9318  0.4276 -0.3833
10251WAT     H141724   2.098   6.780   1.762 -0.4153 -0.0495 -0.4276
10251WAT     H241725   1.973   6.748   1.808 -0.5510  0.8617 -0.1447
10251WAT    EPW41726   2.037   6.730   1.767 -0.7992  0.4212 -0.3546
10252WAT      O41727   0.604   2.024   5.731  0.2446  0.0709 -0.0891
10252WAT     H141728   0.653   2.089   5.762  0.0019  0.2845 -0.1486
10252WAT     H241729   0.608   2.034   5.645  0.6181 -0.2997 -0.1141
10252WAT    EPW41730   0.612   2.035   5.723  0.2639  0.0477 -0.1016
10253WAT      O41731   6.662   2.539   4.832 -0.1679 -0.0548 -0.5821
10253WAT     H141732   6.703   2.510   4.761 -2.2278 -0.0729 -1.8341
10253WAT     H241733   6.595   2.584   4.801  0.4778  2.5086  1.3485
10253WAT    EPW41734   6.658   2.542   4.817 -0.3768  0.3212 -0.4819
10254WAT      O41735   0.747   7.016   2.070 -0.0061 -0.5338 -0.4941
10254WAT     H141736   0.687   6.971   2.026 -0.5988 -0.3169  0.0705
10254WAT     H241737   0.704   7.088   2.096  0.2201 -0.8088  0.7039
10254WAT    EPW41738   0.732   7.020   2.068 -0.0603 -0.5424 -0.2337
10255WAT      O41739   4.238   5.667   2.214 -0.0178  0.0514 -0.1935
10255WAT     H141740   4.214   5.626   2.142  0.7513  0.6358 -0.8058
10255WAT     H241741   4.180   5.732   2.221  0.8546  0.9800 -1.2194
10255WAT    EPW41742   4.226   5.671   2.205  0.2247  0.2749 -0.4355
10256WAT      O41743   1.025   3.628   2.705 -0.2004 -0.4026  0.2721
10256WAT     H141744   1.075   3.685   2.749  0.8907 -2.1176  1.4045
10256WAT     H241745   1.040   3.647   2.622  1.1998  0.0985  0.6082
10256WAT    EPW41746   1.035   3.640   2.699  0.1676 -0.5819  0.4890
10257WAT      O41747   0.336   0.268   5.075  0.1059  0.4994  0.3311
10257WAT     H141748   0.362   0.302   4.999 -0.6424  2.7169  0.9841
10257WAT     H241749   0.250   0.256   5.063 -0.0050  0.8140  0.8065
10257WAT    EPW41750   0.327   0.272   5.062 -0.0210  0.8734  0.4978
10258WAT      O41751   5.659   5.748   2.638  0.7326 -0.4894 -0.1890
10258WAT     H141752   5.740   5.774   2.654  0.5684  0.4903 -0.8915
10258WAT     H241753   5.614   5.779   2.706  0.9609 -1.1919  0.2956
10258WAT    EPW41754   5.664   5.756   2.651  0.7421 -0.4484 -0.2212
10259WAT      O41755   2.704   4.106   2.924 -0.0271  0.0603 -0.0692
10259WAT     H141756   2.763   4.096   2.860  0.0125 -0.1058 -0.0070
10259WAT     H241757   2.754   4.116   2.996 -0.0500 -2.2497  0.3376
10259WAT    EPW41758   2.720   4.106   2.925 -0.0247 -0.3055  0.0001
10260WAT      O41759   3.154   2.207   5.322  0.2852 -0.1366  0.6639
10260WAT     H141760   3.125   2.204   5.404  0.1004  0.7787  0.6461
10260WAT     H241761   3.095   2.161   5.278  0.8656 -1.4020  1.1582
10260WAT    EPW41762   3.141   2.200   5.328  0.3436 -0.1883  0.7343
10261WAT      O41763   5.836   6.175   2.528  0.7754 -0.4621 -0.0239
10261WAT     H141764   5.765   6.124   2.536  1.7244 -1.9672 -0.8641
10261WAT     H241765   5.806   6.244   2.483 -0.0885 -1.2313 -0.6688
10261WAT    EPW41766   5.821   6.178   2.523  0.7880 -0.7980 -0.2433
10262WAT      O41767   6.197   6.402   4.976  0.3233 -0.1538  0.5090
10262WAT     H141768   6.197   6.488   4.989  3.4221  0.3060 -1.4078
10262WAT     H241769   6.258   6.373   5.030  0.3478 -0.9168  0.0860
10262WAT    EPW41770   6.206   6.410   4.986  0.7847 -0.1986  0.1634
10263WAT      O41771   2.813   5.880   4.809  0.2047  0.1032  0.0979
10263WAT     H141772   2.894   5.912   4.810  0.8021 -1.2699  1.8661
10263WAT     H241773   2.773   5.923   4.874  0.6167 -1.6235  1.5792
10263WAT    EPW41774   2.819   5.891   4.819  0.3538 -0.3547  0.5779
10264WAT      O41775   3.448   2.082   0.382 -0.0466 -0.2569 -0.1511
10264WAT     H141776   3.497   2.010   0.374  2.3401  1.3273 -0.9526
10264WAT     H241777   3.474   2.133   0.316 -1.5247  1.4388  0.4634
10264WAT    EPW41778   3.459   2.079   0.371  0.0876  0.2276 -0.1787
10265WAT      O41779   6.256   7.247   4.576 -0.1860 -0.2387 -0.3071
10265WAT     H141780   6.340   7.245   4.551  0.3162  0.5306  1.2090
10265WAT     H241781   6.220   7.306   4.522 -0.0808 -1.4294 -1.7628
10265WAT    EPW41782   6.263   7.256   4.564 -0.0963 -0.3010 -0.2982
10266WAT      O41783   4.277   6.964   5.502  0.0435 -0.1022 -0.0135
10266WAT     H141784   4.236   6.927   5.569 -1.7305  0.1034 -0.9323
10266WAT     H241785   4.213   7.003   5.457  1.6861  3.8109  0.6310
10266WAT    EPW41786   4.262   6.964   5.505  0.0241  0.5062 -0.0540
10267WAT      O41787   0.446   4.188   5.457 -0.4643  0.1347  0.3956
10267WAT     H141788   0.518   4.146   5.433 -0.4783 -0.1731  0.8685
10267WAT     H241789   0.474   4.244   5.518 -0.6940 -0.3652  0.9782
10267WAT    EPW41790   0.461   4.190   5.463 -0.5003  0.0154  0.5515
10268WAT      O41791   4.296   1.154   5.541  0.3172  0.3473  0.1614
10268WAT     H141792   4.290   1.069   5.519  0.5846  0.4076 -0.1298
10268WAT     H241793   4.379   1.174   5.527  0.5087  0.3879  1.2113
10268WAT    EPW41794   4.307   1.144   5.536  0.3850  0.3622  0.2735
10269WAT      O41795   2.758   4.172   1.851 -0.0563 -0.1708 -0.5773
10269WAT     H141796   2.823   4.221   1.881  0.1241 -0.4932 -0.4298
10269WAT     H241797   2.797   4.098   1.826 -0.4980 -0.8939  0.7186
10269WAT    EPW41798   2.773   4.168   1.852 -0.0949 -0.3252 -0.3641
10270WAT      O41799   3.068   4.480   2.308 -0.9498  0.1879  0.2480
10270WAT     H141800   3.000   4.425   2.304  0.0806 -1.1721  0.4798
10270WAT     H241801   3.119   4.454   2.242 -1.1323  1.9002 -0.6150
10270WAT    EPW41802   3.065   4.468   2.298 -0.8246  0.2399  0.1548
10271WAT      O41803   7.072   1.373   6.470 -0.6429 -0.2033  0.2000
10271WAT     H141804   7.064   1.433   6.407  0.6414 -0.0747  0.1314
10271WAT     H241805   7.140   1.326   6.445 -0.0998 -0.1487  1.4906
10271WAT    EPW41806   7.081   1.375   6.457 -0.3729 -0.1762  0.3805
10272WAT      O41807   1.868   0.376   2.578 -0.3226  0.1209  0.1539
10272WAT     H141808   1.809   0.355   2.518 -0.1193 -2.4048  0.7437
10272WAT     H241809   1.918   0.435   2.537 -1.7089  0.4326 -1.2119
10272WAT    EPW41810   1.866   0.382   2.563 -0.4973 -0.2061  0.0393
10273WAT      O41811   4.787   6.228   6.399  0.2870 -0.3465 -0.2539
10273WAT     H141812   4.793   6.314   6.414 -1.6111 -0.0566 -0.8757
10273WAT     H241813   4.862   6.208   6.360  0.4321  1.2091 -0.8194
10273WAT    EPW41814   4.799   6.238   6.395  0.0280 -0.0739 -0.4293
10274WAT      O41815   2.158   5.243   6.802  0.9157  0.6380 -0.1372
10274WAT     H141816   2.245   5.249   6.793  1.0500 -1.4191 -0.7910
10274WAT     H241817   2.148   5.203   6.879  0.7273 -1.3459 -1.1087
10274WAT    EPW41818   2.169   5.238   6.812  0.9077  0.0411 -0.3773
10275WAT      O41819   4.018   0.874   3.187  0.3575 -0.4557 -0.8986
10275WAT     H141820   3.964   0.807   3.174  0.1441 -1.1903  2.6169
10275WAT     H241821   3.964   0.943   3.193 -0.0374 -0.8232  0.2644
10275WAT    EPW41822   4.002   0.874   3.186  0.2676 -0.6185 -0.2075
10276WAT      O41823   1.209   5.889   6.839  0.3055  0.6860  0.4698
10276WAT     H141824   1.194   5.804   6.855 -0.7715  0.5920 -0.8475
10276WAT     H241825   1.289   5.889   6.805  0.4962  0.2470  0.9028
10276WAT    EPW41826   1.219   5.876   6.836  0.1746  0.6072  0.3392
10277WAT      O41827   1.858   1.485   1.605  0.4030  0.5949 -0.7006
10277WAT     H141828   1.884   1.453   1.528 -1.0661 -1.8702 -0.2530
10277WAT     H241829   1.774   1.503   1.593 -0.5623 -2.2102  0.8976
10277WAT    EPW41830   1.850   1.483   1.592  0.0434 -0.1836 -0.3984
10278WAT      O41831   0.759   3.805   0.556 -0.1686  0.3244  0.9273
10278WAT     H141832   0.824   3.784   0.611  0.7675  1.5780  0.3482
10278WAT     H241833   0.748   3.733   0.509  1.7765  0.4783  0.1324
10278WAT    EPW41834   0.767   3.791   0.557  0.2570  0.5323  0.7243
10279WAT      O41835   5.965   5.588   2.378 -0.1492  0.1629 -0.5462
10279WAT     H141836   5.928   5.523   2.423 -0.2712  0.1936 -0.5991
10279WAT     H241837   5.907   5.604   2.315 -1.3584  2.0024  0.9162
10279WAT    EPW41838   5.951   5.581   2.375 -0.3458  0.4391 -0.3380
10280WAT      O41839   5.440   4.856   2.015  0.0868  0.1996  0.4432
10280WAT     H141840   5.420   4.807   2.083  0.9021  0.9029  1.2146
10280WAT     H241841   5.486   4.803   1.963  1.2700  0.2128  1.4341
10280WAT    EPW41842   5.444   4.841   2.017  0.3820  0.3055  0.7036
10281WAT      O41843   5.196   2.917   3.680 -0.3979 -0.3737 -0.3875
10281WAT     H141844   5.179   2.973   3.745  2.2677 -0.1263  0.2387
10281WAT     H241845   5.117   2.893   3.652 -1.6496  1.9505  0.8195
10281WAT    EPW41846   5.182   2.922   3.686 -0.1890  0.0062 -0.1167
10282WAT      O41847   0.599   3.413   2.230 -0.4214 -0.0085 -0.2622
10282WAT     H141848   0.533   3.466   2.250  0.1231 -0.2297  2.5408
10282WAT     H241849   0.570   3.334   2.257  0.3040 -0.4094 -0.6280
10282WAT    EPW41850   0.585   3.409   2.237 -0.2338 -0.1004  0.0978
10283WAT      O41851   0.861   5.257   5.079 -0.3136  0.1112  0.4069
10283WAT     H141852   0.875   5.282   5.161 -0.7862 -1.3708  0.9597
10283WAT     H241853   0.866   5.170   5.082 -2.2391 -0.1012 -0.7406
10283WAT    EPW41854   0.864   5.248   5.091 -0.6678 -0.1391  0.3191
10284WAT      O41855   0.459   3.279   1.636 -0.2032 -0.1115  0.3343
10284WAT     H141856   0.504   3.236   1.697 -0.8316  0.1698  1.0182
10284WAT     H241857   0.404   3.219   1.604  0.5115 -0.4037 -0.3609
10284WAT    EPW41858   0.457   3.264   1.640 -0.1904 -0.1131  0.3326
10285WAT      O41859   7.054   2.078   5.822 -0.6574 -0.2440 -0.4921
10285WAT     H141860   7.047   2.081   5.735 -0.8946 -1.8422 -0.5720
10285WAT     H241861   6.976   2.105   5.851 -1.6634 -2.4135 -0.9116
10285WAT    EPW41862   7.041   2.082   5.813 -0.8411 -0.8005 -0.5659
10286WAT      O41863   0.328   2.947   7.200  0.1955  0.0412 -0.2839
10286WAT     H141864   0.243   2.954   7.219 -0.1698  1.4940 -2.1353
10286WAT     H241865   0.357   2.886   7.256 -1.7551  0.4591  1.2933
10286WAT    EPW41866   0.320   2.939   7.211 -0.1466  0.3175 -0.3244
10287WAT      O41867   6.025   2.040   0.600 -0.0082 -0.2814  0.2822
10287WAT     H141868   5.979   2.007   0.666 -1.3506  1.3568  0.2247
10287WAT     H241869   5.991   2.120   0.589  1.6552  0.3165 -0.9589
10287WAT    EPW41870   6.013   2.047   0.608  0.0392  0.0489  0.0904
10288WAT      O41871   6.142   6.776   4.518 -0.3562 -0.5186  0.5395
10288WAT     H141872   6.120   6.830   4.583 -0.3488 -0.2221  0.2975
10288WAT     H241873   6.129   6.696   4.552 -1.3700 -0.3598  0.5416
10288WAT    EPW41874   6.137   6.772   4.533 -0.5049 -0.4513  0.5041
10289WAT      O41875   7.012   5.867   1.613 -0.5868 -0.4637  0.4645
10289WAT     H141876   6.982   5.861   1.531  2.6549  1.4852 -1.0308
10289WAT     H241877   7.011   5.784   1.641 -1.4593 -1.2408 -1.6652
10289WAT    EPW41878   7.007   5.854   1.605 -0.2368 -0.2906 -0.0710
10290WAT      O41879   6.824   2.484   1.038  0.7035  0.1776  0.3073
10290WAT     H141880   6.885   2.546   1.029  0.2642  0.9435  2.0718
10290WAT     H241881   6.864   2.423   1.087 -0.3467  1.4967  3.0556
10290WAT    EPW41882   6.839   2.484   1.044  0.4835  0.4856  0.9739
10291WAT      O41883   6.267   5.165   4.399 -0.0045  0.4562  0.4119
10291WAT     H141884   6.305   5.128   4.468  0.7704 -0.9666 -0.7223
10291WAT     H241885   6.283   5.250   4.411  2.4398  0.0355  0.6796
10291WAT    EPW41886   6.275   5.172   4.411  0.4710  0.1839  0.2839
10292WAT      O41887   6.154   6.237   4.747 -0.2621  0.4365  0.7830
10292WAT     H141888   6.221   6.181   4.754 -0.1557  0.6371  1.4924
10292WAT     H241889   6.172   6.297   4.807  0.6067  2.2746 -1.1902
10292WAT    EPW41890   6.167   6.238   4.757 -0.1180  0.7376  0.5963
10293WAT      O41891   5.392   4.176   7.194 -0.1351  0.2241  0.2856
10293WAT     H141892   5.391   4.194   7.279  2.5827  1.8224  0.0951
10293WAT     H241893   5.463   4.217   7.165 -1.1169 -0.0144 -2.8392
10293WAT    EPW41894   5.402   4.185   7.202  0.1214  0.4250 -0.2042
10294WAT      O41895   0.391   3.949   6.753 -0.2493 -0.7901 -0.0615
10294WAT     H141896   0.430   3.871   6.752  0.3037 -0.5134  0.2379
10294WAT     H241897   0.403   3.978   6.834 -0.8024 -0.5620 -0.0555
10294WAT    EPW41898   0.398   3.942   6.765 -0.2493 -0.7155 -0.0164
10295WAT      O41899   2.975   6.101   5.716  0.1393  0.5784 -0.2563
10295WAT     H141900   2.893   6.116   5.744  0.2082 -0.0131  0.2697
10295WAT     H241901   3.019   6.171   5.745  0.0316  0.3892  0.3797
10295WAT    EPW41902   2.969   6.114   5.725  0.1336  0.4631 -0.0847
10296WAT      O41903   3.804   6.079   2.104 -0.2257  0.1453 -1.4882
10296WAT     H141904   3.776   6.028   2.039 -1.7907 -0.4438 -0.4061
10296WAT     H241905   3.758   6.152   2.096 -1.8173 -0.6184 -0.0310
10296WAT    EPW41906   3.793   6.082   2.093 -0.6920 -0.0545 -1.1131
10297WAT      O41907   7.108   2.704   3.879 -0.2382 -0.1243  0.1690
10297WAT     H141908   7.165   2.649   3.842 -1.3557 -0.6076 -0.9282
10297WAT     H241909   7.086   2.664   3.953 -0.5611 -0.8655 -0.3168
10297WAT    EPW41910   7.113   2.690   3.885 -0.4509 -0.3052 -0.0649
10298WAT      O41911   0.989   5.305   3.680  0.6459 -0.0332 -0.2127
10298WAT     H141912   1.025   5.227   3.695 -0.5872 -0.7883 -1.0161
10298WAT     H241913   0.927   5.312   3.740 -0.5064 -0.5423 -1.3015
10298WAT    EPW41914   0.985   5.295   3.691  0.2935 -0.2199 -0.4922
10299WAT      O41915   4.438   6.356   6.884 -0.1082  0.0368 -0.2609
10299WAT     H141916   4.376   6.409   6.855 -2.0542 -0.5347  2.4090
10299WAT     H241917   4.399   6.278   6.887  1.6064 -0.9040 -0.9411
10299WAT    EPW41918   4.423   6.352   6.880 -0.1424 -0.1866  0.0330
10300WAT      O41919   6.399   0.182   2.553  0.4243 -0.4215 -0.1318
10300WAT     H141920   6.371   0.181   2.470 -0.2080 -2.0097  0.0873
10300WAT     H241921   6.331   0.153   2.599  1.1002 -0.5144  0.8415
10300WAT    EPW41922   6.385   0.178   2.547  0.4308 -0.6699  0.0443
10301WAT      O41923   3.155   0.564   1.033 -0.3347 -0.0794 -0.3892
10301WAT     H141924   3.069   0.576   1.035 -0.1496  1.5393 -0.5253
10301WAT     H241925   3.181   0.588   1.113 -0.1037 -1.7036  0.0622
10301WAT    EPW41926   3.146   0.569   1.045 -0.2733 -0.0802 -0.3426
10302WAT      O41927   6.575   6.932   3.589 -0.5852 -0.5033 -0.2628
10302WAT     H141928   6.619   6.985   3.642 -0.0542  1.0475 -2.1160
10302WAT     H241929   6.632   6.868   3.572 -1.0481 -1.4840  1.5803
10302WAT    EPW41930   6.590   6.930   3.594 -0.5752 -0.4191 -0.2643
10303WAT      O41931   5.050   6.864   1.195  0.1281  0.3739  0.2370
10303WAT     H141932   5.072   6.904   1.270 -1.6068 -0.8627  1.4664
10303WAT     H241933   5.109   6.800   1.188 -1.4036 -1.3907  2.2097
10303WAT    EPW41934   5.062   6.861   1.205 -0.3544 -0.0695  0.7100
10304WAT      O41935   2.889   3.530   1.128 -0.5243 -0.4925 -0.0367
10304WAT     H141936   2.897   3.444   1.139  2.1268 -0.0963  2.2774
10304WAT     H241937   2.913   3.542   1.045  2.5033 -1.8302  0.4904
10304WAT    EPW41938   2.894   3.519   1.117  0.3145 -0.6316  0.3830
10305WAT      O41939   2.461   2.056   3.093  0.3275 -0.4370 -0.3150
10305WAT     H141940   2.448   2.005   3.023  0.3294 -2.5514  1.1495
10305WAT     H241941   2.385   2.053   3.135 -0.2513  2.2024 -0.9670
10305WAT    EPW41942   2.448   2.048   3.089  0.2422 -0.3595 -0.1950
10306WAT      O41943   2.777   2.906   5.670  0.0217  0.2156  0.3076
10306WAT     H141944   2.810   2.985   5.651 -0.3307  0.0035 -1.3462
10306WAT     H241945   2.841   2.851   5.647  0.8730  0.0006  2.8356
10306WAT    EPW41946   2.792   2.910   5.664  0.0954  0.1525  0.4367
10307WAT      O41947   3.761   6.418   1.431 -0.1238 -0.4811 -0.1028
10307WAT     H141948   3.756   6.431   1.345 -0.8536  1.0140  0.1224
10307WAT     H241949   3.837   6.456   1.453  0.1406 -1.0043 -0.1036
10307WAT    EPW41950   3.772   6.426   1.421 -0.1926 -0.3375 -0.0696
10308WAT      O41951   7.055   6.409   3.575 -0.0609  0.7919  0.1792
10308WAT     H141952   7.053   6.451   3.499 -2.2289  1.1508  0.3887
10308WAT     H241953   7.025   6.467   3.632 -0.3967 -0.1057  0.9514
10308WAT    EPW41954   7.050   6.424   3.572 -0.4308  0.7123  0.3242
10309WAT      O41955   1.567   4.396   4.193  0.3994 -0.2935  0.2149
10309WAT     H141956   1.536   4.380   4.112 -0.6631  0.8118  0.3789
10309WAT     H241957   1.560   4.482   4.201  0.1101 -0.4308  1.6518
10309WAT    EPW41958   1.562   4.406   4.182  0.1997 -0.1505  0.4514
10310WAT      O41959   0.451   0.323   5.792 -0.3992 -0.3161 -0.1635
10310WAT     H141960   0.427   0.268   5.855 -0.3477 -0.4373 -0.2468
10310WAT     H241961   0.401   0.393   5.804 -0.6870 -0.5047 -0.2442
10310WAT    EPW41962   0.440   0.325   5.803 -0.4341 -0.3618 -0.1877
10311WAT      O41963   0.298   2.807   3.859  0.4591  0.3263 -0.4345
10311WAT     H141964   0.368   2.779   3.815  0.5851 -0.3167  0.1611
10311WAT     H241965   0.332   2.848   3.928  0.2525 -0.3952  0.1040
10311WAT    EPW41966   0.313   2.809   3.862  0.4472  0.1247 -0.2670
10312WAT      O41967   7.285   0.045   1.720 -0.3952  0.2261 -0.0979
10312WAT     H141968   7.235   0.002   1.777  0.0919  1.4177  1.3028
10312WAT     H241969   7.345   0.084   1.771  2.1121 -1.2530 -1.6840
10312WAT    EPW41970   7.287   0.045   1.736  0.0471  0.1837 -0.1253
10313WAT      O41971   4.241   4.960   7.172 -0.4872  0.0730  0.6344
10313WAT     H141972   4.236   4.988   7.089 -0.2272 -0.7735  0.3216
10313WAT     H241973   4.282   5.025   7.213 -0.2909  0.3498  0.0201
10313WAT    EPW41974   4.246   4.974   7.166 -0.4198 -0.0112  0.4974
10314WAT      O41975   2.933   0.988   1.071 -0.6803  0.2061  0.1822
10314WAT     H141976   2.991   0.940   1.114 -0.9849 -1.4642 -1.1571
10314WAT     H241977   2.979   1.057   1.045  0.5049 -0.6493 -0.0926
10314WAT    EPW41978   2.948   0.991   1.073 -0.5502 -0.1670 -0.0563
10315WAT      O41979   1.621   0.831   4.247  0.2198  0.5066 -0.2335
10315WAT     H141980   1.596   0.895   4.192 -1.7673  1.7052  1.9189
10315WAT     H241981   1.546   0.793   4.270  1.0314 -0.2694  1.2780
10315WAT    EPW41982   1.606   0.835   4.242  0.0462  0.5690  0.3078
10316WAT      O41983   4.591   6.364   5.208 -0.6941 -0.0707 -0.6085
10316WAT     H141984   4.651   6.335   5.152 -2.1449  0.0513 -2.3227
10316WAT     H241985   4.638   6.396   5.274  1.1082  0.1426 -1.9305
10316WAT    EPW41986   4.607   6.364   5.210 -0.6422 -0.0212 -1.0570
10317WAT      O41987   2.511   4.996   6.700  0.2803 -0.6442  0.4792
10317WAT     H141988   2.538   4.937   6.642 -0.4458  0.2964 -0.8802
10317WAT     H241989   2.515   5.071   6.656  1.0743  0.3189  2.1293
10317WAT    EPW41990   2.515   4.998   6.685  0.2903 -0.3630  0.5221
10318WAT      O41991   1.120   3.834   6.299  0.0217  0.1640  0.1750
10318WAT     H141992   1.170   3.789   6.243  0.5986  0.5215  0.4024
10318WAT     H241993   1.088   3.899   6.251  1.0144  0.8389  0.3906
10318WAT    EPW41994   1.123   3.837   6.284  0.2536  0.3165  0.2404
10319WAT      O41995   4.843   2.500   6.262  0.5405 -0.0833 -0.2142
10319WAT     H141996   4.917   2.544   6.276  1.4537 -1.5482 -0.2166
10319WAT     H241997   4.845   2.437   6.323 -0.4040 -0.5002 -0.5950
10319WAT    EPW41998   4.854   2.497   6.273  0.5359 -0.3613 -0.2708
10320WAT      O41999   1.116   5.255   0.690  0.1676 -0.0100  0.1851
10320WAT     H142000   1.108   5.169   0.677  0.2974  0.1976 -1.5179
10320WAT     H242001   1.202   5.267   0.696  0.1807  0.0597 -0.1194
10320WAT    EPW42002   1.128   5.244   0.689  0.1887  0.0310 -0.1115
10321WAT      O42003   1.590   2.765   4.338 -0.0906 -0.1372 -0.3749
10321WAT     H142004   1.663   2.776   4.386 -0.0065 -2.3935  0.1293
10321WAT     H242005   1.616   2.711   4.275 -0.6763  1.3333 -1.9341
10321WAT    EPW42006   1.605   2.759   4.336 -0.1647 -0.2533 -0.5308
10322WAT      O42007   0.149   5.482   1.950  0.1244  0.3184 -0.1604
10322WAT     H142008   0.160   5.399   1.924 -0.6134  0.0721  0.2792
10322WAT     H242009   0.194   5.486   2.024 -0.5468  0.0446  0.2799
10322WAT    EPW42010   0.157   5.470   1.957 -0.0837  0.2415 -0.0304
10323WAT      O42011   5.919   6.109   1.126 -0.2772  0.0838  0.1433
10323WAT     H142012   5.871   6.145   1.063  0.4067 -0.8742 -0.9609
10323WAT     H242013   5.981   6.169   1.141  0.6439 -0.4173 -1.4269
10323WAT    EPW42014   5.921   6.124   1.119 -0.0401 -0.1318 -0.2517
10324WAT      O42015   6.669   7.065   6.622 -0.7706 -0.1642 -0.1122
10324WAT     H142016   6.598   7.115   6.613 -1.1637 -0.9514 -1.8019
10324WAT     H242017   6.712   7.078   6.547 -1.3638 -2.9709 -1.0767
10324WAT    EPW42018   6.665   7.074   6.609 -0.9163 -0.6951 -0.5043
10325WAT      O42019   1.632   2.468   6.715  0.3922  0.6163 -0.3475
10325WAT     H142020   1.649   2.418   6.784  1.2348  0.8633 -0.3556
10325WAT     H242021   1.598   2.413   6.657  3.3983 -0.5214 -1.2091
10325WAT    EPW42022   1.630   2.453   6.716  0.9607  0.4847 -0.4760
10326WAT      O42023   2.727   5.229   4.728  0.6872 -0.2542 -0.3258
10326WAT     H142024   2.811   5.208   4.739  0.3275 -2.1312 -0.7888
10326WAT     H242025   2.694   5.226   4.808  0.9851  0.1363 -0.1871
10326WAT    EPW42026   2.734   5.226   4.741  0.6781 -0.4738 -0.3737
10327WAT      O42027   1.385   2.242   2.934  0.1845  0.4014  0.5700
10327WAT     H142028   1.371   2.284   2.860  1.1044  1.1570  0.8120
10327WAT     H242029   1.471   2.250   2.947  0.3699 -1.3775  0.7323
10327WAT    EPW42030   1.395   2.249   2.925  0.3478  0.2502  0.6297
10328WAT      O42031   3.029   2.433   1.791 -0.3061  0.3221 -0.2378
10328WAT     H142032   2.944   2.448   1.807 -0.8539 -1.9775 -0.7362
10328WAT     H242033   3.069   2.488   1.846 -2.1169 -0.1531  1.6902
10328WAT    EPW42034   3.022   2.444   1.801 -0.6545 -0.0878 -0.0266
10329WAT      O42035   2.237   3.618   4.773  0.1961 -0.8323  0.0358
10329WAT     H142036   2.232   3.658   4.850 -0.9544  1.2836 -1.0600
10329WAT     H242037   2.322   3.602   4.763  0.6146  0.7356  0.8597
10329WAT    EPW42038   2.249   3.621   4.783  0.0880 -0.2882 -0.0044
10330WAT      O42039   0.099   3.254   0.307 -0.6058  0.5525  0.0605
10330WAT     H142040   0.155   3.243   0.373 -0.0337 -2.3727 -0.7646
10330WAT     H242041   0.150   3.275   0.240 -0.0425 -3.3039 -1.0004
10330WAT    EPW42042   0.115   3.255   0.307 -0.4381 -0.4493 -0.2181
10331WAT      O42043   2.121   1.054   6.149 -0.8592 -0.0171 -0.2133
10331WAT     H142044   2.174   1.116   6.180  0.2459 -0.6773 -0.7508
10331WAT     H242045   2.174   0.988   6.132 -2.1276 -1.4861  1.2311
10331WAT    EPW42046   2.137   1.054   6.151 -0.8833 -0.3316 -0.0793
10332WAT      O42047   2.212   4.345   3.204 -0.5451 -0.5406 -0.4966
10332WAT     H142048   2.239   4.262   3.198  0.7046 -0.1551 -0.5185
10332WAT     H242049   2.125   4.339   3.199 -0.5429 -1.9414  0.4888
10332WAT    EPW42050   2.203   4.332   3.203 -0.3601 -0.6906 -0.3542
10333WAT      O42051   3.481   0.842   4.088 -0.4525  0.2781  0.2760
10333WAT     H142052   3.444   0.764   4.101 -0.1222 -0.2795 -1.8641
10333WAT     H242053   3.424   0.897   4.124 -0.9163 -0.8850  1.4220
10333WAT    EPW42054   3.467   0.838   4.095 -0.4722  0.0239  0.1291
10334WAT      O42055   2.184   6.693   5.303  0.1296 -0.1135  0.0097
10334WAT     H142056   2.195   6.606   5.300 -1.0527 -0.3091  0.6371
10334WAT     H242057   2.203   6.713   5.386 -2.3815 -0.2462  0.6964
10334WAT    EPW42058   2.189   6.683   5.315 -0.4160 -0.1620  0.2038
10335WAT      O42059   0.072   4.427   0.477  0.2212  0.1067 -0.0577
10335WAT     H142060   0.105   4.387   0.406 -0.4428  4.1397 -2.9945
10335WAT     H242061   0.139   4.474   0.506  0.9387 -2.5783  3.2203
10335WAT    EPW42062   0.087   4.428   0.471  0.2291  0.3058 -0.0073
10336WAT      O42063   2.056   2.946   6.874 -0.3900 -0.7031  0.1448
10336WAT     H142064   2.005   2.887   6.836  0.2162 -1.6246  0.7303
10336WAT     H242065   2.050   3.015   6.821 -1.6840 -1.0245 -0.1595
10336WAT    EPW42066   2.048   2.948   6.861 -0.4916 -0.8867  0.1864
10337WAT      O42067   2.649   6.545   1.169 -0.1474 -0.0692 -0.1697
10337WAT     H142068   2.601   6.526   1.239 -1.8402 -1.5776 -1.6480
10337WAT     H242069   2.704   6.477   1.163 -0.3591 -0.2091 -0.5773
10337WAT    EPW42070   2.650   6.532   1.178 -0.4287 -0.3127 -0.4483
10338WAT      O42071   2.565   6.593   6.663  0.3797 -0.3081 -0.0014
10338WAT     H142072   2.602   6.526   6.621  0.5093 -0.0046 -0.3712
10338WAT     H242073   2.483   6.565   6.676  0.5657 -0.7380  0.2905
10338WAT    EPW42074   2.558   6.579   6.659  0.4263 -0.3268 -0.0129
10339WAT      O42075   3.178   6.547   6.465 -0.1294 -0.0614 -0.0642
10339WAT     H142076   3.165   6.581   6.386  0.9742 -1.7929 -1.0728
10339WAT     H242077   3.098   6.541   6.499 -0.6327  0.6795 -1.0680
10339WAT    EPW42078   3.165   6.551   6.458 -0.0407 -0.2077 -0.3615
10340WAT      O42079   1.160   2.595   3.257  0.5685 -0.1970  0.0468
10340WAT     H142080   1.173   2.534   3.196  1.5329  0.3101 -0.2760
10340WAT     H242081   1.191   2.558   3.330 -0.3517 -0.7070  0.1845
10340WAT    EPW42082   1.167   2.581   3.259  0.5750 -0.1974  0.0195
10341WAT      O42083   6.318   4.933   2.197  0.1364  0.2283  0.1736
10341WAT     H142084   6.233   4.932   2.178  0.0093  0.9852  0.6602
10341WAT     H242085   6.324   4.993   2.259  0.7982 -0.9258  1.2692
10341WAT    EPW42086   6.306   4.942   2.203  0.2153  0.1696  0.4073
10342WAT      O42087   4.219   5.499   2.420  0.4139 -0.3555  0.6770
10342WAT     H142088   4.290   5.453   2.401  0.7983  0.0899  0.9963
10342WAT     H242089   4.220   5.563   2.360 -0.8488 -1.4927 -0.6116
10342WAT    EPW42090   4.230   5.502   2.408  0.2842 -0.4577  0.5338
10343WAT      O42091   4.825   5.525   4.876  0.5015  0.3106 -0.3644
10343WAT     H142092   4.802   5.492   4.798  1.8164  0.2113 -0.7215
10343WAT     H242093   4.907   5.552   4.864  0.5762  0.6870  0.8779
10343WAT    EPW42094   4.833   5.524   4.862  0.7068  0.3515 -0.2336
10344WAT      O42095   3.130   1.559   6.990  0.0246 -0.5562 -0.1348
10344WAT     H142096   3.103   1.630   7.033 -0.4330 -0.3944 -0.6802
10344WAT     H242097   3.201   1.586   6.947 -0.3975 -0.3149 -0.6809
10344WAT    EPW42098   3.136   1.574   6.990 -0.1053 -0.4967 -0.2960
10345WAT      O42099   3.622   3.907   6.110 -0.1541  0.0591  0.3741
10345WAT     H142100   3.600   3.984   6.075  0.6391  0.2344  0.2396
10345WAT     H242101   3.658   3.929   6.187 -0.6206 -0.2307  0.6780
10345WAT    EPW42102   3.624   3.922   6.116 -0.1058  0.0422  0.3991
10346WAT      O42103   5.320   2.863   3.239 -0.4214  0.0023  0.1658
10346WAT     H142104   5.406   2.869   3.249 -0.2033 -1.3588 -0.6668
10346WAT     H242105   5.311   2.807   3.173 -1.9464  0.3744  0.0247
10346WAT    EPW42106   5.331   2.856   3.231 -0.6145 -0.1438  0.0220
10347WAT      O42107   2.919   1.920   5.590 -0.7723  0.2604  0.3600
10347WAT     H142108   2.995   1.899   5.552 -0.2530 -0.1620  1.6103
10347WAT     H242109   2.942   1.980   5.649 -1.4071  0.1212  0.7532
10347WAT    EPW42110   2.934   1.926   5.593 -0.7893  0.1774  0.6028
10348WAT      O42111   5.054   5.958   4.931 -0.4665 -0.3570 -0.1154
10348WAT     H142112   4.997   5.910   4.978 -0.5353  0.4032  0.5978
10348WAT     H242113   5.044   6.038   4.963  0.7473 -0.1412 -0.2343
10348WAT    EPW42114   5.044   5.962   4.943 -0.2973 -0.2128 -0.0276
10349WAT      O42115   5.641   5.693   1.310 -0.5279  0.4750  0.3121
10349WAT     H142116   5.581   5.697   1.374 -0.2052  0.2238  0.6365
10349WAT     H242117   5.675   5.773   1.309  0.0954  0.2313  1.0785
10349WAT    EPW42118   5.637   5.705   1.320 -0.3882  0.4019  0.4732
10350WAT      O42119   1.057   2.775   3.456  0.4557 -0.3921  0.3269
10350WAT     H142120   1.103   2.733   3.394  2.6635  3.6083 -1.1387
10350WAT     H242121   0.978   2.783   3.420  0.8548 -0.7404 -0.6842
10350WAT    EPW42122   1.052   2.770   3.441  0.8408  0.1474 -0.0390
10351WAT      O42123   1.381   6.873   2.435 -0.4994 -0.2242  0.2695
10351WAT     H142124   1.437   6.890   2.370 -1.2150 -1.8450 -0.8406
10351WAT     H242125   1.369   6.787   2.430 -1.3152 -0.2498  1.9659
10351WAT    EPW42126   1.387   6.863   2.425 -0.7256 -0.4674  0.3561
10352WAT      O42127   2.091   0.960   5.798 -0.2644 -0.0799 -0.4469
10352WAT     H142128   2.129   1.012   5.857 -0.1604 -1.9669  1.2754
10352WAT     H242129   2.013   0.996   5.786 -0.1447  0.5752  0.6049
10352WAT    EPW42130   2.085   0.973   5.805 -0.2313 -0.2619 -0.0371
10353WAT      O42131   4.137   1.286   0.735  0.0131  0.7319  0.2493
10353WAT     H142132   4.100   1.235   0.795  1.1206  0.1419  0.4698
10353WAT     H242133   4.089   1.273   0.664 -0.2980  0.1086  0.5650
10353WAT    EPW42134   4.125   1.276   0.733  0.1307  0.5527  0.3285
10354WAT      O42135   3.655   5.563   1.442  0.0485 -0.0622 -0.0334
10354WAT     H142136   3.692   5.500   1.490 -0.7042 -0.9581 -0.5751
10354WAT     H242137   3.722   5.611   1.415  0.6033 -0.3694  0.7661
10354WAT    EPW42138   3.670   5.561   1.445  0.0193 -0.2399  0.0047
10355WAT      O42139   4.784   6.320   3.967  0.4666  0.3779 -0.0970
10355WAT     H142140   4.759   6.240   3.941  1.5752 -0.2428  0.6769
10355WAT     H242141   4.751   6.373   3.906 -1.8396 -0.4704  0.3011
10355WAT    EPW42142   4.775   6.316   3.954  0.2897  0.1609  0.0761
10356WAT      O42143   4.189   1.467   4.235 -0.6571  0.2420  0.4968
10356WAT     H142144   4.157   1.395   4.197 -2.2744  1.2168 -0.1312
10356WAT     H242145   4.273   1.449   4.246 -0.3773 -0.6954 -2.2375
10356WAT    EPW42146   4.197   1.454   4.231 -0.8547  0.2475  0.0001
10357WAT      O42147   0.518   5.484   0.196 -0.0432 -0.4686 -0.3791
10357WAT     H142148   0.472   5.426   0.243  0.3395 -1.8439 -1.6110
10357WAT     H242149   0.599   5.475   0.226 -0.2205  0.5596  0.4633
10357WAT    EPW42150   0.523   5.474   0.208 -0.0129 -0.5199 -0.4367
10358WAT      O42151   2.654   5.866   1.625  0.5762  0.6403 -0.4164
10358WAT     H142152   2.727   5.900   1.590  0.2155  0.7781 -1.0491
10358WAT     H242153   2.616   5.825   1.558  1.0727 -1.1951  0.3592
10358WAT    EPW42154   2.660   5.865   1.610  0.5962  0.3896 -0.3953
10359WAT      O42155   3.411   4.863   1.569 -0.0602  0.1866 -0.5471
10359WAT     H142156   3.490   4.842   1.540 -0.0931 -0.4393 -0.2174
10359WAT     H242157   3.358   4.808   1.527 -0.0778 -0.9025  0.8360
10359WAT    EPW42158   3.415   4.852   1.559 -0.0677 -0.0667 -0.2940
10360WAT      O42159   6.838   5.138   3.117 -0.1885 -0.4191 -0.2928
10360WAT     H142160   6.817   5.107   3.038 -0.3384 -0.9157 -0.0608
10360WAT     H242161   6.767   5.121   3.166  0.4612 -1.5137  0.3266
10360WAT    EPW42162   6.825   5.131   3.113 -0.1147 -0.6541 -0.1670
10361WAT      O42163   4.311   3.716   2.756 -0.0195  0.3706  0.1034
10361WAT     H142164   4.224   3.718   2.756 -0.1519 -1.3553 -1.8877
10361WAT     H242165   4.332   3.713   2.841 -1.8943  0.3974  0.6117
10361WAT    EPW42166   4.301   3.716   2.768 -0.3160  0.1196 -0.1156
10362WAT      O42167   3.692   4.749   1.492  0.2713  0.6960 -0.2152
10362WAT     H142168   3.665   4.679   1.537  0.6035  0.6508 -0.0868
10362WAT     H242169   3.633   4.755   1.427 -1.4283  1.9878  1.3563
10362WAT    EPW42170   3.680   4.739   1.489  0.0693  0.8801  0.0359
10363WAT      O42171   4.824   3.693   6.691 -0.3004 -0.3041  0.5951
10363WAT     H142172   4.887   3.700   6.751 -1.1118 -0.3431  1.4752
10363WAT     H242173   4.807   3.607   6.688 -0.3086 -0.2966  0.3416
10363WAT    EPW42174   4.831   3.681   6.699 -0.4215 -0.3088  0.6877
10364WAT      O42175   5.826   0.556   2.231 -0.1527  0.2854 -0.5243
10364WAT     H142176   5.816   0.641   2.214 -0.2148  0.4788  0.4232
10364WAT     H242177   5.823   0.552   2.318  4.9811  0.0162 -0.0460
10364WAT    EPW42178   5.824   0.568   2.241  0.5965  0.2742 -0.3137
10365WAT      O42179   2.839   6.097   4.557  0.2215 -0.3752 -0.1037
10365WAT     H142180   2.907   6.086   4.611 -0.0375 -1.7731 -0.0276
10365WAT     H242181   2.845   6.028   4.503 -1.7676 -1.1928  0.6349
10365WAT    EPW42182   2.850   6.085   4.557 -0.1106 -0.7025  0.0166
10366WAT      O42183   1.093   4.685   2.115 -0.6230  0.5738  0.5951
10366WAT     H142184   1.165   4.671   2.068  1.4569  1.1530  3.3217
10366WAT     H242185   1.029   4.653   2.066  1.1854  1.8514 -2.9119
10366WAT    EPW42186   1.094   4.678   2.101 -0.0486  0.8481  0.4798
10367WAT      O42187   6.811   3.462   0.488 -0.1703  0.0246 -0.1730
10367WAT     H142188   6.800   3.411   0.558  0.7718  2.1741  1.6895
10367WAT     H242189   6.730   3.483   0.465 -0.5010 -0.5266  0.4570
10367WAT    EPW42190   6.798   3.458   0.495 -0.0800  0.2607  0.1952
10368WAT      O42191   0.106   3.262   7.268  0.0342 -0.1224 -0.5650
10368WAT     H142192   0.067   3.184   7.269  0.6736 -0.4679 -1.3000
10368WAT     H242193   0.052   3.313   7.315 -0.5245 -0.9379 -0.3087
10368WAT    EPW42194   0.092   3.258   7.275  0.0462 -0.2939 -0.6357
10369WAT      O42195   6.783   3.186   3.231  0.3185 -0.4416  0.4452
10369WAT     H142196   6.726   3.229   3.281  0.7326  0.1911  0.3823
10369WAT     H242197   6.804   3.244   3.170  3.2998  0.4209  2.1313
10369WAT    EPW42198   6.777   3.201   3.229  0.8201 -0.2207  0.6850
10370WAT      O42199   3.619   4.508   5.865 -0.0242 -0.1470  0.7085
10370WAT     H142200   3.646   4.536   5.787  1.1436  0.2040  1.2168
10370WAT     H242201   3.544   4.467   5.848 -0.7108  1.4623 -0.3543
10370WAT    EPW42202   3.612   4.506   5.851  0.0469  0.1426  0.6266
10371WAT      O42203   0.828   6.776   1.554 -0.7119 -0.0508  1.0071
10371WAT     H142204   0.762   6.802   1.504 -0.9674  1.2061  1.9525
10371WAT     H242205   0.798   6.702   1.590 -2.2035  1.1750  2.4605
10371WAT    EPW42206   0.814   6.769   1.552 -0.9700  0.3159  1.3615
10372WAT      O42207   7.170   2.709   5.177  0.1877  0.4838  0.3162
10372WAT     H142208   7.150   2.646   5.120 -0.1617 -0.1073  1.0707
10372WAT     H242209   7.093   2.746   5.196  0.3272  0.8113  0.2519
10372WAT    EPW42210   7.156   2.705   5.172  0.1567  0.4449  0.4182
10373WAT      O42211   1.944   0.929   1.196  0.4026 -0.1615  0.2911
10373WAT     H142212   1.906   0.854   1.177  3.4845 -1.7492 -0.3095
10373WAT     H242213   1.971   0.959   1.118 -0.8091  1.6585  0.5064
10373WAT    EPW42214   1.942   0.923   1.182  0.6789 -0.1272  0.2342
10374WAT      O42215   1.470   6.554   5.107  0.2187  0.2252  0.1141
10374WAT     H142216   1.555   6.533   5.105  0.1551 -0.0450  0.2619
10374WAT     H242217   1.465   6.609   5.174 -0.1560 -1.6935  1.7412
10374WAT    EPW42218   1.482   6.559   5.116  0.1540 -0.0981  0.3763
10375WAT      O42219   3.244   3.066   1.256 -0.6720 -0.1851 -0.2143
10375WAT     H142220   3.296   3.001   1.282 -1.3399 -1.4483 -1.8712
10375WAT     H242221   3.164   3.040   1.280 -1.0201 -0.3274 -1.4141
10375WAT    EPW42222   3.240   3.053   1.263 -0.8221 -0.3928 -0.6363
10376WAT      O42223   2.238   0.303   3.726  0.3180 -0.3062 -0.1895
10376WAT     H142224   2.230   0.238   3.782  2.2533  0.5237  1.1355
10376WAT     H242225   2.229   0.264   3.648 -0.5906 -1.7739  0.6036
10376WAT    EPW42226   2.235   0.288   3.722  0.4696 -0.4004  0.1234
10377WAT      O42227   5.048   5.676   0.229  0.1275  0.1862  0.4000
10377WAT     H142228   5.009   5.750   0.253  1.8370  1.1573  0.3750
10377WAT     H242229   5.053   5.683   0.142 -2.8356 -1.6596 -0.0571
10377WAT    EPW42230   5.043   5.688   0.220 -0.0577  0.0570  0.3288
10378WAT      O42231   1.556   3.455   6.138 -0.5691 -0.2044 -0.6596
10378WAT     H142232   1.553   3.371   6.163 -2.0406  0.1685  0.5720
10378WAT     H242233   1.571   3.497   6.213  1.6339  0.5901 -1.4753
10378WAT    EPW42234   1.557   3.449   6.153 -0.4610 -0.0320 -0.5982
10379WAT      O42235   2.045   1.446   3.604  0.4463 -0.1038  0.1473
10379WAT     H142236   2.116   1.434   3.655  0.0686  0.2898  0.7826
10379WAT     H242237   2.020   1.365   3.585  1.0255 -0.2493 -0.0200
10379WAT    EPW42238   2.052   1.432   3.609  0.4761 -0.0671  0.2164
10380WAT      O42239   7.130   7.203   1.933 -0.1465  0.3090  0.0759
10380WAT     H142240   7.169   7.243   2.000  0.4276  0.3996 -0.3101
10380WAT     H242241   7.046   7.201   1.957 -0.2014  1.7837  0.0884
10380WAT    EPW42242   7.123   7.209   1.947 -0.0698  0.5402  0.0207
10381WAT      O42243   3.706   5.121   3.135 -0.9649 -0.1295  0.0060
10381WAT     H142244   3.787   5.114   3.103 -0.6984  0.6076  0.5014
10381WAT     H242245   3.713   5.086   3.215 -1.5800 -1.7747 -0.6225
10381WAT    EPW42246   3.719   5.115   3.142 -1.0164 -0.2636 -0.0137
10382WAT      O42247   1.840   3.803   5.329 -0.4852 -0.3466 -0.0642
10382WAT     H142248   1.849   3.806   5.243  0.4612 -0.0647  0.0401
10382WAT     H242249   1.889   3.735   5.353  1.0750  0.9004  0.4505
10382WAT    EPW42250   1.848   3.794   5.320 -0.1149 -0.1208  0.0272
10383WAT      O42251   1.908   5.244   3.596 -0.8961  0.1729 -0.0456
10383WAT     H142252   1.907   5.319   3.551  2.3189  0.5299  0.2661
10383WAT     H242253   1.889   5.268   3.678 -0.2850  0.5852 -0.0251
10383WAT    EPW42254   1.905   5.258   3.602 -0.3309  0.2865  0.0034
10384WAT      O42255   3.669   2.262   0.868 -0.1451 -0.1293  0.4505
10384WAT     H142256   3.610   2.317   0.834 -0.4794 -0.8114 -0.0963
10384WAT     H242257   3.676   2.200   0.807  1.0399 -0.1326  0.5697
10384WAT    EPW42258   3.661   2.261   0.854 -0.0194 -0.2305  0.3873
10385WAT      O42259   3.335   6.181   6.669 -0.0321 -0.1037  0.6584
10385WAT     H142260   3.331   6.255   6.623 -1.4611 -0.5039  0.0821
10385WAT     H242261   3.386   6.129   6.620 -1.1620 -0.3687 -0.2809
10385WAT    EPW42262   3.342   6.184   6.655 -0.4101 -0.2020  0.4346
10386WAT      O42263   3.413   3.433   1.936  0.1441 -0.4585  0.1578
10386WAT     H142264   3.363   3.361   1.932 -0.6512  0.1446 -1.9268
10386WAT     H242265   3.459   3.430   1.862  1.2527  0.3898  0.7912
10386WAT    EPW42266   3.412   3.422   1.925  0.1904 -0.2441 -0.0566
10387WAT      O42267   1.977   3.814   3.586  0.3260  0.1690  0.0417
10387WAT     H142268   2.041   3.777   3.633  0.7888 -0.4102 -1.0217
10387WAT     H242269   1.926   3.747   3.565  1.0877  0.0960 -1.7786
10387WAT    EPW42270   1.979   3.799   3.590  0.5069  0.0727 -0.3843
10388WAT      O42271   2.827   1.797   7.091  0.4875 -0.7579 -0.3667
10388WAT     H142272   2.887   1.768   7.147 -1.2521 -0.8937  1.5356
10388WAT     H242273   2.752   1.762   7.120 -0.8740  1.2254 -1.2622
10388WAT    EPW42274   2.825   1.787   7.103  0.0294 -0.4850 -0.2180
10389WAT      O42275   0.604   2.843   1.908  0.5179  0.1588  0.1264
10389WAT     H142276   0.592   2.928   1.897  0.5877  0.2900  1.0257
10389WAT     H242277   0.629   2.836   1.991 -1.4584 -0.9272  0.6857
10389WAT    EPW42278   0.606   2.854   1.918  0.2363  0.0178  0.3418
10390WAT      O42279   1.064   4.630   7.339 -0.2603 -0.1984 -0.2507
10390WAT     H142280   1.113   4.563   7.367 -0.6120 -0.0443  0.7799
10390WAT     H242281   0.983   4.598   7.343 -0.3970  0.1652 -0.1175
10390WAT    EPW42282   1.059   4.615   7.343 -0.3324 -0.1220 -0.0788
10391WAT      O42283   1.812   5.951   6.429  0.0437 -0.0439 -0.1131
10391WAT     H142284   1.776   5.989   6.359  0.6220  0.4070 -0.1681
10391WAT     H242285   1.802   6.009   6.492 -0.4043 -0.4198  0.1661
10391WAT    EPW42286   1.806   5.965   6.428  0.0630 -0.0329 -0.0800
10392WAT      O42287   0.603   6.823   2.645  0.0775  0.0823 -0.1708
10392WAT     H142288   0.641   6.768   2.700  0.0919 -0.2817 -0.5357
10392WAT     H242289   0.594   6.775   2.572 -1.3042  0.0745 -0.0232
10392WAT    EPW42290   0.607   6.808   2.642 -0.1245  0.0274 -0.2029
10393WAT      O42291   0.271   6.858   2.119  0.2802 -0.5675 -0.4089
10393WAT     H142292   0.335   6.811   2.153 -0.9685 -0.6270  2.0740
10393WAT     H242293   0.298   6.940   2.130  0.6846 -0.6141 -1.0108
10393WAT    EPW42294   0.284   6.863   2.125  0.1554 -0.5832 -0.1310
10394WAT      O42295   2.414   1.345   0.318 -0.1691  0.1987 -0.0863
10394WAT     H142296   2.398   1.413   0.266 -0.5919  0.5431  0.4719
10394WAT     H242297   2.413   1.276   0.264  1.3017  0.7182 -0.8373
10394WAT    EPW42298   2.411   1.345   0.303 -0.0142  0.3263 -0.1148
10395WAT      O42299   3.411   6.609   2.724  0.0237 -0.2653 -0.1176
10395WAT     H142300   3.425   6.695   2.729 -0.6022 -0.0761 -1.1777
10395WAT     H242301   3.324   6.602   2.728  0.0698 -0.8404 -0.0522
10395WAT    EPW42302   3.400   6.620   2.725 -0.0620 -0.3223 -0.2645
10396WAT      O42303   2.520   2.802   5.658 -0.5124 -0.8092  0.0686
10396WAT     H142304   2.480   2.841   5.726  0.4270 -4.0483  2.7558
10396WAT     H242305   2.604   2.823   5.669 -0.3529 -1.3521 -0.1128
10396WAT    EPW42306   2.526   2.811   5.670 -0.3501 -1.3679  0.4388
10397WAT      O42307   7.216   5.926   4.852 -0.0015 -0.1031 -0.1800
10397WAT     H142308   7.265   5.965   4.914 -2.0624  1.5252  0.5236
10397WAT     H242309   7.261   5.941   4.779  1.1820  0.2307  0.5805
10397WAT    EPW42310   7.230   5.934   4.850 -0.1311  0.1868  0.0363
10398WAT      O42311   5.446   1.974   4.351 -0.2250  0.1142  0.4518
10398WAT     H142312   5.391   2.040   4.363 -0.7632 -0.5235  1.7259
10398WAT     H242313   5.515   1.995   4.401  0.9484  1.1289 -1.4889
10398WAT    EPW42314   5.448   1.987   4.360 -0.1312  0.1699  0.3533
10399WAT      O42315   5.985   6.459   4.040 -0.1836 -0.2263 -0.3589
10399WAT     H142316   6.054   6.494   4.081  0.0469 -1.6454  0.5309
10399WAT     H242317   5.924   6.456   4.102 -0.2242 -1.2722 -0.4302
10399WAT    EPW42318   5.986   6.464   4.055 -0.1556 -0.5905 -0.2380
10400WAT      O42319   1.744   0.449   5.229  0.5827 -0.3633 -0.0608
10400WAT     H142320   1.722   0.487   5.154 -1.0352  1.3588  1.2040
10400WAT     H242321   1.704   0.372   5.226  0.8177 -0.4575 -1.0721
10400WAT    EPW42322   1.735   0.443   5.218  0.3784 -0.1229 -0.0234
10401WAT      O42323   1.507   4.302   5.057 -0.1725  0.7801 -0.0230
10401WAT     H142324   1.583   4.263   5.042 -0.4973 -0.3807  1.1649
10401WAT     H242325   1.447   4.246   5.027 -0.5905  2.0207 -1.6716
10401WAT    EPW42326   1.509   4.288   5.050 -0.2822  0.7919 -0.0911
10402WAT      O42327   0.670   3.251   3.232  0.2975 -0.0088  0.0399
10402WAT     H142328   0.640   3.333   3.226  0.8200  0.1322 -0.7135
10402WAT     H242329   0.634   3.211   3.164  1.8631  0.1869 -0.9307
10402WAT    EPW42330   0.660   3.258   3.221  0.6060  0.0409 -0.2148
10403WAT      O42331   0.107   2.048   2.728  0.1172 -0.4437  0.2200
10403WAT     H142332   0.072   2.127   2.715 -0.1423 -0.7134 -0.8511
10403WAT     H242333   0.039   1.994   2.728  0.4148 -0.8738 -1.0513
10403WAT    EPW42334   0.092   2.052   2.726  0.1228 -0.5471 -0.1260
10404WAT      O42335   0.685   4.977   3.622 -0.4294 -0.6245 -0.2261
10404WAT     H142336   0.689   5.031   3.690 -1.1402 -1.6229  0.6407
10404WAT     H242337   0.758   4.930   3.628 -0.8170 -1.1772  0.2676
10404WAT    EPW42338   0.696   4.978   3.633 -0.5917 -0.8537 -0.0251
10405WAT      O42339   1.807   6.065   5.498 -0.0299 -0.1433  0.1806
10405WAT     H142340   1.739   6.068   5.444 -0.3550 -1.7714  0.4319
10405WAT     H242341   1.780   6.108   5.568 -0.1087  0.8046 -0.4200
10405WAT    EPW42342   1.793   6.072   5.500 -0.0895 -0.2438  0.1290
10406WAT      O42343   5.213   1.847   7.298  0.3198  0.4458  0.5417
10406WAT     H142344   5.206   1.913   7.354  0.5241  0.0997  0.9867
10406WAT     H242345   5.278   1.799   7.332 -0.2028 -0.2765  0.5367
10406WAT    EPW42346   5.222   1.850   7.312  0.2728  0.2880  0.6067
10407WAT      O42347   4.827   5.241   1.292 -0.0790  0.2744 -0.0478
10407WAT     H142348   4.764   5.208   1.241  0.4908  1.0366 -1.3044
10407WAT     H242349   4.810   5.206   1.370 -1.3959 -0.4091 -0.5928
10407WAT    EPW42350   4.815   5.231   1.296 -0.1894  0.2860 -0.3139
10408WAT      O42351   1.652   1.772   6.376  0.4555 -0.2242 -0.0353
10408WAT     H142352   1.670   1.710   6.435 -1.0881  0.5017  1.2768
10408WAT     H242353   1.633   1.842   6.425 -2.1827  0.0656 -1.2920
10408WAT    EPW42354   1.652   1.774   6.392 -0.1623 -0.0742 -0.0272
10409WAT      O42355   1.375   6.191   4.450 -0.1098 -0.4994  0.1173
10409WAT     H142356   1.378   6.115   4.407  0.0698 -0.4211 -0.0109
10409WAT     H242357   1.451   6.228   4.431 -0.4752  0.0123 -0.3730
10409WAT    EPW42358   1.387   6.185   4.441 -0.1373 -0.4123  0.0259
10410WAT      O42359   4.716   5.888   1.078 -0.6287  0.2882  0.3133
10410WAT     H142360   4.670   5.894   1.004 -0.3241  1.7303  0.2182
10410WAT     H242361   4.687   5.954   1.126  0.5634  0.5614  0.6936
10410WAT    EPW42362   4.705   5.899   1.074 -0.4076  0.5416  0.3554
10411WAT      O42363   6.819   2.290   2.137  0.2168 -0.2206 -0.3958
10411WAT     H142364   6.804   2.302   2.222 -2.5192 -0.0463 -0.8191
10411WAT     H242365   6.856   2.365   2.112  0.9426 -0.2326  0.6156
10411WAT    EPW42366   6.822   2.303   2.146 -0.0801 -0.1966 -0.3090
10412WAT      O42367   2.008   6.905   2.003  0.1607 -0.0666  0.1783
10412WAT     H142368   1.928   6.876   2.020  0.2418  0.2902  1.2010
10412WAT     H242369   2.010   6.984   2.040  0.7012  0.2980 -0.5982
10412WAT    EPW42370   1.997   6.913   2.011  0.2525  0.0400  0.2147
10413WAT      O42371   4.864   1.393   1.545 -0.1732  0.1149  0.9997
10413WAT     H142372   4.912   1.344   1.492 -1.0162 -0.6192  0.8850
10413WAT     H242373   4.901   1.381   1.623  0.7808  0.8245  0.6741
10413WAT    EPW42374   4.876   1.384   1.549 -0.1568  0.1113  0.9346
10414WAT      O42375   2.708   3.435   0.192 -0.0646 -0.0064  0.1722
10414WAT     H142376   2.659   3.416   0.122  0.2897  1.4106 -0.4965
10414WAT     H242377   2.679   3.514   0.216  1.5907  0.7013 -0.0127
10414WAT    EPW42378   2.697   3.444   0.185  0.2322  0.3075  0.0461
10415WAT      O42379   2.540   5.877   6.572 -0.5680  0.1458  0.4686
10415WAT     H142380   2.620   5.844   6.561 -1.2123 -0.8740 -1.7340
10415WAT     H242381   2.528   5.926   6.501 -1.7514  0.6151  0.9668
10415WAT    EPW42382   2.550   5.879   6.560 -0.8380  0.0645  0.2168
10416WAT      O42383   0.127   7.104   5.453  0.5027  0.4024 -0.1572
10416WAT     H142384   0.100   7.053   5.387  0.9695  1.0617 -0.8719
10416WAT     H242385   0.177   7.164   5.414  1.4390  0.3398  0.9020
10416WAT    EPW42386   0.131   7.105   5.437  0.7100  0.4905 -0.1063
10417WAT      O42387   3.185   0.164   5.004  0.4161  0.0965 -0.1843
10417WAT     H142388   3.259   0.183   5.046 -0.1168 -0.9422  1.3200
10417WAT     H242389   3.150   0.242   4.986  1.0506  0.5794  0.6230
10417WAT    EPW42390   3.191   0.178   5.007  0.4311  0.0144  0.1572
10418WAT      O42391   4.655   5.453   0.417  0.4849  0.5909  0.4075
10418WAT     H142392   4.606   5.520   0.444  0.5046  0.4301  0.8439
10418WAT     H242393   4.713   5.490   0.364 -2.0008  0.4492 -2.7382
10418WAT    EPW42394   4.656   5.469   0.413  0.1206  0.5462  0.0073
10419WAT      O42395   3.579   1.379   5.814  0.0418 -0.3445  0.2809
10419WAT     H142396   3.540   1.446   5.856  0.6844  1.1109 -1.3451
10419WAT     H242397   3.520   1.356   5.754  0.6843  0.2024 -0.5638
10419WAT    EPW42398   3.564   1.386   5.811  0.2317 -0.0487 -0.0841
10420WAT      O42399   3.067   3.837   5.397 -0.5328 -0.3492  0.1437
10420WAT     H142400   3.088   3.753   5.389 -1.5812 -0.6602  0.3887
10420WAT     H242401   3.042   3.859   5.317  0.2100 -0.1292 -0.0300
10420WAT    EPW42402   3.066   3.828   5.384 -0.5780 -0.3626  0.1542
10421WAT      O42403   4.240   0.530   6.371  0.1465 -0.3430  0.3225
10421WAT     H142404   4.257   0.597   6.424  0.5193 -2.1597  2.6600
10421WAT     H242405   4.159   0.545   6.343  0.8297  1.9302 -0.6879
10421WAT    EPW42406   4.231   0.542   6.375  0.3025 -0.2756  0.5185
10422WAT      O42407   5.129   3.974   1.248  0.0476  0.1226 -0.4178
10422WAT     H142408   5.130   4.058   1.222 -2.2890  0.3886  0.1863
10422WAT     H242409   5.206   3.944   1.221  2.2459  3.1622  1.7580
10422WAT    EPW42410   5.141   3.982   1.240  0.0272  0.6109 -0.0071
10423WAT      O42411   5.458   6.749   5.234  0.5507 -0.6218  0.1867
10423WAT     H142412   5.426   6.668   5.244  0.7131 -0.7980 -0.6062
10423WAT     H242413   5.389   6.794   5.204  0.6585 -0.6527 -0.1128
10423WAT    EPW42414   5.443   6.744   5.231  0.5906 -0.6524  0.0253
10424WAT      O42415   4.730   5.819   6.362 -0.3227 -0.5248  0.1127
10424WAT     H142416   4.647   5.830   6.386 -0.3026  0.9621 -0.4161
10424WAT     H242417   4.732   5.736   6.334 -1.6734 -0.5149 -0.0786
10424WAT    EPW42418   4.718   5.808   6.361 -0.5193 -0.3037  0.0063
10425WAT      O42419   5.387   5.391   7.083  0.1738  0.0286  0.5351
10425WAT     H142420   5.305   5.419   7.071  1.2764  3.3274 -0.4987
10425WAT     H242421   5.387   5.363   7.166 -1.8761  0.4238  0.7267
10425WAT    EPW42422   5.375   5.391   7.094  0.0339  0.5743  0.4107
10426WAT      O42423   4.081   6.007   0.370  0.2938  0.3207 -0.1607
10426WAT     H142424   4.024   6.061   0.408  0.3308 -0.1279  0.5520
10426WAT     H242425   4.135   6.061   0.327 -0.6560  0.7499 -0.8505
10426WAT    EPW42426   4.081   6.023   0.370  0.1590  0.3178 -0.1573
10427WAT      O42427   0.309   3.458   4.173 -0.1475 -0.0956 -0.0436
10427WAT     H142428   0.315   3.416   4.097  0.5894 -1.1353  0.5640
10427WAT     H242429   0.386   3.443   4.211 -0.4183  0.6021  0.8152
10427WAT    EPW42430   0.321   3.449   4.167 -0.0787 -0.1461  0.1730
10428WAT      O42431   0.557   6.079   0.926 -0.3345 -0.0811  0.3971
10428WAT     H142432   0.513   6.133   0.873 -0.0862 -2.0886 -2.0938
10428WAT     H242433   0.496   6.023   0.954 -0.1127 -0.2843  0.4807
10428WAT    EPW42434   0.541   6.078   0.922 -0.2651 -0.4076  0.0415
10429WAT      O42435   2.599   2.552   2.078 -0.0412  0.5089 -0.8651
10429WAT     H142436   2.512   2.548   2.081 -0.0244  0.0741 -0.8036
10429WAT     H242437   2.622   2.470   2.058  0.4292  0.1322  1.0254
10429WAT    EPW42438   2.590   2.539   2.076  0.0308  0.3891 -0.5767
10430WAT      O42439   5.021   5.870   1.365 -0.1786  0.2860 -0.0115
10430WAT     H142440   4.995   5.836   1.289 -2.0736 -0.2133  0.7849
10430WAT     H242441   5.087   5.922   1.343  0.6847 -1.3862 -1.7207
10430WAT    EPW42442   5.027   5.873   1.351 -0.3310 -0.0348 -0.1463
10431WAT      O42443   4.263   3.663   1.849 -0.0834 -0.1659 -0.3006
10431WAT     H142444   4.238   3.640   1.929  0.5847 -0.0321 -0.0485
10431WAT     H242445   4.331   3.612   1.832  0.6265  0.7226 -0.2323
10431WAT    EPW42446   4.269   3.652   1.858  0.1202 -0.0149 -0.2533
10432WAT      O42447   1.386   6.093   6.145 -0.0331 -0.2872 -0.6215
10432WAT     H142448   1.337   6.148   6.099 -0.4751 -1.7553 -1.9951
10432WAT     H242449   1.328   6.039   6.181  0.1912  1.4210  2.7028
10432WAT    EPW42450   1.370   6.093   6.144 -0.0653 -0.2517 -0.3333
10433WAT      O42451   6.171   1.863   1.291  0.1620  0.1693  0.5027
10433WAT     H142452   6.217   1.824   1.228 -2.0871  2.1285 -2.6289
10433WAT     H242453   6.199   1.946   1.289 -0.3642  0.3987  1.7013
10433WAT    EPW42454   6.182   1.870   1.281 -0.2480  0.4926  0.2171
10434WAT      O42455   1.461   3.812   5.109 -0.2197 -0.3364 -0.6780
10434WAT     H142456   1.420   3.860   5.049 -0.9632 -1.6842 -1.2852
10434WAT     H242457   1.399   3.797   5.169  0.0423 -0.4337 -0.4282
10434WAT    EPW42458   1.446   3.817   5.109 -0.2909 -0.5499 -0.7308
10435WAT      O42459   4.468   7.082   2.260  0.0235  0.0280  0.3058
10435WAT     H142460   4.448   7.136   2.326  1.9436  1.9508 -0.5610
10435WAT     H242461   4.504   7.014   2.300 -0.6068  0.2729  1.3463
10435WAT    EPW42462   4.470   7.080   2.276  0.2140  0.3482  0.3315
10436WAT      O42463   1.216   4.487   0.106  0.4656  0.3715  1.0333
10436WAT     H142464   1.239   4.405   0.086  0.0209  0.2734  0.9217
10436WAT     H242465   1.287   4.534   0.086  0.2693  0.1930 -0.1200
10436WAT    EPW42466   1.230   4.482   0.100  0.3709  0.3306  0.8464
10437WAT      O42467   5.102   5.360   6.091  0.4469  0.7417 -0.0009
10437WAT     H142468   5.126   5.363   6.008  0.0437  0.2178 -0.1408
10437WAT     H242469   5.080   5.276   6.103 -2.3853  1.3575 -0.2104
10437WAT    EPW42470   5.102   5.348   6.081 -0.0311  0.7553 -0.0525
10438WAT      O42471   0.465   1.412   1.612  0.0406 -0.2652 -0.0452
10438WAT     H142472   0.477   1.333   1.576 -0.0701 -0.1807 -0.2701
10438WAT     H242473   0.529   1.460   1.577 -0.9552  0.2040 -1.2988
10438WAT    EPW42474   0.476   1.408   1.602 -0.1229 -0.1834 -0.2636
10439WAT      O42475   3.177   6.146   4.955 -0.1570  0.1414  0.5781
10439WAT     H142476   3.112   6.116   5.004 -0.9807  1.2665  0.2260
10439WAT     H242477   3.249   6.122   4.998 -0.7316 -2.1022  0.4173
10439WAT    EPW42478   3.178   6.138   4.968 -0.3636 -0.0238  0.5023
10440WAT      O42479   1.714   5.024   0.353 -0.5855  0.0906  0.8092
10440WAT     H142480   1.765   5.000   0.286  0.3772  3.8064 -0.0622
10440WAT     H242481   1.648   5.064   0.313 -1.2086  0.3183  2.0522
10440WAT    EPW42482   1.712   5.027   0.337 -0.5354  0.6731  0.8641
10441WAT      O42483   3.985   3.633   1.804  0.0175 -0.3987 -0.1615
10441WAT     H142484   4.009   3.585   1.735  1.4408  0.9164 -0.6367
10441WAT     H242485   4.053   3.686   1.816 -0.1534 -0.6244  2.3120
10441WAT    EPW42486   3.999   3.634   1.796  0.2025 -0.2377  0.1337
10442WAT      O42487   1.127   2.795   1.418  0.2501 -0.6281 -0.2706
10442WAT     H142488   1.092   2.809   1.340 -1.2313 -0.0001  0.4553
10442WAT     H242489   1.106   2.711   1.434 -0.6666 -0.3636  0.0025
10442WAT    EPW42490   1.119   2.785   1.409 -0.1042 -0.4963 -0.1230
10443WAT      O42491   5.201   4.912   1.633  0.5343  0.5283  0.2342
10443WAT     H142492   5.203   4.925   1.719  0.6820  0.3880  0.2523
10443WAT     H242493   5.283   4.890   1.613  0.4541  0.3506  0.0909
10443WAT    EPW42494   5.213   4.911   1.642  0.5443  0.4813  0.2157
10444WAT      O42495   0.465   2.976   0.351  0.4889 -0.0712 -0.5521
10444WAT     H142496   0.548   2.949   0.354  0.7302  0.4695 -1.8083
10444WAT     H242497   0.472   3.060   0.328 -0.4052 -0.0421 -0.7369
10444WAT    EPW42498   0.478   2.984   0.348  0.3924  0.0129 -0.7649
10445WAT      O42499   6.415   2.997   1.200  0.1170 -0.0654  0.1497
10445WAT     H142500   6.352   3.046   1.164 -0.6519 -0.4134  0.9768
10445WAT     H242501   6.417   2.925   1.151  1.5417  0.9138 -1.3314
10445WAT    EPW42502   6.406   2.993   1.187  0.2139  0.0279  0.0531
10446WAT      O42503   0.310   6.020   4.856  0.2388  0.1163  0.1877
10446WAT     H142504   0.285   5.936   4.861 -3.0152  0.9976  1.2602
10446WAT     H242505   0.346   6.034   4.934  5.0968 -1.2488 -1.4776
10446WAT    EPW42506   0.311   6.009   4.868  0.4757  0.0448  0.1002
10447WAT      O42507   0.912   4.326   2.370  0.1237  0.0988 -0.5266
10447WAT     H142508   0.838   4.321   2.415 -1.0675  0.3244 -2.3413
10447WAT     H242509   0.934   4.411   2.377 -0.1743  0.1782 -0.5296
10447WAT    EPW42510   0.905   4.338   2.378 -0.0963  0.1438 -0.7951
10448WAT      O42511   0.651   4.839   1.165  0.2074  0.1523 -0.7220
10448WAT     H142512   0.658   4.925   1.156 -2.1284  0.2974 -2.1062
10448WAT     H242513   0.618   4.813   1.088  2.6697 -2.2872 -1.1049
10448WAT    EPW42514   0.647   4.848   1.152  0.2261 -0.1866 -0.9831
10449WAT      O42515   3.504   1.268   1.693 -0.3035 -0.6379  0.1774
10449WAT     H142516   3.576   1.257   1.645  0.1412  1.5025  0.2470
10449WAT     H242517   3.440   1.270   1.634 -0.1560 -1.2376 -0.0090
10449WAT    EPW42518   3.505   1.266   1.677 -0.2160 -0.4103  0.1602
10450WAT      O42519   1.324   2.942   1.989 -0.0419  0.0446  0.3177
10450WAT     H142520   1.275   3.014   1.998  1.1674  1.1958 -1.5017
10450WAT     H242521   1.369   2.958   1.916 -0.1706 -2.8624 -0.4892
10450WAT    EPW42522   1.323   2.955   1.979  0.1177 -0.2148 -0.0703
10451WAT      O42523   0.852   4.712   7.119 -0.6766  0.4078  0.1067
10451WAT     H142524   0.792   4.670   7.166  0.1573 -0.5254  0.3632
10451WAT     H242525   0.808   4.737   7.047 -1.3344 -0.3902  0.2195
10451WAT    EPW42526   0.837   4.710   7.115 -0.6505  0.1521  0.1612
10452WAT      O42527   6.361   5.907   5.144  0.4147 -0.3684 -0.3530
10452WAT     H142528   6.319   5.944   5.077 -0.8293  0.0995  0.6323
10452WAT     H242529   6.297   5.886   5.199  1.0892 -3.6789 -0.6366
10452WAT    EPW42530   6.345   5.909   5.142  0.3306 -0.7883 -0.2494
10453WAT      O42531   0.134   1.344   0.909 -0.1052  0.4077  0.2447
10453WAT     H142532   0.071   1.301   0.950 -0.0551  0.8802  0.8361
10453WAT     H242533   0.109   1.343   0.826  0.1213 -1.1311  0.1744
10453WAT    EPW42534   0.121   1.337   0.903 -0.0643  0.2502  0.3217
10454WAT      O42535   2.338   3.615   4.377 -1.0177  0.6834 -0.4822
10454WAT     H142536   2.417   3.600   4.343 -1.2959  1.1985 -1.3733
10454WAT     H242537   2.286   3.563   4.330 -1.2751  0.7250 -0.2404
10454WAT    EPW42538   2.342   3.605   4.365 -1.0968  0.7657 -0.5781
10455WAT      O42539   5.940   1.119   5.818 -0.1447  0.1765  0.2534
10455WAT     H142540   5.994   1.097   5.883 -0.6061 -1.3313  0.1648
10455WAT     H242541   5.951   1.055   5.759 -1.2879  0.3731 -0.2056
10455WAT    EPW42542   5.950   1.106   5.819 -0.3817 -0.0172  0.1725
10456WAT      O42543   4.769   5.062   0.157 -0.2560 -0.4036  0.7086
10456WAT     H142544   4.760   5.083   0.241  2.3026 -0.3718  1.0290
10456WAT     H242545   4.746   4.977   0.155  2.8485 -1.3984  2.1817
10456WAT    EPW42546   4.764   5.052   0.169  0.5805 -0.5459  0.9735
10457WAT      O42547   5.753   0.588   2.481  0.4665 -0.2892  0.2997
10457WAT     H142548   5.686   0.555   2.526  1.2357  0.2634  1.9401
10457WAT     H242549   5.800   0.630   2.541  1.3943  0.7943 -1.1027
10457WAT    EPW42550   5.750   0.589   2.496  0.7172 -0.0475  0.3348
10458WAT      O42551   1.885   3.182   5.326  0.1887  0.0976 -0.4019
10458WAT     H142552   1.968   3.206   5.319  0.5930 -1.0913  0.0192
10458WAT     H242553   1.862   3.213   5.404  0.5075 -0.2988 -0.1442
10458WAT    EPW42554   1.894   3.190   5.337  0.2955 -0.1366 -0.3016
10459WAT      O42555   3.149   3.571   0.478  1.1279 -0.2229  0.5026
10459WAT     H142556   3.200   3.641   0.466  0.8749 -0.1764 -0.3272
10459WAT     H242557   3.182   3.512   0.423 -0.5576  0.2631 -1.1212
10459WAT    EPW42558   3.162   3.573   0.468  0.8415 -0.1442  0.1402
10460WAT      O42559   4.203   5.348   6.531  0.0542  0.2010 -0.0246
10460WAT     H142560   4.180   5.283   6.478 -1.7709 -0.4662  1.4775
10460WAT     H242561   4.136   5.404   6.526  1.8002  2.3057 -1.6565
10460WAT    EPW42562   4.190   5.346   6.523  0.0425  0.4133 -0.0438
10461WAT      O42563   6.971   1.125   5.434 -0.0567  0.3018 -0.0467
10461WAT     H142564   6.978   1.153   5.352  0.1628  0.5030  0.0385
10461WAT     H242565   6.891   1.090   5.437  0.0763 -0.0362 -0.4420
10461WAT    EPW42566   6.960   1.124   5.422 -0.0046  0.2816 -0.0925
10462WAT      O42567   3.560   0.911   3.816  0.2061 -0.3584 -0.1443
10462WAT     H142568   3.512   0.885   3.884 -0.5590  0.2626 -0.4361
10462WAT     H242569   3.524   0.871   3.748  0.6817 -0.6143 -0.2499
10462WAT    EPW42570   3.548   0.901   3.816  0.1633 -0.3044 -0.2030
10463WAT      O42571   5.168   1.732   6.297 -0.1201  0.1745 -0.1793
10463WAT     H142572   5.086   1.710   6.317 -0.3882  0.7583 -0.6240
10463WAT     H242573   5.174   1.816   6.318  0.1351  0.3340 -0.8388
10463WAT    EPW42574   5.157   1.741   6.303 -0.1220  0.2843 -0.3424
10464WAT      O42575   4.774   7.146   1.112 -0.1539  0.8268 -0.2738
10464WAT     H142576   4.848   7.115   1.077  0.5273  0.6244  1.2708
10464WAT     H242577   4.717   7.142   1.045  0.2158 -2.5843 -0.5787
10464WAT    EPW42578   4.777   7.141   1.097  0.0014  0.2930 -0.0907
10465WAT      O42579   0.658   5.731   2.406 -0.3223  0.2633  0.1913
10465WAT     H142580   0.642   5.815   2.390 -2.1250 -0.0262  0.2545
10465WAT     H242581   0.580   5.693   2.398  0.0329 -1.0860  2.2543
10465WAT    EPW42582   0.644   5.738   2.403 -0.5362  0.0212  0.5054
10466WAT      O42583   3.887   6.356   1.885 -0.6045 -0.3796  0.0591
10466WAT     H142584   3.863   6.324   1.807 -0.4353 -1.5509  0.4669
10466WAT     H242585   3.944   6.419   1.865 -1.5693  0.2568 -0.8013
10466WAT    EPW42586   3.892   6.361   1.870 -0.7220 -0.4586 -0.0078
10467WAT      O42587   3.202   3.958   5.900  0.2392 -0.3076 -0.0905
10467WAT     H142588   3.135   3.969   5.956 -0.4302 -0.4541 -0.8435
10467WAT     H242589   3.165   3.919   5.831  0.4588  2.2230 -1.7918
10467WAT    EPW42590   3.187   3.954   5.898  0.1727  0.0446 -0.4531
10468WAT      O42591   0.411   3.772   3.532  0.5961  0.3115  0.2320
10468WAT     H142592   0.376   3.789   3.610 -1.2077  0.0207 -0.4536
10468WAT     H242593   0.400   3.846   3.488  0.7123  0.1703 -0.0398
10468WAT    EPW42594   0.404   3.785   3.537  0.3468  0.2477  0.0906
10469WAT      O42595   6.604   5.194   3.482  0.2895 -0.1039 -0.1261
10469WAT     H142596   6.582   5.277   3.497  1.0585  0.4097 -1.6175
10469WAT     H242597   6.691   5.193   3.492  0.3599 -0.5744 -0.6943
10469WAT    EPW42598   6.614   5.206   3.486  0.4135 -0.0975 -0.4303
10470WAT      O42599   0.234   5.816   1.894  0.0982  0.0414 -0.2086
10470WAT     H142600   0.160   5.786   1.859 -0.2607  0.9737 -0.2833
10470WAT     H242601   0.242   5.896   1.859  1.4334 -0.2461 -0.6331
10470WAT    EPW42602   0.224   5.823   1.884  0.2424  0.1367 -0.2823
10471WAT      O42603   5.876   4.488   6.762  0.4298 -0.0295 -0.3091
10471WAT     H142604   5.920   4.495   6.837  0.5871 -0.2280 -0.3819
10471WAT     H242605   5.796   4.515   6.783 -0.5003 -3.1833  0.7954
10471WAT    EPW42606   5.871   4.493   6.776  0.3157 -0.5247 -0.1567
10472WAT      O42607   1.712   2.999   2.913  0.1868  0.0405  0.2522
10472WAT     H142608   1.677   2.919   2.913 -0.5589  0.3634 -0.2031
10472WAT     H242609   1.695   3.029   2.993  1.7566 -0.7957  0.9440
10472WAT    EPW42610   1.705   2.992   2.925  0.3086 -0.0353  0.2871
10473WAT      O42611   5.665   0.407   7.168  0.1081  0.0546  0.1342
10473WAT     H142612   5.716   0.349   7.128 -0.6551 -1.8786  1.7849
10473WAT     H242613   5.715   0.437   7.233 -0.8892 -2.2665  2.1075
10473WAT    EPW42614   5.680   0.403   7.171 -0.1520 -0.5739  0.6695
10474WAT      O42615   3.118   6.637   2.730  0.1498  0.3942  0.1558
10474WAT     H142616   3.040   6.614   2.760  0.9286 -0.7148  1.4410
10474WAT     H242617   3.146   6.696   2.788  0.9659 -0.5071  0.7045
10474WAT    EPW42618   3.111   6.642   2.743  0.3854  0.0972  0.4267
10475WAT      O42619   0.495   0.815   6.848  0.2693 -0.0464 -0.4489
10475WAT     H142620   0.434   0.753   6.855  0.3665 -0.1711 -0.6914
10475WAT     H242621   0.570   0.770   6.848  0.4038  0.1613  0.6725
10475WAT    EPW42622   0.497   0.799   6.849  0.3035 -0.0341 -0.3191
10476WAT      O42623   0.938   0.053   4.977 -0.3971  0.6546 -0.7185
10476WAT     H142624   1.016   0.091   4.985 -0.6586  1.0469  0.0992
10476WAT     H242625   0.956  -0.030   4.959  0.2260  0.5519  0.3073
10476WAT    EPW42626   0.952   0.047   4.975 -0.3437  0.6974 -0.4462
10477WAT      O42627   0.618   6.978   0.057  0.0952 -0.3727 -0.2123
10477WAT     H142628   0.608   7.021   0.133  0.9778 -1.6011  0.6428
10477WAT     H242629   0.702   6.953   0.059  0.1409 -0.4069 -1.6326
10477WAT    EPW42630   0.629   6.981   0.069  0.2323 -0.5592 -0.2958
10478WAT      O42631   4.179   6.823   4.608 -0.8422  0.1635  0.0022
10478WAT     H142632   4.131   6.850   4.540  0.5175  0.9849 -0.6736
10478WAT     H242633   4.217   6.750   4.578 -0.4309  0.3931 -0.0419
10478WAT    EPW42634   4.177   6.816   4.594 -0.5806  0.3188 -0.1042
10479WAT      O42635   2.250   3.623   1.187 -0.3445  0.1254 -0.4365
10479WAT     H142636   2.333   3.637   1.210 -0.8499  0.6530  1.2690
10479WAT     H242637   2.249   3.539   1.164  0.7117  0.1830 -0.7584
10479WAT    EPW42638   2.262   3.613   1.187 -0.2631  0.2118 -0.2321
10480WAT      O42639   5.844   2.938   5.434 -0.7224  0.1710 -0.0590
10480WAT     H142640   5.898   2.991   5.477  0.2827 -1.3379  0.5990
10480WAT     H242641   5.767   2.953   5.472 -0.3248  0.6649  0.5702
10480WAT    EPW42642   5.840   2.948   5.446 -0.5152  0.0211  0.1312
10481WAT      O42643   4.252   5.436   5.546  0.1269 -0.4303  0.3032
10481WAT     H142644   4.184   5.427   5.492 -0.4043 -1.8957  1.1680
10481WAT     H242645   4.300   5.365   5.532 -0.0663 -0.8937  1.7829
10481WAT    EPW42646   4.249   5.424   5.536  0.0199 -0.7152  0.6495
10482WAT      O42647   3.873   6.249   7.223 -0.5126 -0.0817  0.5613
10482WAT     H142648   3.912   6.243   7.145 -0.4880  0.0537  0.5626
10482WAT     H242649   3.866   6.335   7.236 -0.9748 -0.1044  0.4799
10482WAT    EPW42650   3.878   6.261   7.213 -0.5772 -0.0650  0.5495
10483WAT      O42651   1.761   0.110   4.027  0.3254 -0.4655 -0.1498
10483WAT     H142652   1.809   0.177   3.998  0.4367 -0.3313  0.3406
10483WAT     H242653   1.686   0.148   4.052  0.6801 -0.4020  0.8670
10483WAT    EPW42654   1.757   0.125   4.026  0.3942 -0.4363  0.0728
10484WAT      O42655   3.500   1.740   0.099  0.1824 -0.4973  0.0773
10484WAT     H142656   3.460   1.665   0.117 -1.6818  0.5481  0.5382
10484WAT     H242657   3.577   1.715   0.067 -0.7377 -2.6011 -0.6456
10484WAT    EPW42658   3.505   1.725   0.097 -0.2289 -0.6537  0.0386
10485WAT      O42659   3.217   5.724   0.074  0.0406  0.1749 -0.2110
10485WAT     H142660   3.216   5.795   0.024 -1.0872 -0.4501 -1.1216
10485WAT     H242661   3.133   5.706   0.087  0.3027 -0.2332  1.1428
10485WAT    EPW42662   3.204   5.732   0.068 -0.0873  0.0223 -0.1455
10486WAT      O42663   2.891   5.787   3.839  0.5920 -0.1705  0.0600
10486WAT     H142664   2.978   5.779   3.842  0.4834 -1.3389  2.0883
10486WAT     H242665   2.873   5.782   3.754  2.5899  1.7047 -0.5771
10486WAT    EPW42666   2.902   5.785   3.827  0.8711 -0.0661  0.2655
10487WAT      O42667   3.723   6.735   2.953  0.2950  0.5863 -0.1526
10487WAT     H142668   3.746   6.817   2.974  2.5139  0.2702 -1.0937
10487WAT     H242669   3.752   6.688   3.021 -0.4449  0.5028  0.1107
10487WAT    EPW42670   3.731   6.740   2.966  0.5135  0.5273 -0.2527
10488WAT      O42671   6.530   0.818   2.470  0.0526  0.0689 -0.6628
10488WAT     H142672   6.471   0.771   2.513 -1.3995  1.6332 -0.8499
10488WAT     H242673   6.606   0.787   2.499 -0.8047 -2.3129 -0.7224
10488WAT    EPW42674   6.532   0.806   2.480 -0.2885 -0.0519 -0.6992
10489WAT      O42675   2.191   1.477   5.416 -0.0604 -0.8119  0.6067
10489WAT     H142676   2.131   1.414   5.403 -1.0078  0.3122 -0.7749
10489WAT     H242677   2.144   1.547   5.438  0.8949 -0.2949  1.0946
10489WAT    EPW42678   2.175   1.478   5.417 -0.0592 -0.5695  0.4747
10490WAT      O42679   7.302   0.413   0.544 -0.2039  0.3830  0.4867
10490WAT     H142680   7.240   0.416   0.605 -2.2649 -0.7787 -1.4101
10490WAT     H242681   7.261   0.438   0.471  2.0661  1.4002 -0.5479
10490WAT    EPW42682   7.287   0.417   0.542 -0.1730  0.3617  0.0537
10491WAT      O42683   1.023   6.189   5.775  0.1555  0.6455 -0.3995
10491WAT     H142684   1.019   6.274   5.756  0.3575  0.8851  0.5672
10491WAT     H242685   1.064   6.154   5.707  2.3769  1.7157  0.2959
10491WAT    EPW42686   1.029   6.196   5.762  0.5135  0.8390 -0.1540
10492WAT      O42687   2.062   6.959   2.381  0.4791 -0.1819  0.1714
10492WAT     H142688   1.991   6.913   2.362  0.0746 -0.2389  1.6466
10492WAT     H242689   2.082   7.000   2.307 -0.7439 -0.6262 -0.4172
10492WAT    EPW42690   2.054   6.958   2.367  0.2387 -0.2559  0.3023
10493WAT      O42691   2.735   5.525   7.179  0.2683 -0.2119  0.0084
10493WAT     H142692   2.714   5.557   7.257  0.2619  0.7236 -0.3705
10493WAT     H242693   2.685   5.453   7.173 -1.8501  1.1755 -0.2651
10493WAT    EPW42694   2.724   5.519   7.190 -0.0456  0.1312 -0.0880
10494WAT      O42695   0.562   0.701   3.309  0.2327 -0.5265 -0.0807
10494WAT     H142696   0.642   0.691   3.276 -0.2802 -1.2216 -1.1706
10494WAT     H242697   0.511   0.701   3.238 -0.6760  0.5654  0.5500
10494WAT    EPW42698   0.566   0.699   3.294  0.0227 -0.4679 -0.1485
10495WAT      O42699   1.448   3.214   0.467 -0.2187 -0.2584  0.1843
10495WAT     H142700   1.481   3.137   0.489  0.1394  0.0610  0.7886
10495WAT     H242701   1.517   3.267   0.465 -0.1167 -0.3552 -2.2916
10495WAT    EPW42702   1.463   3.211   0.470 -0.1507 -0.2255 -0.0922
10496WAT      O42703   6.762   0.703   2.513  0.5321 -0.1706  0.4941
10496WAT     H142704   6.779   0.699   2.428 -1.9011  0.2204 -0.0739
10496WAT     H242705   6.839   0.684   2.550  1.5615 -0.7251 -1.7603
10496WAT    EPW42706   6.776   0.700   2.506  0.3247 -0.1948  0.0772
10497WAT      O42707   6.628   0.802   4.707 -0.1214  0.0818  0.1516
10497WAT     H142708   6.563   0.756   4.743 -0.9547  0.6699 -0.5862
10497WAT     H242709   6.641   0.867   4.764 -2.2066  1.6674 -1.0686
10497WAT    EPW42710   6.620   0.804   4.721 -0.5525  0.4029 -0.1376
10498WAT      O42711   0.881   5.630   4.019  0.1194 -0.0677 -0.5741
10498WAT     H142712   0.808   5.611   3.975 -0.6636 -1.8093  1.3131
10498WAT     H242713   0.882   5.571   4.083  1.8115  1.5544  1.0132
10498WAT    EPW42714   0.870   5.619   4.022  0.2537 -0.0853 -0.0609
10499WAT      O42715   5.761   6.757   5.784  0.6052 -0.3247 -0.0021
10499WAT     H142716   5.798   6.682   5.760  0.0619 -0.2183 -1.2709
10499WAT     H242717   5.829   6.809   5.800  0.9877 -0.9902  0.6162
10499WAT    EPW42718   5.776   6.753   5.783  0.5814 -0.4073 -0.0982
10500WAT      O42719   6.883   6.553   1.511 -0.0486 -0.1674 -0.0726
10500WAT     H142720   6.908   6.593   1.438  0.4572  0.8499  0.6217
10500WAT     H242721   6.924   6.476   1.508  1.7701  0.7380  0.1680
10500WAT    EPW42722   6.893   6.548   1.500  0.2948  0.1166  0.0655
10501WAT      O42723   7.233   5.057   0.534  0.2811  0.0971  0.0921
10501WAT     H142724   7.299   5.111   0.553 -0.6590  0.8541  1.4142
10501WAT     H242725   7.263   4.978   0.558  1.0915  0.2690 -0.3432
10501WAT    EPW42726   7.247   5.053   0.541  0.2619  0.2343  0.2231
10502WAT      O42727   5.512   6.897   3.329 -0.2551 -0.1878 -0.1504
10502WAT     H142728   5.500   6.965   3.275  0.4369  0.3811  0.4019
10502WAT     H242729   5.432   6.861   3.332 -0.5671  0.4137 -0.6853
10502WAT    EPW42730   5.498   6.902   3.321 -0.1990 -0.0149 -0.1478
10503WAT      O42731   1.247   2.772   6.951 -0.3756  0.1102 -0.0895
10503WAT     H142732   1.324   2.733   6.954 -1.1506 -1.7969 -1.9993
10503WAT     H242733   1.254   2.837   7.009  2.5107 -0.1698  0.0124
10503WAT    EPW42734   1.259   2.776   6.960 -0.0637 -0.2129 -0.3566
10504WAT      O42735   3.258   6.957   5.130  0.1041 -0.0552 -0.0252
10504WAT     H142736   3.252   6.891   5.187 -1.2523 -1.2768 -1.5141
10504WAT     H242737   3.180   6.995   5.133 -0.2986 -0.6794 -1.6723
10504WAT    EPW42738   3.246   6.953   5.139 -0.1558 -0.3279 -0.4885
10505WAT      O42739   4.056   5.263   7.078 -0.5437  0.1778  0.0123
10505WAT     H142740   4.060   5.202   7.015  0.5983  0.8610 -0.6135
10505WAT     H242741   4.001   5.322   7.045 -0.9679 -0.0952  0.2318
10505WAT    EPW42742   4.048   5.263   7.064 -0.4377  0.2384 -0.0477
10506WAT      O42743   0.841   7.016   4.245 -0.7581  0.4128 -0.1692
10506WAT     H142744   0.897   7.069   4.286  0.3859 -1.0277  0.2192
10506WAT     H242745   0.768   7.022   4.293 -0.0869  0.3200  0.8998
10506WAT    EPW42746   0.839   7.024   4.258 -0.4900  0.1863  0.0461
10507WAT      O42747   0.111   7.120   2.970 -0.2571  0.0341  0.0796
10507WAT     H142748   0.070   7.091   3.042 -2.7413  0.0140 -1.2109
10507WAT     H242749   0.170   7.176   3.000 -1.5098  0.3529  2.1080
10507WAT    EPW42750   0.113   7.124   2.985 -0.8092  0.0782  0.1886
10508WAT      O42751   0.885   6.400   0.150  0.0798  0.1550  0.1741
10508WAT     H142752   0.903   6.348   0.082  0.0340  0.8761 -0.4113
10508WAT     H242753   0.900   6.480   0.118 -0.2386  0.5216  0.9256
10508WAT    EPW42754   0.889   6.405   0.135  0.0260  0.3157  0.1987
10509WAT      O42755   4.279   0.014   5.210 -0.0596  0.0750  0.6666
10509WAT     H142756   4.247   0.081   5.164 -0.6057 -0.8684 -0.3717
10509WAT     H242757   4.334  -0.025   5.154  2.1088  0.9827  2.0295
10509WAT    EPW42758   4.282   0.018   5.195  0.1800  0.0697  0.7145
10510WAT      O42759   5.365   5.365   0.470  0.3116  0.4246  0.2198
10510WAT     H142760   5.326   5.443   0.473 -0.5209 -0.0133  1.6360
10510WAT     H242761   5.443   5.379   0.506 -0.0243  0.5084  0.9207
10510WAT    EPW42762   5.370   5.378   0.475  0.1390  0.3723  0.5325
10511WAT      O42763   6.967   6.700   7.311 -0.5520  0.1946 -0.3896
10511WAT     H142764   6.910   6.696   7.245 -3.1642  2.9010  1.4216
10511WAT     H242765   7.021   6.765   7.288 -1.0350  0.6681 -0.2138
10511WAT    EPW42766   6.967   6.709   7.298 -1.0092  0.6643 -0.0961
10512WAT      O42767   5.044   2.826   6.086 -0.3633 -0.1429  0.2210
10512WAT     H142768   4.990   2.783   6.032  0.2421 -1.7307  0.8361
10512WAT     H242769   4.993   2.888   6.119 -1.5524 -0.9628  0.0126
10512WAT    EPW42770   5.028   2.829   6.083 -0.4495 -0.4986  0.2811
10513WAT      O42771   2.070   5.439   7.383 -0.3642 -0.6962  0.0187
10513WAT     H142772   2.013   5.496   7.350 -0.5370 -0.0368  1.3881
10513WAT     H242773   2.124   5.488   7.431 -0.1785 -1.6054  0.7812
10513WAT    EPW42774   2.069   5.455   7.386 -0.3623 -0.7331  0.3337
10514WAT      O42775   4.880   3.254   2.833  0.4673  0.2874 -0.8419
10514WAT     H142776   4.869   3.240   2.919 -1.2619 -0.9167 -1.2221
10514WAT     H242777   4.960   3.289   2.829 -0.4643  3.1479  1.5428
10514WAT    EPW42778   4.890   3.257   2.845  0.0743  0.5321 -0.5458
10515WAT      O42779   1.229   0.465   5.614  0.4298  0.8060  0.2603
10515WAT     H142780   1.299   0.436   5.572  0.0105  0.8916 -0.5130
10515WAT     H242781   1.220   0.547   5.586 -0.1692  0.6896  0.0833
10515WAT    EPW42782   1.238   0.473   5.604  0.2794  0.8014  0.1199
10516WAT      O42783   2.216   5.227   0.638  0.0661 -0.1004  0.0440
10516WAT     H142784   2.276   5.264   0.586  0.7525 -0.1339  0.7939
10516WAT     H242785   2.255   5.156   0.668 -0.0270  0.3196  1.2061
10516WAT    EPW42786   2.230   5.222   0.635  0.1537 -0.0433  0.3264
10517WAT      O42787   5.425   5.463   1.967 -0.1487  0.0882 -0.5091
10517WAT     H142788   5.454   5.524   1.912 -0.8010  1.0536  0.1918
10517WAT     H242789   5.422   5.391   1.918  1.5481  0.3732 -1.1180
10517WAT    EPW42790   5.429   5.461   1.952  0.0056  0.2729 -0.4955
10518WAT      O42791   6.026   3.225   7.343  0.0325 -0.7649 -0.2047
10518WAT     H142792   6.014   3.225   7.429  0.6723  0.7011 -0.0897
10518WAT     H242793   5.957   3.269   7.313  1.0847  0.9747 -0.1914
10518WAT    EPW42794   6.014   3.231   7.351  0.2824 -0.2914 -0.1857
10519WAT      O42795   6.391   0.099   3.061 -0.0199  0.0009 -0.2092
10519WAT     H142796   6.468   0.116   3.024  0.7085  1.1764  1.6866
10519WAT     H242797   6.397   0.138   3.139 -3.5179  2.5700 -0.9700
10519WAT    EPW42798   6.403   0.107   3.067 -0.4290  0.5540 -0.0415
10520WAT      O42799   6.087   3.532   3.566  0.2815 -0.3785  0.1315
10520WAT     H142800   6.151   3.577   3.603 -0.3429 -0.3220  1.1813
10520WAT     H242801   6.126   3.457   3.542  1.1640  0.4168 -1.0282
10520WAT    EPW42802   6.102   3.527   3.568  0.3197 -0.2527  0.1153
10521WAT      O42803   7.198   4.876   6.554 -0.3823  0.5165 -0.1838
10521WAT     H142804   7.277   4.854   6.523  0.1687  2.1896 -0.1070
10521WAT     H242805   7.145   4.864   6.487 -0.1876 -1.1624 -0.0788
10521WAT    EPW42806   7.202   4.871   6.540 -0.2722  0.5156 -0.1569
10522WAT      O42807   2.811   5.427   0.840  0.5960  0.0408  0.5589
10522WAT     H142808   2.855   5.395   0.908  1.0344 -0.4716  0.0410
10522WAT     H242809   2.830   5.372   0.775  0.8649  0.9937 -0.1972
10522WAT    EPW42810   2.820   5.414   0.840  0.7005  0.1059  0.3707
10523WAT      O42811   4.703   5.239   4.644  0.5204 -0.0911 -0.4686
10523WAT     H142812   4.747   5.312   4.626 -1.9943  0.9698 -2.9269
10523WAT     H242813   4.693   5.201   4.567 -1.2408 -1.2376  0.2608
10523WAT    EPW42814   4.708   5.244   4.630 -0.1112 -0.1038 -0.7240
10524WAT      O42815   6.092   6.143   2.613  0.5555  0.5036 -0.8174
10524WAT     H142816   6.022   6.172   2.571  0.0720 -2.5782 -2.4002
10524WAT     H242817   6.141   6.107   2.550  1.8143 -0.5933  0.6920
10524WAT    EPW42818   6.089   6.142   2.598  0.6701 -0.1137 -0.8283
10525WAT      O42819   1.639   5.413   6.715 -0.6835  0.0794  0.1835
10525WAT     H142820   1.642   5.484   6.664 -1.1080  0.0401  0.1025
10525WAT     H242821   1.700   5.429   6.776  1.4781 -0.8605 -1.5958
10525WAT    EPW42822   1.648   5.426   6.717 -0.4269 -0.0653 -0.0913
10526WAT      O42823   2.512   4.588   5.215 -0.3861 -0.5443  0.2399
10526WAT     H142824   2.591   4.622   5.224 -0.1665 -0.7149 -0.9061
10526WAT     H242825   2.494   4.554   5.294  0.3480  0.1629  0.7215
10526WAT    EPW42826   2.521   4.588   5.228 -0.2452 -0.4650  0.1417
10527WAT      O42827   4.221   6.998   2.117 -0.2227  0.0157 -0.4266
10527WAT     H142828   4.234   6.913   2.100  1.0770  0.3348 -1.2259
10527WAT     H242829   4.285   7.017   2.173 -0.5314  0.4623 -0.2243
10527WAT    EPW42830   4.233   6.988   2.122 -0.0763  0.1288 -0.5148
10528WAT      O42831   4.678   4.278   0.475  0.8196 -0.2046  0.5451
10528WAT     H142832   4.625   4.331   0.520  1.9338 -0.5614  2.3947
10528WAT     H242833   4.638   4.270   0.398 -1.1537  0.5270  1.4205
10528WAT    EPW42834   4.665   4.285   0.470  0.6927 -0.1492  0.9476
10529WAT      O42835   4.172   0.209   0.780 -0.4035  0.0408 -0.1503
10529WAT     H142836   4.207   0.279   0.819 -1.3000  0.4749 -0.1065
10529WAT     H242837   4.230   0.189   0.719 -1.2018  2.3160 -1.8052
10529WAT    EPW42838   4.186   0.217   0.777 -0.6539  0.4410 -0.3883
10530WAT      O42839   4.990   2.777   3.233 -0.7766 -0.2371 -0.0090
10530WAT     H142840   4.983   2.812   3.154 -0.6406  0.8607  0.4469
10530WAT     H242841   4.948   2.701   3.226  0.2521 -0.7118 -1.4580
10530WAT    EPW42842   4.983   2.771   3.220 -0.6045 -0.1451 -0.1557
10531WAT      O42843   5.811   1.338   3.297 -0.0578 -0.6683  0.7831
10531WAT     H142844   5.875   1.383   3.259 -0.0519  0.2627  1.8469
10531WAT     H242845   5.835   1.334   3.381 -0.7686 -1.4014  0.9648
10531WAT    EPW42846   5.824   1.344   3.304 -0.1619 -0.6391  0.9671
10532WAT      O42847   2.814   0.657   1.546 -0.1392  0.1522 -0.2322
10532WAT     H142848   2.789   0.737   1.522 -1.7170  0.2991  1.7165
10532WAT     H242849   2.889   0.671   1.589 -0.0424  0.4713 -0.4980
10532WAT    EPW42850   2.822   0.671   1.549 -0.3580  0.2211  0.0164
10533WAT      O42851   1.715   0.384   4.307 -0.1199  0.1279 -0.0073
10533WAT     H142852   1.708   0.298   4.315 -0.5425 -0.0721 -1.9010
10533WAT     H242853   1.800   0.399   4.323  0.5333 -1.0310 -1.9287
10533WAT    EPW42854   1.727   0.374   4.310 -0.0858 -0.0728 -0.5709
10534WAT      O42855   2.746   5.849   5.459 -0.5679  0.2616 -0.4619
10534WAT     H142856   2.706   5.866   5.534 -3.0136  2.5450 -2.0859
10534WAT     H242857   2.829   5.872   5.473 -1.3325  2.3001  1.0776
10534WAT    EPW42858   2.752   5.855   5.472 -1.0421  0.9000 -0.4744
10535WAT      O42859   2.609   5.728   3.211 -0.1064  0.1289 -0.6856
10535WAT     H142860   2.671   5.678   3.247 -0.0503  0.3799 -0.4292
10535WAT     H242861   2.535   5.700   3.249  0.2018  2.2233  1.8161
10535WAT    EPW42862   2.607   5.717   3.222 -0.0526  0.4753 -0.2781
10536WAT      O42863   6.924   6.663   1.256  0.1285 -0.4467 -0.6870
10536WAT     H142864   6.938   6.628   1.177 -1.7093 -1.5423 -0.5966
10536WAT     H242865   6.842   6.691   1.252 -0.1734 -0.9812  0.9788
10536WAT    EPW42866   6.914   6.662   1.244 -0.1876 -0.6875 -0.4276
10537WAT      O42867   4.061   5.816   5.834  0.2382 -0.5608  0.1333
10537WAT     H142868   4.093   5.888   5.798 -0.7983 -1.1967 -2.3370
10537WAT     H242869   4.121   5.755   5.815 -0.6312 -1.0371 -1.2861
10537WAT    EPW42870   4.074   5.817   5.826 -0.0434 -0.7251 -0.4413
10538WAT      O42871   1.832   2.778   3.662 -0.2774  0.3399 -0.1503
10538WAT     H142872   1.855   2.782   3.747  0.1709  0.3598 -0.2689
10538WAT     H242873   1.758   2.731   3.663  0.2227 -0.4620  0.1542
10538WAT    EPW42874   1.824   2.772   3.675 -0.1373  0.2243 -0.1229
10539WAT      O42875   2.185   3.563   0.903 -0.6255  0.1167 -0.7619
10539WAT     H142876   2.213   3.502   0.958 -0.5370 -0.5191 -1.4926
10539WAT     H242877   2.100   3.571   0.923 -0.1938  1.3413  0.7938
10539WAT    EPW42878   2.177   3.555   0.914 -0.5487  0.2036 -0.6400
10540WAT      O42879   0.281   2.044   5.520  0.0190 -0.3289 -0.1561
10540WAT     H142880   0.344   1.984   5.534  0.1271 -0.2635 -0.3607
10540WAT     H242881   0.265   2.076   5.600  1.6858  1.1056 -0.3441
10540WAT    EPW42882   0.288   2.040   5.534  0.2812 -0.1073 -0.2141
10541WAT      O42883   3.869   5.136   4.090 -0.4670 -0.1856 -0.0299
10541WAT     H142884   3.846   5.062   4.050  0.3541  0.0855 -1.0362
10541WAT     H242885   3.905   5.184   4.027  2.1292 -0.2743  1.2460
10541WAT    EPW42886   3.871   5.132   4.075  0.0378 -0.1587  0.0099
10542WAT      O42887   6.326   2.829   5.468 -0.2635  0.3658  0.0831
10542WAT     H142888   6.312   2.807   5.385 -0.7530 -0.6718  0.4295
10542WAT     H242889   6.413   2.841   5.471 -0.0843 -0.6840 -0.3365
10542WAT    EPW42890   6.337   2.828   5.456 -0.3093  0.0575  0.0723
10543WAT      O42891   4.274   6.922   3.578 -0.3678 -0.2146  0.1341
10543WAT     H142892   4.353   6.952   3.598  0.1500 -1.2503 -0.2617
10543WAT     H242893   4.244   6.979   3.519  0.4648 -0.3014 -0.3852
10543WAT    EPW42894   4.281   6.935   3.572 -0.1683 -0.3804 -0.0011
10544WAT      O42895   6.595   0.438   2.124  0.8556  0.2161  0.3534
10544WAT     H142896   6.551   0.483   2.064  1.5622 -1.6122 -1.6857
10544WAT     H242897   6.550   0.363   2.129  2.4865 -0.8413 -0.2007
10544WAT    EPW42898   6.582   0.433   2.115  1.2009 -0.2102 -0.0296
10545WAT      O42899   2.259   3.269   6.549 -0.2271  0.3682  0.0968
10545WAT     H142900   2.330   3.260   6.498  0.3061  0.1272  0.8607
10545WAT     H242901   2.256   3.354   6.566  1.6429  0.0753  2.4544
10545WAT    EPW42902   2.269   3.280   6.544  0.1279  0.2894  0.5579
10546WAT      O42903   6.380   6.732   3.951  0.6393  0.0701  0.5654
10546WAT     H142904   6.458   6.765   3.928 -0.7566  2.9443 -0.5354
10546WAT     H242905   6.331   6.745   3.880 -1.1810 -0.4609  1.6750
10546WAT    EPW42906   6.384   6.738   3.937  0.1642  0.4162  0.5667
10547WAT      O42907   4.043   2.647   7.123 -0.1176 -0.1747 -0.0443
10547WAT     H142908   4.098   2.710   7.149  0.7943 -1.2043  0.5912
10547WAT     H242909   4.087   2.607   7.059 -1.2816  0.6870 -1.4639
10547WAT    EPW42910   4.058   2.650   7.117 -0.1549 -0.1995 -0.1601
10548WAT      O42911   3.771   3.391   1.419 -0.0963 -0.3613  0.5440
10548WAT     H142912   3.771   3.353   1.341  2.5538 -1.1208  0.8281
10548WAT     H242913   3.803   3.330   1.472  1.1734  1.1629  1.6215
10548WAT    EPW42914   3.776   3.376   1.415  0.4828 -0.2483  0.7451
10549WAT      O42915   4.653   2.564   2.009 -0.0386  0.1838 -0.2343
10549WAT     H142916   4.692   2.540   1.934 -0.7873  0.8581 -0.8619
10549WAT     H242917   4.587   2.507   2.016  0.9023 -0.8315  0.7215
10549WAT    EPW42918   4.649   2.552   1.999 -0.0102  0.1335 -0.1858
10550WAT      O42919   1.064   2.459   6.290  0.0764 -0.2062  0.4136
10550WAT     H142920   1.028   2.438   6.213 -0.8075 -0.1673  0.8014
10550WAT     H242921   1.136   2.504   6.268  0.0499 -0.5519 -0.3894
10550WAT    EPW42922   1.069   2.463   6.276 -0.0581 -0.2515  0.3522
10551WAT      O42923   5.617   0.968   3.531  0.1551 -0.1461 -0.2066
10551WAT     H142924   5.638   0.949   3.613  1.6772 -0.8400 -0.7134
10551WAT     H242925   5.530   0.963   3.529  0.1850 -1.4726  1.0279
10551WAT    EPW42926   5.607   0.965   3.543  0.3843 -0.4445 -0.0991
10552WAT      O42927   1.302   3.426   6.414 -0.7606 -0.0097  0.9159
10552WAT     H142928   1.250   3.357   6.422 -0.7285 -0.4939 -1.8834
10552WAT     H242929   1.285   3.455   6.333  2.1162  0.7907  0.4808
10552WAT    EPW42930   1.292   3.420   6.403 -0.3309  0.0370  0.4381
10553WAT      O42931   4.329   5.466   3.508  0.6023  0.2206 -0.4619
10553WAT     H142932   4.319   5.381   3.524  0.4611 -0.0055 -1.6505
10553WAT     H242933   4.272   5.481   3.444 -1.2508  1.8100  1.4138
10553WAT    EPW42934   4.319   5.455   3.501  0.3077  0.4220 -0.3604
10554WAT      O42935   0.280   3.306   0.119  0.4328  0.4804  0.2171
10554WAT     H142936   0.257   3.277   0.040  0.2664  0.6463  0.2040
10554WAT     H242937   0.307   3.387   0.105 -1.5352  1.2703  0.5948
10554WAT    EPW42938   0.280   3.313   0.106  0.1175  0.6216  0.2710
10555WAT      O42939   5.984   3.783   1.398 -0.1825 -0.1149  0.4112
10555WAT     H142940   5.992   3.766   1.483 -0.7732 -1.7461  0.1819
10555WAT     H242941   5.994   3.870   1.393  0.3380 -0.0501  2.0709
10555WAT    EPW42942   5.986   3.794   1.410 -0.1929 -0.3463  0.6225
10556WAT      O42943   5.674   1.073   1.487 -0.1582 -0.5017  0.1321
10556WAT     H142944   5.708   1.054   1.409  0.8831  1.4477  0.0439
10556WAT     H242945   5.591   1.045   1.481  0.0995 -1.0409 -1.3790
10556WAT    EPW42946   5.667   1.066   1.474  0.0337 -0.2934 -0.1041
10557WAT      O42947   0.942   2.534   5.839  0.1341 -0.1908 -0.2447
10557WAT     H142948   0.975   2.605   5.877  0.4467 -0.3654 -0.1870
10557WAT     H242949   0.859   2.556   5.823  0.2400  0.2007 -0.2638
10557WAT    EPW42950   0.934   2.547   5.843  0.1959 -0.1588 -0.2390
10558WAT      O42951   5.093   6.355   6.006 -0.1253  0.6886 -0.8014
10558WAT     H142952   5.101   6.396   5.929 -1.4500  2.7202  0.0325
10558WAT     H242953   5.035   6.405   6.049 -2.5613 -2.5294  0.0959
10558WAT    EPW42954   5.085   6.369   6.001 -0.6808  0.5133 -0.5456
10559WAT      O42955   0.093   6.017   5.440 -0.2582  0.2465 -0.6529
10559WAT     H142956   0.162   6.023   5.493 -0.6438 -0.6296 -0.0259
10559WAT     H242957   0.109   5.946   5.392  0.7273  1.7538 -2.7155
10559WAT    EPW42958   0.105   6.008   5.441 -0.1695  0.3397 -0.8650
10560WAT      O42959   6.138   0.018   7.327 -0.2914  0.4444  0.4980
10560WAT     H142960   6.140   0.088   7.276  0.1846  0.0944  0.0294
10560WAT     H242961   6.151   0.050   7.407  1.7950  0.7271  0.1050
10560WAT    EPW42962   6.140   0.033   7.332  0.0871  0.4344  0.3708
10561WAT      O42963   2.148   6.697   2.158 -0.4705 -0.0533 -0.3027
10561WAT     H142964   2.130   6.612   2.151  3.8071 -1.0616 -3.5437
10561WAT     H242965   2.105   6.733   2.091  1.3717 -0.6704 -1.9076
10561WAT    EPW42966   2.139   6.690   2.147  0.4335 -0.2934 -1.0185
10562WAT      O42967   0.832   3.499   3.230  0.1749  0.0625 -0.2226
10562WAT     H142968   0.909   3.485   3.269  0.5022  1.7506 -0.1707
10562WAT     H242969   0.807   3.576   3.262 -0.4724  0.5919 -1.9024
10562WAT    EPW42970   0.840   3.508   3.240  0.1277  0.3901 -0.4631
10563WAT      O42971   4.002   7.051   2.645 -0.4312 -0.0365  0.3963
10563WAT     H142972   3.952   7.110   2.606  0.9502  0.2064 -1.1442
10563WAT     H242973   3.986   6.977   2.601  1.3425  0.2985 -0.9636
10563WAT    EPW42974   3.992   7.049   2.632  0.0349  0.0489 -0.0322
10564WAT      O42975   2.052   3.103   6.630  0.7074  0.2504 -0.0464
10564WAT     H142976   2.074   3.049   6.566  0.8827 -0.2397  0.4249
10564WAT     H242977   2.107   3.170   6.620 -0.7646  1.2790 -1.8260
10564WAT    EPW42978   2.063   3.105   6.620  0.5158  0.3300 -0.2397
10565WAT      O42979   4.653   2.915   6.965 -0.0569 -0.1980  0.4472
10565WAT     H142980   4.641   2.965   6.894 -0.9816  1.1995  1.5112
10565WAT     H242981   4.671   2.973   7.028 -0.9404 -1.2030  1.7012
10565WAT    EPW42982   4.654   2.931   6.964 -0.3240 -0.1400  0.7897
10566WAT      O42983   6.646   0.681   6.651  0.3415  0.0218  0.3354
10566WAT     H142984   6.671   0.753   6.693  0.5490 -0.8051  1.7128
10566WAT     H242985   6.583   0.649   6.702 -0.7990  0.0026 -1.0418
10566WAT    EPW42986   6.641   0.687   6.665  0.2037 -0.1032  0.3354
10567WAT      O42987   1.347   6.051   0.362  0.2568 -0.0816 -0.1554
10567WAT     H142988   1.418   6.000   0.350 -0.6017 -0.8159 -2.9551
10567WAT     H242989   1.294   6.001   0.410  1.0683 -0.0684  0.7884
10567WAT    EPW42990   1.350   6.036   0.367  0.2499 -0.1881 -0.4296
10568WAT      O42991   5.711   1.677   2.349 -0.2703 -0.2490 -0.2426
10568WAT     H142992   5.650   1.739   2.341 -0.2080 -0.3181 -1.2753
10568WAT     H242993   5.786   1.722   2.355 -0.1012 -0.2258 -2.1283
10568WAT    EPW42994   5.713   1.692   2.349 -0.2361 -0.2558 -0.6737
10569WAT      O42995   0.323   0.731   3.132  0.0800 -0.8818 -0.4221
10569WAT     H142996   0.279   0.714   3.059 -0.4849 -0.0118 -0.2987
10569WAT     H242997   0.261   0.746   3.191  0.5334 -0.7007  0.0242
10569WAT    EPW42998   0.308   0.731   3.130  0.0635 -0.7265 -0.3379
10570WAT      O42999   0.548   0.465   4.176  0.0784 -0.2497  0.3544
10570WAT     H143000   0.556   0.380   4.158  0.9910 -0.1250  0.1047
10570WAT     H243001   0.516   0.498   4.102 -0.8981 -0.4633  0.6707
10570WAT    EPW43002   0.545   0.457   4.163  0.0690 -0.2628  0.3643
10571WAT      O43003   1.905   7.001   4.262 -0.2704  0.6553  0.6064
10571WAT     H143004   1.910   7.088   4.261  1.1222  0.6060 -0.9992
10571WAT     H243005   1.822   6.985   4.238 -0.4783  1.5371  0.7129
10571WAT    EPW43006   1.894   7.011   4.258 -0.0954  0.7783  0.3850
10572WAT      O43007   3.829   1.871   1.888  0.5307 -1.0221 -0.3934
10572WAT     H143008   3.862   1.804   1.843  0.5997 -0.0702 -1.8380
10572WAT     H243009   3.851   1.941   1.840  0.3534  0.0341  0.9942
10572WAT    EPW43010   3.837   1.871   1.874  0.5147 -0.7254 -0.4018
10573WAT      O43011   5.209   1.793   4.104  0.4041  0.3238 -0.3010
10573WAT     H143012   5.228   1.744   4.034 -0.5285 -0.7593  0.1684
10573WAT     H243013   5.255   1.755   4.168 -1.3267 -0.8237  0.3384
10573WAT    EPW43014   5.219   1.780   4.103  0.0107 -0.0057 -0.1372
10574WAT      O43015   2.928   5.365   1.074 -0.0469  0.3035 -0.6970
10574WAT     H143016   2.861   5.367   1.130 -0.3292  2.1081 -1.0342
10574WAT     H243017   2.987   5.316   1.115 -0.4709  1.0825  0.9312
10574WAT    EPW43018   2.927   5.358   1.088 -0.1512  0.6851 -0.5063
10575WAT      O43019   2.895   4.300   2.635  0.5433  0.1964  0.7569
10575WAT     H143020   2.982   4.307   2.635  0.5245  1.0129 -1.2766
10575WAT     H243021   2.882   4.214   2.642  1.5326  0.0054  0.4608
10575WAT    EPW43022   2.906   4.288   2.636  0.6867  0.2888  0.4128
10576WAT      O43023   4.401   2.364   4.598 -0.1338 -0.4478  0.6814
10576WAT     H143024   4.369   2.398   4.524 -2.0202 -2.5410  0.4387
10576WAT     H243025   4.446   2.295   4.571  1.8297  0.4919  1.3273
10576WAT    EPW43026   4.403   2.359   4.583 -0.1224 -0.6182  0.7410
10577WAT      O43027   5.618   1.380   1.201  0.9049 -0.3905  0.0077
10577WAT     H143028   5.644   1.459   1.175 -0.6718  0.0411 -0.4041
10577WAT     H243029   5.678   1.357   1.260  0.0527  2.3563  2.2436
10577WAT    EPW43030   5.630   1.388   1.206  0.5461  0.0790  0.2772
10578WAT      O43031   0.383   2.690   5.171 -0.1849 -0.0548 -0.1644
10578WAT     H143032   0.384   2.712   5.256 -4.1721  0.1392 -0.0084
10578WAT     H243033   0.360   2.764   5.131 -0.5525 -0.7032 -1.1824
10578WAT    EPW43034   0.380   2.704   5.178 -0.8282 -0.1220 -0.2917
10579WAT      O43035   2.550   6.419   0.217 -0.2820  0.3409 -0.7476
10579WAT     H143036   2.532   6.370   0.287  1.1004  1.0255  0.1213
10579WAT     H243037   2.471   6.439   0.186 -0.8997 -1.3828 -0.3977
10579WAT    EPW43038   2.535   6.415   0.223 -0.1690  0.1874 -0.5676
10580WAT      O43039   3.486   6.462   5.893  0.0815  0.0313 -0.0487
10580WAT     H143040   3.536   6.474   5.964 -1.1932  0.8150  0.7555
10580WAT     H243041   3.443   6.388   5.911 -0.3399  0.3015  0.0509
10580WAT    EPW43042   3.487   6.452   5.906 -0.1691  0.1870  0.0848
10581WAT      O43043   3.128   3.425   1.543 -0.3407 -0.1242 -0.2707
10581WAT     H143044   3.170   3.491   1.582 -0.2942 -0.7298  0.7265
10581WAT     H243045   3.186   3.394   1.486  0.3320 -0.5073  0.6035
10581WAT    EPW43046   3.142   3.430   1.540 -0.2345 -0.2702  0.0058
10582WAT      O43047   2.613   3.386   4.903 -0.4822  0.2870 -0.1497
10582WAT     H143048   2.663   3.321   4.931 -0.9209  0.1228  0.2562
10582WAT     H243049   2.572   3.352   4.833 -1.4227 -0.1915  0.6187
10582WAT    EPW43050   2.615   3.371   4.897 -0.6859  0.1921  0.0238
10583WAT      O43051   5.295   3.635   6.007  0.3161 -0.3009  0.0335
10583WAT     H143052   5.214   3.654   5.983  0.5125  2.4030  1.1249
10583WAT     H243053   5.307   3.682   6.079  2.5001 -1.4988  0.5541
10583WAT    EPW43054   5.285   3.645   6.014  0.6677 -0.0785  0.2716
10584WAT      O43055   0.938   1.259   4.699 -0.3591 -0.7914  0.1353
10584WAT     H143056   0.927   1.344   4.682 -1.7003 -0.8076  0.7793
10584WAT     H243057   1.024   1.248   4.694  0.2112  1.2757  2.8718
10584WAT    EPW43058   0.949   1.270   4.696 -0.4730 -0.4884  0.6346
10585WAT      O43059   2.321   5.781   0.607  0.0351 -0.1832  0.0393
10585WAT     H143060   2.261   5.831   0.647  0.9875 -0.9787  2.6039
10585WAT     H243061   2.277   5.748   0.539 -1.6789  1.2442  0.3747
10585WAT    EPW43062   2.306   5.784   0.603 -0.0774 -0.0899  0.4677
10586WAT      O43063   4.659   7.044   4.315 -0.0289  0.7144  0.1648
10586WAT     H143064   4.572   7.049   4.310 -0.0844  1.8515  1.7206
10586WAT     H243065   4.686   7.084   4.242 -0.7597 -0.9582 -1.1098
10586WAT    EPW43066   4.650   7.050   4.303 -0.1450  0.6353  0.2063
10587WAT      O43067   2.978   3.963   6.054  0.3444  0.1126  0.2056
10587WAT     H143068   2.977   4.013   6.125  0.0750  0.9697 -0.3944
10587WAT     H243069   2.927   3.896   6.076 -1.7729  1.5534 -0.0007
10587WAT    EPW43070   2.970   3.960   6.068 -0.0081  0.4520  0.0865
10588WAT      O43071   3.323   1.240   0.788  0.2882 -0.3464 -0.1100
10588WAT     H143072   3.351   1.320   0.806  0.8020 -0.4108 -0.5988
10588WAT     H243073   3.395   1.197   0.765 -0.0472 -0.8271 -0.2905
10588WAT    EPW43074   3.338   1.245   0.787  0.3145 -0.4269 -0.2089
10589WAT      O43075   3.196   1.428   4.996 -0.2630 -0.2486 -0.4316
10589WAT     H143076   3.134   1.465   5.045 -0.4191 -0.8159 -0.1911
10589WAT     H243077   3.206   1.483   4.929  0.2026  0.7275  0.4098
10589WAT    EPW43078   3.189   1.441   4.994 -0.2173 -0.1882 -0.2718
10590WAT      O43079   0.347   4.551   1.225 -0.3756 -0.2280 -0.6559
10590WAT     H143080   0.422   4.581   1.258  0.2396  0.2956 -2.4166
10590WAT     H243081   0.321   4.615   1.172 -0.5196 -1.5792 -2.3046
10590WAT    EPW43082   0.354   4.565   1.222 -0.3060 -0.3503 -1.1595
10591WAT      O43083   3.071   7.141   2.430 -0.7531  0.0349 -1.0235
10591WAT     H143084   3.090   7.056   2.424 -1.4430 -0.0964 -1.4786
10591WAT     H243085   2.991   7.142   2.464 -0.5339  0.5277 -0.4947
10591WAT    EPW43086   3.062   7.129   2.434 -0.8227  0.0883 -1.0126
10592WAT      O43087   2.527   3.499   0.975 -0.3604  0.3164  0.4216
10592WAT     H143088   2.481   3.472   1.045  0.1157  0.3701  0.7640
10592WAT     H243089   2.508   3.584   0.969  0.6228  0.6157  1.3042
10592WAT    EPW43090   2.517   3.507   0.985 -0.1448  0.3685  0.6025
10593WAT      O43091   1.015   7.022   5.740  0.1237 -0.1896  0.3285
10593WAT     H143092   0.958   7.008   5.805  2.1549 -2.5214  1.8091
10593WAT     H243093   0.995   6.958   5.683  0.9126 -0.7263  0.6409
10593WAT    EPW43094   1.003   7.010   5.742  0.5403 -0.6133  0.5933
10594WAT      O43095   2.452   1.100   1.802  0.5742  0.2974  0.3581
10594WAT     H143096   2.422   1.062   1.875  0.8541 -1.6849 -0.4894
10594WAT     H243097   2.481   1.033   1.755 -0.9738  1.3275 -2.2660
10594WAT    EPW43098   2.452   1.084   1.806  0.3869  0.1567 -0.1547
10595WAT      O43099   6.218   2.923   3.624 -0.2916  0.1050 -0.3541
10595WAT     H143100   6.258   2.877   3.562  0.1877  0.7689 -0.5475
10595WAT     H243101   6.136   2.932   3.594  0.4947  2.4907 -2.1233
10595WAT    EPW43102   6.212   2.918   3.610 -0.1047  0.5555 -0.6440
10596WAT      O43103   5.921   0.767   6.867  0.1615  0.0925 -0.0390
10596WAT     H143104   5.865   0.824   6.833 -0.4345 -0.9266 -0.8405
10596WAT     H243105   6.000   0.801   6.848 -0.1591 -0.2156 -2.0832
10596WAT    EPW43106   5.925   0.780   6.859  0.0261 -0.1036 -0.4594
10597WAT      O43107   1.174   2.039   1.724 -0.3632  0.6357 -0.0021
10597WAT     H143108   1.164   1.957   1.754 -2.0025 -0.2250 -2.6091
10597WAT     H243109   1.097   2.076   1.741 -0.1240  1.1954 -0.1400
10597WAT    EPW43110   1.161   2.032   1.731 -0.5700  0.5912 -0.4076
10598WAT      O43111   1.833   0.484   1.008  0.5288 -0.0099 -0.1876
10598WAT     H143112   1.840   0.499   0.922 -2.5617 -0.3487 -0.5994
10598WAT     H243113   1.774   0.421   1.013 -0.4264  0.9699  2.2487
10598WAT    EPW43114   1.826   0.477   0.996 -0.0688  0.0848  0.1115
10599WAT      O43115   5.389   4.646   7.151 -0.3127 -0.0323  0.1771
10599WAT     H143116   5.380   4.729   7.128  0.1518  0.2549  0.9853
10599WAT     H243117   5.317   4.629   7.198 -0.6485 -0.2451 -0.3983
10599WAT    EPW43118   5.377   4.656   7.155 -0.2937 -0.0213  0.2115
10600WAT      O43119   1.801   7.112   4.962  0.3554 -0.0095  0.0043
10600WAT     H143120   1.864   7.113   4.902 -0.2897 -0.4563 -0.6987
10600WAT     H243121   1.734   7.151   4.923  0.2471  0.6600  0.8215
10600WAT    EPW43122   1.800   7.118   4.948  0.2441  0.0234  0.0212
10601WAT      O43123   7.305   7.136   1.492 -0.1078  0.8023 -0.0270
10601WAT     H143124   7.320   7.181   1.565  0.9272 -0.0707  0.3377
10601WAT     H243125   7.262   7.065   1.520 -0.6577  0.9718 -0.4238
10601WAT    EPW43126   7.301   7.132   1.507 -0.0361  0.6984 -0.0317
10602WAT      O43127   3.324   2.008   0.783 -0.4739 -0.1529  0.6430
10602WAT     H143128   3.399   1.981   0.819  0.1711  0.3929 -0.2517
10602WAT     H243129   3.298   2.072   0.837 -0.2082 -0.2305  0.8661
10602WAT    EPW43130   3.332   2.014   0.797 -0.3393 -0.0837  0.5438
10603WAT      O43131   0.171   3.166   5.966 -0.6690 -0.8032  0.0940
10603WAT     H143132   0.180   3.248   5.935 -0.8743 -0.1805  1.6048
10603WAT     H243133   0.245   3.152   6.009 -0.4653 -1.5906 -0.4864
10603WAT    EPW43134   0.183   3.176   5.967 -0.6692 -0.8275  0.2315
10604WAT      O43135   2.795   0.979   3.929  0.7180  0.0350 -0.3357
10604WAT     H143136   2.846   0.938   3.987  1.0461 -1.8558 -1.8753
10604WAT     H243137   2.747   0.915   3.895  0.6305  1.0600 -2.2538
10604WAT    EPW43138   2.796   0.964   3.933  0.7535 -0.0929 -0.8465
10605WAT      O43139   1.823   3.383   5.845 -0.2205  0.3487  0.3618
10605WAT     H143140   1.835   3.332   5.915  1.9395 -0.1100 -0.2684
10605WAT     H243141   1.791   3.457   5.879 -4.0753 -1.4634  1.2498
10605WAT    EPW43142   1.820   3.387   5.860 -0.4709  0.0132  0.3999
10606WAT      O43143   7.170   2.370   3.948  0.1530  0.4879 -0.5603
10606WAT     H143144   7.126   2.300   3.920  1.2881  0.0617 -1.3653
10606WAT     H243145   7.195   2.409   3.874 -1.7541  2.6494 -0.1769
10606WAT    EPW43146   7.167   2.366   3.933  0.0390  0.7442 -0.6226
10607WAT      O43147   0.633   3.183   0.762  0.2537  0.2423  0.0963
10607WAT     H143148   0.558   3.187   0.806 -0.8825 -2.2897 -1.3364
10607WAT     H243149   0.626   3.248   0.704 -1.0938 -0.2041 -0.2920
10607WAT    EPW43150   0.621   3.193   0.760 -0.1132 -0.1977 -0.1727
10608WAT      O43151   2.582   3.002   0.763 -0.2949  0.2282  0.4504
10608WAT     H143152   2.560   2.937   0.817  2.5697 -0.6942  0.6847
10608WAT     H243153   2.543   2.981   0.688  1.2149 -2.3394  0.2693
10608WAT    EPW43154   2.573   2.990   0.760  0.3513 -0.2873  0.4582
10609WAT      O43155   5.192   0.252   0.479 -0.6848 -0.0434 -0.1141
10609WAT     H143156   5.235   0.322   0.508 -0.9209  0.0376  0.0526
10609WAT     H243157   5.121   0.250   0.530 -0.6205 -0.4738 -0.0395
10609WAT    EPW43158   5.188   0.262   0.491 -0.7102 -0.0950 -0.0784
10610WAT      O43159   4.726   1.205   5.894 -0.0091  0.2142 -0.2812
10610WAT     H143160   4.728   1.292   5.888  3.2727  0.2965 -0.0139
10610WAT     H243161   4.730   1.191   5.980 -2.6898 -0.3328 -0.1547
10610WAT    EPW43162   4.727   1.216   5.906  0.0797  0.1455 -0.2230
10611WAT      O43163   0.229   2.577   6.557 -0.1446 -0.0615  0.0805
10611WAT     H143164   0.235   2.663   6.544  0.4259 -0.0977  0.0824
10611WAT     H243165   0.211   2.546   6.478 -0.7109  0.0932  0.1478
10611WAT    EPW43166   0.227   2.585   6.544 -0.1440 -0.0440  0.0907
10612WAT      O43167   3.832   1.943   7.302  0.2316 -0.3336  0.1567
10612WAT     H143168   3.915   1.955   7.277 -0.3556  0.2578 -1.6463
10612WAT     H243169   3.795   1.906   7.233 -1.2006  0.1366  0.6355
10612WAT    EPW43170   3.839   1.940   7.288 -0.0667 -0.1768 -0.0389
10613WAT      O43171   0.877   4.152   7.410  0.0727  0.6331  0.3867
10613WAT     H143172   0.953   4.152   7.367 -0.3027 -0.3400 -0.3005
10613WAT     H243173   0.817   4.154   7.347 -0.4831 -0.5209  0.8537
10613WAT    EPW43174   0.879   4.152   7.394 -0.0649  0.3189  0.3541
10614WAT      O43175   0.928   3.367   1.850 -0.0957 -0.1424  0.1744
10614WAT     H143176   0.914   3.444   1.811  0.2201  0.1491  0.6239
10614WAT     H243177   0.856   3.355   1.898 -0.3694 -0.3749 -0.2914
10614WAT    EPW43178   0.915   3.377   1.851 -0.0895 -0.1337  0.1720
10615WAT      O43179   2.267   2.909   4.735 -0.3701  0.3284 -0.1662
10615WAT     H143180   2.265   2.855   4.804  2.0419  0.3113 -0.0009
10615WAT     H243181   2.339   2.883   4.692 -1.0524  1.2567 -1.9276
10615WAT    EPW43182   2.278   2.897   4.739 -0.1146  0.4630 -0.4020
10616WAT      O43183   2.484   3.503   2.956 -0.1436  0.3542  0.4862
10616WAT     H143184   2.526   3.570   2.992  1.0935 -0.4728  0.6532
10616WAT     H243185   2.440   3.469   3.023 -1.6492  1.6021  0.1779
10616WAT    EPW43186   2.484   3.508   2.971 -0.1833  0.4163  0.4653
10617WAT      O43187   7.229   5.551   0.701  0.3004 -0.3633  0.5520
10617WAT     H143188   7.231   5.635   0.722 -1.5815 -0.0978 -0.0926
10617WAT     H243189   7.241   5.551   0.615  0.6183 -0.7789  0.5948
10617WAT    EPW43190   7.231   5.563   0.692  0.0693 -0.3855  0.4631
10618WAT      O43191   2.012   3.387   3.556 -0.1917 -0.3346 -0.2480
10618WAT     H143192   2.012   3.439   3.627  0.7615 -1.6238  0.7434
10618WAT     H243193   2.088   3.406   3.517  0.0402 -0.7705 -0.0209
10618WAT    EPW43194   2.023   3.398   3.561 -0.0166 -0.5894 -0.0680
10619WAT      O43195   6.847   7.209   1.938 -0.0616 -0.3600  0.7643
10619WAT     H143196   6.858   7.241   2.018 -2.5817 -0.2930  1.1480
10619WAT     H243197   6.844   7.281   1.888  1.3562 -0.3957  0.5783
10619WAT    EPW43198   6.848   7.225   1.942 -0.2244 -0.3554  0.7935
10620WAT      O43199   3.747   3.165   6.840 -0.9921  0.4175  0.3781
10620WAT     H143200   3.776   3.089   6.807 -0.3500  1.1605 -0.8857
10620WAT     H243201   3.661   3.158   6.833 -1.1142 -1.1317  2.5322
10620WAT    EPW43202   3.739   3.152   6.834 -0.9153  0.2984  0.5096
10621WAT      O43203   5.496   1.067   1.761  0.7088  0.5641 -0.7083
10621WAT     H143204   5.476   1.016   1.694 -0.4263  1.2734 -0.9358
10621WAT     H243205   5.440   1.133   1.754  1.1267  1.0715  0.4558
10621WAT    EPW43206   5.485   1.069   1.750  0.6029  0.7439 -0.5699
10622WAT      O43207   7.166   1.394   6.098 -0.8726  0.0171 -0.0677
10622WAT     H143208   7.191   1.335   6.158  2.6686 -0.9038 -2.1901
10622WAT     H243209   7.211   1.465   6.119 -0.6714  0.1261 -0.8597
10622WAT    EPW43210   7.176   1.396   6.110 -0.3197 -0.1029 -0.4982
10623WAT      O43211   3.954   3.273   0.559  0.3421 -0.2569  0.1436
10623WAT     H143212   3.870   3.255   0.571  0.3972 -0.3873  0.3364
10623WAT     H243213   3.954   3.352   0.523  0.1536 -0.1252  0.4417
10623WAT    EPW43214   3.942   3.282   0.555  0.3224 -0.2567  0.2161
10624WAT      O43215   3.149   5.988   0.557  0.3563  0.0247 -0.0394
10624WAT     H143216   3.088   6.010   0.498  0.5557  0.0450 -0.2406
10624WAT     H243217   3.153   5.901   0.551  1.6673  0.1471 -1.3693
10624WAT    EPW43218   3.141   5.978   0.547  0.5794  0.0458 -0.2656
10625WAT      O43219   3.365   5.434   6.612  0.1971 -0.2298  0.6389
10625WAT     H143220   3.282   5.449   6.634  0.4357  0.0428  1.3853
10625WAT     H243221   3.410   5.478   6.672  0.8928  1.2050 -0.8306
10625WAT    EPW43222   3.359   5.443   6.624  0.3351  0.0224  0.5321
10626WAT      O43223   4.497   5.752   2.498 -0.2004  0.2936 -0.0742
10626WAT     H143224   4.499   5.718   2.578  2.0996  1.3147  0.4020
10626WAT     H243225   4.519   5.685   2.446  1.4016  0.2975  0.5337
10626WAT    EPW43226   4.501   5.737   2.502  0.3760  0.4450  0.0859
10627WAT      O43227   0.963   0.058   6.593 -0.1046  0.9056  0.5938
10627WAT     H143228   0.974  -0.009   6.539  0.9591  0.1022  1.7647
10627WAT     H243229   0.878   0.054   6.614 -1.0591  2.3608 -2.3616
10627WAT    EPW43230   0.952   0.047   6.588 -0.0885  1.0019  0.3302
10628WAT      O43231   5.088   4.059   0.201  0.4200  0.0535  0.0698
10628WAT     H143232   5.150   4.120   0.207  1.1383 -0.7400  1.1088
10628WAT     H243233   5.028   4.086   0.259  2.0969 -1.6667  2.8451
10628WAT    EPW43234   5.088   4.072   0.211  0.7738 -0.3178  0.6332
10629WAT      O43235   3.423   6.270   0.684  0.4733 -0.2108 -0.6353
10629WAT     H143236   3.375   6.269   0.611 -0.5234 -1.1751 -0.0034
10629WAT     H243237   3.375   6.223   0.740  0.4067  1.8877  1.1710
10629WAT    EPW43238   3.409   6.263   0.681  0.3162 -0.0433 -0.2751
10630WAT      O43239   5.644   1.960   2.287 -0.7429 -0.5838 -0.7065
10630WAT     H143240   5.579   2.007   2.252 -1.0274 -0.9152 -0.6268
10630WAT     H243241   5.714   1.985   2.241 -1.1288 -1.0910 -1.5906
10630WAT    EPW43242   5.644   1.971   2.275 -0.8419 -0.7077 -0.8253
10631WAT      O43243   2.616   4.917   7.371  0.7151  0.0819  0.3725
10631WAT     H143244   2.613   4.976   7.435  1.2881  3.1030 -2.1313
10631WAT     H243245   2.695   4.882   7.380  0.0801 -0.9940  2.3733
10631WAT    EPW43246   2.627   4.921   7.382  0.7060  0.3693  0.2982
10632WAT      O43247   4.267   0.686   1.589  0.0384  0.0025  0.4805
10632WAT     H143248   4.289   0.609   1.624  0.1283  0.7575  2.1725
10632WAT     H243249   4.308   0.744   1.639 -1.8975  1.2575  0.7309
10632WAT    EPW43250   4.276   0.683   1.601 -0.2343  0.2994  0.7674
10633WAT      O43251   1.191   6.751   1.214 -0.0332  0.3046  0.1984
10633WAT     H143252   1.239   6.706   1.272 -1.2068  0.1761  1.1176
10633WAT     H243253   1.111   6.718   1.224 -0.2231  0.1274 -1.7001
10633WAT    EPW43254   1.186   6.740   1.224 -0.2346  0.2594  0.0537
10634WAT      O43255   6.476   4.652   1.994  0.3524 -0.3652 -0.4380
10634WAT     H143256   6.485   4.655   1.908  0.9498  0.1054 -0.3693
10634WAT     H243257   6.529   4.716   2.022  0.6566 -0.9383  0.3091
10634WAT    EPW43258   6.485   4.662   1.986  0.4856 -0.3804 -0.3175
10635WAT      O43259   5.912   2.631   6.916  0.0061  0.2222  0.3805
10635WAT     H143260   5.998   2.625   6.902  0.1205  1.3423  0.4920
10635WAT     H243261   5.895   2.565   6.970  0.9055  0.3209  0.7998
10635WAT    EPW43262   5.922   2.620   6.922  0.1558  0.4022  0.4589
10636WAT      O43263   2.204   0.496   0.890 -0.0903 -0.3598 -0.2023
10636WAT     H143264   2.146   0.559   0.905 -0.3081 -0.5426 -0.2835
10636WAT     H243265   2.166   0.424   0.920 -0.8894 -0.8850 -2.2788
10636WAT    EPW43266   2.190   0.495   0.896 -0.2405 -0.4644 -0.5211
10637WAT      O43267   2.337   3.379   0.716  0.7321  0.4457  0.1083
10637WAT     H143268   2.383   3.340   0.779  1.5138  1.4504  0.1788
10637WAT     H243269   2.272   3.418   0.759  0.9043  0.6044  0.2255
10637WAT    EPW43270   2.334   3.379   0.732  0.8730  0.6175  0.1360
10638WAT      O43271   6.756   4.956   3.912 -0.3088 -0.0703 -0.1104
10638WAT     H143272   6.721   4.956   3.832 -1.5673  2.7135  0.3272
10638WAT     H243273   6.842   4.957   3.896 -0.5314 -0.0455 -1.4354
10638WAT    EPW43274   6.764   4.956   3.897 -0.5276  0.3446 -0.2415
10639WAT      O43275   2.592   0.220   4.575 -0.0273  0.7546 -0.1784
10639WAT     H143276   2.616   0.260   4.648  0.2563  0.7483 -0.2658
10639WAT     H243277   2.530   0.272   4.542 -0.0255  0.8514 -0.0273
10639WAT    EPW43278   2.587   0.234   4.581  0.0149  0.7680 -0.1690
10640WAT      O43279   0.323   1.611   1.979  0.0269  0.0111  0.0319
10640WAT     H143280   0.410   1.616   1.975 -0.0476  0.6565 -1.8485
10640WAT     H243281   0.305   1.532   1.947 -0.0897  0.2888 -0.6210
10640WAT    EPW43282   0.333   1.600   1.973 -0.0013  0.1475 -0.3423
10641WAT      O43283   6.266   0.314   6.435  0.1410  0.1184 -0.4167
10641WAT     H143284   6.351   0.296   6.436  0.5072  1.6341 -1.0510
10641WAT     H243285   6.228   0.237   6.452  1.5025 -1.4352 -3.5747
10641WAT    EPW43286   6.273   0.300   6.437  0.3962  0.1128 -0.9769
10642WAT      O43287   4.841   3.856   7.268  0.3850  0.7068  0.4388
10642WAT     H143288   4.771   3.871   7.218  1.0200  0.6029 -0.5077
10642WAT     H243289   4.812   3.872   7.349 -0.1500  2.7975 -0.1040
10642WAT    EPW43290   4.826   3.860   7.273  0.3998  1.0003  0.2188
10643WAT      O43291   6.911   1.985   2.014 -0.0551 -0.3118  0.1130
10643WAT     H143292   6.838   2.033   2.014  0.2662  0.2062 -0.7820
10643WAT     H243293   6.917   1.956   2.096 -0.4120  0.9506  0.6058
10643WAT    EPW43294   6.901   1.988   2.026 -0.0604 -0.0488  0.0536
10644WAT      O43295   0.850   3.908   4.525  0.0570  0.3943  0.2321
10644WAT     H143296   0.876   3.916   4.608  0.5630 -1.0034  0.2291
10644WAT     H243297   0.876   3.828   4.503  1.8489  1.4685 -1.9510
10644WAT    EPW43298   0.858   3.898   4.534  0.3964  0.3465 -0.0908
10645WAT      O43299   3.850   3.826   4.804 -0.2978 -0.7297  0.3263
10645WAT     H143300   3.790   3.767   4.825 -0.9986 -0.1485 -0.0031
10645WAT     H243301   3.804   3.897   4.785  0.5321 -0.0083  0.8818
10645WAT    EPW43302   3.835   3.828   4.804 -0.2787 -0.5373  0.3597
10646WAT      O43303   5.565   1.521   2.847 -0.7989  0.0372 -0.2059
10646WAT     H143304   5.595   1.549   2.770  0.3974  2.1344  0.9254
10646WAT     H243305   5.621   1.556   2.904 -1.3272 -1.8955  1.6180
10646WAT    EPW43306   5.578   1.530   2.844 -0.7003  0.0615  0.2307
10647WAT      O43307   6.161   0.545   5.423 -0.0150  0.0698 -0.7687
10647WAT     H143308   6.164   0.605   5.360 -1.4934 -0.2994 -1.2125
10647WAT     H243309   6.237   0.502   5.414  0.0597  0.4216 -1.8984
10647WAT    EPW43310   6.173   0.547   5.412 -0.2224  0.0672 -1.0011
10648WAT      O43311   1.257   3.338   4.730 -0.9759  0.0465 -0.3583
10648WAT     H143312   1.214   3.349   4.806  0.4733  0.3671  0.4509
10648WAT     H243313   1.314   3.404   4.730  2.4045 -2.5841  0.6896
10648WAT    EPW43314   1.259   3.349   4.741 -0.2625 -0.2948 -0.0840
10649WAT      O43315   1.333   3.122   3.306 -0.4941 -0.1104 -0.5189
10649WAT     H143316   1.312   3.134   3.222 -0.8805  0.3475 -0.3617
10649WAT     H243317   1.257   3.101   3.343 -0.1393 -1.3574 -0.4690
10649WAT    EPW43318   1.318   3.121   3.299 -0.4988 -0.2270 -0.4883
10650WAT      O43319   6.952   5.254   6.893  0.3333 -0.0731 -0.1269
10650WAT     H143320   6.999   5.327   6.880 -1.3114  1.3454  1.3688
10650WAT     H243321   6.917   5.239   6.814  0.9984  0.5423 -0.5571
10650WAT    EPW43322   6.954   5.263   6.880  0.1886  0.2274  0.0305
10651WAT      O43323   3.548   2.690   5.978 -0.3420 -0.8057  0.8412
10651WAT     H143324   3.620   2.640   5.985 -0.2923 -0.6900  1.1508
10651WAT     H243325   3.493   2.654   6.035  0.4429  0.7984  2.7182
10651WAT    EPW43326   3.550   2.677   5.988 -0.2187 -0.5517  1.1642
10652WAT      O43327   6.213   3.397   6.349 -0.2810 -0.1940  0.2100
10652WAT     H143328   6.167   3.391   6.276 -0.6217 -0.2784  0.4311
10652WAT     H243329   6.160   3.365   6.410  0.0695 -0.3009  0.4658
10652WAT    EPW43330   6.199   3.392   6.347 -0.2796 -0.2223  0.2805
10653WAT      O43331   7.168   3.088   6.609  0.2779  0.3176  0.1295
10653WAT     H143332   7.119   3.046   6.551  2.5628 -0.3683 -1.4295
10653WAT     H243333   7.176   3.168   6.576  2.5747 -0.4065 -1.2712
10653WAT    EPW43334   7.162   3.094   6.596  0.9547  0.1093 -0.3077
10654WAT      O43335   5.702   5.954   5.620 -0.2943 -0.0055  0.0552
10654WAT     H143336   5.709   5.977   5.704  2.2600 -0.0748 -0.0440
10654WAT     H243337   5.640   6.006   5.589 -0.1145  1.2051  1.6246
10654WAT    EPW43338   5.694   5.965   5.628  0.1096  0.1631  0.2724
10655WAT      O43339   6.400   1.722   6.115  0.2266 -0.1721 -0.4021
10655WAT     H143340   6.366   1.644   6.094  1.4831 -0.5636 -1.0862
10655WAT     H243341   6.344   1.779   6.081  0.8803 -0.7929 -2.6959
10655WAT    EPW43342   6.387   1.719   6.107  0.5088 -0.3217 -0.8420
10656WAT      O43343   4.052   4.309   0.546 -0.0912 -0.1297  0.2218
10656WAT     H143344   4.132   4.277   0.563 -0.0398 -0.0220  0.1805
10656WAT     H243345   4.065   4.365   0.480  0.0729  1.1012  1.2523
10656WAT    EPW43346   4.066   4.313   0.539 -0.0594  0.0680  0.3679
10657WAT      O43347   5.686   5.744   6.582 -0.1861 -0.0982 -0.4205
10657WAT     H143348   5.682   5.687   6.648 -0.4876 -0.1914 -0.5176
10657WAT     H243349   5.612   5.790   6.590  0.1486  0.4161 -0.2214
10657WAT    EPW43350   5.674   5.742   6.593 -0.1812 -0.0360 -0.4054
10658WAT      O43351   2.661   2.270   2.060 -0.0086  0.2134  0.2073
10658WAT     H143352   2.696   2.210   2.008  2.1791  1.5770  0.0189
10658WAT     H243353   2.596   2.227   2.099  0.2789 -1.7158 -1.3056
10658WAT    EPW43354   2.656   2.255   2.058  0.3570  0.1299 -0.0440
10659WAT      O43355   2.870   0.722   0.688 -0.0431  0.1223  0.2077
10659WAT     H143356   2.838   0.643   0.672 -1.9950  0.7043  0.9300
10659WAT     H243357   2.822   0.774   0.637  0.1993  0.9825  0.8354
10659WAT    EPW43358   2.858   0.718   0.678 -0.2956  0.3354  0.4071
10660WAT      O43359   0.888   0.934   6.197 -0.0719  0.8514  0.4272
10660WAT     H143360   0.813   0.943   6.240 -0.4564 -0.3342  0.0713
10660WAT     H243361   0.936   0.884   6.250 -1.3591 -2.5411 -1.2808
10660WAT    EPW43362   0.884   0.928   6.211 -0.3189  0.1751  0.1223
10661WAT      O43363   3.428   6.415   4.754 -0.2861  0.4942 -0.2098
10661WAT     H143364   3.372   6.402   4.688 -0.3019 -0.9276  0.0434
10661WAT     H243365   3.479   6.344   4.751 -0.8156 -0.0325  1.8261
10661WAT    EPW43366   3.427   6.402   4.743 -0.3666  0.2064  0.1284
10662WAT      O43367   0.193   1.615   1.359 -0.0748 -0.6077 -0.3057
10662WAT     H143368   0.187   1.564   1.430  2.4374  0.0789  0.5235
10662WAT     H243369   0.218   1.560   1.296 -1.9953 -1.1631 -0.6356
10662WAT    EPW43370   0.196   1.600   1.361  0.0126 -0.5883 -0.2319
10663WAT      O43371   0.505   2.698   3.683 -0.1986  0.4443 -0.4325
10663WAT     H143372   0.564   2.646   3.721 -0.8743 -0.3751 -0.4703
10663WAT     H243373   0.467   2.645   3.624  0.1605  1.4175 -1.5696
10663WAT    EPW43374   0.508   2.682   3.680 -0.2454  0.4670 -0.6061
10664WAT      O43375   3.420   0.643   6.626 -0.1391  0.0147 -0.1814
10664WAT     H143376   3.371   0.572   6.615 -0.4025  0.5225 -2.8575
10664WAT     H243377   3.366   0.709   6.608  0.1524  0.9547  2.0934
10664WAT    EPW43378   3.405   0.642   6.622 -0.1349  0.2286 -0.2407
10665WAT      O43379   3.829   6.116   4.403 -0.2033  0.3664 -0.5135
10665WAT     H143380   3.888   6.158   4.452 -0.4564  1.2658 -0.9573
10665WAT     H243381   3.761   6.170   4.400 -0.1592  0.3939 -1.9290
10665WAT    EPW43382   3.828   6.130   4.410 -0.2342  0.5033 -0.7882
10666WAT      O43383   3.658   4.936   0.402 -0.6944  0.1223 -0.7709
10666WAT     H143384   3.692   4.917   0.324 -3.2930  0.6262 -2.1384
10666WAT     H243385   3.589   4.986   0.383 -0.2915  1.9825  2.0115
10666WAT    EPW43386   3.653   4.941   0.388 -1.0187  0.4715 -0.5619
10667WAT      O43387   0.909   0.125   1.918  0.7475  0.3268  0.4225
10667WAT     H143388   0.946   0.068   1.973  0.2637 -0.0184  0.3964
10667WAT     H243389   0.864   0.074   1.863 -0.5000  0.7587  0.9950
10667WAT    EPW43390   0.907   0.109   1.918  0.4918  0.3396  0.5032
10668WAT      O43391   3.997   2.512   6.074  0.1413  0.1859  0.2628
10668WAT     H143392   3.962   2.589   6.094 -0.3803  0.0959 -0.2860
10668WAT     H243393   3.943   2.479   6.013  1.5752  0.3823 -1.1857
10668WAT    EPW43394   3.984   2.518   6.068  0.2761  0.2016 -0.0322
10669WAT      O43395   2.597   4.802   0.268 -0.0976 -0.0645 -0.0926
10669WAT     H143396   2.684   4.803   0.257 -0.2073 -1.1285 -1.2967
10669WAT     H243397   2.581   4.876   0.311  1.4609 -0.1082  0.6279
10669WAT    EPW43398   2.608   4.813   0.272  0.1164 -0.2282 -0.1640
10670WAT      O43399   6.748   2.308   2.409 -0.2277 -0.4239 -0.0898
10670WAT     H143400   6.734   2.384   2.449 -0.3271 -2.1379  3.4917
10670WAT     H243401   6.669   2.271   2.406 -0.0917 -0.6775 -1.2918
10670WAT    EPW43402   6.734   2.313   2.414 -0.2223 -0.7146  0.2617
10671WAT      O43403   1.774   4.508   2.411  0.3949 -0.6242  0.2561
10671WAT     H143404   1.698   4.537   2.380 -0.5196 -3.2722 -0.2888
10671WAT     H243405   1.834   4.550   2.363 -0.8859 -1.3291 -2.1355
10671WAT    EPW43406   1.772   4.518   2.399  0.0706 -1.1195 -0.1777
10672WAT      O43407   5.193   4.215   4.091  0.1725 -0.2862 -0.3037
10672WAT     H143408   5.223   4.224   4.010  2.1580 -1.2057  0.2548
10672WAT     H243409   5.192   4.128   4.103 -1.6840 -0.2342  0.1191
10672WAT    EPW43410   5.198   4.203   4.081  0.1916 -0.4143 -0.1588
10673WAT      O43411   7.035   6.784   6.749 -0.0322 -0.3034  0.2525
10673WAT     H143412   7.061   6.863   6.775  1.1214 -0.4389 -0.4152
10673WAT     H243413   6.967   6.767   6.801  1.1476  0.1194  2.0442
10673WAT    EPW43414   7.029   6.793   6.761  0.3125 -0.2610  0.4185
10674WAT      O43415   4.878   5.040   3.221  0.3303 -0.0376  0.0086
10674WAT     H143416   4.834   4.965   3.216 -0.3537  0.3184  0.4948
10674WAT     H243417   4.907   5.053   3.140  0.4635 -0.8224 -0.0762
10674WAT    EPW43418   4.876   5.031   3.208  0.2490 -0.1009  0.0679
10675WAT      O43419   2.969   0.217   2.548  0.3802 -0.6242  0.1003
10675WAT     H143420   2.977   0.288   2.598 -0.8574 -0.8231  0.6146
10675WAT     H243421   2.892   0.183   2.572  0.3610 -1.4445 -1.0290
10675WAT    EPW43422   2.958   0.222   2.559  0.1945 -0.7748  0.0094
10676WAT      O43423   2.814   4.617   6.895  0.2852  0.0390 -0.5473
10676WAT     H143424   2.792   4.533   6.897 -0.0454  0.1219 -0.5119
10676WAT     H243425   2.832   4.636   6.979 -0.4454  0.2033 -0.4200
10676WAT    EPW43426   2.813   4.608   6.908  0.1285  0.0755 -0.5233
10677WAT      O43427   5.713   0.312   3.252 -0.3022  0.1426 -0.0438
10677WAT     H143428   5.792   0.274   3.252  0.0157  0.5729  2.8929
10677WAT     H243429   5.731   0.396   3.238 -0.4884  0.0031 -1.2654
10677WAT    EPW43430   5.727   0.319   3.250 -0.2828  0.1855  0.2095
10678WAT      O43431   3.137   0.014   0.422 -0.2928 -0.5898  0.0853
10678WAT     H143432   3.054  -0.013   0.416 -0.6618  0.2894  1.0431
10678WAT     H243433   3.171  -0.010   0.345 -0.8482 -2.8302  0.4465
10678WAT    EPW43434   3.130   0.006   0.410 -0.4293 -0.7909  0.2801
10679WAT      O43435   4.593   4.656   0.576 -0.3288 -0.2238 -0.3402
10679WAT     H143436   4.635   4.625   0.645 -0.3998  0.4882  0.0287
10679WAT     H243437   4.653   4.656   0.513 -0.3532 -1.1832 -0.3681
10679WAT    EPW43438   4.608   4.652   0.577 -0.3429 -0.2603 -0.2898
10680WAT      O43439   1.478   1.374   7.293  0.6198  0.3891  0.2748
10680WAT     H143440   1.454   1.308   7.345  1.2255 -0.1072 -0.0507
10680WAT     H243441   1.404   1.418   7.280  0.0331 -0.6842 -0.1434
10680WAT    EPW43442   1.464   1.370   7.299  0.6226  0.1572  0.1649
10681WAT      O43443   1.169   5.668   2.053 -0.1700 -0.0101 -0.2817
10681WAT     H143444   1.236   5.612   2.059 -0.0626  0.1317 -0.1517
10681WAT     H243445   1.127   5.642   1.981  0.1675  0.0592 -0.5051
10681WAT    EPW43446   1.173   5.656   2.043 -0.1043  0.0211 -0.2955
10682WAT      O43447   2.971   0.699   2.056  0.2735 -0.1332 -0.3076
10682WAT     H143448   2.948   0.724   2.137  0.5534  0.4257 -0.3959
10682WAT     H243449   2.896   0.672   2.021  0.4692 -2.4908  0.8492
10682WAT    EPW43450   2.956   0.699   2.063  0.3437 -0.3989 -0.1498
10683WAT      O43451   6.829   0.433   1.235 -0.4763  0.7313 -0.5368
10683WAT     H143452   6.787   0.422   1.159 -3.2618  1.1652  0.8141
10683WAT     H243453   6.849   0.518   1.235 -1.1371  0.8916 -0.4885
10683WAT    EPW43454   6.826   0.444   1.224 -0.9854  0.8190 -0.3301
10684WAT      O43455   6.910   5.640   0.467 -0.1312  0.0671 -0.1708
10684WAT     H143456   6.983   5.671   0.431 -0.4395  1.7549  0.5404
10684WAT     H243457   6.846   5.676   0.420 -0.6423 -3.1136 -2.2279
10684WAT    EPW43458   6.911   5.650   0.455 -0.2522 -0.1534 -0.3696
10685WAT      O43459   0.119   2.377   2.336 -0.6849  0.3582  0.1871
10685WAT     H143460   0.057   2.316   2.346  0.4754 -0.8555  0.3663
10685WAT     H243461   0.090   2.425   2.269 -2.4513  0.6881  1.1383
10685WAT    EPW43462   0.106   2.375   2.327 -0.7744  0.2277  0.3541
10686WAT      O43463   4.388   2.660   5.263 -0.0641 -0.6250 -0.1667
10686WAT     H143464   4.417   2.691   5.339  1.4750 -0.8716 -0.6178
10686WAT     H243465   4.322   2.607   5.287 -0.6908  0.5468  0.8375
10686WAT    EPW43466   4.382   2.656   5.278  0.0707 -0.4883 -0.0850
10687WAT      O43467   3.744   2.182   7.176 -0.1565  0.4340  0.0146
10687WAT     H143468   3.752   2.227   7.251  0.8329  1.2958 -0.5756
10687WAT     H243469   3.779   2.104   7.196  0.3708  0.7530  0.3675
10687WAT    EPW43470   3.751   2.177   7.190  0.0676  0.6084 -0.0205
10688WAT      O43471   5.423   0.059   5.727  0.0105 -0.0190  0.1164
10688WAT     H143472   5.472   0.073   5.798  0.9786  1.4130 -0.7788
10688WAT     H243473   5.389  -0.020   5.741  1.0038 -0.2160  1.6919
10688WAT    EPW43474   5.425   0.049   5.740  0.3002  0.1634  0.2169
10689WAT      O43475   2.940   4.343   3.433  0.4932  0.5084 -0.5841
10689WAT     H143476   3.020   4.343   3.399  0.1491 -1.0256 -1.5041
10689WAT     H243477   2.888   4.348   3.363 -0.2203 -1.9539 -0.3473
10689WAT    EPW43478   2.944   4.344   3.418  0.3370 -0.0819 -0.6850
10690WAT      O43479   5.549   4.283   4.588  0.2610  0.0420  0.7795
10690WAT     H143480   5.566   4.199   4.573  1.6499  0.2850  0.8964
10690WAT     H243481   5.470   4.281   4.624  1.2823 -1.4640  3.1759
10690WAT    EPW43482   5.540   4.270   4.591  0.6170 -0.1445  1.1508
10691WAT      O43483   0.517   0.057   0.422  0.1990 -0.2575  0.1924
10691WAT     H143484   0.456   0.106   0.382  0.7465 -0.0787 -0.4380
10691WAT     H243485   0.576   0.115   0.448  0.4332 -0.4952  0.1964
10691WAT    EPW43486   0.516   0.073   0.420  0.3145 -0.2662  0.0999
10692WAT      O43487   2.076   4.575   4.680  0.6339 -0.0859  0.1557
10692WAT     H143488   2.008   4.586   4.626 -1.0291 -0.1677  2.1062
10692WAT     H243489   2.121   4.649   4.672 -1.4037  1.3348  1.0405
10692WAT    EPW43490   2.072   4.587   4.671  0.0872  0.1119  0.5745
10693WAT      O43491   0.479   1.041   2.304 -0.3011 -0.1499  0.4865
10693WAT     H143492   0.526   1.079   2.241 -1.0903 -0.0215 -0.0280
10693WAT     H243493   0.540   1.020   2.364  0.4383 -0.1581 -0.2457
10693WAT    EPW43494   0.495   1.043   2.303 -0.3084 -0.1321  0.3023
10694WAT      O43495   3.207   1.890   0.556 -0.8806  0.0134 -0.1649
10694WAT     H143496   3.240   1.939   0.620  0.0654 -0.7782 -0.0293
10694WAT     H243497   3.177   1.819   0.596  0.0286 -0.6436 -0.6100
10694WAT    EPW43498   3.208   1.887   0.571 -0.6066 -0.2006 -0.2106
10695WAT      O43499   0.565   5.070   0.319 -0.4701 -0.6855 -0.3795
10695WAT     H143500   0.537   4.988   0.321 -2.4090 -0.0586  0.9375
10695WAT     H243501   0.642   5.067   0.360 -0.2889 -1.9070 -0.7857
10695WAT    EPW43502   0.572   5.057   0.325 -0.7297 -0.7734 -0.2450
10696WAT      O43503   2.887   2.345   4.437 -0.5506 -0.2533 -0.0380
10696WAT     H143504   2.952   2.372   4.386  0.0647 -1.6799 -0.0641
10696WAT     H243505   2.928   2.318   4.510 -1.4567  2.4812  1.6328
10696WAT    EPW43506   2.902   2.345   4.440 -0.5936 -0.0601  0.2050
10697WAT      O43507   2.736   1.262   3.606 -0.1368 -0.7078 -0.0553
10697WAT     H143508   2.819   1.271   3.632 -0.2441 -0.1361  0.1118
10697WAT     H243509   2.718   1.179   3.624  0.2311 -0.6920  0.4179
10697WAT    EPW43510   2.745   1.251   3.612 -0.0983 -0.6211  0.0393
10698WAT      O43511   0.334   4.343   5.822 -0.1054 -0.2191 -0.5891
10698WAT     H143512   0.326   4.430   5.820 -0.9834 -0.2980 -0.9839
10698WAT     H243513   0.267   4.315   5.774 -0.2989 -1.1456  0.1817
10698WAT    EPW43514   0.323   4.352   5.815 -0.2637 -0.3676 -0.5336
10699WAT      O43515   0.149   2.313   5.738  0.2891 -0.6242  0.0094
10699WAT     H143516   0.134   2.354   5.814  2.2685  0.4966 -0.1399
10699WAT     H243517   0.196   2.243   5.761  2.5452  0.7203 -0.2850
10699WAT    EPW43518   0.153   2.308   5.753  0.9148 -0.2600 -0.0561
10700WAT      O43519   5.533   1.270   5.897 -0.2989 -0.5441  0.3183
10700WAT     H143520   5.509   1.252   5.815 -0.3536  1.8543 -0.2670
10700WAT     H243521   5.588   1.206   5.917  1.7823  0.1665 -2.5563
10700WAT    EPW43522   5.537   1.257   5.888  0.0005 -0.0849 -0.1928
10701WAT      O43523   6.161   1.820   5.747 -0.6999 -0.3620  0.3798
10701WAT     H143524   6.203   1.891   5.718  1.1238 -0.9865  1.3128
10701WAT     H243525   6.209   1.754   5.717 -0.4104 -1.0870  2.2899
10701WAT    EPW43526   6.175   1.821   5.739 -0.3878 -0.5614  0.7998
10702WAT      O43527   3.043   7.042   4.293  0.2813  0.1180  0.7023
10702WAT     H143528   3.073   6.962   4.309  1.6002  0.5312  0.4013
10702WAT     H243529   3.069   7.088   4.362  0.6581  0.5614  0.2708
10702WAT    EPW43530   3.051   7.037   4.305  0.5318  0.2445  0.5941
10703WAT      O43531   1.279   3.472   5.325 -0.1588 -0.4125  0.2304
10703WAT     H143532   1.356   3.443   5.297  1.3618  1.9792  1.6044
10703WAT     H243533   1.234   3.486   5.251  1.0958 -0.8968 -0.6402
10703WAT    EPW43534   1.283   3.470   5.310  0.2512 -0.1307  0.3048
10704WAT      O43535   1.208   3.934   4.217  0.0913  0.3179 -0.1278
10704WAT     H143536   1.157   3.972   4.277  1.8943  2.7377  0.0382
10704WAT     H243537   1.153   3.883   4.173 -1.4908 -0.9265  2.9883
10704WAT    EPW43538   1.192   3.932   4.219  0.1240  0.4915  0.3570
10705WAT      O43539   6.039   3.419   6.932  0.6223 -0.5133  0.5134
10705WAT     H143540   5.976   3.477   6.917  0.3073 -0.8624  0.4603
10705WAT     H243541   6.112   3.467   6.933  0.3067 -0.0263  1.1086
10705WAT    EPW43542   6.040   3.435   6.930  0.5291 -0.4929  0.5935
10706WAT      O43543   7.042   2.556   4.108  0.7589  0.0651  0.1363
10706WAT     H143544   7.075   2.484   4.070 -0.5957  0.8695 -2.9104
10706WAT     H243545   6.983   2.524   4.164  1.3400 -1.2372  0.0461
10706WAT    EPW43546   7.038   2.541   4.110  0.6446 -0.0085 -0.3271
10707WAT      O43547   0.051   4.812   3.415 -0.4791 -0.0971  0.0398
10707WAT     H143548   0.074   4.846   3.492  0.9100 -0.0396 -0.3907
10707WAT     H243549  -0.034   4.794   3.426 -0.4751  0.5655  1.3395
10707WAT    EPW43550   0.042   4.814   3.428 -0.2733  0.0093  0.1682
10708WAT      O43551   0.729   3.230   2.800  0.3402 -0.2185 -0.2812
10708WAT     H143552   0.791   3.249   2.742 -0.8545  1.1525 -1.1767
10708WAT     H243553   0.733   3.297   2.857 -0.2430 -0.1576 -0.3048
10708WAT    EPW43554   0.739   3.243   2.800  0.0776 -0.0070 -0.4170
10709WAT      O43555   2.259   4.330   6.695  0.2490 -0.2625  0.3461
10709WAT     H143556   2.237   4.266   6.751  0.8533  1.6125  2.9130
10709WAT     H243557   2.300   4.287   6.630 -2.6974 -2.8334 -0.0574
10709WAT    EPW43558   2.262   4.314   6.694 -0.0970 -0.3653  0.6657
10710WAT      O43559   0.187   5.268   2.531 -0.0165 -0.0414  1.1047
10710WAT     H143560   0.169   5.335   2.478  0.1637  0.1007  1.2218
10710WAT     H243561   0.110   5.250   2.567  0.3623  1.8186  3.0689
10710WAT    EPW43562   0.173   5.275   2.528  0.0661  0.2544  1.4121
10711WAT      O43563   4.057   1.671   5.146  0.2536  0.6539 -0.4757
10711WAT     H143564   4.008   1.706   5.083  0.3358 -0.6381 -1.2770
10711WAT     H243565   4.116   1.624   5.103 -2.4256 -4.1740  0.4089
10711WAT    EPW43566   4.059   1.669   5.131 -0.1300 -0.2502 -0.4634
10712WAT      O43567   5.564   0.665   1.478  0.0752 -0.1904 -0.5298
10712WAT     H143568   5.601   0.671   1.557 -0.8262  0.6032 -0.1557
10712WAT     H243569   5.536   0.583   1.475  1.3641 -0.6538 -0.6096
10712WAT    EPW43570   5.565   0.654   1.490  0.1324 -0.1416 -0.4863
10713WAT      O43571   0.648   2.016   1.230  0.3765 -0.1897  0.5659
10713WAT     H143572   0.649   2.043   1.147  1.0415 -0.7212  0.3876
10713WAT     H243573   0.664   2.089   1.276 -1.0486  0.3090  0.3079
10713WAT    EPW43574   0.651   2.031   1.225  0.2642 -0.1945  0.5015
10714WAT      O43575   0.901   3.034   4.472  0.0635  0.0894  0.1847
10714WAT     H143576   0.860   3.011   4.399  0.8096  1.1023 -0.5817
10714WAT     H243577   0.957   2.968   4.486 -2.7123 -2.1016  2.1074
10714WAT    EPW43578   0.903   3.021   4.463 -0.2363 -0.0846  0.3555
10715WAT      O43579   0.776   5.710   4.595  0.0864  1.0277  0.1335
10715WAT     H143580   0.802   5.655   4.658 -1.5133 -1.4936 -1.2615
10715WAT     H243581   0.692   5.723   4.613 -0.7127 -0.6793 -2.0161
10715WAT    EPW43582   0.767   5.704   4.607 -0.2680  0.4031 -0.3901
10716WAT      O43583   4.386   4.474   4.613 -0.1270  0.2466  0.2936
10716WAT     H143584   4.339   4.403   4.631 -0.9644  0.8842  0.7474
10716WAT     H243585   4.326   4.531   4.585  0.8565 -0.0597 -2.8075
10716WAT    EPW43586   4.370   4.472   4.612 -0.1054  0.2956 -0.0974
10717WAT      O43587   0.242   7.155   7.159 -0.3963 -0.2253 -0.2171
10717WAT     H143588   0.221   7.240   7.161 -0.7122 -0.3090  0.2745
10717WAT     H243589   0.175   7.117   7.201  1.0310 -0.4477  2.0207
10717WAT    EPW43590   0.229   7.162   7.166 -0.2321 -0.2705  0.1861
10718WAT      O43591   2.399   5.814   7.018  0.6556 -0.3306  0.1074
10718WAT     H143592   2.385   5.731   6.995 -1.7918 -0.0922  0.4546
10718WAT     H243593   2.439   5.848   6.949  1.2328 -1.6716 -0.2534
10718WAT    EPW43594   2.403   5.807   7.004  0.3793 -0.4935  0.1054
10719WAT      O43595   3.560   5.254   4.087  0.0211  0.1894  0.1080
10719WAT     H143596   3.623   5.196   4.106 -1.5357 -1.0110  2.0248
10719WAT     H243597   3.586   5.327   4.126  1.4128  0.5143 -1.3051
10719WAT    EPW43598   3.573   5.256   4.095 -0.0033  0.0601  0.1824
10720WAT      O43599   1.991   3.556   4.162  0.3822 -0.5770  0.6137
10720WAT     H143600   2.073   3.555   4.132 -0.1634 -0.9078 -0.9559
10720WAT     H243601   1.948   3.505   4.106 -0.6479 -1.5580  2.2229
10720WAT    EPW43602   1.996   3.548   4.149  0.1495 -0.7708  0.6196
10721WAT      O43603   4.064   5.026   3.735  0.1108 -0.2992 -0.2751
10721WAT     H143604   4.099   4.971   3.792 -0.9579 -0.2298  0.4684
10721WAT     H243605   3.989   4.988   3.712 -0.8745  1.0190  0.5966
10721WAT    EPW43606   4.058   5.013   3.740 -0.1926 -0.0942 -0.0365
10722WAT      O43607   1.868   2.382   4.723 -0.1903 -0.2166  0.8288
10722WAT     H143608   1.953   2.387   4.705 -0.3646  1.6058  0.3923
10722WAT     H243609   1.829   2.408   4.650 -1.1134 -0.1451  1.3255
10722WAT    EPW43610   1.875   2.386   4.709 -0.3524  0.0632  0.8377
10723WAT      O43611   1.803   2.357   5.080  0.2178  0.3670  0.1984
10723WAT     H143612   1.864   2.383   5.137  1.6060 -0.8781 -0.6204
10723WAT     H243613   1.794   2.426   5.027  1.9775  0.1453 -0.4716
10723WAT    EPW43614   1.811   2.371   5.081  0.6828  0.1503 -0.0215
10724WAT      O43615   1.723   0.098   4.428 -0.1857 -0.6902  0.8212
10724WAT     H143616   1.677   0.034   4.465 -0.8081 -0.0991  1.0911
10724WAT     H243617   1.769   0.131   4.494  0.2612 -0.9627  0.6493
10724WAT    EPW43618   1.723   0.094   4.443 -0.2116 -0.6431  0.8357
10725WAT      O43619   2.869   5.101   5.200 -0.3524  0.3202 -0.1296
10725WAT     H143620   2.904   5.132   5.273  3.0431  0.4599 -1.6570
10725WAT     H243621   2.902   5.021   5.194  0.2577  0.6786 -1.9921
10725WAT    EPW43622   2.879   5.094   5.210  0.2393  0.3938 -0.6303
10726WAT      O43623   5.273   0.732   6.708  0.2616  0.0305 -0.3098
10726WAT     H143624   5.273   0.682   6.637  0.3030 -1.4603  0.6980
10726WAT     H243625   5.236   0.807   6.681 -1.4731 -1.1640 -1.4448
10726WAT    EPW43626   5.268   0.736   6.694  0.0115 -0.3662 -0.3286
10727WAT      O43627   0.410   3.436   6.276 -0.3608 -0.2176 -0.1304
10727WAT     H143628   0.472   3.454   6.334  0.4953  1.3733 -1.4482
10727WAT     H243629   0.359   3.507   6.277 -0.4580 -0.2516 -1.1294
10727WAT    EPW43630   0.411   3.449   6.285 -0.2487  0.0124 -0.4726
10728WAT      O43631   5.721   2.433   4.584 -0.7996  0.2448 -0.2980
10728WAT     H143632   5.732   2.520   4.579  0.7381  0.0614 -0.7425
10728WAT     H243633   5.740   2.406   4.503 -0.5518 -0.5702  0.0252
10728WAT    EPW43634   5.726   2.442   4.571 -0.5359  0.0973 -0.3159
10729WAT      O43635   2.074   6.262   5.544  0.2235 -0.2531 -0.2872
10729WAT     H143636   2.003   6.294   5.583  0.4178 -0.3476  0.1469
10729WAT     H243637   2.061   6.176   5.545  0.1842 -0.2533 -0.5304
10729WAT    EPW43638   2.061   6.254   5.550  0.2464 -0.2671 -0.2590
10730WAT      O43639   4.671   6.767   4.493 -0.6979 -0.1780  0.2334
10730WAT     H143640   4.672   6.852   4.475 -0.4855 -0.3989 -0.8636
10730WAT     H243641   4.722   6.732   4.431  1.6120 -0.8058  2.3428
10730WAT    EPW43642   4.678   6.775   4.481 -0.3253 -0.3034  0.3830
10731WAT      O43643   6.201   1.184   6.689  0.6682 -0.7225 -0.3347
10731WAT     H143644   6.263   1.244   6.677 -0.1326  0.2077  0.0883
10731WAT     H243645   6.127   1.230   6.683  0.0577 -1.1965  2.3708
10731WAT    EPW43646   6.199   1.200   6.686  0.4597 -0.6551  0.1274
10732WAT      O43647   4.347   3.933   4.827 -0.0638  0.4130 -0.6677
10732WAT     H143648   4.321   3.882   4.761  0.4640  0.8236 -1.2007
10732WAT     H243649   4.379   4.004   4.788 -1.3070  1.4466  0.0657
10732WAT    EPW43650   4.348   3.936   4.812 -0.1695  0.6264 -0.6381
10733WAT      O43651   6.015   5.683   0.824  0.7958 -0.2127 -0.3823
10733WAT     H143652   6.089   5.719   0.798  1.4808 -1.6914 -0.5834
10733WAT     H243653   5.996   5.725   0.898  1.8046  0.1948 -0.3483
10733WAT    EPW43654   6.023   5.695   0.831  1.0460 -0.3709 -0.4070
10734WAT      O43655   5.611   6.541   4.806  0.9036 -0.0164 -0.3779
10734WAT     H143656   5.604   6.622   4.838  2.5695 -0.3769  1.0318
10734WAT     H243657   5.684   6.545   4.757  0.5412 -0.4848 -0.9754
10734WAT    EPW43658   5.621   6.554   4.803  1.0961 -0.1389 -0.2579
10735WAT      O43659   2.661   5.088   2.957 -0.6131 -0.1748  0.1550
10735WAT     H143660   2.620   5.021   2.994 -0.3209  0.3062  1.3864
10735WAT     H243661   2.745   5.071   2.971 -0.4969  0.0249 -0.2856
10735WAT    EPW43662   2.667   5.076   2.964 -0.5527 -0.0742  0.2718
10736WAT      O43663   5.546   1.787   3.141  0.3611 -0.1309 -0.0590
10736WAT     H143664   5.517   1.840   3.078  0.2174 -0.9633 -0.7087
10736WAT     H243665   5.498   1.715   3.131  0.5176 -0.3697  0.8431
10736WAT    EPW43666   5.534   1.785   3.130  0.3630 -0.2891 -0.0217
10737WAT      O43667   0.529   5.299   0.801  0.3508 -0.3453  0.4580
10737WAT     H143668   0.615   5.315   0.795  0.0994  0.7324 -0.5437
10737WAT     H243669   0.497   5.327   0.725 -1.1615  1.2118  1.5736
10737WAT    EPW43670   0.537   5.306   0.789  0.0903  0.0439  0.4748
10738WAT      O43671   0.658   0.116   3.746  0.3962  0.0087  0.2657
10738WAT     H143672   0.635   0.096   3.828  0.2682  0.1434  0.2643
10738WAT     H243673   0.596   0.173   3.722  1.0592  0.8402  0.4701
10738WAT    EPW43674   0.645   0.122   3.755  0.4753  0.1514  0.2957
10739WAT      O43675   6.148   5.158   2.374  0.0715  0.1076 -0.2249
10739WAT     H143676   6.105   5.175   2.448 -0.1294  0.5181 -0.4327
10739WAT     H243677   6.167   5.237   2.343  0.1614 -0.0637 -0.6084
10739WAT    EPW43678   6.145   5.172   2.380  0.0551  0.1429 -0.3122
10740WAT      O43679   1.211   6.207   5.982  0.1971 -1.0613  0.3089
10740WAT     H143680   1.169   6.264   6.033 -0.3370 -2.1501  1.1254
10740WAT     H243681   1.150   6.183   5.924  0.3836 -0.8950  0.0423
10740WAT    EPW43682   1.196   6.212   5.981  0.1457 -1.1976  0.3901
10741WAT      O43683   2.765   4.837   6.110  0.2361  0.3771 -0.3526
10741WAT     H143684   2.802   4.877   6.179 -0.1236 -0.5312  0.3913
10741WAT     H243685   2.725   4.768   6.146 -0.8442  0.4632 -1.3402
10741WAT    EPW43686   2.764   4.833   6.126  0.0234  0.2556 -0.3886
10742WAT      O43687   3.316   0.686   0.825  0.0794  0.8757  0.1085
10742WAT     H143688   3.264   0.643   0.770  2.7508 -1.2916 -0.9783
10742WAT     H243689   3.275   0.681   0.901 -2.2353  1.1493 -1.0394
10742WAT    EPW43690   3.302   0.679   0.828  0.1321  0.5959 -0.2216
10743WAT      O43691   2.181   6.513   1.493 -0.0430 -0.1628  0.3406
10743WAT     H143692   2.121   6.570   1.466  1.5349  0.3048 -2.7342
10743WAT     H243693   2.157   6.493   1.574 -3.3519  1.2060 -0.1689
10743WAT    EPW43694   2.169   6.518   1.501 -0.2987  0.1085 -0.1889
10744WAT      O43695   6.225   2.459   4.437 -0.1288  0.0176  0.2540
10744WAT     H143696   6.231   2.544   4.454 -0.3598  0.5464 -1.9719
10744WAT     H243697   6.293   2.424   4.480  0.0772  1.3351  1.0402
10744WAT    EPW43698   6.236   2.466   4.446 -0.1325  0.2903  0.0413
10745WAT      O43699   6.851   2.823   4.747 -0.1046 -0.1998  0.3153
10745WAT     H143700   6.799   2.798   4.681 -0.8337 -1.0501  1.1673
10745WAT     H243701   6.930   2.800   4.721 -0.5493 -1.8600  0.3071
10745WAT    EPW43702   6.855   2.816   4.733 -0.2780 -0.5706  0.4400
10746WAT      O43703   1.316   0.744   1.139  0.1464 -0.1245  0.0587
10746WAT     H143704   1.292   0.743   1.055 -1.1421  0.4604  0.3822
10746WAT     H243705   1.376   0.807   1.142  0.7289 -0.6390 -0.5438
10746WAT    EPW43706   1.321   0.753   1.127  0.0421 -0.1141  0.0175
10747WAT      O43707   3.525   5.530   2.017 -0.3912  0.2207 -0.0350
10747WAT     H143708   3.549   5.533   2.100 -2.5337 -2.0845  0.7581
10747WAT     H243709   3.493   5.610   2.002 -0.1132  0.6116  1.3869
10747WAT    EPW43710   3.524   5.543   2.027 -0.6666 -0.0621  0.2922
10748WAT      O43711   6.114   3.176   6.107 -0.6445 -0.6871  0.2279
10748WAT     H143712   6.087   3.253   6.137  0.7908 -1.1642  3.0861
10748WAT     H243713   6.192   3.194   6.071 -1.0880 -0.5843 -0.7264
10748WAT    EPW43714   6.122   3.190   6.106 -0.4980 -0.7424  0.5091
10749WAT      O43715   5.229   4.742   5.073  0.4764 -0.1797  0.1365
10749WAT     H143716   5.201   4.815   5.035  1.0589 -0.6437 -1.2408
10749WAT     H243717   5.155   4.704   5.101  0.0201  0.1742 -0.5530
10749WAT    EPW43718   5.214   4.747   5.071  0.4951 -0.1960 -0.1688
10750WAT      O43719   6.586   5.936   3.973 -0.7764 -0.3515 -0.5640
10750WAT     H143720   6.590   5.850   3.958 -0.7079 -0.6231  0.8500
10750WAT     H243721   6.517   5.945   4.026 -0.7735  0.4711 -0.6790
10750WAT    EPW43722   6.576   5.925   3.979 -0.7658 -0.2701 -0.3721
10751WAT      O43723   2.164   4.290   2.835  0.2759  0.4532 -0.3464
10751WAT     H143724   2.248   4.281   2.856  0.3748 -0.8640 -1.1873
10751WAT     H243725   2.140   4.362   2.878  1.3526 -0.1334  1.3549
10751WAT    EPW43726   2.173   4.299   2.844  0.4496  0.1720 -0.2193
10752WAT      O43727   3.311   1.834   2.000 -0.0856  0.0961  0.1624
10752WAT     H143728   3.255   1.774   2.031 -1.4116  1.1546 -0.0707
10752WAT     H243729   3.377   1.830   2.057 -0.7879 -0.5888  0.9841
10752WAT    EPW43730   3.312   1.824   2.013 -0.3852  0.1513  0.2493
10753WAT      O43731   3.345   3.292   1.384 -0.9422  0.1274 -0.1182
10753WAT     H143732   3.329   3.211   1.354 -0.0581  0.2167 -0.8585
10753WAT     H243733   3.415   3.282   1.434 -1.3630  0.2958  0.5213
10753WAT    EPW43734   3.353   3.278   1.387 -0.8738  0.1655 -0.1331
10754WAT      O43735   1.335   1.379   4.061 -0.1725  0.2836 -0.4428
10754WAT     H143736   1.338   1.325   3.992 -0.8696  2.2003 -2.0986
10754WAT     H243737   1.263   1.426   4.046  1.2579  2.7792 -0.0380
10754WAT    EPW43738   1.325   1.378   4.049 -0.0642  0.9354 -0.6276
10755WAT      O43739   5.098   1.335   5.781  0.1225 -0.7001 -0.0371
10755WAT     H143740   5.060   1.258   5.763 -1.9754 -0.3328  2.3291
10755WAT     H243741   5.148   1.317   5.850  0.1957 -0.1106  0.0615
10755WAT    EPW43742   5.100   1.321   5.788 -0.1766 -0.5587  0.3270
10756WAT      O43743   7.083   0.064   1.292  0.0642  0.1440 -0.5044
10756WAT     H143744   7.144   0.031   1.239 -0.1106 -2.2416  0.6351
10756WAT     H243745   7.128   0.114   1.347  0.5983  0.5120 -1.2600
10756WAT    EPW43746   7.098   0.067   1.292  0.1172 -0.1540 -0.4477
10757WAT      O43747   1.895   2.098   3.086  0.0945 -0.1076 -0.2383
10757WAT     H143748   1.957   2.145   3.048  1.0990  0.5723  2.0447
10757WAT     H243749   1.857   2.154   3.140 -0.3382 -1.3027  0.7481
10757WAT    EPW43750   1.898   2.113   3.089  0.1790 -0.1837  0.2446
10758WAT      O43751   2.076   1.034   0.361 -0.1422  0.5640  0.2837
10758WAT     H143752   2.024   0.992   0.417 -0.4141  0.8229  0.2330
10758WAT     H243753   2.156   1.016   0.389 -0.2771  1.8685  1.6520
10758WAT    EPW43754   2.080   1.025   0.374 -0.2023  0.7950  0.4783
10759WAT      O43755   6.697   3.512   1.925 -0.4124 -0.1555  0.1279
10759WAT     H143756   6.747   3.445   1.949 -0.0252  0.4406  1.0377
10759WAT     H243757   6.632   3.510   1.984  0.0627  0.7709  0.7077
10759WAT    EPW43758   6.695   3.501   1.938 -0.2850  0.0694  0.3479
10760WAT      O43759   5.908   3.223   2.145  0.7002 -0.1278  0.2429
10760WAT     H143760   5.900   3.275   2.076  0.8452  0.7838  0.8969
10760WAT     H243761   5.826   3.209   2.170  0.6904  0.9001  0.8581
10760WAT    EPW43762   5.895   3.229   2.139  0.7201  0.1587  0.4304
10761WAT      O43763   7.269   3.823   4.009  0.2446 -0.3956  0.0876
10761WAT     H143764   7.271   3.746   4.050  0.6014 -1.0563 -1.1379
10761WAT     H243765   7.290   3.804   3.927  1.5576  1.1793  0.0063
10761WAT    EPW43766   7.272   3.809   4.003  0.4913 -0.2606 -0.1055
10762WAT      O43767   2.291   6.585   6.725  0.2745  0.4745 -0.1854
10762WAT     H143768   2.240   6.625   6.666  1.6154  1.7304 -0.5583
10762WAT     H243769   2.269   6.621   6.801  2.3935  3.1253 -0.6645
10762WAT    EPW43770   2.280   6.596   6.727  0.7856  1.0516 -0.3112
10763WAT      O43771   5.283   1.620   2.823  0.3516 -0.4528  0.4150
10763WAT     H143772   5.240   1.563   2.773  1.6457 -2.1792  1.1568
10763WAT     H243773   5.350   1.573   2.854  1.3200  1.4163  1.3048
10763WAT    EPW43774   5.287   1.605   2.820  0.6858 -0.4317  0.6560
10764WAT      O43775   0.343   4.931   4.491  0.2145  0.7298 -0.4036
10764WAT     H143776   0.402   4.940   4.554 -0.7135  1.7272  0.3606
10764WAT     H243777   0.267   4.931   4.534 -0.4888  2.2064 -1.5350
10764WAT    EPW43778   0.340   4.932   4.506 -0.0265  1.0953 -0.4578
10765WAT      O43779   0.725   3.577   4.881  0.1400 -0.0627  0.2602
10765WAT     H143780   0.645   3.590   4.914  0.3572 -0.8335  1.1061
10765WAT     H243781   0.709   3.542   4.802 -0.3560  0.0498  0.3059
10765WAT    EPW43782   0.711   3.574   4.874  0.0988 -0.1600  0.3919
10766WAT      O43783   1.947   4.995   3.327  0.0912 -0.1759 -0.3035
10766WAT     H143784   1.875   4.946   3.331  0.6327 -1.0835 -1.2730
10766WAT     H243785   2.003   4.947   3.280  0.9725  0.9662 -0.4759
10766WAT    EPW43786   1.945   4.981   3.321  0.3014 -0.1413 -0.4722
10767WAT      O43787   5.996   6.759   0.005  0.3034 -0.4930  0.3275
10767WAT     H143788   5.911   6.737   0.008  0.2825 -0.7534 -1.2808
10767WAT     H243789   5.995   6.835  -0.039  0.6760  1.1621  2.9680
10767WAT    EPW43790   5.983   6.767  -0.001  0.3554 -0.2870  0.4800
10768WAT      O43791   6.625   7.079   2.711 -0.2404 -0.5301  0.4923
10768WAT     H143792   6.690   7.120   2.752 -1.1073 -0.7080  2.1380
10768WAT     H243793   6.553   7.115   2.746 -1.0321 -0.6338 -0.9642
10768WAT    EPW43794   6.624   7.090   2.723 -0.4854 -0.5717  0.5203
10769WAT      O43795   2.788   4.353   2.306 -0.4451  0.4432 -0.1605
10769WAT     H143796   2.746   4.330   2.379  2.0989 -0.4422  1.1512
10769WAT     H243797   2.785   4.281   2.257  1.1603 -0.3313  0.7960
10769WAT    EPW43798   2.781   4.339   2.310  0.1678  0.1980  0.1746
10770WAT      O43799   3.470   5.725   0.973 -0.4500 -0.3384  0.0291
10770WAT     H143800   3.490   5.641   0.958 -1.2145 -0.4724 -0.3153
10770WAT     H243801   3.486   5.735   1.058 -0.2481 -0.8038  0.0515
10770WAT    EPW43802   3.475   5.714   0.983 -0.5331 -0.4269 -0.0184
10771WAT      O43803   3.262   4.322   2.161  0.4077 -0.5267  0.1266
10771WAT     H143804   3.213   4.258   2.192  2.6264 -1.4532  2.0342
10771WAT     H243805   3.313   4.283   2.102 -0.1544  0.1355 -0.8345
10771WAT    EPW43806   3.263   4.307   2.157  0.6524 -0.5657  0.2664
10772WAT      O43807   0.906   3.621   5.102  0.1878  0.1278 -0.0740
10772WAT     H143808   0.850   3.583   5.047 -1.6852  0.6184  1.3771
10772WAT     H243809   0.869   3.608   5.180  0.1846  3.5701  0.6501
10772WAT    EPW43810   0.892   3.613   5.106 -0.0894  0.7088  0.2473
10773WAT      O43811   2.241   2.120   7.257 -0.0058 -0.1713  0.0606
10773WAT     H143812   2.299   2.151   7.199 -1.1511 -0.1417 -1.1275
10773WAT     H243813   2.284   2.054   7.295  1.2380  0.6263  0.1215
10773WAT    EPW43814   2.256   2.115   7.254  0.0087 -0.0491 -0.1059
10774WAT      O43815   4.342   3.163   6.410 -0.0259 -0.2087 -0.1791
10774WAT     H143816   4.284   3.166   6.345  0.0688 -0.9251 -0.3120
10774WAT     H243817   4.419   3.166   6.370  0.0369  0.4242 -0.0230
10774WAT    EPW43818   4.345   3.164   6.395 -0.0027 -0.2211 -0.1757
10775WAT      O43819   0.847   4.437   2.754 -0.2904 -0.6144  0.1978
10775WAT     H143820   0.845   4.475   2.832 -1.6866 -0.1003 -0.0621
10775WAT     H243821   0.932   4.422   2.741 -0.0804 -1.2956  2.0750
10775WAT    EPW43822   0.859   4.441   2.763 -0.4657 -0.6391  0.4367
10776WAT      O43823   6.882   5.864   4.489 -0.6329 -0.3243 -0.1263
10776WAT     H143824   6.947   5.920   4.479 -0.5683 -0.4416 -0.3853
10776WAT     H243825   6.918   5.799   4.535 -1.2413  0.7493  1.9609
10776WAT    EPW43826   6.897   5.862   4.494 -0.7132 -0.1831  0.1437
10777WAT      O43827   6.802   6.315   0.783 -0.5161  0.1085 -0.2770
10777WAT     H143828   6.878   6.356   0.790 -0.7600  0.5293 -0.0857
10777WAT     H243829   6.757   6.364   0.727 -1.7673  1.5769  1.8687
10777WAT    EPW43830   6.806   6.328   0.775 -0.7369  0.3875  0.0682
10778WAT      O43831   4.480   6.485   6.199 -0.7910  0.2612 -0.0571
10778WAT     H143832   4.416   6.469   6.256 -0.1048 -0.7621  0.4405
10778WAT     H243833   4.495   6.571   6.209  0.6131 -0.2196  2.7216
10778WAT    EPW43834   4.472   6.496   6.209 -0.4822  0.0390  0.4269
10779WAT      O43835   4.988   2.816   4.341 -0.2636  0.5338  0.2328
10779WAT     H143836   4.935   2.870   4.384 -0.9687  0.8034 -0.9427
10779WAT     H243837   4.999   2.750   4.396 -0.0853  1.4550  1.3555
10779WAT    EPW43838   4.982   2.814   4.355 -0.3414  0.7097  0.2250
10780WAT      O43839   0.846   1.154   2.325 -0.0314  0.0733  0.1577
10780WAT     H143840   0.865   1.080   2.367  0.2267  0.6861  1.1561
10780WAT     H243841   0.924   1.191   2.313 -0.0011 -0.4781 -1.6658
10780WAT    EPW43842   0.860   1.149   2.330  0.0112  0.0824  0.0358
10781WAT      O43843   1.896   5.624   7.319  0.4492 -0.3783 -0.1508
10781WAT     H143844   1.893   5.651   7.236  0.7886 -0.8554 -0.3294
10781WAT     H243845   1.847   5.682   7.362 -1.2912 -1.1517 -0.9639
10781WAT    EPW43846   1.888   5.636   7.313  0.2422 -0.5630 -0.2973
10782WAT      O43847   1.624   0.957   4.827  0.3821 -0.3814  0.3897
10782WAT     H143848   1.694   0.914   4.858  1.5638  0.6816 -0.6922
10782WAT     H243849   1.599   0.909   4.759  0.0151 -0.7979  0.8163
10782WAT    EPW43850   1.631   0.944   4.822  0.5025 -0.2859  0.2929
10783WAT      O43851   0.417   1.703   1.129  0.3326  0.2740 -0.5410
10783WAT     H143852   0.363   1.649   1.088 -0.0627  0.3317 -0.1067
10783WAT     H243853   0.387   1.782   1.108 -1.1096  0.3206  1.3926
10783WAT    EPW43854   0.405   1.706   1.120  0.0612  0.2894 -0.1912
10784WAT      O43855   3.824   4.510   2.533  0.4862  0.4419  0.3040
10784WAT     H143856   3.765   4.459   2.493  1.9438 -0.5069 -0.7340
10784WAT     H243857   3.846   4.568   2.472  1.4880  0.0294  0.2453
10784WAT    EPW43858   3.818   4.511   2.518  0.8495  0.2408  0.1420
10785WAT      O43859   1.992   5.937   2.897  0.1346  0.3788  0.4087
10785WAT     H143860   2.002   5.852   2.880  1.5605  0.6632 -0.4075
10785WAT     H243861   1.912   5.943   2.930  0.8226 -1.6201  2.7564
10785WAT    EPW43862   1.982   5.926   2.899  0.4469  0.1255  0.6349
10786WAT      O43863   2.987   4.428   7.089 -0.2626  0.7901  0.0119
10786WAT     H143864   2.906   4.412   7.061 -0.4946 -1.3644  1.6086
10786WAT     H243865   3.037   4.396   7.025 -0.6877  0.9955 -0.4306
10786WAT    EPW43866   2.982   4.421   7.076 -0.3596  0.5022  0.1824
10787WAT      O43867   0.212   5.604   0.681 -0.3213  0.1214  0.0528
10787WAT     H143868   0.151   5.564   0.632  0.2684  0.4573 -0.9972
10787WAT     H243869   0.193   5.579   0.762 -2.0098  0.3929 -0.2079
10787WAT    EPW43870   0.200   5.595   0.685 -0.4836  0.2111 -0.1408
10788WAT      O43871   4.810   5.616   2.187  0.0920  0.2379  0.3459
10788WAT     H143872   4.858   5.685   2.210  0.9437 -0.8855  2.1110
10788WAT     H243873   4.845   5.592   2.111  0.1252  1.3930 -0.0282
10788WAT    EPW43874   4.822   5.623   2.179  0.2228  0.2426  0.5514
10789WAT      O43875   2.140   2.730   2.003 -0.0111 -0.0814  0.6180
10789WAT     H143876   2.126   2.784   1.936 -0.8112 -0.9966  0.0182
10789WAT     H243877   2.066   2.736   2.049  0.2898  0.0760  1.0812
10789WAT    EPW43878   2.127   2.739   2.000 -0.0849 -0.1933  0.5978
10790WAT      O43879   6.032   4.484   0.461 -0.2344 -0.6941 -0.8932
10790WAT     H143880   6.004   4.559   0.426 -1.3771 -0.3272  0.6831
10790WAT     H243881   6.015   4.425   0.400  1.7886  0.4137 -2.6747
10790WAT    EPW43882   6.025   4.487   0.447 -0.1043 -0.4762 -0.9235
10791WAT      O43883   2.084   7.128   2.155 -0.4284  0.0290 -0.0676
10791WAT     H143884   2.143   7.153   2.096  0.0024 -0.0553  0.3259
10791WAT     H243885   2.048   7.203   2.181  1.4165  0.3755  1.6973
10791WAT    EPW43886   2.087   7.143   2.151 -0.0922  0.0678  0.2512
10792WAT      O43887   4.612   3.350   2.828 -0.5839  0.1715 -0.3826
10792WAT     H143888   4.585   3.368   2.747  0.0279  1.2413 -0.3581
10792WAT     H243889   4.687   3.307   2.816 -0.3546  0.5665 -0.3883
10792WAT    EPW43890   4.619   3.346   2.815 -0.4597  0.3879 -0.3798
10793WAT      O43891   3.297   3.965   5.511 -0.1520  0.1878 -0.5387
10793WAT     H143892   3.230   3.918   5.480  2.7773 -3.3294 -2.2130
10793WAT     H243893   3.321   4.014   5.443  1.0563 -1.1992 -1.1508
10793WAT    EPW43894   3.290   3.966   5.496  0.4592 -0.5366 -0.8765
10794WAT      O43895   2.304   3.936   2.889 -0.3923 -0.9176 -0.1711
10794WAT     H143896   2.384   3.903   2.892 -0.4966 -1.1812 -0.3003
10794WAT     H243897   2.318   4.022   2.880 -0.1183 -0.8545  0.7286
10794WAT    EPW43898   2.318   3.944   2.888 -0.3672 -0.9472 -0.0573
10795WAT      O43899   3.651   2.018   5.331 -0.3726  0.6314  0.0964
10795WAT     H143900   3.570   2.003   5.363  0.8086 -0.6898  2.9036
10795WAT     H243901   3.671   2.096   5.363 -0.0568  0.3384  0.6355
10795WAT    EPW43902   3.642   2.027   5.341 -0.1515  0.3929  0.5907
10796WAT      O43903   1.986   2.865   3.264  0.0258  0.4722  0.1943
10796WAT     H143904   2.001   2.947   3.238  0.0376  0.4006 -0.0262
10796WAT     H243905   2.028   2.860   3.341  2.0702 -0.0274 -0.8723
10796WAT    EPW43906   1.995   2.876   3.272  0.3296  0.3878  0.0041
10797WAT      O43907   2.626   2.020   6.153 -0.1708 -0.1099  0.0427
10797WAT     H143908   2.606   2.029   6.237 -0.0685  1.7103 -0.0846
10797WAT     H243909   2.549   2.025   6.112 -0.0405  1.2159 -0.0840
10797WAT    EPW43910   2.612   2.022   6.160 -0.1364  0.3548  0.0052
10798WAT      O43911   2.313   3.392   3.787  0.3396 -0.1731 -0.0790
10798WAT     H143912   2.385   3.398   3.739  0.2632 -1.0355 -0.3184
10798WAT     H243913   2.320   3.314   3.826  0.1472  0.2820  0.9071
10798WAT    EPW43914   2.325   3.381   3.786  0.2999 -0.2332  0.0313
10799WAT      O43915   5.861   6.422   5.276  0.1946  0.5423 -0.4509
10799WAT     H143916   5.857   6.440   5.191 -1.4789 -0.5865 -0.6613
10799WAT     H243917   5.824   6.343   5.282  3.3037 -0.9965  0.9247
10799WAT    EPW43918   5.855   6.413   5.264  0.4066  0.1483 -0.2787
10800WAT      O43919   7.169   2.238   0.026  0.5293  0.3039 -0.3320
10800WAT     H143920   7.196   2.160  -0.003  2.1344 -0.0255  1.7919
10800WAT     H243921   7.153   2.224   0.111  1.1397  2.3272  0.1791
10800WAT    EPW43922   7.170   2.225   0.034  0.8566  0.5542  0.0573
10801WAT      O43923   3.607   5.961   1.322 -0.0761  0.7505  0.1479
10801WAT     H143924   3.578   5.879   1.311 -2.9907  1.9027 -2.2735
10801WAT     H243925   3.660   5.973   1.254  0.4073  0.8683  0.5412
10801WAT    EPW43926   3.611   5.951   1.310 -0.4352  0.9381 -0.1517
10802WAT      O43927   1.004   2.545   6.686  0.6448  0.5144 -0.3215
10802WAT     H143928   0.951   2.551   6.755  0.5751  1.6974 -0.4557
10802WAT     H243929   0.953   2.512   6.624  1.1446 -2.2348  0.5956
10802WAT    EPW43930   0.989   2.541   6.687  0.7084  0.2830 -0.2058
10803WAT      O43931   6.072   1.448   3.233 -0.1271 -0.1808  0.6127
10803WAT     H143932   6.089   1.486   3.157 -1.4586  0.7255  0.7344
10803WAT     H243933   6.147   1.454   3.277 -0.2658  2.3764  0.6290
10803WAT    EPW43934   6.085   1.455   3.228 -0.3443  0.3308  0.6331
10804WAT      O43935   5.524   4.770   4.342  0.4159 -0.3476 -0.5124
10804WAT     H143936   5.550   4.687   4.334 -0.1112 -0.7385  1.4053
10804WAT     H243937   5.596   4.812   4.367  0.1506 -0.6803  0.8395
10804WAT    EPW43938   5.539   4.764   4.344  0.2988 -0.4545 -0.0294
10805WAT      O43939   7.117   0.089   2.947 -0.4530 -0.1229 -0.1230
10805WAT     H143940   7.181   0.111   2.891 -0.9444  0.4499 -0.4747
10805WAT     H243941   7.103   0.005   2.929 -0.0136 -0.1678 -0.2695
10805WAT    EPW43942   7.125   0.080   2.936 -0.4607 -0.0449 -0.1966
10806WAT      O43943   2.292   2.170   2.785 -0.8520  0.7717 -0.1312
10806WAT     H143944   2.289   2.091   2.821  1.3804  0.2801 -0.8476
10806WAT     H243945   2.365   2.205   2.818 -0.8887  1.8467 -1.1285
10806WAT    EPW43946   2.303   2.164   2.795 -0.5277  0.8579 -0.3843
10807WAT      O43947   3.914   1.807   6.159  0.3865 -0.5966  0.2279
10807WAT     H143948   3.861   1.846   6.103  1.1513  0.2188  0.0383
10807WAT     H243949   3.864   1.794   6.229 -0.1050  0.0276  0.0047
10807WAT    EPW43950   3.899   1.811   6.161  0.4268 -0.3839  0.1669
10808WAT      O43951   1.089   5.595   3.220 -0.5302  0.4498  0.2120
10808WAT     H143952   1.082   5.657   3.280  1.1636  0.8475  0.0545
10808WAT     H243953   1.150   5.625   3.166 -0.5570 -0.7988 -0.5636
10808WAT    EPW43954   1.097   5.609   3.221 -0.2840  0.3241  0.0742
10809WAT      O43955   2.500   6.942   3.257 -0.0435  0.5231  0.4524
10809WAT     H143956   2.534   6.884   3.312  0.3591 -1.1304 -1.4198
10809WAT     H243957   2.567   6.963   3.206 -0.8741  0.2659 -0.7975
10809WAT    EPW43958   2.515   6.937   3.258 -0.1067  0.2408 -0.0088
10810WAT      O43959   2.858   6.430   0.331  0.4834  0.1926 -0.0894
10810WAT     H143960   2.831   6.351   0.354 -0.9606  0.7387  0.2344
10810WAT     H243961   2.809   6.449   0.261  1.5233  0.4150 -0.7768
10810WAT    EPW43962   2.846   6.421   0.324  0.4237  0.3061 -0.1431
10811WAT      O43963   4.160   4.634   4.787  0.1551 -0.1322  0.5514
10811WAT     H143964   4.197   4.643   4.866 -0.6317 -0.1751  0.9338
10811WAT     H243965   4.121   4.711   4.774  1.5163  0.4291 -0.4745
10811WAT    EPW43966   4.160   4.647   4.797  0.2400 -0.0556  0.4564
10812WAT      O43967   0.232   2.571   2.940  0.1839 -0.2058  0.6013
10812WAT     H143968   0.191   2.527   3.004  0.6628 -1.1074  0.3139
10812WAT     H243969   0.167   2.601   2.891 -0.3297  2.3511  2.6181
10812WAT    EPW43970   0.216   2.569   2.943  0.1788  0.0387  0.8568
10813WAT      O43971   1.498   2.297   2.603 -0.0085 -0.3391 -0.1786
10813WAT     H143972   1.455   2.270   2.533 -1.7342  0.1347  0.6445
10813WAT     H243973   1.482   2.383   2.605 -1.3328 -0.5491  1.5939
10813WAT    EPW43974   1.489   2.306   2.593 -0.4590 -0.3001  0.2049
10814WAT      O43975   4.908   1.875   1.873  0.1142  1.0337 -0.4249
10814WAT     H143976   4.967   1.812   1.858 -1.4703 -0.3530 -1.1662
10814WAT     H243977   4.852   1.837   1.928  0.7940  2.9322  1.7682
10814WAT    EPW43978   4.909   1.860   1.879 -0.0194  1.1093 -0.2105
10815WAT      O43979   4.151   5.751   7.051  0.1012  0.1073 -0.3989
10815WAT     H143980   4.135   5.815   6.994  0.2728  1.8451  1.4104
10815WAT     H243981   4.166   5.793   7.126 -0.4076 -2.0798  1.0273
10815WAT    EPW43982   4.151   5.766   7.054  0.0514  0.0409  0.0791
10816WAT      O43983   2.666   1.563   1.068  0.8337 -0.3900 -0.1820
10816WAT     H143984   2.696   1.483   1.082 -0.6039 -1.0320 -0.5881
10816WAT     H243985   2.621   1.555   0.994  1.3895  1.0052 -0.7038
10816WAT    EPW43986   2.664   1.550   1.059  0.7034 -0.2787 -0.3191
10817WAT      O43987   5.322   2.433   3.622  0.0556 -0.4600 -0.0872
10817WAT     H143988   5.286   2.502   3.582  0.3545  0.2197  0.7648
10817WAT     H243989   5.256   2.376   3.627 -0.4136  0.0648 -0.1337
10817WAT    EPW43990   5.307   2.435   3.617  0.0304 -0.2821  0.0318
10818WAT      O43991   4.485   0.158   6.846 -0.0170 -0.2992 -0.2932
10818WAT     H143992   4.486   0.240   6.814 -1.8510  0.8284  2.1650
10818WAT     H243993   4.563   0.150   6.883  0.7597 -0.2986 -1.8376
10818WAT    EPW43994   4.496   0.169   6.847 -0.1732 -0.1326 -0.1582
10819WAT      O43995   2.619   0.417   1.086  0.0100  0.1474  0.0741
10819WAT     H143996   2.545   0.462   1.079  0.5386  1.0486  0.1101
10819WAT     H243997   2.679   0.478   1.102  0.4993 -0.7231  1.8483
10819WAT    EPW43998   2.617   0.433   1.087  0.1604  0.1520  0.3415
10820WAT      O43999   6.691   2.052   0.502  0.1156 -0.0157 -0.0381
10820WAT     H144000   6.616   2.060   0.458 -0.0719  2.6339  0.6162
10820WAT     H244001   6.667   2.017   0.578 -0.2985 -0.0091 -0.1663
10820WAT    EPW44002   6.677   2.048   0.506  0.0268  0.3766  0.0396
10821WAT      O44003   7.076   2.678   1.703  0.0713 -0.2085  0.2420
10821WAT     H144004   7.044   2.759   1.714 -1.3136 -0.7260  0.3132
10821WAT     H244005   7.146   2.690   1.653  0.2377  1.0905  0.7361
10821WAT    EPW44006   7.081   2.692   1.697 -0.1087 -0.0931  0.3255
10822WAT      O44007   6.077   2.527   2.030  0.0665 -0.1612  0.4538
10822WAT     H144008   6.124   2.590   2.069 -1.4263  0.1713  1.8485
10822WAT     H244009   6.070   2.555   1.948  0.5401  0.8458  0.7350
10822WAT    EPW44010   6.083   2.541   2.024 -0.0840  0.0367  0.7014
10823WAT      O44011   4.406   3.929   0.078  0.1362 -0.8095 -0.3334
10823WAT     H144012   4.427   3.857   0.034 -0.1966 -0.2873 -1.3766
10823WAT     H244013   4.399   3.990   0.016  0.8293  0.2278  0.5775
10823WAT    EPW44014   4.408   3.927   0.062  0.1894 -0.5791 -0.3530
10824WAT      O44015   3.205   1.141   1.807 -0.3625  0.0980 -0.5486
10824WAT     H144016   3.254   1.085   1.852  1.2862  1.1869 -0.9153
10824WAT     H244017   3.248   1.150   1.732 -1.6241  0.4100 -1.2646
10824WAT    EPW44018   3.219   1.134   1.803 -0.3053  0.3049 -0.7085
10825WAT      O44019   3.560   3.160   0.262 -0.9448  0.4153  0.3985
10825WAT     H144020   3.538   3.238   0.293 -1.4391  0.2778  0.3995
10825WAT     H244021   3.489   3.134   0.218 -0.9949 -0.2766  0.8681
10825WAT    EPW44022   3.546   3.168   0.260 -1.0252  0.2928  0.4680
10826WAT      O44023   0.206   3.394   0.783 -0.0564  0.0886 -0.3087
10826WAT     H144024   0.138   3.367   0.830  1.3404  0.3893  2.0109
10826WAT     H244025   0.211   3.479   0.802  0.6176  0.1934 -0.9087
10826WAT    EPW44026   0.197   3.403   0.793  0.2495  0.1485 -0.0547
10827WAT      O44027   6.120   6.634   3.422  0.6027  0.0383 -0.1510
10827WAT     H144028   6.155   6.677   3.490  1.4794 -0.6848 -0.1314
10827WAT     H244029   6.053   6.685   3.398  0.8608  0.7802  0.6568
10827WAT    EPW44030   6.115   6.648   3.429  0.7703  0.0411 -0.0288
10828WAT      O44031   4.724   7.104   4.047 -1.1234  0.2258  0.2496
10828WAT     H144032   4.795   7.054   4.034 -1.7453 -0.4769 -0.5645
10828WAT     H244033   4.755   7.185   4.038 -0.7173 -0.0941 -1.9591
10828WAT    EPW44034   4.739   7.108   4.044 -1.1552  0.0747 -0.1970
10829WAT      O44035   6.894   5.149   3.397  0.2066  0.2658 -0.7065
10829WAT     H144036   6.975   5.178   3.411  0.5607 -1.2478  0.6362
10829WAT     H244037   6.888   5.145   3.310  0.1929  3.9989 -1.0523
10829WAT    EPW44038   6.905   5.153   3.387  0.2569  0.5937 -0.5593
10830WAT      O44039   2.557   2.664   1.412 -0.1539  0.0637  0.1502
10830WAT     H144040   2.605   2.703   1.475 -0.6111  0.3182  0.3443
10830WAT     H244041   2.491   2.629   1.456 -0.1675 -0.2569 -0.1259
10830WAT    EPW44042   2.555   2.665   1.428 -0.2234  0.0540  0.1381
10831WAT      O44043   7.242   1.060   2.261 -0.5178 -0.2139  0.5576
10831WAT     H144044   7.317   1.102   2.274  0.5832 -1.3362 -1.5634
10831WAT     H244045   7.206   1.057   2.340  1.6354  0.4089  1.6415
10831WAT    EPW44046   7.247   1.066   2.274 -0.0371 -0.2877  0.4044
10832WAT      O44047   6.460   4.976   1.974  0.2309  0.1127 -0.2929
10832WAT     H144048   6.417   4.967   2.049 -1.4570  0.9129 -1.1175
10832WAT     H244049   6.491   5.057   1.977  1.2147 -0.2607  0.0386
10832WAT    EPW44050   6.458   4.987   1.985  0.1269  0.1757 -0.3657
10833WAT      O44051   4.598   5.411   1.115 -0.2156  0.0995  0.1270
10833WAT     H144052   4.626   5.494   1.108 -2.1233  0.7812 -0.1227
10833WAT     H244053   4.578   5.404   1.200  0.0627 -0.1565  0.1720
10833WAT    EPW44054   4.599   5.422   1.127 -0.4563  0.1624  0.0967
10834WAT      O44055   1.433   1.809   1.129  0.1148 -0.0584  0.0116
10834WAT     H144056   1.375   1.773   1.075 -0.3733  1.5773 -0.5907
10834WAT     H244057   1.404   1.786   1.208 -0.7909 -0.0748 -0.3136
10834WAT    EPW44058   1.420   1.800   1.132 -0.0911  0.1808 -0.1254
10835WAT      O44059   2.418   3.813   3.207 -0.2722 -0.2415 -0.2652
10835WAT     H144060   2.479   3.769   3.164 -0.0589  0.1718 -0.3848
10835WAT     H244061   2.442   3.804   3.291  1.7691  2.5388 -0.4393
10835WAT    EPW44062   2.430   3.805   3.213  0.0609  0.2302 -0.3086
10836WAT      O44063   2.949   3.551   6.035  0.2186  0.5160 -0.5525
10836WAT     H144064   3.034   3.550   6.019  0.4105  0.2571  0.4123
10836WAT     H244065   2.917   3.491   5.980  0.5138  1.2440 -1.5523
10836WAT    EPW44066   2.957   3.542   6.024  0.2906  0.5853 -0.5577
10837WAT      O44067   0.922   6.116   2.235  0.4967  0.3602 -0.1222
10837WAT     H144068   0.860   6.056   2.249  0.6769  0.3802  0.8423
10837WAT     H244069   0.904   6.146   2.156  1.0912 -1.7989 -1.1561
10837WAT    EPW44070   0.910   6.112   2.226  0.6112  0.0442 -0.1325
10838WAT      O44071   0.967   4.747   0.141 -0.5029 -0.0491 -0.3219
10838WAT     H144072   1.023   4.712   0.084 -0.1150 -1.6541  0.9777
10838WAT     H244073   0.970   4.832   0.123  1.9484 -0.1361 -0.6495
10838WAT    EPW44074   0.975   4.755   0.130 -0.0835 -0.2990 -0.1783
10839WAT      O44075   0.481   1.161   0.194 -0.2161 -0.6550  0.6908
10839WAT     H144076   0.560   1.132   0.220 -0.4993 -0.0983  2.2884
10839WAT     H244077   0.429   1.141   0.261 -1.2221 -0.0133  0.1201
10839WAT    EPW44078   0.485   1.153   0.208 -0.4066 -0.4779  0.8425
10840WAT      O44079   4.161   5.444   4.259  0.3810  0.3045 -0.2330
10840WAT     H144080   4.173   5.517   4.306  0.0656 -0.2007  0.6390
10840WAT     H244081   4.074   5.437   4.253  0.4028 -0.2049  0.0125
10840WAT    EPW44082   4.150   5.454   4.265  0.3377  0.1546 -0.0679
10841WAT      O44083   6.077   2.072   4.291  0.2785  0.0206 -0.2512
10841WAT     H144084   6.129   2.100   4.228  0.7073 -1.1428 -0.4244
10841WAT     H244085   6.074   2.140   4.347  0.4125  0.8051 -1.1738
10841WAT    EPW44086   6.084   2.086   4.290  0.3616 -0.0353 -0.4131
10842WAT      O44087   6.765   7.027   5.607  0.3992  0.1546  0.0465
10842WAT     H144088   6.753   7.040   5.522  1.4760 -0.8557 -0.2899
10842WAT     H244089   6.764   7.108   5.641 -1.3060  0.4967 -0.7101
10842WAT    EPW44090   6.763   7.041   5.600  0.3064  0.0559 -0.1150
10843WAT      O44091   4.519   5.217   2.427 -0.3578 -0.2864  0.2108
10843WAT     H144092   4.470   5.154   2.392  1.3805 -0.7176 -1.6686
10843WAT     H244093   4.599   5.183   2.428  0.4120  1.3920  0.4253
10843WAT    EPW44094   4.523   5.203   2.422  0.0127 -0.1022 -0.0351
10844WAT      O44095   7.288   4.124   3.266  0.1095 -0.0993  0.1016
10844WAT     H144096   7.241   4.140   3.338 -0.3935  0.6486 -0.3716
10844WAT     H244097   7.282   4.038   3.255 -2.4907  0.1073 -0.7942
10844WAT    EPW44098   7.280   4.114   3.275 -0.3489  0.0417 -0.1006
10845WAT      O44099   4.811   5.195   2.135  0.2178  0.6143  0.4603
10845WAT     H144100   4.740   5.187   2.085  0.8362  1.6260 -0.6418
10845WAT     H244101   4.792   5.149   2.206 -0.5578 -1.1951 -0.8491
10845WAT    EPW44102   4.798   5.187   2.138  0.1946  0.4965  0.1041
10846WAT      O44103   3.631   1.450   3.159 -0.2865 -0.2489  0.2500
10846WAT     H144104   3.704   1.482   3.124 -0.2579 -1.6334 -1.1028
10846WAT     H244105   3.580   1.520   3.169  1.3496  0.8067  1.6672
10846WAT    EPW44106   3.634   1.465   3.155 -0.0406 -0.2975  0.2595
10847WAT      O44107   1.185   2.312   3.173  0.0085 -0.6019 -0.0991
10847WAT     H144108   1.264   2.298   3.209  0.7747 -0.3792 -1.6318
10847WAT     H244109   1.180   2.253   3.109  0.0851  1.0682 -1.7323
10847WAT    EPW44110   1.196   2.301   3.169  0.1330 -0.3223 -0.5668
10848WAT      O44111   4.973   1.960   6.079  0.2428 -0.6949  0.3172
10848WAT     H144112   4.956   1.896   6.022 -2.1278 -0.0032  0.1437
10848WAT     H244113   5.058   1.976   6.067  0.5657 -2.7874 -0.6752
10848WAT    EPW44114   4.983   1.953   6.069 -0.0597 -0.9018  0.1450
10849WAT      O44115   1.411   4.814   6.843 -0.4466  0.6637  0.6447
10849WAT     H144116   1.442   4.890   6.813 -2.1090  1.6339  1.2166
10849WAT     H244117   1.473   4.785   6.897  0.6493  1.0910 -0.3513
10849WAT    EPW44118   1.425   4.821   6.846 -0.5303  0.8702  0.5820
10850WAT      O44119   6.972   2.132   2.488  0.7714  0.3240  0.2176
10850WAT     H144120   6.916   2.197   2.469  1.9225  1.0204 -0.9409
10850WAT     H244121   7.049   2.163   2.463  1.3789 -1.4616 -0.2935
10850WAT    EPW44122   6.975   2.146   2.481  1.0312  0.1631 -0.0290
10851WAT      O44123   4.022   3.232   5.977 -0.5979 -0.2186  0.3380
10851WAT     H144124   3.976   3.191   5.915 -1.9834  3.0492 -1.0202
10851WAT     H244125   3.961   3.273   6.024  0.6980  1.1124  0.9277
10851WAT    EPW44126   4.006   3.232   5.974 -0.6111  0.4608  0.2245
10852WAT      O44127   7.005   5.494   7.302  0.1812 -0.5199 -0.1476
10852WAT     H144128   7.074   5.442   7.287  1.1274  0.0873  1.7798
10852WAT     H244129   7.040   5.574   7.309 -0.5170 -0.3207  1.8661
10852WAT    EPW44130   7.020   5.498   7.301  0.2178 -0.4008  0.4346
10853WAT      O44131   1.642   3.869   1.607  0.5120  0.3490 -0.0692
10853WAT     H144132   1.578   3.849   1.551  0.2149  0.6316  0.1676
10853WAT     H244133   1.604   3.923   1.664  0.9848  0.5926  0.0230
10853WAT    EPW44134   1.627   3.874   1.607  0.5379  0.4267 -0.0206
10854WAT      O44135   1.601   5.213   6.521 -0.2845  0.1947 -0.2464
10854WAT     H144136   1.679   5.207   6.482 -1.1221  1.9618 -2.4211
10854WAT     H244137   1.613   5.275   6.581  0.0444  0.3074 -0.4266
10854WAT    EPW44138   1.614   5.222   6.524 -0.3596  0.4724 -0.5942
10855WAT      O44139   6.037   5.329   4.082  0.4869  0.1035 -0.9024
10855WAT     H144140   6.081   5.258   4.055 -0.0448 -0.0548 -1.3695
10855WAT     H244141   5.957   5.299   4.097  1.0262 -0.1196  2.2029
10855WAT    EPW44142   6.032   5.314   4.080  0.4880  0.0472 -0.5127
10856WAT      O44143   4.609   0.871   0.938  0.3813  0.5838 -0.5720
10856WAT     H144144   4.684   0.876   0.895 -0.3026  1.5888 -1.6954
10856WAT     H244145   4.615   0.795   0.980  0.7375 -0.8482 -3.0754
10856WAT    EPW44146   4.621   0.861   0.938  0.3329  0.5207 -1.1077
10857WAT      O44147   4.088   6.063   6.619  0.1279 -0.5327 -0.1584
10857WAT     H144148   4.108   6.025   6.695  1.8555  2.3513  0.9725
10857WAT     H244149   4.075   5.995   6.565  2.8705 -2.7607  1.6908
10857WAT    EPW44150   4.089   6.047   6.622  0.7883 -0.4358  0.2818
10858WAT      O44151   6.871   7.142   3.190  0.0830  0.3419 -0.5077
10858WAT     H144152   6.889   7.178   3.268 -0.2658 -1.6179  0.5528
10858WAT     H244153   6.793   7.105   3.202  1.0354 -1.9944 -0.9775
10858WAT    EPW44154   6.862   7.142   3.203  0.1722 -0.2928 -0.4205
10859WAT      O44155   7.163   5.762   6.727  0.0828 -0.1878 -0.5040
10859WAT     H144156   7.111   5.790   6.663 -1.2797 -0.8413  0.2790
10859WAT     H244157   7.243   5.780   6.698 -0.5030 -0.3496 -2.3293
10859WAT    EPW44158   7.168   5.769   6.713 -0.2050 -0.3082 -0.6580
10860WAT      O44159   0.498   6.515   0.693  0.2760 -0.1045  0.5099
10860WAT     H144160   0.500   6.429   0.682 -1.2830 -0.0816 -0.3466
10860WAT     H244161   0.427   6.539   0.648  0.5873  1.6057  0.8647
10860WAT    EPW44162   0.488   6.506   0.685  0.0917  0.1515  0.4358
10861WAT      O44163   0.885   4.603   1.964 -0.4214 -0.4278 -0.6279
10861WAT     H144164   0.938   4.649   1.911  0.8911 -3.6592 -2.4252
10861WAT     H244165   0.810   4.648   1.961  1.0341  2.2278 -1.1482
10861WAT    EPW44166   0.882   4.617   1.956 -0.0125 -0.5129 -0.9702
10862WAT      O44167   4.251   1.042   3.802 -0.3690  0.0131 -0.0451
10862WAT     H144168   4.318   1.004   3.760 -0.4700 -0.3381  0.1161
10862WAT     H244169   4.252   1.006   3.881  0.0917  0.9961  0.4156
10862WAT    EPW44170   4.261   1.031   3.807 -0.3159  0.1065  0.0468
10863WAT      O44171   4.871   0.634   3.876  0.2109 -0.2501 -0.3777
10863WAT     H144172   4.854   0.549   3.888 -0.5851 -0.0479 -0.0415
10863WAT     H244173   4.947   0.633   3.834 -0.5013 -1.1985 -1.7659
10863WAT    EPW44174   4.880   0.621   3.872 -0.0119 -0.3603 -0.5331
10864WAT      O44175   5.405   2.268   3.175  0.0171 -0.0627 -0.0375
10864WAT     H144176   5.351   2.236   3.115 -0.6058 -0.0528  0.5097
10864WAT     H244177   5.355   2.323   3.221 -0.0020 -1.3143  1.5553
10864WAT    EPW44178   5.390   2.272   3.173 -0.0777 -0.2461  0.2786
10865WAT      O44179   6.310   2.785   0.816  0.0208 -0.1392  0.4320
10865WAT     H144180   6.329   2.864   0.848  1.6780 -0.7179  0.9584
10865WAT     H244181   6.231   2.768   0.848  0.4298  0.5240  1.8495
10865WAT    EPW44182   6.301   2.794   0.825  0.3260 -0.1267  0.7192
10866WAT      O44183   4.182   2.318   2.151 -0.3534  0.0086 -0.0983
10866WAT     H144184   4.118   2.261   2.136  0.4587 -1.0772  0.3756
10866WAT     H244185   4.213   2.294   2.230 -0.4375  1.5583  0.4454
10866WAT    EPW44186   4.177   2.306   2.161 -0.2458  0.0771  0.0520
10867WAT      O44187   7.114   6.240   1.767 -0.0728  0.8154 -0.4727
10867WAT     H144188   7.163   6.168   1.756 -1.6319 -0.5011  0.7520
10867WAT     H244189   7.076   6.250   1.689  1.7313  1.6169 -1.3164
10867WAT    EPW44190   7.115   6.231   1.754 -0.0366  0.7393 -0.4164
10868WAT      O44191   4.630   1.471   2.058  0.0232 -0.4569  0.5442
10868WAT     H144192   4.595   1.479   2.138 -0.6375  1.0745  0.1447
10868WAT     H244193   4.575   1.418   2.017 -1.1209  0.8005  0.3610
10868WAT    EPW44194   4.617   1.465   2.064 -0.2434 -0.0450  0.4581
10869WAT      O44195   0.322   5.986   7.219  0.2397  0.0573 -0.2235
10869WAT     H144196   0.278   5.922   7.179  0.5062 -0.0824 -0.2993
10869WAT     H244197   0.349   5.950   7.294  0.7498 -0.0572 -0.4560
10869WAT    EPW44198   0.319   5.972   7.224  0.3545  0.0198 -0.2691
10870WAT      O44199   4.571   6.654   2.169 -0.1077 -0.3934 -0.4013
10870WAT     H144200   4.591   6.721   2.222  0.2973 -1.7930  1.3272
10870WAT     H244201   4.604   6.678   2.092  1.2460  0.8139  0.4938
10870WAT    EPW44202   4.579   6.668   2.165  0.1521 -0.4218 -0.0137
10871WAT      O44203   4.083   2.122   5.102 -0.2978 -0.3710  0.2250
10871WAT     H144204   4.000   2.103   5.085 -0.6553  1.1747  0.0484
10871WAT     H244205   4.092   2.203   5.069  1.0904 -0.2603  0.8137
10871WAT    EPW44206   4.072   2.131   5.094 -0.1455 -0.1263  0.2859
10872WAT      O44207   6.490   2.333   2.174 -0.4136  0.2875 -0.0121
10872WAT     H144208   6.487   2.304   2.256  0.0697  1.4331  0.4182
10872WAT     H244209   6.522   2.413   2.181  1.0315 -0.1101 -1.4497
10872WAT    EPW44210   6.494   2.340   2.187 -0.1287  0.3980 -0.1609
10873WAT      O44211   4.109   0.379   4.400  0.2457  0.4166  0.4346
10873WAT     H144212   4.141   0.300   4.417 -0.0938  0.2481  0.2815
10873WAT     H244213   4.049   0.365   4.338 -0.3490  0.6898  0.9348
10873WAT    EPW44214   4.105   0.365   4.394  0.1077  0.4321  0.4859
10874WAT      O44215   6.633   3.614   4.582 -0.3176  0.1762  0.1992
10874WAT     H144216   6.565   3.571   4.549  0.3344 -1.5371  0.9376
10874WAT     H244217   6.698   3.556   4.578  0.4983  0.8899  1.7527
10874WAT    EPW44218   6.633   3.599   4.577 -0.1007  0.0286  0.5378
10875WAT      O44219   4.404   3.394   4.402 -0.7261 -0.2953  0.1744
10875WAT     H144220   4.385   3.470   4.364 -0.7708 -1.4136 -2.2279
10875WAT     H244221   4.481   3.408   4.440  0.0340  0.5688 -1.5737
10875WAT    EPW44222   4.413   3.407   4.402 -0.6204 -0.3328 -0.4387
10876WAT      O44223   6.092   4.124   5.454 -0.4481  0.1851 -0.6587
10876WAT     H144224   6.098   4.052   5.405 -1.4675 -0.0194 -0.5066
10876WAT     H244225   6.097   4.189   5.395 -1.1262 -0.0486 -0.9905
10876WAT    EPW44226   6.093   4.123   5.438 -0.6989  0.1204 -0.6852
10877WAT      O44227   4.633   6.443   5.504  0.1047  0.0510  0.7976
10877WAT     H144228   4.556   6.482   5.496  1.0723  2.3062  1.4551
10877WAT     H244229   4.668   6.483   5.574  2.6580  0.6523 -0.6822
10877WAT    EPW44230   4.627   6.455   5.513  0.6248  0.4729  0.6761
10878WAT      O44231   0.482   3.359   0.534  0.0020 -0.5644  0.2693
10878WAT     H144232   0.451   3.432   0.571  0.0230 -1.1124  1.4247
10878WAT     H244233   0.415   3.303   0.543  0.0618 -0.7519 -0.4213
10878WAT    EPW44234   0.467   3.362   0.541  0.0139 -0.6731  0.3379
10879WAT      O44235   5.277   1.984   4.729  0.4126 -0.1299 -0.2339
10879WAT     H144236   5.194   1.973   4.703  0.5208 -0.4703 -0.4518
10879WAT     H244237   5.281   2.068   4.751  0.3316  0.1826 -1.3810
10879WAT    EPW44238   5.265   1.995   4.728  0.4166 -0.1340 -0.4355
10880WAT      O44239   5.987   1.088   2.532 -0.0262 -0.6715  0.5403
10880WAT     H144240   6.050   1.028   2.539 -0.4322 -1.3967 -1.3079
10880WAT     H244241   5.956   1.095   2.613  0.9851 -1.9064  1.0724
10880WAT    EPW44242   5.992   1.080   2.545  0.0632 -0.9610  0.3459
10881WAT      O44243   2.178   6.395   5.318  0.4067 -0.2224  0.0201
10881WAT     H144244   2.107   6.403   5.267  0.7384 -0.2356 -0.4501
10881WAT     H244245   2.147   6.356   5.390  0.2580 -1.9406 -0.9180
10881WAT    EPW44246   2.163   6.391   5.321  0.4337 -0.4782 -0.1879
10882WAT      O44247   0.179   6.586   5.897 -0.0423  0.5919 -0.5418
10882WAT     H144248   0.216   6.655   5.858  0.5929  0.5957  0.0604
10882WAT     H244249   0.093   6.602   5.890  0.0660  0.8364 -1.4900
10882WAT    EPW44250   0.172   6.598   5.890  0.0676  0.6286 -0.5929
10883WAT      O44251   3.206   5.857   2.094  0.2632 -0.4529 -0.1184
10883WAT     H144252   3.177   5.821   2.168 -1.2099 -0.2094 -0.5542
10883WAT     H244253   3.195   5.942   2.106  0.6833 -0.3608 -0.3553
10883WAT    EPW44254   3.200   5.864   2.106  0.1076 -0.4033 -0.2178
10884WAT      O44255   3.061   6.712   6.241 -0.2877 -0.0811 -0.0676
10884WAT     H144256   2.977   6.690   6.242  0.1351 -1.9995 -0.9371
10884WAT     H244257   3.061   6.794   6.210 -1.7868 -0.4674 -1.2022
10884WAT    EPW44258   3.049   6.721   6.236 -0.4467 -0.4215 -0.3637
10885WAT      O44259   1.741   2.101   6.694  0.6244 -0.3084  0.2426
10885WAT     H144260   1.801   2.162   6.713  0.3419  0.0784 -0.0820
10885WAT     H244261   1.699   2.090   6.769  0.2616  0.3729  0.1532
10885WAT    EPW44262   1.744   2.109   6.708  0.5291 -0.1506  0.1814
10886WAT      O44263   2.861   2.663   0.214 -0.0084 -0.3917  0.4364
10886WAT     H144264   2.787   2.672   0.260  0.3091 -0.7786  1.0477
10886WAT     H244265   2.892   2.745   0.208 -0.7970 -0.1455 -0.3661
10886WAT    EPW44266   2.855   2.676   0.220 -0.0780 -0.4125  0.4081
10887WAT      O44267   1.241   4.200   4.077  0.0483  0.0205 -0.2536
10887WAT     H144268   1.218   4.117   4.064 -0.8380  0.2973 -0.5138
10887WAT     H244269   1.311   4.210   4.027  0.5154 -0.7296  0.2286
10887WAT    EPW44270   1.248   4.189   4.068 -0.0136 -0.0494 -0.2208
10888WAT      O44271   4.182   4.423   6.603  0.2169  0.4650 -0.1857
10888WAT     H144272   4.200   4.433   6.688  2.8046  2.0553 -0.7835
10888WAT     H244273   4.116   4.478   6.590  1.1104  1.7709  0.4818
10888WAT    EPW44274   4.175   4.433   6.614  0.7311  0.8928 -0.1754
10889WAT      O44275   7.258   5.963   7.206  0.1493  0.0599 -0.1369
10889WAT     H144276   7.230   5.997   7.131 -0.6218  0.5480  0.3546
10889WAT     H244277   7.315   6.022   7.235  0.9195 -0.4291 -0.6302
10889WAT    EPW44278   7.262   5.977   7.199  0.1492  0.0597 -0.1372
10890WAT      O44279   2.094   2.875   6.432 -0.3541 -0.7810 -0.1194
10890WAT     H144280   2.020   2.904   6.397 -0.6582 -1.8708 -0.4081
10890WAT     H244281   2.084   2.788   6.434  0.7418 -0.9218  0.2195
10890WAT    EPW44282   2.082   2.866   6.427 -0.2371 -0.9628 -0.1120
10891WAT      O44283   5.268   3.020   2.257 -0.2460  0.5185  0.0441
10891WAT     H144284   5.242   3.095   2.293 -2.2705  0.6382 -1.4886
10891WAT     H244285   5.257   2.962   2.321  1.7912  1.5003  1.4116
10891WAT    EPW44286   5.262   3.022   2.272 -0.2441  0.6812  0.0197
10892WAT      O44287   3.786   0.019   6.784 -0.0421 -0.0186 -0.3309
10892WAT     H144288   3.805   0.045   6.702  0.5348 -1.6616 -0.7648
10892WAT     H244289   3.849  -0.038   6.802 -1.6622 -1.7324  0.2279
10892WAT    EPW44290   3.798   0.015   6.774 -0.1962 -0.5145 -0.3125
10893WAT      O44291   4.773   3.692   2.740  0.4841  0.3282  0.2099
10893WAT     H144292   4.854   3.690   2.774  0.3118 -0.8938  0.6380
10893WAT     H244293   4.771   3.766   2.694  2.0844  0.0417 -0.3903
10893WAT    EPW44294   4.785   3.702   2.739  0.6951  0.1054  0.1845
10894WAT      O44295   6.918   3.848   7.017  0.1120 -0.2908  0.0612
10894WAT     H144296   6.970   3.778   7.011  1.3148  0.6903 -2.5854
10894WAT     H244297   6.838   3.814   7.021  0.7411 -1.8247  0.2022
10894WAT    EPW44298   6.914   3.833   7.017  0.3826 -0.3725 -0.3090
10895WAT      O44299   2.355   4.101   3.212  0.0094 -0.1489  0.3584
10895WAT     H144300   2.398   4.037   3.172  0.2485 -0.1814  0.6669
10895WAT     H244301   2.310   4.060   3.275 -0.0586 -0.0498  0.3751
10895WAT    EPW44302   2.355   4.086   3.216  0.0347 -0.1390  0.4064
10896WAT      O44303   0.755   1.910   2.838 -0.0655  0.2057  0.8317
10896WAT     H144304   0.831   1.906   2.794 -0.6388  1.6521 -0.3966
10896WAT     H244305   0.769   1.974   2.895 -0.9303  1.8309 -0.6965
10896WAT    EPW44306   0.769   1.919   2.840 -0.2780  0.6594  0.4245
10897WAT      O44307   6.755   7.086   7.339  0.1836  0.2264  0.1746
10897WAT     H144308   6.771   7.047   7.416  0.2624 -1.5217 -0.6674
10897WAT     H244309   6.692   7.144   7.358  1.3297  0.9971  1.8433
10897WAT    EPW44310   6.748   7.089   7.353  0.3645  0.0820  0.2967
10898WAT      O44311   3.730   5.905   2.316  0.3092 -0.2698  0.1108
10898WAT     H144312   3.758   5.952   2.248  2.2696  0.1881  1.1430
10898WAT     H244313   3.757   5.824   2.297 -1.4744 -0.6931 -0.8252
10898WAT    EPW44314   3.738   5.900   2.303  0.3354 -0.2647  0.1250
10899WAT      O44315   0.466   7.239   5.580 -0.4835 -0.0081  0.0160
10899WAT     H144316   0.403   7.291   5.611  0.8978  1.1841  1.0364
10899WAT     H244317   0.527   7.296   5.553  0.0097 -1.1051 -1.2763
10899WAT    EPW44318   0.466   7.255   5.581 -0.2066  0.0059 -0.0241
10900WAT      O44319   2.203   5.535   0.162 -0.0028  0.2570 -0.4220
10900WAT     H144320   2.289   5.537   0.172  0.0684  1.0945 -1.0543
10900WAT     H244321   2.180   5.619   0.165 -0.9284 -0.0195  0.7338
10900WAT    EPW44322   2.212   5.548   0.164 -0.1290  0.3398 -0.3446
10901WAT      O44323   2.626   5.236   5.016 -0.1157  0.4649 -0.2132
10901WAT     H144324   2.611   5.168   5.069 -1.9607  1.1932  0.2887
10901WAT     H244325   2.681   5.286   5.061  1.1567 -0.5807 -0.5321
10901WAT    EPW44326   2.632   5.233   5.030 -0.2003  0.4181 -0.1861
10902WAT      O44327   5.703   6.296   4.532 -0.9646  0.1187 -0.2464
10902WAT     H144328   5.704   6.211   4.513  0.2227  0.3416 -1.3000
10902WAT     H244329   5.735   6.299   4.613  0.9119 -0.3461 -0.9000
10902WAT    EPW44330   5.708   6.284   4.541 -0.5120  0.0829 -0.4986
10903WAT      O44331   1.685   3.830   4.642 -0.0229 -0.3631  0.4275
10903WAT     H144332   1.662   3.855   4.561  0.3101  1.3162  0.8294
10903WAT     H244333   1.771   3.818   4.636  0.4752  2.3630  1.1210
10903WAT    EPW44334   1.694   3.832   4.629  0.0998  0.2876  0.5893
10904WAT      O44335   1.527   6.159   2.276  0.2718  0.4393  0.0283
10904WAT     H144336   1.465   6.150   2.336 -0.1937  1.3326 -0.2947
10904WAT     H244337   1.576   6.088   2.286 -0.1060  0.3086  1.1000
10904WAT    EPW44338   1.525   6.147   2.286  0.1472  0.5519  0.1389
10905WAT      O44339   2.715   3.185   4.445 -0.5172 -0.2472  0.7788
10905WAT     H144340   2.643   3.139   4.458 -0.3433 -1.1189 -1.0417
10905WAT     H244341   2.746   3.198   4.526 -0.9519 -2.7054  1.4194
10905WAT    EPW44342   2.709   3.180   4.459 -0.5557 -0.7391  0.6045
10906WAT      O44343   2.837   3.328   5.861  0.5258  0.4918  0.5185
10906WAT     H144344   2.912   3.285   5.870  0.3208  0.0527  0.1842
10906WAT     H244345   2.790   3.304   5.930  1.0574  1.5539  1.2747
10906WAT    EPW44346   2.841   3.318   5.872  0.5741  0.5838  0.5809
10907WAT      O44347   5.105   3.973   3.988  0.6335  0.6555 -0.2720
10907WAT     H144348   5.117   4.038   3.930  0.8273  0.9394  0.0797
10907WAT     H244349   5.033   3.997   4.031 -0.0573 -0.0290 -1.0163
10907WAT    EPW44350   5.096   3.986   3.986  0.5601  0.5963 -0.3300
10908WAT      O44351   1.982   3.508   4.752  0.1500  0.2390 -0.6224
10908WAT     H144352   1.981   3.423   4.733 -0.9163  0.3131 -0.9415
10908WAT     H244353   2.067   3.528   4.751  0.4445 -0.9106 -0.1287
10908WAT    EPW44354   1.995   3.498   4.749  0.0360  0.0801 -0.5966
10909WAT      O44355   2.603   5.079   6.078 -0.1119  0.2427 -0.6008
10909WAT     H144356   2.655   5.010   6.064  0.5482  0.6088 -0.0161
10909WAT     H244357   2.566   5.060   6.155  0.2530  0.6444 -0.3235
10909WAT    EPW44358   2.605   5.066   6.087  0.0395  0.3561 -0.4735
10910WAT      O44359   2.344   3.545   2.731 -0.9447 -0.1176 -0.0460
10910WAT     H144360   2.296   3.473   2.740 -1.4800  0.1122 -0.9496
10910WAT     H244361   2.394   3.546   2.803 -0.8567 -1.4310 -0.0709
10910WAT    EPW44362   2.345   3.535   2.743 -1.0108 -0.2777 -0.1831
10911WAT      O44363   5.230   4.761   0.244 -0.2705  0.0475 -0.2597
10911WAT     H144364   5.168   4.801   0.196  0.0087  1.8721  0.7950
10911WAT     H244365   5.279   4.827   0.273  4.0730 -1.3292 -3.3616
10911WAT    EPW44366   5.228   4.777   0.241  0.4123  0.1137 -0.5621
10912WAT      O44367   1.218   6.770   6.072 -0.3903 -0.2339 -1.0655
10912WAT     H144368   1.134   6.785   6.088 -0.4541 -1.1620 -0.4485
10912WAT     H244369   1.250   6.747   6.150  0.3422 -0.3117 -1.3763
10912WAT    EPW44370   1.211   6.769   6.086 -0.2915 -0.3825 -1.0203
10913WAT      O44371   7.175   4.554   3.279 -0.2872 -0.1231  0.2792
10913WAT     H144372   7.209   4.627   3.247  1.5322 -1.1903 -0.3432
10913WAT     H244373   7.146   4.512   3.208  0.8832 -1.0660  0.3303
10913WAT    EPW44374   7.175   4.559   3.264  0.1545 -0.4200  0.1948
10914WAT      O44375   6.762   3.884   4.022 -0.2184 -0.5290 -0.4987
10914WAT     H144376   6.750   3.805   3.988 -0.4849 -0.6443 -0.1527
10914WAT     H244377   6.685   3.903   4.058 -0.6782  0.5945 -1.9713
10914WAT    EPW44378   6.749   3.875   4.023 -0.3257 -0.3801 -0.6651
10915WAT      O44379   5.534   6.085   2.035 -0.2422  0.4122 -0.2550
10915WAT     H144380   5.600   6.142   2.042  0.1218  0.2450 -1.8489
10915WAT     H244381   5.483   6.120   1.974 -0.7790 -0.2489 -0.1967
10915WAT    EPW44382   5.536   6.098   2.027 -0.2678  0.2898 -0.4818
10916WAT      O44383   4.020   6.435   2.691  0.4351 -0.6514 -0.1618
10916WAT     H144384   4.002   6.381   2.757 -1.7459  0.7949  0.5311
10916WAT     H244385   3.958   6.417   2.632  0.9914 -0.3637 -0.8455
10916WAT    EPW44386   4.008   6.424   2.692  0.1951 -0.3952 -0.1604
10917WAT      O44387   1.202   6.975   1.586 -0.4543  0.1535  0.0470
10917WAT     H144388   1.133   7.021   1.612  0.8561  2.0701  0.2898
10917WAT     H244389   1.185   6.894   1.614 -0.8241  1.3255  3.6554
10917WAT    EPW44390   1.189   6.970   1.594 -0.3153  0.6097  0.6159
10918WAT      O44391   0.736   6.572   6.280 -0.1536 -0.4417  0.2516
10918WAT     H144392   0.745   6.565   6.366 -0.2899  1.9005  0.5264
10918WAT     H244393   0.652   6.594   6.269  0.3265  1.3907 -0.2249
10918WAT    EPW44394   0.725   6.574   6.291 -0.1028  0.1750  0.2218
10919WAT      O44395   4.871   7.127   4.924 -0.4752  0.5952 -0.1614
10919WAT     H144396   4.935   7.097   4.873  0.2741  0.0447  1.0530
10919WAT     H244397   4.800   7.089   4.892  0.0330 -0.0189 -0.5926
10919WAT    EPW44398   4.870   7.117   4.912 -0.2894  0.4231 -0.0457
10920WAT      O44399   3.408   5.032   2.933 -0.6542  0.4119  0.0860
10920WAT     H144400   3.356   4.972   2.968 -0.3562  0.3057  0.3542
10920WAT     H244401   3.404   5.015   2.847  0.2033 -0.6409  0.2274
10920WAT    EPW44402   3.400   5.020   2.926 -0.4835  0.2407  0.1465
10921WAT      O44403   0.147   3.725   2.522  0.4897  0.4147 -0.4717
10921WAT     H144404   0.228   3.746   2.549  0.9378 -1.9991  0.3162
10921WAT     H244405   0.153   3.728   2.435  1.2764  0.7389 -0.4207
10921WAT    EPW44406   0.160   3.729   2.513  0.6721  0.1060 -0.3478
10922WAT      O44407   1.709   5.617   3.415 -0.0146 -0.5714 -0.2443
10922WAT     H144408   1.741   5.676   3.470  1.5037 -0.9813 -0.6421
10922WAT     H244409   1.675   5.665   3.350 -1.1869 -0.1095  0.6740
10922WAT    EPW44410   1.709   5.632   3.414  0.0365 -0.5637 -0.1674
10923WAT      O44411   2.524   3.558   1.874 -0.0381 -0.3279 -0.2085
10923WAT     H144412   2.517   3.485   1.922 -0.0646 -0.6311 -0.6667
10923WAT     H244413   2.544   3.528   1.794 -0.9320  0.1022 -0.6102
10923WAT    EPW44414   2.526   3.543   1.869 -0.1741 -0.3092 -0.3355
10924WAT      O44415   1.482   0.384   6.081 -0.7633 -0.0544 -0.1083
10924WAT     H144416   1.433   0.411   6.013  0.5556  0.6343 -0.8377
10924WAT     H244417   1.558   0.364   6.044  0.0024  0.3713  1.1845
10924WAT    EPW44418   1.486   0.385   6.065 -0.4553  0.1102 -0.0251
10925WAT      O44419   6.284   5.766   1.759  0.0679  0.9314  0.2321
10925WAT     H144420   6.281   5.853   1.767 -2.1434  1.6267 -4.6118
10925WAT     H244421   6.199   5.743   1.759  0.5520 -1.0201 -0.2310
10925WAT    EPW44422   6.271   5.775   1.761 -0.1872  0.7459 -0.5518
10926WAT      O44423   0.457   1.797   5.548  0.6860 -0.3652  1.2715
10926WAT     H144424   0.526   1.750   5.524  0.4059  0.3819 -1.3487
10926WAT     H244425   0.390   1.743   5.535  0.4987  0.1638 -0.2665
10926WAT    EPW44426   0.457   1.782   5.543  0.6169 -0.1767  0.6573
10927WAT      O44427   5.123   3.898   5.253 -0.2218 -0.6757 -0.0467
10927WAT     H144428   5.190   3.842   5.245 -1.1166 -1.6339 -1.1455
10927WAT     H244429   5.143   3.961   5.196  0.2462 -0.4200  0.3900
10927WAT    EPW44430   5.136   3.899   5.243 -0.2849 -0.7795 -0.1445
10928WAT      O44431   0.413   3.189   4.523  0.0848  0.0975  0.6075
10928WAT     H144432   0.446   3.109   4.518 -0.5568 -0.1491  0.2524
10928WAT     H244433   0.463   3.235   4.468  0.2208 -0.1390  0.5306
10928WAT    EPW44434   0.426   3.184   4.514  0.0101  0.0262  0.5437
10929WAT      O44435   7.288   0.855   5.071  0.7355 -0.0528  0.0900
10929WAT     H144436   7.332   0.788   5.038  0.2588  0.5261 -1.8807
10929WAT     H244437   7.208   0.825   5.081  0.0714  0.6108 -2.4919
10929WAT    EPW44438   7.283   0.841   5.068  0.5670  0.1307 -0.5825
10930WAT      O44439   4.712   1.617   3.343  0.6629  0.3654 -0.1689
10930WAT     H144440   4.694   1.568   3.273  1.2241  1.4828 -1.1215
10930WAT     H244441   4.707   1.699   3.313  1.4158  0.8549  0.9760
10930WAT    EPW44442   4.708   1.622   3.329  0.8570  0.6028 -0.1405
10931WAT      O44443   5.200   6.624   5.380  0.2467 -0.0129 -0.0546
10931WAT     H144444   5.276   6.596   5.412 -0.7477  0.0341  2.6778
10931WAT     H244445   5.180   6.565   5.319  1.5227 -1.1864  0.6095
10931WAT    EPW44446   5.208   6.611   5.376  0.2883 -0.1793  0.4472
10932WAT      O44447   7.279   2.292   3.401  0.0190  0.0061  0.0133
10932WAT     H144448   7.217   2.235   3.426 -1.4884  1.4430 -0.3059
10932WAT     H244449   7.294   2.271   3.318 -2.7227  1.8278 -1.0803
10932WAT    EPW44450   7.272   2.280   3.393 -0.6087  0.4874 -0.1954
10933WAT      O44451   1.994   3.590   5.362 -0.6338 -0.1469 -0.3401
10933WAT     H144452   2.062   3.624   5.319 -0.6354  1.4822  0.8487
10933WAT     H244453   1.949   3.548   5.300 -0.1876  1.3763 -1.7605
10933WAT    EPW44454   1.998   3.589   5.347 -0.5681  0.3187 -0.3743
10934WAT      O44455   0.899   2.100   3.994  0.4970  0.1525 -0.1220
10934WAT     H144456   0.958   2.144   3.946  0.3530 -0.5310 -0.9610
10934WAT     H244457   0.947   2.063   4.057  0.9174 -0.1140 -0.5915
10934WAT    EPW44458   0.915   2.101   3.996  0.5378  0.0121 -0.3153
10935WAT      O44459   2.108   2.868   2.877 -0.4741 -0.3382 -0.0766
10935WAT     H144460   2.151   2.842   2.948 -0.9757 -0.2463  0.2617
10935WAT     H244461   2.050   2.805   2.863  0.6093 -1.1438 -1.3172
10935WAT    EPW44462   2.106   2.855   2.885 -0.3882 -0.4436 -0.2099
10936WAT      O44463   5.377   5.004   6.807  0.1217 -0.3356 -0.7074
10936WAT     H144464   5.448   5.053   6.798 -0.2619  0.0700 -1.6096
10936WAT     H244465   5.320   5.040   6.752 -0.0745 -1.9769 -1.6443
10936WAT    EPW44466   5.379   5.016   6.798  0.0360 -0.5181 -0.9791
10937WAT      O44467   7.113   2.241   1.875 -0.5211  0.0008  0.1742
10937WAT     H144468   7.089   2.173   1.825  2.6873 -0.8892 -0.4271
10937WAT     H244469   7.119   2.206   1.955  0.1341 -0.1991  0.0472
10937WAT    EPW44470   7.111   2.226   1.880  0.0497 -0.1602  0.0666
10938WAT      O44471   5.540   4.802   0.993  0.0759  0.0706 -0.3876
10938WAT     H144472   5.560   4.870   0.942  0.0117 -0.0942 -0.6304
10938WAT     H244473   5.456   4.814   1.013  0.0222 -0.0234 -0.5594
10938WAT    EPW44474   5.530   4.814   0.989  0.0585  0.0324 -0.4488
10939WAT      O44475   1.410   5.739   0.590  0.4583 -0.1428 -0.1221
10939WAT     H144476   1.371   5.817   0.592 -0.4453 -0.5925  0.4925
10939WAT     H244477   1.476   5.747   0.646 -1.9924 -0.9582  3.1976
10939WAT    EPW44478   1.414   5.751   0.598 -0.0372 -0.3297  0.4591
10940WAT      O44479   4.092   5.754   4.958 -0.6364  0.2373 -0.0064
10940WAT     H144480   4.013   5.717   4.962 -0.0595 -1.1206 -0.6874
10940WAT     H244481   4.092   5.809   5.027 -1.8578 -0.3353  0.4875
10940WAT    EPW44482   4.080   5.757   4.969 -0.7316 -0.0479 -0.0340
10941WAT      O44483   6.407   1.977   6.507 -0.1549 -0.4900 -0.3480
10941WAT     H144484   6.400   1.902   6.463  0.5927 -0.0107 -1.3244
10941WAT     H244485   6.403   1.952   6.590 -0.6619 -1.5276 -0.6630
10941WAT    EPW44486   6.405   1.963   6.512 -0.1194 -0.5725 -0.5388
10942WAT      O44487   2.894   4.127   6.274 -0.1125  0.1001  0.2010
10942WAT     H144488   2.977   4.146   6.293 -0.4765  0.4880  1.5217
10942WAT     H244489   2.870   4.191   6.221  0.4493 -0.0725 -0.2793
10942WAT    EPW44490   2.903   4.139   6.269 -0.0833  0.1319  0.3251
10943WAT      O44491   0.579   3.204   4.782  0.2656  0.2503 -0.6214
10943WAT     H144492   0.524   3.206   4.715  0.5365 -0.3259 -0.8643
10943WAT     H244493   0.626   3.132   4.769  0.9302  0.6134 -0.2956
10943WAT    EPW44494   0.578   3.193   4.770  0.4038  0.2188 -0.6092
10944WAT      O44495   2.410   5.704   3.983 -0.3099  0.3080 -0.6971
10944WAT     H144496   2.327   5.685   4.003 -0.1259 -1.3757 -1.4198
10944WAT     H244497   2.411   5.791   3.986 -2.0192  0.3622 -0.3274
10944WAT    EPW44498   2.398   5.714   3.986 -0.5352  0.0673 -0.7493
10945WAT      O44499   2.262   3.287   2.697 -0.4712  0.3880 -0.3997
10945WAT     H144500   2.323   3.263   2.639 -0.7679  1.4636 -1.1760
10945WAT     H244501   2.278   3.235   2.765  0.7078 -0.0090 -0.9472
10945WAT    EPW44502   2.273   3.276   2.699 -0.3409  0.4882 -0.5952
10946WAT      O44503   5.721   6.143   4.994 -0.0754  0.2394  0.0402
10946WAT     H144504   5.800   6.129   5.027 -0.4774  0.5487  1.1977
10946WAT     H244505   5.720   6.096   4.921  1.1407  0.1742  0.0499
10946WAT    EPW44506   5.733   6.134   4.988  0.0449  0.2754  0.2126
10947WAT      O44507   0.394   4.433   7.371 -0.2432 -0.7689  0.5422
10947WAT     H144508   0.454   4.478   7.327 -0.7795  1.1644  1.6965
10947WAT     H244509   0.357   4.383   7.309  0.7290 -0.0266 -0.6836
10947WAT    EPW44510   0.397   4.432   7.355 -0.1788 -0.3737  0.5316
10948WAT      O44511   6.635   0.708   5.637  0.1313 -0.1163  0.2805
10948WAT     H144512   6.641   0.642   5.580 -1.5317  0.1381 -0.2353
10948WAT     H244513   6.718   0.733   5.648  0.7616 -1.9883  0.1489
10948WAT    EPW44514   6.649   0.702   5.630 -0.0212 -0.3552  0.1848
10949WAT      O44515   3.521   0.196   0.506  0.3511  0.0837  0.0835
10949WAT     H144516   3.602   0.206   0.473  0.6121 -0.2899  0.5880
10949WAT     H244517   3.470   0.197   0.436  0.8282  0.0194 -0.2735
10949WAT    EPW44518   3.526   0.197   0.491  0.4601  0.0190  0.1053
10950WAT      O44519   0.620   1.160   6.846 -1.0618  0.2452  0.1694
10950WAT     H144520   0.648   1.090   6.802 -1.8516  0.5173 -0.8043
10950WAT     H244521   0.593   1.127   6.923 -2.8473 -0.7849 -0.8251
10950WAT    EPW44522   0.620   1.145   6.851 -1.4422  0.1332 -0.1213
10951WAT      O44523   6.414   2.637   4.719 -0.6857  0.0522 -0.2791
10951WAT     H144524   6.412   2.715   4.680 -0.6300  0.6458  0.8668
10951WAT     H244525   6.335   2.604   4.704 -0.2667 -0.2899 -1.9432
10951WAT    EPW44526   6.402   2.644   4.711 -0.6156  0.0893 -0.3556
10952WAT      O44527   6.895   1.812   3.318  0.3519  0.1334  0.0015
10952WAT     H144528   6.979   1.835   3.325  0.7709 -1.4630  0.7448
10952WAT     H244529   6.852   1.887   3.331  1.6274  0.6121  1.8988
10952WAT    EPW44530   6.901   1.827   3.321  0.6022 -0.0317  0.3916
10953WAT      O44531   4.892   1.853   5.671  0.2350  0.3301 -0.1334
10953WAT     H144532   4.955   1.821   5.721 -0.2787  0.6351  0.7254
10953WAT     H244533   4.935   1.890   5.605  0.9558  0.5629  0.4585
10953WAT    EPW44534   4.908   1.854   5.668  0.2655  0.4096  0.0809
10954WAT      O44535   5.875   5.932   6.210 -0.4498  0.2158  0.2442
10954WAT     H144536   5.928   5.959   6.273 -1.5030  0.6766  0.9727
10954WAT     H244537   5.841   5.858   6.243  0.7079 -0.8127 -0.7748
10954WAT    EPW44538   5.877   5.925   6.224 -0.4344  0.1320  0.2013
10955WAT      O44539   6.777   2.897   6.263 -0.0847 -0.7297 -0.3554
10955WAT     H144540   6.803   2.948   6.329 -0.3244 -2.1565  0.8841
10955WAT     H244541   6.842   2.840   6.255 -0.5816 -1.2625 -0.5862
10955WAT    EPW44542   6.790   2.896   6.272 -0.1935 -1.0192 -0.2064
10956WAT      O44543   6.406   6.296   3.392  0.3684 -0.1044 -0.6273
10956WAT     H144544   6.339   6.259   3.351 -0.9847  2.3450 -0.8254
10956WAT     H244545   6.446   6.342   3.330 -0.2074  1.6515  0.2433
10956WAT    EPW44546   6.402   6.297   3.377  0.0834  0.5168 -0.5279
10957WAT      O44547   1.779   1.821   1.570 -0.6439  0.1850  0.5236
10957WAT     H144548   1.840   1.820   1.508 -2.3438  1.0190 -1.2686
10957WAT     H244549   1.752   1.904   1.572 -1.2202  0.0004  1.8038
10957WAT    EPW44550   1.784   1.833   1.561 -0.9801  0.2809  0.4479
10958WAT      O44551   2.323   3.194   5.883 -0.2505 -0.4228  0.6225
10958WAT     H144552   2.289   3.207   5.962 -1.1464 -3.2443  0.8166
10958WAT     H244553   2.254   3.198   5.829  0.3377  1.3798 -0.0816
10958WAT    EPW44554   2.308   3.196   5.886 -0.2959 -0.5733  0.5472
10959WAT      O44555   1.517   4.768   5.896  0.0469  0.2008 -0.4786
10959WAT     H144556   1.527   4.844   5.853  0.6477  0.1097 -0.4999
10959WAT     H244557   1.460   4.724   5.846 -1.4084  1.1620  0.2384
10959WAT    EPW44558   1.510   4.773   5.882 -0.0794  0.3294 -0.3758
10960WAT      O44559   6.950   7.235   4.359  0.0886 -0.1998  0.2708
10960WAT     H144560   6.894   7.174   4.387  0.4363 -0.0187  1.4244
10960WAT     H244561   6.965   7.212   4.276 -0.5033 -1.1404  0.4039
10960WAT    EPW44562   6.944   7.222   4.351  0.0526 -0.3120  0.4609
10961WAT      O44563   6.055   4.755   1.872 -0.3918  0.5833  0.0878
10961WAT     H144564   6.046   4.743   1.786 -0.9915  1.7809 -0.0365
10961WAT     H244565   6.115   4.818   1.879 -0.1697  0.3309  0.5661
10961WAT    EPW44566   6.063   4.763   1.861 -0.4476  0.7229  0.1401
10962WAT      O44567   1.806   2.730   6.275  0.0571  0.0665  0.6298
10962WAT     H144568   1.874   2.712   6.224  0.3707  0.3030  0.9556
10962WAT     H244569   1.826   2.688   6.350  0.8465  1.7691  1.4397
10962WAT    EPW44570   1.819   2.721   6.279  0.2200  0.3529  0.7976
10963WAT      O44571   2.192   5.078   2.011 -0.1266 -0.0206  0.3033
10963WAT     H144572   2.171   5.065   1.928  1.6266  0.4557 -0.2547
10963WAT     H244573   2.207   4.998   2.041 -0.8524 -0.2009  0.2185
10963WAT    EPW44574   2.191   5.064   2.003  0.0251  0.0231  0.2083
10964WAT      O44575   1.726   0.839   5.973  0.1822 -0.4506 -0.4015
10964WAT     H144576   1.767   0.902   5.927  0.7846 -0.3797  0.2194
10964WAT     H244577   1.708   0.779   5.912 -0.8607  0.5284 -1.1036
10964WAT    EPW44578   1.729   0.839   5.957  0.1171 -0.2955 -0.4135
10965WAT      O44579   3.977   1.954   5.829  0.2023  0.0609 -0.2634
10965WAT     H144580   3.959   1.954   5.744 -0.6276  0.2582 -0.0987
10965WAT     H244581   4.043   1.897   5.836 -1.6987 -2.3632 -0.6692
10965WAT    EPW44582   3.984   1.945   5.817 -0.2011 -0.2681 -0.2990
10966WAT      O44583   5.691   1.233   5.396  0.5496 -0.4011 -0.0719
10966WAT     H144584   5.746   1.200   5.336  0.9658  1.6633 -0.9076
10966WAT     H244585   5.629   1.271   5.349 -0.3185 -0.6267  0.8533
10966WAT    EPW44586   5.690   1.234   5.380  0.4828 -0.1294 -0.0587
10967WAT      O44587   2.527   4.830   0.926 -0.0222 -0.3563  0.2205
10967WAT     H144588   2.514   4.745   0.937 -0.3373 -0.1521  1.6209
10967WAT     H244589   2.490   4.866   0.996 -1.3921  1.0862 -1.1682
10967WAT    EPW44590   2.520   4.823   0.938 -0.2711 -0.1130  0.2222
10968WAT      O44591   1.803   0.974   3.950 -0.3381  0.0737  0.0622
10968WAT     H144592   1.849   0.903   3.973  0.4328  0.7251  0.5798
10968WAT     H244593   1.726   0.941   3.927  0.4822 -1.0872 -1.1681
10968WAT    EPW44594   1.798   0.959   3.950 -0.1031 -0.0016 -0.0431
10969WAT      O44595   5.851   5.683   4.257  0.1421 -0.5167  0.0136
10969WAT     H144596   5.810   5.654   4.186 -1.0407 -0.7926  0.7751
10969WAT     H244597   5.913   5.736   4.225  0.6542 -1.8276 -1.2755
10969WAT    EPW44598   5.854   5.687   4.242  0.0431 -0.7511 -0.0644
10970WAT      O44599   1.877   3.056   1.550  0.2703 -0.2462 -0.0138
10970WAT     H144600   1.887   3.068   1.464 -1.7528  1.1131 -0.1203
10970WAT     H244601   1.907   3.130   1.585 -0.1490 -0.2405  0.3478
10970WAT    EPW44602   1.883   3.069   1.543 -0.0905 -0.0446  0.0239
10971WAT      O44603   1.107   7.096   1.839 -0.0026 -0.1784 -0.1341
10971WAT     H144604   1.160   7.154   1.801  0.8639 -1.8255 -1.5646
10971WAT     H244605   1.087   7.134   1.915  0.7840  1.8258 -0.8485
10971WAT    EPW44606   1.112   7.110   1.844  0.2416 -0.1256 -0.4510
10972WAT      O44607   3.586   7.226   2.951  0.0811  0.1026  0.4652
10972WAT     H144608   3.666   7.192   2.958  0.4860  0.7113 -0.8084
10972WAT     H244609   3.586   7.262   2.871 -1.4099  0.2622  0.5069
10972WAT    EPW44610   3.598   7.227   2.940 -0.0793  0.2161  0.2832
10973WAT      O44611   6.563   1.667   0.293 -0.1774  0.1518 -0.4233
10973WAT     H144612   6.641   1.669   0.331 -0.7145  1.6066  0.7629
10973WAT     H244613   6.580   1.675   0.208  1.0364 -2.3121 -0.4768
10973WAT    EPW44614   6.577   1.669   0.286 -0.0774  0.0027 -0.2560
10974WAT      O44615   2.359   5.629   2.906  0.1296 -0.6215 -0.2699
10974WAT     H144616   2.374   5.591   2.829 -0.9199 -0.4796 -0.5684
10974WAT     H244617   2.350   5.562   2.961  3.1679 -0.7273  0.2665
10974WAT    EPW44618   2.360   5.614   2.903  0.4234 -0.6162 -0.2348
10975WAT      O44619   1.268   4.646   5.797  0.0411  0.1538  0.7171
10975WAT     H144620   1.225   4.687   5.733  0.9809  3.1278  1.8270
10975WAT     H244621   1.213   4.582   5.821 -1.5330  0.7031 -1.1576
10975WAT    EPW44622   1.254   4.642   5.791 -0.0526  0.6742  0.6041
10976WAT      O44623   0.962   3.059   0.375  0.3658 -0.1045 -0.6764
10976WAT     H144624   0.991   3.029   0.451 -1.1680  0.4081  0.1474
10976WAT     H244625   0.883   3.024   0.367 -0.3168  1.4324 -1.0499
10976WAT    EPW44626   0.955   3.049   0.385  0.0384  0.1982 -0.6099
10977WAT      O44627   2.597   4.215   3.319 -0.4630  0.4711 -0.3097
10977WAT     H144628   2.659   4.161   3.291 -0.1631  0.4514  0.3550
10977WAT     H244629   2.524   4.184   3.283 -0.2449 -0.1734 -0.2171
10977WAT    EPW44630   2.596   4.202   3.310 -0.3865  0.3730 -0.1978
10978WAT      O44631   5.431   6.240   0.538  0.1750  0.1620 -0.1498
10978WAT     H144632   5.516   6.222   0.546  0.1626 -0.8106 -1.8147
10978WAT     H244633   5.399   6.170   0.497 -1.4407  0.5113  0.4558
10978WAT    EPW44634   5.439   6.227   0.533 -0.0655  0.0699 -0.3063
10979WAT      O44635   7.213   4.789   3.108 -0.0667  0.0327 -0.5024
10979WAT     H144636   7.138   4.822   3.140 -0.4056  0.0966 -1.3317
10979WAT     H244637   7.273   4.848   3.130 -0.3646  0.2814 -0.3543
10979WAT    EPW44638   7.211   4.802   3.116 -0.1608  0.0789 -0.6030
10980WAT      O44639   1.731   3.212   0.677  0.1094 -0.1987 -0.3706
10980WAT     H144640   1.669   3.254   0.722 -0.5939 -0.5661 -0.9824
10980WAT     H244641   1.697   3.133   0.663  1.1039 -0.7301  0.0922
10980WAT    EPW44642   1.717   3.207   0.682  0.1524 -0.3315 -0.3926
10981WAT      O44643   5.160   3.222   4.179  0.3225  0.4682  0.4657
10981WAT     H144644   5.175   3.138   4.196  2.1286  0.7840  0.5706
10981WAT     H244645   5.083   3.237   4.218 -1.2234 -1.6776 -1.5164
10981WAT    EPW44646   5.151   3.212   4.188  0.3610  0.1978  0.1884
10982WAT      O44647   6.181   0.755   1.160 -0.0231 -0.1693  0.2693
10982WAT     H144648   6.164   0.706   1.230  0.4473 -1.5138 -0.5272
10982WAT     H244649   6.219   0.826   1.193  3.1410 -2.1242  1.2467
10982WAT    EPW44650   6.184   0.759   1.175  0.5138 -0.6567  0.2960
10983WAT      O44651   5.999   1.085   1.269  0.2874 -0.3091 -0.0895
10983WAT     H144652   5.980   1.167   1.292  0.0201 -0.0951 -1.0219
10983WAT     H244653   6.038   1.052   1.340  0.6314  0.7005  0.2100
10983WAT    EPW44654   6.002   1.092   1.283  0.2987 -0.1283 -0.1830
10984WAT      O44655   2.003   4.718   5.142  0.1746 -0.2776  0.2896
10984WAT     H144656   1.975   4.657   5.086  2.1453 -1.3007  0.3347
10984WAT     H244657   1.930   4.746   5.179 -0.8828 -2.1194 -0.2478
10984WAT    EPW44658   1.988   4.713   5.139  0.3095 -0.7008  0.2169
10985WAT      O44659   3.405   6.937   3.491 -0.7725  0.0187  0.2199
10985WAT     H144660   3.358   6.966   3.424 -0.1094  0.6304  0.0003
10985WAT     H244661   3.434   6.859   3.465 -0.5958  0.2128 -0.1670
10985WAT    EPW44662   3.402   6.930   3.477 -0.6484  0.1377  0.1303
10986WAT      O44663   4.057   1.168   1.155  0.0582  0.4385 -0.5043
10986WAT     H144664   4.087   1.247   1.134  1.2518 -0.0903 -0.8518
10986WAT     H244665   4.034   1.134   1.078 -1.6887  0.8965 -0.2362
10986WAT    EPW44666   4.058   1.175   1.140 -0.0236  0.4280 -0.5160
10987WAT      O44667   4.902   2.391   2.813 -0.5567 -0.5923  0.0983
10987WAT     H144668   4.913   2.348   2.888 -0.7481 -1.6064 -0.4437
10987WAT     H244669   4.932   2.471   2.831 -1.5409 -0.5041  1.5598
10987WAT    EPW44670   4.908   2.396   2.827 -0.7304 -0.7291  0.2342
10988WAT      O44671   4.996   2.571   2.490  0.3764 -0.4156 -0.1962
10988WAT     H144672   5.047   2.618   2.542  0.3842  1.2392 -1.5945
10988WAT     H244673   5.029   2.586   2.410 -1.2129 -0.7060 -0.9545
10988WAT    EPW44674   5.009   2.580   2.486  0.1428 -0.2140 -0.5148
10989WAT      O44675   3.522   0.171   4.261 -0.6396 -0.1872  0.5332
10989WAT     H144676   3.598   0.129   4.259  0.0856  1.0387  0.6881
10989WAT     H244677   3.475   0.133   4.199  0.2612 -0.6998  0.1474
10989WAT    EPW44678   3.527   0.159   4.252 -0.3994 -0.0818  0.4991
10990WAT      O44679   1.663   1.246   5.433 -0.2838 -0.1485  0.2509
10990WAT     H144680   1.725   1.308   5.437 -0.0268 -0.4161  0.5320
10990WAT     H244681   1.628   1.257   5.354 -0.0218  0.1466  0.1716
10990WAT    EPW44682   1.667   1.257   5.422 -0.2071 -0.1445  0.2807
10991WAT      O44683   0.542   1.993   3.716 -0.1118 -0.0872  0.1816
10991WAT     H144684   0.560   2.072   3.749 -0.2767 -0.2021  0.5563
10991WAT     H244685   0.549   2.005   3.630  1.0207  0.0515  0.2821
10991WAT    EPW44686   0.545   2.007   3.708  0.0311 -0.0837  0.2518
10992WAT      O44687   1.696   0.082   1.758  0.1125 -0.6005 -0.0457
10992WAT     H144688   1.686   0.168   1.763 -0.9320 -0.6993 -0.1916
10992WAT     H244689   1.773   0.072   1.718 -0.1025  0.2658 -0.6962
10992WAT    EPW44690   1.706   0.093   1.753 -0.0735 -0.4871 -0.1633
10993WAT      O44691   3.135   4.680   7.210 -0.0846  0.3160  0.7841
10993WAT     H144692   3.078   4.663   7.274 -0.0316  1.6413  1.2127
10993WAT     H244693   3.118   4.617   7.151  0.1396 -1.1882  2.2396
10993WAT    EPW44694   3.124   4.668   7.210 -0.0437  0.2895  1.0624
10994WAT      O44695   2.936   3.948   0.836  0.3106 -0.6916 -0.1108
10994WAT     H144696   2.861   3.990   0.850  0.2324 -0.8841  0.0489
10994WAT     H244697   2.968   3.986   0.764  0.2439 -0.3553  0.0383
10994WAT    EPW44698   2.930   3.960   0.827  0.2892 -0.6703 -0.0652
10995WAT      O44699   1.115   0.212   7.089  0.7333 -0.4859  0.6232
10995WAT     H144700   1.106   0.237   7.172  2.9459  0.7066  0.5838
10995WAT     H244701   1.181   0.155   7.091  0.2440 -1.1002 -0.2044
10995WAT    EPW44702   1.124   0.207   7.102  0.9879 -0.4005  0.4951
10996WAT      O44703   1.395   7.114   4.052 -0.3413  0.2144 -0.4383
10996WAT     H144704   1.378   7.033   4.078 -1.9032  0.9517  1.0387
10996WAT     H244705   1.453   7.104   3.988  0.6773 -1.9680  0.7391
10996WAT    EPW44706   1.401   7.101   4.046 -0.4216  0.0010 -0.0462
10997WAT      O44707   4.684   0.466   3.054  0.1050  0.3725 -0.3694
10997WAT     H144708   4.717   0.529   3.004 -2.0498  3.9768  2.2764
10997WAT     H244709   4.733   0.468   3.126 -0.8690  0.0507  0.3363
10997WAT    EPW44710   4.696   0.475   3.057 -0.3572  0.8574  0.1257
10998WAT      O44711   7.117   4.333   5.458 -0.4927 -0.4780  0.5235
10998WAT     H144712   7.038   4.369   5.452  1.3146  3.9315 -0.5939
10998WAT     H244713   7.148   4.338   5.377  0.9814 -2.2342  0.8993
10998WAT    EPW44714   7.109   4.339   5.445 -0.0080 -0.0861  0.4140
10999WAT      O44715   1.411   6.262   5.240 -0.1398 -0.1092 -0.2998
10999WAT     H144716   1.404   6.333   5.190  0.1066 -0.3238 -0.6428
10999WAT     H244717   1.433   6.293   5.318 -2.1270  0.3801  0.1258
10999WAT    EPW44718   1.413   6.277   5.244 -0.3970 -0.0687 -0.2876
11000WAT      O44719   6.463   0.280   0.090  0.4597  0.5568 -0.4140
11000WAT     H144720   6.508   0.324   0.150  0.3607  0.0478  0.0435
11000WAT     H244721   6.389   0.259   0.131 -0.0266  1.0200 -1.0223
11000WAT    EPW44722   6.459   0.283   0.105  0.3732  0.5501 -0.4363
11001WAT      O44723   3.568   3.717   0.148 -0.8410 -0.0072 -0.3770
11001WAT     H144724   3.574   3.691   0.231  0.7431 -2.7697 -1.2384
11001WAT     H244725   3.482   3.716   0.132 -1.1157 -0.2143  0.9858
11001WAT    EPW44726   3.556   3.713   0.158 -0.6476 -0.4459 -0.3029
11002WAT      O44727   6.479   5.513   7.382 -0.0972  0.7717 -0.1609
11002WAT     H144728   6.433   5.570   7.334 -0.9923  1.2947  1.2705
11002WAT     H244729   6.494   5.447   7.326 -2.9876  0.3674 -0.5819
11002WAT    EPW44730   6.475   5.511   7.366 -0.6564  0.7893 -0.0117
11003WAT      O44731   5.801   6.242   1.820 -0.1336  0.7587 -0.2546
11003WAT     H144732   5.723   6.272   1.848 -0.1099 -0.7802  1.6970
11003WAT     H244733   5.858   6.294   1.859 -0.1615  0.8038 -0.2741
11003WAT    EPW44734   5.798   6.254   1.830 -0.1342  0.5380  0.0308
11004WAT      O44735   4.886   5.847   7.158  0.0663  0.3649 -0.0665
11004WAT     H144736   4.895   5.921   7.111  0.9370  1.0665  1.1422
11004WAT     H244737   4.836   5.796   7.107 -1.1974  2.0572 -0.6245
11004WAT    EPW44738   4.880   5.851   7.143  0.0083  0.7185  0.0297
11005WAT      O44739   0.261   0.348   1.614  0.2345 -0.2665  0.1940
11005WAT     H144740   0.182   0.359   1.578  0.0903 -3.3880 -0.7278
11005WAT     H244741   0.243   0.312   1.691  0.7398 -0.7758  0.0779
11005WAT    EPW44742   0.247   0.344   1.620  0.2879 -0.8028  0.0407
11006WAT      O44743   0.756   3.244   5.005 -0.4181  0.2543 -0.3551
11006WAT     H144744   0.688   3.263   4.953 -1.6951  1.2844  1.6000
11006WAT     H244745   0.736   3.165   5.036  0.2288 -0.2525 -1.1640
11006WAT    EPW44746   0.743   3.235   5.002 -0.5112  0.3316 -0.1858
11007WAT      O44747   4.729   4.896   1.391 -0.3679 -0.2388  0.4620
11007WAT     H144748   4.802   4.892   1.439 -0.8127  1.0097  1.2879
11007WAT     H244749   4.757   4.918   1.312  0.2619 -1.0632  0.4442
11007WAT    EPW44750   4.744   4.899   1.387 -0.3406 -0.1761  0.5814
11008WAT      O44751   6.688   5.232   5.799  0.5819  0.7082 -0.1906
11008WAT     H144752   6.601   5.231   5.808  0.7323  0.1821  1.5461
11008WAT     H244753   6.713   5.294   5.854  1.3182  0.8415 -0.6694
11008WAT    EPW44754   6.679   5.241   5.809  0.7129  0.6502 -0.0048
11009WAT      O44755   4.223   0.353   3.956 -0.1558 -0.0639 -0.2022
11009WAT     H144756   4.233   0.438   3.942  1.8360  0.1528  2.0145
11009WAT     H244757   4.258   0.340   4.034 -1.7857 -2.6949  0.2301
11009WAT    EPW44758   4.229   0.364   3.965 -0.1023 -0.4205  0.1891
11010WAT      O44759   3.083   3.157   0.211 -0.4516  0.3495 -0.2544
11010WAT     H144760   3.126   3.142   0.286  0.0677  0.9519 -0.4193
11010WAT     H244761   3.037   3.229   0.229  0.4632  1.0987 -0.8163
11010WAT    EPW44762   3.083   3.165   0.225 -0.2397  0.5491 -0.3617
11011WAT      O44763   2.693   0.594   3.320  0.3348 -0.3931  0.9411
11011WAT     H144764   2.671   0.661   3.269  1.1237 -0.3204  0.6794
11011WAT     H244765   2.618   0.552   3.334  0.1717 -0.6861 -0.6693
11011WAT    EPW44766   2.679   0.597   3.315  0.4272 -0.4257  0.6645
11012WAT      O44767   2.292   3.673   5.307  0.9802  0.4526  0.4057
11012WAT     H144768   2.365   3.645   5.268 -0.2421 -0.4012 -1.4205
11012WAT     H244769   2.302   3.759   5.310  1.1416  0.6044 -2.0174
11012WAT    EPW44770   2.304   3.682   5.302  0.8235  0.3489 -0.2220
11013WAT      O44771   6.976   5.992   2.817  0.1055 -0.3174  0.0917
11013WAT     H144772   7.008   5.974   2.737 -0.4814 -0.8342 -0.0354
11013WAT     H244773   6.944   6.073   2.809 -0.3265 -0.5223 -0.3269
11013WAT    EPW44774   6.976   6.001   2.804 -0.0450 -0.4240  0.0111
11014WAT      O44775   0.241   4.606   5.086  0.2850  0.2621  0.3989
11014WAT     H144776   0.278   4.666   5.138  0.5483  0.1153  0.3832
11014WAT     H244777   0.156   4.625   5.090  0.4832  1.6410 -0.8272
11014WAT    EPW44778   0.234   4.618   5.094  0.3532  0.4441  0.2155
11015WAT      O44779   1.599   4.602   2.922 -0.0659  0.4317 -0.1679
11015WAT     H144780   1.650   4.534   2.903  0.5078  1.0869 -1.0319
11015WAT     H244781   1.548   4.611   2.851 -0.1504  0.8929 -0.0538
11015WAT    EPW44782   1.599   4.593   2.909  0.0064  0.5966 -0.2787
11016WAT      O44783   0.169   6.841   3.355 -0.1610 -0.1723 -0.1300
11016WAT     H144784   0.143   6.765   3.322 -0.1275  0.0329 -0.6391
11016WAT     H244785   0.244   6.858   3.313  0.6364 -0.5848  1.0655
11016WAT    EPW44786   0.176   6.832   3.344 -0.0383 -0.2029 -0.0286
11017WAT      O44787   2.677   4.507   7.411  0.1476 -0.3736 -0.2504
11017WAT     H144788   2.606   4.548   7.440 -0.2709 -2.3210  1.7342
11017WAT     H244789   2.721   4.488   7.484  1.9279 -0.6290 -1.3289
11017WAT    EPW44790   2.673   4.511   7.426  0.3488 -0.6990 -0.1166
11018WAT      O44791   1.844   4.780   2.391  0.6719 -0.0156 -0.0419
11018WAT     H144792   1.784   4.741   2.441 -0.6254  0.0350 -1.4870
11018WAT     H244793   1.919   4.765   2.433 -0.2613 -0.6993  1.4471
11018WAT    EPW44794   1.846   4.772   2.405  0.3424 -0.1092 -0.0354
11019WAT      O44795   5.889   6.994   5.522  0.1699  0.3802 -0.3250
11019WAT     H144796   5.828   6.956   5.472  0.7861 -0.7606 -0.2360
11019WAT     H244797   5.847   7.012   5.596 -0.2413  0.2908 -0.5346
11019WAT    EPW44798   5.874   6.991   5.525  0.2001  0.1984 -0.3428
11020WAT      O44799   4.631   6.984   5.253  0.0449  0.1969 -0.4092
11020WAT     H144800   4.613   7.043   5.314 -0.3692  0.1104 -0.4471
11020WAT     H244801   4.593   7.016   5.181  0.1061  0.0540 -0.5057
11020WAT    EPW44802   4.623   6.997   5.251 -0.0072  0.1630 -0.4290
11021WAT      O44803   2.375   2.870   1.925  0.2315  0.6807  0.0883
11021WAT     H144804   2.428   2.877   1.994 -0.1770  1.2934  0.3540
11021WAT     H244805   2.308   2.823   1.956 -0.5033  1.9231  0.4779
11021WAT    EPW44806   2.373   2.864   1.940  0.0626  0.9547  0.1851
11022WAT      O44807   0.702   4.572   4.208  0.0548 -0.0113  0.3145
11022WAT     H144808   0.713   4.487   4.225 -2.6266 -0.3288  0.8808
11022WAT     H244809   0.654   4.572   4.135 -2.0622  0.8901  1.6265
11022WAT    EPW44810   0.696   4.559   4.200 -0.6540  0.0749  0.5919
11023WAT      O44811   6.331   3.512   5.792 -0.3313 -0.1952 -0.2406
11023WAT     H144812   6.374   3.588   5.787  0.1998 -0.3749  1.2242
11023WAT     H244813   6.331   3.494   5.877  0.4505 -2.3721 -0.6418
11023WAT    EPW44814   6.337   3.521   5.804 -0.1373 -0.5434 -0.0835
11024WAT      O44815   2.372   1.322   6.471 -0.4816 -0.1160 -0.1779
11024WAT     H144816   2.342   1.302   6.551 -2.2299  0.4428 -0.6344
11024WAT     H244817   2.350   1.406   6.461 -2.1674 -0.6879 -1.9682
11024WAT    EPW44818   2.364   1.331   6.481 -0.9889 -0.1179 -0.5098
11025WAT      O44819   0.851   5.905   7.267 -0.5564 -0.1574  1.0375
11025WAT     H144820   0.869   5.983   7.232 -0.2313 -1.1219 -1.0604
11025WAT     H244821   0.930   5.872   7.283 -0.6448 -0.7977  0.1745
11025WAT    EPW44822   0.865   5.912   7.265 -0.5214 -0.3944  0.6001
11026WAT      O44823   5.795   0.819   3.797 -0.0222  0.0298 -0.7272
11026WAT     H144824   5.754   0.755   3.755 -0.7414 -0.0245  0.0352
11026WAT     H244825   5.878   0.810   3.771  0.2758 -2.3873  0.7797
11026WAT    EPW44826   5.801   0.808   3.787 -0.0844 -0.3353 -0.3920
11027WAT      O44827   7.025   0.363   3.278 -0.1895 -0.3361 -0.2130
11027WAT     H144828   7.088   0.304   3.279  0.2493  0.0948 -1.1220
11027WAT     H244829   7.057   0.429   3.325  0.8037  0.5950 -2.0706
11027WAT    EPW44830   7.039   0.364   3.285  0.0220 -0.1349 -0.6217
11028WAT      O44831   1.119   4.139   6.596  0.0811  0.1933  0.2271
11028WAT     H144832   1.103   4.062   6.634 -0.2708  0.0699 -0.1693
11028WAT     H244833   1.207   4.143   6.596  0.1319 -0.6937 -0.7119
11028WAT    EPW44834   1.130   4.128   6.602  0.0366  0.0441  0.0298
11029WAT      O44835   3.427   1.663   0.658 -0.0585 -0.5572 -0.7953
11029WAT     H144836   3.452   1.740   0.625  0.1528  1.1024  2.7417
11029WAT     H244837   3.342   1.659   0.638 -0.1717  0.8501 -0.7219
11029WAT    EPW44838   3.418   1.674   0.650 -0.0440 -0.1042 -0.2620
11030WAT      O44839   6.891   6.825   4.379  0.5574 -0.5041 -0.2140
11030WAT     H144840   6.892   6.768   4.445 -2.4159 -0.1121  0.2993
11030WAT     H244841   6.859   6.898   4.414 -3.7101 -1.0127 -2.4249
11030WAT    EPW44842   6.886   6.827   4.394 -0.5122 -0.5213 -0.4648
11031WAT      O44843   3.270   2.747   5.798 -0.2367 -0.0371  0.0217
11031WAT     H144844   3.273   2.822   5.843 -0.1198 -0.3805  0.6000
11031WAT     H244845   3.300   2.769   5.719  0.8901  0.3046  0.5189
11031WAT    EPW44846   3.275   2.761   5.793 -0.0530 -0.0373  0.1806
11032WAT      O44847   2.218   6.286   2.187 -0.0878 -0.3612 -0.3153
11032WAT     H144848   2.256   6.208   2.199  0.5787 -0.3037 -1.8187
11032WAT     H244849   2.181   6.303   2.264 -0.5856 -2.3373 -0.0619
11032WAT    EPW44850   2.218   6.277   2.200 -0.0628 -0.6446 -0.4999
11033WAT      O44851   5.260   2.951   1.421  0.2934 -0.3452  0.0255
11033WAT     H144852   5.259   3.027   1.465  0.6254  0.7853 -1.7870
11033WAT     H244853   5.177   2.925   1.423 -0.2038  1.0341 -0.8268
11033WAT    EPW44854   5.248   2.959   1.428  0.2690  0.0256 -0.3681
11034WAT      O44855   4.119   3.569   1.341  0.4472  0.3235 -0.5631
11034WAT     H144856   4.091   3.526   1.412 -0.7869 -1.2079 -1.9075
11034WAT     H244857   4.063   3.636   1.335  0.9285  0.8081  0.2282
11034WAT    EPW44858   4.106   3.572   1.351  0.3360  0.1689 -0.6448
11035WAT      O44859   1.418   6.150   3.825  0.0772 -0.2795 -0.1116
11035WAT     H144860   1.490   6.101   3.837 -1.1144 -2.0664  0.0347
11035WAT     H244861   1.357   6.093   3.802 -1.3443  1.1850 -0.1749
11035WAT    EPW44862   1.420   6.135   3.824 -0.3088 -0.3271 -0.0993
11036WAT      O44863   3.125   3.313   5.826 -0.4259 -0.4893  0.0226
11036WAT     H144864   3.176   3.379   5.852 -0.0622 -1.4320  1.8097
11036WAT     H244865   3.086   3.345   5.754  1.1509  0.9770 -0.2491
11036WAT    EPW44866   3.127   3.328   5.819 -0.1393 -0.4119  0.2465
11037WAT      O44867   2.992   1.418   2.392  0.1337 -0.3415 -0.5425
11037WAT     H144868   3.066   1.420   2.345  1.5332 -0.3981  1.5039
11037WAT     H244869   3.004   1.350   2.445 -1.0990  0.0720  0.2989
11037WAT    EPW44870   3.005   1.409   2.393  0.1584 -0.2888 -0.1159
11038WAT      O44871   6.448   5.435   5.358 -0.1547 -0.0375 -0.0009
11038WAT     H144872   6.471   5.383   5.424 -0.1360  1.4838  1.2477
11038WAT     H244873   6.405   5.382   5.304  1.6021 -1.7814  0.2063
11038WAT    EPW44874   6.445   5.420   5.360  0.1076 -0.0704  0.2141
11039WAT      O44875   1.482   6.935   3.056 -0.5676  0.9399  0.5177
11039WAT     H144876   1.482   7.018   3.029 -1.5833  1.2050  1.2867
11039WAT     H244877   1.554   6.930   3.105 -1.3444  1.8469  1.8172
11039WAT    EPW44878   1.493   6.946   3.059 -0.8324  1.1130  0.8232
11040WAT      O44879   7.094   4.451   1.728  0.6079 -0.1834 -0.3460
11040WAT     H144880   7.163   4.482   1.771 -0.2439  1.7844 -0.3017
11040WAT     H244881   7.051   4.406   1.788  1.4817 -0.8772 -0.2087
11040WAT    EPW44882   7.098   4.449   1.743  0.6111  0.0048 -0.3192
11041WAT      O44883   2.185   0.141   4.305  0.0537 -0.0768  0.6355
11041WAT     H144884   2.183   0.198   4.372 -0.3222 -0.4326  0.9291
11041WAT     H244885   2.118   0.088   4.321 -1.3639  1.0768 -1.1292
11041WAT    EPW44886   2.175   0.142   4.318 -0.2113  0.0411  0.4182
11042WAT      O44887   2.054   6.076   0.944  0.0440 -0.0167 -0.0355
11042WAT     H144888   2.057   6.045   1.026  1.2636 -0.3037 -0.1630
11042WAT     H244889   2.076   6.008   0.895 -2.6000 -0.4009 -0.8239
11042WAT    EPW44890   2.058   6.062   0.949 -0.1665 -0.1158 -0.1708
11043WAT      O44891   6.627   1.758   0.036 -0.1141  0.2825  0.0357
11043WAT     H144892   6.554   1.802   0.055  0.2523  1.2060 -0.6075
11043WAT     H244893   6.691   1.815   0.053  0.3509  0.1749 -1.2625
11043WAT    EPW44894   6.626   1.773   0.041  0.0087  0.4030 -0.2511
11044WAT      O44895   6.756   4.817   4.404  0.0712  0.0972 -0.5357
11044WAT     H144896   6.691   4.849   4.355 -1.2816  2.3498  2.3537
11044WAT     H244897   6.731   4.837   4.485  3.8599  0.0247  0.8484
11044WAT    EPW44898   6.742   4.825   4.409  0.4310  0.4192  0.0956
11045WAT      O44899   2.065   1.903   1.036  0.2027  0.3984 -0.4941
11045WAT     H144900   2.067   1.940   0.957 -0.4078 -0.0464 -0.7255
11045WAT     H244901   2.056   1.971   1.090  1.5954  0.7934 -0.7140
11045WAT    EPW44902   2.064   1.918   1.032  0.3182  0.3911 -0.5607
11046WAT      O44903   1.194   6.508   0.948 -0.1564 -0.3212  0.0377
11046WAT     H144904   1.197   6.480   1.031  2.3287  0.5750  0.3373
11046WAT     H244905   1.202   6.434   0.902 -0.6099 -0.7363  0.6089
11046WAT    EPW44906   1.196   6.493   0.954  0.1437 -0.2501  0.1663
11047WAT      O44907   3.114   1.831   4.453 -0.1635  0.5093  0.7447
11047WAT     H144908   3.082   1.888   4.394 -0.6955 -0.8816 -0.3665
11047WAT     H244909   3.110   1.755   4.411  1.7802 -0.1662  1.7138
11047WAT    EPW44910   3.108   1.828   4.438  0.0450  0.2040  0.7237
11048WAT      O44911   2.721   7.163   1.659 -0.4809 -0.1879  0.5535
11048WAT     H144912   2.750   7.125   1.732 -0.0899 -2.7721 -0.8297
11048WAT     H244913   2.778   7.137   1.598 -1.3722  1.0356 -0.8871
11048WAT    EPW44914   2.734   7.154   1.660 -0.5548 -0.3889  0.1364
11049WAT      O44915   4.555   1.058   3.156 -0.3266 -0.0492  0.4938
11049WAT     H144916   4.546   1.048   3.243 -1.6049 -2.2990  0.1901
11049WAT     H244917   4.486   1.106   3.134 -0.3847 -0.0645  0.6384
11049WAT    EPW44918   4.543   1.063   3.166 -0.5240 -0.3838  0.4703
11050WAT      O44919   0.073   1.026   5.564  0.2541 -0.5705  1.4950
11050WAT     H144920   0.126   0.985   5.508 -1.0857 -2.2286  1.3600
11050WAT     H244921   0.126   1.047   5.630  1.2470 -1.4671  1.0236
11050WAT    EPW44922   0.088   1.023   5.566  0.2028 -0.9479  1.4054
11051WAT      O44923   1.631   7.038   5.497 -0.1970 -0.4874 -0.5115
11051WAT     H144924   1.665   7.068   5.422 -1.8518  0.9688 -0.7538
11051WAT     H244925   1.624   7.109   5.546 -0.6776 -1.1496  0.4043
11051WAT    EPW44926   1.635   7.053   5.493 -0.5125 -0.3701 -0.4120
11052WAT      O44927   0.800   6.479   0.995 -0.4144 -0.1676 -0.4264
11052WAT     H144928   0.822   6.421   0.933 -0.0663  1.5158 -1.9605
11052WAT     H244929   0.855   6.545   0.982 -0.1912  0.1724  1.8661
11052WAT    EPW44930   0.811   6.480   0.984 -0.3300  0.1313 -0.3144
11053WAT      O44931   1.673   1.236   3.615  0.4581  0.1978 -0.0567
11053WAT     H144932   1.730   1.288   3.657  2.0459 -0.4056 -1.3447
11053WAT     H244933   1.665   1.274   3.537 -0.7669  0.1393  0.0304
11053WAT    EPW44934   1.680   1.249   3.610  0.5117  0.1000 -0.2341
11054WAT      O44935   6.016   3.770   1.680  0.2063 -0.0150 -0.1229
11054WAT     H144936   6.063   3.807   1.744  0.5083 -0.2264 -0.2180
11054WAT     H244937   5.935   3.797   1.695 -0.0280 -1.4233  1.3477
11054WAT    EPW44938   6.011   3.780   1.692  0.2163 -0.2543  0.0803
11055WAT      O44939   4.585   6.726   5.103  0.0812 -0.2925  0.1074
11055WAT     H144940   4.544   6.718   5.179 -3.8737 -3.6418 -1.9465
11055WAT     H244941   4.531   6.776   5.056  1.5781  0.2972 -1.0923
11055WAT    EPW44942   4.571   6.732   5.107 -0.2819 -0.7001 -0.3732
11056WAT      O44943   5.627   0.299   1.900 -0.4342 -0.7825  0.6820
11056WAT     H144944   5.609   0.276   1.982 -0.9616 -0.7256  0.5860
11056WAT     H244945   5.606   0.228   1.853 -0.8923 -0.5383  0.5141
11056WAT    EPW44946   5.621   0.285   1.905 -0.5797 -0.7380  0.6430
11057WAT      O44947   0.465   3.964   7.312 -0.2354  0.3633 -0.0429
11057WAT     H144948   0.428   3.886   7.300 -0.8791  0.7148 -0.3799
11057WAT     H244949   0.459   3.976   7.399 -3.6333  1.6894 -0.3184
11057WAT    EPW44950   0.459   3.954   7.323 -0.8325  0.6111 -0.1334
11058WAT      O44951   5.301   3.775   2.813  0.3517 -0.8857 -0.3037
11058WAT     H144952   5.275   3.836   2.871 -1.3514 -0.9673 -0.9239
11058WAT     H244953   5.366   3.734   2.855 -1.4669 -1.6237  2.0105
11058WAT    EPW44954   5.307   3.778   2.828 -0.1685 -1.0068 -0.0534
11059WAT      O44955   2.128   1.066   4.981 -0.1778  0.7457 -0.5498
11059WAT     H144956   2.084   1.034   4.912 -1.2981 -1.7400  1.1678
11059WAT     H244957   2.065   1.103   5.029  0.1666  0.2289  0.3106
11059WAT    EPW44958   2.112   1.067   4.978 -0.2924  0.3022 -0.1690
11060WAT      O44959   5.143   4.023   6.196  0.1490 -0.0456 -0.4090
11060WAT     H144960   5.177   4.076   6.136  1.1282 -1.1402 -0.8524
11060WAT     H244961   5.186   3.948   6.185 -0.0212 -0.4433  1.3122
11060WAT    EPW44962   5.154   4.020   6.186  0.2685 -0.2660 -0.2202
11061WAT      O44963   1.493   6.774   5.325 -0.2849 -1.2072 -0.0234
11061WAT     H144964   1.562   6.768   5.378 -1.7416  0.5936  2.2648
11061WAT     H244965   1.425   6.777   5.379 -2.0575 -1.1845 -2.0928
11061WAT    EPW44966   1.493   6.774   5.341 -0.7619 -0.9378  0.0089
11062WAT      O44967   3.639   6.500   6.122  0.3791  0.1453 -0.3123
11062WAT     H144968   3.721   6.472   6.108 -0.0108 -1.0361 -0.3349
11062WAT     H244969   3.616   6.459   6.196 -0.3773  0.0668 -0.5854
11062WAT    EPW44970   3.648   6.490   6.131  0.2097 -0.0408 -0.3560
11063WAT      O44971   4.663   0.796   5.838  0.1615  0.2650  0.0077
11063WAT     H144972   4.650   0.744   5.906  0.2593 -2.3711 -1.8355
11063WAT     H244973   4.601   0.857   5.846 -2.0501 -1.9387  0.6598
11063WAT    EPW44974   4.652   0.797   5.849 -0.1508 -0.4500 -0.1683
11064WAT      O44975   4.446   7.070   3.283 -0.4297 -0.1590  0.0721
11064WAT     H144976   4.403   7.134   3.325 -1.7233 -0.0289 -1.3460
11064WAT     H244977   4.389   7.005   3.281 -0.1615 -0.3795 -0.9007
11064WAT    EPW44978   4.431   7.070   3.289 -0.5812 -0.1723 -0.2811
11065WAT      O44979   4.887   2.707   0.497  0.2326  0.3633 -0.0821
11065WAT     H144980   4.936   2.638   0.474 -1.0692 -0.1750 -1.3883
11065WAT     H244981   4.940   2.753   0.549  0.7592 -2.1911  1.8363
11065WAT    EPW44982   4.902   2.704   0.501  0.1181 -0.0936  0.0083
11066WAT      O44983   3.131   0.099   6.366  0.0598 -0.2072  0.1560
11066WAT     H144984   3.121   0.070   6.447 -0.4757 -0.3675  0.0416
11066WAT     H244985   3.054   0.082   6.329  0.0302  0.5614 -0.1637
11066WAT    EPW44986   3.118   0.092   6.372 -0.0237 -0.1173  0.0919
11067WAT      O44987   5.706   5.652   0.264 -0.2056 -0.4357 -0.0712
11067WAT     H144988   5.759   5.583   0.277 -0.5295 -0.7378 -0.3297
11067WAT     H244989   5.699   5.687   0.343  0.8810 -0.0188 -0.1399
11067WAT    EPW44990   5.713   5.647   0.277 -0.0929 -0.4187 -0.1195
11068WAT      O44991   4.554   5.428   5.372 -0.4448 -0.3781 -0.0324
11068WAT     H144992   4.545   5.491   5.312  1.0477  1.0037  1.0946
11068WAT     H244993   4.607   5.371   5.334  0.1582  0.2809 -0.1942
11068WAT    EPW44994   4.560   5.429   5.358 -0.1352 -0.0766  0.1102
11069WAT      O44995   6.200   5.914   7.277 -0.0176 -0.6020  0.2225
11069WAT     H144996   6.234   5.970   7.335  0.3457 -1.2141  0.6150
11069WAT     H244997   6.170   5.966   7.214 -0.2593  0.0721  0.8711
11069WAT    EPW44998   6.201   5.930   7.276  0.0003 -0.5928  0.3763
11070WAT      O44999   4.787   3.722   6.390 -0.0851  0.1316 -0.0364
11070WAT     H145000   4.858   3.701   6.437 -0.0362 -0.0732 -0.2013
11070WAT     H245001   4.727   3.665   6.419 -0.1933  0.3244  0.1251
11070WAT    EPW45002   4.789   3.710   6.401 -0.0939  0.1298 -0.0369
11071WAT      O45003   2.552   6.624   1.806  0.7009  0.0765 -0.2954
11071WAT     H145004   2.605   6.655   1.867  0.5340  0.4454 -0.3320
11071WAT     H245005   2.582   6.543   1.790  0.1609 -0.3874  0.9499
11071WAT    EPW45006   2.564   6.616   1.813  0.5965  0.0625 -0.1168
11072WAT      O45007   2.614   3.131   3.170  0.3495  0.3769  0.2606
11072WAT     H145008   2.630   3.157   3.088  0.1683 -0.4135 -0.0359
11072WAT     H245009   2.651   3.052   3.173 -2.1896 -0.9321 -0.0081
11072WAT    EPW45010   2.622   3.123   3.158 -0.0524  0.0668  0.1771
11073WAT      O45011   0.942   6.249   3.668  0.1819  0.1164 -0.7542
11073WAT     H145012   1.027   6.241   3.687 -0.0795 -0.3806  0.3136
11073WAT     H245013   0.910   6.169   3.681 -0.3410  0.1229 -1.8420
11073WAT    EPW45014   0.950   6.236   3.673  0.0661  0.0439 -0.7572
11074WAT      O45015   2.646   1.053   1.269 -0.2831  0.3325  0.4486
11074WAT     H145016   2.635   1.140   1.265 -1.1106  0.1916 -1.2449
11074WAT     H245017   2.711   1.038   1.213 -1.0573 -0.2360 -0.3431
11074WAT    EPW45018   2.654   1.064   1.260 -0.5197  0.2277  0.0815
11075WAT      O45019   4.205   4.947   1.921 -0.0886 -0.7352  0.4911
11075WAT     H145020   4.176   4.897   1.856  1.7928 -0.7289 -0.4147
11075WAT     H245021   4.217   5.025   1.883 -0.3713 -0.3223  1.2211
11075WAT    EPW45022   4.203   4.951   1.906  0.1475 -0.6733  0.4651
11076WAT      O45023   0.477   0.329   3.710  0.3592  0.2223  0.0638
11076WAT     H145024   0.516   0.377   3.650 -0.1962 -0.1747 -0.6295
11076WAT     H245025   0.395   0.323   3.681  0.2477 -0.5313  0.5123
11076WAT    EPW45026   0.470   0.335   3.697  0.2607  0.0523  0.0276
11077WAT      O45027   4.225   2.855   5.738 -0.4291  0.5462  0.0428
11077WAT     H145028   4.297   2.852   5.786 -2.2175 -1.6816  2.8820
11077WAT     H245029   4.222   2.938   5.711  1.4996  1.5569  2.5360
11077WAT    EPW45030   4.235   2.867   5.741 -0.4084  0.3664  0.8305
11078WAT      O45031   0.368   2.388   1.819  0.2751 -0.1771  0.5582
11078WAT     H145032   0.396   2.461   1.780  0.1675  1.0864  2.6493
11078WAT     H245033   0.420   2.382   1.889 -0.5180 -1.4478  1.0621
11078WAT    EPW45034   0.380   2.398   1.824  0.1420 -0.1782  0.9415
11079WAT      O45035   1.947   4.063   0.566  0.5033 -0.5688  0.3594
11079WAT     H145036   1.918   4.008   0.505 -0.6974  0.3235  0.0949
11079WAT     H245037   2.005   4.015   0.611  0.2397 -1.7184 -0.4916
11079WAT    EPW45038   1.951   4.048   0.564  0.2870 -0.6068  0.1947
11080WAT      O45039   4.564   2.552   0.190 -0.0957 -0.4739  0.4082
11080WAT     H145040   4.489   2.507   0.193 -1.1964  1.1874 -0.2767
11080WAT     H245041   4.569   2.576   0.106  0.3804  0.7252  0.7629
11080WAT    EPW45042   4.553   2.549   0.178 -0.1880 -0.0514  0.3595
11081WAT      O45043   0.810   1.915   3.795 -0.2284 -0.5639  0.4257
11081WAT     H145044   0.840   1.958   3.865 -0.4480 -0.5119  0.4893
11081WAT     H245045   0.732   1.952   3.780 -0.0033 -0.2940 -0.0942
11081WAT    EPW45046   0.803   1.927   3.803 -0.2276 -0.5164  0.3583
11082WAT      O45047   2.741   2.660   0.714  0.1092  0.3741  0.4196
11082WAT     H145048   2.742   2.664   0.801  0.6865  1.0755  0.3831
11082WAT     H245049   2.816   2.621   0.694  0.0147  0.2868  0.2277
11082WAT    EPW45050   2.752   2.655   0.724  0.1805  0.4648  0.3859
11083WAT      O45051   4.607   4.396   4.456 -0.3720  0.0818  0.7301
11083WAT     H145052   4.567   4.325   4.425  1.0402  0.0590 -1.2346
11083WAT     H245053   4.543   4.440   4.497 -2.3980 -0.0843 -1.9629
11083WAT    EPW45054   4.592   4.392   4.457 -0.4627  0.0539  0.0421
11084WAT      O45055   1.548   1.817   5.444 -0.0306 -0.0706  0.3169
11084WAT     H145056   1.575   1.764   5.380 -0.4839 -1.3183  1.1045
11084WAT     H245057   1.463   1.827   5.427 -0.0141  0.1261  0.3528
11084WAT    EPW45058   1.539   1.811   5.432 -0.0951 -0.2258  0.4386
11085WAT      O45059   2.966   5.616   0.129 -0.0726 -0.0996 -0.4652
11085WAT     H145060   2.939   5.611   0.212  0.8969 -2.0405 -0.2227
11085WAT     H245061   2.892   5.618   0.084 -0.6268 -0.5518  0.3923
11085WAT    EPW45062   2.951   5.616   0.135 -0.0113 -0.4531 -0.3027
11086WAT      O45063   3.253   0.716   5.971  0.4653 -0.2837 -0.9175
11086WAT     H145064   3.176   0.755   5.952  0.7707  0.3215 -0.9533
11086WAT     H245065   3.312   0.778   5.953  0.7893  0.5760  2.4640
11086WAT    EPW45066   3.250   0.731   5.965  0.5583 -0.0673 -0.4232
11087WAT      O45067   4.112   6.892   5.725 -0.9748  0.1988 -0.9046
11087WAT     H145068   4.052   6.937   5.769 -0.7718 -0.7932  0.4670
11087WAT     H245069   4.143   6.836   5.784  1.8277  1.1377 -1.3381
11087WAT    EPW45070   4.108   6.890   5.740 -0.5308  0.1909 -0.7660
11088WAT      O45071   5.148   2.940   1.831 -0.5683 -0.1313 -0.0667
11088WAT     H145072   5.214   2.925   1.885  0.6752 -0.6832 -1.6410
11088WAT     H245073   5.168   3.016   1.794 -0.0696 -0.9401 -1.5336
11088WAT    EPW45074   5.161   2.949   1.833 -0.3110 -0.3323 -0.5160
11089WAT      O45075   0.826   2.553   4.490 -0.2493  0.0106  0.3785
11089WAT     H145076   0.816   2.467   4.500 -1.1062  0.1376  0.7145
11089WAT     H245077   0.849   2.580   4.570  0.1904  0.0720  0.2320
11089WAT    EPW45078   0.827   2.544   4.503 -0.3109  0.0384  0.4065
11090WAT      O45079   5.990   2.872   5.198 -0.3805  0.5272  0.0883
11090WAT     H145080   5.967   2.955   5.185 -0.1450  0.7639  1.1099
11090WAT     H245081   5.953   2.851   5.274  0.2554 -0.0377  0.2552
11090WAT    EPW45082   5.981   2.881   5.208 -0.2518  0.4787  0.2639
11091WAT      O45083   6.551   2.314   6.125 -0.5082 -0.1793  0.1477
11091WAT     H145084   6.596   2.363   6.069 -0.2169  0.0365  0.5637
11091WAT     H245085   6.613   2.278   6.175 -0.4190 -3.2995 -1.8988
11091WAT    EPW45086   6.567   2.316   6.124 -0.4520 -0.6084 -0.0932
11092WAT      O45087   0.325   0.991   5.166  0.4904  0.6054 -0.1550
11092WAT     H145088   0.263   1.041   5.129  0.9649  0.3484 -1.3290
11092WAT     H245089   0.284   0.955   5.234  0.3708  3.3145  1.3616
11092WAT    EPW45090   0.310   0.993   5.170  0.5428  0.9676 -0.1044
11093WAT      O45091   0.360   3.046   4.063  0.3116  0.2579 -0.4368
11093WAT     H145092   0.400   3.034   4.140  1.7241 -0.9974 -1.3097
11093WAT     H245093   0.417   3.094   4.018 -0.4998  0.9758 -0.7166
11093WAT    EPW45094   0.374   3.051   4.068  0.4004  0.1785 -0.6071
11094WAT      O45095   2.073   5.518   6.833 -0.3713 -0.5410  0.2583
11094WAT     H145096   2.106   5.442   6.807  2.0688  0.4429  0.2602
11094WAT     H245097   2.114   5.576   6.783 -0.8103  0.8954  1.4972
11094WAT    EPW45098   2.084   5.515   6.822 -0.0757 -0.1835  0.4416
11095WAT      O45099   0.814   5.702   1.707  0.3827  0.0734 -1.2131
11095WAT     H145100   0.737   5.687   1.668  0.0442  1.8073 -1.3199
11095WAT     H245101   0.791   5.719   1.790  0.5674  1.0413 -1.3443
11095WAT    EPW45102   0.799   5.702   1.714  0.3600  0.4725 -1.2482
11096WAT      O45103   7.283   4.334   3.897  0.9584 -0.0145 -0.0278
11096WAT     H145104   7.310   4.258   3.931 -0.7739  0.1941  2.0956
11096WAT     H245105   7.306   4.393   3.957 -0.0395  0.7483 -0.3603
11096WAT    EPW45106   7.290   4.331   3.911  0.5551  0.1290  0.2367
11097WAT      O45107   6.654   5.490   6.755 -0.2449 -0.2639  1.1704
11097WAT     H145108   6.720   5.446   6.792  2.2106  3.0155  1.1260
11097WAT     H245109   6.611   5.523   6.823 -0.8712 -1.0239  1.1597
11097WAT    EPW45110   6.657   5.489   6.771  0.0253  0.1083  1.1622
11098WAT      O45111   1.117   5.377   0.951  1.1236  0.6453 -0.2528
11098WAT     H145112   1.183   5.321   0.962  0.8792  0.5829  0.9868
11098WAT     H245113   1.094   5.365   0.867  0.6098 -1.6366  0.1468
11098WAT    EPW45114   1.124   5.367   0.940  1.0116  0.2990 -0.0106
11099WAT      O45115   2.001   2.581   5.665  0.1136  0.2704 -0.2855
11099WAT     H145116   1.972   2.617   5.591  1.2439  0.1920 -0.7802
11099WAT     H245117   1.949   2.512   5.676 -1.6961  1.6455  0.3514
11099WAT    EPW45118   1.989   2.576   5.656  0.0133  0.4620 -0.2645
11100WAT      O45119   6.113   5.194   0.350  0.2313 -0.2711  0.4898
11100WAT     H145120   6.101   5.243   0.421  0.2093  0.7585 -0.2129
11100WAT     H245121   6.047   5.216   0.298  0.3825 -0.8405  0.0439
11100WAT    EPW45122   6.102   5.204   0.353  0.2503 -0.2031  0.3201
11101WAT      O45123   3.291   0.003   3.746 -0.5377 -0.1565  0.1128
11101WAT     H145124   3.361   0.012   3.694 -1.1220  0.9181 -0.5272
11101WAT     H245125   3.325   0.004   3.827  0.3452 -1.4457 -0.2086
11101WAT    EPW45126   3.306   0.004   3.750 -0.4936 -0.1882 -0.0292
11102WAT      O45127   3.780   2.053   5.074 -0.2521  0.0551  0.5458
11102WAT     H145128   3.752   2.040   5.156  0.6695 -1.5460  0.6360
11102WAT     H245129   3.758   1.980   5.033 -0.4516  0.7325 -0.5990
11102WAT    EPW45130   3.772   2.040   5.080 -0.1454 -0.0813  0.3900
11103WAT      O45131   5.887   6.748   4.997 -0.1754  0.0530  0.3264
11103WAT     H145132   5.899   6.663   5.007 -0.8990 -0.1819 -0.6187
11103WAT     H245133   5.940   6.768   4.930 -1.3707 -0.0358 -0.6673
11103WAT    EPW45134   5.897   6.739   4.989 -0.4588  0.0052  0.0400
11104WAT      O45135   6.935   2.309   3.253 -0.5652  0.0011  0.1973
11104WAT     H145136   6.896   2.233   3.271 -2.1654  0.8909  0.7282
11104WAT     H245137   6.877   2.349   3.202  0.0971  1.0164  0.2256
11104WAT    EPW45138   6.921   2.303   3.248 -0.7037  0.2826  0.2799
11105WAT      O45139   7.146   3.122   4.254  0.2422  0.0399  0.0095
11105WAT     H145140   7.075   3.173   4.255 -0.8802 -1.4421 -1.1676
11105WAT     H245141   7.180   3.136   4.175  1.3919  0.8255  0.6028
11105WAT    EPW45142   7.141   3.132   4.242  0.2462 -0.0630 -0.0767
11106WAT      O45143   0.966   1.685   3.902  0.8262 -0.0564  0.1313
11106WAT     H145144   0.913   1.749   3.875 -1.1349 -1.6669 -0.0100
11106WAT     H245145   1.042   1.704   3.863  0.5263  2.5374  0.6397
11106WAT    EPW45146   0.970   1.698   3.892  0.4922  0.0888  0.1855
11107WAT      O45147   0.896   0.219   5.402  0.5992  0.3402 -0.3907
11107WAT     H145148   0.922   0.155   5.349 -0.6092  0.1454 -0.7736
11107WAT     H245149   0.966   0.234   5.452  1.0354 -0.9866 -0.5690
11107WAT    EPW45150   0.910   0.212   5.401  0.4851  0.1155 -0.4736
11108WAT      O45151   0.454   3.629   0.607  0.5596 -0.5697 -0.1647
11108WAT     H145152   0.462   3.660   0.526  0.5834  0.3560  0.1912
11108WAT     H245153   0.381   3.666   0.636  0.1880 -1.4179  0.0165
11108WAT    EPW45154   0.444   3.639   0.599  0.5082 -0.5582 -0.0853
11109WAT      O45155   2.393   2.087   4.389 -0.2638  0.0163 -0.1914
11109WAT     H145156   2.411   2.040   4.461  2.3058  0.7103 -0.2743
11109WAT     H245157   2.400   2.029   4.324  1.2798  0.1140 -0.1558
11109WAT    EPW45158   2.397   2.071   4.390  0.3438  0.1333 -0.1984
11110WAT      O45159   1.528   2.281   4.662  0.6005  0.2663 -0.2828
11110WAT     H145160   1.583   2.341   4.631  0.4428  0.8745  0.5647
11110WAT     H245161   1.550   2.277   4.747 -0.7566  0.6423  0.1047
11110WAT    EPW45162   1.540   2.289   4.670  0.3767  0.4117 -0.1004
11111WAT      O45163   1.105   0.967   4.963  0.0829  0.4245 -0.0349
11111WAT     H145164   1.083   0.908   4.903  1.1015 -1.5722  1.4211
11111WAT     H245165   1.190   0.982   4.946  0.0915  0.6802  0.2330
11111WAT    EPW45166   1.115   0.960   4.952  0.2346  0.1674  0.2197
11112WAT      O45167   2.691   3.888   4.174  0.0331  0.4412  0.6761
11112WAT     H145168   2.678   3.861   4.256  1.2229  0.2892  0.8389
11112WAT     H245169   2.674   3.817   4.126  0.2855  0.2479  0.8722
11112WAT    EPW45170   2.687   3.874   4.179  0.2461  0.3902  0.7291
11113WAT      O45171   2.658   5.871   5.726  0.1507 -0.1546 -0.2343
11113WAT     H145172   2.674   5.945   5.769  1.6433  0.3189 -1.5011
11113WAT     H245173   2.706   5.812   5.769  0.3245 -0.0264 -0.2489
11113WAT    EPW45174   2.667   5.873   5.739  0.3969 -0.0657 -0.4236
11114WAT      O45175   6.080   3.448   2.203  0.6324 -0.0754  0.4371
11114WAT     H145176   6.042   3.369   2.206  0.1699  0.0974 -0.4481
11114WAT     H245177   6.125   3.446   2.128  0.3452  0.6184  0.2415
11114WAT    EPW45178   6.081   3.436   2.192  0.5216  0.0526  0.2774
11115WAT      O45179   3.458   0.459   4.929  0.3271  0.3508 -0.2272
11115WAT     H145180   3.544   0.472   4.934  0.3026  0.6923 -0.6302
11115WAT     H245181   3.428   0.534   4.898 -0.3566  0.9571  1.7341
11115WAT    EPW45182   3.466   0.472   4.925  0.2225  0.4908  0.0030
11116WAT      O45183   7.070   2.186   2.147  0.0153 -0.3607  0.5768
11116WAT     H145184   7.064   2.103   2.122  0.2962 -0.5866  1.2369
11116WAT     H245185   6.990   2.218   2.135  0.1597 -0.4229 -0.7052
11116WAT    EPW45186   7.057   2.179   2.141  0.0782 -0.4032  0.4849
11117WAT      O45187   5.776   3.547   3.576  0.6149  0.6862  0.0561
11117WAT     H145188   5.746   3.608   3.632 -0.3941  0.5016 -0.2638
11117WAT     H245189   5.862   3.550   3.588  0.4099  0.1401  2.1920
11117WAT    EPW45190   5.784   3.557   3.586  0.4355  0.5783  0.3244
11118WAT      O45191   2.252   3.236   4.776  0.4756  0.0908  0.2200
11118WAT     H145192   2.248   3.151   4.795 -1.3912 -0.5218 -2.3559
11118WAT     H245193   2.329   3.244   4.735  0.0899 -0.6792 -0.6979
11118WAT    EPW45194   2.263   3.224   4.773  0.1428 -0.1134 -0.2961
11119WAT      O45195   3.385   1.902   7.319  0.1394 -0.7619  0.0732
11119WAT     H145196   3.405   1.980   7.352 -0.6693 -0.1142 -0.9059
11119WAT     H245197   3.430   1.847   7.369  2.4939  0.4349 -0.5784
11119WAT    EPW45198   3.395   1.906   7.332  0.3678 -0.4894 -0.1677
11120WAT      O45199   0.118   3.823   2.236  0.5691  0.4383  0.3539
11120WAT     H145200   0.100   3.906   2.258  0.6466  0.1621  1.5269
11120WAT     H245201   0.188   3.831   2.185  0.1713  1.1394 -0.1064
11120WAT    EPW45202   0.126   3.837   2.232  0.5218  0.5011  0.4592
11121WAT      O45203   1.528   5.563   3.124 -0.5076  0.4437 -0.1035
11121WAT     H145204   1.570   5.631   3.158  0.8632 -0.4778  0.1456
11121WAT     H245205   1.496   5.522   3.194 -0.5266  0.3329 -0.1765
11121WAT    EPW45206   1.529   5.567   3.139 -0.3079  0.2912 -0.0775
11122WAT      O45207   6.787   1.319   1.449 -0.0981  0.6888 -0.2419
11122WAT     H145208   6.727   1.288   1.393 -1.2316  2.4673 -0.0878
11122WAT     H245209   6.757   1.398   1.470 -0.1353 -0.1379  3.4997
11122WAT    EPW45210   6.774   1.326   1.444 -0.2710  0.8294  0.3336
11123WAT      O45211   6.477   1.608   4.159  0.3067  0.0566 -0.5808
11123WAT     H145212   6.434   1.647   4.225  1.3551 -1.2341  0.9512
11123WAT     H245213   6.558   1.640   4.166  1.1109 -2.0169  0.5194
11123WAT    EPW45214   6.482   1.619   4.170  0.5804 -0.4404 -0.1920
11124WAT      O45215   3.679   1.513   4.655 -0.2368 -0.4494  0.4498
11124WAT     H145216   3.716   1.521   4.576  1.9091 -3.1629  1.0089
11124WAT     H245217   3.595   1.499   4.637  0.2205 -1.2177 -1.4320
11124WAT    EPW45218   3.672   1.512   4.641  0.1477 -0.9637  0.2544
11125WAT      O45219   1.534   3.491   5.190  0.1420  0.0418 -0.0472
11125WAT     H145220   1.556   3.529   5.266  0.4862 -2.1379  1.0329
11125WAT     H245221   1.558   3.550   5.130  0.4379  1.5798  1.4968
11125WAT    EPW45222   1.541   3.505   5.193  0.2365 -0.0530  0.3405
11126WAT      O45223   7.256   4.029   5.759 -0.0841  0.0409  0.0856
11126WAT     H145224   7.180   4.031   5.717 -0.5532 -1.3252  0.8136
11126WAT     H245225   7.292   3.954   5.732  1.8933  1.5162 -1.6763
11126WAT    EPW45226   7.250   4.018   5.749  0.1387  0.0570 -0.0671
11127WAT      O45227   5.548   6.747   2.564  0.0282  0.6595  0.2986
11127WAT     H145228   5.490   6.805   2.593  0.8019  1.2336  0.7403
11127WAT     H245229   5.597   6.730   2.633  0.7655  0.6531 -0.2100
11127WAT    EPW45230   5.547   6.753   2.578  0.2514  0.7434  0.2887
11128WAT      O45231   2.620   6.667   5.514  0.2550  0.8335 -0.4138
11128WAT     H145232   2.688   6.718   5.531 -1.3853  3.8287 -2.0359
11128WAT     H245233   2.647   6.618   5.447  1.3782  0.6569  0.1549
11128WAT    EPW45234   2.634   6.667   5.507  0.1786  1.2498 -0.5694
11129WAT      O45235   2.686   5.268   3.767  0.0949  0.3595  0.1175
11129WAT     H145236   2.721   5.330   3.818  0.6973  0.6288 -0.5887
11129WAT     H245237   2.748   5.206   3.765  0.3031  0.5786 -0.6746
11129WAT    EPW45238   2.700   5.268   3.774  0.2146  0.4316 -0.1038
11130WAT      O45239   1.438   5.186   4.089 -0.4181  0.0619 -0.3389
11130WAT     H145240   1.433   5.103   4.115  0.4965 -0.6363 -2.1857
11130WAT     H245241   1.355   5.207   4.071 -0.7367 -0.2454  0.7285
11130WAT    EPW45242   1.425   5.177   4.090 -0.3301 -0.0866 -0.4541
11131WAT      O45243   2.464   0.059   5.631 -0.0806 -0.6240  0.8606
11131WAT     H145244   2.403   0.108   5.670 -0.2463 -0.9424  1.0106
11131WAT     H245245   2.457  -0.018   5.672  1.4289 -0.2440  1.8990
11131WAT    EPW45246   2.454   0.055   5.643  0.1179 -0.6149  1.0361
11132WAT      O45247   2.813   1.254   5.039  0.5241  0.1630  0.5025
11132WAT     H145248   2.811   1.339   5.060  1.4477 -0.1480  1.9359
11132WAT     H245249   2.754   1.248   4.975  1.7572  2.2166 -0.9397
11132WAT    EPW45250   2.804   1.266   5.032  0.8427  0.4204  0.5012
11133WAT      O45251   6.180   6.429   5.852  0.0254  0.6593 -0.5400
11133WAT     H145252   6.247   6.468   5.892  0.0303  0.9859 -0.8614
11133WAT     H245253   6.168   6.357   5.899 -0.4096  1.3596  0.4829
11133WAT    EPW45254   6.188   6.424   5.865 -0.0381  0.8110 -0.4364
11134WAT      O45255   1.601   4.660   6.969 -1.3135  0.4561 -0.3903
11134WAT     H145256   1.635   4.598   6.919 -0.0599  0.4201  0.4385
11134WAT     H245257   1.546   4.617   7.021 -0.1347 -0.0810  0.4694
11134WAT    EPW45258   1.598   4.644   6.970 -0.9542  0.3714 -0.1409
11135WAT      O45259   4.052   6.835   0.616 -0.3913 -0.5380 -0.2745
11135WAT     H145260   4.021   6.800   0.543 -2.0033  1.4745 -0.6647
11135WAT     H245261   4.021   6.783   0.679  0.3239 -1.8125 -0.9384
11135WAT    EPW45262   4.043   6.822   0.615 -0.5238 -0.4290 -0.4302
11136WAT      O45263   0.384   6.197   5.825 -0.4977  0.7661 -0.2831
11136WAT     H145264   0.352   6.197   5.906  1.5483  2.6238  0.6423
11136WAT     H245265   0.319   6.230   5.777 -1.0220  1.7363  1.0305
11136WAT    EPW45266   0.370   6.202   5.830 -0.2729  1.1839  0.0476
11137WAT      O45267   0.712   4.100   7.192 -0.1845  0.1957  0.0978
11137WAT     H145268   0.642   4.057   7.220  0.4984 -0.6592  0.5303
11137WAT     H245269   0.728   4.064   7.114 -0.6875  0.9414 -0.3588
11137WAT    EPW45270   0.704   4.088   7.184 -0.1579  0.1796  0.0942
11138WAT      O45271   2.623   4.598   6.205 -0.1299 -0.1994  0.6459
11138WAT     H145272   2.686   4.543   6.181  0.2357  0.0509  1.0131
11138WAT     H245273   2.550   4.552   6.193  0.1084 -0.4228  0.0275
11138WAT    EPW45274   2.622   4.583   6.200 -0.0407 -0.1954  0.6088
11139WAT      O45275   1.828   5.399   2.906 -0.3603  0.4576  0.2365
11139WAT     H145276   1.863   5.435   2.978 -0.4973  2.8137 -0.7944
11139WAT     H245277   1.895   5.358   2.869 -0.5785 -2.1361  2.3487
11139WAT    EPW45278   1.843   5.398   2.911 -0.4128  0.4225  0.3963
11140WAT      O45279   0.228   6.091   1.770  0.3084 -0.4769  0.9380
11140WAT     H145280   0.211   6.074   1.686  2.7864  0.6419  0.1372
11140WAT     H245281   0.159   6.138   1.796 -0.0378  0.0091 -0.7540
11140WAT    EPW45282   0.215   6.095   1.762  0.6233 -0.2398  0.5698
11141WAT      O45283   0.985   5.271   6.133 -0.3367 -0.0077 -0.2822
11141WAT     H145284   1.038   5.269   6.064  0.0033 -1.4902 -0.0051
11141WAT     H245285   1.038   5.269   6.201 -0.7158 -0.0735  0.0173
11141WAT    EPW45286   1.001   5.270   6.133 -0.3425 -0.2364 -0.1970
11142WAT      O45287   5.865   1.090   3.930 -0.1865  0.1195 -0.1863
11142WAT     H145288   5.948   1.101   3.906 -0.5305  2.2821 -0.5618
11142WAT     H245289   5.837   1.024   3.880  0.6259  0.9812 -1.8379
11142WAT    EPW45290   5.873   1.082   3.919 -0.1173  0.5662 -0.4857
11143WAT      O45291   0.139   3.432   2.859 -0.3421 -0.2592 -0.3701
11143WAT     H145292   0.060   3.449   2.826 -1.7057 -1.3426  2.0604
11143WAT     H245293   0.145   3.485   2.928 -0.3956 -2.3268  1.3504
11143WAT    EPW45294   0.129   3.442   2.864 -0.5514 -0.7247  0.2431
11144WAT      O45295   5.611   6.770   4.979 -0.2687 -0.6463 -0.2836
11144WAT     H145296   5.698   6.772   4.976 -0.2928  0.6345 -1.8863
11144WAT     H245297   5.593   6.746   5.061  1.5789 -1.3625 -0.0495
11144WAT    EPW45298   5.621   6.767   4.990  0.0006 -0.5629 -0.4858
11145WAT      O45299   1.224   5.946   3.673 -0.7959 -0.4349  0.3669
11145WAT     H145300   1.161   5.908   3.627  0.1824  1.5973 -2.9602
11145WAT     H245301   1.295   5.898   3.654 -0.5320 -0.1314  0.5773
11145WAT    EPW45302   1.225   5.933   3.664 -0.6124 -0.0899 -0.0935
11146WAT      O45303   1.927   0.772   1.678 -0.0177 -0.5401  0.1932
11146WAT     H145304   2.011   0.791   1.665  0.1533 -0.7410  0.9452
11146WAT     H245305   1.884   0.837   1.638  0.4460 -1.2971 -1.6417
11146WAT    EPW45306   1.933   0.784   1.670  0.0761 -0.6816  0.0332
11147WAT      O45307   3.845   3.580   4.621  0.1714 -0.2431  0.8448
11147WAT     H145308   3.849   3.663   4.595  1.8645 -0.2806  0.8476
11147WAT     H245309   3.805   3.584   4.698  1.5301  0.7672  1.5309
11147WAT    EPW45310   3.840   3.593   4.628  0.6222 -0.0994  0.9465
11148WAT      O45311   5.244   0.623   3.297  0.3193  0.0459 -0.0044
11148WAT     H145312   5.219   0.555   3.248 -3.3385  0.4517  0.9875
11148WAT     H245313   5.199   0.690   3.264 -1.3787  0.5730  2.9430
11148WAT    EPW45314   5.233   0.623   3.285 -0.4718  0.1837  0.5775
11149WAT      O45315   0.835   4.649   0.689  0.8914  0.6074 -0.0646
11149WAT     H145316   0.854   4.689   0.764  2.0536 -1.2554  0.7197
11149WAT     H245317   0.888   4.686   0.631  0.7854  1.2960  0.2733
11149WAT    EPW45318   0.846   4.660   0.691  1.0474  0.4339  0.1012
11150WAT      O45319   4.548   4.052   0.579 -0.6840  0.9080 -0.0369
11150WAT     H145320   4.597   4.049   0.650  0.5238  1.2929 -0.8306
11150WAT     H245321   4.580   4.120   0.534 -0.3987 -0.2288 -1.6526
11150WAT    EPW45322   4.560   4.061   0.583 -0.4634  0.7969 -0.3928
11151WAT      O45323   0.528   2.396   1.155  0.2772 -0.1254  0.2044
11151WAT     H145324   0.567   2.373   1.230 -1.2790 -2.2253  0.4714
11151WAT     H245325   0.571   2.467   1.130  1.7624 -0.1737  2.3744
11151WAT    EPW45326   0.540   2.403   1.163  0.2667 -0.4427  0.5644
11152WAT      O45327   4.917   1.057   3.953 -0.1646 -0.0727  0.5022
11152WAT     H145328   4.871   1.106   4.009  0.1974  0.4306  0.3571
11152WAT     H245329   4.948   0.993   4.004  0.7370  0.7599  1.0324
11152WAT    EPW45330   4.915   1.054   3.969  0.0221  0.1246  0.5591
11153WAT      O45331   3.177   1.451   3.146 -0.2522 -0.4149  0.6187
11153WAT     H145332   3.160   1.532   3.175  0.7354  0.1511 -0.3437
11153WAT     H245333   3.243   1.426   3.196 -0.3028 -0.4840  0.6510
11153WAT    EPW45334   3.184   1.460   3.158 -0.1138 -0.3415  0.4813
11154WAT      O45335   7.166   2.381   1.587 -0.0500  0.5926  0.2682
11154WAT     H145336   7.237   2.422   1.557  0.0761  0.7195  0.7334
11154WAT     H245337   7.100   2.431   1.561  0.0821  0.9067  0.5451
11154WAT    EPW45338   7.167   2.394   1.578 -0.0119  0.6577  0.3778
11155WAT      O45339   6.856   1.353   1.814 -0.1584 -0.0412 -0.7373
11155WAT     H145340   6.833   1.346   1.898 -0.6430  2.1675 -0.6261
11155WAT     H245341   6.842   1.273   1.782 -0.0304 -0.9228  1.2473
11155WAT    EPW45342   6.851   1.340   1.822 -0.2111  0.1548 -0.4277
11156WAT      O45343   3.660   6.440   5.674 -0.7835 -0.0128 -0.0764
11156WAT     H145344   3.734   6.465   5.714 -0.5448 -0.3166 -0.3253
11156WAT     H245345   3.598   6.467   5.728 -0.5631  1.5841 -0.5599
11156WAT    EPW45346   3.662   6.448   5.688 -0.7157  0.1782 -0.1846
11157WAT      O45347   0.400   5.304   1.713  0.1007 -0.3854  0.3250
11157WAT     H145348   0.372   5.378   1.676 -1.1545 -0.9512  0.1009
11157WAT     H245349   0.427   5.257   1.645  3.2681  0.7332  0.6212
11157WAT    EPW45350   0.400   5.308   1.697  0.3832 -0.3037  0.3357
11158WAT      O45351   6.832   3.069   4.225 -0.5714  0.3696 -0.0022
11158WAT     H145352   6.801   2.995   4.190 -0.2957 -0.1887  0.9014
11158WAT     H245353   6.868   3.110   4.157  0.2973 -0.8649 -0.3288
11158WAT    EPW45354   6.833   3.064   4.210 -0.4024  0.1047  0.0830
11159WAT      O45355   1.930   1.777   6.496 -1.0012  0.5937 -0.3585
11159WAT     H145356   1.935   1.733   6.421  0.8562 -0.1146  0.1441
11159WAT     H245357   1.946   1.860   6.472  0.4437  0.2506 -0.6601
11159WAT    EPW45358   1.933   1.783   6.481 -0.5134  0.4384 -0.3288
11160WAT      O45359   2.705   6.856   4.314  0.8495 -0.2087  0.1657
11160WAT     H145360   2.693   6.941   4.305 -0.4130 -0.4180 -0.2775
11160WAT     H245361   2.742   6.848   4.393 -0.9001  0.6006  1.1087
11160WAT    EPW45362   2.709   6.867   4.324  0.4045 -0.1201  0.2396
11161WAT      O45363   3.883   2.411   6.852 -0.1427 -0.4417  0.5348
11161WAT     H145364   3.847   2.452   6.921 -0.7043  0.8459 -0.4743
11161WAT     H245365   3.940   2.356   6.888  0.5324  1.1242  2.0090
11161WAT    EPW45366   3.886   2.409   6.868 -0.1260 -0.0202  0.6035
11162WAT      O45367   7.240   6.091   3.098 -0.4328 -0.0737 -0.4787
11162WAT     H145368   7.272   6.098   3.179 -0.9165  1.3685 -0.3947
11162WAT     H245369   7.183   6.156   3.093 -0.6027 -0.3155 -1.9017
11162WAT    EPW45370   7.237   6.102   3.110 -0.5294  0.1036 -0.6765
11163WAT      O45371   0.622   3.999   3.324  0.2084  0.0762  0.1351
11163WAT     H145372   0.541   3.969   3.312 -0.3572  2.0362 -1.6638
11163WAT     H245373   0.618   4.041   3.400  0.0467 -1.3053  0.9104
11163WAT    EPW45374   0.610   4.001   3.333  0.1009  0.1617 -0.0161
11164WAT      O45375   6.107   1.532   2.969  0.4635 -0.4421 -0.2504
11164WAT     H145376   6.040   1.515   2.915 -1.4316  0.3212  1.7217
11164WAT     H245377   6.138   1.609   2.940 -0.6546  0.0563 -0.1720
11164WAT    EPW45378   6.102   1.541   2.956  0.0184 -0.2557  0.0525
11165WAT      O45379   6.912   6.496   2.969  0.0791 -0.0453  0.7994
11165WAT     H145380   6.985   6.529   2.935 -0.0845 -2.0493 -1.8661
11165WAT     H245381   6.897   6.547   3.038  1.7235  3.0409 -0.8771
11165WAT    EPW45382   6.921   6.508   2.974  0.2978  0.1146  0.1580
11166WAT      O45383   7.119   1.139   4.981 -0.1009  0.7497 -0.1832
11166WAT     H145384   7.190   1.101   5.014 -0.1908  0.3266 -0.4675
11166WAT     H245385   7.076   1.167   5.052 -0.2264 -0.0305  0.0577
11166WAT    EPW45386   7.123   1.137   4.996 -0.1327  0.5719 -0.1896
11167WAT      O45387   5.051   2.231   5.366  0.1596  0.3614 -0.0137
11167WAT     H145388   5.047   2.318   5.370 -2.2963  0.3049  0.3968
11167WAT     H245389   5.045   2.214   5.281 -3.9391  0.6290  0.0196
11167WAT    EPW45390   5.050   2.241   5.354 -0.8086  0.3926  0.0519
11168WAT      O45391   2.330   4.056   2.218 -0.2557 -0.0839  0.4110
11168WAT     H145392   2.349   4.032   2.137 -3.5600  1.5000 -1.0112
11168WAT     H245393   2.339   3.982   2.264 -0.9310 -1.7239 -1.9341
11168WAT    EPW45394   2.334   4.041   2.213 -0.8436 -0.0922 -0.1455
11169WAT      O45395   1.314   2.014   2.555 -0.1287 -0.1575  0.0953
11169WAT     H145396   1.350   1.937   2.533  0.9764  0.9806 -2.5092
11169WAT     H245397   1.336   2.023   2.639 -0.0277 -2.5132  0.4056
11169WAT    EPW45398   1.322   2.004   2.564  0.0495 -0.3374 -0.2436
11170WAT      O45399   0.509   5.350   2.426  0.2128 -0.2581  0.5464
11170WAT     H145400   0.509   5.393   2.350  1.4660 -0.2385  0.5407
11170WAT     H245401   0.486   5.269   2.403  0.0663 -0.1293  0.2261
11170WAT    EPW45402   0.505   5.344   2.411  0.3762 -0.2362  0.4982
11171WAT      O45403   2.813   2.235   6.057  0.1328 -0.3645 -0.0349
11171WAT     H145404   2.879   2.251   6.112 -0.2155  0.5861  0.1169
11171WAT     H245405   2.762   2.180   6.101  0.3206 -0.3217  0.2371
11171WAT    EPW45406   2.815   2.229   6.072  0.1091 -0.2178  0.0277
11172WAT      O45407   2.090   5.883   6.103 -1.2072 -0.0700  0.0060
11172WAT     H145408   2.045   5.853   6.035 -0.1025  0.6216 -1.0725
11172WAT     H245409   2.157   5.827   6.110 -1.3573 -0.1831  0.5728
11172WAT    EPW45410   2.094   5.870   6.094 -1.0662  0.0155 -0.0696
11173WAT      O45411   0.906   2.107   5.312 -0.0443  0.3448  0.5709
11173WAT     H145412   0.950   2.135   5.382  1.2375 -0.2298  0.0178
11173WAT     H245413   0.861   2.178   5.288  1.0952  1.1704  0.7664
11173WAT    EPW45414   0.906   2.122   5.319  0.3134  0.3819  0.5181
11174WAT      O45415   1.829   7.000   3.956  0.0206 -0.4149  0.3784
11174WAT     H145416   1.813   7.052   4.024 -1.6313  0.5685 -0.6789
11174WAT     H245417   1.887   7.045   3.909 -0.7776  0.1185 -0.1185
11174WAT    EPW45418   1.835   7.014   3.959 -0.3413 -0.1908  0.1488
11175WAT      O45419   2.790   3.306   2.703  0.1475 -0.1059  0.0772
11175WAT     H145420   2.827   3.353   2.768  0.7790 -0.0740 -0.2938
11175WAT     H245421   2.770   3.367   2.644 -1.3520 -0.0084  0.6454
11175WAT    EPW45422   2.793   3.322   2.704  0.0193 -0.0868  0.1063
11176WAT      O45423   6.566   6.190   6.754  0.1230 -0.0390  0.4450
11176WAT     H145424   6.623   6.253   6.734  1.4151 -1.6619 -1.3401
11176WAT     H245425   6.609   6.140   6.812  1.0456 -1.8263 -1.6430
11176WAT    EPW45426   6.580   6.192   6.760  0.4501 -0.5428 -0.1271
11177WAT      O45427   6.942   0.509   7.008  0.3049 -0.3237 -0.3956
11177WAT     H145428   6.888   0.441   7.019  0.7871 -0.7583 -0.6506
11177WAT     H245429   6.889   0.578   7.005 -0.2386 -0.7494 -0.7173
11177WAT    EPW45430   6.926   0.509   7.009  0.2958 -0.4508 -0.4808
11178WAT      O45431   4.805   6.114   7.044  0.0968  0.4267 -0.4514
11178WAT     H145432   4.860   6.156   7.097 -1.2352  0.5595  0.8509
11178WAT     H245433   4.825   6.147   6.965  0.7616  1.6734  0.1988
11178WAT    EPW45434   4.816   6.125   7.040 -0.0018  0.6305 -0.1630
11179WAT      O45435   2.693   6.280   2.526 -0.0371 -0.0469 -0.6773
11179WAT     H145436   2.705   6.197   2.503  0.4877 -0.1543 -0.0345
11179WAT     H245437   2.741   6.324   2.469 -0.7223 -0.1403 -1.3452
11179WAT    EPW45438   2.702   6.274   2.514 -0.0608 -0.0765 -0.6810
11180WAT      O45439   1.496   1.304   5.652  0.1332  0.4619 -0.1073
11180WAT     H145440   1.449   1.233   5.633  0.3645 -0.2525  1.7776
11180WAT     H245441   1.558   1.306   5.591 -0.7714 -0.0745 -1.0706
11180WAT    EPW45442   1.498   1.294   5.640  0.0337  0.2771  0.0288
11181WAT      O45443   2.466   1.692   6.192 -0.1383  0.0425  0.3341
11181WAT     H145444   2.409   1.669   6.254 -0.0851 -1.1137 -0.0192
11181WAT     H245445   2.506   1.617   6.173  1.3132  0.7805  0.3795
11181WAT    EPW45446   2.463   1.678   6.199  0.0840 -0.0193  0.2886
11182WAT      O45447   0.507   6.244   6.354 -0.6746 -0.3720  0.1964
11182WAT     H145448   0.582   6.218   6.319 -1.0193  0.4064 -1.1877
11182WAT     H245449   0.510   6.331   6.347 -1.5426 -0.3119  0.4492
11182WAT    EPW45450   0.518   6.253   6.348 -0.8537 -0.2481  0.0293
11183WAT      O45451   0.228   1.586   0.976  0.1823  0.4079  0.6209
11183WAT     H145452   0.159   1.635   0.952 -0.0904 -0.9650 -1.6776
11183WAT     H245453   0.194   1.506   0.984  1.6199 -0.5091 -1.5774
11183WAT    EPW45454   0.212   1.581   0.974  0.3543  0.0696 -0.0433
11184WAT      O45455   1.496   2.082   1.106 -0.0044 -0.1512  0.0494
11184WAT     H145456   1.536   2.067   1.030  0.6995 -0.2054  0.4222
11184WAT     H245457   1.465   2.004   1.128 -2.2722  0.2962 -1.3060
11184WAT    EPW45458   1.498   2.068   1.098 -0.2354 -0.0931 -0.0958
11185WAT      O45459   4.650   0.904   4.257  0.6487  0.1280  0.2786
11185WAT     H145460   4.711   0.849   4.286 -0.1415 -1.1152 -0.3358
11185WAT     H245461   4.612   0.932   4.330 -0.0184 -1.4282  0.5689
11185WAT    EPW45462   4.654   0.900   4.272  0.4334 -0.2855  0.2307
11186WAT      O45463   6.979   6.047   1.200 -0.2007  0.2370 -0.0099
11186WAT     H145464   6.995   6.055   1.114 -1.6425  0.0737 -0.3169
11186WAT     H245465   7.029   5.979   1.223 -1.5763 -1.3100 -1.2746
11186WAT    EPW45466   6.989   6.038   1.191 -0.6169 -0.0156 -0.2421
11187WAT      O45467   3.816   4.556   2.821  0.0724 -0.3326  0.0301
11187WAT     H145468   3.788   4.481   2.854  0.8753 -0.6161  0.0864
11187WAT     H245469   3.827   4.538   2.736 -1.2080  0.1664 -0.2677
11187WAT    EPW45470   3.813   4.543   2.813  0.0019 -0.3008 -0.0056
11188WAT      O45471   6.883   1.548   4.341 -0.3929 -0.6928 -0.0193
11188WAT     H145472   6.922   1.479   4.377  1.9592 -0.4108 -1.7503
11188WAT     H245473   6.878   1.606   4.406 -0.1641 -1.6176  0.8445
11188WAT    EPW45474   6.888   1.546   4.356 -0.0117 -0.7878 -0.1474
11189WAT      O45475   4.941   1.495   7.397 -0.1628 -0.7306  0.4444
11189WAT     H145476   4.964   1.549   7.461 -1.4753 -0.2711  0.5532
11189WAT     H245477   4.901   1.430   7.439 -1.7231 -0.0503  0.0622
11189WAT    EPW45478   4.939   1.493   7.413 -0.5872 -0.5622  0.4040
11190WAT      O45479   4.206   3.254   7.303 -0.5600  0.3388  0.2115
11190WAT     H145480   4.193   3.178   7.344  1.9231  0.7896  2.0197
11190WAT     H245481   4.278   3.240   7.255 -0.0843  1.5357  0.5472
11190WAT    EPW45482   4.214   3.241   7.302 -0.1229  0.5822  0.5282
11191WAT      O45483   1.129   1.857   2.967 -0.1804 -0.7098  0.6262
11191WAT     H145484   1.080   1.842   2.896 -0.1495 -0.1198  0.4793
11191WAT     H245485   1.195   1.904   2.936 -0.3800 -0.0940  1.1281
11191WAT    EPW45486   1.132   1.862   2.952 -0.2053 -0.5317  0.6786
11192WAT      O45487   3.351   4.487   5.515  0.2580 -0.0749 -0.2370
11192WAT     H145488   3.299   4.557   5.512  0.6968  0.4046  1.8013
11192WAT     H245489   3.407   4.501   5.449 -1.4570 -0.0702 -1.7816
11192WAT    EPW45490   3.352   4.499   5.505  0.0695 -0.0034 -0.1641
11193WAT      O45491   2.428   7.220   0.022  0.1809 -0.5219 -0.2800
11193WAT     H145492   2.359   7.181  -0.015 -1.5067 -0.2903  2.3742
11193WAT     H245493   2.445   7.286  -0.033 -2.6880  0.2711 -0.3853
11193WAT    EPW45494   2.420   7.224   0.008 -0.4922 -0.3706  0.0965
11194WAT      O45495   0.770   1.511   6.278  0.0226  0.3436 -0.0099
11194WAT     H145496   0.850   1.545   6.279 -0.5152  1.6585  1.5503
11194WAT     H245497   0.766   1.464   6.351 -0.4774 -0.1208 -0.3224
11194WAT    EPW45498   0.781   1.509   6.289 -0.1307  0.4693  0.1744
11195WAT      O45499   6.147   2.200   0.274  0.3933 -0.0150 -0.0693
11195WAT     H145500   6.115   2.274   0.307 -0.5014 -0.6133  0.4336
11195WAT     H245501   6.214   2.182   0.326  1.7134  1.3169 -1.2138
11195WAT    EPW45502   6.152   2.208   0.286  0.4561  0.0933 -0.1641
11196WAT      O45503   0.887   6.753   2.459 -0.2077 -0.2754  0.3771
11196WAT     H145504   0.948   6.700   2.426 -1.1125 -2.3549  1.8564
11196WAT     H245505   0.892   6.824   2.408  2.6290 -0.8250 -0.2501
11196WAT    EPW45506   0.896   6.755   2.447  0.0777 -0.6638  0.5030
11197WAT      O45507   3.292   4.827   6.400 -0.0202  0.3761  0.2481
11197WAT     H145508   3.345   4.805   6.466  1.1036 -1.9354 -1.2643
11197WAT     H245509   3.348   4.855   6.338 -0.8167  0.4016 -0.4719
11197WAT    EPW45510   3.308   4.828   6.400  0.0281  0.0384 -0.0816
11198WAT      O45511   1.065   2.116   3.035  0.3625  0.0244 -0.4899
11198WAT     H145512   1.085   2.031   3.035 -0.2471 -0.1656 -2.7892
11198WAT     H245513   0.979   2.117   3.050  0.3384  0.2363 -0.6403
11198WAT    EPW45514   1.055   2.104   3.037  0.2689  0.0276 -0.8517
11199WAT      O45515   4.275   6.825   4.244 -0.2957  0.8173 -0.2551
11199WAT     H145516   4.245   6.753   4.204 -1.0584  0.7551  0.4141
11199WAT     H245517   4.206   6.855   4.287  0.1869  1.6052 -0.0114
11199WAT    EPW45518   4.261   6.818   4.244 -0.3371  0.9245 -0.1202
11200WAT      O45519   5.611   6.640   7.207  0.0700  0.3691  0.0131
11200WAT     H145520   5.543   6.586   7.219 -0.4147  0.8987 -0.2739
11200WAT     H245521   5.633   6.626   7.124 -0.4183  1.0065 -0.2322
11200WAT    EPW45522   5.604   6.630   7.197 -0.0737  0.5415 -0.0655
11201WAT      O45523   3.341   7.042   1.041 -0.2932 -0.6295 -0.0845
11201WAT     H145524   3.379   6.977   1.084 -0.1927 -0.6653 -0.2278
11201WAT     H245525   3.289   7.001   0.984  1.9319 -0.6971 -2.2434
11201WAT    EPW45526   3.339   7.027   1.039  0.0503 -0.6448 -0.4246
11202WAT      O45527   1.447   2.517   4.886 -0.3357 -0.4456  0.2452
11202WAT     H145528   1.393   2.575   4.922 -0.5556 -0.1567 -0.5077
11202WAT     H245529   1.487   2.479   4.954 -1.3029 -0.4883  0.7993
11202WAT    EPW45530   1.445   2.520   4.901 -0.5110 -0.4093  0.2159
11203WAT      O45531   7.069   6.400   0.777  0.0441  0.2217 -0.5419
11203WAT     H145532   7.055   6.448   0.849  1.2889  1.1396 -0.8862
11203WAT     H245533   7.156   6.397   0.771 -0.0333  0.6737 -2.3359
11203WAT    EPW45534   7.080   6.406   0.787  0.2166  0.4241 -0.8578
11204WAT      O45535   1.071   2.295   3.899 -0.4840 -0.4368 -0.2092
11204WAT     H145536   1.012   2.339   3.851 -1.4897 -0.7808  0.6785
11204WAT     H245537   1.140   2.291   3.846 -0.6873  1.3532 -0.6982
11204WAT    EPW45538   1.072   2.301   3.884 -0.6626 -0.2232 -0.1503
11205WAT      O45539   6.698   1.924   6.519  0.4081  1.0164 -0.1730
11205WAT     H145540   6.616   1.952   6.506  0.4314  0.4393 -1.7214
11205WAT     H245541   6.729   1.911   6.439  1.7754  0.5045  0.4040
11205WAT    EPW45542   6.690   1.926   6.505  0.6135  0.8555 -0.3165
11206WAT      O45543   0.487   5.458   1.422 -0.0707  0.1342 -0.3607
11206WAT     H145544   0.401   5.458   1.410 -0.0664 -2.9872 -1.2285
11206WAT     H245545   0.499   5.514   1.487 -2.6530  1.1415 -0.6415
11206WAT    EPW45546   0.476   5.467   1.430 -0.4515 -0.1781 -0.5304
11207WAT      O45547   6.659   0.390   2.408 -0.6484 -0.1768 -0.1100
11207WAT     H145548   6.651   0.401   2.321  0.1168 -0.5393 -0.2253
11207WAT     H245549   6.739   0.419   2.425 -0.2162 -1.5359  0.2445
11207WAT    EPW45550   6.669   0.396   2.397 -0.4715 -0.4311 -0.0746
11208WAT      O45551   5.956   2.017   6.413 -0.1555  0.0806 -0.9915
11208WAT     H145552   5.881   1.972   6.416 -0.1486 -0.1275 -2.6787
11208WAT     H245553   5.940   2.080   6.355  0.4076  1.1966  0.0196
11208WAT    EPW45554   5.943   2.020   6.405 -0.0713  0.2147 -1.0914
11209WAT      O45555   1.441   0.743   5.907  0.3437 -0.0397  0.1115
11209WAT     H145556   1.477   0.752   5.828  1.2056 -1.4067  0.3136
11209WAT     H245557   1.432   0.657   5.915  1.1670  0.0038  1.8853
11209WAT    EPW45558   1.445   0.732   5.896  0.5927 -0.2352  0.4034
11210WAT      O45559   1.916   5.149   2.037 -0.8488 -0.4283  0.1005
11210WAT     H145560   1.988   5.098   2.037 -2.5186 -3.1352 -2.7419
11210WAT     H245561   1.871   5.120   2.106 -0.2503 -0.3332  0.5420
11210WAT    EPW45562   1.920   5.137   2.047 -1.0070 -0.8141 -0.2542
11211WAT      O45563   0.922   2.116   6.107  0.3753 -0.7453 -0.2916
11211WAT     H145564   0.888   2.154   6.177 -1.9322  0.7090 -2.0560
11211WAT     H245565   0.870   2.047   6.092  1.0670 -1.2664 -0.3942
11211WAT    EPW45566   0.910   2.111   6.115  0.1366 -0.6075 -0.5674
11212WAT      O45567   1.566   2.848   6.479 -0.0104 -0.0721 -0.7182
11212WAT     H145568   1.504   2.808   6.526 -0.8545 -0.0286 -1.7524
11212WAT     H245569   1.632   2.791   6.480  0.5020  0.4917  1.5896
11212WAT    EPW45570   1.566   2.834   6.486 -0.0594  0.0176 -0.5300
11213WAT      O45571   3.562   6.406   2.606 -0.4732  0.2522  0.3667
11213WAT     H145572   3.481   6.398   2.575 -0.5430 -0.4378  0.6994
11213WAT     H245573   3.556   6.474   2.661 -1.1642 -0.5729  1.3735
11213WAT    EPW45574   3.549   6.415   2.610 -0.5856  0.0284  0.5646
11214WAT      O45575   1.492   6.536   6.384  0.0968  0.1171  0.2216
11214WAT     H145576   1.530   6.523   6.306  0.5381  0.5736  0.3532
11214WAT     H245577   1.497   6.458   6.423  0.7760  0.1336  0.1800
11214WAT    EPW45578   1.499   6.523   6.378  0.2623  0.1870  0.2349
11215WAT      O45579   1.164   4.973   2.485 -0.3185  0.1490  0.4710
11215WAT     H145580   1.092   4.975   2.436 -0.6630  0.5336  0.9814
11215WAT     H245581   1.229   4.972   2.427 -0.6946  1.3061  0.0086
11215WAT    EPW45582   1.163   4.973   2.469 -0.4249  0.3767  0.4781
11216WAT      O45583   2.652   5.643   6.922  0.4749 -0.2143  0.0472
11216WAT     H145584   2.702   5.602   6.980  0.3218  1.7170  1.6480
11216WAT     H245585   2.571   5.632   6.953  0.3781  0.7229  0.1460
11216WAT    EPW45586   2.647   5.635   6.935  0.4380  0.2095  0.2983
11217WAT      O45587   1.103   4.910   1.015  0.3468 -0.0157 -0.0250
11217WAT     H145588   1.178   4.881   0.981  0.8731  0.8100  0.3744
11217WAT     H245589   1.116   4.901   1.101  0.9430  2.2289  0.1857
11217WAT    EPW45590   1.116   4.905   1.023  0.5126  0.4379  0.0651
11218WAT      O45591   6.686   2.820   2.237  0.1095 -0.2473  0.2010
11218WAT     H145592   6.651   2.873   2.177  2.0389 -0.2159 -0.9676
11218WAT     H245593   6.638   2.748   2.232 -2.3436  1.1331  1.5586
11218WAT    EPW45594   6.674   2.817   2.228  0.0321 -0.0387  0.2289
11219WAT      O45595   7.308   4.270   0.865 -0.5163 -0.1264  0.1267
11219WAT     H145596   7.233   4.316   0.868  0.1780  0.9921  1.5960
11219WAT     H245597   7.339   4.276   0.946  1.8261  0.5548 -0.7441
11219WAT    EPW45598   7.301   4.278   0.877 -0.0677  0.1395  0.2151
11220WAT      O45599   1.241   1.769   4.093  0.0029 -0.3084  0.6235
11220WAT     H145600   1.311   1.761   4.043 -0.5630 -0.4596 -0.1565
11220WAT     H245601   1.216   1.686   4.106  0.5781 -0.3209  1.7981
11220WAT    EPW45602   1.247   1.755   4.088  0.0043 -0.3326  0.6818
11221WAT      O45603   7.154   1.039   6.005 -0.0303  0.0088  0.2976
11221WAT     H145604   7.207   0.999   5.949  2.3022  1.1727  1.5525
11221WAT     H245605   7.125   1.108   5.960 -2.2457 -1.6674 -1.0798
11221WAT    EPW45606   7.157   1.043   5.990 -0.0130 -0.0669  0.2795
11222WAT      O45607   1.561   5.477   3.585 -0.1410  0.3855 -0.3035
11222WAT     H145608   1.628   5.520   3.549 -0.3313  0.7701 -0.2030
11222WAT     H245609   1.599   5.420   3.639  0.0824  1.9856  1.3344
11222WAT    EPW45610   1.576   5.475   3.588 -0.1361  0.6787 -0.0467
11223WAT      O45611   6.133   5.444   2.223  0.1600  0.3469 -0.4893
11223WAT     H145612   6.122   5.509   2.166  0.5621  0.3244 -0.5999
11223WAT     H245613   6.079   5.464   2.288 -0.3628  0.3278 -0.9158
11223WAT    EPW45614   6.123   5.456   2.224  0.1422  0.3408 -0.5686
11224WAT      O45615   5.990   1.071   4.681 -0.0602  0.0169  0.8668
11224WAT     H145616   5.965   0.989   4.663 -0.0427 -0.0350  1.0739
11224WAT     H245617   6.013   1.103   4.603  0.8220 -0.4823  0.9070
11224WAT    EPW45618   5.990   1.063   4.666  0.0727 -0.0645  0.9033
11225WAT      O45619   7.019   3.989   0.657  0.1051 -0.2066 -0.0483
11225WAT     H145620   7.014   4.006   0.743  0.3728  1.6681 -0.3808
11225WAT     H245621   7.104   3.980   0.643  0.1505  0.5411 -0.2911
11225WAT    EPW45622   7.031   3.990   0.668  0.1513  0.1808 -0.1333
11226WAT      O45623   2.706   5.269   4.115 -0.6499 -0.7090 -0.0878
11226WAT     H145624   2.633   5.297   4.077  0.1156  3.3511  0.9532
11226WAT     H245625   2.713   5.319   4.186  3.2658 -0.5964 -0.3143
11226WAT    EPW45626   2.697   5.281   4.120  0.0416 -0.0926  0.0325
11227WAT      O45627   6.250   2.320   1.374  0.1151  0.2271 -0.1685
11227WAT     H145628   6.188   2.267   1.342  0.8992 -0.6177 -0.3537
11227WAT     H245629   6.244   2.309   1.460 -0.0659  0.2398 -0.1782
11227WAT    EPW45630   6.240   2.310   1.382  0.2042  0.1042 -0.1973
11228WAT      O45631   3.367   3.784   0.509 -0.3932 -0.1650  0.1459
11228WAT     H145632   3.350   3.843   0.572 -1.5797  0.1211 -0.4087
11228WAT     H245633   3.392   3.833   0.442 -2.2087 -0.1559 -0.5962
11228WAT    EPW45634   3.368   3.800   0.508 -0.8367 -0.1214 -0.0457
11229WAT      O45635   4.767   5.181   7.316 -0.3405 -0.0885  0.6216
11229WAT     H145636   4.682   5.198   7.326 -0.0589  1.3314  0.7443
11229WAT     H245637   4.791   5.150   7.394 -1.0488 -2.0291  0.1297
11229WAT    EPW45638   4.758   5.179   7.329 -0.4036 -0.1654  0.5670
11230WAT      O45639   1.953   5.884   2.423 -0.4799 -0.2153  0.3237
11230WAT     H145640   1.990   5.943   2.476  0.0302  0.1979 -0.4770
11230WAT     H245641   2.011   5.876   2.358 -1.1694 -0.5874 -0.2572
11230WAT    EPW45642   1.967   5.892   2.421 -0.5064 -0.2093  0.1196
11231WAT      O45643   0.313   5.591   1.733  0.4954  0.8353  0.2878
11231WAT     H145644   0.298   5.576   1.817 -3.0556 -1.6898 -0.5597
11231WAT     H245645   0.259   5.658   1.715 -1.2800 -0.7162 -0.4939
11231WAT    EPW45646   0.303   5.599   1.743 -0.2914  0.2331  0.0471
11232WAT      O45647   5.368   3.893   1.132 -0.0228  0.8916 -0.1825
11232WAT     H145648   5.326   3.842   1.075 -0.0810 -0.8934  1.3630
11232WAT     H245649   5.444   3.852   1.143 -0.9163 -0.2058  2.7606
11232WAT    EPW45650   5.373   3.879   1.125 -0.1634  0.4658  0.4806
11233WAT      O45651   6.576   0.613   4.426 -0.2628  0.3087 -0.6273
11233WAT     H145652   6.606   0.659   4.494 -0.2912  0.8209 -0.9552
11233WAT     H245653   6.500   0.582   4.454  0.2948 -0.5441  0.0169
11233WAT    EPW45654   6.569   0.615   4.440 -0.1846  0.2584 -0.5806
11234WAT      O45655   1.614   7.108   0.724 -0.1550 -0.1537  0.4664
11234WAT     H145656   1.671   7.079   0.784  0.6131  0.7914  0.2141
11234WAT     H245657   1.608   7.042   0.668  2.0515  0.3463 -0.4404
11234WAT    EPW45658   1.622   7.094   0.725  0.2844  0.0598  0.2952
11235WAT      O45659   2.949   4.495   5.953  0.0836 -0.6355  0.4931
11235WAT     H145660   2.915   4.571   5.929  0.4512 -1.2993 -2.5587
11235WAT     H245661   2.916   4.438   5.896  1.3231 -2.4158  1.4332
11235WAT    EPW45662   2.939   4.498   5.941  0.3210 -0.9965  0.1812
11236WAT      O45663   2.013   4.836   3.950 -0.1490 -0.2090  0.3386
11236WAT     H145664   2.079   4.780   3.964  0.0061 -0.2814 -0.6462
11236WAT     H245665   2.007   4.879   4.026  1.1596 -0.0728  0.3907
11236WAT    EPW45666   2.022   4.834   3.963  0.0672 -0.1996  0.2008
11237WAT      O45667   1.761   5.028   2.451  0.0030 -0.0850  0.3389
11237WAT     H145668   1.789   4.949   2.427  0.3964 -0.0307  0.6067
11237WAT     H245669   1.700   5.011   2.511  0.6928 -0.1691  1.0220
11237WAT    EPW45670   1.756   5.014   2.456  0.1630 -0.0894  0.4793
11238WAT      O45671   1.698   4.665   5.590 -0.0644 -0.2322 -0.1760
11238WAT     H145672   1.670   4.604   5.646 -0.3471  1.5281  1.7475
11238WAT     H245673   1.651   4.650   5.518 -1.0802 -1.4735  0.6937
11238WAT    EPW45674   1.687   4.654   5.588 -0.2562 -0.1556  0.2366
11239WAT      O45675   1.351   4.405   0.575 -0.2562 -0.2047  0.3390
11239WAT     H145676   1.406   4.368   0.519 -3.0707 -2.0411 -1.4848
11239WAT     H245677   1.372   4.490   0.572  0.3425 -0.3194 -2.9332
11239WAT    EPW45678   1.362   4.412   0.566 -0.5836 -0.4929 -0.4138
11240WAT      O45679   3.608   5.917   0.390 -0.1301 -0.2261 -0.1058
11240WAT     H145680   3.613   5.960   0.466 -0.4512 -1.3513  0.5727
11240WAT     H245681   3.582   5.978   0.333  1.7437  1.0553  0.3036
11240WAT    EPW45682   3.605   5.932   0.393  0.0993 -0.2030  0.0549
11241WAT      O45683   0.850   5.083   0.403  0.2591 -0.3487 -0.2613
11241WAT     H145684   0.915   5.100   0.348 -0.4246 -0.9453 -1.2940
11241WAT     H245685   0.862   5.140   0.467  0.9213  0.5684 -1.1649
11241WAT    EPW45686   0.861   5.094   0.404  0.2559 -0.3014 -0.5473
11242WAT      O45687   5.703   6.604   5.402 -0.2419  0.1070 -0.1227
11242WAT     H145688   5.728   6.686   5.384 -0.6306  0.3674  0.4956
11242WAT     H245689   5.773   6.557   5.381 -0.7053  0.3436 -2.4874
11242WAT    EPW45690   5.717   6.609   5.397 -0.3678  0.1804 -0.3807
11243WAT      O45691   2.211   5.584   3.762 -0.1545 -0.7419 -0.0733
11243WAT     H145692   2.263   5.653   3.777  1.2297 -2.1386  2.2452
11243WAT     H245693   2.131   5.619   3.756  0.7842  1.2830 -1.7033
11243WAT    EPW45694   2.207   5.599   3.763  0.1886 -0.6491  0.0284
11244WAT      O45695   1.128   1.838   7.112  0.0152 -0.0073  0.0702
11244WAT     H145696   1.202   1.851   7.068  0.3373 -2.0782 -0.1061
11244WAT     H245697   1.143   1.874   7.190  1.8498 -1.6857  0.5817
11244WAT    EPW45698   1.141   1.845   7.117  0.3338 -0.5611  0.1197
11245WAT      O45699   2.840   5.310   0.372  0.5022 -0.3044 -0.0398
11245WAT     H145700   2.796   5.381   0.395 -0.8616 -1.4143  0.9831
11245WAT     H245701   2.920   5.323   0.404  0.1461  0.5796  0.5131
11245WAT    EPW45702   2.845   5.322   0.380  0.2481 -0.3378  0.1930
11246WAT      O45703   0.793   2.283   4.564  0.2748 -0.0436  0.4305
11246WAT     H145704   0.739   2.216   4.550  0.2651 -0.0488  0.4942
11246WAT     H245705   0.820   2.271   4.646  1.4569 -0.8174 -0.0430
11246WAT    EPW45706   0.789   2.272   4.574  0.4480 -0.1587  0.3700
11247WAT      O45707   3.876   4.129   4.909 -0.5897 -0.0980  0.3792
11247WAT     H145708   3.807   4.130   4.855 -0.6899  2.0276  0.4578
11247WAT     H245709   3.873   4.208   4.947  0.2487 -1.0348  2.5225
11247WAT    EPW45710   3.865   4.141   4.906 -0.4806  0.0776  0.7074
11248WAT      O45711   3.546   6.640   1.456 -0.6297 -0.2388  0.5539
11248WAT     H145712   3.598   6.570   1.450 -0.8772 -0.5180  1.5349
11248WAT     H245713   3.588   6.701   1.410  0.7090 -0.3801  1.5485
11248WAT    EPW45714   3.560   6.639   1.448 -0.4685 -0.3009  0.8457
11249WAT      O45715   0.736   2.722   4.219 -0.0479  0.0584 -0.0087
11249WAT     H145716   0.811   2.726   4.263 -0.6668 -1.0304  1.2004
11249WAT     H245717   0.679   2.691   4.277 -0.4679 -3.4574 -1.9655
11249WAT    EPW45718   0.739   2.718   4.234 -0.2014 -0.6218 -0.1191
11250WAT      O45719   3.433   0.519   1.484 -0.5411  0.3504 -0.5583
11250WAT     H145720   3.417   0.447   1.437 -3.4932  1.6681 -1.8609
11250WAT     H245721   3.443   0.581   1.423 -0.0789  1.3996  0.5487
11250WAT    EPW45722   3.432   0.517   1.468 -0.9089  0.7001 -0.5872
11251WAT      O45723   1.833   0.699   3.825  0.2893 -0.3180  1.0375
11251WAT     H145724   1.896   0.639   3.829  0.7067  0.1240  1.0476
11251WAT     H245725   1.782   0.678   3.893  1.1673  0.1576  1.8685
11251WAT    EPW45726   1.835   0.687   3.836  0.4807 -0.1824  1.1618
11252WAT      O45727   6.377   0.190   5.998  0.3964  0.5676  0.3472
11252WAT     H145728   6.425   0.241   6.050  2.6724  1.5137 -2.4015
11252WAT     H245729   6.303   0.235   5.988  0.8367  1.4581  0.9637
11252WAT    EPW45730   6.373   0.205   6.004  0.7977  0.8389  0.0322
11253WAT      O45731   1.556   2.487   0.863  0.1872  0.4555  0.1416
11253WAT     H145732   1.634   2.491   0.900  0.0694  1.8333  0.2823
11253WAT     H245733   1.507   2.445   0.922  0.5226  0.7110  0.6079
11253WAT    EPW45734   1.560   2.482   0.877  0.2193  0.6968  0.2312
11254WAT      O45735   4.393   5.837   4.440  0.3606 -0.1129  0.1965
11254WAT     H145736   4.448   5.826   4.507  1.0345  2.3181  0.1408
11254WAT     H245737   4.357   5.915   4.456 -1.5851 -0.7538 -0.8288
11254WAT    EPW45738   4.396   5.847   4.453  0.1727  0.1516  0.0368
11255WAT      O45739   3.923   3.494   0.408  0.2543 -0.0526  0.1445
11255WAT     H145740   3.937   3.474   0.324  2.0291  0.5020  0.2672
11255WAT     H245741   3.937   3.580   0.411 -1.7524  0.2902  0.6645
11255WAT    EPW45742   3.927   3.504   0.396  0.2201  0.0800  0.2394
11256WAT      O45743   4.860   0.895   7.056  0.5928  0.1573  0.8589
11256WAT     H145744   4.843   0.811   7.069 -0.7285 -0.1146 -1.9118
11256WAT     H245745   4.947   0.897   7.046  0.6086 -0.9409  0.7038
11256WAT    EPW45746   4.871   0.883   7.056  0.4000 -0.0451  0.4267
11257WAT      O45747   6.118   1.685   6.484 -0.4950 -0.1017  0.4676
11257WAT     H145748   6.081   1.681   6.563 -0.7531 -0.5022  0.3285
11257WAT     H245749   6.080   1.755   6.448 -0.3763  0.0827  0.6956
11257WAT    EPW45750   6.107   1.695   6.491 -0.5156 -0.1336  0.4807
11258WAT      O45751   1.139   0.987   6.420  0.0434 -0.2369 -0.0120
11258WAT     H145752   1.113   0.906   6.401  0.6431 -0.8805  1.7064
11258WAT     H245753   1.217   0.993   6.380 -0.6879  0.1030 -1.4596
11258WAT    EPW45754   1.147   0.976   6.411  0.0239 -0.2818  0.0280
11259WAT      O45755   2.623   7.261   0.337 -0.6227  0.3302 -0.0716
11259WAT     H145756   2.644   7.204   0.275 -2.1086 -0.2723 -0.0706
11259WAT     H245757   2.537   7.271   0.327 -0.6768  1.2244  1.0617
11259WAT    EPW45758   2.613   7.254   0.326 -0.8502  0.3733  0.0960
11260WAT      O45759   4.040   2.528   1.418 -0.0470 -0.1786 -0.1584
11260WAT     H145760   4.045   2.466   1.357  0.5835 -0.5562  0.2625
11260WAT     H245761   4.114   2.573   1.406 -0.4773  0.4713 -0.4330
11260WAT    EPW45762   4.052   2.526   1.407 -0.0174 -0.1384 -0.1367
11261WAT      O45763   0.008   6.723   0.910  0.4169  0.5443  0.2027
11261WAT     H145764  -0.073   6.736   0.879  0.1670 -2.3574 -0.6524
11261WAT     H245765   0.058   6.723   0.838  1.1472  1.7245  0.6686
11261WAT    EPW45766   0.004   6.725   0.895  0.4879  0.2900  0.1452
11262WAT      O45767   0.284   1.253   3.098 -0.5643  0.3606 -0.1056
11262WAT     H145768   0.344   1.298   3.141 -0.5676  0.1804  0.0884
11262WAT     H245769   0.324   1.177   3.081 -0.8178  0.1535  0.2263
11262WAT    EPW45770   0.299   1.248   3.102 -0.6022  0.3034 -0.0279
11263WAT      O45771   3.368   1.844   4.527 -0.3025 -0.4046 -0.1212
11263WAT     H145772   3.285   1.842   4.501 -0.5981  1.7780  0.4331
11263WAT     H245773   3.412   1.864   4.454 -0.2873 -1.1804 -0.3342
11263WAT    EPW45774   3.362   1.847   4.512 -0.3439 -0.1968 -0.0708
11264WAT      O45775   1.508   2.008   5.143  0.0867 -0.1234 -0.2378
11264WAT     H145776   1.562   1.983   5.206 -0.2984  1.1571  0.6354
11264WAT     H245777   1.444   2.048   5.186 -1.1287 -0.8255 -1.3159
11264WAT    EPW45778   1.506   2.010   5.159 -0.1497 -0.0380 -0.2681
11265WAT      O45779   1.417   3.180   7.113 -0.4488  0.1397 -0.1905
11265WAT     H145780   1.474   3.134   7.067 -0.0007  0.0327  0.4606
11265WAT     H245781   1.356   3.121   7.134  0.9582 -0.6324  2.0759
11265WAT    EPW45782   1.416   3.164   7.109 -0.1748  0.0099  0.2404
11266WAT      O45783   1.334   0.591   3.180 -0.2115 -0.0764  0.1673
11266WAT     H145784   1.358   0.516   3.218  0.7515  1.3678  2.7331
11266WAT     H245785   1.405   0.641   3.188 -0.8058  1.1359 -1.5045
11266WAT    EPW45786   1.348   0.587   3.187 -0.1570  0.3160  0.2994
11267WAT      O45787   7.159   0.814   7.200 -0.0269 -0.1594  0.0737
11267WAT     H145788   7.083   0.845   7.229  0.7964  1.3222  0.7393
11267WAT     H245789   7.153   0.822   7.113 -1.8314 -3.0364 -0.1951
11267WAT    EPW45790   7.147   0.820   7.191 -0.1719 -0.3655  0.1323
11268WAT      O45791   1.901   4.484   5.033  0.3259  0.2565  0.9134
11268WAT     H145792   1.978   4.472   4.993 -1.1093  1.1228 -2.4232
11268WAT     H245793   1.878   4.403   5.056  1.7976 -0.1257  1.1650
11268WAT    EPW45794   1.909   4.470   5.031  0.3313  0.3281  0.4577
11269WAT      O45795   4.105   4.778   1.722  0.4002  0.7050  0.3896
11269WAT     H145796   4.057   4.725   1.673  2.7151 -2.2324  1.0074
11269WAT     H245797   4.139   4.834   1.665 -0.0317 -0.1831 -0.7672
11269WAT    EPW45798   4.103   4.779   1.706  0.6784  0.1399  0.3100
11270WAT      O45799   3.318   4.419   5.785  0.4220 -0.1742 -0.1229
11270WAT     H145800   3.328   4.440   5.701 -0.5065  0.0231 -0.1910
11270WAT     H245801   3.277   4.342   5.782 -1.3209  0.6923  0.1282
11270WAT    EPW45802   3.314   4.411   5.772  0.0274 -0.0170 -0.0958
11271WAT      O45803   5.207   6.091   3.371  0.3743  0.7344 -0.3123
11271WAT     H145804   5.188   6.168   3.408  1.0768  1.1058 -0.7061
11271WAT     H245805   5.263   6.112   3.308  1.5440 -0.2360  0.3637
11271WAT    EPW45806   5.212   6.106   3.367  0.6509  0.6459 -0.2706
11272WAT      O45807   6.898   4.391   3.965  0.3952 -0.4455  0.2992
11272WAT     H145808   6.920   4.345   4.037 -1.4765  0.3967  1.4691
11272WAT     H245809   6.817   4.365   3.948  1.4619 -2.2477 -2.9270
11272WAT    EPW45810   6.890   4.380   3.973  0.2763 -0.5873 -0.0046
11273WAT      O45811   6.521   2.298   7.350 -0.1060  0.2813 -0.1440
11273WAT     H145812   6.533   2.351   7.282 -0.0186 -0.1398 -0.4633
11273WAT     H245813   6.594   2.250   7.352 -1.0266 -1.2325 -1.1307
11273WAT    EPW45814   6.534   2.298   7.340 -0.2291 -0.0045 -0.3369
11274WAT      O45815   3.975   0.258   5.871 -0.2994 -0.9853 -0.5065
11274WAT     H145816   3.967   0.286   5.954  0.4399  0.9931 -1.0324
11274WAT     H245817   3.896   0.227   5.852 -0.4122 -1.7003  0.9964
11274WAT    EPW45818   3.962   0.258   5.881 -0.2069 -0.7987 -0.3622
11275WAT      O45819   4.944   1.420   4.016 -0.3528  0.2498 -0.1749
11275WAT     H145820   5.015   1.369   4.020  0.8600  1.7905 -0.8401
11275WAT     H245821   4.935   1.435   3.931 -0.9847  0.7323 -0.0260
11275WAT    EPW45822   4.953   1.414   4.004 -0.2670  0.5487 -0.2512
11276WAT      O45823   2.829   5.522   1.459  0.2125  0.3609  0.1298
11276WAT     H145824   2.893   5.534   1.401  0.0431 -1.2118 -0.4629
11276WAT     H245825   2.763   5.491   1.409 -1.1922  2.3326  0.6403
11276WAT    EPW45826   2.829   5.519   1.443 -0.0200  0.4198  0.1176
11277WAT      O45827   3.995   3.421   1.140 -0.5011 -0.4082  0.3584
11277WAT     H145828   4.025   3.341   1.160  0.5559  0.4159  2.3227
11277WAT     H245829   4.028   3.472   1.203 -0.0875  1.8227 -1.5373
11277WAT    EPW45830   4.004   3.417   1.152 -0.2838  0.0431  0.3685
11278WAT      O45831   3.065   3.983   3.442 -0.1727 -0.0352  0.0445
11278WAT     H145832   3.025   4.054   3.412 -0.5224  0.4053  1.5182
11278WAT     H245833   3.004   3.921   3.437 -0.5095  0.2407  0.6549
11278WAT    EPW45834   3.050   3.984   3.437 -0.2741  0.0706  0.3524
11279WAT      O45835   2.662   0.878   5.662  0.2780  0.1220  0.1320
11279WAT     H145836   2.591   0.846   5.703 -1.2692  0.7493 -1.8808
11279WAT     H245837   2.726   0.825   5.688 -1.0698 -0.9759  1.4250
11279WAT    EPW45838   2.661   0.866   5.672 -0.1497  0.0525  0.0257
11280WAT      O45839   5.538   1.461   5.287 -0.1153 -1.1390  0.5755
11280WAT     H145840   5.528   1.543   5.314  0.3060 -0.7006 -0.5500
11280WAT     H245841   5.553   1.468   5.202 -1.6887 -2.5032  0.1292
11280WAT    EPW45842   5.539   1.474   5.279 -0.2855 -1.2758  0.3433
11281WAT      O45843   5.164   2.568   6.809  0.3145  0.4216 -0.0343
11281WAT     H145844   5.139   2.535   6.732 -0.7712  0.8579  0.1152
11281WAT     H245845   5.177   2.653   6.791 -1.1617  0.7831  0.5192
11281WAT    EPW45846   5.163   2.576   6.795 -0.0640  0.5394  0.0695
11282WAT      O45847   0.405   1.749   5.848 -0.0494 -0.2302  0.4007
11282WAT     H145848   0.406   1.752   5.760 -0.5077 -0.0035  0.3957
11282WAT     H245849   0.489   1.743   5.870  0.1540  0.8955 -0.0243
11282WAT    EPW45850   0.417   1.748   5.838 -0.0870 -0.0305  0.3372
11283WAT      O45851   7.214   5.588   5.124 -0.6313  0.0790 -0.2380
11283WAT     H145852   7.171   5.650   5.169 -0.8861 -0.9293  0.9814
11283WAT     H245853   7.190   5.514   5.164  1.4180 -0.6155 -0.1800
11283WAT    EPW45854   7.204   5.586   5.137 -0.3662 -0.1726 -0.0493
11284WAT      O45855   3.932   2.655   0.112  0.1695  0.8863 -0.6061
11284WAT     H145856   4.015   2.670   0.136  0.3731  0.0298 -0.7394
11284WAT     H245857   3.911   2.725   0.064 -0.2396  2.6696  1.9637
11284WAT    EPW45858   3.941   2.668   0.109  0.1392  1.0232 -0.2462
11285WAT      O45859   5.197   4.313   2.776 -0.4642 -0.4645 -0.0447
11285WAT     H145860   5.204   4.248   2.718 -1.6489  0.1020 -0.8742
11285WAT     H245861   5.225   4.383   2.732 -0.5987 -0.1642  0.3378
11285WAT    EPW45862   5.202   4.314   2.761 -0.6591 -0.3364 -0.1107
11286WAT      O45863   0.139   5.031   4.120 -0.4538 -0.1904  0.6886
11286WAT     H145864   0.134   4.944   4.114  0.8068 -0.3405  1.3993
11286WAT     H245865   0.073   5.052   4.173 -0.2183 -0.8342  1.2582
11286WAT    EPW45866   0.129   5.021   4.127 -0.2328 -0.3076  0.8777
11287WAT      O45867   1.300   1.474   2.067 -0.2483  0.2369  0.1769
11287WAT     H145868   1.366   1.483   2.011 -1.7722  1.4910 -1.5312
11287WAT     H245869   1.233   1.448   2.017 -0.8471 -2.1199  2.0274
11287WAT    EPW45870   1.300   1.471   2.052 -0.5619  0.0740  0.1979
11288WAT      O45871   1.109   0.316   2.902 -0.2883 -0.1463 -0.5461
11288WAT     H145872   1.193   0.304   2.920 -0.3554  0.1008 -0.0763
11288WAT     H245873   1.068   0.260   2.955 -0.3452 -1.7922 -2.1947
11288WAT    EPW45874   1.115   0.306   2.912 -0.3066 -0.3529 -0.7202
11289WAT      O45875   1.270   3.873   0.839  0.1702  0.4894 -0.0988
11289WAT     H145876   1.272   3.811   0.900  0.7837 -0.1155 -0.7138
11289WAT     H245877   1.355   3.889   0.824  0.0174  1.1779 -0.2415
11289WAT    EPW45878   1.283   3.866   0.846  0.2383  0.5017 -0.2107
11290WAT      O45879   4.681   5.112   1.088  0.4628  0.6008 -0.8365
11290WAT     H145880   4.702   5.060   1.021  2.7523 -0.1547  0.3506
11290WAT     H245881   4.682   5.192   1.053 -0.0380  0.1099 -2.0301
11290WAT    EPW45882   4.684   5.116   1.073  0.7271  0.4167 -0.8375
11291WAT      O45883   4.304   1.155   3.074  0.3787 -0.7203 -0.3165
11291WAT     H145884   4.246   1.197   3.123  2.6927  2.4975 -0.0352
11291WAT     H245885   4.255   1.103   3.024 -2.3765 -0.9901  2.3702
11291WAT    EPW45886   4.288   1.153   3.074  0.3135 -0.2848  0.1219
11292WAT      O45887   6.887   5.465   3.725 -0.4455  0.4231 -0.4707
11292WAT     H145888   6.969   5.495   3.719  1.1427 -3.2076  0.1368
11292WAT     H245889   6.854   5.510   3.792  0.6629  2.6169 -1.2761
11292WAT    EPW45890   6.894   5.476   3.734 -0.0472  0.2108 -0.5000
11293WAT      O45891   0.768   4.148   6.766 -0.4779 -0.1166 -0.4524
11293WAT     H145892   0.700   4.175   6.814 -1.2427 -0.6368 -1.1928
11293WAT     H245893   0.828   4.209   6.778 -1.5367  1.0224 -0.7418
11293WAT    EPW45894   0.767   4.161   6.775 -0.7472 -0.0252 -0.6045
11294WAT      O45895   5.270   6.919   0.305 -0.1827 -0.5031 -0.2439
11294WAT     H145896   5.281   6.927   0.219 -2.0253  0.2041 -0.4616
11294WAT     H245897   5.257   6.834   0.317 -0.2939 -0.5508 -0.7102
11294WAT    EPW45898   5.270   6.908   0.294 -0.4713 -0.4057 -0.3449
11295WAT      O45899   1.748   1.719   1.838  0.8594  0.1440 -0.4641
11295WAT     H145900   1.769   1.747   1.758 -0.4627  0.9687 -0.5527
11295WAT     H245901   1.706   1.786   1.873  0.2879 -0.6619  0.4588
11295WAT    EPW45902   1.745   1.733   1.831  0.5796  0.1468 -0.3409
11296WAT      O45903   0.527   5.795   6.855  0.1555 -0.2817 -0.4967
11296WAT     H145904   0.573   5.806   6.927  0.3367  1.8566 -0.8957
11296WAT     H245905   0.444   5.797   6.882  0.2330 -1.5509 -0.1159
11296WAT    EPW45906   0.521   5.797   6.869  0.1937 -0.1533 -0.4994
11297WAT      O45907   1.143   5.713   4.787  0.3757  0.0718 -0.6117
11297WAT     H145908   1.168   5.716   4.704 -0.3688 -2.8724 -1.0646
11297WAT     H245909   1.064   5.676   4.783 -0.5599  1.6482  1.3244
11297WAT    EPW45910   1.135   5.708   4.774  0.1275 -0.1302 -0.3926
11298WAT      O45911   5.996   4.157   6.084  0.2769  0.3078 -0.4700
11298WAT     H145912   6.073   4.116   6.093 -1.2565 -2.8192 -0.2113
11298WAT     H245913   5.980   4.188   6.164  1.5502  1.7119 -0.7065
11298WAT    EPW45914   6.005   4.155   6.097  0.2385  0.0533 -0.4667
11299WAT      O45915   0.726   5.257   2.099 -0.1740  0.2499  0.0286
11299WAT     H145916   0.656   5.241   2.049  0.1183 -0.6184 -0.1072
11299WAT     H245917   0.793   5.229   2.050  0.0021 -2.3544  1.5902
11299WAT    EPW45918   0.726   5.251   2.084 -0.1048 -0.2631  0.2392
11300WAT      O45919   1.109   4.601   0.321 -0.3921 -0.0670 -0.0975
11300WAT     H145920   1.073   4.669   0.279  0.1668  0.3082  0.0121
11300WAT     H245921   1.156   4.561   0.259 -0.8085 -0.4192 -0.1869
11300WAT    EPW45922   1.111   4.605   0.306 -0.3710 -0.0636 -0.0945
11301WAT      O45923   3.879   3.755   7.120 -0.1310 -0.6217  0.0248
11301WAT     H145924   3.798   3.751   7.088 -0.4655 -0.5175  0.8355
11301WAT     H245925   3.923   3.797   7.058 -0.9482  0.3394  0.0747
11301WAT    EPW45926   3.873   3.760   7.106 -0.3012 -0.4643  0.1520
11302WAT      O45927   1.921   2.110   5.073  0.0408  0.1458  0.4873
11302WAT     H145928   2.001   2.141   5.086 -0.0813  0.8614 -0.4335
11302WAT     H245929   1.874   2.181   5.055 -0.4434 -0.4392 -0.6558
11302WAT    EPW45930   1.926   2.125   5.073 -0.0488  0.1651  0.1824
11303WAT      O45931   0.839   0.776   4.098  0.0647  0.2137 -0.1355
11303WAT     H145932   0.773   0.811   4.053 -0.2420 -1.2258 -0.8646
11303WAT     H245933   0.854   0.700   4.058  1.9126  0.3128  0.2620
11303WAT    EPW45934   0.832   0.770   4.086  0.2923  0.0157 -0.1845
11304WAT      O45935   6.489   6.536   3.706  0.2649 -0.2001 -0.3314
11304WAT     H145936   6.490   6.487   3.778 -0.0885 -0.7019 -0.6651
11304WAT     H245937   6.408   6.566   3.702 -0.6386 -2.5686 -2.0928
11304WAT    EPW45938   6.477   6.534   3.716  0.0792 -0.6241 -0.6409
11305WAT      O45939   4.899   4.040   5.815 -0.1174 -0.7426 -0.0027
11305WAT     H145940   4.846   4.028   5.747 -0.6658 -0.7579  0.4253
11305WAT     H245941   4.845   4.048   5.883  0.2088  2.7530  0.0093
11305WAT    EPW45942   4.883   4.040   5.815 -0.1503 -0.2285  0.0623
11306WAT      O45943   5.458   3.510   6.626 -0.7100  0.1183 -0.0219
11306WAT     H145944   5.427   3.529   6.546  0.1642  0.0864 -0.3801
11306WAT     H245945   5.453   3.423   6.629  4.3136 -0.6464 -2.3302
11306WAT    EPW45946   5.453   3.500   6.614  0.1612  0.0006 -0.4158
11307WAT      O45947   5.229   3.676   5.685 -0.4975 -0.2507 -0.1763
11307WAT     H145948   5.291   3.716   5.640 -0.7233 -0.2425 -0.4843
11307WAT     H245949   5.195   3.740   5.735  3.1769 -1.1197  4.0664
11307WAT    EPW45950   5.233   3.691   5.686  0.0119 -0.3779  0.4049
11308WAT      O45951   2.975   5.164   4.392 -0.3803 -0.6131  0.1012
11308WAT     H145952   2.941   5.203   4.322 -1.0168  1.2444  1.3669
11308WAT     H245953   2.920   5.098   4.408 -1.4804  0.2980  0.1350
11308WAT    EPW45954   2.962   5.160   4.384 -0.6368 -0.2041  0.2932
11309WAT      O45955   5.276   1.761   0.614 -0.4444  0.2048  0.0110
11309WAT     H145956   5.306   1.774   0.695  4.5505 -1.5803 -1.1862
11309WAT     H245957   5.222   1.693   0.623  1.4281 -1.1618  1.7394
11309WAT    EPW45958   5.273   1.753   0.627  0.5701 -0.2608  0.0895
11310WAT      O45959   3.719   7.193   1.386  0.0101  0.2766 -0.2626
11310WAT     H145960   3.744   7.187   1.470  0.3533 -1.0725 -0.4424
11310WAT     H245961   3.788   7.229   1.347  0.9021 -1.4694 -0.3830
11310WAT    EPW45962   3.733   7.197   1.393  0.1925 -0.1806 -0.3069
11311WAT      O45963   0.399   3.942   4.839 -0.2718 -0.6352  0.7062
11311WAT     H145964   0.390   4.029   4.834  0.8674 -0.4820  0.9662
11311WAT     H245965   0.481   3.932   4.867 -0.5533 -1.7949  1.1625
11311WAT    EPW45966   0.410   3.953   4.842 -0.1451 -0.7839  0.8120
11312WAT      O45967   0.703   3.402   4.633 -0.0767 -0.6645  0.0663
11312WAT     H145968   0.779   3.362   4.619  1.4872  1.7278  1.1495
11312WAT     H245969   0.664   3.351   4.692  1.1716 -1.3959  0.3038
11312WAT    EPW45970   0.708   3.389   4.640  0.3387 -0.4191  0.2614
11313WAT      O45971   4.935   3.875   3.524  0.4433 -0.0835 -0.7183
11313WAT     H145972   4.855   3.874   3.559  0.7501 -1.2919 -0.0008
11313WAT     H245973   4.949   3.959   3.507 -1.2039  0.1028 -1.3745
11313WAT    EPW45974   4.925   3.887   3.526  0.2453 -0.2345 -0.7092
11314WAT      O45975   4.712   4.051   6.051  0.6294  0.2568 -0.2817
11314WAT     H145976   4.766   4.005   6.102  0.8703 -1.9899 -2.3886
11314WAT     H245977   4.716   4.132   6.084  0.7255 -1.0326  3.1930
11314WAT    EPW45978   4.721   4.056   6.063  0.6792 -0.2656 -0.0797
11315WAT      O45979   5.213   0.038   2.563  0.3441 -0.1345  0.3331
11315WAT     H145980   5.198  -0.033   2.515  1.0532 -1.3608  1.8395
11315WAT     H245981   5.295   0.027   2.590 -0.0141  0.5089  1.7874
11315WAT    EPW45982   5.223   0.026   2.560  0.3959 -0.2206  0.7705
11316WAT      O45983   2.496   4.097   6.569  0.2036 -0.3498 -0.3771
11316WAT     H145984   2.414   4.085   6.544  0.4106  0.9323 -1.7611
11316WAT     H245985   2.508   4.183   6.561  1.6052 -0.4784  0.0575
11316WAT    EPW45986   2.486   4.108   6.564  0.4412 -0.1794 -0.5173
11317WAT      O45987   2.347   0.411   5.563 -0.3551 -0.1911 -0.0983
11317WAT     H145988   2.304   0.467   5.513  0.1131  0.6281  0.4042
11317WAT     H245989   2.305   0.414   5.639 -1.3815 -1.8115 -0.5571
11317WAT    EPW45990   2.335   0.419   5.567 -0.4376 -0.3094 -0.0919
11318WAT      O45991   2.445   5.439   1.901  0.2689 -0.2430 -0.1100
11318WAT     H145992   2.454   5.353   1.893  0.3167 -0.2645  0.1770
11318WAT     H245993   2.476   5.470   1.825 -0.8196 -0.5410 -0.6848
11318WAT    EPW45994   2.451   5.431   1.889  0.1151 -0.2902 -0.1525
11319WAT      O45995   6.384   0.848   5.617 -0.3501 -0.0336 -0.2483
11319WAT     H145996   6.462   0.819   5.591 -0.8718  0.0109 -2.0242
11319WAT     H245997   6.342   0.776   5.643 -0.1873 -0.2559 -0.5951
11319WAT    EPW45998   6.390   0.833   5.617 -0.4031 -0.0599 -0.5619
11320WAT      O45999   0.447   6.040   2.681 -0.1261  0.2850 -0.0057
11320WAT     H146000   0.532   6.022   2.672  0.1450  1.7994 -0.8247
11320WAT     H246001   0.446   6.126   2.699 -1.4710  0.2213  0.3566
11320WAT    EPW46002   0.459   6.050   2.682 -0.2847  0.4993 -0.0732
11321WAT      O46003   6.958   6.089   0.459  0.2413 -0.1626 -0.0420
11321WAT     H146004   6.994   6.162   0.491 -1.5921  0.6305  0.3416
11321WAT     H246005   6.938   6.043   0.530  0.7216 -0.7132 -0.2579
11321WAT    EPW46006   6.960   6.093   0.474  0.0414 -0.1267 -0.0173
11322WAT      O46007   2.667   7.032   1.911 -0.1368 -0.2025 -0.2525
11322WAT     H146008   2.673   7.111   1.948  0.5078 -0.2462 -0.2463
11322WAT     H246009   2.593   7.036   1.866 -1.1046 -0.2457  1.2620
11322WAT    EPW46010   2.657   7.044   1.910 -0.1846 -0.2153 -0.0278
11323WAT      O46011   5.024   6.170   7.222  0.5587  0.2359 -0.3639
11323WAT     H146012   5.072   6.203   7.157  0.7186 -0.5710 -0.6670
11323WAT     H246013   4.987   6.241   7.258 -2.0673  0.5402 -3.2541
11323WAT    EPW46014   5.026   6.186   7.218  0.1944  0.1617 -0.8356
11324WAT      O46015   4.691   3.981   6.491  0.3505 -0.1669  0.0011
11324WAT     H146016   4.699   3.894   6.497  0.2712 -0.2512 -0.9245
11324WAT     H246017   4.682   3.994   6.406  1.4065  0.8572  0.0268
11324WAT    EPW46018   4.691   3.970   6.479  0.4948 -0.0281 -0.1318
11325WAT      O46019   7.111   2.820   4.360  0.0374  0.1685  0.1766
11325WAT     H146020   7.191   2.794   4.334  0.1900  0.8478 -0.0601
11325WAT     H246021   7.094   2.887   4.307  0.0146  1.0994  1.3218
11325WAT    EPW46022   7.120   2.826   4.348  0.0566  0.4064  0.3108
11326WAT      O46023   6.124   5.516   1.315  0.4502  0.0231  0.1470
11326WAT     H146024   6.175   5.445   1.314  0.9360  0.3577  0.7436
11326WAT     H246025   6.064   5.499   1.253 -0.1296 -1.4073  1.0561
11326WAT    EPW46026   6.122   5.503   1.306  0.4363 -0.1388  0.3694
11327WAT      O46027   1.840   0.747   6.224  0.5602 -0.0099 -0.3096
11327WAT     H146028   1.786   0.696   6.268  0.7043 -1.1685 -1.4226
11327WAT     H246029   1.794   0.769   6.153  0.8878  0.5311 -0.3595
11327WAT    EPW46030   1.825   0.743   6.220  0.6299 -0.1011 -0.4814
11328WAT      O46031   0.960   1.653   6.435  0.6751 -0.0241 -0.0063
11328WAT     H146032   0.896   1.657   6.494  0.0497 -0.0996 -0.6630
11328WAT     H246033   1.025   1.614   6.478 -0.2584 -1.3872  0.2299
11328WAT    EPW46034   0.960   1.647   6.450  0.4448 -0.2366 -0.0684
11329WAT      O46035   3.395   0.226   4.754 -0.0334 -0.3117  0.0345
11329WAT     H146036   3.424   0.304   4.780 -1.6808  0.7273 -1.0732
11329WAT     H246037   3.343   0.244   4.687 -1.0410 -2.2997  0.1921
11329WAT    EPW46038   3.391   0.240   4.748 -0.4256 -0.4519 -0.1058
11330WAT      O46039   3.016   5.542   6.162  0.0940 -0.7023 -0.4811
11330WAT     H146040   3.027   5.489   6.230  0.9785  0.7461  0.5590
11330WAT     H246041   3.088   5.528   6.114 -0.2930 -1.3531 -0.9007
11330WAT    EPW46042   3.028   5.532   6.165  0.1675 -0.5845 -0.3894
11331WAT      O46043   2.956   2.560   0.590  0.0044  0.9423  0.0350
11331WAT     H146044   3.008   2.501   0.628 -0.6850 -0.5378 -1.1969
11331WAT     H246045   3.005   2.632   0.589  1.2414  0.1654  0.7833
11331WAT    EPW46046   2.971   2.562   0.595  0.0853  0.6089 -0.0365
11332WAT      O46047   3.046   6.187   6.649 -0.0271 -0.2690 -0.0393
11332WAT     H146048   3.126   6.174   6.680  0.2151  1.6387  0.3028
11332WAT     H246049   3.046   6.145   6.573  2.1650  1.5795 -1.1934
11332WAT    EPW46050   3.058   6.179   6.642  0.3325  0.2859 -0.1593
11333WAT      O46051   4.603   4.207   2.093  0.0109  0.0589 -0.1145
11333WAT     H146052   4.523   4.234   2.115 -0.5019 -1.8693  0.6381
11333WAT     H246053   4.630   4.164   2.164  1.1269 -0.5364 -0.8684
11333WAT    EPW46054   4.595   4.205   2.107  0.1000 -0.3139 -0.1147
11334WAT      O46055   2.333   3.144   3.905  0.3526 -0.8653 -0.7164
11334WAT     H146056   2.364   3.146   3.987 -0.4521 -2.2439 -0.3431
11334WAT     H246057   2.391   3.094   3.863 -0.1025 -1.5171 -0.5794
11334WAT    EPW46058   2.346   3.137   3.911  0.1665 -1.1652 -0.6410
11335WAT      O46059   2.572   3.878   2.889  0.1991 -0.1513  0.5657
11335WAT     H146060   2.567   3.824   2.957  0.7505  0.4961  1.1406
11335WAT     H246061   2.650   3.916   2.899  1.2515 -1.5629 -1.5888
11335WAT    EPW46062   2.583   3.876   2.901  0.4360 -0.2642  0.3323
11336WAT      O46063   3.276   6.747   0.240 -0.0022  0.1917  0.2344
11336WAT     H146064   3.201   6.730   0.200 -0.3738 -2.2253  1.7339
11336WAT     H246065   3.334   6.697   0.197  0.3912  0.6275  0.2454
11336WAT    EPW46066   3.274   6.737   0.228  0.0010 -0.1009  0.4576
11337WAT      O46067   3.444   4.731   3.178 -0.2719 -0.5244 -0.0034
11337WAT     H146068   3.503   4.763   3.233  0.7596 -0.0263 -1.3550
11337WAT     H246069   3.373   4.780   3.194  0.6169  1.0139 -0.4887
11337WAT    EPW46070   3.442   4.743   3.189  0.0118 -0.2236 -0.2748
11338WAT      O46071   1.677   6.191   2.018 -0.4954  0.4537 -0.4852
11338WAT     H146072   1.641   6.212   2.095  0.5696  1.2595 -0.1938
11338WAT     H246073   1.741   6.136   2.039 -2.1944 -1.9179 -1.1042
11338WAT    EPW46074   1.681   6.186   2.032 -0.5890  0.2224 -0.5336
11339WAT      O46075   7.310   1.605   6.404  0.0998  0.7327 -0.3821
11339WAT     H146076   7.300   1.689   6.384  0.1754  0.8559  0.0868
11339WAT     H246077   7.291   1.601   6.489 -1.2921  0.0254 -0.6877
11339WAT    EPW46078   7.306   1.617   6.414 -0.0946  0.6464 -0.3580
11340WAT      O46079   4.950   2.949   2.418  0.0377 -0.1462 -0.0581
11340WAT     H146080   4.887   2.917   2.367  0.5476 -1.6517  0.2054
11340WAT     H246081   4.905   2.985   2.484 -0.5879 -1.7684  0.4626
11340WAT    EPW46082   4.934   2.950   2.420  0.0206 -0.6082  0.0578
11341WAT      O46083   3.014   1.194   1.502 -0.3439 -0.1744 -0.2671
11341WAT     H146084   2.990   1.198   1.419 -1.2641 -1.7210 -0.1181
11341WAT     H246085   3.039   1.111   1.513 -1.5721 -0.4026  1.3016
11341WAT    EPW46086   3.014   1.182   1.492 -0.6613 -0.4366 -0.0133
11342WAT      O46087   0.491   2.862   4.877 -0.1412 -0.3152  0.2032
11342WAT     H146088   0.426   2.909   4.843  0.6486  1.1059  0.6041
11342WAT     H246089   0.498   2.795   4.821 -1.1075  0.1721 -0.5429
11342WAT    EPW46090   0.483   2.859   4.864 -0.1673 -0.0333  0.1522
11343WAT      O46091   6.867   4.798   3.444  0.1679  0.1568  0.2506
11343WAT     H146092   6.891   4.714   3.446  1.4835  0.5328  2.1176
11343WAT     H246093   6.894   4.824   3.365 -1.5871 -1.4567 -1.0064
11343WAT    EPW46094   6.875   4.789   3.432  0.1030 -0.0260  0.3407
11344WAT      O46095   0.401   3.911   1.781 -0.1614 -0.4017  0.0373
11344WAT     H146096   0.357   3.886   1.710 -1.1107  0.3788  0.3384
11344WAT     H246097   0.355   3.876   1.847  0.1311 -0.2609  0.3188
11344WAT    EPW46098   0.388   3.902   1.780 -0.2584 -0.2656  0.1234
11345WAT      O46099   4.831   2.311   6.482 -0.5522  0.0144 -0.1713
11345WAT     H146100   4.860   2.228   6.482 -0.5571 -0.0212  1.6991
11345WAT     H246101   4.752   2.305   6.517 -0.7161  0.7669 -0.3979
11345WAT    EPW46102   4.824   2.298   6.487 -0.5772  0.1203  0.0715
11346WAT      O46103   7.232   3.035   1.793  0.8007  0.5439 -0.0786
11346WAT     H146104   7.262   3.038   1.875 -0.7156 -1.6888  0.6732
11346WAT     H246105   7.256   2.956   1.766 -1.0179  0.1672 -0.7588
11346WAT    EPW46106   7.240   3.023   1.801  0.3080  0.1585 -0.0680
11347WAT      O46107   7.049   1.633   4.134 -0.1713  0.6462 -0.2024
11347WAT     H146108   7.007   1.598   4.202 -0.5440 -0.1953 -0.8497
11347WAT     H246109   7.127   1.594   4.136 -0.4594  0.0245 -0.7097
11347WAT    EPW46110   7.054   1.622   4.144 -0.2689  0.4300 -0.3730
11348WAT      O46111   3.781   3.787   5.352  0.4874  0.6524 -0.0923
11348WAT     H146112   3.805   3.859   5.309 -1.9248  0.8805 -1.2280
11348WAT     H246113   3.727   3.747   5.297  0.7125 -1.3859  1.0387
11348WAT    EPW46114   3.777   3.792   5.338  0.1643  0.3850 -0.0930
11349WAT      O46115   1.328   3.280   1.687  0.0752  0.5567  0.1296
11349WAT     H146116   1.378   3.213   1.712  1.3040  1.5010  0.2889
11349WAT     H246117   1.257   3.241   1.654  0.8538 -0.8344  0.0087
11349WAT    EPW46118   1.325   3.264   1.686  0.3717  0.4907  0.1352
11350WAT      O46119   5.617   1.765   7.384  0.2427  0.1238  0.2073
11350WAT     H146120   5.698   1.787   7.407  1.0443 -0.1808 -2.0280
11350WAT     H246121   5.600   1.818   7.316  0.1501 -2.3366 -1.8741
11350WAT    EPW46122   5.626   1.776   7.377  0.3474 -0.2846 -0.4304
11351WAT      O46123   6.370   0.602   4.813  0.1612 -0.1199 -0.3833
11351WAT     H146124   6.380   0.556   4.887 -1.4890 -3.1549 -1.8691
11351WAT     H246125   6.313   0.665   4.835 -0.6062 -1.1962  0.8527
11351WAT    EPW46126   6.363   0.605   4.827 -0.1960 -0.7273 -0.4202
11352WAT      O46127   7.026   0.884   0.702  0.2084 -0.1337  0.3121
11352WAT     H146128   7.054   0.844   0.774  1.9559  0.7520  0.1907
11352WAT     H246129   6.974   0.826   0.664  0.6366 -1.2768  1.4163
11352WAT    EPW46130   7.023   0.870   0.707  0.5298 -0.1717  0.4573
11353WAT      O46131   3.855   6.887   7.286  0.4082 -0.4760 -0.2609
11353WAT     H146132   3.842   6.894   7.372 -0.3826  0.9505 -0.4503
11353WAT     H246133   3.793   6.831   7.260  0.7565 -1.0400  0.1076
11353WAT    EPW46134   3.844   6.880   7.295  0.3428 -0.3486 -0.2344
11354WAT      O46135   2.835   1.850   6.087 -0.3182 -0.1386  0.2972
11354WAT     H146136   2.797   1.805   6.023 -0.4208 -1.4902  1.2828
11354WAT     H246137   2.775   1.908   6.110 -0.4455  0.0616 -0.5146
11354WAT    EPW46138   2.821   1.852   6.081 -0.3522 -0.3087  0.3229
11355WAT      O46139   6.721   5.919   1.690  0.0457 -0.2989  0.5819
11355WAT     H146140   6.803   5.891   1.698 -0.7949 -2.5180  2.5732
11355WAT     H246141   6.714   5.980   1.752  0.0269 -0.5022  0.7777
11355WAT    EPW46142   6.732   5.924   1.700 -0.0812 -0.6568  0.9050
11356WAT      O46143   6.807   6.749   6.914 -0.4779  0.5785  0.0251
11356WAT     H146144   6.779   6.785   6.989 -0.9614  0.9135 -0.3051
11356WAT     H246145   6.733   6.740   6.867 -0.8537 -3.1526  0.9949
11356WAT    EPW46146   6.792   6.753   6.918 -0.6048  0.0768  0.1196
11357WAT      O46147   5.815   5.045   1.003 -0.0520 -0.0180  0.3995
11357WAT     H146148   5.752   5.094   1.038  0.3839 -0.7029  2.2708
11357WAT     H246149   5.862   5.021   1.072  0.8189 -1.5391 -0.6791
11357WAT    EPW46150   5.813   5.049   1.018  0.1411 -0.3439  0.5166
11358WAT      O46151   2.942   5.419   6.826  0.2801 -0.5561 -0.1424
11358WAT     H146152   2.971   5.458   6.899  1.6220 -1.1406 -0.3371
11358WAT     H246153   2.859   5.402   6.844  0.2188  0.5248  0.7362
11358WAT    EPW46154   2.934   5.422   6.839  0.4693 -0.4827 -0.0414
11359WAT      O46155   3.684   1.864   4.590  0.4930 -0.7905  0.5199
11359WAT     H146156   3.658   1.830   4.514 -1.5885  0.1789  0.7520
11359WAT     H246157   3.637   1.822   4.649 -0.6430  0.9869  0.9574
11359WAT    EPW46158   3.673   1.853   4.587  0.0177 -0.3847  0.6188
11360WAT      O46159   3.780   5.777   0.702  0.4426 -0.8568 -0.2011
11360WAT     H146160   3.781   5.729   0.775  0.6869 -1.3735 -0.5474
11360WAT     H246161   3.708   5.826   0.712  0.5479 -0.8135  0.4531
11360WAT    EPW46162   3.769   5.777   0.714  0.4942 -0.9267 -0.1556
11361WAT      O46163   6.805   6.238   4.740 -0.9912  0.5477  0.6044
11361WAT     H146164   6.847   6.166   4.765  0.8707  1.3587 -0.0123
11361WAT     H246165   6.767   6.216   4.665  1.7860  0.8407 -1.0236
11361WAT    EPW46166   6.806   6.224   4.733 -0.3059  0.7108  0.2728
11362WAT      O46167   0.064   6.613   3.245 -0.1297 -0.0602 -0.2584
11362WAT     H146168   0.063   6.601   3.158 -0.4365  0.1857 -0.2887
11362WAT     H246169  -0.015   6.585   3.270  0.2335 -0.8500  0.0415
11362WAT    EPW46170   0.052   6.607   3.236 -0.1214 -0.1405 -0.2186
11363WAT      O46171   1.130   5.525   3.588  0.7256 -0.0029 -0.1776
11363WAT     H146172   1.062   5.479   3.618 -0.3254  1.2391 -0.5403
11363WAT     H246173   1.160   5.477   3.521  0.0923 -0.4864 -0.1194
11363WAT    EPW46174   1.124   5.511   3.582  0.4768  0.1091 -0.2226
11364WAT      O46175   5.129   4.319   2.324 -0.2775 -0.0237  0.4901
11364WAT     H146176   5.170   4.287   2.394 -0.3007 -1.0379  0.0528
11364WAT     H246177   5.149   4.404   2.325  2.0473 -0.5048  0.1826
11364WAT    EPW46178   5.138   4.327   2.334  0.0625 -0.2446  0.3801
11365WAT      O46179   5.369   6.180   4.277  0.5125  0.1835 -0.1017
11365WAT     H146180   5.340   6.099   4.293 -1.6436  0.8085 -0.5187
11365WAT     H246181   5.439   6.168   4.227 -0.3717 -1.4150 -1.0263
11365WAT    EPW46182   5.375   6.166   4.272  0.0634  0.0397 -0.2999
11366WAT      O46183   2.777   6.214   0.482 -0.2021 -0.7831 -0.1567
11366WAT     H146184   2.785   6.175   0.560  0.4782  1.6910  1.1064
11366WAT     H246185   2.695   6.195   0.458 -0.3079 -1.8806  0.9823
11366WAT    EPW46186   2.766   6.206   0.490 -0.1172 -0.5797  0.1982
11367WAT      O46187   3.690   3.333   7.058 -0.0396 -0.2165  0.1182
11367WAT     H146188   3.681   3.276   6.992  1.6968 -0.7482  0.3183
11367WAT     H246189   3.741   3.395   7.024 -1.4800  1.0215  0.0726
11367WAT    EPW46190   3.696   3.334   7.043  0.0042 -0.1121  0.1410
11368WAT      O46191   0.580   1.893   2.389 -0.0643 -0.0778 -0.0561
11368WAT     H146192   0.553   1.869   2.469 -1.4159  0.1757 -0.4169
11368WAT     H246193   0.508   1.925   2.352  0.9213  1.3990 -0.7951
11368WAT    EPW46194   0.565   1.894   2.396 -0.1184  0.1778 -0.2186
11369WAT      O46195   0.725   3.273   2.037 -0.2771 -0.6703 -0.1063
11369WAT     H146196   0.782   3.228   2.086  0.4658  0.3344  0.0042
11369WAT     H246197   0.694   3.333   2.092  0.3573  0.2958 -0.7577
11369WAT    EPW46198   0.729   3.275   2.052 -0.0737 -0.3792 -0.1862
11370WAT      O46199   1.443   1.756   3.898 -0.0090 -0.0552 -0.1597
11370WAT     H146200   1.530   1.748   3.892  0.0210  0.6404 -0.9576
11370WAT     H246201   1.431   1.842   3.904 -0.6309 -0.1693  0.2805
11370WAT    EPW46202   1.454   1.767   3.898 -0.0964  0.0307 -0.2126
11371WAT      O46203   1.790   1.614   0.626  0.0966 -0.4848  0.4905
11371WAT     H146204   1.871   1.630   0.656  0.6895 -1.6843 -0.3864
11371WAT     H246205   1.781   1.528   0.637 -0.2039 -0.7350 -1.4305
11371WAT    EPW46206   1.801   1.604   0.632  0.1398 -0.6989  0.0772
11372WAT      O46207   2.248   0.074   7.174 -0.7769  0.4549  0.1150
11372WAT     H146208   2.233   0.160   7.184 -0.2844  1.0922 -3.3053
11372WAT     H246209   2.182   0.049   7.123  0.3317 -0.6401 -0.8325
11372WAT    EPW46210   2.236   0.083   7.168 -0.5404  0.3873 -0.5302
11373WAT      O46211   2.295   2.619   2.790  0.3160  0.4691 -0.2707
11373WAT     H146212   2.284   2.582   2.869  3.0909 -0.2515 -0.1189
11373WAT     H246213   2.246   2.569   2.738 -0.4844  0.1118  0.7676
11373WAT    EPW46214   2.286   2.606   2.794  0.6077  0.3099 -0.0949
11374WAT      O46215   1.831   0.214   5.420  0.0620  0.6892  0.0450
11374WAT     H146216   1.917   0.228   5.417  0.0143  1.1223  0.4761
11374WAT     H246217   1.813   0.180   5.342  0.8697 -0.8599  0.4754
11374WAT    EPW46218   1.841   0.211   5.408  0.1743  0.5243  0.1723
11375WAT      O46219   7.220   0.842   6.512  0.1870 -0.2729  0.0374
11375WAT     H146220   7.159   0.790   6.546  1.4007 -0.6046  1.8335
11375WAT     H246221   7.238   0.897   6.576  1.5179  0.0619 -0.5904
11375WAT    EPW46222   7.213   0.843   6.526  0.5629 -0.2725  0.2100
11376WAT      O46223   6.976   2.869   0.754 -0.2688  0.4559 -0.4194
11376WAT     H146224   7.042   2.908   0.796 -0.1466 -1.7211  1.6109
11376WAT     H246225   6.937   2.935   0.712  2.7129  1.9393 -1.1132
11376WAT    EPW46226   6.980   2.885   0.754  0.1897  0.3534 -0.2219
11377WAT      O46227   7.151   6.903   5.793 -0.5385 -0.0766  0.4175
11377WAT     H146228   7.108   6.936   5.861 -0.2051  0.6566  0.2815
11377WAT     H246229   7.205   6.967   5.770  0.5316 -0.9251  0.4920
11377WAT    EPW46230   7.153   6.917   5.800 -0.3312 -0.0936  0.4084
11378WAT      O46231   0.552   3.018   2.335  0.1407 -0.4232 -0.0212
11378WAT     H146232   0.533   2.968   2.404  0.4451 -0.0044  0.3730
11378WAT     H246233   0.567   2.960   2.272 -0.9471 -0.7920  0.0408
11378WAT    EPW46234   0.551   3.002   2.336  0.0250 -0.4158  0.0462
11379WAT      O46235   0.190   1.066   5.803  0.2119  0.4941  0.1923
11379WAT     H146236   0.268   1.037   5.778 -0.4035 -0.3295 -0.8487
11379WAT     H246237   0.209   1.131   5.859  1.6241 -0.7573  1.2486
11379WAT    EPW46238   0.204   1.071   5.808  0.3296  0.1876  0.1946
11380WAT      O46239   0.229   1.341   4.395 -0.3674 -0.2148 -0.9676
11380WAT     H146240   0.260   1.266   4.363  0.9718 -0.3542  0.5409
11380WAT     H246241   0.298   1.395   4.392 -0.7332  0.3246 -0.1359
11380WAT    EPW46242   0.244   1.338   4.390 -0.2236 -0.1557 -0.6219
11381WAT      O46243   7.226   1.509   1.096 -0.2852  0.5481 -0.0158
11381WAT     H146244   7.169   1.483   1.157  0.4225 -0.2801  0.3195
11381WAT     H246245   7.228   1.442   1.040 -1.0726  1.3833 -1.0777
11381WAT    EPW46246   7.218   1.495   1.097 -0.2970  0.5491 -0.1232
11382WAT      O46247   3.668   2.296   6.679 -0.7540 -0.0046  0.1770
11382WAT     H146248   3.587   2.326   6.694 -0.4336  0.4660  1.0389
11382WAT     H246249   3.715   2.333   6.742  0.1646 -0.1638 -0.4000
11382WAT    EPW46250   3.663   2.306   6.690 -0.5710  0.0414  0.2191
11383WAT      O46251   4.044   5.857   6.434  0.6762  0.1002 -0.8704
11383WAT     H146252   3.961   5.855   6.407  0.2162 -0.1167  0.4563
11383WAT     H246253   4.087   5.811   6.374  0.1740  1.7292 -2.5533
11383WAT    EPW46254   4.038   5.850   6.421  0.5341  0.3088 -0.9230
11384WAT      O46255   2.782   5.947   1.021  0.0087 -0.6923 -0.0374
11384WAT     H146256   2.868   5.934   1.021  0.0767 -0.2778 -0.5554
11384WAT     H246257   2.772   6.022   0.976 -0.6604 -1.0235 -0.4666
11384WAT    EPW46258   2.793   5.956   1.014 -0.0801 -0.6800 -0.1773
11385WAT      O46259   0.918   4.373   1.817  0.2813  0.4040  0.0314
11385WAT     H146260   1.002   4.348   1.825 -0.3727 -1.5702  1.5790
11385WAT     H246261   0.909   4.432   1.881  0.1973 -0.4293  0.8270
11385WAT    EPW46262   0.929   4.378   1.828  0.1723 -0.0107  0.3776
11386WAT      O46263   6.782   5.349   2.578 -0.1144  0.1031  0.7230
11386WAT     H146264   6.850   5.329   2.629 -0.0096 -0.6776  0.2950
11386WAT     H246265   6.713   5.331   2.627 -0.0673  2.5714  1.8213
11386WAT    EPW46266   6.782   5.344   2.593 -0.0920  0.3524  0.8220
11387WAT      O46267   6.589   5.822   5.501  0.5439  0.0024  0.1166
11387WAT     H146268   6.643   5.860   5.558  0.0891  0.0249  0.5381
11387WAT     H246269   6.567   5.886   5.446  1.2447 -0.0961 -0.2906
11387WAT    EPW46270   6.594   5.837   5.501  0.5803 -0.0088  0.1187
11388WAT      O46271   1.198   1.678   5.514 -0.1818  0.5292  0.6184
11388WAT     H146272   1.189   1.661   5.599 -2.2005  2.0115  0.7824
11388WAT     H246273   1.221   1.762   5.512 -1.1760  0.8125 -0.2845
11388WAT    EPW46274   1.200   1.688   5.526 -0.6269  0.7900  0.5092
11389WAT      O46275   5.679   1.538   2.606  0.1284 -1.0461  0.0699
11389WAT     H146276   5.705   1.594   2.544 -1.8191  1.6912  1.4910
11389WAT     H246277   5.639   1.475   2.561  1.8513 -1.0380 -1.5907
11389WAT    EPW46278   5.677   1.537   2.590  0.0952 -0.6406  0.0345
11390WAT      O46279   7.149   3.808   0.407  0.8170  0.4728  0.2426
11390WAT     H146280   7.142   3.872   0.347 -2.2829 -0.1896 -0.2769
11390WAT     H246281   7.114   3.739   0.367  0.9676 -0.6578  1.9759
11390WAT    EPW46282   7.142   3.808   0.392  0.3813  0.2079  0.4219
11391WAT      O46283   5.141   6.448   7.348  0.5890  0.0251  0.7005
11391WAT     H146284   5.126   6.533   7.339 -0.2684 -0.1987 -0.1764
11391WAT     H246285   5.083   6.424   7.408  1.2276  0.1517  1.3837
11391WAT    EPW46286   5.130   6.457   7.356  0.5567  0.0108  0.6719
11392WAT      O46287   5.820   2.718   1.852 -0.0866  0.9899 -0.2975
11392WAT     H146288   5.884   2.666   1.824 -2.1987 -0.7506 -2.4543
11392WAT     H246289   5.840   2.796   1.817  0.4891  0.3009 -1.5689
11392WAT    EPW46290   5.832   2.722   1.842 -0.3136  0.6310 -0.8039
11393WAT      O46291   1.931   5.715   5.928 -0.2241 -0.1562 -0.3545
11393WAT     H146292   1.856   5.760   5.928  0.1631  0.7892  3.1310
11393WAT     H246293   1.940   5.691   5.844 -3.6015  0.9656 -1.2207
11393WAT    EPW46294   1.922   5.718   5.915 -0.6658  0.1492  0.0325
11394WAT      O46295   3.982   0.685   5.579  0.4497  0.2846 -0.4139
11394WAT     H146296   3.977   0.671   5.493 -0.0210 -1.4443 -0.1319
11394WAT     H246297   3.899   0.694   5.603  0.6180  1.7689 -0.2425
11394WAT    EPW46298   3.969   0.684   5.570  0.4050  0.2484 -0.3469
11395WAT      O46299   3.817   5.420   2.622 -0.8051  0.0885 -0.1275
11395WAT     H146300   3.856   5.445   2.696 -0.0902  1.3641 -0.8900
11395WAT     H246301   3.732   5.428   2.640 -0.7229 -1.3510  1.1029
11395WAT    EPW46302   3.810   5.425   2.636 -0.6874  0.0643 -0.0584
11396WAT      O46303   3.221   1.388   1.949 -0.0215 -0.8110 -0.5480
11396WAT     H146304   3.285   1.426   1.904 -0.1263 -1.2207 -1.0578
11396WAT     H246305   3.210   1.311   1.908  0.4816 -1.5895  0.7090
11396WAT    EPW46306   3.228   1.382   1.936  0.0373 -0.9865 -0.4376
11397WAT      O46307   0.732   6.952   3.808  0.1836 -0.1859 -0.1854
11397WAT     H146308   0.659   6.996   3.789  0.4120  0.4726  0.4250
11397WAT     H246309   0.794   6.998   3.768  0.9451  2.3245  3.3963
11397WAT    EPW46310   0.730   6.965   3.799  0.3298  0.2822  0.4339
11398WAT      O46311   5.126   0.404   0.262  0.1850 -0.1078  0.2344
11398WAT     H146312   5.122   0.366   0.340  0.1545  1.4001  1.0078
11398WAT     H246313   5.212   0.403   0.244  0.5090  1.5949  1.4113
11398WAT    EPW46314   5.138   0.398   0.271  0.2284  0.3664  0.5225
11399WAT      O46315   6.579   1.844   3.513 -0.1170  0.2547  0.1885
11399WAT     H146316   6.502   1.872   3.543 -1.3863 -1.1281 -1.5068
11399WAT     H246317   6.634   1.908   3.533 -1.6128  1.1056  1.8302
11399WAT    EPW46318   6.575   1.857   3.520 -0.5254  0.1761  0.1806
11400WAT      O46319   6.982   2.935   7.232  0.0381  0.2687 -0.5866
11400WAT     H146320   6.923   2.874   7.212  0.4848 -0.6266  0.7119
11400WAT     H246321   7.015   2.957   7.154 -0.4210 -0.8670 -1.1262
11400WAT    EPW46322   6.978   2.929   7.217  0.0362 -0.0313 -0.4745
11401WAT      O46323   0.443   0.685   1.263  0.1083  0.6461 -0.1409
11401WAT     H146324   0.371   0.734   1.260  0.0827  0.5776 -1.0839
11401WAT     H246325   0.414   0.606   1.238  0.5656  0.6923 -0.8305
11401WAT    EPW46326   0.428   0.680   1.259  0.1721  0.6428 -0.3820
11402WAT      O46327   1.911   5.134   5.503  0.1575 -0.7157  0.0255
11402WAT     H146328   1.850   5.127   5.440 -2.1682  0.3756  1.9903
11402WAT     H246329   1.939   5.052   5.512 -0.0243 -1.0339 -1.8620
11402WAT    EPW46330   1.906   5.121   5.495 -0.2129 -0.6015  0.0369
11403WAT      O46331   3.888   1.671   4.913 -0.6658 -0.2772  0.2448
11403WAT     H146332   3.801   1.663   4.911 -0.7063  0.3139 -1.2915
11403WAT     H246333   3.915   1.617   4.850 -0.1472  1.7566 -1.3907
11403WAT    EPW46334   3.879   1.662   4.904 -0.5952  0.1106 -0.2237
11404WAT      O46335   6.573   3.661   2.996  0.5284  0.4601 -0.3404
11404WAT     H146336   6.650   3.650   3.036 -0.5277 -1.1137  1.4492
11404WAT     H246337   6.581   3.738   2.957  1.8842  1.9301  2.5100
11404WAT    EPW46338   6.586   3.671   2.996  0.5727  0.4448  0.3451
11405WAT      O46339   4.326   1.120   4.256 -0.3261  0.3687  0.2409
11405WAT     H146340   4.388   1.165   4.298 -0.4465 -1.1729  2.2347
11405WAT     H246341   4.252   1.145   4.295 -1.1658  2.4577 -2.3508
11405WAT    EPW46342   4.324   1.130   4.268 -0.4680  0.4495  0.1526
11406WAT      O46343   5.132   3.670   1.876 -0.2062  0.4791  0.2077
11406WAT     H146344   5.202   3.629   1.908  0.4142 -0.1809 -1.8783
11406WAT     H246345   5.122   3.636   1.797 -1.6288  2.0886 -0.3639
11406WAT    EPW46346   5.141   3.659   1.869 -0.3247  0.6194 -0.1849
11407WAT      O46347   7.310   6.334   0.333 -0.7915  0.1480  0.4448
11407WAT     H146348   7.387   6.300   0.355 -0.9473  0.5170  1.6074
11407WAT     H246349   7.293   6.298   0.255  0.4821 -0.0456  0.2396
11407WAT    EPW46350   7.319   6.324   0.325 -0.6264  0.1739  0.5862
11408WAT      O46351   3.073   0.286   7.302 -0.0866 -0.5134 -0.3180
11408WAT     H146352   3.078   0.360   7.348 -1.7613  0.2157 -1.2484
11408WAT     H246353   3.106   0.307   7.224 -0.2586 -0.8427 -0.4824
11408WAT    EPW46354   3.078   0.300   7.298 -0.3594 -0.4543 -0.4797
11409WAT      O46355   6.911   2.281   7.113 -0.3378 -0.2362  0.1636
11409WAT     H146356   6.838   2.300   7.070  0.1947 -0.4770 -0.8903
11409WAT     H246357   6.939   2.359   7.141  0.4426  0.2817 -1.8494
11409WAT    EPW46358   6.904   2.295   7.110 -0.1439 -0.1953 -0.2894
11410WAT      O46359   0.257   4.231   2.035  0.1270  0.2615 -0.1809
11410WAT     H146360   0.260   4.301   2.086 -1.1219 -1.6559  2.8010
11410WAT     H246361   0.290   4.167   2.085 -0.8019 -1.7084 -1.8862
11410WAT    EPW46362   0.262   4.232   2.050 -0.1947 -0.3127  0.0077
11411WAT      O46363   5.858   2.615   5.534 -0.1634 -0.3777 -0.1497
11411WAT     H146364   5.883   2.697   5.519 -0.7445 -0.3111 -0.8507
11411WAT     H246365   5.810   2.596   5.463 -1.9624 -0.5324  1.0307
11411WAT    EPW46366   5.854   2.624   5.521 -0.5150 -0.3907 -0.0789
11412WAT      O46367   4.971   7.230   3.496 -0.1810  0.5452  1.4077
11412WAT     H146368   4.968   7.143   3.504  2.2494  0.4889  2.8254
11412WAT     H246369   4.955   7.258   3.577  1.4425  1.2531  1.5271
11412WAT    EPW46370   4.968   7.221   3.509  0.4178  0.6415  1.6348
11413WAT      O46371   1.595   5.984   7.123  0.2668  0.0267  0.3901
11413WAT     H146372   1.609   6.041   7.188  1.3379  0.8996 -0.5508
11413WAT     H246373   1.583   5.908   7.164  3.3878  0.0416  1.6206
11413WAT    EPW46374   1.595   5.981   7.139  0.8861  0.1579  0.4329
11414WAT      O46375   2.899   1.842   5.135 -0.4213  0.0538 -0.0597
11414WAT     H146376   2.902   1.929   5.122 -0.0214  0.0827  0.2050
11414WAT     H246377   2.827   1.832   5.185  0.8060  0.5200  1.9122
11414WAT    EPW46378   2.889   1.854   5.140 -0.1809  0.1270  0.2707
11415WAT      O46379   2.359   6.794   0.533 -0.3230  0.2773 -0.1388
11415WAT     H146380   2.318   6.759   0.465 -1.1381 -0.2975  0.6160
11415WAT     H246381   2.300   6.791   0.597  0.6576  0.0817  0.8084
11415WAT    EPW46382   2.345   6.788   0.532 -0.2985  0.1635  0.1126
11416WAT      O46383   1.927   3.789   5.031  0.1699  0.0297 -0.6081
11416WAT     H146384   2.010   3.763   5.034  0.1030 -0.1184  0.2301
11416WAT     H246385   1.889   3.731   4.979  0.7411  0.5520 -1.6326
11416WAT    EPW46386   1.933   3.777   5.024  0.2444  0.0850 -0.6356
11417WAT      O46387   0.022   0.806   6.263  0.3671  0.0860  0.1183
11417WAT     H146388  -0.016   0.823   6.340 -2.5361  2.2335 -1.5796
11417WAT     H246389   0.047   0.885   6.235  2.4849 -0.8066 -0.6619
11417WAT    EPW46390   0.020   0.820   6.270  0.2511  0.2714 -0.2477
11418WAT      O46391   1.637   1.524   0.023  0.3666  0.5378 -0.5375
11418WAT     H146392   1.670   1.464   0.077  1.2395 -0.3705 -2.0120
11418WAT     H246393   1.584   1.479  -0.029 -0.6159  1.4242 -0.3463
11418WAT    EPW46394   1.634   1.509   0.023  0.3504  0.5345 -0.7271
11419WAT      O46395   1.688   4.364   6.497  0.5736 -0.2677  0.1703
11419WAT     H146396   1.766   4.334   6.521  0.4474 -1.0777 -0.3988
11419WAT     H246397   1.673   4.325   6.421  0.0729  0.6932 -0.2484
11419WAT    EPW46398   1.697   4.354   6.490  0.4809 -0.2454  0.0244
11420WAT      O46399   1.350   2.240   2.387 -0.2989  0.9538  0.0906
11420WAT     H146400   1.306   2.174   2.423 -0.5838  0.7298 -0.6582
11420WAT     H246401   1.398   2.203   2.325 -0.0551  1.3755  0.0202
11420WAT    EPW46402   1.350   2.225   2.383 -0.3050  0.9830 -0.0304
11421WAT      O46403   1.629   3.223   4.000 -1.0518  0.4109 -0.2244
11421WAT     H146404   1.596   3.166   3.943 -0.1068  0.5917 -0.9833
11421WAT     H246405   1.564   3.279   4.014 -1.7171 -0.3817 -0.1202
11421WAT    EPW46406   1.615   3.223   3.994 -1.0105  0.3205 -0.3211
11422WAT      O46407   3.858   4.764   5.883 -0.3971  0.8589  0.0449
11422WAT     H146408   3.886   4.693   5.925  1.3705  1.9535  0.8241
11422WAT     H246409   3.771   4.756   5.886 -0.2673 -0.6836  1.1266
11422WAT    EPW46410   3.849   4.752   5.890 -0.1168  0.7927  0.3198
11423WAT      O46411   2.419   3.203   0.937  0.3241  0.0053  0.9796
11423WAT     H146412   2.396   3.119   0.936  1.6037 -0.3693  1.7689
11423WAT     H246413   2.496   3.203   0.976 -0.3958  1.7566  2.5456
11423WAT    EPW46414   2.427   3.190   0.942  0.4068  0.2086  1.3275
11424WAT      O46415   2.453   5.178   1.798  0.0440  0.4274 -0.0575
11424WAT     H146416   2.522   5.155   1.750 -0.4158  1.0689 -1.0366
11424WAT     H246417   2.392   5.198   1.739 -0.9858 -0.1142  0.7954
11424WAT    EPW46418   2.454   5.178   1.782 -0.1761  0.4422 -0.0761
11425WAT      O46419   1.407   1.520   5.787 -0.3238 -0.2124 -0.2381
11425WAT     H146420   1.406   1.477   5.863 -0.6554 -0.7346 -0.5287
11425WAT     H246421   1.422   1.457   5.728 -0.2723  0.1550 -0.6214
11425WAT    EPW46422   1.409   1.504   5.790 -0.3652 -0.2352 -0.3377
11426WAT      O46423   4.459   4.726   0.992 -0.5594  0.2544 -0.4021
11426WAT     H146424   4.546   4.730   0.996 -0.6049  0.4843  0.6603
11426WAT     H246425   4.438   4.801   0.951 -0.3671  1.5631  1.7599
11426WAT    EPW46426   4.469   4.738   0.986 -0.5377  0.4817  0.0742
11427WAT      O46427   6.675   4.656   1.047  0.0745  0.0013 -0.3757
11427WAT     H146428   6.761   4.660   1.031  0.1864 -1.4156 -0.1979
11427WAT     H246429   6.650   4.582   1.009 -0.6019 -0.8282  1.5506
11427WAT    EPW46430   6.684   4.646   1.039 -0.0089 -0.3305 -0.0649
11428WAT      O46431   4.266   7.235   6.807 -0.3658 -0.8364 -0.0227
11428WAT     H146432   4.313   7.301   6.775 -1.2161 -0.5346 -0.6755
11428WAT     H246433   4.322   7.195   6.861 -0.0911  0.9361  1.0898
11428WAT    EPW46434   4.281   7.239   6.810 -0.4508 -0.5300  0.0452
11429WAT      O46435   2.728   0.649   7.213  0.6830 -0.0638 -0.2843
11429WAT     H146436   2.814   0.661   7.203  0.6958 -0.5868 -0.8123
11429WAT     H246437   2.718   0.646   7.300  0.9669  1.6073 -0.1550
11429WAT    EPW46438   2.739   0.650   7.224  0.7268  0.1058 -0.3432
11430WAT      O46439   3.090   5.197   1.913 -0.5539 -0.5041 -0.0539
11430WAT     H146440   3.167   5.218   1.949 -0.7460  0.0066  0.0643
11430WAT     H246441   3.042   5.269   1.923 -0.7627 -0.5114 -0.9290
11430WAT    EPW46442   3.094   5.210   1.920 -0.6131 -0.4297 -0.1657
11431WAT      O46443   5.708   2.633   3.352  0.1290 -0.1080 -0.4149
11431WAT     H146444   5.677   2.710   3.326 -2.0751 -0.0367  1.9640
11431WAT     H246445   5.706   2.584   3.280  1.0040  1.8423 -1.8433
11431WAT    EPW46446   5.703   2.637   3.338 -0.0673  0.1907 -0.2745
11432WAT      O46447   4.354   6.447   5.935 -0.0782 -0.1725  0.2960
11432WAT     H146448   4.379   6.466   6.016 -0.6276 -1.1168  0.6982
11432WAT     H246449   4.427   6.459   5.888  0.4960 -0.5270  1.0716
11432WAT    EPW46450   4.369   6.451   5.940 -0.0746 -0.3644  0.4700
11433WAT      O46451   4.803   4.694   0.386  0.0267  0.0990 -0.1099
11433WAT     H146452   4.844   4.629   0.344 -1.2179  0.2108 -1.5783
11433WAT     H246453   4.772   4.744   0.321 -0.1516  1.4636  0.9791
11433WAT    EPW46454   4.805   4.692   0.370 -0.1835  0.3171 -0.1659
11434WAT      O46455   0.678   2.821   2.174  0.7133  0.1082 -0.4877
11434WAT     H146456   0.631   2.754   2.206  0.1873  0.0205 -1.4281
11434WAT     H246457   0.727   2.846   2.242  1.2459 -1.5180 -0.2375
11434WAT    EPW46458   0.678   2.815   2.189  0.7143 -0.1450 -0.5897
11435WAT      O46459   4.425   5.925   5.593  0.1160 -0.1419 -0.1627
11435WAT     H146460   4.512   5.919   5.595  0.1524  0.4727  0.6938
11435WAT     H246461   4.411   6.010   5.583 -0.3944 -0.3233 -1.0662
11435WAT    EPW46462   4.436   5.937   5.592  0.0460 -0.0779 -0.1697
11436WAT      O46463   0.692   4.093   5.871  0.0896  0.1687  0.4616
11436WAT     H146464   0.625   4.062   5.917 -0.2748 -0.3889 -0.4130
11436WAT     H246465   0.730   4.021   5.840  0.9398  0.4925  0.7342
11436WAT    EPW46466   0.688   4.077   5.873  0.1614  0.1341  0.3727
11437WAT      O46467   0.876   1.100   4.102  0.0361  0.7488 -0.1859
11437WAT     H146468   0.898   1.147   4.172 -0.5638  1.6556 -0.5957
11437WAT     H246469   0.794   1.076   4.118  0.1438  0.3255 -0.2470
11437WAT    EPW46470   0.867   1.103   4.115 -0.0366  0.8202 -0.2555
11438WAT      O46471   3.042   1.271   5.592 -0.2271 -0.3176 -0.6086
11438WAT     H146472   2.979   1.288   5.534 -1.5815  0.9567  1.1252
11438WAT     H246473   3.016   1.197   5.629  0.0462 -0.5424 -0.8672
11438WAT    EPW46474   3.029   1.263   5.588 -0.3868 -0.1626 -0.3907
11439WAT      O46475   5.143   1.983   0.525 -0.3745 -0.9786  0.7079
11439WAT     H146476   5.099   1.948   0.458  1.8101 -1.3781 -0.6234
11439WAT     H246477   5.189   1.916   0.556  0.2380 -0.3213  1.2386
11439WAT    EPW46478   5.143   1.968   0.520  0.0387 -0.9405  0.5896
11440WAT      O46479   0.428   0.223   7.075 -0.3751 -0.6584  0.1765
11440WAT     H146480   0.449   0.201   6.993 -0.1321 -1.6458  0.4848
11440WAT     H246481   0.446   0.150   7.120 -2.1791 -0.7332  0.8337
11440WAT    EPW46482   0.434   0.209   7.070 -0.6057 -0.8153  0.3191
11441WAT      O46483   5.540   5.839   2.866 -0.3699  0.0929  0.5632
11441WAT     H146484   5.621   5.866   2.884  0.5209 -0.8162 -1.7028
11441WAT     H246485   5.534   5.763   2.909 -0.1665  0.2986  0.9689
11441WAT    EPW46486   5.551   5.831   2.875 -0.2083 -0.0110  0.2884
11442WAT      O46487   6.204   1.871   6.017 -0.0049 -0.0857 -0.1243
11442WAT     H146488   6.243   1.949   6.015 -0.0371 -0.0822 -0.5472
11442WAT     H246489   6.176   1.859   5.936  0.0953 -0.5889 -0.0889
11442WAT    EPW46490   6.206   1.880   6.005  0.0051 -0.1595 -0.1815
11443WAT      O46491   6.518   2.490   3.143  1.0389  0.5333 -0.4603
11443WAT     H146492   6.501   2.418   3.097 -0.5176 -0.1036  1.0348
11443WAT     H246493   6.590   2.469   3.188  0.2856 -0.3186  0.3772
11443WAT    EPW46494   6.526   2.476   3.143  0.6977  0.3134 -0.1157
11444WAT      O46495   2.371   2.454   3.805 -0.1335 -0.5435 -0.2548
11444WAT     H146496   2.452   2.477   3.830 -0.0925 -1.4748  0.4900
11444WAT     H246497   2.326   2.529   3.812  0.5209 -0.1527 -0.0982
11444WAT    EPW46498   2.376   2.469   3.810 -0.0308 -0.6233 -0.1216
11445WAT      O46499   0.530   7.125   3.111  0.2010  0.2652 -0.1125
11445WAT     H146500   0.471   7.179   3.077  0.8932  0.5479 -0.8923
11445WAT     H246501   0.598   7.133   3.057 -0.7544 -3.8674 -2.3338
11445WAT    EPW46502   0.531   7.134   3.098  0.1621 -0.3035 -0.5558
11446WAT      O46503   2.032   4.138   2.208 -0.1139 -0.0203  0.4358
11446WAT     H146504   2.119   4.141   2.202 -0.1265  0.1022  0.3157
11446WAT     H246505   2.006   4.210   2.168 -0.3348 -0.7166 -0.7258
11446WAT    EPW46506   2.041   4.149   2.202 -0.1484 -0.1051  0.2465
11447WAT      O46507   0.124   0.029   6.543 -0.1558  0.0707 -0.2554
11447WAT     H146508   0.181   0.027   6.609 -0.4285  0.5471 -0.0008
11447WAT     H246509   0.068  -0.035   6.562  0.8359 -1.0501 -1.0095
11447WAT    EPW46510   0.124   0.020   6.555 -0.0496 -0.0245 -0.3292
11448WAT      O46511   2.387   0.048   1.754  0.4891  0.4813 -0.6825
11448WAT     H146512   2.409  -0.011   1.692  3.5848  0.8567 -0.1031
11448WAT     H246513   2.423   0.122   1.725  0.9076  0.9462  0.9404
11448WAT    EPW46514   2.396   0.050   1.740  1.0082  0.6055 -0.3572
11449WAT      O46515   6.227   4.555   5.404  0.1845 -0.3041  0.0270
11449WAT     H146516   6.245   4.598   5.331  1.6638  0.3861  0.7456
11449WAT     H246517   6.228   4.471   5.380 -1.0739 -0.0287 -1.0578
11449WAT    EPW46518   6.230   4.549   5.390  0.2171 -0.1615 -0.0271
11450WAT      O46519   2.781   4.625   2.166 -0.4088 -0.2511  0.0491
11450WAT     H146520   2.808   4.544   2.185  1.1440  0.1911 -0.1216
11450WAT     H246521   2.842   4.676   2.203 -1.9563  0.9087  1.1305
11450WAT    EPW46522   2.794   4.621   2.174 -0.4081 -0.0144  0.1836
11451WAT      O46523   0.128   2.276   1.932  0.1959  0.7442 -0.4159
11451WAT     H146524   0.181   2.325   1.883  0.1433 -0.9154 -2.2704
11451WAT     H246525   0.091   2.222   1.874  1.0706 -2.2351  1.5479
11451WAT    EPW46526   0.131   2.275   1.916  0.3173  0.0589 -0.3998
11452WAT      O46527   3.822   6.367   2.491 -0.0118  0.1757  0.0548
11452WAT     H146528   3.742   6.385   2.522 -0.0079  1.0871 -0.4314
11452WAT     H246529   3.812   6.289   2.453 -0.9769  0.7833 -1.0191
11452WAT    EPW46530   3.809   6.358   2.490 -0.1538  0.4001 -0.1757
11453WAT      O46531   5.006   1.371   1.302 -0.0200  0.4736  0.1107
11453WAT     H146532   5.077   1.416   1.324  0.9130 -0.0724 -1.6126
11453WAT     H246533   5.003   1.378   1.215 -1.6412 -0.1681  0.0739
11453WAT    EPW46534   5.016   1.379   1.292 -0.1217  0.2982 -0.1493
11454WAT      O46535   6.540   2.099   3.725 -0.0939  0.5656  0.6998
11454WAT     H146536   6.543   2.035   3.784 -0.9591  1.3505  1.6321
11454WAT     H246537   6.478   2.073   3.669  1.3655 -0.6210 -0.4463
11454WAT    EPW46538   6.531   2.085   3.726 -0.0061  0.5063  0.6682
11455WAT      O46539   6.628   3.456   6.119  0.0671  0.0726  0.0600
11455WAT     H146540   6.616   3.370   6.126  0.9006  0.0725  2.9187
11455WAT     H246541   6.616   3.472   6.034 -0.7836 -2.7299 -0.4483
11455WAT    EPW46542   6.625   3.445   6.107  0.0645 -0.3414  0.4072
11456WAT      O46543   0.243   3.748   0.753  0.0412 -0.1538 -0.3873
11456WAT     H146544   0.278   3.783   0.825 -1.3579 -0.0542  0.2886
11456WAT     H246545   0.192   3.811   0.721  0.3856 -0.3148 -1.2888
11456WAT    EPW46546   0.241   3.762   0.759 -0.1146 -0.1629 -0.4206
11457WAT      O46547   2.726   0.126   2.618 -0.0132  0.4146  0.1654
11457WAT     H146548   2.748   0.042   2.602  0.5853  0.6057 -0.0749
11457WAT     H246549   2.660   0.120   2.674  0.7990 -0.1987  1.0766
11457WAT    EPW46550   2.720   0.113   2.624  0.1952  0.3522  0.2645
11458WAT      O46551   4.951   1.834   3.991  0.0168  0.2038 -0.2950
11458WAT     H146552   5.026   1.791   3.997 -0.7442 -1.0644  0.5133
11458WAT     H246553   4.967   1.909   4.033  0.5384 -0.4645  0.7312
11458WAT    EPW46554   4.964   1.839   3.998 -0.0185 -0.0823 -0.0240
11459WAT      O46555   2.200   3.514   3.394 -0.2267  0.3343  0.2676
11459WAT     H146556   2.254   3.570   3.434 -0.6446  0.9121  0.0435
11459WAT     H246557   2.138   3.566   3.361 -0.5266 -0.2505 -0.1026
11459WAT    EPW46558   2.198   3.530   3.395 -0.3328  0.3332  0.1798
11460WAT      O46559   1.591   0.849   1.903 -0.2513  0.5585 -0.1409
11460WAT     H146560   1.621   0.900   1.967 -0.7105  1.8347 -0.8989
11460WAT     H246561   1.581   0.904   1.837 -2.0239 -0.2738 -0.6084
11460WAT    EPW46562   1.594   0.864   1.903 -0.5810  0.6241 -0.3219
11461WAT      O46563   1.925   0.328   3.942 -0.3466  0.1686 -0.2344
11461WAT     H146564   1.932   0.389   3.879 -0.1018  1.1344  0.6885
11461WAT     H246565   2.005   0.324   3.975 -0.5168 -0.1785  0.1394
11461WAT    EPW46566   1.938   0.337   3.938 -0.3356  0.2600 -0.0429
11462WAT      O46567   4.822   1.156   5.531 -0.2086  0.4149  0.0677
11462WAT     H146568   4.839   1.100   5.466 -1.1565  0.2477 -0.0526
11462WAT     H246569   4.867   1.124   5.599  1.0652  0.7800 -0.5743
11462WAT    EPW46570   4.831   1.143   5.532 -0.1605  0.4442 -0.0449
11463WAT      O46571   6.264   6.799   6.492  0.4548  0.0767  0.1914
11463WAT     H146572   6.243   6.811   6.408 -0.4804  0.0943  0.4226
11463WAT     H246573   6.264   6.713   6.501  1.7761  0.0200 -0.1148
11463WAT    EPW46574   6.261   6.788   6.481  0.5118  0.0709  0.1803
11464WAT      O46575   6.376   3.673   0.439 -0.1379 -0.7820 -0.7306
11464WAT     H146576   6.364   3.759   0.427  0.8271 -0.6670 -0.9159
11464WAT     H246577   6.307   3.637   0.399  1.1183 -0.2404 -3.5496
11464WAT    EPW46578   6.364   3.680   0.432  0.1902 -0.6850 -1.1744
11465WAT      O46579   5.251   4.825   6.979 -0.2293  0.2485 -0.0142
11465WAT     H146580   5.284   4.876   6.917  2.3136 -0.9027  0.2863
11465WAT     H246581   5.211   4.882   7.032  1.4261  1.8148 -0.3426
11465WAT    EPW46582   5.250   4.841   6.978  0.3909  0.3098 -0.0183
11466WAT      O46583   1.383   2.126   1.870  0.2746  0.3752  0.2240
11466WAT     H146584   1.391   2.206   1.835  0.9621  0.3249  0.2692
11466WAT     H246585   1.324   2.088   1.819  4.0737 -1.1411 -3.6019
11466WAT    EPW46586   1.375   2.132   1.857  0.9374  0.1438 -0.3345
11467WAT      O46587   5.460   4.871   3.365  0.6888 -0.1433  0.0569
11467WAT     H146588   5.416   4.888   3.291  0.0081  0.2307  0.5307
11467WAT     H246589   5.397   4.844   3.420  1.4589 -2.4469 -0.0912
11467WAT    EPW46590   5.444   4.870   3.362  0.7020 -0.4284  0.1050
11468WAT      O46591   6.160   0.776   5.230 -0.1603 -0.2320  0.1210
11468WAT     H146592   6.206   0.838   5.271 -0.8866 -0.2637  0.9972
11468WAT     H246593   6.080   0.810   5.224 -0.4716 -0.9218  0.2576
11468WAT    EPW46594   6.155   0.790   5.235 -0.3136 -0.3386  0.2706
11469WAT      O46595   6.045   0.142   1.438 -0.8492  0.2333 -0.0879
11469WAT     H146596   6.067   0.219   1.473  0.6703 -0.3907  0.4154
11469WAT     H246597   6.080   0.146   1.358 -1.1435  0.2289 -0.2165
11469WAT    EPW46598   6.054   0.154   1.431 -0.6682  0.1404 -0.0326
11470WAT      O46599   2.837   3.005   0.619  0.5574 -0.3365  0.1557
11470WAT     H146600   2.896   2.947   0.646 -0.4174 -1.1448  0.5890
11470WAT     H246601   2.768   2.991   0.671 -0.7339 -0.7206 -1.5702
11470WAT    EPW46602   2.836   2.994   0.631  0.2227 -0.5126 -0.0353
11471WAT      O46603   4.373   5.740   3.373  0.3406  0.1444  0.0563
11471WAT     H146604   4.407   5.697   3.304 -0.1765  0.1725 -0.2172
11471WAT     H246605   4.374   5.823   3.348  0.4923  0.1960  0.2300
11471WAT    EPW46606   4.378   5.746   3.359  0.2866  0.1561  0.0416
11472WAT      O46607   1.459   5.273   6.290 -0.3400  0.4203 -0.0160
11472WAT     H146608   1.525   5.268   6.347  2.1670 -1.7424 -2.8004
11472WAT     H246609   1.469   5.353   6.256  0.8777  0.1195 -0.4101
11472WAT    EPW46610   1.470   5.284   6.294  0.2102  0.0564 -0.4855
11473WAT      O46611   1.805   4.227   0.268 -0.4550 -0.4241  0.6936
11473WAT     H146612   1.744   4.179   0.309 -0.5705  0.5712  1.7371
11473WAT     H246613   1.763   4.302   0.251  0.2102 -0.0733  0.5815
11473WAT    EPW46614   1.790   4.231   0.272 -0.3738 -0.2253  0.8312
11474WAT      O46615   6.645   4.793   6.498 -1.1028 -0.2837  0.0236
11474WAT     H146616   6.691   4.725   6.468  0.9027  1.6218 -1.6130
11474WAT     H246617   6.660   4.792   6.584  1.3159 -0.3361 -0.3088
11474WAT    EPW46618   6.654   4.783   6.506 -0.4492 -0.0100 -0.2673
11475WAT      O46619   0.444   1.838   0.368 -0.0534  0.1277 -0.1254
11475WAT     H146620   0.462   1.783   0.302 -2.6078 -3.1176  1.5639
11475WAT     H246621   0.361   1.820   0.387 -0.0051  2.2947  2.7423
11475WAT    EPW46622   0.435   1.827   0.361 -0.4236 -0.0316  0.5478
11476WAT      O46623   1.464   3.595   0.804  0.1520  0.1390  0.5369
11476WAT     H146624   1.431   3.617   0.726  0.7501  0.7464  0.4434
11476WAT     H246625   1.550   3.592   0.789  0.1341 -1.9409  0.6430
11476WAT    EPW46626   1.472   3.598   0.790  0.2377 -0.0785  0.5388
11477WAT      O46627   5.375   1.991   5.031 -0.3890 -0.6410  0.4180
11477WAT     H146628   5.395   1.920   4.983 -1.0376 -1.3710  1.1937
11477WAT     H246629   5.405   2.057   4.982  0.6988 -1.4658 -0.1017
11477WAT    EPW46630   5.383   1.990   5.016 -0.3241 -0.8707  0.4558
11478WAT      O46631   6.411   6.864   4.501  0.3808 -0.0852 -0.1887
11478WAT     H146632   6.329   6.838   4.492 -0.1551  0.8034  1.6520
11478WAT     H246633   6.428   6.849   4.585  2.4411 -1.1376 -0.7259
11478WAT    EPW46634   6.402   6.858   4.512  0.6060 -0.1094  0.0039
11479WAT      O46635   6.414   4.029   3.857 -0.4005 -0.2121  0.2458
11479WAT     H146636   6.374   4.104   3.877  0.5840  0.5922 -0.7132
11479WAT     H246637   6.384   4.009   3.778 -0.0349 -0.3977  0.1505
11479WAT    EPW46638   6.404   4.037   3.848 -0.2011 -0.1207  0.0901
11480WAT      O46639   0.515   6.126   7.086  0.3442 -0.1339  0.0131
11480WAT     H146640   0.563   6.173   7.142  1.7086 -1.1885 -0.2392
11480WAT     H246641   0.441   6.111   7.130 -0.6388  3.0472 -0.2413
11480WAT    EPW46642   0.511   6.131   7.101  0.4006  0.1802 -0.0617
11481WAT      O46643   2.021   5.975   5.650 -0.0021  0.2279  0.2087
11481WAT     H146644   1.947   5.986   5.606 -0.0679 -0.0403  0.2495
11481WAT     H246645   2.079   5.956   5.588  0.3745  1.9260 -0.0015
11481WAT    EPW46646   2.019   5.974   5.634  0.0438  0.4391  0.1837
11482WAT      O46647   1.609   5.741   6.242 -0.3344 -0.5499 -0.0431
11482WAT     H146648   1.691   5.723   6.218 -0.5281  1.3343 -2.5884
11482WAT     H246649   1.569   5.663   6.240  1.2064 -1.3900  0.5335
11482WAT    EPW46650   1.615   5.727   6.238 -0.1354 -0.3957 -0.3339
11483WAT      O46651   1.112   0.602   3.014 -0.2254  0.0070 -0.0018
11483WAT     H146652   1.096   0.532   2.964  0.5173  0.5192 -0.9892
11483WAT     H246653   1.193   0.587   3.044 -0.8942 -0.5973  1.5968
11483WAT    EPW46654   1.122   0.589   3.011 -0.2145 -0.0066  0.0885
11484WAT      O46655   5.556   1.759   6.869 -0.0951 -0.7624  0.2252
11484WAT     H146656   5.607   1.692   6.892 -0.9878 -1.0291  1.5332
11484WAT     H246657   5.518   1.732   6.795 -0.7680 -1.9182  0.9577
11484WAT    EPW46658   5.558   1.745   6.862 -0.3263 -0.9725  0.5266
11485WAT      O46659   7.238   1.243   5.435 -0.0240  0.5767  0.0629
11485WAT     H146660   7.292   1.177   5.455  0.5235  0.3668 -1.8803
11485WAT     H246661   7.161   1.205   5.423 -0.6490  0.8416  2.5690
11485WAT    EPW46662   7.235   1.228   5.437 -0.0354  0.5848  0.1460
11486WAT      O46663   6.543   6.472   4.467  0.0899 -0.3569 -0.4859
11486WAT     H146664   6.466   6.476   4.507  0.5256 -2.4683  0.7713
11486WAT     H246665   6.528   6.422   4.397 -0.3067  1.9230 -2.1120
11486WAT    EPW46666   6.530   6.465   4.463  0.0957 -0.3320 -0.5404
11487WAT      O46667   3.859   3.508   5.843  0.5611 -0.3764 -0.0877
11487WAT     H146668   3.800   3.569   5.825  0.1498 -0.3910  1.1266
11487WAT     H246669   3.812   3.435   5.849  0.8402 -0.5579 -0.0912
11487WAT    EPW46670   3.843   3.506   5.841  0.5415 -0.4054  0.0911
11488WAT      O46671   2.173   4.034   0.323  0.5048 -0.0332 -0.0524
11488WAT     H146672   2.227   4.044   0.391  0.8105 -0.9909 -0.1375
11488WAT     H246673   2.190   3.953   0.295  0.0934  0.1975 -1.0186
11488WAT    EPW46674   2.184   4.023   0.329  0.4892 -0.1406 -0.2077
11489WAT      O46675   5.203   3.389   0.401 -0.1459 -0.1997 -0.2767
11489WAT     H146676   5.118   3.399   0.386 -0.4674 -0.8893  0.9632
11489WAT     H246677   5.206   3.332   0.467  1.2478  0.4093  0.2284
11489WAT    EPW46678   5.191   3.382   0.409  0.0125 -0.2116 -0.0190
11490WAT      O46679   5.226   2.132   1.406  0.5423  0.2190 -0.3090
11490WAT     H146680   5.215   2.207   1.449 -1.5552  0.2708 -0.8145
11490WAT     H246681   5.259   2.079   1.467 -0.3789  0.8622  0.7982
11490WAT    EPW46682   5.229   2.135   1.421  0.0964  0.3217 -0.2201
11491WAT      O46683   4.163   7.065   0.377  0.5250 -0.3349 -0.2372
11491WAT     H146684   4.205   7.141   0.379 -1.3635  0.7804  0.0929
11491WAT     H246685   4.102   7.074   0.439 -1.2023 -1.1864 -1.7343
11491WAT    EPW46686   4.160   7.077   0.386 -0.0091 -0.2960 -0.4096
11492WAT      O46687   3.379   0.134   6.241  0.2314  0.4938  0.1047
11492WAT     H146688   3.298   0.120   6.271 -0.7128  0.0670 -2.3477
11492WAT     H246689   3.414   0.190   6.298 -2.1323  1.4387  0.7179
11492WAT    EPW46690   3.372   0.140   6.254 -0.2572  0.5704 -0.1670
11493WAT      O46691   1.162   3.534   5.075  0.2689  0.1558 -0.5281
11493WAT     H146692   1.114   3.602   5.101  0.1269 -0.4737  0.9475
11493WAT     H246693   1.224   3.571   5.026 -0.3574  1.2356 -0.5441
11493WAT    EPW46694   1.164   3.549   5.072  0.1554  0.2223 -0.3125
11494WAT      O46695   7.098   2.660   2.273  0.1167 -0.5806  0.2572
11494WAT     H146696   7.152   2.700   2.329  0.9485 -1.4597  0.1246
11494WAT     H246697   7.086   2.719   2.211 -0.5993  0.3104  1.2184
11494WAT    EPW46698   7.104   2.674   2.272  0.1338 -0.5788  0.3796
11495WAT      O46699   5.029   6.969   4.742  0.7506 -0.2302  0.1643
11495WAT     H146700   5.036   6.959   4.655 -0.5225 -1.4602  0.1695
11495WAT     H246701   5.109   6.953   4.771  1.7232  2.2170 -0.9112
11495WAT    EPW46702   5.041   6.965   4.733  0.7062 -0.0504  0.0062
11496WAT      O46703   4.019   5.149   7.335  0.1491 -0.2770  0.3255
11496WAT     H146704   3.934   5.166   7.344 -0.1937 -1.4548 -0.3970
11496WAT     H246705   4.032   5.151   7.249  0.6770 -0.8733  0.3804
11496WAT    EPW46706   4.008   5.152   7.324  0.1765 -0.5390  0.2269
11497WAT      O46707   1.636   0.988   3.681 -0.2167 -0.0393  0.1777
11497WAT     H146708   1.699   0.942   3.644 -1.2274 -0.1862 -1.4619
11497WAT     H246709   1.655   1.071   3.659 -0.8452 -0.1311 -0.7694
11497WAT    EPW46710   1.648   0.994   3.672 -0.4588 -0.0746 -0.2044
11498WAT      O46711   6.902   3.568   0.881 -0.0896 -0.3988 -0.1293
11498WAT     H146712   6.831   3.618   0.877 -0.8426 -1.5195 -1.5856
11498WAT     H246713   6.958   3.607   0.827 -0.7133 -1.1417 -1.3449
11498WAT    EPW46714   6.900   3.581   0.872 -0.2930 -0.6741 -0.5240
11499WAT      O46715   1.260   1.603   2.951 -0.2188  0.2292  0.4248
11499WAT     H146716   1.226   1.682   2.963  0.9136  0.5034  2.2483
11499WAT     H246717   1.232   1.558   3.021  1.8641  0.0386  1.1913
11499WAT    EPW46718   1.251   1.608   2.964  0.2562  0.2415  0.8074
11500WAT      O46719   4.802   2.652   0.961  0.3077  0.3214  0.0288
11500WAT     H146720   4.732   2.693   0.929 -1.8684 -3.4051 -0.6099
11500WAT     H246721   4.868   2.681   0.911 -1.5794  0.7700 -2.3735
11500WAT    EPW46722   4.802   2.662   0.949 -0.2925 -0.1628 -0.4204
11501WAT      O46723   7.033   0.973   3.456  0.4275 -0.4241 -0.2936
11501WAT     H146724   7.097   0.939   3.407  1.4130 -0.1607  0.7560
11501WAT     H246725   6.962   0.965   3.406  1.5460  0.7976 -2.2337
11501WAT    EPW46726   7.032   0.967   3.441  0.7383 -0.2047 -0.4252
11502WAT      O46727   5.564   2.203   1.962 -0.2032  0.1161  0.6766
11502WAT     H146728   5.583   2.288   1.959 -0.6396  0.2126  0.5266
11502WAT     H246729   5.641   2.165   1.973 -0.0221  0.5426  0.9073
11502WAT    EPW46730   5.578   2.210   1.963 -0.2409  0.1934  0.6885
11503WAT      O46731   2.580   3.806   4.936 -0.2150 -0.5335 -0.0646
11503WAT     H146732   2.658   3.803   4.974 -0.5090 -0.6760  0.5540
11503WAT     H246733   2.597   3.801   4.851  0.6736  2.9718 -0.2343
11503WAT    EPW46734   2.594   3.804   4.929 -0.1272 -0.0367  0.0017
11504WAT      O46735   1.130   2.165   0.941  0.7173 -0.2615  0.6843
11504WAT     H146736   1.164   2.191   0.865  0.0372 -0.1913  0.3957
11504WAT     H246737   1.168   2.088   0.955  0.7259 -0.3492  0.1882
11504WAT    EPW46738   1.141   2.157   0.932  0.6181 -0.2641  0.5684
11505WAT      O46739   7.073   6.012   2.524  0.4481  0.2577 -0.6547
11505WAT     H146740   7.128   6.078   2.536 -0.1710  0.5027  1.1287
11505WAT     H246741   7.049   6.019   2.441  2.7365  0.4133 -1.3549
11505WAT    EPW46742   7.078   6.023   2.514  0.6947  0.3169 -0.4947
11506WAT      O46743   4.476   3.436   2.134 -0.1020  0.0528  0.1752
11506WAT     H146744   4.405   3.480   2.158  0.7978  0.9615  1.2562
11506WAT     H246745   4.541   3.476   2.176  0.8956 -1.6206  0.3376
11506WAT    EPW46746   4.475   3.448   2.144  0.1783 -0.0602  0.3589
11507WAT      O46747   0.749   4.311   3.785 -0.1136  0.2412  0.0977
11507WAT     H146748   0.803   4.244   3.771 -0.6851 -0.3050  0.4802
11507WAT     H246749   0.712   4.324   3.706  1.0824  1.0883 -0.3490
11507WAT    EPW46750   0.751   4.303   3.771 -0.0213  0.2856  0.0882
11508WAT      O46751   0.428   2.586   1.635 -0.2142  0.0212  0.0479
11508WAT     H146752   0.416   2.582   1.549 -0.4032 -0.6982  0.1010
11508WAT     H246753   0.512   2.608   1.643 -0.3109  0.5301 -0.3180
11508WAT    EPW46754   0.439   2.588   1.623 -0.2564 -0.0099  0.0017
11509WAT      O46755   7.077   1.898   4.311 -0.4996 -0.0772  0.5397
11509WAT     H146756   7.074   1.834   4.252 -0.3260 -0.6383  1.1314
11509WAT     H246757   7.159   1.895   4.340 -0.9312 -0.7056  1.7764
11509WAT    EPW46758   7.089   1.888   4.306 -0.5377 -0.2529  0.8098
11510WAT      O46759   1.170   3.238   4.165 -0.2939  0.5169  0.5927
11510WAT     H146760   1.190   3.157   4.139 -0.6041  0.8257 -0.6587
11510WAT     H246761   1.134   3.226   4.244  1.4268 -0.3720  1.3001
11510WAT    EPW46762   1.168   3.224   4.173 -0.0856  0.4312  0.5123
11511WAT      O46763   0.742   3.296   4.174 -0.3235  0.4665 -0.2531
11511WAT     H146764   0.799   3.331   4.229  0.2357 -0.7694 -0.0148
11511WAT     H246765   0.738   3.353   4.108  3.7970 -0.8935 -1.9773
11511WAT    EPW46766   0.750   3.310   4.172  0.3678  0.0831 -0.4726
11512WAT      O46767   0.710   6.301   7.237  0.1041  0.6382 -0.1887
11512WAT     H146768   0.713   6.386   7.214 -1.3059  0.6600 -0.3936
11512WAT     H246769   0.777   6.293   7.293 -0.7839  2.3545  1.2513
11512WAT    EPW46770   0.720   6.313   7.242 -0.2354  0.8950 -0.0063
11513WAT      O46771   6.792   2.332   0.591  0.0992 -0.2013 -0.1485
11513WAT     H146772   6.748   2.371   0.527  0.5366 -0.9712 -0.9426
11513WAT     H246773   6.778   2.247   0.578 -0.3885 -0.3648  1.2240
11513WAT    EPW46774   6.784   2.325   0.580  0.0918 -0.3392 -0.0630
11514WAT      O46775   1.655   2.023   0.863 -0.2484  0.3537  0.1142
11514WAT     H146776   1.696   1.970   0.808  0.0209 -2.2773  2.6427
11514WAT     H246777   1.720   2.071   0.897 -0.0371  0.0595  0.1287
11514WAT    EPW46778   1.671   2.023   0.860 -0.1774 -0.0784  0.4899
11515WAT      O46779   2.063   6.678   6.568 -0.1494  0.9418  0.3727
11515WAT     H146780   2.056   6.667   6.481  0.0472  0.0707  0.4613
11515WAT     H246781   2.015   6.749   6.583 -2.4483 -0.4287 -0.0690
11515WAT    EPW46782   2.055   6.687   6.557 -0.4600  0.6107  0.3206
11516WAT      O46783   1.946   3.463   7.216 -0.1669  0.0356 -0.6861
11516WAT     H146784   1.990   3.502   7.281  0.0576 -0.3460 -0.6025
11516WAT     H246785   1.883   3.419   7.258 -0.9769  1.0066 -0.8436
11516WAT    EPW46786   1.943   3.462   7.232 -0.2534  0.1226 -0.6970
11517WAT      O46787   6.849   1.027   4.211 -0.4083  0.0273 -0.2114
11517WAT     H146788   6.861   1.068   4.136  0.6705 -0.9386 -0.6062
11517WAT     H246789   6.763   1.014   4.214 -0.6305  1.2673 -0.6053
11517WAT    EPW46790   6.838   1.031   4.201 -0.2817  0.0678 -0.3279
11518WAT      O46791   3.083   5.613   0.533 -0.1945 -0.2058 -0.4316
11518WAT     H146792   3.097   5.534   0.498 -2.5561  0.2715 -2.7343
11518WAT     H246793   3.161   5.652   0.527  0.1740 -1.1266 -2.7759
11518WAT    EPW46794   3.097   5.607   0.527 -0.4889 -0.2713 -1.1180
11519WAT      O46795   1.848   4.183   5.958 -0.7670 -0.3667  0.3671
11519WAT     H146796   1.929   4.165   5.932 -0.1775  0.3205  1.6224
11519WAT     H246797   1.860   4.220   6.037 -2.2695  0.0997  0.3988
11519WAT    EPW46798   1.862   4.186   5.966 -0.9019 -0.1963  0.5572
11520WAT      O46799   1.329   3.805   6.085  0.2688 -0.5220 -0.4392
11520WAT     H146800   1.402   3.841   6.117  0.6936  0.2129 -2.0937
11520WAT     H246801   1.323   3.840   6.005 -2.4059  0.1262 -0.0417
11520WAT    EPW46802   1.339   3.815   6.078 -0.0636 -0.3177 -0.6249
11521WAT      O46803   3.363   5.316   2.468  0.2575 -0.9206  0.2606
11521WAT     H146804   3.387   5.232   2.472 -0.4650 -1.2503 -1.5102
11521WAT     H246805   3.287   5.318   2.512  0.6193 -1.0376  0.9004
11521WAT    EPW46806   3.355   5.304   2.475  0.2043 -0.9866  0.0935
11522WAT      O46807   4.575   6.718   0.430  0.4402  0.5943  0.4794
11522WAT     H146808   4.504   6.748   0.470  0.0277 -0.6899  0.7784
11522WAT     H246809   4.637   6.775   0.451 -0.2738  1.1611  1.0932
11522WAT    EPW46810   4.573   6.731   0.439  0.2738  0.4883  0.6142
11523WAT      O46811   0.315   0.327   0.033 -0.6834  0.1771  0.0106
11523WAT     H146812   0.251   0.382   0.013 -1.3921 -1.0995 -1.5256
11523WAT     H246813   0.387   0.376   0.033 -1.3834  1.2146 -0.5372
11523WAT    EPW46814   0.316   0.342   0.030 -0.8915  0.1418 -0.2972
11524WAT      O46815   2.730   3.672   6.546  0.1470 -0.3244  0.3217
11524WAT     H146816   2.728   3.757   6.525  0.5339 -0.0405  1.3714
11524WAT     H246817   2.731   3.632   6.468 -1.8412  0.5549 -0.2399
11524WAT    EPW46818   2.730   3.679   6.531 -0.0896 -0.1525  0.3938
11525WAT      O46819   6.648   2.077   7.112 -0.2285 -0.2600  0.3948
11525WAT     H146820   6.569   2.055   7.082 -0.9543  0.2974  1.8308
11525WAT     H246821   6.646   2.054   7.196  1.7415 -1.7223  0.1193
11525WAT    EPW46822   6.636   2.070   7.120 -0.0447 -0.3937  0.5662
11526WAT      O46823   1.705   3.166   3.170  0.4240 -0.7789 -0.2658
11526WAT     H146824   1.773   3.210   3.201 -0.7933 -0.0549  1.5358
11526WAT     H246825   1.670   3.129   3.241 -2.0987  0.3886 -0.7825
11526WAT    EPW46826   1.709   3.167   3.185 -0.1285 -0.4995 -0.0760
11527WAT      O46827   0.331   3.823   3.793  0.0554 -0.2110 -0.1713
11527WAT     H146828   0.334   3.883   3.856  0.4306 -0.6039  0.1925
11527WAT     H246829   0.386   3.762   3.821  0.2011 -0.4066 -0.8656
11527WAT    EPW46830   0.339   3.823   3.807  0.1324 -0.2979 -0.2202
11528WAT      O46831   4.879   3.080   6.650 -0.4693  0.1172  0.4638
11528WAT     H146832   4.852   3.136   6.589 -1.1739  0.5748  1.1754
11528WAT     H246833   4.813   3.079   6.707 -0.0966 -0.7974  0.8892
11528WAT    EPW46834   4.865   3.088   6.650 -0.5183  0.0497  0.6318
11529WAT      O46835   4.577   5.755   0.051  0.4794 -0.0300 -0.0157
11529WAT     H146836   4.591   5.671   0.070 -0.5336 -0.2838 -0.3151
11529WAT     H246837   4.577   5.756  -0.037  1.9052  0.5446 -0.0232
11529WAT    EPW46838   4.579   5.743   0.040  0.5404  0.0174 -0.0610
11530WAT      O46839   2.696   2.739   3.591  0.3910  0.2438  0.7372
11530WAT     H146840   2.721   2.786   3.660 -1.1032  2.1749  0.0536
11530WAT     H246841   2.727   2.784   3.523 -2.3006  1.1718  0.0033
11530WAT    EPW46842   2.704   2.753   3.591 -0.2274  0.6661  0.5278
11531WAT      O46843   0.969   3.300   4.579  0.0303 -0.2097  0.3309
11531WAT     H146844   1.039   3.340   4.613 -0.0246 -0.5757  0.8918
11531WAT     H246845   0.995   3.217   4.570 -0.9332 -0.7857  2.3795
11531WAT    EPW46846   0.983   3.294   4.583 -0.1201 -0.3488  0.7164
11532WAT      O46847   6.817   2.158   5.904  0.6917  0.3423  0.4600
11532WAT     H146848   6.792   2.213   5.841  0.2121  0.8818  1.1110
11532WAT     H246849   6.764   2.177   5.970  0.8117 -0.6085  0.8462
11532WAT    EPW46850   6.805   2.169   5.904  0.6386  0.2815  0.6132
11533WAT      O46851   6.245   2.472   4.155 -0.1420  0.3163 -0.1625
11533WAT     H146852   6.222   2.398   4.114 -0.1658 -0.5092  1.2568
11533WAT     H246853   6.221   2.458   4.238  2.0501  0.9054  0.6652
11533WAT    EPW46854   6.238   2.459   4.162  0.1783  0.2814  0.1694
11534WAT      O46855   1.741   4.818   5.211 -0.4218 -0.3208 -0.1610
11534WAT     H146856   1.736   4.895   5.253 -0.7596 -1.3939  1.8656
11534WAT     H246857   1.695   4.832   5.138  0.4381  1.7128 -0.3878
11534WAT    EPW46858   1.734   4.832   5.206 -0.3447 -0.1789  0.1049
11535WAT      O46859   3.322   5.862   1.689 -0.0899 -0.0292  0.0738
11535WAT     H146860   3.292   5.850   1.608 -1.4980  0.9887  0.3992
11535WAT     H246861   3.331   5.949   1.694 -1.4355  0.0656  1.4486
11535WAT    EPW46862   3.319   5.873   1.678 -0.4966  0.1351  0.3249
11536WAT      O46863   5.288   6.260   0.812  0.0190  0.2346  0.0778
11536WAT     H146864   5.312   6.270   0.729 -0.6489  2.1489  0.0487
11536WAT     H246865   5.208   6.227   0.807 -1.1835  2.8932 -0.2453
11536WAT    EPW46866   5.280   6.257   0.799 -0.2573  0.9101  0.0258
11537WAT      O46867   1.029   3.953   3.268  0.8737 -0.3081 -0.0478
11537WAT     H146868   1.040   4.025   3.317  1.2063 -1.6794  2.0249
11537WAT     H246869   1.043   3.981   3.187  1.9800  1.7570  0.7831
11537WAT    EPW46870   1.032   3.968   3.263  1.0863 -0.2056  0.3811
11538WAT      O46871   0.761   4.990   0.738  0.1998  0.1318 -0.0711
11538WAT     H146872   0.807   4.992   0.664  0.2399 -0.0765 -0.0521
11538WAT     H246873   0.813   5.030   0.796 -0.2400  1.2003 -0.3784
11538WAT    EPW46874   0.776   4.996   0.736  0.1407  0.2588 -0.1137
11539WAT      O46875   2.432   1.012   3.849 -0.2395 -0.4565  0.4562
11539WAT     H146876   2.350   1.043   3.852  0.0901  0.4325  0.4616
11539WAT     H246877   2.430   0.946   3.906 -0.4874  0.7187  1.8889
11539WAT    EPW46878   2.419   1.007   3.858 -0.2274 -0.1516  0.6686
11540WAT      O46879   2.144   5.498   5.665 -0.0949 -0.5944 -0.3854
11540WAT     H146880   2.174   5.562   5.715  0.5688 -0.4810 -0.9133
11540WAT     H246881   2.152   5.530   5.584  0.4224 -1.4017 -0.6668
11540WAT    EPW46882   2.150   5.512   5.661  0.0795 -0.6969 -0.5050
11541WAT      O46883   5.299   6.183   5.707  0.2387 -0.2451 -0.3362
11541WAT     H146884   5.217   6.161   5.686  0.8694 -1.4578 -1.6837
11541WAT     H246885   5.305   6.160   5.791 -0.5779 -0.8819 -0.4319
11541WAT    EPW46886   5.288   6.176   5.716  0.2112 -0.5183 -0.5494
11542WAT      O46887   3.176   7.265   4.777  0.5289 -0.0316 -0.2880
11542WAT     H146888   3.177   7.329   4.836 -1.4819 -1.0961  1.0179
11542WAT     H246889   3.248   7.219   4.796  0.1614 -0.0881  1.0406
11542WAT    EPW46890   3.187   7.268   4.789  0.1776 -0.1972  0.1012
11543WAT      O46891   0.732   5.899   6.195  0.0286 -0.0465  0.3173
11543WAT     H146892   0.775   5.869   6.126 -1.8358  3.1088 -2.5515
11543WAT     H246893   0.663   5.846   6.201  0.4826 -0.6658  0.0728
11543WAT    EPW46894   0.728   5.887   6.186 -0.1797  0.3281 -0.1426
11544WAT      O46895   3.771   6.430   2.862  0.4299  0.5734  0.0470
11544WAT     H146896   3.808   6.459   2.936  1.8535  1.7642 -1.0891
11544WAT     H246897   3.686   6.425   2.883  0.6948  1.6459  1.5358
11544WAT    EPW46898   3.764   6.434   2.876  0.6793  0.9078  0.0991
11545WAT      O46899   5.914   1.697   7.200 -0.7896 -0.2160 -0.0826
11545WAT     H146900   5.959   1.631   7.236  0.3500  0.6322  0.0676
11545WAT     H246901   5.962   1.720   7.131 -1.2756  0.3408 -0.2388
11545WAT    EPW46902   5.928   1.691   7.195 -0.6930 -0.0085 -0.0835
11546WAT      O46903   1.243   2.385   5.125 -0.3340 -0.2544 -0.3236
11546WAT     H146904   1.321   2.374   5.087 -0.9525 -1.8879 -1.2212
11546WAT     H246905   1.262   2.428   5.199  1.3885 -0.4693 -0.5996
11546WAT    EPW46906   1.257   2.390   5.130 -0.1709 -0.5275 -0.4969
11547WAT      O46907   6.666   1.470   3.181 -0.3970 -0.0503  0.4222
11547WAT     H146908   6.613   1.460   3.113 -1.9675  1.8650  1.2738
11547WAT     H246909   6.668   1.390   3.217  0.2796 -1.0402 -1.6357
11547WAT    EPW46910   6.659   1.457   3.177 -0.5291  0.0864  0.2440
11548WAT      O46911   5.525   5.058   7.075 -0.3695  0.0700  0.5877
11548WAT     H146912   5.469   5.028   7.015  2.2580 -1.7104 -1.1908
11548WAT     H246913   5.538   5.141   7.052 -0.3248 -0.2498 -0.6263
11548WAT    EPW46914   5.519   5.065   7.063  0.0252 -0.2402  0.1457
11549WAT      O46915   1.832   2.969   4.668 -0.6577  0.1626  0.2269
11549WAT     H146916   1.770   2.939   4.722 -1.3757  1.6677  0.3013
11549WAT     H246917   1.850   3.048   4.701 -0.0817  0.5241 -0.9113
11549WAT    EPW46918   1.825   2.976   4.681 -0.6787  0.4384  0.0697
11550WAT      O46919   0.134   6.335   6.766  0.2451 -0.0465 -0.5862
11550WAT     H146920   0.214   6.309   6.747 -0.5438 -0.6335 -3.5896
11550WAT     H246921   0.139   6.422   6.762  1.3005  0.1480  2.3690
11550WAT    EPW46922   0.146   6.344   6.763  0.2845 -0.1045 -0.5933
11551WAT      O46923   0.862   1.473   0.581 -0.0970 -0.1416 -0.0834
11551WAT     H146924   0.833   1.511   0.508  1.9483 -1.3839 -1.6645
11551WAT     H246925   0.929   1.523   0.606 -0.2295 -0.2209  0.4617
11551WAT    EPW46926   0.868   1.486   0.574  0.1856 -0.3368 -0.2364
11552WAT      O46927   4.616   3.110   1.063 -0.6167  0.0933 -0.2832
11552WAT     H146928   4.649   3.128   0.984 -0.6350 -0.1277 -0.3412
11552WAT     H246929   4.530   3.124   1.053 -0.4125  1.9944  0.2287
11552WAT    EPW46930   4.608   3.115   1.050 -0.5893  0.3415 -0.2162
11553WAT      O46931   0.616   4.451   0.491  0.0130 -0.1596 -0.3544
11553WAT     H146932   0.632   4.530   0.525  0.7176 -0.1943 -0.6065
11553WAT     H246933   0.614   4.399   0.561 -1.4724  0.2165 -0.0656
11553WAT    EPW46934   0.618   4.455   0.506 -0.1023 -0.1092 -0.3490
11554WAT      O46935   3.446   7.216   6.512  0.4278  0.0435 -0.1364
11554WAT     H146936   3.445   7.292   6.554  0.2188 -0.4126  0.7201
11554WAT     H246937   3.493   7.232   6.441  0.9788  0.7906  0.3831
11554WAT    EPW46938   3.452   7.230   6.508  0.4784  0.0865  0.0669
11555WAT      O46939   1.378   0.826   5.473  0.0960  0.0246 -0.1101
11555WAT     H146940   1.397   0.838   5.389 -0.7877  3.5971  0.0544
11555WAT     H246941   1.455   0.806   5.508  0.6171 -0.7702 -1.6047
11555WAT    EPW46942   1.392   0.825   5.466  0.0424  0.4349 -0.3066
11556WAT      O46943   7.178   6.062   6.970 -0.5467  0.2846  0.1639
11556WAT     H146944   7.213   6.075   6.891 -0.5861 -1.4840 -0.1981
11556WAT     H246945   7.101   6.103   6.965 -0.2450  0.7864 -0.4747
11556WAT    EPW46946   7.172   6.070   6.957 -0.5079  0.0975  0.0161
11557WAT      O46947   0.433   2.844   6.953 -0.5553 -0.4453  0.2026
11557WAT     H146948   0.385   2.889   7.010 -0.1468 -0.1554  0.3258
11557WAT     H246949   0.402   2.763   6.959 -0.5588 -0.4048  0.7917
11557WAT    EPW46950   0.421   2.839   6.962 -0.4955 -0.3965  0.3078
11558WAT      O46951   3.169   4.419   0.612  0.3476 -0.2081 -0.2179
11558WAT     H146952   3.243   4.394   0.651  0.7763 -2.8075 -2.3659
11558WAT     H246953   3.186   4.408   0.527 -2.5293 -1.1857 -0.7864
11558WAT    EPW46954   3.182   4.413   0.605 -0.0140 -0.7365 -0.6192
11559WAT      O46955   6.542   4.466   6.507  0.4515  0.4459  0.0810
11559WAT     H146956   6.613   4.497   6.467  1.2836 -0.4324  0.8147
11559WAT     H246957   6.555   4.486   6.591  1.3783 -2.3382  0.7188
11559WAT    EPW46958   6.554   4.473   6.514  0.7113 -0.0951  0.2836
11560WAT      O46959   2.784   5.127   1.033  0.0712 -0.2472 -0.2187
11560WAT     H146960   2.831   5.198   1.013  1.5205 -0.9270  0.6287
11560WAT     H246961   2.749   5.147   1.110  1.1149 -0.7249  0.3955
11560WAT    EPW46962   2.786   5.140   1.041  0.4394 -0.4182 -0.0028
11561WAT      O46963   2.897   7.236   1.250  0.1120  0.7621  0.0886
11561WAT     H146964   2.941   7.232   1.325  0.9716  1.9988 -0.3074
11561WAT     H246965   2.960   7.233   1.190 -0.2109  3.1753 -0.4787
11561WAT    EPW46966   2.913   7.235   1.252  0.1913  1.3012 -0.0537
11562WAT      O46967   5.277   2.169   5.772  0.0776 -0.3924  0.1536
11562WAT     H146968   5.358   2.198   5.760 -0.1505  0.1730 -0.0202
11562WAT     H246969   5.248   2.152   5.692 -0.0704 -0.3443  0.1956
11562WAT    EPW46970   5.284   2.171   5.759  0.0220 -0.3018  0.1341
11563WAT      O46971   4.058   0.068   3.315  0.0974  0.3137  0.4054
11563WAT     H146972   4.038   0.133   3.370 -0.1012  1.1023 -0.5607
11563WAT     H246973   4.079   0.110   3.241  0.5563 -0.7078 -0.0677
11563WAT    EPW46974   4.058   0.084   3.312  0.1359  0.2793  0.1928
11564WAT      O46975   0.853   0.264   6.276  0.1997 -0.0106  0.4953
11564WAT     H146976   0.787   0.295   6.323  0.6371  0.2298  0.9698
11564WAT     H246977   0.924   0.287   6.322  0.5526 -2.0285  1.0821
11564WAT    EPW46978   0.854   0.272   6.290  0.3165 -0.2732  0.6521
11565WAT      O46979   2.435   0.707   2.975 -0.1197  0.1383 -0.4076
11565WAT     H146980   2.447   0.705   2.889 -1.0013  1.1882 -0.5754
11565WAT     H246981   2.460   0.628   3.002 -0.4951 -0.4378 -1.7066
11565WAT    EPW46982   2.441   0.695   2.966 -0.3054  0.2083 -0.6243
11566WAT      O46983   0.007   6.104   6.725 -0.4927  0.3830 -0.3897
11566WAT     H146984  -0.036   6.125   6.652  0.4296  1.0643 -0.7589
11566WAT     H246985   0.052   6.176   6.743 -0.2877  0.0273  0.5539
11566WAT    EPW46986   0.007   6.118   6.717 -0.3262  0.4311 -0.3049
11567WAT      O46987   2.786   4.566   2.624  0.3781 -0.0083  0.0896
11567WAT     H146988   2.812   4.483   2.632  0.2212 -0.2488 -1.6186
11567WAT     H246989   2.699   4.560   2.624  0.2809  0.4465  2.3292
11567WAT    EPW46990   2.777   4.553   2.625  0.3405  0.0233  0.1681
11568WAT      O46991   5.729   2.735   1.266  0.4376  0.2979  0.1753
11568WAT     H146992   5.645   2.758   1.259  0.7467  0.9555 -1.7615
11568WAT     H246993   5.725   2.648   1.271 -0.3659  0.3363  0.4106
11568WAT    EPW46994   5.716   2.725   1.266  0.3645  0.4007 -0.0760
11569WAT      O46995   0.149   3.526   4.918  0.3960  0.0822 -0.0597
11569WAT     H146996   0.162   3.539   4.833  0.4564 -1.3172 -0.2932
11569WAT     H246997   0.201   3.458   4.937  1.8713  1.5591  1.5542
11569WAT    EPW46998   0.158   3.518   4.908  0.6228  0.0936  0.1442
11570WAT      O46999   4.451   1.626   1.123  0.3705  0.3943 -0.2381
11570WAT     H147000   4.535   1.645   1.137  0.5252 -0.1494 -0.4043
11570WAT     H247001   4.440   1.645   1.039  1.2230 -2.6034 -1.1504
11570WAT    EPW47002   4.462   1.632   1.113  0.5193 -0.1289 -0.3974
11571WAT      O47003   3.424   0.142   0.251  0.3018 -0.4224 -0.0573
11571WAT     H147004   3.384   0.064   0.243  1.9517 -1.4611  1.2469
11571WAT     H247005   3.464   0.151   0.174  2.8239 -2.5658  0.8402
11571WAT    EPW47006   3.424   0.131   0.238  0.9181 -0.8925  0.2679
11572WAT      O47007   5.084   4.030   2.639 -0.0256 -0.3985 -0.4218
11572WAT     H147008   5.013   4.057   2.681  0.2694  0.5834 -0.5396
11572WAT     H247009   5.067   3.946   2.622 -0.5790 -0.5437  0.7377
11572WAT    EPW47010   5.071   4.021   2.643 -0.0638 -0.2749 -0.2679
11573WAT      O47011   4.520   1.305   4.325  0.3707  0.2423  0.1615
11573WAT     H147012   4.518   1.311   4.238 -0.9313 -1.9003 -0.0268
11573WAT     H247013   4.600   1.333   4.346  1.5305 -1.2496 -1.9315
11573WAT    EPW47014   4.531   1.310   4.316  0.3497 -0.2946 -0.1755
11574WAT      O47015   3.910   0.996   6.339  0.3273 -0.2412 -0.4225
11574WAT     H147016   3.987   1.015   6.376  0.6053 -1.7888 -0.1285
11574WAT     H247017   3.904   1.052   6.273  1.3700  0.3841 -0.0005
11574WAT    EPW47018   3.921   1.007   6.334  0.5224 -0.3775 -0.3168
11575WAT      O47019   1.565   6.497   0.625 -0.4947 -0.1947  0.0236
11575WAT     H147020   1.514   6.427   0.610 -1.1850  0.5819 -1.4972
11575WAT     H247021   1.515   6.550   0.672 -0.6954  0.0826 -0.4917
11575WAT    EPW47022   1.550   6.494   0.630 -0.6263 -0.0390 -0.2772
11576WAT      O47023   3.173   2.226   2.585 -0.3415 -0.0647 -0.0901
11576WAT     H147024   3.181   2.242   2.500 -0.5127  0.3703 -0.0274
11576WAT     H247025   3.230   2.281   2.621 -0.9510  0.4297  0.1328
11576WAT    EPW47026   3.183   2.236   2.578 -0.4568  0.0726 -0.0479
11577WAT      O47027   4.184   1.541   6.642 -0.1322  0.7041  0.3218
11577WAT     H147028   4.160   1.459   6.627 -1.0742  0.8711  0.7851
11577WAT     H247029   4.226   1.537   6.718 -1.5346  0.8340  1.1545
11577WAT    EPW47030   4.186   1.528   6.651 -0.4785  0.7480  0.5133
11578WAT      O47031   1.201   3.833   4.797  0.8299  0.1712 -0.2920
11578WAT     H147032   1.124   3.793   4.808  0.3075  1.5048  1.2636
11578WAT     H247033   1.205   3.847   4.711 -1.4002  1.4514 -0.2427
11578WAT    EPW47034   1.190   3.829   4.786  0.4233  0.5573 -0.0549
11579WAT      O47035   0.754   1.986   6.407  0.0839 -0.2336  0.3847
11579WAT     H147036   0.775   2.067   6.383 -1.5764  0.0391 -0.2646
11579WAT     H247037   0.832   1.948   6.421  0.8840  1.5933  1.2007
11579WAT    EPW47038   0.769   1.992   6.405 -0.0432  0.0765  0.4093
11580WAT      O47039   4.071   4.015   1.998 -0.4667  0.5005  0.3179
11580WAT     H147040   3.990   3.992   1.973  0.7350 -0.9348 -2.7712
11580WAT     H247041   4.083   4.093   1.962  0.9281 -1.1640 -3.2506
11580WAT    EPW47042   4.061   4.023   1.989 -0.0832  0.0426 -0.6656
11581WAT      O47043   2.676   4.594   4.583  0.4687 -0.7073 -0.0095
11581WAT     H147044   2.683   4.520   4.628 -0.0978 -1.5399 -1.2273
11581WAT     H247045   2.602   4.629   4.613  1.0891 -0.2665  1.0538
11581WAT    EPW47046   2.666   4.589   4.594  0.4766 -0.7652 -0.0323
11582WAT      O47047   4.693   0.063   3.428 -0.0210 -0.1026 -0.0115
11582WAT     H147048   4.704   0.012   3.358 -0.8628 -2.6890  1.6052
11582WAT     H247049   4.747   0.028   3.487 -1.8267 -0.2368  1.6634
11582WAT    EPW47050   4.703   0.050   3.426 -0.4121 -0.5045  0.4747
11583WAT      O47051   4.687   3.731   6.917 -0.0388 -0.0885 -0.5829
11583WAT     H147052   4.711   3.728   6.833 -1.6560  0.5363 -1.0984
11583WAT     H247053   4.692   3.648   6.942 -0.1158 -0.3759 -1.4659
11583WAT    EPW47054   4.692   3.719   6.908 -0.2891 -0.0387 -0.7895
11584WAT      O47055   3.679   6.145   2.643 -0.2301  0.9073 -0.0792
11584WAT     H147056   3.629   6.097   2.590  0.0956 -0.3266  0.6759
11584WAT     H247057   3.634   6.218   2.654 -0.7633  0.7784 -1.2533
11584WAT    EPW47058   3.665   6.148   2.637 -0.2608  0.7060 -0.1411
11585WAT      O47059   7.053   0.849   5.421 -0.6248  0.4583  0.5163
11585WAT     H147060   7.009   0.923   5.420 -0.3446  0.6228  0.0407
11585WAT     H247061   7.098   0.853   5.496 -0.6807  0.7277  0.5360
11585WAT    EPW47062   7.053   0.860   5.432 -0.5917  0.5224  0.4490
11586WAT      O47063   5.369   1.611   2.135 -0.0901  1.0587 -0.5839
11586WAT     H147064   5.313   1.556   2.174  0.0201  1.0518 -0.4350
11586WAT     H247065   5.445   1.569   2.140  0.1212  1.5092  0.1183
11586WAT    EPW47066   5.372   1.597   2.142 -0.0426  1.1242 -0.4582
11587WAT      O47067   0.611   1.600   4.240 -0.7054  0.1010 -0.4879
11587WAT     H147068   0.573   1.635   4.170 -0.9252  0.0347 -0.4013
11587WAT     H247069   0.545   1.585   4.294 -0.3732  1.5500  0.3683
11587WAT    EPW47070   0.596   1.603   4.237 -0.6888  0.3052 -0.3486
11588WAT      O47071   4.334   3.385   6.151  0.0460 -0.0955 -0.3392
11588WAT     H147072   4.274   3.434   6.190 -0.7640 -1.5445  0.3276
11588WAT     H247073   4.313   3.303   6.175  0.8042 -0.8621 -2.0951
11588WAT    EPW47074   4.322   3.380   6.161  0.0383 -0.4228 -0.5001
11589WAT      O47075   2.571   2.581   2.766 -0.2133 -0.4705 -0.1544
11589WAT     H147076   2.582   2.494   2.761  0.4464 -0.3694 -0.6405
11589WAT     H247077   2.487   2.590   2.788 -0.0566 -1.2435  0.7856
11589WAT    EPW47078   2.560   2.569   2.768 -0.0927 -0.5697 -0.0874
11590WAT      O47079   7.089   4.462   2.142 -0.4153 -0.4785 -0.7468
11590WAT     H147080   7.065   4.545   2.157 -1.5836 -0.5653 -1.9533
11590WAT     H247081   7.109   4.433   2.222  1.6960  1.4064 -0.4820
11590WAT    EPW47082   7.088   4.470   2.156 -0.2760 -0.2129 -0.8859
11591WAT      O47083   6.639   1.005   2.138  0.5354  0.0241 -0.1559
11591WAT     H147084   6.701   1.003   2.198  0.4517 -0.5758 -0.0875
11591WAT     H247085   6.669   1.062   2.079 -0.0293  1.7545  1.1275
11591WAT    EPW47086   6.652   1.013   2.138  0.4396  0.1911  0.0438
11592WAT      O47087   4.911   2.319   7.427  0.0740  0.7043 -0.7539
11592WAT     H147088   4.875   2.376   7.482  2.1177  1.0558  0.3440
11592WAT     H247089   4.933   2.368   7.358  0.1444  0.8857 -0.6050
11592WAT    EPW47090   4.909   2.334   7.425  0.3863  0.7830 -0.5697
11593WAT      O47091   3.560   1.557   1.394 -0.0741 -0.3048 -0.3857
11593WAT     H147092   3.521   1.633   1.409 -0.6840 -0.3624 -1.6018
11593WAT     H247093   3.608   1.544   1.466 -0.0321  1.1699 -0.1281
11593WAT    EPW47094   3.562   1.566   1.407 -0.1580 -0.0954 -0.5273
11594WAT      O47095   0.435   3.159   1.312 -0.2166 -0.3665 -0.1831
11594WAT     H147096   0.387   3.086   1.311 -2.2293  0.8553  0.5789
11594WAT     H247097   0.399   3.208   1.250  0.2603  0.4716  0.1828
11594WAT    EPW47098   0.422   3.156   1.303 -0.4435 -0.0622 -0.0165
11595WAT      O47099   5.413   0.660   4.284  0.2216 -0.1452  0.3358
11595WAT     H147100   5.410   0.726   4.342  0.3287 -0.0556  0.2396
11595WAT     H247101   5.434   0.699   4.209 -2.7499  0.2190 -0.4591
11595WAT    EPW47102   5.415   0.676   4.282 -0.2015 -0.0782  0.2042
11596WAT      O47103   3.558   6.296   6.858  0.2964 -0.4609 -0.2909
11596WAT     H147104   3.486   6.265   6.820 -0.2167  0.8890 -0.5008
11596WAT     H247105   3.564   6.377   6.826  0.5449  0.3057  1.5316
11596WAT    EPW47106   3.548   6.304   6.848  0.2573 -0.1483 -0.0527
11597WAT      O47107   4.836   2.081   4.440  0.0446  0.5668 -0.1201
11597WAT     H147108   4.840   2.168   4.446  1.5959  0.5199 -0.2485
11597WAT     H247109   4.917   2.058   4.420 -0.5948 -0.8373 -1.2578
11597WAT    EPW47110   4.849   2.091   4.438  0.1793  0.3525 -0.3071
11598WAT      O47111   2.333   4.851   7.357 -0.3960  0.1992  0.2856
11598WAT     H147112   2.420   4.852   7.363 -0.4052  0.5807  0.4229
11598WAT     H247113   2.317   4.879   7.276 -0.4093  1.0572  0.5778
11598WAT    EPW47114   2.344   4.855   7.346 -0.3993  0.3823  0.3491
11599WAT      O47115   0.736   1.277   5.164  0.4357 -0.1344 -0.5679
11599WAT     H147116   0.809   1.247   5.127  1.5985  2.1420 -0.3598
11599WAT     H247117   0.738   1.363   5.146 -0.9134  0.4136  1.5149
11599WAT    EPW47118   0.747   1.285   5.156  0.4082  0.2828 -0.2295
11600WAT      O47119   6.856   7.023   4.792  0.3999 -0.2834 -0.3499
11600WAT     H147120   6.808   7.091   4.820  1.5237  0.6629 -0.6242
11600WAT     H247121   6.898   6.997   4.864 -0.7179 -1.3114 -0.0419
11600WAT    EPW47122   6.855   7.029   4.807  0.4008 -0.2954 -0.3450
11601WAT      O47123   2.873   2.383   1.461  0.6886 -0.2988 -0.2758
11601WAT     H147124   2.916   2.325   1.510  2.7057 -0.3768 -1.9881
11601WAT     H247125   2.808   2.410   1.513  0.9157 -2.5359  1.3102
11601WAT    EPW47126   2.870   2.379   1.476  1.0202 -0.6408 -0.2945
11602WAT      O47127   4.512   5.648   2.750  0.1483  0.1406  0.0416
11602WAT     H147128   4.559   5.580   2.722  0.0593 -0.4738  1.3002
11602WAT     H247129   4.573   5.706   2.772  0.2458  0.2121 -0.4042
11602WAT    EPW47130   4.528   5.646   2.749  0.1496  0.0604  0.1617
11603WAT      O47131   2.165   3.795   0.196  0.4043 -0.0535  0.0025
11603WAT     H147132   2.230   3.760   0.242 -0.1577 -0.7253  0.3027
11603WAT     H247133   2.142   3.732   0.141 -1.1573 -0.4934  1.0883
11603WAT    EPW47134   2.171   3.781   0.195  0.0906 -0.2178  0.2072
11604WAT      O47135   2.921   1.436   1.935 -0.5764  0.0766  0.1753
11604WAT     H147136   2.908   1.374   1.876 -1.2644 -0.3274  0.7421
11604WAT     H247137   3.006   1.431   1.952 -0.7048 -1.0218  0.5475
11604WAT    EPW47138   2.932   1.426   1.929 -0.6970 -0.1454  0.3140
11605WAT      O47139   3.975   0.341   3.861 -0.0916 -0.1227 -0.3292
11605WAT     H147140   4.058   0.337   3.888  0.5387  0.8483 -2.0351
11605WAT     H247141   3.955   0.425   3.867 -0.6836 -0.2288 -0.7333
11605WAT    EPW47142   3.985   0.353   3.866 -0.0859  0.0051 -0.6409
11606WAT      O47143   4.383   6.571   5.437  0.0125 -0.0087  0.1355
11606WAT     H147144   4.383   6.651   5.403 -0.3940 -0.4560 -0.9400
11606WAT     H247145   4.314   6.571   5.490  0.9358  0.8494  1.4194
11606WAT    EPW47146   4.373   6.583   5.440  0.0889  0.0520  0.1663
11607WAT      O47147   3.768   0.863   0.502  0.1566 -0.8313 -0.0270
11607WAT     H147148   3.823   0.809   0.543 -0.4672 -1.5770 -0.1614
11607WAT     H247149   3.800   0.867   0.421 -0.1233 -1.4616 -0.1724
11607WAT    EPW47150   3.781   0.856   0.496  0.0231 -1.0346 -0.0684
11608WAT      O47151   6.417   3.205   2.161  0.5531 -0.5124  0.4682
11608WAT     H147152   6.389   3.168   2.234 -1.5868 -0.3030 -0.1746
11608WAT     H247153   6.357   3.182   2.102  0.0399  2.4757 -0.3476
11608WAT    EPW47154   6.404   3.196   2.163  0.1612 -0.0400  0.2527
11609WAT      O47155   3.980   0.281   3.520  0.0598  0.1844 -0.6308
11609WAT     H147156   4.042   0.342   3.511  1.7035 -1.2227  0.4874
11609WAT     H247157   3.995   0.249   3.600 -0.6905 -1.7216 -1.2080
11609WAT    EPW47158   3.992   0.285   3.531  0.1918 -0.3050 -0.5509
11610WAT      O47159   6.162   2.589   6.796 -0.0725  0.2440  0.1859
11610WAT     H147160   6.235   2.632   6.816 -0.1884  0.8779 -0.6846
11610WAT     H247161   6.190   2.509   6.774  0.0870 -0.3951  2.4264
11610WAT    EPW47162   6.177   2.583   6.796 -0.0661  0.2432  0.3883
11611WAT      O47163   1.750   2.394   2.274 -0.1878 -0.2628  0.8360
11611WAT     H147164   1.773   2.332   2.332  0.8276  0.6022  1.3966
11611WAT     H247165   1.718   2.458   2.324  0.6785  0.4871  0.4502
11611WAT    EPW47166   1.749   2.394   2.290  0.0901 -0.0243  0.8618
11612WAT      O47167   6.202   1.159   1.716  0.2051 -0.5064 -0.1891
11612WAT     H147168   6.277   1.173   1.758 -0.3755  0.5466  0.5664
11612WAT     H247169   6.181   1.238   1.686  0.0345 -1.0353 -1.4995
11612WAT    EPW47170   6.210   1.173   1.718  0.0941 -0.4290 -0.2711
11613WAT      O47171   4.878   6.447   5.247  0.2156 -0.1830  0.0309
11613WAT     H147172   4.866   6.530   5.220 -0.7319  0.5697  2.4311
11613WAT     H247173   4.861   6.400   5.176  0.4054  1.6650 -1.3333
11613WAT    EPW47174   4.873   6.453   5.232  0.1036  0.2012  0.1839
11614WAT      O47175   3.837   6.312   5.348  0.0741 -1.0107 -0.0011
11614WAT     H147176   3.861   6.382   5.303 -1.9761  1.3174  2.1768
11614WAT     H247177   3.767   6.282   5.304 -2.1500  1.4614  1.5018
11614WAT    EPW47178   3.830   6.318   5.335 -0.5573 -0.3016  0.5426
11615WAT      O47179   1.664   0.524   3.573 -0.0377  0.2864 -0.5408
11615WAT     H147180   1.707   0.600   3.565 -0.5170  0.5828 -0.3731
11615WAT     H247181   1.586   0.548   3.604  0.6126 -0.4862  1.8903
11615WAT    EPW47182   1.659   0.539   3.576 -0.0125  0.2160 -0.1569
11616WAT      O47183   5.505   4.071   3.542 -0.2762  0.2686  0.0381
11616WAT     H147184   5.558   4.070   3.612 -1.7853  3.2917  1.3959
11616WAT     H247185   5.466   3.993   3.546  0.9810 -0.3602  1.4998
11616WAT    EPW47186   5.507   4.059   3.553 -0.3134  0.6223  0.4546
11617WAT      O47187   0.476   2.631   4.704 -0.4096 -0.1901  0.3831
11617WAT     H147188   0.529   2.574   4.743 -0.6330 -1.6271 -1.2773
11617WAT     H247189   0.396   2.599   4.721 -0.4986 -1.8216 -2.3764
11617WAT    EPW47190   0.472   2.618   4.712 -0.4557 -0.6434 -0.2698
11618WAT      O47191   6.393   0.195   0.593  0.3517  0.0540  0.0847
11618WAT     H147192   6.425   0.276   0.598  0.2672  0.0479  0.8079
11618WAT     H247193   6.456   0.145   0.627 -0.2612  0.0070  1.1865
11618WAT    EPW47194   6.407   0.200   0.599  0.2487  0.0461  0.3543
11619WAT      O47195   0.501   5.335   3.733 -0.0602  0.2790 -0.1196
11619WAT     H147196   0.492   5.369   3.653 -0.3131 -0.1430 -0.2740
11619WAT     H247197   0.427   5.359   3.773  0.9366  2.2483  0.6631
11619WAT    EPW47198   0.489   5.344   3.727  0.0497  0.5076 -0.0268
11620WAT      O47199   5.650   0.713   7.415 -0.0755 -0.1194  0.3736
11620WAT     H147200   5.694   0.638   7.423 -0.2041 -0.0504  2.2393
11620WAT     H247201   5.571   0.694   7.447 -0.9213  0.1841 -1.4405
11620WAT    EPW47202   5.645   0.699   7.421 -0.2195 -0.0644  0.3812
11621WAT      O47203   0.993   0.409   3.687  0.0886 -0.8059  0.8565
11621WAT     H147204   1.078   0.394   3.678 -0.0762 -1.3666  0.1265
11621WAT     H247205   0.977   0.474   3.631  0.0553 -0.6066  1.0940
11621WAT    EPW47206   1.003   0.416   3.678  0.0593 -0.8593  0.7838
11622WAT      O47207   1.176   4.928   6.958 -0.0633  0.0245  0.2301
11622WAT     H147208   1.165   4.887   7.035 -0.9324 -0.6394 -0.2236
11622WAT     H247209   1.261   4.920   6.942 -0.0715 -0.8779  0.5642
11622WAT    EPW47210   1.187   4.920   6.967 -0.1929 -0.2069  0.2124
11623WAT      O47211   4.280   5.143   0.536  0.0702  0.1799 -0.3284
11623WAT     H147212   4.367   5.147   0.544  0.0739 -1.6136  1.3083
11623WAT     H247213   4.263   5.192   0.466  2.2247  1.9185  0.2812
11623WAT    EPW47214   4.290   5.151   0.527  0.3890  0.1718  0.0034
11624WAT      O47215   5.281   4.339   6.735 -0.7431  0.4014 -0.7420
11624WAT     H147216   5.282   4.393   6.666  0.5996 -0.8265 -1.7632
11624WAT     H247217   5.311   4.388   6.800 -0.1814  1.0917 -1.4970
11624WAT    EPW47218   5.286   4.354   6.734 -0.4618  0.3220 -1.0044
11625WAT      O47219   2.796   4.410   5.245 -0.1993 -0.0622 -0.1455
11625WAT     H147220   2.882   4.400   5.250 -0.1858 -0.6684 -1.2563
11625WAT     H247221   2.779   4.403   5.160 -1.2611  0.8270 -0.0323
11625WAT    EPW47222   2.806   4.407   5.233 -0.3541 -0.0204 -0.2929
11626WAT      O47223   4.281   2.850   4.286  0.0826 -0.1417 -0.1483
11626WAT     H147224   4.233   2.800   4.234  1.2770 -0.4785 -0.9730
11626WAT     H247225   4.247   2.930   4.276 -1.5957 -0.6769  0.8886
11626WAT    EPW47226   4.269   2.855   4.277  0.0111 -0.2705 -0.1169
11627WAT      O47227   2.484   0.789   4.017  0.3634 -0.4660 -0.2687
11627WAT     H147228   2.515   0.825   4.090  0.3031 -0.5409 -0.2053
11627WAT     H247229   2.551   0.744   3.985  0.1710 -1.0748  0.1560
11627WAT    EPW47230   2.498   0.788   4.023  0.3261 -0.5670 -0.1966
11628WAT      O47231   0.492   2.747   3.022 -0.1972 -0.0783 -0.3107
11628WAT     H147232   0.514   2.673   2.981 -0.5716  0.2096 -1.0316
11628WAT     H247233   0.405   2.746   3.021 -0.2058  0.2240 -0.0348
11628WAT    EPW47234   0.483   2.736   3.016 -0.2537  0.0089 -0.3765
11629WAT      O47235   4.818   2.333   1.539  0.3487 -0.0434 -0.3602
11629WAT     H147236   4.792   2.384   1.604  0.7743 -0.4656  0.1535
11629WAT     H247237   4.802   2.380   1.468 -3.1592 -0.7587 -0.2573
11629WAT    EPW47238   4.812   2.347   1.538 -0.1066 -0.2114 -0.2691
11630WAT      O47239   3.867   0.754   5.146 -0.0225 -0.0518  0.0699
11630WAT     H147240   3.916   0.703   5.199 -1.3784 -1.9834 -0.4415
11630WAT     H247241   3.820   0.696   5.101 -1.4298  1.6997 -0.7731
11630WAT    EPW47242   3.867   0.738   5.147 -0.4307 -0.0784 -0.1302
11631WAT      O47243   5.302   1.279   4.354 -0.6841 -0.2948 -0.3496
11631WAT     H147244   5.303   1.255   4.438 -0.3953  1.1525  0.0997
11631WAT     H247245   5.319   1.365   4.357 -1.1700 -0.1062 -1.8565
11631WAT    EPW47246   5.304   1.288   4.367 -0.7132 -0.0531 -0.5058
11632WAT      O47247   7.177   4.910   4.688 -0.2718  0.5796 -0.1907
11632WAT     H147248   7.162   4.989   4.721 -0.4212  1.1705 -1.5874
11632WAT     H247249   7.252   4.920   4.645 -1.0484  0.4115 -1.6619
11632WAT    EPW47250   7.186   4.923   4.687 -0.4086  0.6420 -0.6144
11633WAT      O47251   6.013   2.638   3.992 -0.5863  0.6391  0.4287
11633WAT     H147252   6.068   2.647   3.924  0.6348  0.5947  1.3656
11633WAT     H247253   5.964   2.570   3.970  0.1640  0.2728 -0.1787
11633WAT    EPW47254   6.014   2.629   3.978 -0.2951  0.5785  0.4774
11634WAT      O47255   2.973   0.480   2.705 -0.4735  0.3747  0.0246
11634WAT     H147256   2.907   0.536   2.695 -1.3231 -0.5520  0.1800
11634WAT     H247257   2.995   0.489   2.789 -3.1760 -2.1193  1.1887
11634WAT    EPW47258   2.967   0.489   2.716 -0.9983 -0.1306  0.2195
11635WAT      O47259   0.033   4.466   7.061 -0.3087 -0.3629  0.5415
11635WAT     H147260  -0.051   4.443   7.052 -0.7102  0.8896  0.8101
11635WAT     H247261   0.028   4.550   7.084  1.0127 -0.4268  1.1339
11635WAT    EPW47262   0.020   4.475   7.063 -0.1728 -0.1873  0.6687
11636WAT      O47263   1.586   5.627   5.415  0.3540  0.2705  0.2963
11636WAT     H147264   1.523   5.659   5.467  0.3954 -0.1598  0.6169
11636WAT     H247265   1.659   5.658   5.451  0.3148  1.1207 -0.3214
11636WAT    EPW47266   1.588   5.636   5.428  0.3543  0.3326  0.2524
11637WAT      O47267   5.639   5.025   4.720  0.3787  0.0850 -0.1546
11637WAT     H147268   5.687   4.982   4.661  1.8642 -0.8576  1.6579
11637WAT     H247269   5.685   5.019   4.793 -2.6632 -1.3279  1.8927
11637WAT    EPW47270   5.653   5.018   4.722  0.1488 -0.2630  0.4156
11638WAT      O47271   1.179   3.146   1.322 -0.8317 -0.0690  0.1436
11638WAT     H147272   1.225   3.104   1.383 -0.1975  0.2892 -0.0830
11638WAT     H247273   1.099   3.152   1.357 -0.5509 -0.1367  0.8061
11638WAT    EPW47274   1.174   3.141   1.336 -0.6965 -0.0261  0.2080
11639WAT      O47275   2.447   4.625   1.709 -0.8400 -0.0407 -0.0519
11639WAT     H147276   2.386   4.687   1.707  0.4083  1.2754  1.0360
11639WAT     H247277   2.449   4.601   1.793 -1.9154 -2.2483 -0.5906
11639WAT    EPW47278   2.438   4.631   1.721 -0.8144 -0.1724  0.0292
11640WAT      O47279   1.379   0.307   3.246 -0.4137 -0.1885 -0.2816
11640WAT     H147280   1.325   0.278   3.307 -0.1355 -0.5319 -0.1941
11640WAT     H247281   1.449   0.255   3.254  0.0025  0.3705 -0.2644
11640WAT    EPW47282   1.381   0.295   3.256 -0.3112 -0.1567 -0.2662
11641WAT      O47283   6.718   6.772   4.801  0.1111  0.0540 -0.0062
11641WAT     H147284   6.729   6.852   4.834 -1.1619 -0.6507  2.3649
11641WAT     H247285   6.796   6.753   4.767  0.7851  1.8384  0.4341
11641WAT    EPW47286   6.732   6.781   4.800  0.0226  0.2135  0.4091
11642WAT      O47287   5.121   4.606   2.398 -0.8867 -0.4501 -0.1403
11642WAT     H147288   5.144   4.691   2.400  0.3673 -0.7753  0.3201
11642WAT     H247289   5.036   4.608   2.378 -0.3166  0.8384 -2.9139
11642WAT    EPW47290   5.112   4.619   2.395 -0.6172 -0.3078 -0.4820
11643WAT      O47291   1.801   6.476   6.528  0.1331  0.0930 -0.5663
11643WAT     H147292   1.768   6.547   6.566  0.5405  0.3514 -0.6888
11643WAT     H247293   1.856   6.508   6.469  0.0845 -0.3203 -0.8423
11643WAT    EPW47294   1.804   6.491   6.525  0.1861  0.0701 -0.6252
11644WAT      O47295   5.465   3.522   1.576  0.0953 -0.1994 -0.0064
11644WAT     H147296   5.417   3.461   1.616  0.4104 -0.4501 -0.0065
11644WAT     H247297   5.540   3.481   1.559  2.0519  1.2927  3.8183
11644WAT    EPW47298   5.469   3.507   1.580  0.4309 -0.0160  0.5586
11645WAT      O47299   1.865   0.133   6.279  0.5061 -0.3913 -0.4414
11645WAT     H147300   1.862   0.140   6.366  0.9755  0.3565 -0.4725
11645WAT     H247301   1.950   0.123   6.262  0.6645  1.4631 -0.9238
11645WAT    EPW47302   1.877   0.133   6.290  0.5989 -0.0069 -0.5173
11646WAT      O47303   6.768   5.666   6.273 -0.3420 -0.5449 -0.5175
11646WAT     H147304   6.810   5.663   6.197 -0.4674  2.6158 -0.8471
11646WAT     H247305   6.685   5.649   6.252 -0.2237 -0.6239 -0.9296
11646WAT    EPW47306   6.762   5.663   6.259 -0.3430 -0.0897 -0.6271
11647WAT      O47307   7.249   2.930   0.863  0.0470 -0.1028 -0.1300
11647WAT     H147308   7.237   2.999   0.915  0.0976 -0.6315  0.5964
11647WAT     H247309   7.325   2.897   0.889 -0.4570 -1.0225  0.2385
11647WAT    EPW47310   7.258   2.935   0.874 -0.0200 -0.3168  0.0317
11648WAT      O47311   5.393   3.359   0.196 -0.4041 -0.0277 -0.2232
11648WAT     H147312   5.418   3.281   0.226  1.4637  0.9937  1.0416
11648WAT     H247313   5.353   3.396   0.263 -1.3836  0.0796 -0.8512
11648WAT    EPW47314   5.391   3.353   0.210 -0.2729  0.1390 -0.1292
11649WAT      O47315   1.311   4.202   6.211 -0.1763 -0.4268 -0.2023
11649WAT     H147316   1.313   4.133   6.264  1.3018 -0.1548  0.1249
11649WAT     H247317   1.292   4.268   6.264  0.8217 -0.2269 -0.0865
11649WAT    EPW47318   1.308   4.201   6.227  0.1894 -0.3571 -0.1369
11650WAT      O47319   3.753   4.115   6.669  0.3226  0.1041 -0.1599
11650WAT     H147320   3.835   4.132   6.646  0.2531 -0.4770 -0.8741
11650WAT     H247321   3.753   4.029   6.686 -0.0948  0.1354  0.0200
11650WAT    EPW47322   3.765   4.105   6.668  0.2507  0.0229 -0.2388
11651WAT      O47323   4.564   4.670   6.739  0.3441 -0.5459 -0.2634
11651WAT     H147324   4.641   4.636   6.716  0.4164 -0.3508 -0.3048
11651WAT     H247325   4.586   4.734   6.794  0.1449 -1.8645  1.4818
11651WAT    EPW47326   4.579   4.674   6.744  0.3254 -0.7119 -0.0117
11652WAT      O47327   0.855   5.337   2.669  0.4591  0.0150  0.2755
11652WAT     H147328   0.933   5.353   2.703  0.3805  0.9827  0.0461
11652WAT     H247329   0.801   5.384   2.719  0.2692  0.9531 -0.7485
11652WAT    EPW47330   0.858   5.347   2.681  0.4195  0.2965  0.0904
11653WAT      O47331   6.936   5.659   6.039  0.1325 -0.7096 -0.1258
11653WAT     H147332   6.926   5.589   5.987 -0.2741 -0.5917 -0.2040
11653WAT     H247333   7.022   5.657   6.058  0.1481 -1.1647 -0.2175
11653WAT    EPW47334   6.947   5.648   6.034  0.0747 -0.7594 -0.1509
11654WAT      O47335   2.669   4.561   5.689  0.1440 -0.0374  0.0922
11654WAT     H147336   2.669   4.588   5.606 -1.8826 -0.6189 -0.1511
11654WAT     H247337   2.598   4.598   5.723  0.8653  0.0841  1.5688
11654WAT    EPW47338   2.659   4.571   5.682 -0.0488 -0.1053  0.2744
11655WAT      O47339   2.066   4.525   2.014 -0.1890  0.2521  0.4344
11655WAT     H147340   2.138   4.476   2.014 -1.0537 -1.1572 -1.1959
11655WAT     H247341   2.072   4.571   1.940 -1.4395 -0.7430 -0.3348
11655WAT    EPW47342   2.078   4.524   2.003 -0.5015 -0.1031  0.0800
11656WAT      O47343   0.333   3.327   1.128 -0.0023  0.2083  0.3610
11656WAT     H147344   0.381   3.398   1.138 -0.5152  0.6456 -0.1797
11656WAT     H247345   0.365   3.291   1.055  1.2911 -0.9742  1.4657
11656WAT    EPW47346   0.345   3.332   1.118  0.1130  0.0983  0.4443
11657WAT      O47347   4.827   2.418   1.263 -0.1303 -0.2691  0.2590
11657WAT     H147348   4.783   2.493   1.271 -0.1405 -0.4174  1.7763
11657WAT     H247349   4.910   2.440   1.278 -0.0468 -0.4506  0.0735
11657WAT    EPW47350   4.833   2.432   1.266 -0.1195 -0.3178  0.4557
11658WAT      O47351   1.923   1.086   2.130 -0.6881 -0.0231  0.3248
11658WAT     H147352   1.961   1.064   2.054  2.2098  0.5231  1.5014
11658WAT     H247353   1.947   1.169   2.142  0.1402 -0.5086  2.4808
11658WAT    EPW47354   1.932   1.095   2.120 -0.1377 -0.0141  0.8171
11659WAT      O47355   4.817   0.275   5.538  0.0860 -0.5603  0.4577
11659WAT     H147356   4.827   0.233   5.462  1.4039 -1.3589  1.0301
11659WAT     H247357   4.756   0.335   5.521 -1.7627 -2.5778 -0.4346
11659WAT    EPW47358   4.810   0.278   5.524  0.0076 -0.9763  0.4104
11660WAT      O47359   6.475   1.935   2.538  0.1361 -0.0989 -0.0269
11660WAT     H147360   6.554   1.907   2.562  0.5175 -1.0674 -2.1301
11660WAT     H247361   6.484   1.947   2.452 -1.4265  1.8798  0.0287
11660WAT    EPW47362   6.488   1.932   2.529 -0.0384  0.0503 -0.3294
11661WAT      O47363   1.782   5.967   1.385  0.1745 -0.3984 -0.0308
11661WAT     H147364   1.844   6.001   1.334 -0.3037 -0.8225 -0.9155
11661WAT     H247365   1.714   6.021   1.375 -0.6806 -1.6760 -1.6546
11661WAT    EPW47366   1.781   5.980   1.376 -0.0225 -0.6497 -0.4013
11662WAT      O47367   7.314   6.011   5.910 -0.1366  0.1222 -0.3204
11662WAT     H147368   7.233   5.988   5.889  0.1200  0.1004 -1.3106
11662WAT     H247369   7.363   5.969   5.852  0.7179 -1.1603  1.2492
11662WAT    EPW47370   7.309   6.001   5.898  0.0275 -0.0705 -0.2348
11663WAT      O47371   4.387   1.222   7.179 -0.3138  0.3520 -0.1141
11663WAT     H147372   4.379   1.140   7.208 -0.4318  0.5289  0.3691
11663WAT     H247373   4.464   1.248   7.212  0.3283  0.0315 -1.3006
11663WAT    EPW47374   4.397   1.214   7.188 -0.2363  0.3308 -0.2180
11664WAT      O47375   3.743   2.357   3.258  0.6034 -0.5567  0.0721
11664WAT     H147376   3.803   2.415   3.234  0.0178  0.5504  1.1284
11664WAT     H247377   3.706   2.332   3.183 -0.2493  1.7131 -0.3421
11664WAT    EPW47378   3.747   2.362   3.244  0.3909 -0.0578  0.1669
11665WAT      O47379   4.854   7.226   0.753  0.1924  0.1146  0.2437
11665WAT     H147380   4.900   7.188   0.689  0.6061  2.2949 -0.8356
11665WAT     H247381   4.908   7.225   0.821  0.4664 -0.5156  0.0260
11665WAT    EPW47382   4.869   7.220   0.754  0.2940  0.3436  0.0521
11666WAT      O47383   0.923   0.585   4.701  0.5689  0.5595 -0.5098
11666WAT     H147384   0.998   0.559   4.665  0.0043  1.6961 -2.6466
11666WAT     H247385   0.898   0.515   4.748  2.1691 -0.3959 -1.0098
11666WAT    EPW47386   0.930   0.571   4.703  0.7219  0.5863 -0.8993
11667WAT      O47387   2.677   5.329   5.425  0.3268  0.3890 -0.1459
11667WAT     H147388   2.653   5.399   5.471  1.0688  2.2950 -2.4738
11667WAT     H247389   2.759   5.315   5.451  0.4387  0.8782 -0.2357
11667WAT    EPW47390   2.686   5.337   5.436  0.4529  0.7428 -0.5031
11668WAT      O47391   7.071   0.146   6.072 -0.0091 -0.6013 -0.5038
11668WAT     H147392   7.126   0.107   6.128 -0.5728 -2.1140 -0.9348
11668WAT     H247393   7.099   0.118   5.994  1.3107  2.1632 -1.1384
11668WAT    EPW47394   7.083   0.136   6.069  0.1026 -0.4164 -0.6612
11669WAT      O47395   2.343   2.886   6.560  0.4036 -0.5291 -0.1926
11669WAT     H147396   2.265   2.871   6.525  0.5329  0.3687 -0.8844
11669WAT     H247397   2.332   2.867   6.645 -0.6554 -0.0494 -0.2141
11669WAT    EPW47398   2.330   2.881   6.567  0.2663 -0.3256 -0.2980
11670WAT      O47399   0.096   6.354   3.782  0.1313 -0.1354 -0.2909
11670WAT     H147400   0.142   6.394   3.720  0.4024 -0.7603 -0.4980
11670WAT     H247401   0.034   6.311   3.738  1.5031 -2.1918 -0.3290
11670WAT    EPW47402   0.093   6.354   3.766  0.3740 -0.5315 -0.3271
11671WAT      O47403   2.336   6.437   0.054 -0.4331 -0.2045 -0.0949
11671WAT     H147404   2.265   6.479   0.026  0.0764  0.7907  0.0521
11671WAT     H247405   2.365   6.397  -0.018 -0.7763 -0.0667 -0.3140
11671WAT    EPW47406   2.330   6.438   0.039 -0.4085 -0.0371 -0.1056
11672WAT      O47407   5.758   3.309   5.883  0.0553  0.3071  0.2893
11672WAT     H147408   5.771   3.395   5.891 -1.3667  0.8446 -2.1262
11672WAT     H247409   5.673   3.300   5.898  0.3061 -0.8199  1.1673
11672WAT    EPW47410   5.747   3.320   5.886 -0.1177  0.2200  0.0621
11673WAT      O47411   4.843   2.735   6.838 -0.4671 -0.0727  0.1143
11673WAT     H147412   4.792   2.786   6.888 -0.5415  0.0898 -0.1263
11673WAT     H247413   4.917   2.729   6.884 -1.4795 -2.2501  1.6306
11673WAT    EPW47414   4.846   2.741   6.852 -0.6276 -0.3704  0.3027
11674WAT      O47415   7.016   0.656   3.100 -0.0386 -0.1257  0.1923
11674WAT     H147416   6.931   0.643   3.115  0.1892 -0.0968  1.6646
11674WAT     H247417   7.044   0.578   3.073 -0.6145 -0.0139 -0.7700
11674WAT    EPW47418   7.007   0.643   3.098 -0.0900 -0.1049  0.2676
11675WAT      O47419   4.546   3.814   5.600 -0.6355 -0.4833 -0.1353
11675WAT     H147420   4.568   3.897   5.617 -1.3694 -0.5146  1.0974
11675WAT     H247421   4.622   3.775   5.583 -0.3654  0.5980 -1.5238
11675WAT    EPW47422   4.560   3.820   5.600 -0.7040 -0.3282 -0.1583
11676WAT      O47423   3.804   6.510   1.170 -0.5166  0.5426 -0.0942
11676WAT     H147424   3.754   6.470   1.111 -1.6823 -0.0583  1.2407
11676WAT     H247425   3.876   6.460   1.173 -0.3389  0.7157 -1.1428
11676WAT    EPW47426   3.807   6.497   1.162 -0.6626  0.4794 -0.0519
11677WAT      O47427   7.220   6.691   1.244  0.1267  0.4077  0.2641
11677WAT     H147428   7.238   6.637   1.310  0.6737  0.2589 -0.0064
11677WAT     H247429   7.138   6.718   1.262  0.2901  0.4176  1.0262
11677WAT    EPW47430   7.210   6.687   1.256  0.2316  0.3872  0.3367
11678WAT      O47431   4.507   5.276   0.260  0.0129 -0.3663 -0.1162
11678WAT     H147432   4.424   5.298   0.275 -0.0746  0.8705 -1.9708
11678WAT     H247433   4.551   5.314   0.325 -0.7190  0.7233 -0.2194
11678WAT    EPW47434   4.502   5.285   0.272 -0.1081 -0.0226 -0.4054
11679WAT      O47435   1.751   2.425   3.645  0.6268  0.2132  0.3853
11679WAT     H147436   1.712   2.347   3.637  0.6318  0.2670 -0.1996
11679WAT     H247437   1.787   2.421   3.724 -2.3985  0.9820  1.9631
11679WAT    EPW47438   1.750   2.413   3.655  0.1806  0.3347  0.5320
11680WAT      O47439   4.605   6.905   5.563 -0.0225 -0.6341  0.0437
11680WAT     H147440   4.589   6.905   5.649  0.2054 -0.6460  0.0858
11680WAT     H247441   4.538   6.951   5.530  1.0676  1.3657  0.4524
11680WAT    EPW47442   4.593   6.912   5.571  0.1722 -0.3405  0.1103
11681WAT      O47443   5.850   6.894   4.273 -0.4382  0.0539 -0.0316
11681WAT     H147444   5.936   6.881   4.273 -0.4111  0.1635  0.6896
11681WAT     H247445   5.843   6.981   4.278 -0.5832  0.0160  0.4641
11681WAT    EPW47446   5.862   6.905   4.274 -0.4556  0.0645  0.1481
11682WAT      O47447   1.204   5.622   5.689 -0.0856  0.5544  0.3466
11682WAT     H147448   1.247   5.672   5.631  0.6523 -0.7024 -0.2462
11682WAT     H247449   1.251   5.630   5.762  0.7595 -0.2061 -0.0878
11682WAT    EPW47450   1.218   5.631   5.691  0.1482  0.2564  0.1949
11683WAT      O47451   3.727   4.421   6.589 -0.5608  0.4051  0.6539
11683WAT     H147452   3.680   4.467   6.532  0.1637 -0.9147 -1.0807
11683WAT     H247453   3.697   4.340   6.579  0.1369  0.0113  1.6121
11683WAT    EPW47454   3.715   4.416   6.579 -0.3507  0.1520  0.5392
11684WAT      O47455   4.753   0.410   4.192 -0.3897  0.6965 -0.6056
11684WAT     H147456   4.755   0.497   4.200 -0.7931  0.9106 -2.3978
11684WAT     H247457   4.765   0.397   4.106 -0.1239 -1.0326 -0.3413
11684WAT    EPW47458   4.755   0.421   4.180 -0.4100  0.4727 -0.8313
11685WAT      O47459   0.287   0.028   5.291 -0.7941 -0.1824 -0.2425
11685WAT     H147460   0.251   0.075   5.227 -0.7325 -0.1592 -0.2608
11685WAT     H247461   0.371   0.024   5.268 -0.8227 -0.4184 -0.3145
11685WAT    EPW47462   0.294   0.034   5.278 -0.7892 -0.2138 -0.2558
11686WAT      O47463   5.297   4.506   2.611  0.1203 -0.3524 -0.6763
11686WAT     H147464   5.368   4.522   2.564  0.3306  0.8647  0.0228
11686WAT     H247465   5.232   4.533   2.560  0.2483 -0.2859 -0.8048
11686WAT    EPW47466   5.298   4.512   2.597  0.1703 -0.1628 -0.5920
11687WAT      O47467   6.791   3.381   3.015  0.4151  0.2224 -0.5938
11687WAT     H147468   6.784   3.429   2.942  0.1980 -0.4179 -1.0045
11687WAT     H247469   6.710   3.349   3.026  0.8954 -1.2872 -1.2073
11687WAT    EPW47470   6.778   3.384   3.006  0.4540 -0.0952 -0.7451
11688WAT      O47471   1.563   0.844   1.256 -0.5155  0.1220  0.9461
11688WAT     H147472   1.508   0.839   1.324 -1.2118  0.6704  0.4372
11688WAT     H247473   1.539   0.917   1.215  0.1240 -0.0152  0.2966
11688WAT    EPW47474   1.551   0.854   1.260 -0.5239  0.1827  0.7750
11689WAT      O47475   0.638   4.584   7.265  0.1524  0.2809 -0.8019
11689WAT     H147476   0.591   4.639   7.314  1.5394  1.4034 -0.6784
11689WAT     H247477   0.690   4.544   7.322 -0.2846 -0.6154 -1.0005
11689WAT    EPW47478   0.639   4.586   7.280  0.2927  0.3143 -0.8130
11690WAT      O47479   5.323   1.681   5.541 -0.4855 -0.4741  0.6719
11690WAT     H147480   5.239   1.686   5.567 -1.3192  0.8184 -1.8730
11690WAT     H247481   5.343   1.598   5.554 -2.0346 -0.7564  1.6777
11690WAT    EPW47482   5.313   1.670   5.547 -0.8375 -0.3249  0.4446
11691WAT      O47483   1.148   0.721   1.563  0.0474 -0.0520 -0.2123
11691WAT     H147484   1.175   0.642   1.539 -2.8802 -1.4445  0.6512
11691WAT     H247485   1.081   0.737   1.510 -2.7629 -0.6126  2.8190
11691WAT    EPW47486   1.142   0.712   1.552 -0.8002 -0.3405  0.3630
11692WAT      O47487   0.467   5.136   5.179 -0.2246  0.3897 -0.0751
11692WAT     H147488   0.522   5.149   5.245  1.6483  0.1600 -1.5018
11692WAT     H247489   0.388   5.148   5.215  0.7515  1.1852  1.9543
11692WAT    EPW47490   0.464   5.140   5.194  0.1962  0.4733  0.0139
11693WAT      O47491   1.365   5.471   1.189  0.0803 -0.2319  0.4429
11693WAT     H147492   1.341   5.491   1.271 -0.7278 -1.1702  0.4596
11693WAT     H247493   1.354   5.384   1.186 -1.2961 -0.0446 -1.0946
11693WAT    EPW47494   1.359   5.461   1.201 -0.2424 -0.3428  0.2183
11694WAT      O47495   2.812   6.355   5.066 -0.1269  0.2709  0.4360
11694WAT     H147496   2.787   6.295   5.124 -2.7514 -0.2019 -0.9995
11694WAT     H247497   2.786   6.430   5.102  0.9614  0.3331  1.1428
11694WAT    EPW47498   2.804   6.357   5.080 -0.3538  0.2103  0.3283
11695WAT      O47499   1.115   3.887   6.714  0.0036 -0.3366 -0.1449
11695WAT     H147500   1.061   3.838   6.666  0.4345  0.9296 -2.0186
11695WAT     H247501   1.194   3.853   6.698  0.2812  0.7565 -1.3002
11695WAT    EPW47502   1.119   3.874   6.705  0.1083  0.0119 -0.5923
11696WAT      O47503   7.232   2.789   1.516 -0.6168  0.9243 -0.5430
11696WAT     H147504   7.294   2.734   1.489  1.0317  1.6226  1.5810
11696WAT     H247505   7.168   2.777   1.458  0.3331 -1.9459 -1.1621
11696WAT    EPW47506   7.232   2.779   1.503 -0.2330  0.6034 -0.3207
11697WAT      O47507   0.783   2.272   6.321 -0.1998  0.0874 -0.3055
11697WAT     H147508   0.696   2.268   6.329 -0.2592  1.0612 -0.2889
11697WAT     H247509   0.805   2.339   6.374  0.5283  0.0301 -0.5228
11697WAT    EPW47510   0.774   2.281   6.330 -0.1010  0.2227 -0.3352
11698WAT      O47511   5.801   3.484   4.799 -0.3331 -0.0977  0.3880
11698WAT     H147512   5.873   3.467   4.753 -0.6616  1.4150 -0.7860
11698WAT     H247513   5.831   3.511   4.876  0.4372  1.5122 -0.4281
11698WAT    EPW47514   5.816   3.485   4.804 -0.2678  0.3636  0.0940
11699WAT      O47515   3.467   2.209   6.392  0.0854 -0.2296  0.7510
11699WAT     H147516   3.411   2.174   6.336 -0.7041  0.4239  1.1087
11699WAT     H247517   3.542   2.169   6.374 -0.3716 -0.7274 -0.1043
11699WAT    EPW47518   3.470   2.198   6.381 -0.0987 -0.2066  0.6775
11700WAT      O47519   4.717   3.533   1.888  0.7126  0.0890  0.0368
11700WAT     H147520   4.722   3.524   1.801 -1.4030 -0.4936 -0.0858
11700WAT     H247521   4.667   3.604   1.899 -0.0115 -0.5136  0.7503
11700WAT    EPW47522   4.710   3.542   1.877  0.2932 -0.0861  0.1241
11701WAT      O47523   7.025   7.019   1.316  0.3946 -0.3966  0.1494
11701WAT     H147524   7.052   7.100   1.297 -0.2706  0.0078  0.8453
11701WAT     H247525   6.994   6.989   1.240  0.1457  0.2065  0.0077
11701WAT    EPW47526   7.025   7.027   1.302  0.2595 -0.2478  0.2312
11702WAT      O47527   6.969   5.134   4.507 -0.1840 -0.2173  0.2239
11702WAT     H147528   6.996   5.058   4.473 -1.7817 -0.2674 -1.0447
11702WAT     H247529   7.031   5.153   4.566  2.9414  0.0162 -2.8541
11702WAT    EPW47530   6.982   5.126   4.511  0.0416 -0.1902 -0.4181
11703WAT      O47531   1.268   1.073   0.887  0.4239 -0.7595  0.0051
11703WAT     H147532   1.265   1.147   0.933 -0.4031 -1.2554  0.7644
11703WAT     H247533   1.347   1.041   0.904  0.6331 -0.2621 -0.0092
11703WAT    EPW47534   1.279   1.080   0.896  0.3327 -0.7593  0.1151
11704WAT      O47535   6.993   2.794   6.620  0.1668 -0.2443 -0.4684
11704WAT     H147536   7.071   2.772   6.590  0.3808  1.1274 -1.0116
11704WAT     H247537   6.938   2.772   6.556  0.4576  1.3382 -1.3160
11704WAT    EPW47538   6.996   2.788   6.606  0.2414  0.1921 -0.6739
11705WAT      O47539   1.236   2.253   1.400 -0.1521 -0.4094  0.3310
11705WAT     H147540   1.164   2.215   1.369 -0.0779  0.1089 -0.5145
11705WAT     H247541   1.232   2.333   1.366  1.8116 -0.9642 -1.3395
11705WAT    EPW47542   1.225   2.260   1.391  0.1490 -0.4148 -0.0407
11706WAT      O47543   1.825   6.127   3.355 -0.5795 -0.0967  0.5393
11706WAT     H147544   1.822   6.197   3.407  0.7000 -0.0688  0.6002
11706WAT     H247545   1.798   6.157   3.278 -2.0654 -0.0401  1.0428
11706WAT    EPW47546   1.821   6.142   3.352 -0.6100 -0.0842  0.6227
11707WAT      O47547   0.534   4.935   7.064 -0.2836 -0.3513 -0.9579
11707WAT     H147548   0.582   4.922   7.136  0.4356 -1.4666 -1.6064
11707WAT     H247549   0.589   4.974   7.009 -1.5710  2.9999 -0.0708
11707WAT    EPW47550   0.549   4.938   7.066 -0.3675 -0.0210 -0.9227
11708WAT      O47551   3.185   2.508   1.542  0.1875 -0.5157 -0.3195
11708WAT     H147552   3.110   2.488   1.583 -0.5571  0.9553 -0.8608
11708WAT     H247553   3.234   2.541   1.606 -0.4346  0.4369 -0.3001
11708WAT    EPW47554   3.181   2.510   1.558 -0.0144 -0.1577 -0.3966
11709WAT      O47555   0.123   5.396   5.103 -0.0561 -0.0908  0.4146
11709WAT     H147556   0.074   5.467   5.093 -2.3189 -1.2543  2.1888
11709WAT     H247557   0.202   5.428   5.118 -0.1696  1.9003 -2.3672
11709WAT    EPW47558   0.127   5.411   5.104 -0.4071  0.0315  0.2658
11710WAT      O47559   0.723   3.736   6.373 -0.4836  0.4338 -0.4150
11710WAT     H147560   0.662   3.709   6.430  0.4183  1.1105  0.9215
11710WAT     H247561   0.703   3.820   6.360 -1.0844  0.1138 -1.6609
11710WAT    EPW47562   0.711   3.744   6.380 -0.4392  0.4865 -0.4016
11711WAT      O47563   2.148   2.488   7.172 -0.5041  0.0102  0.9118
11711WAT     H147564   2.109   2.412   7.191 -0.8786  0.0620  0.3830
11711WAT     H247565   2.100   2.519   7.106  0.3413  0.1466  0.3401
11711WAT    EPW47566   2.135   2.481   7.165 -0.4345  0.0380  0.7492
11712WAT      O47567   2.186   5.801   4.212  0.0421  0.6294  0.3505
11712WAT     H147568   2.252   5.852   4.236 -1.3193  1.5227  2.5131
11712WAT     H247569   2.188   5.736   4.269 -0.2033 -0.0219 -0.3630
11712WAT    EPW47570   2.196   5.799   4.224 -0.1952  0.6651  0.5646
11713WAT      O47571   0.755   3.776   2.140 -0.6933 -0.1688 -0.4758
11713WAT     H147572   0.836   3.809   2.129 -1.1259  0.8671 -0.6517
11713WAT     H247573   0.770   3.697   2.172  0.3768  0.7463  1.4553
11713WAT    EPW47574   0.770   3.770   2.143 -0.5991  0.1194 -0.2165
11714WAT      O47575   7.151   3.204   3.341  0.2738 -0.1335 -0.1512
11714WAT     H147576   7.134   3.259   3.276 -0.4643  0.0930  0.2225
11714WAT     H247577   7.153   3.256   3.411 -2.2505 -0.7426  0.4864
11714WAT    EPW47578   7.149   3.220   3.342 -0.2081 -0.1900 -0.0018
11715WAT      O47579   6.634   4.694   4.916  0.2360 -0.2615  0.6742
11715WAT     H147580   6.676   4.766   4.940 -0.5919 -0.0899  1.6599
11715WAT     H247581   6.558   4.725   4.886  0.8685 -0.5365 -1.3972
11715WAT    EPW47582   6.629   4.709   4.915  0.2071 -0.2768  0.5138
11716WAT      O47583   0.571   4.689   0.627 -0.3118  0.3439 -0.1276
11716WAT     H147584   0.514   4.654   0.683 -0.2465  0.0692 -0.2331
11716WAT     H247585   0.647   4.685   0.670  0.1779 -1.9358 -1.0731
11716WAT    EPW47586   0.574   4.683   0.642 -0.2298 -0.0335 -0.2829
11717WAT      O47587   7.030   2.290   5.094 -0.6213 -0.1041 -0.1931
11717WAT     H147588   6.980   2.221   5.112  0.4304 -0.8210  0.0418
11717WAT     H247589   7.104   2.274   5.137  0.5759 -0.0552 -2.1346
11717WAT    EPW47590   7.034   2.278   5.103 -0.2891 -0.2028 -0.4452
11718WAT      O47591   3.634   2.303   4.716  0.2021  1.2015  0.4797
11718WAT     H147592   3.565   2.355   4.714 -0.5784  0.4230 -4.2502
11718WAT     H247593   3.609   2.233   4.670  3.0946 -0.6975  1.4767
11718WAT    EPW47594   3.620   2.300   4.709  0.5141  0.8060 -0.0717
11719WAT      O47595   5.026   3.460   3.526  0.0951  0.7837 -0.0938
11719WAT     H147596   5.066   3.535   3.547  1.4626  0.1017 -0.1770
11719WAT     H247597   5.020   3.463   3.439  3.6263 -0.7969 -0.5553
11719WAT    EPW47598   5.031   3.472   3.516  0.8187  0.4495 -0.1742
11720WAT      O47599   5.099   4.987   3.377  0.3280  0.2805  0.3108
11720WAT     H147600   5.154   4.964   3.313  0.1252  0.7180 -0.0250
11720WAT     H247601   5.023   4.997   3.337 -0.6188 -2.6771  1.1327
11720WAT    EPW47602   5.096   4.985   3.362  0.1581 -0.0918  0.3826
11721WAT      O47603   1.485   6.738   7.085  0.2910  0.4579 -0.2378
11721WAT     H147604   1.492   6.709   7.003  2.7970  0.0767  0.0196
11721WAT     H247605   1.479   6.824   7.075 -0.5067  0.3450 -0.8329
11721WAT    EPW47606   1.485   6.746   7.071  0.5434  0.3849 -0.2877
11722WAT      O47607   2.121   6.201   3.937 -0.2015  0.1618 -0.8394
11722WAT     H147608   2.110   6.287   3.932  0.5787  0.2730 -0.7433
11722WAT     H247609   2.180   6.184   3.874 -1.0816 -0.4419 -1.5267
11722WAT    EPW47610   2.128   6.211   3.927 -0.2162  0.0890 -0.9267
11723WAT      O47611   3.779   0.154   2.315 -0.3074 -0.0308  0.3724
11723WAT     H147612   3.725   0.140   2.248  1.1955 -1.2624 -0.6606
11723WAT     H247613   3.762   0.236   2.339 -2.2326 -0.2150 -0.2466
11723WAT    EPW47614   3.769   0.164   2.309 -0.3698 -0.2400  0.1284
11724WAT      O47615   0.416   3.492   5.933 -0.4012  0.5924 -0.1100
11724WAT     H147616   0.332   3.472   5.923 -0.0259 -1.1734 -0.1274
11724WAT     H247617   0.415   3.558   5.991 -1.8757  2.0859 -1.7276
11724WAT    EPW47618   0.404   3.499   5.940 -0.5636  0.5522 -0.3515
11725WAT      O47619   6.937   2.691   2.790 -1.2724  0.0986 -0.3155
11725WAT     H147620   6.984   2.659   2.857  0.5314 -1.7223 -2.3072
11725WAT     H247621   6.906   2.766   2.822  1.3863  0.4600  1.8600
11725WAT    EPW47622   6.940   2.697   2.805 -0.6132 -0.1170 -0.2883
11726WAT      O47623   4.052   5.456   3.688 -0.3443 -0.2806 -0.2564
11726WAT     H147624   4.096   5.391   3.648 -1.5137 -0.3635 -1.4445
11726WAT     H247625   4.003   5.490   3.625  0.0649  1.6430  0.4077
11726WAT    EPW47626   4.052   5.451   3.673 -0.4566 -0.0087 -0.3338
11727WAT      O47627   3.501   3.159   6.721 -0.0546 -0.2250  0.3493
11727WAT     H147628   3.563   3.159   6.659 -0.7571  0.8947 -0.3795
11727WAT     H247629   3.432   3.124   6.681 -0.6068  0.7923  0.3737
11727WAT    EPW47630   3.500   3.154   6.706 -0.2400  0.0907  0.2452
11728WAT      O47631   2.858   6.090   0.728  0.4492 -0.3806  0.2512
11728WAT     H147632   2.907   6.020   0.743 -0.1406 -0.6848  0.8078
11728WAT     H247633   2.907   6.156   0.757  0.5375 -0.6800  0.8062
11728WAT    EPW47634   2.872   6.089   0.735  0.3752 -0.4698  0.4154
11729WAT      O47635   5.834   2.144   1.965 -0.3468  0.1407 -0.0426
11729WAT     H147636   5.862   2.187   2.035  1.5179 -0.3027 -0.4448
11729WAT     H247637   5.878   2.069   1.969 -1.4649 -0.5838 -0.8168
11729WAT    EPW47638   5.845   2.139   1.976 -0.2366 -0.0318 -0.2164
11730WAT      O47639   1.282   3.752   0.136 -0.7131 -0.4723  0.2914
11730WAT     H147640   1.331   3.696   0.183 -0.5010 -0.2335  0.3574
11730WAT     H247641   1.238   3.699   0.082 -0.4691 -0.7043  0.3119
11730WAT    EPW47642   1.283   3.736   0.135 -0.6457 -0.4713  0.3042
11731WAT      O47643   6.273   1.694   4.359  0.2519  0.1570  0.3159
11731WAT     H147644   6.275   1.774   4.394 -1.8130  1.1674 -1.6483
11731WAT     H247645   6.259   1.642   4.428  2.2747  1.3340  1.7270
11731WAT    EPW47646   6.271   1.698   4.374  0.2457  0.4801  0.2342
11732WAT      O47647   6.987   2.987   5.684  0.1223  0.5011 -0.4723
11732WAT     H147648   7.041   2.941   5.735  0.8106 -0.1701 -1.7384
11732WAT     H247649   7.041   3.022   5.624 -0.8834 -0.9063 -2.3129
11732WAT    EPW47650   7.003   2.985   5.683  0.0754  0.1940 -0.9313
11733WAT      O47651   6.530   3.747   5.170 -0.1098 -0.3228  0.0551
11733WAT     H147652   6.578   3.695   5.119 -0.0539 -0.2373  0.0192
11733WAT     H247653   6.493   3.692   5.227 -1.6028 -0.6607 -1.1722
11733WAT    EPW47654   6.532   3.731   5.171 -0.3221 -0.3601 -0.1315
11734WAT      O47655   0.821   0.340   7.303  0.0077 -0.2706  0.2940
11734WAT     H147656   0.790   0.286   7.242  0.0137 -0.7949  0.7449
11734WAT     H247657   0.882   0.293   7.343 -0.0281  0.0512  0.7362
11734WAT    EPW47658   0.826   0.325   7.300  0.0033 -0.3005  0.4259
11735WAT      O47659   5.616   6.706   6.898 -0.3645 -0.7143  0.1402
11735WAT     H147660   5.698   6.726   6.878  0.7176 -3.4231  1.3758
11735WAT     H247661   5.599   6.635   6.850 -1.4969 -0.9476  0.8302
11735WAT    EPW47662   5.625   6.698   6.888 -0.3719 -1.1489  0.4247
11736WAT      O47663   0.359   0.444   0.871 -0.1070  0.4764  0.0746
11736WAT     H147664   0.371   0.424   0.787 -0.8884  2.1083 -0.4651
11736WAT     H247665   0.409   0.386   0.913  1.7263  0.7639 -1.5814
11736WAT    EPW47666   0.368   0.432   0.865  0.0484  0.7600 -0.2497
11737WAT      O47667   0.013   2.137   1.666  0.0814  0.1389 -0.2312
11737WAT     H147668   0.089   2.125   1.624 -0.2061  1.5444 -1.2060
11737WAT     H247669  -0.007   2.220   1.649 -1.7087 -0.2146 -0.0165
11737WAT    EPW47670   0.021   2.147   1.658 -0.2255  0.2943 -0.3435
11738WAT      O47671   6.713   4.899   6.066 -0.1910  0.0944 -0.5396
11738WAT     H147672   6.706   4.962   6.126  2.3394  1.3378 -1.4348
11738WAT     H247673   6.794   4.909   6.035 -0.4836 -2.2301 -2.2761
11738WAT    EPW47674   6.724   4.910   6.071  0.1396 -0.0653 -0.9283
11739WAT      O47675   4.803   1.113   6.869 -0.1235  0.3830 -0.3661
11739WAT     H147676   4.816   1.041   6.917  1.9250 -1.1374 -2.9738
11739WAT     H247677   4.725   1.100   6.833 -0.3936  0.1829  0.2733
11739WAT    EPW47678   4.793   1.100   6.871  0.1392  0.1288 -0.6569
11740WAT      O47679   0.085   1.097   5.077 -0.8651  0.1673  0.5692
11740WAT     H147680   0.077   1.088   4.991 -0.5453  1.4230  0.3766
11740WAT     H247681   0.052   1.023   5.109  2.5047 -2.1623 -0.7237
11740WAT    EPW47682   0.079   1.085   5.069 -0.3200  0.0087  0.3498
11741WAT      O47683   0.195   7.007   4.510  0.2076  0.3743 -0.1178
11741WAT     H147684   0.252   6.994   4.445  1.0250  0.7469  0.4994
11741WAT     H247685   0.117   7.002   4.471  0.4989 -2.9316 -0.5287
11741WAT    EPW47686   0.192   7.004   4.494  0.3713 -0.0590 -0.0873
11742WAT      O47687   4.507   2.049   6.825 -0.0055 -0.1534  0.1476
11742WAT     H147688   4.536   2.023   6.903  0.1033 -1.3065 -0.2570
11742WAT     H247689   4.576   2.041   6.773 -0.6186 -1.5078 -0.5125
11742WAT    EPW47690   4.521   2.044   6.829 -0.0800 -0.5238 -0.0096
11743WAT      O47691   4.264   0.787   4.832 -0.2144  0.1836 -0.0136
11743WAT     H147692   4.190   0.742   4.836 -0.0263 -0.2315 -0.9104
11743WAT     H247693   4.252   0.842   4.766 -0.5000  1.5981  1.1771
11743WAT    EPW47694   4.251   0.788   4.823 -0.2288  0.3312  0.0298
11744WAT      O47695   2.659   1.805   6.690  0.6923 -0.0026  0.5336
11744WAT     H147696   2.706   1.821   6.618  1.8097 -1.7910  0.8031
11744WAT     H247697   2.708   1.748   6.734 -0.6861 -0.1368  1.9808
11744WAT    EPW47698   2.673   1.799   6.686  0.6537 -0.2866  0.7872
11745WAT      O47699   6.554   5.691   4.358 -0.1719  0.5997 -0.5363
11745WAT     H147700   6.534   5.750   4.418  0.9871 -0.2947  0.7848
11745WAT     H247701   6.499   5.709   4.292  0.2134  3.1591 -0.2328
11745WAT    EPW47702   6.543   5.702   4.357  0.0562  0.8457 -0.2963
11746WAT      O47703   6.155   5.159   3.086  0.1410  0.0986  0.0140
11746WAT     H147704   6.104   5.218   3.125 -0.4028 -0.7412  0.5975
11746WAT     H247705   6.174   5.103   3.149 -1.0106 -1.4684 -0.9658
11746WAT    EPW47706   6.151   5.160   3.101 -0.1094 -0.2569 -0.0446
11747WAT      O47707   7.034   0.589   2.613  0.1110  0.0685 -0.0972
11747WAT     H147708   7.028   0.509   2.648 -0.1401  0.1813  0.1114
11747WAT     H247709   7.076   0.635   2.674 -1.2788  0.5429  0.5190
11747WAT    EPW47710   7.039   0.584   2.627 -0.1314  0.1552  0.0246
11748WAT      O47711   5.911   4.848   6.443  0.0271 -0.1194 -0.1540
11748WAT     H147712   5.988   4.812   6.424  0.2305 -0.4345  1.1165
11748WAT     H247713   5.857   4.780   6.446  0.5067 -0.5351  2.7418
11748WAT    EPW47714   5.914   4.833   6.441  0.1280 -0.2273  0.4615
11749WAT      O47715   5.040   0.215   0.091 -0.4182 -0.1117  0.3608
11749WAT     H147716   5.072   0.275   0.147 -0.2412  0.7132 -0.6057
11749WAT     H247717   5.111   0.168   0.069 -0.5537 -0.6952  1.1030
11749WAT    EPW47718   5.056   0.217   0.096 -0.4120 -0.0760  0.3277
11750WAT      O47719   6.790   2.191   7.385  0.1051 -0.0650 -0.1008
11750WAT     H147720   6.818   2.191   7.302 -1.6621 -1.5948 -0.7767
11750WAT     H247721   6.832   2.123   7.420  0.0935 -0.0345 -0.0293
11750WAT    EPW47722   6.801   2.181   7.378 -0.1576 -0.2865 -0.1901
11751WAT      O47723   6.284   2.725   2.114  0.0838 -0.3422 -0.8682
11751WAT     H147724   6.274   2.755   2.196  1.3210  0.1268 -0.8687
11751WAT     H247725   6.248   2.788   2.065  1.9492  0.8102 -0.8243
11751WAT    EPW47726   6.277   2.739   2.119  0.5421 -0.1027 -0.8618
11752WAT      O47727   2.872   5.850   1.438 -0.2630  0.3080 -0.3872
11752WAT     H147728   2.941   5.900   1.418 -0.2646  1.0528  1.3032
11752WAT     H247729   2.908   5.773   1.460 -0.1434  0.0675 -1.3577
11752WAT    EPW47730   2.888   5.846   1.438 -0.2455  0.3825 -0.2809
11753WAT      O47731   0.897   2.496   0.890  0.2838 -0.6199  0.8778
11753WAT     H147732   0.824   2.449   0.878  0.6130 -0.7038 -1.2110
11753WAT     H247733   0.870   2.578   0.878  0.4240 -0.6000  0.7055
11753WAT    EPW47734   0.882   2.501   0.887  0.3532 -0.6294  0.5438
11754WAT      O47735   2.341   0.436   4.160 -0.3040  0.6527 -0.5597
11754WAT     H147736   2.426   0.444   4.181 -0.1588  0.0548 -0.9176
11754WAT     H247737   2.301   0.434   4.238  0.2114 -1.3193 -0.3044
11754WAT    EPW47738   2.348   0.437   4.175 -0.2064  0.2731 -0.5748
11755WAT      O47739   0.501   4.931   4.719 -0.0797  0.1209 -0.0310
11755WAT     H147740   0.445   4.950   4.783  0.0981 -1.2756  0.5821
11755WAT     H247741   0.506   4.844   4.722  0.5043  0.0884 -1.4686
11755WAT    EPW47742   0.493   4.921   4.729  0.0329 -0.0902 -0.1528
11756WAT      O47743   2.090   6.535   2.628 -0.0756  0.3731  0.2098
11756WAT     H147744   2.102   6.620   2.613 -0.4364  0.5696  0.9638
11756WAT     H247745   2.167   6.509   2.661 -0.2653  0.6296  0.8718
11756WAT    EPW47746   2.103   6.544   2.631 -0.1569  0.4401  0.4190
11757WAT      O47747   2.603   6.837   2.745  0.2404  0.2687 -0.1407
11757WAT     H147748   2.669   6.845   2.689 -0.4219 -0.7973 -1.1256
11757WAT     H247749   2.578   6.919   2.760 -0.3822  0.5523 -2.4329
11757WAT    EPW47750   2.609   6.850   2.739  0.0506  0.1531 -0.6248
11758WAT      O47751   0.840   1.991   4.599 -0.1181 -0.1275 -0.4741
11758WAT     H147752   0.916   2.017   4.565 -0.9092  0.6443 -1.7349
11758WAT     H247753   0.784   1.996   4.532 -0.5872 -4.3195 -0.6662
11758WAT    EPW47754   0.843   1.996   4.584 -0.3043 -0.6328 -0.6887
11759WAT      O47755   1.745   4.429   6.840 -0.6921 -0.2442  0.1211
11759WAT     H147756   1.706   4.354   6.818 -2.9227  1.4579 -2.2833
11759WAT     H247757   1.807   4.438   6.781 -0.4828 -0.1351  0.3547
11759WAT    EPW47758   1.748   4.419   6.828 -0.9907  0.0233 -0.1995
11760WAT      O47759   4.483   0.705   1.262  0.2190 -0.2996  0.1381
11760WAT     H147760   4.539   0.698   1.328  1.0959 -2.9653 -0.7674
11760WAT     H247761   4.515   0.651   1.202 -2.1427 -0.2298 -1.2999
11760WAT    EPW47762   4.496   0.696   1.263 -0.0004 -0.6830 -0.2081
11761WAT      O47763   1.524   5.087   2.582 -0.1041  0.3926  0.0983
11761WAT     H147764   1.530   5.076   2.669 -0.5619 -0.2890  0.0505
11761WAT     H247765   1.550   5.169   2.570 -0.0791  0.5088  0.8893
11761WAT    EPW47766   1.529   5.097   2.593 -0.1680  0.3091  0.2081
11762WAT      O47767   6.729   3.506   2.315 -0.0542  0.0912 -0.2102
11762WAT     H147768   6.779   3.576   2.305 -1.4367  1.1655  0.0479
11762WAT     H247769   6.719   3.500   2.402  0.4130 -0.7170 -0.1965
11762WAT    EPW47770   6.735   3.515   2.327 -0.1894  0.1305 -0.1701
11763WAT      O47771   0.789   5.574   2.013  0.6930  0.3988  0.0709
11763WAT     H147772   0.729   5.638   2.009  1.7818  1.4035 -2.7012
11763WAT     H247773   0.829   5.588   2.090 -2.5063 -0.3436  2.0507
11763WAT    EPW47774   0.786   5.586   2.024  0.3812  0.4376 -0.0461
11764WAT      O47775   3.284   1.043   2.883  0.0972  0.2636  0.4609
11764WAT     H147776   3.269   1.110   2.936  0.0432  2.4357 -2.1143
11764WAT     H247777   3.354   1.067   2.838 -0.6417 -0.8177 -1.3731
11764WAT    EPW47778   3.292   1.056   2.884 -0.0199  0.4247 -0.1904
11765WAT      O47779   0.150   6.024   1.216  0.5751 -0.4073  0.1675
11765WAT     H147780   0.233   6.036   1.193  0.4917 -0.9787 -0.4789
11765WAT     H247781   0.129   5.949   1.177 -0.6278  0.3608 -0.7234
11765WAT    EPW47782   0.159   6.014   1.207  0.3851 -0.3783 -0.0596
11766WAT      O47783   3.069   6.911   3.480  0.0962  0.4330 -0.7001
11766WAT     H147784   3.138   6.903   3.533  0.9241 -2.0642 -1.9947
11766WAT     H247785   3.001   6.915   3.535  0.7959 -3.3305  0.7185
11766WAT    EPW47786   3.069   6.910   3.496  0.3219 -0.4918 -0.6818
11767WAT      O47787   4.486   6.380   1.837 -0.2325  0.0834  0.1654
11767WAT     H147788   4.546   6.422   1.789 -1.1577  0.2767 -0.8867
11767WAT     H247789   4.455   6.319   1.783 -0.3266 -0.6354  1.0064
11767WAT    EPW47790   4.490   6.378   1.822 -0.3831  0.0058  0.1342
11768WAT      O47791   6.914   3.531   2.811 -0.6282 -0.3017  0.1448
11768WAT     H147792   6.993   3.513   2.844 -0.7736  0.0839  0.7232
11768WAT     H247793   6.915   3.618   2.803 -0.5979 -0.3937 -0.8820
11768WAT    EPW47794   6.925   3.541   2.815 -0.6452 -0.2583  0.0786
11769WAT      O47795   2.263   0.811   1.877 -0.2347 -0.2871  0.1541
11769WAT     H147796   2.334   0.831   1.923  0.6577 -1.0504 -0.8397
11769WAT     H247797   2.199   0.811   1.936  0.8233 -0.9630  1.3368
11769WAT    EPW47798   2.264   0.814   1.892  0.0535 -0.4997  0.1820
11770WAT      O47799   7.249   3.815   0.861  0.5007  0.6645  0.1974
11770WAT     H147800   7.288   3.873   0.809 -0.5151 -0.3127 -1.7866
11770WAT     H247801   7.172   3.852   0.881  0.6393  0.7847  0.5170
11770WAT    EPW47802   7.243   3.829   0.856  0.3711  0.5379 -0.0485
11771WAT      O47803   4.309   6.640   1.091  0.0770  0.4727 -0.8373
11771WAT     H147804   4.276   6.698   1.036  0.1760 -0.5933 -2.0693
11771WAT     H247805   4.258   6.570   1.081 -0.6599  0.6161  1.3504
11771WAT    EPW47806   4.297   6.638   1.081 -0.0172  0.3364 -0.6961
11772WAT      O47807   6.474   2.414   4.535  0.1427  0.0750 -1.0160
11772WAT     H147808   6.460   2.499   4.551 -0.8693 -0.4354  1.2357
11772WAT     H247809   6.542   2.414   4.480  0.6768  2.3054 -0.4441
11772WAT    EPW47810   6.482   2.427   4.529  0.0721  0.3290 -0.5989
11773WAT      O47811   5.576   3.245   6.421 -0.4089  0.3876 -0.2620
11773WAT     H147812   5.633   3.179   6.414 -1.1056 -0.1931 -0.6474
11773WAT     H247813   5.533   3.228   6.495 -0.4381  0.5302 -0.2455
11773WAT    EPW47814   5.578   3.233   6.431 -0.5161  0.3229 -0.3165
11774WAT      O47815   3.380   0.734   2.825  0.2394  0.3664  0.5804
11774WAT     H147816   3.411   0.741   2.907  0.3352 -0.2011  0.5937
11774WAT     H247817   3.382   0.649   2.810 -1.3782  0.2990  0.5912
11774WAT    EPW47818   3.385   0.723   2.835  0.0146  0.2726  0.5840
11775WAT      O47819   3.959   5.921   4.712  0.4679  0.2658 -0.2384
11775WAT     H147820   3.993   5.898   4.788  0.5197 -0.7237 -0.5514
11775WAT     H247821   3.984   5.857   4.657  1.0031  1.2878 -1.2437
11775WAT    EPW47822   3.968   5.908   4.715  0.5546  0.2706 -0.4331
11776WAT      O47823   1.480   5.764   0.301  0.6536  0.2067 -0.0333
11776WAT     H147824   1.457   5.759   0.385  1.4578  0.4549  0.2097
11776WAT     H247825   1.547   5.709   0.295 -1.2728 -2.2232 -1.2265
11776WAT    EPW47826   1.486   5.755   0.312  0.4878 -0.1156 -0.1737
11777WAT      O47827   5.920   6.716   6.844 -0.2071 -0.0433  0.2191
11777WAT     H147828   5.943   6.714   6.928  0.8843  1.7497  0.0195
11777WAT     H247829   5.965   6.650   6.808  0.8554  0.3910  0.7196
11777WAT    EPW47830   5.930   6.706   6.851  0.1110  0.2857  0.2636
11778WAT      O47831   6.363   6.539   4.674  0.8669  0.1449 -0.0634
11778WAT     H147832   6.398   6.476   4.724  2.0322  0.1338 -0.8514
11778WAT     H247833   6.400   6.612   4.704  1.5666  0.1384 -0.8863
11778WAT    EPW47834   6.373   6.540   4.686  1.1424  0.1423 -0.3013
11779WAT      O47835   4.162   3.745   7.200  0.5626 -0.7562 -0.1476
11779WAT     H147836   4.147   3.774   7.118 -0.7152  1.7231  0.8434
11779WAT     H247837   4.086   3.709   7.222  0.8374 -1.2280  0.0233
11779WAT    EPW47838   4.149   3.744   7.191  0.4144 -0.4596  0.0240
11780WAT      O47839   7.245   1.654   3.551 -0.4250 -0.3408 -0.2122
11780WAT     H147840   7.220   1.606   3.619 -0.0139 -2.9636 -1.7711
11780WAT     H247841   7.176   1.705   3.535 -1.2926 -1.1321  0.8970
11780WAT    EPW47842   7.231   1.655   3.559 -0.4924 -0.8451 -0.2786
11781WAT      O47843   1.968   3.254   4.366 -0.2172  0.1160  0.1658
11781WAT     H147844   1.896   3.244   4.318 -0.0697  0.4779 -0.1389
11781WAT     H247845   2.018   3.185   4.343 -0.9989 -0.8844  1.3701
11781WAT    EPW47846   1.965   3.242   4.355 -0.3109  0.0216  0.2987
11782WAT      O47847   1.985   6.748   1.355  0.3652  0.2822 -0.1601
11782WAT     H147848   1.993   6.834   1.342  0.6513  0.0526 -1.7453
11782WAT     H247849   1.916   6.742   1.408 -0.9636  1.4188 -1.6730
11782WAT    EPW47850   1.976   6.760   1.361  0.2112  0.4162 -0.6177
11783WAT      O47851   5.954   4.527   2.772 -0.1561  0.4945 -0.1922
11783WAT     H147852   6.012   4.471   2.739 -0.1250  0.7334 -0.5466
11783WAT     H247853   5.926   4.487   2.845  0.2117  0.2331 -0.1930
11783WAT    EPW47854   5.958   4.513   2.778 -0.0972  0.4912 -0.2446
11784WAT      O47855   4.968   6.087   4.265  0.1398  0.1353  0.4107
11784WAT     H147856   5.000   6.168   4.271  0.3228  0.1535 -0.7530
11784WAT     H247857   5.039   6.038   4.255 -0.0620 -0.0094 -0.3725
11784WAT    EPW47858   4.983   6.092   4.265  0.1370  0.1166  0.1231
11785WAT      O47859   5.687   2.495   6.305 -0.0525 -0.8235 -0.3064
11785WAT     H147860   5.696   2.433   6.366  1.7264 -1.3818 -1.0485
11785WAT     H247861   5.684   2.569   6.351 -3.0845 -1.4207  0.6510
11785WAT    EPW47862   5.688   2.496   6.320 -0.2376 -0.9942 -0.2746
11786WAT      O47863   0.690   1.811   5.860  0.2971 -0.3753 -0.3275
11786WAT     H147864   0.659   1.885   5.825  2.9081  0.4060 -1.1605
11786WAT     H247865   0.699   1.831   5.945  0.9528  0.2730 -0.5414
11786WAT    EPW47866   0.687   1.825   5.867  0.7797 -0.1641 -0.4821
11787WAT      O47867   2.813   1.603   4.457 -0.5078  0.2957 -0.3422
11787WAT     H147868   2.864   1.618   4.526 -2.8509  1.4474  1.2507
11787WAT     H247869   2.869   1.606   4.390  1.8298 -0.6500  1.4239
11787WAT    EPW47870   2.829   1.606   4.457 -0.5086  0.3261  0.1540
11788WAT      O47871   4.919   0.796   1.258 -0.0316  0.2287 -0.1515
11788WAT     H147872   4.838   0.809   1.228  0.1149 -1.6496 -1.5481
11788WAT     H247873   4.946   0.726   1.214  1.6397 -0.4072  1.7531
11788WAT    EPW47874   4.911   0.788   1.247  0.2369 -0.1427 -0.0765
11789WAT      O47875   2.155   1.132   3.858 -0.1267  0.6689  0.5237
11789WAT     H147876   2.109   1.118   3.785 -0.5455  2.0328  0.4938
11789WAT     H247877   2.093   1.134   3.921 -0.0740  1.9495  0.5599
11789WAT    EPW47878   2.139   1.130   3.857 -0.1808  1.0595  0.5246
11790WAT      O47879   3.935   3.933   5.975 -0.7757  0.3421 -0.4323
11790WAT     H147880   3.851   3.929   5.952 -0.9196 -1.8555  0.2750
11790WAT     H247881   3.961   3.850   5.970  1.0806  0.8390  0.3876
11790WAT    EPW47882   3.926   3.920   5.971 -0.5227  0.0909 -0.2067
11791WAT      O47883   5.496   6.883   7.277 -0.1702  0.0192 -0.2633
11791WAT     H147884   5.487   6.928   7.203 -0.3898 -0.5902 -0.6094
11791WAT     H247885   5.520   6.804   7.251 -0.5368 -0.2868  0.2973
11791WAT    EPW47886   5.498   6.878   7.262 -0.2568 -0.1160 -0.2316
11792WAT      O47887   6.815   2.754   7.086  0.5773 -0.1857  0.6198
11792WAT     H147888   6.862   2.746   7.013  0.0840 -0.9808  0.3781
11792WAT     H247889   6.742   2.793   7.061 -0.6395 -2.5344  0.1702
11792WAT    EPW47890   6.811   2.758   7.072  0.3247 -0.6501  0.5177
11793WAT      O47891   7.231   4.485   6.415 -0.2195  0.0423 -0.4456
11793WAT     H147892   7.294   4.474   6.354 -1.0546 -0.8039 -1.1742
11793WAT     H247893   7.202   4.404   6.430 -1.3957  0.4569 -0.4014
11793WAT    EPW47894   7.236   4.472   6.408 -0.5166 -0.0214 -0.5467
11794WAT      O47895   0.950   5.055   7.149 -0.6052  0.0475 -0.0667
11794WAT     H147896   0.984   4.975   7.162 -0.6891 -0.1043 -0.7608
11794WAT     H247897   0.983   5.102   7.215  0.0360 -0.3822 -0.0748
11794WAT    EPW47898   0.960   5.050   7.161 -0.5229 -0.0384 -0.1705
11795WAT      O47899   0.097   1.213   7.210 -0.0266 -1.2465 -0.0629
11795WAT     H147900   0.082   1.143   7.260  1.4317 -2.3425 -1.0377
11795WAT     H247901   0.179   1.236   7.230 -0.0498 -0.6009 -0.6487
11795WAT    EPW47902   0.107   1.206   7.220  0.1854 -1.3130 -0.2934
11796WAT      O47903   5.921   5.139   3.445 -0.1093 -0.1375 -0.0134
11796WAT     H147904   5.857   5.086   3.419  0.4028 -1.4060  1.1761
11796WAT     H247905   5.993   5.096   3.421  0.3436  1.4525 -1.6877
11796WAT    EPW47906   5.922   5.125   3.438  0.0332 -0.0900 -0.0850
11797WAT      O47907   0.042   2.221   4.123 -0.3941 -0.1194 -0.1043
11797WAT     H147908   0.106   2.279   4.134  0.4481 -0.8475 -0.8866
11797WAT     H247909  -0.022   2.267   4.086  0.7285  0.1054 -1.9334
11797WAT    EPW47910   0.042   2.236   4.119 -0.1039 -0.1938 -0.4901
11798WAT      O47911   6.134   1.813   2.866 -0.2585 -0.2879  0.7181
11798WAT     H147912   6.052   1.819   2.839 -0.6898 -1.3747  1.7091
11798WAT     H247913   6.138   1.867   2.934 -0.5480 -1.2810  1.5346
11798WAT    EPW47914   6.123   1.822   2.872 -0.3650 -0.5952  0.9851
11799WAT      O47915   4.742   2.787   2.791 -0.0848  0.2098 -0.1597
11799WAT     H147916   4.656   2.777   2.795 -0.1525  1.0362  1.1088
11799WAT     H247917   4.754   2.835   2.719 -0.6594 -0.0548 -0.4359
11799WAT    EPW47918   4.731   2.792   2.781 -0.1797  0.2928 -0.0131
11800WAT      O47919   0.957   2.396   5.052  0.3401 -0.2819 -0.6555
11800WAT     H147920   0.938   2.352   4.979 -0.5592 -1.1622  0.0761
11800WAT     H247921   1.043   2.386   5.060  0.3124 -0.9541 -1.1200
11800WAT    EPW47922   0.967   2.388   5.043  0.2032 -0.5113 -0.6161
11801WAT      O47923   0.278   5.621   4.104 -0.6297  0.0911  0.0414
11801WAT     H147924   0.287   5.612   4.190  0.8991 -1.2178 -0.1917
11801WAT     H247925   0.192   5.631   4.092 -0.8283  0.6210  1.7235
11801WAT    EPW47926   0.267   5.621   4.115 -0.4332 -0.0240  0.2555
11802WAT      O47927   2.231   0.752   5.581 -0.4810 -0.2823 -0.3358
11802WAT     H147928   2.208   0.835   5.589 -0.8992 -0.3213 -1.0493
11802WAT     H247929   2.294   0.754   5.520 -0.5882 -0.5004 -0.4555
11802WAT    EPW47930   2.237   0.764   5.573 -0.5586 -0.3203 -0.4589
11803WAT      O47931   6.488   0.243   1.852  0.4236  0.4717 -0.2271
11803WAT     H147932   6.487   0.170   1.805 -2.3122 -0.3784  0.9766
11803WAT     H247933   6.467   0.216   1.932  1.6789  2.3056  0.8075
11803WAT    EPW47934   6.485   0.228   1.857  0.2049  0.6170  0.1035
11804WAT      O47935   1.092   6.803   0.218  0.5459  0.0064 -0.7916
11804WAT     H147936   1.043   6.782   0.287  1.5251 -0.9608 -0.3481
11804WAT     H247937   1.042   6.857   0.172 -0.0217  0.9364  0.8405
11804WAT    EPW47938   1.078   6.807   0.221  0.6067  0.0009 -0.4850
11805WAT      O47939   0.502   0.695   1.538  0.4198  0.1395  0.1140
11805WAT     H147940   0.581   0.732   1.545  0.6948 -0.2665 -0.6909
11805WAT     H247941   0.495   0.679   1.453 -0.7103  0.5412  0.1184
11805WAT    EPW47942   0.513   0.698   1.527  0.2935  0.1389 -0.0042
11806WAT      O47943   3.959   6.316   6.561  0.0801 -0.1309 -0.0852
11806WAT     H147944   3.919   6.310   6.639 -0.4441 -0.9046 -0.3987
11806WAT     H247945   4.004   6.242   6.556 -0.9513 -0.7277 -1.0808
11806WAT    EPW47946   3.960   6.304   6.572 -0.1497 -0.3334 -0.2786
11807WAT      O47947   4.038   6.164   4.580  0.0784  0.6653  0.1862
11807WAT     H147948   4.010   6.104   4.636  2.6615 -0.4762  0.3858
11807WAT     H247949   4.035   6.238   4.626 -1.0298  0.3314  0.6801
11807WAT    EPW47950   4.034   6.166   4.595  0.2963  0.4474  0.2887
11808WAT      O47951   0.605   6.068   4.021 -0.0106 -0.2294  0.4119
11808WAT     H147952   0.538   6.016   3.998 -0.1752 -0.6341  1.7308
11808WAT     H247953   0.656   6.015   4.068  0.4265  0.5025  0.7678
11808WAT    EPW47954   0.603   6.052   4.025  0.0297 -0.1810  0.6593
11809WAT      O47955   1.053   2.252   3.488 -0.2224  0.2117 -0.0971
11809WAT     H147956   1.112   2.192   3.510  0.3138  0.5432 -0.5890
11809WAT     H247957   1.071   2.268   3.404 -1.0987  0.2249 -0.2874
11809WAT    EPW47958   1.065   2.246   3.479 -0.2726  0.2626 -0.1978
11810WAT      O47959   0.916   1.796   1.742  0.7672  0.6391  0.3901
11810WAT     H147960   0.851   1.751   1.705  1.2139  0.5641 -0.3241
11810WAT     H247961   0.943   1.743   1.805  0.9743  0.1005 -0.1409
11810WAT    EPW47962   0.910   1.781   1.746  0.8638  0.5485  0.2062
11811WAT      O47963   4.954   3.515   4.553  0.6060 -0.5107  0.1776
11811WAT     H147964   4.982   3.595   4.532  1.2764 -0.9961 -0.8705
11811WAT     H247965   5.028   3.470   4.564  0.2746 -1.4670 -1.2127
11811WAT    EPW47966   4.969   3.520   4.552  0.6561 -0.7237 -0.1826
11812WAT      O47967   0.005   5.565   6.540  0.3245 -0.3041 -0.2142
11812WAT     H147968   0.029   5.519   6.469 -0.4851 -0.3011 -0.4960
11812WAT     H247969  -0.051   5.623   6.508 -0.4058 -0.6019  0.4987
11812WAT    EPW47970  -0.000   5.567   6.525  0.0970 -0.3476 -0.1505
11813WAT      O47971   1.425   4.914   4.156 -0.7969  1.0691  0.1188
11813WAT     H147972   1.511   4.917   4.173 -0.4951  3.2051 -1.3820
11813WAT     H247973   1.389   4.901   4.234  0.9040 -0.9130  0.6570
11813WAT    EPW47974   1.433   4.913   4.170 -0.5011  1.0919 -0.0234
11814WAT      O47975   7.259   1.906   2.415  0.5589 -0.2233 -0.0411
11814WAT     H147976   7.344   1.900   2.432  0.7424 -1.5700 -1.1932
11814WAT     H247977   7.251   1.870   2.336 -0.9288  0.9485 -0.4789
11814WAT    EPW47978   7.270   1.899   2.406  0.3662 -0.2491 -0.2760
11815WAT      O47979   2.764   4.338   6.935  0.0279 -0.2067  0.0231
11815WAT     H147980   2.771   4.258   6.971  0.1018  0.2159  0.9726
11815WAT     H247981   2.686   4.366   6.962 -0.0018  0.0366 -0.3143
11815WAT    EPW47982   2.753   4.330   6.945  0.0344 -0.1083  0.1135
11816WAT      O47983   6.101   3.696   4.784 -0.1423  0.4470  0.0253
11816WAT     H147984   6.029   3.688   4.833  0.3323 -0.4957  0.6025
11816WAT     H247985   6.163   3.663   4.834  0.0384 -2.6500 -1.9823
11816WAT    EPW47986   6.099   3.690   4.798 -0.0455 -0.1498 -0.1860
11817WAT      O47987   2.626   3.362   6.735 -0.0252 -0.7757 -0.1265
11817WAT     H147988   2.700   3.362   6.689  0.1064 -0.4585  0.0886
11817WAT     H247989   2.579   3.426   6.698 -0.3683 -1.2603 -0.5456
11817WAT    EPW47990   2.630   3.371   6.723 -0.0565 -0.8004 -0.1566
11818WAT      O47991   3.471   0.920   6.381 -0.2000 -0.1465  0.0792
11818WAT     H147992   3.436   0.959   6.312  1.0094 -0.3001 -0.6586
11818WAT     H247993   3.519   0.855   6.347  0.2863 -0.3414  1.0649
11818WAT    EPW47994   3.473   0.916   6.366  0.0505 -0.1980  0.1158
11819WAT      O47995   2.376   1.909   4.190 -0.3334 -0.3020 -0.3212
11819WAT     H147996   2.320   1.932   4.127 -0.8647  1.9117  0.8809
11819WAT     H247997   2.336   1.841   4.228 -1.3337  0.1081 -0.6199
11819WAT    EPW47998   2.362   1.902   4.187 -0.5596  0.0856 -0.1877
11820WAT      O47999   6.213   1.751   2.326 -0.1831 -0.3418 -0.6528
11820WAT     H148000   6.256   1.687   2.366  0.5998  0.5450 -0.0361
11820WAT     H248001   6.190   1.716   2.250  0.6154 -1.2032 -0.5116
11820WAT    EPW48002   6.216   1.737   2.321  0.0505 -0.3380 -0.5408
11821WAT      O48003   4.686   3.578   2.275  0.0838 -0.3871  0.3061
11821WAT     H148004   4.654   3.654   2.245 -0.7118 -0.2789  1.3430
11821WAT     H248005   4.711   3.598   2.356 -1.4395 -1.5176  1.1134
11821WAT    EPW48006   4.685   3.592   2.282 -0.2588 -0.5381  0.5785
11822WAT      O48007   7.080   1.275   2.633 -0.3747  0.1167 -0.4602
11822WAT     H148008   7.147   1.327   2.614  0.9869 -0.8470  1.3793
11822WAT     H248009   7.012   1.316   2.597  0.8911  2.1853 -0.6905
11822WAT    EPW48010   7.080   1.289   2.625  0.0134  0.2799 -0.2225
11823WAT      O48011   6.940   1.179   6.746 -0.1825 -0.1492 -0.2333
11823WAT     H148012   6.956   1.224   6.674 -2.5886  1.9093  0.3814
11823WAT     H248013   6.969   1.099   6.727  3.7819  1.3696 -1.5865
11823WAT    EPW48014   6.947   1.174   6.733  0.0477  0.3792 -0.3424
11824WAT      O48015   1.278   1.149   4.213 -0.0992 -0.2067  0.0405
11824WAT     H148016   1.272   1.219   4.160 -0.4133 -0.8944 -0.8661
11824WAT     H248017   1.226   1.091   4.174 -1.0620 -0.4442  1.6145
11824WAT    EPW48018   1.269   1.151   4.199 -0.2878 -0.3434  0.1391
11825WAT      O48019   0.954   4.699   5.732  0.7891 -0.2873 -1.0914
11825WAT     H148020   0.939   4.701   5.818  1.0375 -1.6957 -0.9997
11825WAT     H248021   0.951   4.784   5.709  1.4778  0.1814  0.4241
11825WAT    EPW48022   0.951   4.712   5.742  0.9276 -0.4261 -0.8540
11826WAT      O48023   6.618   4.017   6.448  0.0055  0.7127 -0.1337
11826WAT     H148024   6.605   3.936   6.476  1.0709  1.2078  2.0542
11826WAT     H248025   6.630   4.062   6.521 -0.3991  2.8411 -1.2854
11826WAT    EPW48026   6.618   4.012   6.463  0.1031  1.1003  0.0193
11827WAT      O48027   6.268   3.724   3.713 -0.1497  0.0175  0.1996
11827WAT     H148028   6.291   3.719   3.797  0.3247 -1.2504  0.0172
11827WAT     H248029   6.325   3.780   3.679 -0.7900  1.0958  0.8474
11827WAT    EPW48030   6.279   3.732   3.720 -0.1742 -0.0105  0.2683
11828WAT      O48031   2.702   3.800   5.382 -0.1113 -0.7428  0.1439
11828WAT     H148032   2.756   3.836   5.441 -0.6105  2.9302 -1.3773
11828WAT     H248033   2.624   3.802   5.421 -0.1839  0.2206 -0.0246
11828WAT    EPW48034   2.699   3.805   5.396 -0.1958 -0.0579 -0.1057
11829WAT      O48035   0.300   0.158   6.286 -0.5878 -0.6038 -0.6019
11829WAT     H148036   0.293   0.178   6.371  1.9184  0.0923 -0.4589
11829WAT     H248037   0.312   0.072   6.286  1.3959 -0.3849  0.0103
11829WAT    EPW48038   0.301   0.148   6.299  0.0754 -0.4686 -0.4904
11830WAT      O48039   5.937   1.122   4.336 -0.1406  0.1880  0.2619
11830WAT     H148040   5.999   1.095   4.281  0.8686 -1.7981  2.2233
11830WAT     H248041   5.866   1.078   4.309  0.2910 -0.6063  0.3798
11830WAT    EPW48042   5.936   1.111   4.324  0.0722 -0.2227  0.5691
11831WAT      O48043   2.089   5.022   1.724 -0.0224 -0.6148 -0.2821
11831WAT     H148044   2.058   5.090   1.680 -1.5105 -0.7269  0.5370
11831WAT     H248045   2.026   4.962   1.718  0.3480 -1.1514  0.7709
11831WAT    EPW48046   2.075   5.023   1.717 -0.1875 -0.7106 -0.0055
11832WAT      O48047   1.565   2.311   6.500 -0.8167  0.2948 -0.2386
11832WAT     H148048   1.624   2.256   6.466 -2.2374  0.6263 -3.5411
11832WAT     H248049   1.494   2.262   6.510 -0.9386  0.6369  0.7186
11832WAT    EPW48050   1.563   2.296   6.497 -1.0446  0.3943 -0.5850
11833WAT      O48051   1.132   2.419   0.548  0.7980  0.1629 -0.2189
11833WAT     H148052   1.110   2.351   0.599 -0.7490  2.9445  3.2167
11833WAT     H248053   1.060   2.433   0.501  0.9129 -0.2127 -0.5098
11833WAT    EPW48054   1.118   2.411   0.549  0.5864  0.5183  0.2457
11834WAT      O48055   0.168   6.415   6.435 -0.2794  0.0755  0.0926
11834WAT     H148056   0.160   6.359   6.502 -0.1723  1.9237  1.7431
11834WAT     H248057   0.086   6.437   6.416 -0.2490  1.4196  1.3464
11834WAT    EPW48058   0.155   6.410   6.442 -0.2591  0.5471  0.5216
11835WAT      O48059   3.546   5.468   0.907  0.3789 -0.8821 -0.1243
11835WAT     H148060   3.496   5.407   0.945  0.8590 -1.1379  0.1113
11835WAT     H248061   3.558   5.437   0.826 -0.5728 -0.3805 -0.4685
11835WAT    EPW48062   3.541   5.454   0.901  0.3092 -0.8458 -0.1403
11836WAT      O48063   2.411   6.472   4.125  0.3090 -0.5102  0.2537
11836WAT     H148064   2.480   6.467   4.178  0.1325 -1.0709  0.4325
11836WAT     H248065   2.446   6.472   4.045  0.5409 -0.2766  0.3546
11836WAT    EPW48066   2.426   6.471   4.121  0.3172 -0.5585  0.2950
11837WAT      O48067   1.937   0.570   3.159  0.5001  0.0186  0.2612
11837WAT     H148068   1.903   0.492   3.142  1.1355 -0.6386  1.8866
11837WAT     H248069   1.981   0.589   3.086 -1.3533 -0.1471 -0.9751
11837WAT    EPW48070   1.939   0.562   3.145  0.3202 -0.1029  0.3187
11838WAT      O48071   2.816   4.834   1.025  0.1796 -0.2496 -0.3999
11838WAT     H148072   2.733   4.839   0.997 -0.0950  1.6833  0.5898
11838WAT     H248073   2.840   4.917   1.034  2.4362 -0.7619 -1.1315
11838WAT    EPW48074   2.807   4.847   1.022  0.4724 -0.0398 -0.3618
11839WAT      O48075   3.065   3.920   3.076 -0.1357 -0.0344  0.1911
11839WAT     H148076   2.989   3.885   3.101 -0.2582  0.8958  1.2064
11839WAT     H248077   3.049   3.948   2.996 -1.0361  0.5998  0.5725
11839WAT    EPW48078   3.051   3.919   3.068 -0.2868  0.1967  0.3974
11840WAT      O48079   2.953   1.283   1.242 -0.2439 -0.6543 -0.6423
11840WAT     H148080   2.970   1.366   1.260  2.3292 -1.3819  0.9812
11840WAT     H248081   3.014   1.261   1.184 -0.8874 -1.3915 -1.0585
11840WAT    EPW48082   2.964   1.292   1.236  0.0412 -0.8707 -0.4639
11841WAT      O48083   4.689   0.027   5.640  0.1918 -0.0301  0.4103
11841WAT     H148084   4.707   0.102   5.599  0.8981 -0.9248 -1.0104
11841WAT     H248085   4.614   0.001   5.604  0.0331 -0.0737  0.7758
11841WAT    EPW48086   4.681   0.034   5.629  0.2727 -0.1687  0.2544
11842WAT      O48087   6.923   6.224   6.619 -0.2431  0.6142 -0.0606
11842WAT     H148088   6.846   6.194   6.592 -0.2731  0.5454  0.1059
11842WAT     H248089   6.921   6.308   6.599  0.7896  0.1013 -2.8482
11842WAT    EPW48090   6.912   6.232   6.612 -0.0950  0.5283 -0.4478
11843WAT      O48091   1.572   5.484   2.838  0.1380 -0.3687  0.5516
11843WAT     H148092   1.556   5.503   2.922  2.4037  1.5194  0.6718
11843WAT     H248093   1.657   5.465   2.837  0.4442  0.7857 -1.4482
11843WAT    EPW48094   1.582   5.484   2.850  0.5179  0.0807  0.2740
11844WAT      O48095   4.706   4.588   5.064 -0.3292  0.1518 -0.6138
11844WAT     H148096   4.697   4.583   4.977  0.8663  1.3514 -0.8370
11844WAT     H248097   4.638   4.636   5.089 -0.0322  0.8254 -1.0555
11844WAT    EPW48098   4.695   4.594   5.054 -0.1087  0.4285 -0.7120
11845WAT      O48099   1.165   1.807   5.122  0.5318 -0.0944  0.2643
11845WAT     H148100   1.142   1.814   5.038  0.3697 -0.9478  0.2299
11845WAT     H248101   1.165   1.890   5.150 -1.0985  0.0714 -0.1283
11845WAT    EPW48102   1.162   1.820   5.113  0.2671 -0.1960  0.2012
11846WAT      O48103   0.488   1.465   5.139 -0.1179 -0.4400 -0.3820
11846WAT     H148104   0.472   1.431   5.060  0.2012 -0.4089 -0.4630
11846WAT     H248105   0.448   1.410   5.193  1.2583 -1.5556 -0.4370
11846WAT    EPW48106   0.480   1.452   5.135  0.1325 -0.6002 -0.4021
11847WAT      O48107   2.816   2.104   5.402 -0.0635  0.5594  0.2921
11847WAT     H148108   2.849   2.039   5.451 -0.6329 -1.1073 -1.3977
11847WAT     H248109   2.730   2.099   5.416 -0.2227  0.1482 -0.7196
11847WAT    EPW48110   2.808   2.094   5.411 -0.1711  0.2524 -0.1070
11848WAT      O48111   6.429   1.331   6.312  0.5048  0.0491  0.4542
11848WAT     H148112   6.429   1.248   6.284 -1.2049 -0.2851  1.3122
11848WAT     H248113   6.512   1.357   6.298  0.9446 -1.6116 -0.3338
11848WAT    EPW48114   6.442   1.323   6.306  0.3172 -0.2456  0.4645
11849WAT      O48115   6.743   1.721   4.172  0.9291  0.6247  0.1389
11849WAT     H148116   6.783   1.656   4.214 -4.7224 -1.9834  2.6330
11849WAT     H248117   6.740   1.785   4.231  0.5344  0.3527  0.4248
11849WAT    EPW48118   6.748   1.721   4.187  0.0360  0.1992  0.5496
11850WAT      O48119   2.210   4.763   4.234 -0.6222  0.4997 -0.2551
11850WAT     H148120   2.255   4.745   4.307 -1.1298  0.8753  0.1554
11850WAT     H248121   2.226   4.694   4.183  1.0764  0.9868 -0.4556
11850WAT    EPW48122   2.219   4.750   4.237 -0.4463  0.6272 -0.2241
11851WAT      O48123   0.662   4.932   7.309 -0.0965 -0.1214 -0.2058
11851WAT     H148124   0.644   5.000   7.360 -0.3094 -2.5164  3.2289
11851WAT     H248125   0.748   4.937   7.297  0.4443 -0.7514  2.6711
11851WAT    EPW48126   0.672   4.942   7.314 -0.0481 -0.5682  0.7266
11852WAT      O48127   5.607   6.046   2.607 -0.5319 -0.7573  0.5319
11852WAT     H148128   5.544   6.046   2.547  0.7441  0.2852 -0.8806
11852WAT     H248129   5.635   5.964   2.608 -0.0037 -0.6114 -0.9541
11852WAT    EPW48130   5.602   6.034   2.598 -0.2654 -0.5817  0.1037
11853WAT      O48131   0.919   6.981   2.310  0.7556  0.5475 -0.0290
11853WAT     H148132   0.883   6.959   2.233  0.4581  0.3448  0.1672
11853WAT     H248133   0.857   7.028   2.348  0.8278  0.4795  0.1704
11853WAT    EPW48134   0.905   6.985   2.304  0.7224  0.5075  0.0294
11854WAT      O48135   4.866   1.658   2.460  0.1966 -0.0640 -0.0591
11854WAT     H148136   4.892   1.584   2.423 -0.8318 -0.9955  0.9967
11854WAT     H248137   4.938   1.707   2.461  1.4028 -1.7462  0.9043
11854WAT    EPW48138   4.880   1.655   2.454  0.2229 -0.4501  0.2392
11855WAT      O48139   4.924   3.300   2.487 -0.2468  0.4432 -0.4711
11855WAT     H148140   4.863   3.362   2.490 -0.7189 -0.0610  0.7231
11855WAT     H248141   4.955   3.297   2.568 -0.7673 -1.3796 -0.2949
11855WAT    EPW48142   4.920   3.308   2.499 -0.3934  0.0995 -0.2687
11856WAT      O48143   7.173   2.680   0.566 -0.4343  0.4314 -0.1276
11856WAT     H148144   7.148   2.742   0.622 -1.7485 -0.4432  0.2916
11856WAT     H248145   7.127   2.698   0.494 -1.9716 -0.8863  0.4786
11856WAT    EPW48146   7.162   2.692   0.563 -0.8555  0.1075  0.0239
11857WAT      O48147   2.258   0.952   0.576  0.1928 -0.2974  0.2789
11857WAT     H148148   2.201   0.997   0.624 -0.3593 -0.0806 -0.5582
11857WAT     H248149   2.257   0.873   0.613 -1.1126 -0.4710 -0.0719
11857WAT    EPW48150   2.249   0.947   0.588 -0.0816 -0.2910  0.1034
11858WAT      O48151   2.818   4.083   3.196  0.4632  0.1331  0.5836
11858WAT     H148152   2.886   4.118   3.156  0.1518  0.7637  0.5855
11858WAT     H248153   2.826   3.998   3.181  1.1161  0.2267  0.3871
11858WAT    EPW48154   2.829   4.076   3.188  0.5136  0.2401  0.5549
11859WAT      O48155   3.889   7.225   3.568 -0.2658 -0.3160 -0.6529
11859WAT     H148156   3.854   7.267   3.500  0.6037 -2.1260 -2.3447
11859WAT     H248157   3.850   7.147   3.566 -0.9139 -0.1004  1.5725
11859WAT    EPW48158   3.878   7.219   3.558 -0.2331 -0.5516 -0.5741
11860WAT      O48159   5.887   0.109   3.620 -0.4815  0.2204 -0.4334
11860WAT     H148160   5.914   0.121   3.702 -1.7990  1.5997 -0.1557
11860WAT     H248161   5.847   0.032   3.622 -2.0492  1.0226  0.6917
11860WAT    EPW48162   5.885   0.099   3.632 -0.9077  0.5427 -0.2262
11861WAT      O48163   1.390   6.652   6.782 -0.1282 -0.1380 -0.0657
11861WAT     H148164   1.318   6.688   6.749 -2.3102 -1.8687  2.3618
11861WAT     H248165   1.379   6.567   6.768  1.4389 -0.4541  0.4208
11861WAT    EPW48166   1.378   6.645   6.775 -0.2190 -0.4404  0.3648
11862WAT      O48167   2.371   1.718   6.666 -0.9822  0.2839 -0.7123
11862WAT     H148168   2.445   1.760   6.684  0.1649 -2.2600  1.0492
11862WAT     H248169   2.316   1.743   6.729 -1.2596  1.1680 -1.2745
11862WAT    EPW48170   2.374   1.728   6.678 -0.8537  0.0387 -0.5351
11863WAT      O48171   5.785   3.029   0.117  0.0130 -0.4873 -0.2158
11863WAT     H148172   5.750   2.998   0.191 -1.5886  1.6262  0.0056
11863WAT     H248173   5.803   2.957   0.071  0.2082 -1.8360  1.8269
11863WAT    EPW48174   5.783   3.014   0.121 -0.1948 -0.3743  0.1187
11864WAT      O48175   0.780   5.007   4.743 -0.0964  0.2803 -0.6325
11864WAT     H148176   0.801   4.999   4.827 -0.3308 -0.8368 -0.6622
11864WAT     H248177   0.697   4.981   4.740 -0.2398  0.7673 -1.1444
11864WAT    EPW48178   0.771   5.002   4.755 -0.1522  0.1872 -0.7125
11865WAT      O48179   4.994   7.037   4.197 -0.0408  0.4595  0.1345
11865WAT     H148180   5.038   7.111   4.210 -1.4722  1.1107  1.8103
11865WAT     H248181   4.982   7.007   4.278 -1.2141 -0.5422 -0.3796
11865WAT    EPW48182   4.999   7.044   4.211 -0.4255  0.4077  0.3061
11866WAT      O48183   1.477   2.680   0.681 -0.1918  0.5351 -0.8467
11866WAT     H148184   1.466   2.610   0.731 -1.4317  1.7902  0.7341
11866WAT     H248185   1.396   2.706   0.662  0.2143  1.7941 -1.0061
11866WAT    EPW48186   1.463   2.674   0.685 -0.3149  0.9065 -0.6367
11867WAT      O48187   7.214   0.509   2.413 -0.3288 -0.2719 -0.0307
11867WAT     H148188   7.250   0.581   2.380 -2.2183 -0.2514 -2.3271
11867WAT     H248189   7.184   0.534   2.491  0.1510  1.0558 -0.2443
11867WAT    EPW48190   7.215   0.523   2.420 -0.5370 -0.0728 -0.4015
11868WAT      O48191   5.209   1.132   4.620 -0.0109  0.3993 -1.1386
11868WAT     H148192   5.172   1.201   4.660  1.0198  0.4138 -0.1493
11868WAT     H248193   5.216   1.074   4.684  1.9309  0.5125 -1.1966
11868WAT    EPW48194   5.205   1.134   4.635  0.4282  0.4182 -1.0010
11869WAT      O48195   0.012   0.669   3.603 -0.5145 -0.2309  0.0364
11869WAT     H148196   0.057   0.629   3.665 -0.4754  1.3890  1.1106
11869WAT     H248197  -0.059   0.700   3.644 -2.2622 -1.9909 -1.4305
11869WAT    EPW48198   0.008   0.668   3.618 -0.7669 -0.2516 -0.0216
11870WAT      O48199   0.464   5.451   3.488  0.2204 -0.3139 -0.1697
11870WAT     H148200   0.395   5.504   3.482  0.7475  0.2900 -1.1087
11870WAT     H248201   0.478   5.426   3.406  2.0107  0.7629 -0.2369
11870WAT    EPW48202   0.456   5.455   3.475  0.5627 -0.0656 -0.3183
11871WAT      O48203   1.416   1.708   4.801  0.1132  0.0762 -0.0408
11871WAT     H148204   1.401   1.623   4.814  0.1503  0.0465 -0.1886
11871WAT     H248205   1.463   1.710   4.727  1.3415  0.1326  0.7201
11871WAT    EPW48206   1.421   1.696   4.792  0.3001  0.0802  0.0498
11872WAT      O48207   2.594   1.794   3.609 -0.1305  0.4126 -0.2899
11872WAT     H148208   2.624   1.732   3.556 -0.8418 -0.9881  0.8869
11872WAT     H248209   2.644   1.787   3.680 -0.4149  0.9736 -0.0222
11872WAT    EPW48210   2.606   1.784   3.612 -0.2776  0.2885 -0.0765
11873WAT      O48211   2.935   2.632   5.077  0.0742 -0.5601  0.1801
11873WAT     H148212   2.890   2.706   5.079  0.2122 -0.3717 -1.5195
11873WAT     H248213   3.016   2.658   5.055  0.1072 -1.2048 -0.5131
11873WAT    EPW48214   2.940   2.646   5.074  0.0995 -0.6275 -0.1734
11874WAT      O48215   3.396   1.656   6.833 -0.0433  0.5871  0.0990
11874WAT     H148216   3.443   1.725   6.806  0.0048  1.2010  1.6332
11874WAT     H248217   3.426   1.591   6.784 -0.5497  1.7502 -1.8692
11874WAT    EPW48218   3.408   1.657   6.822 -0.1110  0.8496  0.0349
11875WAT      O48219   6.860   6.488   0.514  0.0375  0.4264  0.0460
11875WAT     H148220   6.931   6.437   0.513  0.1510  0.5786  0.3698
11875WAT     H248221   6.886   6.559   0.557 -0.5314  0.1590  0.8637
11875WAT    EPW48222   6.874   6.491   0.520 -0.0298  0.4094  0.2146
11876WAT      O48223   3.325   5.472   1.299  0.6859  0.2994 -0.3693
11876WAT     H148224   3.334   5.469   1.385 -3.7827 -0.0171  0.3068
11876WAT     H248225   3.286   5.396   1.279  1.0662  0.6027 -2.6164
11876WAT    EPW48226   3.321   5.460   1.309  0.0820  0.2974 -0.6014
11877WAT      O48227   0.627   7.254   5.278  0.1581  0.1593  0.0183
11877WAT     H148228   0.610   7.328   5.322  0.7799 -0.1613  0.8072
11877WAT     H248229   0.659   7.201   5.338 -0.4725 -0.8410 -0.5035
11877WAT    EPW48230   0.629   7.257   5.293  0.1568 -0.0358  0.0578
11878WAT      O48231   4.207   1.821   2.763  0.2606 -0.3057  0.8289
11878WAT     H148232   4.229   1.804   2.680  0.3711 -4.1363  1.4579
11878WAT     H248233   4.256   1.890   2.783  0.4909  0.5609 -2.1205
11878WAT    EPW48234   4.217   1.829   2.753  0.3109 -0.7436  0.4861
11879WAT      O48235   1.374   6.637   0.777 -0.1272 -0.1995  0.1713
11879WAT     H148236   1.370   6.688   0.847  1.4113 -2.8896  2.4369
11879WAT     H248237   1.314   6.576   0.792 -1.0206  0.1161 -1.7939
11879WAT    EPW48238   1.365   6.635   0.789 -0.0319 -0.5503  0.2157
11880WAT      O48239   2.597   2.479   3.507 -0.6433  0.3680  0.2947
11880WAT     H148240   2.570   2.499   3.427 -1.2940  2.2184  0.9174
11880WAT     H248241   2.628   2.555   3.538  1.6746 -0.7837  1.0325
11880WAT    EPW48242   2.598   2.493   3.500 -0.3970  0.4712  0.4957
11881WAT      O48243   1.460   1.253   2.405 -0.1946 -0.1210 -0.2893
11881WAT     H148244   1.524   1.195   2.416 -0.2826  0.0185  1.2273
11881WAT     H248245   1.437   1.244   2.321  1.1558 -0.8407 -0.6004
11881WAT    EPW48246   1.466   1.243   2.394 -0.0081 -0.2067 -0.1112
11882WAT      O48247   0.893   5.022   6.061  0.2735  0.0879  0.2693
11882WAT     H148248   0.950   4.996   6.000 -0.2681 -1.3719  0.3471
11882WAT     H248249   0.925   5.099   6.087  1.3559  0.0229 -0.7688
11882WAT    EPW48250   0.906   5.029   6.056  0.3534 -0.1373  0.1275
11883WAT      O48251   3.824   0.050   0.477 -0.2497 -0.1958 -0.0033
11883WAT     H148252   3.778  -0.021   0.499 -2.3196  1.2625  0.7979
11883WAT     H248253   3.870   0.067   0.549  0.0399 -0.5770 -0.0986
11883WAT    EPW48254   3.824   0.042   0.491 -0.5127 -0.0367  0.1009
11884WAT      O48255   7.166   6.415   6.881 -0.7412 -0.6093  0.2526
11884WAT     H148256   7.174   6.438   6.965 -0.4565 -1.4132  0.4507
11884WAT     H248257   7.108   6.350   6.883  0.6296 -1.9058  0.0781
11884WAT    EPW48258   7.159   6.409   6.894 -0.4966 -0.9195  0.2561
11885WAT      O48259   6.317   5.381   1.638 -0.0630 -0.2932 -0.1031
11885WAT     H148260   6.238   5.353   1.663 -0.0601  1.1037  1.6669
11885WAT     H248261   6.303   5.413   1.558 -0.9294 -1.4803 -0.4487
11885WAT    EPW48262   6.303   5.382   1.630 -0.1905 -0.2622  0.1073
11886WAT      O48263   6.401   5.724   0.366  0.3037 -0.2663 -0.4860
11886WAT     H148264   6.325   5.689   0.393  0.2771 -2.2358 -2.7517
11886WAT     H248265   6.460   5.672   0.403  0.3425 -1.3160 -1.9241
11886WAT    EPW48266   6.398   5.711   0.376  0.3055 -0.7123 -1.0331
11887WAT      O48267   1.169   3.959   1.664 -0.1834  0.3393  0.7245
11887WAT     H148268   1.223   3.973   1.597 -2.7352  1.1989 -1.3435
11887WAT     H248269   1.117   4.029   1.664 -1.4767 -0.5315  2.4086
11887WAT    EPW48270   1.169   3.971   1.654 -0.7514  0.3377  0.6678
11888WAT      O48271   0.740   1.801   2.179 -0.7277  0.4929  0.0623
11888WAT     H148272   0.689   1.827   2.244  0.8810  0.7811  1.2610
11888WAT     H248273   0.776   1.727   2.209 -1.1517 -0.2370 -1.1513
11888WAT    EPW48274   0.738   1.794   2.193 -0.5527  0.4277  0.0601
11889WAT      O48275   3.757   4.358   6.065 -0.0966  0.8797  0.0586
11889WAT     H148276   3.721   4.410   6.005 -0.1024 -1.3310 -1.9942
11889WAT     H248277   3.837   4.344   6.035 -0.1109 -0.3428  0.5306
11889WAT    EPW48278   3.763   4.364   6.052 -0.0996  0.3725 -0.1749
11890WAT      O48279   0.687   2.010   0.093 -0.2576  0.3548 -0.3890
11890WAT     H148280   0.638   1.946   0.059 -1.4480  1.0868 -0.0644
11890WAT     H248281   0.763   2.002   0.050 -0.6612 -0.7574 -0.9275
11890WAT    EPW48282   0.691   1.999   0.082 -0.4931  0.2986 -0.4206
11891WAT      O48283   1.025   3.036   7.333 -0.2649 -0.3518 -0.0671
11891WAT     H148284   0.943   3.006   7.339 -0.6670  0.8924  0.9679
11891WAT     H248285   1.060   3.017   7.410 -0.8775  2.6653  1.0918
11891WAT    EPW48286   1.018   3.029   7.345 -0.4148  0.2777  0.2570
11892WAT      O48287   4.782   3.373   0.435  0.2352 -0.3203 -0.3663
11892WAT     H148288   4.747   3.320   0.375 -0.7457 -1.6735  1.2944
11892WAT     H248289   4.752   3.452   0.414  0.0314 -0.7283 -1.6997
11892WAT    EPW48290   4.773   3.377   0.423  0.0602 -0.5805 -0.3179
11893WAT      O48291   5.750   5.959   1.328  0.7059 -0.2774  0.5206
11893WAT     H148292   5.796   5.974   1.401  1.8067 -1.4592  0.1035
11893WAT     H248293   5.801   5.991   1.265 -0.3456  0.9538  0.2342
11893WAT    EPW48294   5.764   5.966   1.330  0.7132 -0.2701  0.4167
11894WAT      O48295   5.117   3.538   1.632  0.1786 -0.2103 -0.1786
11894WAT     H148296   5.127   3.584   1.558  2.0897 -2.2599 -1.2994
11894WAT     H248297   5.142   3.458   1.610  3.4935 -0.4183  3.3017
11894WAT    EPW48298   5.122   3.533   1.618  0.9506 -0.5438  0.1699
11895WAT      O48299   3.262   0.168   5.824 -0.2998 -0.2535 -0.6801
11895WAT     H148300   3.221   0.242   5.844 -0.3319 -0.4029 -0.1872
11895WAT     H248301   3.343   0.180   5.853  0.1052  0.1525 -1.9056
11895WAT    EPW48302   3.268   0.181   5.831 -0.2447 -0.2156 -0.7883
11896WAT      O48303   6.737   1.198   7.140 -0.0072 -0.1030  0.1356
11896WAT     H148304   6.802   1.217   7.196  0.1825 -1.7008  0.5014
11896WAT     H248305   6.665   1.219   7.184  0.2036  1.8700 -0.3426
11896WAT    EPW48306   6.736   1.204   7.155  0.0520 -0.0476  0.1190
11897WAT      O48307   6.535   7.126   4.503 -0.2470  0.2783 -0.0435
11897WAT     H148308   6.517   7.162   4.426  1.7465  1.4861 -0.0363
11897WAT     H248309   6.498   7.048   4.499 -1.0602  0.7148 -1.8178
11897WAT    EPW48310   6.527   7.120   4.491 -0.0726  0.5212 -0.3045
11898WAT      O48311   1.772   0.532   4.741 -0.6708 -0.3056  0.0265
11898WAT     H148312   1.856   0.534   4.716 -0.6167 -1.1331  0.1120
11898WAT     H248313   1.728   0.535   4.666 -0.5445 -0.8179 -0.0711
11898WAT    EPW48314   1.778   0.533   4.726 -0.6441 -0.5035  0.0248
11899WAT      O48315   1.404   5.273   0.702  0.2090  0.0570  0.0441
11899WAT     H148316   1.475   5.237   0.736  1.0231  2.1872  0.8128
11899WAT     H248317   1.433   5.314   0.631 -0.0741  1.4915  0.7166
11899WAT    EPW48318   1.418   5.274   0.697  0.2874  0.5836  0.2570
11900WAT      O48319   0.268   7.253   6.786  1.1575  0.3373 -0.1013
11900WAT     H148320   0.194   7.238   6.831  0.3435  0.9383 -1.2058
11900WAT     H248321   0.315   7.181   6.801 -1.5745 -2.4040 -3.1344
11900WAT    EPW48322   0.264   7.240   6.795  0.6337  0.0211 -0.7125
11901WAT      O48323   5.845   6.172   4.212  0.0324 -0.2095  0.5926
11901WAT     H148324   5.766   6.136   4.213  0.9361 -2.3881  0.4521
11901WAT     H248325   5.873   6.158   4.130  0.5701  0.5610  0.6270
11901WAT    EPW48326   5.838   6.165   4.200  0.2454 -0.4175  0.5769
11902WAT      O48327   2.017   5.913   3.550 -0.1379 -0.1771  0.0571
11902WAT     H148328   2.006   5.999   3.561  0.2852  0.3572 -2.7678
11902WAT     H248329   2.067   5.889   3.617 -3.9247  0.7151  3.5885
11902WAT    EPW48330   2.023   5.922   3.561 -0.6348  0.0337  0.1615
11903WAT      O48331   1.167   0.977   3.294 -0.4324 -0.0847 -0.7504
11903WAT     H148332   1.252   0.959   3.290 -0.3856  0.1162 -0.6698
11903WAT     H248333   1.140   0.938   3.367 -0.0342  1.3891  0.2124
11903WAT    EPW48334   1.176   0.968   3.304 -0.3667  0.1627 -0.5962
11904WAT      O48335   7.020   2.634   3.431  0.0057  0.1676 -0.2269
11904WAT     H148336   7.098   2.628   3.393 -1.6312 -2.2780 -3.7240
11904WAT     H248337   7.000   2.552   3.451 -0.8345  0.9822  2.7886
11904WAT    EPW48338   7.028   2.621   3.429 -0.3602 -0.0733 -0.2981
11905WAT      O48339   2.458   5.776   7.357 -0.2195  0.2283  0.1283
11905WAT     H148340   2.381   5.753   7.324 -1.7482  2.9060  1.5811
11905WAT     H248341   2.481   5.846   7.310  2.2196 -1.3844 -1.3512
11905WAT    EPW48342   2.450   5.783   7.345 -0.0850  0.3856  0.1243
11906WAT      O48343   5.849   0.662   5.944 -0.1629  0.2679  0.4318
11906WAT     H148344   5.814   0.739   5.966  1.3153  1.1272 -0.0568
11906WAT     H248345   5.934   0.678   5.944  0.1097 -0.6809 -2.0752
11906WAT    EPW48346   5.856   0.676   5.947  0.0958  0.2547 -0.0107
11907WAT      O48347   6.417   0.673   7.382 -0.1441  0.4845 -0.6957
11907WAT     H148348   6.419   0.734   7.319 -1.3194  2.2233  0.8355
11907WAT     H248349   6.333   0.673   7.407  0.2138 -0.4517  0.5843
11907WAT    EPW48350   6.405   0.682   7.376 -0.2648  0.6031 -0.2805
11908WAT      O48351   5.004   2.814   3.510 -0.1353  0.3612  0.6201
11908WAT     H148352   5.002   2.791   3.426 -0.4366 -0.8142  0.9234
11908WAT     H248353   4.942   2.763   3.546  0.6266  0.1717  1.7017
11908WAT    EPW48354   4.994   2.803   3.503 -0.0673  0.1596  0.8247
11909WAT      O48355   7.215   5.693   3.784  0.4146 -0.5314 -0.4376
11909WAT     H148356   7.189   5.613   3.762  1.6085 -0.9615 -0.3576
11909WAT     H248357   7.153   5.745   3.750  0.2768 -1.4110 -1.5944
11909WAT    EPW48358   7.202   5.689   3.776  0.5706 -0.7249 -0.5967
11910WAT      O48359   3.665   6.833   2.388  0.4668  0.2049  0.5919
11910WAT     H148360   3.656   6.835   2.475 -0.3443  0.3382  0.5172
11910WAT     H248361   3.708   6.759   2.374  0.1789 -0.0674  1.0858
11910WAT    EPW48362   3.670   6.822   2.399  0.3045  0.1844  0.6538
11911WAT      O48363   2.516   2.297   6.481 -0.3676  0.3604 -0.5325
11911WAT     H148364   2.480   2.325   6.407  0.7761  0.4720 -1.0818
11911WAT     H248365   2.508   2.211   6.477 -1.1759  0.4181 -0.3083
11911WAT    EPW48366   2.510   2.289   6.469 -0.3181  0.3854 -0.5805
11912WAT      O48367   6.218   3.636   1.381  0.0311 -0.6021  0.5733
11912WAT     H148368   6.143   3.681   1.384 -0.0541 -0.7767  1.3851
11912WAT     H248369   6.279   3.698   1.380 -0.1241 -0.4391 -1.1471
11912WAT    EPW48370   6.215   3.652   1.381 -0.0044 -0.6038  0.4391
11913WAT      O48371   1.878   4.234   0.804 -0.2351 -0.4771  0.4325
11913WAT     H148372   1.902   4.192   0.731 -0.2620 -0.4959  0.4348
11913WAT     H248373   1.946   4.287   0.819  0.1144 -1.0267  0.8207
11913WAT    EPW48374   1.892   4.235   0.795 -0.1874 -0.5611  0.4902
11914WAT      O48375   4.000   7.114   7.163 -0.6355 -0.2062 -0.4711
11914WAT     H148376   4.053   7.135   7.229  0.7709 -0.1733 -1.5514
11914WAT     H248377   3.972   7.034   7.183 -3.4433  1.2294  2.0810
11914WAT    EPW48378   4.004   7.105   7.176 -0.8425  0.0107 -0.2537
11915WAT      O48379   6.993   0.807   4.340 -0.3483  0.3345 -0.6202
11915WAT     H148380   6.944   0.874   4.315 -1.0351 -0.7013 -2.1917
11915WAT     H248381   6.973   0.798   4.425 -2.3393  0.4189 -1.0355
11915WAT    EPW48382   6.983   0.815   4.349 -0.7439  0.1940 -0.9137
11916WAT      O48383   0.658   0.525   0.212 -0.0548 -0.1131  0.0564
11916WAT     H148384   0.679   0.606   0.235 -0.6353  0.0107  0.1910
11916WAT     H248385   0.730   0.479   0.227 -0.1706  0.1046  1.4260
11916WAT    EPW48386   0.671   0.530   0.218 -0.1576 -0.0627  0.2786
11917WAT      O48387   0.267   6.486   3.608  0.4701  0.2034  0.0644
11917WAT     H148388   0.352   6.495   3.590  0.0521  3.2837 -0.9303
11917WAT     H248389   0.230   6.476   3.530 -0.2114  0.5822  0.3264
11917WAT    EPW48390   0.274   6.486   3.594  0.3077  0.7144 -0.0438
11918WAT      O48391   2.214   3.319   1.761 -0.2208 -0.4856  0.3969
11918WAT     H148392   2.172   3.307   1.836 -0.8557 -1.1503 -0.0479
11918WAT     H248393   2.285   3.270   1.769 -0.1683 -0.3705  0.6511
11918WAT    EPW48394   2.218   3.310   1.773 -0.3068 -0.5668  0.3688
11919WAT      O48395   6.808   6.040   5.915 -0.0340  0.0868  0.8400
11919WAT     H148396   6.779   6.119   5.894 -3.5898 -1.2444 -0.0035
11919WAT     H248397   6.794   6.035   6.001 -0.2771  0.1901  0.8059
11919WAT    EPW48398   6.802   6.051   5.925 -0.5952 -0.0946  0.7104
11920WAT      O48399   3.504   3.419   6.791 -0.4040  0.1449  0.3931
11920WAT     H148400   3.476   3.340   6.766 -3.0595  0.2521  2.5982
11920WAT     H248401   3.590   3.414   6.779 -0.3059 -3.4597  1.2844
11920WAT    EPW48402   3.513   3.406   6.785 -0.7818 -0.3717  0.8505
11921WAT      O48403   2.475   6.672   2.525 -0.2076 -0.4511 -0.3298
11921WAT     H148404   2.508   6.716   2.593  1.5301 -1.4490 -0.4570
11921WAT     H248405   2.431   6.732   2.480 -1.4242  0.2134  1.6794
11921WAT    EPW48406   2.473   6.687   2.528 -0.1306 -0.5004 -0.0518
11922WAT      O48407   3.413   1.487   3.676 -0.5781 -0.1118 -0.1319
11922WAT     H148408   3.492   1.507   3.644 -0.6454 -1.2476 -1.0810
11922WAT     H248409   3.374   1.564   3.684  1.2821  0.7082  2.2466
11922WAT    EPW48410   3.419   1.501   3.672 -0.3132 -0.1584  0.0792
11923WAT      O48411   1.484   5.295   3.828 -0.6336 -0.2421 -0.1989
11923WAT     H148412   1.471   5.257   3.905 -3.9296  0.5670 -0.2135
11923WAT     H248413   1.420   5.353   3.822  1.9459  2.7650 -1.8125
11923WAT    EPW48414   1.473   5.298   3.838 -0.7394  0.3216 -0.4394
11924WAT      O48415   6.702   1.912   0.739 -0.1122  0.5122  0.4260
11924WAT     H148416   6.739   1.834   0.723 -0.8755  0.4983 -1.5732
11924WAT     H248417   6.621   1.891   0.762 -0.8020  0.6658 -1.5970
11924WAT    EPW48418   6.695   1.897   0.740 -0.3269  0.5328 -0.1681
11925WAT      O48419   1.493   6.128   2.652  0.0318  0.1417 -0.4288
11925WAT     H148420   1.464   6.144   2.732  0.8268  2.0899 -0.4950
11925WAT     H248421   1.527   6.048   2.659  0.9243  0.6326  1.4184
11925WAT    EPW48422   1.493   6.118   2.665  0.2811  0.5020 -0.1657
11926WAT      O48423   0.695   1.410   6.761  0.2739  0.1797 -0.3394
11926WAT     H148424   0.662   1.334   6.787  0.2080  0.0925 -0.6663
11926WAT     H248425   0.764   1.421   6.812  0.2281 -0.0539 -0.2247
11926WAT    EPW48426   0.700   1.400   6.772  0.2574  0.1323 -0.3707
11927WAT      O48427   4.357   2.436   1.717 -0.1956  0.0991  0.1248
11927WAT     H148428   4.332   2.519   1.729  0.1457  0.0848  1.0087
11927WAT     H248429   4.412   2.440   1.650  1.7596  0.9828  1.6982
11927WAT    EPW48430   4.361   2.449   1.709  0.1436  0.2275  0.4878
11928WAT      O48431   5.841   0.076   5.594  0.2323 -0.9127  0.0841
11928WAT     H148432   5.778   0.044   5.543 -0.1283  1.2630 -0.9817
11928WAT     H248433   5.914   0.061   5.550  0.1559 -0.9601 -0.0257
11928WAT    EPW48434   5.842   0.069   5.580  0.1677 -0.5983 -0.0896
11929WAT      O48435   4.932   2.048   6.483  0.6263  0.1713  0.1978
11929WAT     H148436   5.013   2.058   6.455  1.2031 -0.9853  1.3488
11929WAT     H248437   4.902   1.981   6.437  0.5737  0.1377  0.2805
11929WAT    EPW48438   4.939   2.039   6.472  0.7037 -0.0045  0.3801
11930WAT      O48439   1.689   6.840   3.202 -0.2104  0.0467  0.3565
11930WAT     H148440   1.730   6.904   3.245 -1.0085  1.5864 -1.0461
11930WAT     H248441   1.648   6.795   3.265 -0.3344  1.4573  1.3298
11930WAT    EPW48442   1.689   6.843   3.217 -0.3466  0.4825  0.2931
11931WAT      O48443   6.127   4.907   0.310 -0.1884  0.2900 -0.9099
11931WAT     H148444   6.107   4.988   0.334 -0.5646  0.3726 -1.5060
11931WAT     H248445   6.172   4.918   0.236  1.0588  0.0418 -0.2160
11931WAT    EPW48446   6.131   4.920   0.303 -0.0597  0.2656 -0.8954
11932WAT      O48447   3.171   0.556   0.610 -0.1779  0.8712  0.0938
11932WAT     H148448   3.084   0.561   0.615 -0.1659  0.7675  0.4759
11932WAT     H248449   3.186   0.471   0.596 -0.1924  1.1023 -1.5248
11932WAT    EPW48450   3.160   0.544   0.609 -0.1783  0.8900 -0.0888
11933WAT      O48451   7.090   2.526   4.962  0.9683 -0.3468 -0.4803
11933WAT     H148452   7.066   2.446   4.986 -1.1585  0.1884 -0.6222
11933WAT     H248453   7.018   2.574   4.975  2.3043  1.6465  0.0279
11933WAT    EPW48454   7.076   2.521   4.968  0.8515  0.0267 -0.4262
11934WAT      O48455   4.500   2.630   6.601 -0.2578  0.5177 -0.5820
11934WAT     H148456   4.565   2.671   6.560 -0.1255  0.3447 -0.5459
11934WAT     H248457   4.429   2.653   6.556 -0.2851  1.3925 -0.1179
11934WAT    EPW48458   4.499   2.640   6.589 -0.2423  0.6214 -0.5081
11935WAT      O48459   2.516   1.830   3.280  0.2613  0.6469  0.8286
11935WAT     H148460   2.566   1.881   3.330  1.5120  1.7716 -1.3819
11935WAT     H248461   2.488   1.884   3.217 -1.0013 -0.7158  0.1586
11935WAT    EPW48462   2.520   1.845   3.278  0.2595  0.6118  0.4031
11936WAT      O48463   1.303   4.292   3.272  0.2123 -0.1187 -0.0902
11936WAT     H148464   1.306   4.238   3.203  1.7556 -1.1371  0.7120
11936WAT     H248465   1.283   4.369   3.236 -1.6050 -1.0834 -1.3365
11936WAT    EPW48466   1.300   4.295   3.256  0.1718 -0.4116 -0.1558
11937WAT      O48467   3.465   6.379   3.663  0.0374  0.9557  0.6230
11937WAT     H148468   3.491   6.296   3.669 -2.5483  0.0707  0.6770
11937WAT     H248469   3.525   6.416   3.610  1.0609 -0.9938  0.3513
11937WAT    EPW48470   3.478   6.373   3.656 -0.1934  0.5370  0.5908
11938WAT      O48471   6.337   3.732   5.531 -0.3827 -0.0094  0.0433
11938WAT     H148472   6.383   3.704   5.463 -0.3631 -0.8508  0.3973
11938WAT     H248473   6.264   3.684   5.528 -0.3297 -0.1393  0.6864
11938WAT    EPW48474   6.333   3.721   5.520 -0.3720 -0.1529  0.1906
11939WAT      O48475   5.953   5.843   5.173 -0.4470 -0.1069  0.0152
11939WAT     H148476   5.927   5.870   5.252  2.9020  0.1445  1.1818
11939WAT     H248477   5.884   5.799   5.143 -2.1595  0.5078  2.6974
11939WAT    EPW48478   5.939   5.841   5.181 -0.2053  0.0211  0.5837
11940WAT      O48479   5.235   0.554   5.282 -0.6609  0.0035 -0.2066
11940WAT     H148480   5.288   0.603   5.331  0.1945 -1.4967  0.4360
11940WAT     H248481   5.175   0.526   5.338 -0.4089 -0.6917 -0.2716
11940WAT    EPW48482   5.234   0.557   5.298 -0.4973 -0.3208 -0.1213
11941WAT      O48483   2.280   7.198   1.981  0.3284 -0.0822 -0.1144
11941WAT     H148484   2.317   7.229   1.907 -0.1789  1.3849  0.2155
11941WAT     H248485   2.313   7.117   1.987  0.4701 -0.2117 -1.8896
11941WAT    EPW48486   2.290   7.191   1.971  0.2744  0.1154 -0.3279
11942WAT      O48487   4.525   1.671   7.184 -0.2393  0.1318  0.7550
11942WAT     H148488   4.580   1.699   7.246  0.5149  2.3522 -0.7819
11942WAT     H248489   4.573   1.614   7.139  0.5712  1.4024 -0.0491
11942WAT    EPW48490   4.540   1.667   7.187 -0.0082  0.6475  0.4092
11943WAT      O48491   4.401   7.063   1.701 -0.2845 -0.4041  0.2389
11943WAT     H148492   4.318   7.052   1.725 -0.4939 -2.4664 -1.1735
11943WAT     H248493   4.432   6.981   1.694  1.8226  0.3011  0.5632
11943WAT    EPW48494   4.393   7.049   1.703 -0.0042 -0.6046  0.0781
11944WAT      O48495   3.978   2.449   5.779  0.0901  0.1804  0.0838
11944WAT     H148496   4.037   2.505   5.747 -0.3269  1.5149  1.5127
11944WAT     H248497   4.021   2.373   5.783  1.6824  1.0677  0.8921
11944WAT    EPW48498   3.993   2.446   5.775  0.2637  0.5086  0.4143
11945WAT      O48499   0.465   6.369   3.203  0.3036  0.2404 -0.4766
11945WAT     H148500   0.503   6.366   3.281  2.1016 -0.3586 -1.3305
11945WAT     H248501   0.457   6.285   3.180  3.6876  0.3125 -2.6417
11945WAT    EPW48502   0.469   6.356   3.211  1.0691  0.1626 -0.9226
11946WAT      O48503   0.674   5.835   5.092  0.2353 -0.0495  0.2457
11946WAT     H148504   0.740   5.890   5.074  0.6415  0.4871  2.9423
11946WAT     H248505   0.702   5.793   5.163 -2.2674  0.1475  1.4598
11946WAT    EPW48506   0.688   5.837   5.100 -0.0744  0.0589  0.8234
11947WAT      O48507   4.694   5.070   3.827  0.2958 -0.6952 -0.0526
11947WAT     H148508   4.762   5.044   3.876 -0.0489 -2.1374 -0.3013
11947WAT     H248509   4.631   5.013   3.846 -1.0020  0.8336  0.4480
11947WAT    EPW48510   4.695   5.057   3.837  0.0532 -0.6824 -0.0154
11948WAT      O48511   3.016   3.431   2.177  0.2921 -0.5072 -0.2129
11948WAT     H148512   3.078   3.370   2.183 -1.5383 -2.3689  1.0895
11948WAT     H248513   3.010   3.463   2.258 -2.1157 -2.2272  0.4015
11948WAT    EPW48514   3.024   3.427   2.190 -0.3340 -1.0363  0.0702
11949WAT      O48515   7.010   0.799   5.986 -0.3013  0.2306  0.1277
11949WAT     H148516   7.049   0.874   5.965 -0.3802  0.9913  2.3542
11949WAT     H248517   6.978   0.770   5.910  1.7247  1.2293 -1.1973
11949WAT    EPW48518   7.011   0.806   5.972 -0.0137  0.4905  0.2608
11950WAT      O48519   3.880   0.302   6.833 -0.2559  0.0675  0.6782
11950WAT     H148520   3.891   0.383   6.865 -0.8806 -0.2294  1.6675
11950WAT     H248521   3.885   0.251   6.904 -0.3037 -0.7290  0.1175
11950WAT    EPW48522   3.883   0.307   6.848 -0.3552 -0.0940  0.7415
11951WAT      O48523   3.718   0.042   0.089  0.7576  0.1975 -0.6541
11951WAT     H148524   3.793   0.071   0.121  0.4948 -0.6634  0.8144
11951WAT     H248525   3.671   0.115   0.078  1.6921  0.7165 -1.3717
11951WAT    EPW48526   3.722   0.057   0.092  0.8569  0.1470 -0.5432
11952WAT      O48527   2.388   4.435   6.169 -0.0252  0.5771 -0.8736
11952WAT     H148528   2.436   4.362   6.168  0.5706  0.9399  0.0390
11952WAT     H248529   2.325   4.417   6.227  0.3829  0.9475 -0.3145
11952WAT    EPW48530   2.385   4.422   6.177  0.1231  0.6854 -0.6562
11953WAT      O48531   0.756   1.359   7.195 -0.2445  0.2795  0.2986
11953WAT     H148532   0.742   1.274   7.210  3.6283 -0.9781 -1.7869
11953WAT     H248533   0.689   1.381   7.144 -0.1816 -2.2984 -1.0897
11953WAT    EPW48534   0.744   1.349   7.189  0.3369 -0.2871 -0.2145
11954WAT      O48535   6.340   1.723   1.114 -0.2367 -0.1610 -0.1198
11954WAT     H148536   6.409   1.775   1.104  0.0564 -0.6363 -0.6273
11954WAT     H248537   6.373   1.651   1.150 -0.2918 -0.7564 -1.2110
11954WAT    EPW48538   6.355   1.720   1.118 -0.2015 -0.3192 -0.3560
11955WAT      O48539   1.159   1.580   3.245  0.3281 -0.0999 -0.8328
11955WAT     H148540   1.142   1.505   3.285  2.4625  0.9585  2.4071
11955WAT     H248541   1.083   1.623   3.248 -0.2851 -1.1869 -0.5160
11955WAT    EPW48542   1.145   1.576   3.251  0.5528 -0.1041 -0.3074
11956WAT      O48543   6.537   3.105   4.531  0.1549  0.5761  0.5987
11956WAT     H148544   6.514   3.171   4.585  1.3325  0.3359  1.4237
11956WAT     H248545   6.579   3.145   4.467  2.7957  0.5403  2.1571
11956WAT    EPW48546   6.540   3.121   4.530  0.7190  0.5353  0.9508
11957WAT      O48547   4.058   6.484   4.994 -0.0848  0.2708 -0.3526
11957WAT     H148548   4.011   6.525   5.055 -0.0910  0.5088 -0.5140
11957WAT     H248549   4.136   6.523   4.999 -0.4081  1.0704 -1.2531
11957WAT    EPW48550   4.063   6.496   5.003 -0.1334  0.4241 -0.5095
11958WAT      O48551   6.852   4.604   1.654  0.5859  0.7887 -0.2022
11958WAT     H148552   6.923   4.559   1.678  0.4978 -0.6307 -2.3232
11958WAT     H248553   6.883   4.668   1.604  0.4425  0.9069 -0.1429
11958WAT    EPW48554   6.867   4.607   1.650  0.5517  0.5965 -0.5068
11959WAT      O48555   3.835   0.074   6.504 -0.5127  0.5121 -0.8697
11959WAT     H148556   3.919   0.066   6.481 -0.7701  0.1005 -1.7162
11959WAT     H248557   3.794   0.023   6.447 -1.3802  1.0214 -0.7125
11959WAT    EPW48558   3.842   0.065   6.492 -0.6788  0.5266 -0.9715
11960WAT      O48559   6.980   5.177   1.109  0.3241 -0.2651 -0.0799
11960WAT     H148560   6.991   5.263   1.099 -1.2533 -0.1764 -1.4153
11960WAT     H248561   6.895   5.165   1.092  1.0044 -2.4220 -2.4854
11960WAT    EPW48562   6.969   5.188   1.105  0.1916 -0.5706 -0.6325
11961WAT      O48563   5.882   4.488   4.933  0.0125  1.0099  0.0318
11961WAT     H148564   5.878   4.437   5.004  0.1787  1.1733  0.1595
11961WAT     H248565   5.853   4.436   4.869  1.2117  0.3981 -0.0364
11961WAT    EPW48566   5.877   4.472   4.934  0.2142  0.9437  0.0406
11962WAT      O48567   2.356   5.499   2.634 -0.7613  0.0328 -0.3780
11962WAT     H148568   2.405   5.554   2.586  0.1228  0.1942  0.6716
11962WAT     H248569   2.278   5.503   2.595 -0.2837  0.7646 -1.3231
11962WAT    EPW48570   2.352   5.508   2.621 -0.5601  0.1647 -0.3626
11963WAT      O48571   3.372   2.770   7.413 -0.1093  0.1112  0.0901
11963WAT     H148572   3.346   2.830   7.356 -4.8690 -1.5243  0.0778
11963WAT     H248573   3.405   2.707   7.363  4.6240  2.1752  0.0903
11963WAT    EPW48574   3.373   2.769   7.397 -0.1132  0.1745  0.0883
11964WAT      O48575   6.462   0.412   2.679 -0.4781  0.6542 -0.0703
11964WAT     H148576   6.434   0.336   2.647  0.5862 -0.1546  0.8184
11964WAT     H248577   6.476   0.461   2.608 -2.2221  0.4490 -0.6157
11964WAT    EPW48578   6.460   0.408   2.664 -0.5785  0.5044 -0.0196
11965WAT      O48579   5.412   7.125   1.640 -0.2036  0.8324  0.2289
11965WAT     H148580   5.389   7.200   1.601  1.3083  0.4159 -1.6385
11965WAT     H248581   5.403   7.142   1.725 -2.1464  2.3426 -0.2053
11965WAT    EPW48582   5.407   7.139   1.647 -0.2673  0.9940 -0.1111
11966WAT      O48583   5.554   2.822   5.552 -0.0356 -0.2834  0.4400
11966WAT     H148584   5.618   2.822   5.611  0.0549 -0.7095  0.3450
11966WAT     H248585   5.537   2.737   5.540 -0.8870 -0.1700  0.7540
11966WAT    EPW48586   5.561   2.810   5.559 -0.1480 -0.3296  0.4723
11967WAT      O48587   0.649   2.291   1.713 -0.5921  0.4625  0.0019
11967WAT     H148588   0.681   2.358   1.758  1.8525 -1.1313  0.8145
11967WAT     H248589   0.720   2.252   1.681 -2.0402 -0.7458 -1.9565
11967WAT    EPW48590   0.664   2.295   1.715 -0.4449  0.0486 -0.1674
11968WAT      O48591   5.393   1.616   7.299  0.4202  0.2296  0.3155
11968WAT     H148592   5.370   1.568   7.368  0.7010  0.5140  0.6119
11968WAT     H248593   5.467   1.656   7.326  0.4115  0.5097 -0.0693
11968WAT    EPW48594   5.401   1.615   7.313  0.4604  0.3130  0.3025
11969WAT      O48595   2.504   6.214   0.418 -0.2225  0.0188 -0.7557
11969WAT     H148596   2.467   6.137   0.438 -1.2843  0.4055 -1.1504
11969WAT     H248597   2.479   6.266   0.483 -1.5896  0.6360 -1.7137
11969WAT    EPW48598   2.495   6.210   0.430 -0.5813  0.1671 -0.9555
11970WAT      O48599   1.678   5.411   6.004  0.1456 -0.0619 -0.1792
11970WAT     H148600   1.691   5.327   6.025  2.8841  0.2485 -0.3304
11970WAT     H248601   1.666   5.409   5.918 -0.5508 -0.3232 -0.0899
11970WAT    EPW48602   1.678   5.398   5.995  0.4472 -0.0547 -0.1884
11971WAT      O48603   2.576   2.509   3.248  0.4940 -0.2620  0.2594
11971WAT     H148604   2.606   2.588   3.229 -1.5494  0.7248  0.7853
11971WAT     H248605   2.613   2.458   3.188  2.5366  0.9207  0.4409
11971WAT    EPW48606   2.586   2.513   3.236  0.4939  0.0585  0.3639
11972WAT      O48607   4.994   3.766   4.457  0.2752  0.0433  0.2118
11972WAT     H148608   5.029   3.827   4.508 -0.3873  0.8088 -0.2244
11972WAT     H248609   5.029   3.782   4.379 -1.0059  0.8476 -0.2429
11972WAT    EPW48610   5.004   3.777   4.453 -0.0119  0.2752  0.0802
11973WAT      O48611   5.293   6.817   4.382 -0.1674  0.5656  0.2791
11973WAT     H148612   5.362   6.848   4.338  0.3014  0.7698  1.1403
11973WAT     H248613   5.307   6.730   4.382 -0.0243  0.5878  0.2666
11973WAT    EPW48614   5.305   6.808   4.375 -0.0770  0.5990  0.4045
11974WAT      O48615   3.691   2.457   6.026 -0.0817  0.8834  0.6005
11974WAT     H148616   3.702   2.389   6.081  0.6596  0.4023 -0.1220
11974WAT     H248617   3.687   2.419   5.948  0.8071  1.7170  0.1381
11974WAT    EPW48618   3.692   2.441   6.023  0.1591  0.9355  0.4255
11975WAT      O48619   2.940   5.066   2.995  0.1537  0.0144  0.2714
11975WAT     H148620   2.969   5.143   3.025  0.7095  0.1932 -0.6890
11975WAT     H248621   3.008   5.033   2.951 -0.1792 -0.8862  0.4051
11975WAT    EPW48622   2.954   5.073   2.993  0.1866 -0.0922  0.1493
11976WAT      O48623   5.263   0.118   7.060 -0.0389 -0.0542  0.1410
11976WAT     H148624   5.188   0.083   7.086 -1.2599  1.3664 -1.2129
11976WAT     H248625   5.296   0.153   7.133 -1.3265  0.3553  0.5528
11976WAT    EPW48626   5.257   0.118   7.074 -0.4095  0.2161  0.0018
11977WAT      O48627   0.359   3.665   6.938  0.1817 -0.2929  0.1730
11977WAT     H148628   0.365   3.663   6.851  0.2374  1.9494  0.0501
11977WAT     H248629   0.432   3.706   6.962 -0.6842  0.7875  1.0904
11977WAT    EPW48630   0.371   3.671   6.928  0.0620  0.1979  0.2903
11978WAT      O48631   4.567   0.116   6.397  0.3991 -0.3381  0.1263
11978WAT     H148632   4.584   0.113   6.312 -0.5921  1.6113 -0.1980
11978WAT     H248633   4.487   0.151   6.401  0.3117 -0.6647  1.8382
11978WAT    EPW48634   4.558   0.121   6.385  0.2398 -0.0984  0.3313
11979WAT      O48635   6.817   4.335   0.761  0.3534  0.0625 -0.1954
11979WAT     H148636   6.800   4.415   0.730 -0.5464 -0.2035 -0.4029
11979WAT     H248637   6.802   4.283   0.693 -2.7403 -0.6418  0.8504
11979WAT    EPW48638   6.812   4.339   0.746 -0.2365 -0.0808 -0.0716
11980WAT      O48639   3.336   4.890   5.272  0.3161 -0.2047 -0.6141
11980WAT     H148640   3.329   4.975   5.291  2.0076 -0.5359  2.1101
11980WAT     H248641   3.297   4.883   5.195 -0.3648  2.9403 -0.7032
11980WAT    EPW48642   3.329   4.902   5.264  0.4654  0.2110 -0.2248
11981WAT      O48643   5.965   6.752   2.256 -0.3784  0.2717  0.2915
11981WAT     H148644   6.012   6.682   2.231 -0.1272  0.8254 -0.8735
11981WAT     H248645   5.900   6.718   2.303  1.7602 -0.4548  2.9801
11981WAT    EPW48646   5.962   6.737   2.259 -0.0254  0.2462  0.5166
11982WAT      O48647   1.246   1.497   7.256  0.0997  0.0363 -0.1244
11982WAT     H148648   1.186   1.435   7.239  0.7831 -0.5724 -0.3589
11982WAT     H248649   1.210   1.543   7.321 -0.5385 -0.4383 -0.1317
11982WAT    EPW48650   1.232   1.494   7.263  0.1064 -0.1237 -0.1602
11983WAT      O48651   3.625   0.373   4.412 -0.3701 -0.2291  0.0388
11983WAT     H148652   3.686   0.339   4.464  0.4085 -0.3349 -0.9186
11983WAT     H248653   3.586   0.303   4.378 -1.3975 -0.1699  1.0387
11983WAT    EPW48654   3.628   0.357   4.415 -0.4069 -0.2360  0.0451
11984WAT      O48655   4.980   0.363   1.058 -0.5451  0.5099 -0.0260
11984WAT     H148656   5.048   0.315   1.085 -1.0493  0.2104  0.7443
11984WAT     H248657   4.938   0.382   1.132 -1.3172  0.6639 -0.4990
11984WAT    EPW48658   4.984   0.359   1.073 -0.7336  0.4884  0.0179
11985WAT      O48659   6.942   1.057   5.801 -0.6879 -0.0744  1.0284
11985WAT     H148660   7.005   1.101   5.759  0.6954 -0.3874  2.6662
11985WAT     H248661   6.887   1.120   5.825 -1.8464  0.0663 -1.6140
11985WAT    EPW48662   6.944   1.073   5.798 -0.6547 -0.0999  0.8800
11986WAT      O48663   6.618   1.261   1.222 -0.0601 -0.0900  0.3740
11986WAT     H148664   6.696   1.292   1.199  0.3546  0.0142  1.8199
11986WAT     H248665   6.609   1.189   1.173  1.2773 -0.5170  0.7192
11986WAT    EPW48666   6.628   1.255   1.211  0.1988 -0.1377  0.6386
11987WAT      O48667   1.181   2.947   2.627  0.3251  0.5700 -0.2001
11987WAT     H148668   1.133   2.881   2.658 -0.4393  1.7459  1.2264
11987WAT     H248669   1.178   2.936   2.541 -0.2258 -0.9452 -0.0209
11987WAT    EPW48670   1.174   2.936   2.619  0.1308  0.5198  0.0371
11988WAT      O48671   2.390   0.925   1.168 -0.4483  0.3207  0.5455
11988WAT     H148672   2.379   0.886   1.245 -0.1965 -0.0046  0.4219
11988WAT     H248673   2.460   0.975   1.180  0.0146 -0.2653  0.3297
11988WAT    EPW48674   2.399   0.926   1.181 -0.3427  0.1861  0.4954
11989WAT      O48675   3.019   3.379   7.364  0.4208 -0.0561 -0.1746
11989WAT     H148676   3.032   3.305   7.320 -0.8903  0.6748 -1.9556
11989WAT     H248677   3.097   3.417   7.365  0.8167 -0.8458 -0.4192
11989WAT    EPW48678   3.032   3.374   7.358  0.2856 -0.0648 -0.4738
11990WAT      O48679   6.320   4.727   4.183  0.0981 -0.3723  0.2914
11990WAT     H148680   6.251   4.780   4.188 -1.2760 -2.1133  0.8637
11990WAT     H248681   6.376   4.762   4.240 -0.4824  0.8229  0.1644
11990WAT    EPW48682   6.318   4.740   4.192 -0.1907 -0.4529  0.3572
11991WAT      O48683   4.727   0.169   0.955 -0.3028 -0.9241 -0.4643
11991WAT     H148684   4.792   0.205   0.910 -0.2224 -2.5772 -1.7718
11991WAT     H248685   4.754   0.174   1.038  0.3937  0.5231 -0.7592
11991WAT    EPW48686   4.741   0.175   0.961 -0.1880 -0.9545 -0.7010
11992WAT      O48687   2.999   2.214   1.603 -0.5455  0.2221  0.6065
11992WAT     H148688   3.039   2.151   1.558  0.3565 -0.3544  2.1276
11992WAT     H248689   3.058   2.237   1.664 -1.9547  0.4093  1.9728
11992WAT    EPW48690   3.014   2.208   1.606 -0.6205  0.1646  1.0330
11993WAT      O48691   0.817   2.758   6.068  0.2062  0.1844  0.3721
11993WAT     H148692   0.823   2.828   6.016 -2.0289  0.0553 -0.1406
11993WAT     H248693   0.885   2.768   6.122  2.0056  0.8860 -1.8428
11993WAT    EPW48694   0.828   2.770   6.068  0.1418  0.2690 -0.0308
11994WAT      O48695   1.509   7.081   4.853 -0.0391 -0.2888 -0.1328
11994WAT     H148696   1.510   7.164   4.880  1.6143 -0.4295  0.3250
11994WAT     H248697   1.524   7.036   4.926  3.0467 -0.7468 -0.9102
11994WAT    EPW48698   1.511   7.087   4.867  0.6610 -0.3772 -0.1800
11995WAT      O48699   7.033   4.529   4.687 -0.8157  0.1143 -0.4949
11995WAT     H148700   6.967   4.528   4.743  0.0747 -0.6628  0.5781
11995WAT     H248701   7.007   4.585   4.625 -2.3093  0.0869  0.0753
11995WAT    EPW48702   7.020   4.537   4.686 -0.9048 -0.0046 -0.2522
11996WAT      O48703   4.561   6.187   3.437  0.1493 -0.2823  0.0260
11996WAT     H148704   4.552   6.147   3.360 -1.2070 -0.4955  0.2733
11996WAT     H248705   4.596   6.125   3.488  2.4858  0.3058 -0.7549
11996WAT    EPW48706   4.565   6.172   3.433  0.2941 -0.2269 -0.0528
11997WAT      O48707   1.268   0.410   0.122  0.5304 -0.1830 -0.0045
11997WAT     H148708   1.252   0.496   0.122 -1.8503 -0.5571 -0.3051
11997WAT     H248709   1.355   0.406   0.125  0.7566  2.2404 -0.6058
11997WAT    EPW48710   1.279   0.422   0.122  0.2121  0.1198 -0.1378
11998WAT      O48711   4.081   5.989   1.524  0.0754 -0.0853 -0.4172
11998WAT     H148712   4.133   6.038   1.474 -2.5376  1.8915 -1.4781
11998WAT     H248713   4.053   6.045   1.585 -0.4420 -1.1970  0.3957
11998WAT    EPW48714   4.084   6.005   1.525 -0.3870  0.0425 -0.4538
11999WAT      O48715   5.635   3.678   0.721  0.6879  0.2698 -0.2105
11999WAT     H148716   5.649   3.659   0.637  0.8672 -0.5350 -0.0084
11999WAT     H248717   5.579   3.745   0.718  1.0899  0.5867 -0.9728
11999WAT    EPW48718   5.629   3.685   0.708  0.7738  0.1977 -0.2932
12000WAT      O48719   0.698   0.162   4.923 -0.0269  0.2750 -0.1547
12000WAT     H148720   0.770   0.121   4.949 -0.4281 -1.1640 -1.1553
12000WAT     H248721   0.634   0.113   4.956 -0.5221  0.1544 -1.2499
12000WAT    EPW48722   0.699   0.149   4.932 -0.1593  0.0446 -0.4643
12001WAT      O48723   5.873   1.100   6.512 -0.6372  0.4503  0.0484
12001WAT     H148724   5.925   1.030   6.519  0.5241  1.3744  1.1276
12001WAT     H248725   5.904   1.141   6.441  1.0154  1.6547  1.3910
12001WAT    EPW48726   5.886   1.096   6.502 -0.2215  0.7647  0.4061
12002WAT      O48727   1.069   4.309   1.445 -0.4769  0.2767  0.6628
12002WAT     H148728   1.153   4.288   1.451 -0.5194  0.5275  2.6472
12002WAT     H248729   1.069   4.381   1.395  0.3554 -0.3356 -0.2516
12002WAT    EPW48730   1.081   4.317   1.438 -0.3603  0.2233  0.8209
12003WAT      O48731   0.544   3.048   5.877 -0.5222  0.2633  0.4864
12003WAT     H148732   0.542   3.117   5.825  1.4831  1.0312  1.3066
12003WAT     H248733   0.539   3.082   5.957  3.1989 -0.0896  1.0722
12003WAT    EPW48734   0.543   3.063   5.881  0.3237  0.3246  0.6941
12004WAT      O48735   4.712   0.169   6.119  0.3287 -0.0000 -0.3632
12004WAT     H148736   4.718   0.226   6.053 -2.2789  1.0889  0.2186
12004WAT     H248737   4.732   0.093   6.082  0.7670  0.8236 -1.9374
12004WAT    EPW48738   4.716   0.166   6.103  0.0082  0.2825 -0.5098
12005WAT      O48739   2.660   0.585   4.320  0.0197  0.7427  0.3172
12005WAT     H148740   2.618   0.570   4.395  0.9246  2.2786  1.1760
12005WAT     H248741   2.625   0.527   4.265 -0.0235 -1.0642  2.1392
12005WAT    EPW48742   2.649   0.575   4.323  0.1470  0.7027  0.7132
12006WAT      O48743   3.091   7.062   3.736  0.1903 -0.0257  0.1879
12006WAT     H148744   3.151   7.124   3.746  0.5102 -0.5152  1.5525
12006WAT     H248745   3.093   7.020   3.813 -0.8889 -0.9379 -0.2665
12006WAT    EPW48746   3.100   7.065   3.749  0.0781 -0.2328  0.3223
12007WAT      O48747   5.885   3.070   2.995 -0.6116  0.2640 -0.0096
12007WAT     H148748   5.935   3.004   2.969 -1.5241 -0.2918 -0.3734
12007WAT     H248749   5.939   3.139   2.990  0.4196 -0.4687  0.6158
12007WAT    EPW48750   5.900   3.071   2.991 -0.5940  0.0737  0.0290
12008WAT      O48751   0.986   2.230   1.862 -0.3752  0.0532  0.0509
12008WAT     H148752   0.952   2.307   1.841 -0.0939  0.5338  1.2543
12008WAT     H248753   0.918   2.187   1.896  0.0423  0.8361  2.0038
12008WAT    EPW48754   0.971   2.235   1.864 -0.2720  0.2398  0.5171
12009WAT      O48755   2.890   2.958   4.609 -0.1448 -0.0700  0.6144
12009WAT     H148756   2.868   2.902   4.546 -3.1677  2.5881 -0.9223
12009WAT     H248757   2.942   3.015   4.569 -1.3909  1.1639  0.7212
12009WAT    EPW48758   2.895   2.958   4.594 -0.7754  0.5049  0.4032
12010WAT      O48759   5.209   2.967   4.221  0.0683  0.0932 -0.4583
12010WAT     H148760   5.141   2.915   4.239  0.6859 -0.8597 -0.7937
12010WAT     H248761   5.278   2.913   4.229  0.7880  1.0367 -0.1168
12010WAT    EPW48762   5.209   2.951   4.225  0.2658  0.0918 -0.4574
12011WAT      O48763   5.019   3.352   3.253  0.4529 -0.0394 -0.3963
12011WAT     H148764   5.076   3.287   3.249 -1.0686 -1.6313  1.7753
12011WAT     H248765   4.947   3.318   3.216 -0.1549  0.6343  0.1436
12011WAT    EPW48766   5.017   3.337   3.247  0.1384 -0.1750  0.0043
12012WAT      O48767   1.365   0.771   7.374  0.2420 -0.0507 -0.1162
12012WAT     H148768   1.439   0.752   7.417 -0.7077 -0.4158  1.4662
12012WAT     H248769   1.379   0.850   7.342  1.4710 -0.2847 -0.2071
12012WAT    EPW48770   1.378   0.780   7.376  0.2832 -0.1392  0.1041
12013WAT      O48771   6.549   0.797   3.242 -0.4326  0.0672 -0.2621
12013WAT     H148772   6.496   0.749   3.292  1.7455 -2.2241  0.0501
12013WAT     H248773   6.580   0.740   3.184  0.8428  1.5559 -1.1283
12013WAT    EPW48774   6.545   0.781   3.241  0.0775 -0.0513 -0.3439
12014WAT      O48775   4.581   5.934   4.101 -0.3648  0.3113  0.0354
12014WAT     H148776   4.533   6.004   4.120 -2.0437 -1.3696  2.6360
12014WAT     H248777   4.630   5.923   4.172 -0.3902 -1.3143 -0.1583
12014WAT    EPW48778   4.581   5.943   4.114 -0.6166 -0.1771  0.3910
12015WAT      O48779   3.501   0.365   5.611 -0.2007 -0.5141  0.4707
12015WAT     H148780   3.565   0.401   5.563 -0.9164  0.7147  0.3820
12015WAT     H248781   3.477   0.430   5.664 -2.5221 -0.3330 -0.6491
12015WAT    EPW48782   3.507   0.380   5.611 -0.6494 -0.3058  0.2922
12016WAT      O48783   2.973   3.908   1.130  0.2590  0.5001 -0.1702
12016WAT     H148784   3.016   3.854   1.184 -2.3019 -0.6594  0.8831
12016WAT     H248785   2.986   3.874   1.051 -0.7032 -1.3167  0.4028
12016WAT    EPW48786   2.981   3.895   1.126 -0.2615  0.0605  0.0700
12017WAT      O48787   4.434   1.759   4.872 -0.6389  0.6154 -0.9957
12017WAT     H148788   4.395   1.833   4.894  0.7345  0.4861  2.5085
12017WAT     H248789   4.516   1.770   4.899  0.0006 -1.5993 -1.8075
12017WAT    EPW48790   4.441   1.771   4.879 -0.3416  0.2691 -0.5980
12018WAT      O48791   0.437   1.405   0.096  0.0529 -0.2149 -0.0256
12018WAT     H148792   0.456   1.332   0.139  0.8396 -0.0517 -0.0681
12018WAT     H248793   0.352   1.418   0.111  0.1610 -0.5452  0.8812
12018WAT    EPW48794   0.427   1.396   0.104  0.1851 -0.2396  0.1021
12019WAT      O48795   2.320   7.092   6.998  0.2368 -0.1543  0.0733
12019WAT     H148796   2.305   7.116   6.915  2.9647  0.4137 -0.3583
12019WAT     H248797   2.338   7.167   7.038  3.5989 -0.7564 -0.0241
12019WAT    EPW48798   2.320   7.107   6.992  1.1365 -0.1593 -0.0049
12020WAT      O48799   6.512   5.913   6.648  0.0105 -0.1241 -0.0041
12020WAT     H148800   6.457   5.876   6.592  0.2924 -4.1346  1.9846
12020WAT     H248801   6.468   5.912   6.723  1.1945  0.8759  0.7412
12020WAT    EPW48802   6.497   5.908   6.651  0.2270 -0.5688  0.3998
12021WAT      O48803   6.065   7.190   1.032  0.6474  0.2695  0.0606
12021WAT     H148804   5.983   7.185   1.004  0.7486 -1.0033 -0.0547
12021WAT     H248805   6.111   7.154   0.967  1.4007  1.7415 -0.2534
12021WAT    EPW48806   6.060   7.184   1.018  0.7736  0.2989 -0.0028
12022WAT      O48807   5.235   1.568   1.343  0.1092  0.5621  0.0724
12022WAT     H148808   5.242   1.583   1.257  0.4793 -0.4790 -0.0889
12022WAT     H248809   5.274   1.491   1.354  0.7932  1.0527  1.3089
12022WAT    EPW48810   5.242   1.559   1.332  0.2649  0.4807  0.2313
12023WAT      O48811   0.626   5.112   5.967 -0.3874  0.2810 -0.3134
12023WAT     H148812   0.649   5.186   5.928  0.7031  1.0062  1.5653
12023WAT     H248813   0.702   5.073   5.986 -0.9330 -1.3013 -1.1564
12023WAT    EPW48814   0.640   5.117   5.964 -0.3069  0.1544 -0.1604
12024WAT      O48815   1.785   2.167   6.219  0.3221 -0.3976 -0.0192
12024WAT     H148816   1.727   2.156   6.155  0.3287  0.3468 -0.1601
12024WAT     H248817   1.854   2.122   6.192  0.0750 -0.6817 -0.1921
12024WAT    EPW48818   1.786   2.159   6.205  0.2866 -0.3296 -0.0655
12025WAT      O48819   4.558   0.771   3.393  0.1473  0.1476  0.2341
12025WAT     H148820   4.514   0.847   3.392 -2.1211 -1.0640  1.0065
12025WAT     H248821   4.539   0.736   3.315  0.0765 -0.2267  0.4211
12025WAT    EPW48822   4.549   0.777   3.381 -0.1982 -0.0866  0.3759
12026WAT      O48823   1.245   1.749   6.102 -0.1606  0.4628 -0.3696
12026WAT     H148824   1.298   1.714   6.162 -0.6728 -1.0580 -0.7484
12026WAT     H248825   1.276   1.830   6.091  2.2465 -0.4514 -0.8201
12026WAT    EPW48826   1.257   1.756   6.109  0.1193  0.1031 -0.4921
12027WAT      O48827   5.647   3.843   2.210  0.3526  0.2182 -0.8406
12027WAT     H148828   5.728   3.865   2.185  0.3669 -1.4480 -2.4453
12027WAT     H248829   5.608   3.920   2.223  1.4090  1.1099 -2.6257
12027WAT    EPW48830   5.653   3.858   2.208  0.5108  0.1038 -1.3414
12028WAT      O48831   2.951   2.104   5.149  0.0861 -0.7607  0.2258
12028WAT     H148832   2.888   2.104   5.209 -0.1037 -1.0185  0.0257
12028WAT     H248833   2.912   2.134   5.077  0.5826  0.6470  0.4985
12028WAT    EPW48834   2.936   2.108   5.148  0.1314 -0.5908  0.2365
12029WAT      O48835   1.325   2.146   6.507 -0.0946 -0.0845  0.3932
12029WAT     H148836   1.279   2.144   6.433 -0.8559  2.2371  0.7206
12029WAT     H248837   1.348   2.062   6.519  0.6929 -0.4743 -2.8042
12029WAT    EPW48838   1.322   2.133   6.498 -0.0907  0.2009 -0.0308
12030WAT      O48839   5.005   4.753   3.849 -0.2768  0.4331 -0.1163
12030WAT     H148840   5.025   4.775   3.767  0.1083 -2.6736 -1.0002
12030WAT     H248841   4.945   4.690   3.839  0.5366 -0.7661  1.8878
12030WAT    EPW48842   4.999   4.747   3.836 -0.0997 -0.2030  0.0492
12031WAT      O48843   5.165   6.565   1.921  0.3306  0.3327  0.6216
12031WAT     H148844   5.117   6.500   1.888  0.1331  0.7934 -0.0114
12031WAT     H248845   5.201   6.529   1.992 -1.4639  0.1619  1.5065
12031WAT    EPW48846   5.163   6.550   1.926  0.0364  0.3755  0.6588
12032WAT      O48847   2.250   2.232   1.679 -0.1380 -0.2604 -0.5346
12032WAT     H148848   2.198   2.261   1.742 -2.6917 -1.8278 -1.7682
12032WAT     H248849   2.330   2.255   1.707 -1.3277  1.3186  1.9822
12032WAT    EPW48850   2.254   2.240   1.692 -0.6910 -0.2587 -0.3451
12033WAT      O48851   4.712   6.715   5.990 -0.3173  0.3399  0.4156
12033WAT     H148852   4.785   6.760   5.974 -0.7557  1.6711  1.9565
12033WAT     H248853   4.653   6.753   5.937 -0.2035  0.1433  0.1447
12033WAT    EPW48854   4.714   6.727   5.980 -0.3653  0.5075  0.6032
12034WAT      O48855   2.159   5.880   3.792  0.9303 -0.0336  0.2745
12034WAT     H148856   2.098   5.864   3.852  1.2662 -0.9531  0.3827
12034WAT     H248857   2.211   5.939   3.830  1.1693 -0.6473  0.9022
12034WAT    EPW48858   2.158   5.887   3.807  1.0152 -0.2601  0.3832
12035WAT      O48859   3.113   0.517   0.028  0.1500 -0.2457 -0.0154
12035WAT     H148860   3.032   0.533   0.057  0.3216  0.7330 -0.0515
12035WAT     H248861   3.146   0.464   0.089 -0.6240 -0.9174 -0.1694
12035WAT    EPW48862   3.106   0.512   0.041  0.0610 -0.2003 -0.0435
12036WAT      O48863   3.591   6.461   3.397  0.0844  0.0899  0.2731
12036WAT     H148864   3.662   6.422   3.430  0.7069  0.8116 -0.1848
12036WAT     H248865   3.567   6.408   3.332  1.0268  0.5338 -0.4560
12036WAT    EPW48866   3.598   6.447   3.393  0.3156  0.2621  0.0977
12037WAT      O48867   6.838   6.506   4.481 -0.0659  0.1116 -0.1427
12037WAT     H148868   6.755   6.480   4.496 -0.3917  1.0844 -0.2089
12037WAT     H248869   6.863   6.540   4.557  0.0502  0.3994 -0.3075
12037WAT    EPW48870   6.829   6.507   4.494 -0.0969  0.2978 -0.1768
12038WAT      O48871   4.217   6.352   0.982  0.0051 -0.0636 -0.3009
12038WAT     H148872   4.228   6.346   0.896  0.8595 -0.5980 -0.1695
12038WAT     H248873   4.276   6.296   1.014 -0.6592 -0.2757  0.6130
12038WAT    EPW48874   4.227   6.343   0.974  0.0332 -0.1739 -0.1465
12039WAT      O48875   1.316   1.006   1.281 -0.0499 -0.1818  0.5315
12039WAT     H148876   1.313   0.935   1.333 -0.4399 -0.7345 -0.2203
12039WAT     H248877   1.245   0.997   1.232  1.6850 -1.1778 -2.0030
12039WAT    EPW48878   1.305   0.994   1.282  0.1488 -0.4106  0.0460
12040WAT      O48879   0.921   5.309   3.417  0.0489 -0.5747  0.3484
12040WAT     H148880   0.938   5.303   3.503  1.1566 -0.8827  0.1253
12040WAT     H248881   0.993   5.347   3.385 -1.1996  1.5090 -0.1771
12040WAT    EPW48882   0.934   5.314   3.425  0.0281 -0.3124  0.2378
12041WAT      O48883   4.650   6.206   0.113  0.3875  0.0124 -0.7129
12041WAT     H148884   4.726   6.165   0.125  0.1318 -0.3050 -0.1864
12041WAT     H248885   4.668   6.262   0.049  1.5288  1.1411  0.5366
12041WAT    EPW48886   4.664   6.208   0.105  0.5184  0.1322 -0.4506
12042WAT      O48887   1.786   2.692   3.208  0.1571 -0.7307  0.0034
12042WAT     H148888   1.793   2.631   3.271 -0.3500  0.6169  1.4410
12042WAT     H248889   1.839   2.756   3.236  0.2047 -0.2366 -1.1566
12042WAT    EPW48890   1.795   2.692   3.222  0.0892 -0.4586  0.0444
12043WAT      O48891   0.575   6.944   1.545  0.2243  0.2359  0.0701
12043WAT     H148892   0.618   7.000   1.595  1.2542 -0.2821 -0.2081
12043WAT     H248893   0.506   6.990   1.517  0.8220  1.2234  0.1760
12043WAT    EPW48894   0.571   6.959   1.548  0.4647  0.3053  0.0446
12044WAT      O48895   2.426   2.628   0.119 -0.2672 -0.4602 -0.0204
12044WAT     H148896   2.492   2.670   0.081  0.2411  1.3200  2.5688
12044WAT     H248897   2.461   2.598   0.193 -2.0985 -0.4010  0.9279
12044WAT    EPW48898   2.441   2.630   0.124 -0.4627 -0.1885  0.5021
12045WAT      O48899   7.160   0.054   7.058  0.2005 -0.1900 -0.3755
12045WAT     H148900   7.094   0.006   7.088 -0.0113 -0.0006 -0.5386
12045WAT     H248901   7.160   0.124   7.110  0.1336 -0.0880 -0.5097
12045WAT    EPW48902   7.150   0.057   7.070  0.1593 -0.1469 -0.4194
12046WAT      O48903   0.551   4.614   1.427  0.3267  0.2661 -0.1704
12046WAT     H148904   0.594   4.580   1.495 -0.2268 -1.1759 -0.5022
12046WAT     H248905   0.498   4.672   1.464  0.2586 -0.2818  0.6271
12046WAT    EPW48906   0.549   4.617   1.443  0.2349 -0.0278 -0.1016
12047WAT      O48907   6.920   0.890   7.325 -0.5341  0.1703 -0.4043
12047WAT     H148908   6.897   0.819   7.369 -0.3110  0.1287 -0.3510
12047WAT     H248909   6.916   0.954   7.384  1.3815 -0.1498  0.1320
12047WAT    EPW48910   6.916   0.889   7.340 -0.2181  0.1169 -0.3172
12048WAT      O48911   1.989   0.340   5.819  0.0860 -0.1067 -0.0223
12048WAT     H148912   1.935   0.280   5.852  0.0346  0.9819  2.0306
12048WAT     H248913   1.934   0.397   5.780 -0.0030 -0.4014 -0.3371
12048WAT    EPW48914   1.973   0.339   5.818  0.0653  0.0106  0.2345
12049WAT      O48915   1.317   5.657   5.952 -0.0270  0.5865  0.6735
12049WAT     H148916   1.338   5.741   5.944 -0.9194  0.7089 -0.8103
12049WAT     H248917   1.255   5.656   6.014 -1.0211  1.2371 -0.2725
12049WAT    EPW48918   1.311   5.669   5.960 -0.3057  0.7007  0.3146
12050WAT      O48919   3.361   2.372   2.733  0.1815  0.3593 -0.4081
12050WAT     H148920   3.305   2.413   2.786 -0.3117  1.6414 -1.8163
12050WAT     H248921   3.383   2.434   2.675  1.9025 -0.5367 -0.7926
12050WAT    EPW48922   3.356   2.388   2.732  0.3628  0.4163 -0.6729
12051WAT      O48923   1.404   3.471   7.280 -0.3179  0.0318 -0.2565
12051WAT     H148924   1.468   3.521   7.250 -0.4838  0.4967  0.1516
12051WAT     H248925   1.394   3.411   7.218  0.0636  0.3462 -0.6278
12051WAT    EPW48926   1.412   3.469   7.266 -0.2861  0.1469 -0.2510
12052WAT      O48927   5.111   2.212   0.967  0.2510 -0.1985  0.4284
12052WAT     H148928   5.089   2.262   0.898 -0.3768  0.8460  1.3541
12052WAT     H248929   5.144   2.269   1.024  2.0524 -1.2286  0.5104
12052WAT    EPW48930   5.113   2.228   0.965  0.4244 -0.1964  0.5772
12053WAT      O48931   6.871   4.473   3.547 -0.0205  0.2035 -0.2399
12053WAT     H148932   6.791   4.506   3.560  0.5346  1.2784  0.6000
12053WAT     H248933   6.856   4.405   3.495 -1.6342 -0.3349  0.8353
12053WAT    EPW48934   6.857   4.468   3.541 -0.1768  0.2828  0.0430
12054WAT      O48935   1.223   7.034   1.313  0.3770 -0.6280 -0.3647
12054WAT     H148936   1.184   6.979   1.257  1.5468 -0.8043 -1.0410
12054WAT     H248937   1.206   6.999   1.391  1.1692 -2.0475 -0.7819
12054WAT    EPW48938   1.215   7.020   1.316  0.6668 -0.8638 -0.5262
12055WAT      O48939   1.085   3.446   3.944 -0.0858 -0.0551 -0.1203
12055WAT     H148940   1.103   3.386   4.004 -2.2146  0.3145  0.9853
12055WAT     H248941   0.998   3.446   3.939 -0.3295  3.6141  0.7283
12055WAT    EPW48942   1.075   3.437   3.952 -0.4363  0.5415  0.1684
12056WAT      O48943   1.036   6.286   0.342 -0.4488 -0.0305  0.0308
12056WAT     H148944   1.099   6.278   0.283  0.1131 -1.4154  0.7543
12056WAT     H248945   0.964   6.301   0.295 -0.4005 -3.0950 -1.2347
12056WAT    EPW48946   1.034   6.287   0.327 -0.3586 -0.6878 -0.0493
12057WAT      O48947   4.249   5.550   1.744  0.3141  0.0201 -0.4300
12057WAT     H148948   4.212   5.591   1.812  0.8038 -1.1696  0.5836
12057WAT     H248949   4.232   5.603   1.677  1.0040  1.9347  0.8303
12057WAT    EPW48950   4.241   5.564   1.744  0.4883  0.1272 -0.0941
12058WAT      O48951   4.327   6.383   3.472 -0.7773 -0.2551  0.4871
12058WAT     H148952   4.400   6.336   3.464 -1.0456 -0.4533 -1.1254
12058WAT     H248953   4.265   6.330   3.441 -1.3480  0.5121  0.2818
12058WAT    EPW48954   4.329   6.368   3.466 -0.9012 -0.1711  0.2186
12059WAT      O48955   0.645   5.151   0.059  0.2424 -0.3382  0.0850
12059WAT     H148956   0.656   5.122   0.141 -0.9075 -0.2189  0.2987
12059WAT     H248957   0.704   5.215   0.052 -1.2329  1.3425  1.6953
12059WAT    EPW48958   0.655   5.156   0.070 -0.1454 -0.0723  0.3545
12060WAT      O48959   6.759   2.184   6.246 -0.1380  0.4165 -0.0961
12060WAT     H148960   6.795   2.231   6.310  0.6992  0.5385 -0.6308
12060WAT     H248961   6.765   2.102   6.274 -1.7372  0.5988  0.9082
12060WAT    EPW48962   6.765   2.179   6.259 -0.2505  0.4614 -0.0267
12061WAT      O48963   4.727   2.031   2.558 -0.1842 -0.1234  0.4012
12061WAT     H148964   4.744   1.999   2.638 -1.8328 -1.2427  0.3646
12061WAT     H248965   4.750   2.115   2.563  1.3517 -0.5841  1.5082
12061WAT    EPW48966   4.733   2.039   2.571 -0.2009 -0.3568  0.5593
12062WAT      O48967   1.570   3.065   2.684 -0.1673 -0.4632 -0.1757
12062WAT     H148968   1.576   3.151   2.676  2.0022 -0.7414 -3.0706
12062WAT     H248969   1.616   3.048   2.757 -0.7384  0.7746  0.5026
12062WAT    EPW48970   1.577   3.075   2.694  0.0688 -0.3214 -0.5032
12063WAT      O48971   7.187   2.287   1.146 -0.5039 -0.0051  0.2019
12063WAT     H148972   7.202   2.270   1.231 -0.4410  0.3840  0.2675
12063WAT     H248973   7.184   2.374   1.143 -1.0845 -0.0324 -0.0980
12063WAT    EPW48974   7.189   2.297   1.158 -0.5804  0.0484  0.1673
12064WAT      O48975   5.124   0.929   2.849  0.0757  0.5611 -0.3842
12064WAT     H148976   5.061   0.932   2.909 -0.4050  0.4028 -0.8675
12064WAT     H248977   5.141   1.013   2.833 -1.0897  0.6492 -1.3362
12064WAT    EPW48978   5.117   0.942   2.855 -0.1675  0.5507 -0.5962
12065WAT      O48979   5.786   5.080   6.270  0.1446 -0.2878 -0.0473
12065WAT     H148980   5.720   5.095   6.325 -0.2075  0.9921 -0.7910
12065WAT     H248981   5.799   4.994   6.277 -2.7402 -0.9011 -1.1341
12065WAT    EPW48982   5.778   5.069   6.279 -0.3335 -0.1893 -0.3177
12066WAT      O48983   7.004   0.393   4.147  0.0324  0.5012  0.3675
12066WAT     H148984   6.934   0.389   4.199  1.3167  0.3402  2.1788
12066WAT     H248985   6.995   0.469   4.105 -0.5927  1.1005  1.5407
12066WAT    EPW48986   6.992   0.404   4.148  0.1298  0.5659  0.8084
12067WAT      O48987   5.791   0.230   1.393  0.2724  0.0642 -0.1080
12067WAT     H148988   5.810   0.301   1.441  1.2599 -0.6598  0.6133
12067WAT     H248989   5.869   0.195   1.377 -0.0577  0.0742 -1.9689
12067WAT    EPW48990   5.805   0.235   1.398  0.3695 -0.0412 -0.2763
12068WAT      O48991   3.766   5.635   0.937  0.3354 -0.0473 -0.1391
12068WAT     H148992   3.718   5.562   0.926 -1.1224  0.9186 -0.4040
12068WAT     H248993   3.845   5.604   0.958 -0.4461 -1.7044  0.5621
12068WAT    EPW48994   3.771   5.619   0.938  0.0046 -0.1494 -0.0746
12069WAT      O48995   6.683   5.385   2.930 -0.7652 -0.6703 -0.0029
12069WAT     H148996   6.656   5.343   2.858 -0.7335 -2.3508  0.8953
12069WAT     H248997   6.619   5.369   2.987 -1.0815  1.1387  0.2110
12069WAT    EPW48998   6.669   5.376   2.928 -0.8072 -0.6513  0.1614
12070WAT      O48999   0.579   4.590   3.944 -0.1219 -0.1948 -0.0345
12070WAT     H149000   0.535   4.657   3.979 -0.5695 -1.3873  1.8455
12070WAT     H249001   0.517   4.540   3.909  0.0901 -0.1886 -0.4187
12070WAT    EPW49002   0.563   4.593   3.944 -0.1567 -0.3700  0.1865
12071WAT      O49003   6.784   2.030   5.601  0.0432 -0.3201  0.0535
12071WAT     H149004   6.750   2.089   5.547 -0.0677 -0.4207  0.0119
12071WAT     H249005   6.869   2.049   5.603 -0.3235  1.5473  2.1423
12071WAT    EPW49006   6.791   2.042   5.594 -0.0273 -0.0591  0.3559
12072WAT      O49007   6.948   1.272   0.896  0.6762 -0.0544  0.4974
12072WAT     H149008   6.916   1.300   0.972  0.9765  0.7768  0.3334
12072WAT     H249009   6.907   1.196   0.882 -0.8422  0.7291  0.5391
12072WAT    EPW49010   6.937   1.265   0.905  0.4963  0.1841  0.4793
12073WAT      O49011   5.892   0.735   2.668 -0.0329 -0.1963 -0.1596
12073WAT     H149012   5.858   0.810   2.696  0.3718  0.6883 -1.9066
12073WAT     H249013   5.913   0.694   2.742 -1.2440  0.9176  0.8724
12073WAT    EPW49014   5.890   0.740   2.683 -0.1520  0.0989 -0.2652
12074WAT      O49015   3.075   4.561   2.816 -0.4715  0.1727 -0.1411
12074WAT     H149016   3.103   4.487   2.779  0.5828  0.3849  0.1874
12074WAT     H249017   3.110   4.558   2.896 -1.7164  0.2989  0.4316
12074WAT    EPW49018   3.084   4.549   2.822 -0.4996  0.2227 -0.0080
12075WAT      O49019   0.319   0.354   3.377 -0.8827 -0.0276 -0.0766
12075WAT     H149020   0.261   0.356   3.442 -0.7765 -0.5840  0.0411
12075WAT     H249021   0.390   0.391   3.412 -0.7586 -0.5185  0.1920
12075WAT    EPW49022   0.321   0.360   3.392 -0.8487 -0.1823 -0.0195
12076WAT      O49023   1.668   4.854   1.550  0.5951  0.1221  0.4448
12076WAT     H149024   1.713   4.816   1.485  0.4579  0.3191  0.2308
12076WAT     H249025   1.671   4.939   1.529 -0.0539  0.1171  0.3154
12076WAT    EPW49026   1.675   4.861   1.537  0.4790  0.1505  0.3941
12077WAT      O49027   4.385   0.136   3.159 -0.0791 -0.5147  0.3045
12077WAT     H149028   4.426   0.061   3.177  0.6285 -0.2616 -0.2228
12077WAT     H249029   4.433   0.171   3.096  0.7520  1.3179  1.8479
12077WAT    EPW49030   4.398   0.130   3.153  0.1482 -0.2066  0.4546
12078WAT      O49031   2.112   0.174   1.806  0.1197  0.1358 -0.2364
12078WAT     H149032   2.064   0.114   1.764  1.2339 -0.8432 -0.1349
12078WAT     H249033   2.190   0.136   1.816  0.0356  0.4689  2.4001
12078WAT    EPW49034   2.116   0.160   1.801  0.2719  0.0404  0.1681
12079WAT      O49035   2.738   4.295   4.433 -0.4006  0.3101 -0.1962
12079WAT     H149036   2.787   4.354   4.391 -1.7023  1.7184  0.1928
12079WAT     H249037   2.742   4.320   4.516 -0.4868 -0.5469  0.0837
12079WAT    EPW49038   2.746   4.307   4.439 -0.6056  0.3915 -0.0974
12080WAT      O49039   6.333   2.710   4.009  0.9384 -0.0624  0.1822
12080WAT     H149040   6.301   2.651   4.064  0.1772  0.0464 -0.1349
12080WAT     H249041   6.396   2.666   3.967  0.3529 -0.6772 -0.0852
12080WAT    EPW49042   6.338   2.695   4.011  0.7395 -0.1371  0.0958
12081WAT      O49043   1.710   3.025   6.664  0.5535 -0.0046  0.2182
12081WAT     H149044   1.647   2.968   6.647  1.0136 -0.1203 -1.2300
12081WAT     H249045   1.781   2.975   6.676  0.5863  0.1767  0.8231
12081WAT    EPW49046   1.712   3.009   6.663  0.6263  0.0051  0.0937
12082WAT      O49047   3.640   2.839   6.455 -0.4555 -0.0856 -0.0441
12082WAT     H149048   3.615   2.796   6.527 -2.6540 -0.5906 -1.0342
12082WAT     H249049   3.666   2.775   6.401 -0.0796  0.1797 -0.1827
12082WAT    EPW49050   3.640   2.823   6.458 -0.7248 -0.1210 -0.2108
12083WAT      O49051   5.209   5.628   0.466  0.1442 -0.0349  0.4970
12083WAT     H149052   5.175   5.636   0.386 -0.2201 -0.9072  0.5599
12083WAT     H249053   5.150   5.580   0.509  0.5372  0.0744  1.1703
12083WAT    EPW49054   5.195   5.622   0.460  0.1484 -0.1476  0.6058
12084WAT      O49055   4.725   0.218   1.639 -0.3582 -0.1258 -0.3146
12084WAT     H149056   4.669   0.244   1.701 -0.7701 -0.1996 -0.6533
12084WAT     H249057   4.793   0.187   1.685 -1.8271 -2.9312  0.2044
12084WAT    EPW49058   4.727   0.217   1.655 -0.6360 -0.5511 -0.2880
12085WAT      O49059   6.005   6.940   1.743 -1.2295  0.1764 -0.0369
12085WAT     H149060   5.981   6.872   1.695  1.7225 -0.9087 -0.2135
12085WAT     H249061   5.954   6.935   1.814 -0.2080 -3.1869  0.6381
12085WAT    EPW49062   5.994   6.929   1.747 -0.6425 -0.4807  0.0368
12086WAT      O49063   4.289   5.829   0.345  0.0946  0.2455  0.0600
12086WAT     H149064   4.299   5.824   0.259  0.3443 -0.0865  0.1062
12086WAT     H249065   4.206   5.853   0.355 -0.7397 -2.2771 -0.2258
12086WAT    EPW49066   4.279   5.832   0.334  0.0082 -0.1762  0.0246
12087WAT      O49067   6.944   1.676   5.955  0.3055 -0.2342  0.0796
12087WAT     H149068   6.947   1.614   5.894 -2.3422  0.3742 -0.7884
12087WAT     H249069   6.859   1.686   5.971  0.8033  0.7517  2.7640
12087WAT    EPW49070   6.932   1.668   5.948 -0.0121  0.0013  0.3479
12088WAT      O49071   5.201   0.975   6.636  0.3211  0.0584  0.4698
12088WAT     H149072   5.123   1.012   6.650  0.2410  0.3822 -0.7588
12088WAT     H249073   5.211   0.979   6.550  0.9904 -1.4409  0.4402
12088WAT    EPW49074   5.191   0.981   6.625  0.4081 -0.1152  0.2839
12089WAT      O49075   2.277   6.246   6.269 -0.5771 -0.1697 -0.3745
12089WAT     H149076   2.246   6.247   6.351 -2.2530 -0.2253 -0.9693
12089WAT     H249077   2.329   6.316   6.266 -0.7879  0.0540  0.6190
12089WAT    EPW49078   2.280   6.256   6.281 -0.8558 -0.1448 -0.3156
12090WAT      O49079   7.223   1.137   3.129  0.0060  0.1178  0.1040
12090WAT     H149080   7.212   1.192   3.197  0.1811  0.0509  0.1872
12090WAT     H249081   7.199   1.185   3.060 -1.8473 -0.3535  0.3752
12090WAT    EPW49082   7.218   1.153   3.129 -0.2419  0.0383  0.1564
12091WAT      O49083   6.504   0.253   3.273  0.6426  0.2413  0.4363
12091WAT     H149084   6.507   0.291   3.351  0.4147  0.6552  0.2505
12091WAT     H249085   6.579   0.277   3.236 -0.1896  1.8995 -0.2941
12091WAT    EPW49086   6.516   0.262   3.279  0.4860  0.5474  0.3010
12092WAT      O49087   0.426   6.338   2.058 -0.2574 -0.3395 -0.3289
12092WAT     H149088   0.467   6.413   2.045 -0.4404  0.1472  1.5480
12092WAT     H249089   0.341   6.360   2.057 -0.3110 -0.4838  0.3220
12092WAT    EPW49090   0.419   6.352   2.056 -0.2923 -0.2889  0.0445
12093WAT      O49091   2.211   6.714   6.066  0.0779 -0.4788  0.0321
12093WAT     H149092   2.279   6.672   6.031  0.1672 -2.1700  2.0339
12093WAT     H249093   2.147   6.655   6.062 -2.0500  1.7128 -3.6484
12093WAT    EPW49094   2.212   6.699   6.060 -0.2232 -0.4049 -0.2159
12094WAT      O49095   7.172   6.727   3.831  0.2497  0.2978  0.0354
12094WAT     H149096   7.163   6.724   3.918  0.4027 -0.9697  0.0307
12094WAT     H249097   7.257   6.710   3.819  0.6570  2.3083 -0.3135
12094WAT    EPW49098   7.183   6.724   3.842  0.3325  0.4076 -0.0168
12095WAT      O49099   0.618   2.214   3.848  0.4199  0.7146  0.6342
12095WAT     H149100   0.566   2.264   3.898  2.5135  1.4165  2.2981
12095WAT     H249101   0.694   2.216   3.891  2.2057  0.8073 -2.2913
12095WAT    EPW49102   0.621   2.222   3.862  0.9929  0.8320  0.4479
12096WAT      O49103   4.556   1.677   2.738 -0.3013 -0.5916  0.1009
12096WAT     H149104   4.558   1.706   2.820 -3.2096  1.2933 -0.3505
12096WAT     H249105   4.627   1.626   2.732  1.5911  1.4162  2.9237
12096WAT    EPW49106   4.567   1.674   2.749 -0.4514 -0.0166  0.4512
12097WAT      O49107   5.764   2.478   3.124  0.3061 -0.0783 -0.0503
12097WAT     H149108   5.712   2.466   3.054 -0.3635  1.5465  0.1128
12097WAT     H249109   5.828   2.527   3.093 -0.2792  1.1198  0.5531
12097WAT    EPW49110   5.766   2.483   3.109  0.1208  0.3387  0.0629
12098WAT      O49111   3.795   4.803   2.599  0.1085  0.3455 -0.0427
12098WAT     H149112   3.846   4.782   2.666 -0.4918  0.2559  0.3863
12098WAT     H249113   3.730   4.746   2.603  0.5889 -0.3430 -1.3280
12098WAT    EPW49114   3.793   4.791   2.609  0.0908  0.2306 -0.1692
12099WAT      O49115   1.148   3.629   6.934  0.2266  0.9342 -0.0564
12099WAT     H149116   1.203   3.565   6.958 -1.0428  0.1363  0.8579
12099WAT     H249117   1.132   3.611   6.850 -1.7632 -1.3160  0.6812
12099WAT    EPW49118   1.154   3.617   6.925 -0.2549  0.4839  0.1876
12100WAT      O49119   1.296   5.829   2.837 -0.0236 -0.3944  0.7551
12100WAT     H149120   1.302   5.816   2.923 -1.1785  0.8377  1.0455
12100WAT     H249121   1.310   5.914   2.828  1.2912 -0.7019 -0.4340
12100WAT    EPW49122   1.299   5.840   2.849 -0.0000 -0.2578  0.6224
12101WAT      O49123   2.589   1.192   4.869 -0.2997 -0.3332 -0.7498
12101WAT     H149124   2.613   1.109   4.880 -0.2813 -0.2018  0.2409
12101WAT     H249125   2.502   1.187   4.861 -0.6834 -0.2334  2.1625
12101WAT    EPW49126   2.580   1.179   4.869 -0.3537 -0.2991 -0.1732
12102WAT      O49127   1.749   3.595   4.881  0.1933 -0.1067 -0.4448
12102WAT     H149128   1.687   3.571   4.825 -0.5319 -0.6885  0.5712
12102WAT     H249129   1.818   3.549   4.856 -0.7880 -2.3072  0.5885
12102WAT    EPW49130   1.750   3.585   4.869 -0.0588 -0.5177 -0.1421
12103WAT      O49131   0.675   1.942   1.636 -0.2438 -0.5589  0.0205
12103WAT     H149132   0.753   1.981   1.624  0.2383 -1.0576  1.3522
12103WAT     H249133   0.687   1.862   1.603 -0.1294 -0.6910  0.3771
12103WAT    EPW49134   0.689   1.936   1.629 -0.1557 -0.6521  0.2699
12104WAT      O49135   0.919   5.942   0.388  0.0123  0.4771 -0.3799
12104WAT     H149136   0.902   5.959   0.471  2.1101 -0.8206  0.4076
12104WAT     H249137   0.868   5.873   0.370  2.8634 -2.4226  1.4748
12104WAT    EPW49138   0.909   5.934   0.398  0.7433 -0.1429  0.0104
12105WAT      O49139   5.523   5.126   1.608  0.0876 -0.2356 -0.1075
12105WAT     H149140   5.481   5.050   1.601 -0.3228  0.1078 -1.9971
12105WAT     H249141   5.502   5.167   1.534  0.5058  1.6202  0.7598
12105WAT    EPW49142   5.514   5.121   1.596  0.0887  0.0893 -0.2585
12106WAT      O49143   0.749   1.290   6.497 -0.0300  0.4033  0.1736
12106WAT     H149144   0.708   1.314   6.570  1.1610 -0.9375  1.3293
12106WAT     H249145   0.831   1.275   6.522  0.3376 -0.4338 -1.3532
12106WAT    EPW49146   0.755   1.291   6.511  0.2002  0.0816  0.1188
12107WAT      O49147   1.218   2.457   1.597  0.2397 -0.4812 -0.0908
12107WAT     H149148   1.136   2.463   1.570  0.6316  0.9917 -1.1173
12107WAT     H249149   1.254   2.400   1.541 -0.0357 -0.9917  0.2494
12107WAT    EPW49150   1.211   2.450   1.584  0.2569 -0.3390 -0.1922
12108WAT      O49151   6.783   3.232   0.322  0.8908 -0.8406  0.2213
12108WAT     H149152   6.798   3.314   0.346  1.3786 -0.8349 -0.0983
12108WAT     H249153   6.778   3.236   0.235 -0.4221 -0.9330  0.2724
12108WAT    EPW49154   6.784   3.245   0.313  0.7689 -0.8534  0.1816
12109WAT      O49155   1.649   2.899   1.662 -0.2190 -0.7207  0.8059
12109WAT     H149156   1.593   2.862   1.606  0.1520 -1.9214  1.1819
12109WAT     H249157   1.694   2.954   1.611  0.1525 -1.8281 -0.1275
12109WAT    EPW49158   1.648   2.901   1.646 -0.1093 -1.0616  0.7235
12110WAT      O49159   2.480   2.836   5.128  0.0189  0.3208 -0.3492
12110WAT     H149160   2.465   2.839   5.213 -2.2073  0.3535 -0.6791
12110WAT     H249161   2.556   2.878   5.118  0.2573  0.3967  1.5830
12110WAT    EPW49162   2.489   2.843   5.139 -0.2747  0.3369 -0.1125
12111WAT      O49163   3.129   0.483   1.482 -0.2415  0.3632  0.5728
12111WAT     H149164   3.079   0.423   1.520  1.7891 -0.4654  2.1386
12111WAT     H249165   3.176   0.515   1.548  2.9739 -0.6353 -1.0134
12111WAT    EPW49166   3.129   0.479   1.498  0.5334  0.0933  0.5698
12112WAT      O49167   5.055   2.789   2.114  0.2363  0.3261 -0.1624
12112WAT     H149168   4.979   2.785   2.157  0.3415  0.3077  0.0262
12112WAT     H249169   5.079   2.873   2.123  1.1332 -0.0614  1.3706
12112WAT    EPW49170   5.047   2.801   2.122  0.3843  0.2661  0.0919
12113WAT      O49171   2.371   2.848   3.264 -0.0112  0.1995  0.0774
12113WAT     H149172   2.359   2.817   3.345 -0.3041  1.4932  0.5509
12113WAT     H249173   2.449   2.816   3.241  0.4645  0.4990  1.2024
12113WAT    EPW49174   2.380   2.839   3.272  0.0158  0.4348  0.3135
12114WAT      O49175   3.332   7.111   2.576  0.0379 -0.3820 -0.0997
12114WAT     H149176   3.256   7.150   2.593 -0.2755 -0.7728 -0.5792
12114WAT     H249177   3.341   7.118   2.489 -0.2357 -1.7303 -0.2586
12114WAT    EPW49178   3.322   7.118   2.566 -0.0488 -0.6389 -0.1940
12115WAT      O49179   0.899   3.645   4.515  0.6665  0.4273 -0.0375
12115WAT     H149180   0.821   3.626   4.550  0.8850  0.7037  0.6131
12115WAT     H249181   0.955   3.625   4.579  1.1932 -0.3788 -0.7243
12115WAT    EPW49182   0.896   3.639   4.529  0.7766  0.3490 -0.0429
12116WAT      O49183   2.894   2.282   2.577  0.1808  0.1867 -0.9361
12116WAT     H149184   2.906   2.359   2.537  0.8162  1.1730  1.0188
12116WAT     H249185   2.974   2.257   2.598 -0.1005 -0.4681 -0.6211
12116WAT    EPW49186   2.907   2.290   2.574  0.2331  0.2357 -0.6008
12117WAT      O49187   3.776   5.517   2.889  0.3915 -0.6089 -0.0659
12117WAT     H149188   3.809   5.455   2.941 -1.3028  0.1297  2.0650
12117WAT     H249189   3.836   5.580   2.893  0.5194 -0.7667  0.6097
12117WAT    EPW49190   3.790   5.517   2.897  0.1601 -0.5231  0.3487
12118WAT      O49191   4.185   6.613   2.533 -1.0679  0.4834 -0.2609
12118WAT     H149192   4.269   6.599   2.512 -1.1635 -3.7367  1.1497
12118WAT     H249193   4.173   6.563   2.603 -4.3134  2.6608  0.9748
12118WAT    EPW49194   4.195   6.604   2.540 -1.5614  0.1816  0.1300
12119WAT      O49195   6.705   3.621   4.941  0.1185  0.5151  0.0996
12119WAT     H149196   6.715   3.536   4.926 -0.7000  0.7964 -2.3572
12119WAT     H249197   6.631   3.641   4.901 -1.2362  1.9132  2.9625
12119WAT    EPW49198   6.696   3.611   4.933 -0.2025  0.7632  0.1596
12120WAT      O49199   1.368   2.776   1.641 -0.3007  0.1795  0.0811
12120WAT     H149200   1.290   2.816   1.635 -0.5352 -0.3921 -0.9661
12120WAT     H249201   1.355   2.716   1.703 -0.0747  1.4147  1.3534
12120WAT    EPW49202   1.354   2.773   1.649 -0.3019  0.2775  0.1144
12121WAT      O49203   1.644   3.780   0.313 -0.0871  0.2307  0.1800
12121WAT     H149204   1.731   3.783   0.324  0.0317 -2.5911  0.6393
12121WAT     H249205   1.613   3.821   0.384  0.8466  0.9236  0.2104
12121WAT    EPW49206   1.652   3.787   0.325  0.0684 -0.0838  0.2523
12122WAT      O49207   2.711   2.272   7.163  0.7244  0.1082  0.2393
12122WAT     H149208   2.700   2.326   7.230  0.5878 -0.8116  0.9736
12122WAT     H249209   2.757   2.206   7.197  1.1673 -0.1016 -0.7146
12122WAT    EPW49210   2.716   2.271   7.178  0.7697 -0.0587  0.2069
12123WAT      O49211   2.684   1.857   1.382 -0.2697 -0.2966  0.0684
12123WAT     H149212   2.714   1.913   1.442  0.1937  0.5820 -0.9579
12123WAT     H249213   2.616   1.898   1.347 -0.1004 -0.4875 -0.5016
12123WAT    EPW49214   2.679   1.871   1.386 -0.1763 -0.1950 -0.1674
12124WAT      O49215   1.391   0.035   0.918  0.5082  0.6395  0.4695
12124WAT     H149216   1.321   0.028   0.969  1.4155 -1.2145  1.5728
12124WAT     H249217   1.456   0.050   0.975  1.3283  0.0564 -0.2915
12124WAT    EPW49218   1.390   0.036   0.934  0.7633  0.2795  0.5201
12125WAT      O49219   2.777   7.185   6.413  0.0031  0.9170  0.1771
12125WAT     H149220   2.832   7.147   6.470 -1.9109 -0.3637  1.2659
12125WAT     H249221   2.771   7.127   6.349  0.3078  1.2883 -0.1911
12125WAT    EPW49222   2.784   7.171   6.412 -0.2346  0.7827  0.2835
12126WAT      O49223   7.084   2.180   0.890  0.4168 -0.1786  0.1180
12126WAT     H149224   7.047   2.254   0.862  1.8485  0.0435 -1.3489
12126WAT     H249225   7.151   2.207   0.938  0.7735 -0.5242 -0.1792
12126WAT    EPW49226   7.088   2.195   0.893  0.6810 -0.1968 -0.1426
12127WAT      O49227   6.324   1.270   5.715 -0.7336 -0.1457  0.4288
12127WAT     H149228   6.298   1.194   5.749  0.0548 -0.2614  0.8044
12127WAT     H249229   6.333   1.321   5.785  1.1029 -0.4459  0.4686
12127WAT    EPW49230   6.322   1.266   5.731 -0.3458 -0.2072  0.4902
12128WAT      O49231   4.494   2.736   5.877  0.1649 -0.3825 -0.1832
12128WAT     H149232   4.523   2.813   5.848  0.2922 -1.0078 -1.8656
12128WAT     H249233   4.565   2.685   5.871 -0.1823 -0.8755 -0.1042
12128WAT    EPW49234   4.509   2.740   5.872  0.1324 -0.5477 -0.4201
12129WAT      O49235   2.176   1.569   0.158  0.0080 -0.7885  0.0282
12129WAT     H149236   2.243   1.609   0.195 -0.4262 -0.8798  0.9337
12129WAT     H249237   2.142   1.630   0.105 -0.1892 -0.1938  0.8220
12129WAT    EPW49238   2.181   1.584   0.155 -0.0853 -0.7142  0.2792
12130WAT      O49239   0.662   1.056   3.021  1.1429 -0.7075 -0.2772
12130WAT     H149240   0.686   1.066   3.105 -1.0144 -2.7602  0.7044
12130WAT     H249241   0.678   1.134   2.986  4.2852 -0.4021  1.3997
12130WAT    EPW49242   0.668   1.069   3.028  1.2884 -0.9656  0.1155
12131WAT      O49243   1.663   4.831   3.121 -0.5184  0.1757  0.4381
12131WAT     H149244   1.658   4.776   3.053 -0.6039  0.8063 -0.0797
12131WAT     H249245   1.693   4.781   3.185  1.7178  0.0485 -0.6211
12131WAT    EPW49246   1.666   4.816   3.120 -0.2007  0.2501  0.2051
12132WAT      O49247   2.236   5.954   5.457 -0.7314 -0.0833  0.0062
12132WAT     H149248   2.293   5.973   5.393 -0.6225  1.1480  0.4501
12132WAT     H249249   2.288   5.945   5.527 -1.0828  1.3959  0.4879
12132WAT    EPW49250   2.252   5.955   5.457 -0.7672  0.3171  0.1430
12133WAT      O49251   2.159   1.755   7.201 -0.5169  0.1287 -1.0106
12133WAT     H149252   2.087   1.782   7.161  0.3913  1.4503 -1.8041
12133WAT     H249253   2.224   1.787   7.153  0.6239 -0.7532 -0.1423
12133WAT    EPW49254   2.158   1.764   7.188 -0.2142  0.1937 -0.9995
12134WAT      O49255   1.633   6.921   6.589  0.0540  0.2912  0.1161
12134WAT     H149256   1.612   6.941   6.671 -2.2018 -1.6388  0.1232
12134WAT     H249257   1.648   6.835   6.593 -0.4155  0.1068 -1.5402
12134WAT    EPW49258   1.632   6.911   6.602 -0.3486 -0.0212 -0.1275
12135WAT      O49259   4.171   4.000   6.728  0.1716 -0.0938 -0.7887
12135WAT     H149260   4.239   4.045   6.756 -0.4700  0.6546 -0.3833
12135WAT     H249261   4.127   4.057   6.678  0.2934 -0.8282 -1.7747
12135WAT    EPW49262   4.174   4.015   6.724  0.0949 -0.0918 -0.8745
12136WAT      O49263   0.532   4.231   6.887  0.6254  0.1266 -0.3808
12136WAT     H149264   0.542   4.314   6.911  1.3960 -0.1049  0.1622
12136WAT     H249265   0.473   4.200   6.943 -0.5905  0.5970 -1.3496
12136WAT    EPW49266   0.525   4.238   6.899  0.5596  0.1618 -0.4437
12137WAT      O49267   0.832   2.475   4.046  0.3623 -0.5350 -0.2250
12137WAT     H149268   0.841   2.556   4.078 -2.1516 -0.6250  0.9289
12137WAT     H249269   0.898   2.432   4.083 -0.2846  0.2366  2.0558
12137WAT    EPW49270   0.843   2.481   4.057 -0.1046 -0.4343  0.2824
12138WAT      O49271   2.237   1.210   3.068 -0.6567 -0.4634  0.1509
12138WAT     H149272   2.260   1.126   3.067  1.2265  0.0111 -0.2832
12138WAT     H249273   2.230   1.228   3.153  0.8245 -0.6070  0.3278
12138WAT    EPW49274   2.239   1.200   3.080 -0.1597 -0.4145  0.1129
12139WAT      O49275   1.054   1.017   1.137  0.0603 -0.3385 -0.2967
12139WAT     H149276   0.998   0.951   1.151  0.4150 -0.7522 -0.8192
12139WAT     H249277   1.087   0.999   1.059 -1.6728  1.7588 -1.6359
12139WAT    EPW49278   1.050   1.004   1.128 -0.1433 -0.0898 -0.5717
12140WAT      O49279   2.174   1.807   6.853  0.3583 -0.1008  0.2518
12140WAT     H149280   2.209   1.881   6.884 -0.1533 -0.5981  2.1187
12140WAT     H249281   2.096   1.833   6.823  0.1659  0.1144  0.9272
12140WAT    EPW49282   2.168   1.822   6.853  0.2543 -0.1425  0.6274
12141WAT      O49283   0.044   2.327   2.708  0.1404 -0.0964  0.4581
12141WAT     H149284   0.029   2.382   2.641  0.6918 -0.0785  0.3454
12141WAT     H249285   0.130   2.336   2.723  0.0594 -0.2602  1.0308
12141WAT    EPW49286   0.055   2.337   2.700  0.2099 -0.1180  0.5261
12142WAT      O49287   1.896   2.844   2.119 -0.2194 -0.3393  0.2056
12142WAT     H149288   1.909   2.873   2.200  0.6921  0.3414 -0.1663
12142WAT     H249289   1.814   2.868   2.102 -0.8799 -1.6087  1.3519
12142WAT    EPW49290   1.886   2.852   2.128 -0.1823 -0.4262  0.3200
12143WAT      O49291   0.358   6.395   7.351 -0.0959 -0.2607 -0.9288
12143WAT     H149292   0.362   6.318   7.391  1.2842 -0.5685 -1.6005
12143WAT     H249293   0.282   6.429   7.379  1.0080 -0.1619  2.4585
12143WAT    EPW49294   0.347   6.389   7.361  0.2710 -0.2916 -0.5276
12144WAT      O49295   0.163   5.552   0.951  0.5675  0.1801 -0.5326
12144WAT     H149296   0.104   5.495   0.982  0.7027  1.5272  2.6041
12144WAT     H249297   0.239   5.521   0.982  0.8649  1.0160 -0.3929
12144WAT    EPW49298   0.166   5.539   0.960  0.6314  0.5026 -0.0486
12145WAT      O49299   2.620   5.151   6.489  0.1379  0.3598  0.5495
12145WAT     H149300   2.613   5.083   6.435  0.4466  0.8910 -0.1832
12145WAT     H249301   2.698   5.140   6.526 -0.0618  0.0106  0.8800
12145WAT    EPW49302   2.631   5.139   6.486  0.1540  0.3867  0.4901
12146WAT      O49303   0.747   3.373   5.573  0.2054  0.1008  0.6407
12146WAT     H149304   0.825   3.358   5.537 -0.6759 -0.9593 -0.9459
12146WAT     H249305   0.753   3.456   5.601  1.3164  0.6596 -1.0655
12146WAT    EPW49306   0.760   3.383   5.572  0.2393  0.0267  0.1543
12147WAT      O49307   6.266   2.164   0.726 -0.3973 -0.8783 -0.0088
12147WAT     H149308   6.296   2.212   0.660 -0.6709 -0.1229  0.3999
12147WAT     H249309   6.202   2.117   0.690 -2.2737  1.3485  0.1860
12147WAT    EPW49310   6.261   2.164   0.711 -0.7149 -0.4378  0.0803
12148WAT      O49311   0.157   6.821   6.977 -0.2366 -0.0364  0.3387
12148WAT     H149312   0.070   6.821   6.984 -0.1738 -0.8471  1.5701
12148WAT     H249313   0.181   6.764   7.039  1.1430 -0.2289 -0.3591
12148WAT    EPW49314   0.147   6.812   6.987 -0.0235 -0.1846  0.4175
12149WAT      O49315   7.095   3.009   6.126 -0.2332 -0.1902  0.1502
12149WAT     H149316   7.052   3.078   6.096 -3.9732 -1.3744  2.1868
12149WAT     H249317   7.165   3.044   6.164 -0.3711  2.1066 -1.4629
12149WAT    EPW49318   7.099   3.024   6.127 -0.8060 -0.0258  0.2128
12150WAT      O49319   0.125   6.690   3.804  0.3484 -0.2070  0.3659
12150WAT     H149320   0.113   6.768   3.768  0.3459 -0.0684  0.6653
12150WAT     H249321   0.167   6.645   3.743  0.6617  0.1391  0.3278
12150WAT    EPW49322   0.129   6.695   3.790  0.3943 -0.1354  0.4045
12151WAT      O49323   5.250   2.479   5.578 -0.3320  0.4224 -0.2532
12151WAT     H149324   5.211   2.542   5.624  0.6122 -0.1110  1.3660
12151WAT     H249325   5.319   2.518   5.542 -0.2354  0.5137  0.0280
12151WAT    EPW49326   5.254   2.494   5.580 -0.1782  0.3571  0.0275
12152WAT      O49327   4.698   4.103   2.337 -0.0625 -0.8637  0.1113
12152WAT     H149328   4.783   4.116   2.326 -0.1294 -1.4019 -1.1886
12152WAT     H249329   4.672   4.174   2.381  1.3073 -1.4099  1.9082
12152WAT    EPW49330   4.707   4.116   2.342  0.1300 -1.0239  0.1847
12153WAT      O49331   0.113   2.378   3.133  0.0398 -0.1392 -0.4969
12153WAT     H149332   0.157   2.304   3.121 -1.0764 -0.9259  0.0487
12153WAT     H249333   0.034   2.361   3.100  0.1350  1.2464 -1.4930
12153WAT    EPW49334   0.108   2.365   3.127 -0.1110 -0.0507 -0.5635
12154WAT      O49335   0.024   2.052   5.465  0.0785 -0.1126  0.0624
12154WAT     H149336   0.000   1.985   5.515 -0.1818  0.3615  0.5829
12154WAT     H249337   0.107   2.065   5.486 -0.1821  0.4332  0.7786
12154WAT    EPW49338   0.033   2.044   5.475  0.0015  0.0380  0.2451
12155WAT      O49339   7.035   1.795   1.322 -0.0545  0.8652 -0.1443
12155WAT     H149340   7.033   1.727   1.377  0.5880  1.7055  0.9388
12155WAT     H249341   7.083   1.766   1.255  2.1115  0.9437  1.3002
12155WAT    EPW49342   7.042   1.780   1.320  0.3604  1.0010  0.2291
12156WAT      O49343   5.150   1.880   1.618  0.1846  0.3662  0.0560
12156WAT     H149344   5.102   1.878   1.545 -1.3877 -2.1488  1.0510
12156WAT     H249345   5.208   1.816   1.607  1.2726  1.2703  0.2527
12156WAT    EPW49346   5.151   1.870   1.605  0.1131  0.1282  0.2320
12157WAT      O49347   1.819   5.491   6.928 -0.3524  0.5937  0.1594
12157WAT     H149348   1.811   5.545   6.996 -0.0842  0.5587  0.2214
12157WAT     H249349   1.893   5.517   6.890 -1.0982  1.3468 -0.7798
12157WAT    EPW49350   1.829   5.503   6.933 -0.4230  0.6998  0.0298
12158WAT      O49351   2.778   3.820   5.123  0.1245 -0.3367 -0.1482
12158WAT     H149352   2.743   3.804   5.201  3.1897 -2.2453  1.0486
12158WAT     H249353   2.843   3.876   5.141  0.3827 -0.1901 -1.4685
12158WAT    EPW49354   2.782   3.826   5.137  0.6155 -0.5970 -0.1664
12159WAT      O49355   0.750   4.306   0.959 -0.4065 -0.4116 -0.1646
12159WAT     H149356   0.811   4.346   0.911  0.0138 -0.1837  0.5501
12159WAT     H249357   0.729   4.365   1.020 -2.5660  0.1766 -1.3681
12159WAT    EPW49358   0.756   4.321   0.961 -0.6634 -0.2911 -0.2368
12160WAT      O49359   5.358   2.848   4.878 -0.8055 -0.7958 -0.1127
12160WAT     H149360   5.311   2.863   4.950  0.1135  0.0285  0.3350
12160WAT     H249361   5.429   2.897   4.889  0.0928 -1.8832 -0.8550
12160WAT    EPW49362   5.361   2.858   4.890 -0.5370 -0.8347 -0.1562
12161WAT      O49363   0.016   0.287   6.895  0.6138  0.2036 -0.3181
12161WAT     H149364   0.050   0.364   6.919 -1.4524  0.7357  1.1846
12161WAT     H249365   0.024   0.238   6.967  0.8485 -0.6236 -0.8927
12161WAT    EPW49366   0.022   0.291   6.909  0.3432  0.1600 -0.1810
12162WAT      O49367   5.598   2.885   3.252  0.1559 -0.0160  0.2671
12162WAT     H149368   5.602   2.917   3.171 -1.6517 -0.7965 -0.1804
12162WAT     H249369   5.613   2.955   3.302  0.5579  0.6313 -0.7256
12162WAT    EPW49370   5.600   2.900   3.247 -0.0517 -0.0357  0.0544
12163WAT      O49371   3.004   1.982   3.012  0.2540 -0.1969  0.0244
12163WAT     H149372   3.051   2.052   2.991 -0.4024  0.4666  0.7247
12163WAT     H249373   2.932   2.015   3.048  0.4712 -1.2494  1.5016
12163WAT    EPW49374   3.000   1.997   3.014  0.1891 -0.2544  0.3461
12164WAT      O49375   2.541   4.359   5.860  0.2058  0.3232  0.2642
12164WAT     H149376   2.478   4.414   5.835  0.6491  0.7806  0.1453
12164WAT     H249377   2.613   4.392   5.823  0.2322 -1.3001 -1.2778
12164WAT    EPW49378   2.542   4.372   5.851  0.2752  0.1510  0.0189
12165WAT      O49379   1.013   1.274   1.177 -0.3859  0.0197 -0.2074
12165WAT     H149380   1.083   1.285   1.227 -1.5197  0.4801  1.3423
12165WAT     H249381   1.024   1.194   1.144  1.9715  0.9194 -1.8912
12165WAT    EPW49382   1.025   1.264   1.179 -0.2051  0.2206 -0.2272
12166WAT      O49383   5.722   2.363   5.124 -0.3836  0.6900 -0.0738
12166WAT     H149384   5.796   2.382   5.083  0.9390 -1.8620  0.9178
12166WAT     H249385   5.664   2.355   5.059  1.6945 -3.5849 -1.7765
12166WAT    EPW49386   5.724   2.365   5.109  0.1187 -0.3184 -0.1788
12167WAT      O49387   0.156   3.631   4.651 -0.1575  0.4025  0.2840
12167WAT     H149388   0.142   3.620   4.565 -1.1858  0.9270  0.3625
12167WAT     H249389   0.115   3.706   4.668  1.1393  0.9845  0.9973
12167WAT    EPW49390   0.148   3.640   4.641 -0.1178  0.5660  0.4010
12168WAT      O49391   1.476   1.315   0.380 -0.1268  0.3697 -0.1538
12168WAT     H149392   1.488   1.395   0.411 -0.4199 -0.0456  1.0749
12168WAT     H249393   1.540   1.306   0.321  0.3866  1.2150  0.2596
12168WAT    EPW49394   1.487   1.325   0.375 -0.0942  0.4332  0.0888
12169WAT      O49395   0.658   3.785   1.224  0.6418  0.4143  0.4907
12169WAT     H149396   0.594   3.844   1.218 -1.0541 -1.1083  2.2729
12169WAT     H249397   0.693   3.802   1.302  0.5183 -0.5443  0.7642
12169WAT    EPW49398   0.654   3.797   1.235  0.3730  0.0477  0.7944
12170WAT      O49399   7.249   4.599   6.681 -0.0539  0.3038  0.1077
12170WAT     H149400   7.286   4.671   6.713 -0.3431  0.2274  0.6271
12170WAT     H249401   7.279   4.594   6.599 -0.5258  1.3530 -0.1389
12170WAT    EPW49402   7.259   4.609   6.673 -0.1664  0.4475  0.1480
12171WAT      O49403   4.590   5.650   1.908 -0.4864  0.0485 -0.0911
12171WAT     H149404   4.597   5.599   1.838 -0.7291  0.7226 -0.6233
12171WAT     H249405   4.577   5.730   1.874  1.8564  0.8390  0.6628
12171WAT    EPW49406   4.589   5.654   1.892 -0.1761  0.2648 -0.0584
12172WAT      O49407   4.139   6.947   1.782 -0.4080  0.5230  0.1452
12172WAT     H149408   4.055   6.949   1.758 -1.0445  0.7302  2.2172
12172WAT     H249409   4.143   6.882   1.839  1.2811 -0.6640 -1.2068
12172WAT    EPW49410   4.127   6.938   1.787 -0.2525  0.3783  0.2515
12173WAT      O49411   5.100   4.176   7.106 -0.1710 -0.1980  0.0629
12173WAT     H149412   5.144   4.179   7.031  0.0585 -0.8260  0.1593
12173WAT     H249413   5.162   4.190   7.166 -0.1017 -1.0250  0.1967
12173WAT    EPW49414   5.116   4.178   7.104 -0.1269 -0.4129  0.0969
12174WAT      O49415   1.715   5.504   0.353 -0.3566 -0.0632 -0.4796
12174WAT     H149416   1.778   5.457   0.314 -2.4523 -0.5914 -3.5982
12174WAT     H249417   1.655   5.445   0.372 -0.3634  0.5598  1.6326
12174WAT    EPW49418   1.716   5.488   0.350 -0.6672 -0.0492 -0.6282
12175WAT      O49419   2.800   2.082   4.904 -0.0283 -0.5645 -0.0661
12175WAT     H149420   2.717   2.105   4.897  0.3798  1.6818  1.4431
12175WAT     H249421   2.842   2.141   4.856  0.8583  0.2460  1.5981
12175WAT    EPW49422   2.794   2.094   4.896  0.1629 -0.1129  0.4027
12176WAT      O49423   1.038   4.078   6.166 -0.1712  0.2356  0.1946
12176WAT     H149424   1.002   4.129   6.227 -2.3021  1.0383 -1.6372
12176WAT     H249425   1.103   4.126   6.134 -1.3020  1.3066 -0.5710
12176WAT    EPW49426   1.043   4.092   6.170 -0.6530  0.5123 -0.1891
12177WAT      O49427   2.291   4.076   3.966 -0.0311 -0.0194  0.6693
12177WAT     H149428   2.225   4.024   3.990  0.1748 -0.2045  0.8449
12177WAT     H249429   2.357   4.020   3.953  0.1600  0.1874  0.7419
12177WAT    EPW49430   2.291   4.060   3.968  0.0275 -0.0162  0.7060
12178WAT      O49431   5.278   4.061   6.438  0.0951  0.3922 -0.3161
12178WAT     H149432   5.309   3.979   6.436  0.2799  0.4046  0.9142
12178WAT     H249433   5.232   4.068   6.364 -1.1921 -1.3472  0.2482
12178WAT    EPW49434   5.276   4.050   6.427 -0.0677  0.1371 -0.0510
12179WAT      O49435   0.538   1.602   1.414  0.1433 -0.3654 -0.2411
12179WAT     H149436   0.548   1.616   1.329 -0.7380 -0.9191 -0.4452
12179WAT     H249437   0.454   1.581   1.422 -0.1706  1.1522  0.9739
12179WAT    EPW49438   0.527   1.601   1.403 -0.0333 -0.2230 -0.0918
12180WAT      O49439   2.180   2.707   5.392  0.2794 -0.6069 -0.3686
12180WAT     H149440   2.196   2.627   5.363  0.3890 -0.8427  0.3173
12180WAT     H249441   2.093   2.714   5.385 -0.1495 -1.9314  2.3183
12180WAT    EPW49442   2.169   2.697   5.387  0.2322 -0.8374  0.1296
12181WAT      O49443   1.893   2.603   6.510  0.1198  0.5667 -0.2207
12181WAT     H149444   1.848   2.532   6.531  0.9036  0.1713  0.1946
12181WAT     H249445   1.966   2.571   6.474  0.3338  1.1677 -0.3307
12181WAT    EPW49446   1.897   2.588   6.508  0.2672  0.5971 -0.1756
12182WAT      O49447   0.250   0.503   5.854  0.1003 -0.1267  0.0648
12182WAT     H149448   0.165   0.487   5.866  0.4392 -1.3865  1.0592
12182WAT     H249449   0.277   0.528   5.933  0.9154 -1.1374  0.1294
12182WAT    EPW49450   0.241   0.505   5.868  0.2708 -0.4621  0.2212
12183WAT      O49451   7.220   6.564   6.648  0.0538 -0.2075 -0.0458
12183WAT     H149452   7.222   6.508   6.715  2.0679 -1.5033 -1.1138
12183WAT     H249453   7.163   6.625   6.675  0.0785 -1.1598  2.4312
12183WAT    EPW49454   7.212   6.565   6.662  0.3550 -0.5396  0.1623
12184WAT      O49455   5.789   2.091   5.154 -0.2763  0.3135 -0.2570
12184WAT     H149456   5.777   2.177   5.159  0.8342  0.4363  0.7058
12184WAT     H249457   5.833   2.072   5.227 -0.7808 -1.1259 -0.2851
12184WAT    EPW49458   5.794   2.101   5.166 -0.1868  0.1190 -0.1189
12185WAT      O49459   5.009   0.969   4.429  0.5993 -0.5115  0.1045
12185WAT     H149460   5.060   1.022   4.475 -0.8484  1.1533 -0.0995
12185WAT     H249461   4.960   1.024   4.382  0.2887 -2.0886 -1.5226
12185WAT    EPW49462   5.009   0.985   4.429  0.3396 -0.4985 -0.1660
12186WAT      O49463   1.050   0.215   0.752  0.2215 -0.3039 -0.0063
12186WAT     H149464   1.108   0.247   0.696  0.0622 -1.1390 -0.6701
12186WAT     H249465   1.055   0.129   0.741 -0.7463 -0.4225  0.3194
12186WAT    EPW49466   1.059   0.207   0.742  0.0550 -0.4448 -0.0563
12187WAT      O49467   1.622   0.569   5.008  0.1156 -0.2878 -0.0217
12187WAT     H149468   1.656   0.551   4.930  1.2216 -0.7777  0.5386
12187WAT     H249469   1.545   0.606   4.990 -0.1260 -1.3680 -1.3144
12187WAT    EPW49470   1.615   0.572   4.994  0.2433 -0.5197 -0.1299
12188WAT      O49471   6.955   2.543   7.222 -0.0640  0.5105 -0.4696
12188WAT     H149472   6.905   2.600   7.179  1.0081  1.2173 -0.8170
12188WAT     H249473   6.912   2.530   7.296 -1.6943 -0.3351 -1.5075
12188WAT    EPW49474   6.941   2.549   7.226 -0.1464  0.4900 -0.6742
12189WAT      O49475   1.197   1.424   5.024  0.3459 -0.2036  0.4286
12189WAT     H149476   1.226   1.457   5.099 -0.2524  1.7539 -0.1616
12189WAT     H249477   1.270   1.413   4.977  0.9936 -3.3367  1.8780
12189WAT    EPW49478   1.212   1.427   5.028  0.3532 -0.3773  0.5555
12190WAT      O49479   1.805   5.222   5.750  0.0387 -0.3025  0.2083
12190WAT     H149480   1.838   5.191   5.675 -2.0995 -1.4885 -0.3430
12190WAT     H249481   1.761   5.154   5.783  0.4812  0.3577  2.3056
12190WAT    EPW49482   1.803   5.208   5.744 -0.2118 -0.3802  0.4367
12191WAT      O49483   4.240   5.995   2.916 -0.1044  0.1914 -0.4444
12191WAT     H149484   4.212   5.954   2.844 -0.0923  0.8193 -0.8146
12191WAT     H249485   4.288   6.061   2.884  0.0700  0.3545  0.1449
12191WAT    EPW49486   4.243   5.999   2.901 -0.0769  0.3083 -0.4120
12192WAT      O49487   4.933   0.180   0.608 -0.0329  0.2817 -0.1340
12192WAT     H149488   4.918   0.236   0.673 -1.5921 -1.0368  0.7101
12192WAT     H249489   4.922   0.102   0.646 -2.0373 -0.5252 -2.1660
12192WAT    EPW49490   4.929   0.177   0.623 -0.5593 -0.0323 -0.3095
12193WAT      O49491   3.029   3.080   2.342 -0.1638  0.1799  0.3687
12193WAT     H149492   3.014   2.995   2.353  2.0082 -0.4141 -0.6060
12193WAT     H249493   3.009   3.114   2.420  0.2553 -1.4547  1.2529
12193WAT    EPW49494   3.024   3.072   2.355  0.2190 -0.1493  0.3553
12194WAT      O49495   5.137   3.863   5.847  0.7771 -0.0221 -0.1786
12194WAT     H149496   5.199   3.924   5.848  0.4591  0.3056  0.9994
12194WAT     H249497   5.067   3.904   5.815  0.8588 -0.0721 -0.4205
12194WAT    EPW49498   5.136   3.878   5.842  0.7422  0.0189 -0.0403
12195WAT      O49499   4.252   1.404   4.597 -0.4855 -0.1542 -0.3350
12195WAT     H149500   4.287   1.479   4.571  0.1211 -1.6787 -4.8610
12195WAT     H249501   4.221   1.369   4.523 -2.2769 -3.6068  1.7671
12195WAT    EPW49502   4.253   1.410   4.582 -0.6605 -0.8894 -0.6930
12196WAT      O49503   4.803   1.153   3.069 -0.5351 -0.4221 -0.0513
12196WAT     H149504   4.725   1.114   3.074 -0.1299 -1.3407 -0.6421
12196WAT     H249505   4.800   1.195   2.993 -0.8944  0.5571  0.4902
12196WAT    EPW49506   4.791   1.154   3.058 -0.5283 -0.4131 -0.0586
12197WAT      O49507   6.505   2.141   4.223  0.2015 -0.4141  0.2537
12197WAT     H149508   6.439   2.092   4.195  0.2388  0.3605 -1.2831
12197WAT     H249509   6.527   2.104   4.299 -1.1855 -1.4261  0.1998
12197WAT    EPW49510   6.499   2.128   4.230  0.0021 -0.4492  0.0187
12198WAT      O49511   3.815   6.707   5.897  0.4971 -0.1736 -0.3365
12198WAT     H149512   3.762   6.640   5.918 -0.1075 -0.2028 -1.8280
12198WAT     H249513   3.815   6.756   5.969  1.8200 -2.2756  1.2235
12198WAT    EPW49514   3.807   6.704   5.910  0.6032 -0.4885 -0.3263
12199WAT      O49515   0.301   6.184   6.547 -0.0112  0.1755  0.4337
12199WAT     H149516   0.346   6.153   6.616  1.1522  0.6104 -0.0995
12199WAT     H249517   0.364   6.212   6.494 -0.9803  1.9574  0.1807
12199WAT    EPW49518   0.317   6.183   6.550  0.0175  0.5030  0.3176
12200WAT      O49519   2.502   1.078   2.784  0.6959 -0.2944 -0.0578
12200WAT     H149520   2.543   1.114   2.852 -0.2450  0.5438  0.0897
12200WAT     H249521   2.529   1.127   2.716  1.2022 -0.7819 -0.2173
12200WAT    EPW49522   2.512   1.091   2.784  0.6317 -0.2426 -0.0596
12201WAT      O49523   2.074   1.624   0.725 -0.1926 -0.8656  0.6453
12201WAT     H149524   2.130   1.649   0.663 -0.4730  0.0185  0.7274
12201WAT     H249525   2.111   1.653   0.798 -1.0602  0.3492  0.6393
12201WAT    EPW49526   2.088   1.632   0.726 -0.3622 -0.5556  0.6565
12202WAT      O49527   2.540   2.832   6.286 -0.8307 -0.1451 -0.4387
12202WAT     H149528   2.548   2.769   6.346 -1.8838 -0.8006 -0.9603
12202WAT     H249529   2.591   2.897   6.317  0.4105 -1.2927  0.0242
12202WAT    EPW49530   2.549   2.833   6.299 -0.8030 -0.4115 -0.4473
12203WAT      O49531   1.538   4.179   1.486 -0.5421  0.0252 -0.0428
12203WAT     H149532   1.475   4.119   1.477  0.3104 -0.9471  0.2258
12203WAT     H249533   1.497   4.247   1.523 -1.4630 -0.5027 -0.0572
12203WAT    EPW49534   1.523   4.180   1.490 -0.5522 -0.1964 -0.0053
12204WAT      O49535   3.016   5.923   5.944 -0.1853  0.0395 -0.1308
12204WAT     H149536   2.946   5.922   5.996  0.3623 -1.2946  0.6192
12204WAT     H249537   2.989   5.969   5.874 -2.1812 -1.3871 -0.3827
12204WAT    EPW49538   3.002   5.930   5.941 -0.3992 -0.3683 -0.0572
12205WAT      O49539   2.887   5.031   0.473 -0.1959 -0.1239 -0.3202
12205WAT     H149540   2.903   4.947   0.492 -1.3706 -0.0144  1.4115
12205WAT     H249541   2.932   5.044   0.400  1.0997 -1.8907  0.0779
12205WAT    EPW49542   2.896   5.021   0.465 -0.1780 -0.3687 -0.0056
12206WAT      O49543   5.420   3.674   2.263  0.5791 -0.6365 -0.7095
12206WAT     H149544   5.497   3.703   2.235  1.1903  1.6077  2.6851
12206WAT     H249545   5.374   3.746   2.277 -0.0327 -1.4700  2.5627
12206WAT    EPW49546   5.425   3.689   2.261  0.5790 -0.4281  0.2754
12207WAT      O49547   3.991   3.108   7.035 -0.1689 -0.2114 -0.0932
12207WAT     H149548   3.953   3.031   7.047  0.5003 -0.4636  0.4695
12207WAT     H249549   3.942   3.163   7.081  1.0763 -0.8069  2.0964
12207WAT    EPW49550   3.978   3.105   7.044  0.1139 -0.3366  0.3134
12208WAT      O49551   1.976   2.043   6.413 -0.8118  0.6103 -0.5341
12208WAT     H149552   1.996   2.030   6.329  0.7679  0.4420 -0.1718
12208WAT     H249553   2.036   2.100   6.440 -1.3891  0.7818  0.4490
12208WAT    EPW49554   1.988   2.050   6.404 -0.6638  0.6108 -0.3353
12209WAT      O49555   5.331   2.557   4.289 -0.4134 -0.4495  0.2875
12209WAT     H149556   5.341   2.477   4.257  0.1222 -1.2083  2.2389
12209WAT     H249557   5.250   2.558   4.320  0.4068 -1.2303  2.6884
12209WAT    EPW49558   5.321   2.546   4.289 -0.2131 -0.6769  0.9305
12210WAT      O49559   3.311   4.671   0.548 -0.0221  0.1766 -0.1008
12210WAT     H149560   3.268   4.714   0.486 -2.7941  0.3756  1.7816
12210WAT     H249561   3.254   4.610   0.575  0.3020  1.1600  3.3158
12210WAT    EPW49562   3.297   4.668   0.543 -0.3837  0.3512  0.6820
12211WAT      O49563   2.688   3.144   0.352  0.3991 -0.2139 -0.3826
12211WAT     H149564   2.731   3.220   0.346 -0.9743  0.5000 -2.2243
12211WAT     H249565   2.699   3.120   0.435  1.9743  1.3285 -0.0976
12211WAT    EPW49566   2.696   3.152   0.363  0.4289  0.1194 -0.6126
12212WAT      O49567   0.841   3.909   6.878  0.1750  0.0267  0.3840
12212WAT     H149568   0.805   3.971   6.829 -1.0504 -0.8370  0.1459
12212WAT     H249569   0.922   3.901   6.846 -0.0772  0.5925 -0.4163
12212WAT    EPW49570   0.848   3.917   6.866 -0.0433 -0.0173  0.2306
12213WAT      O49571   1.417   3.963   0.013 -0.3701  0.7509 -0.3096
12213WAT     H149572   1.451   3.942  -0.065 -0.4943  1.0719 -0.4545
12213WAT     H249573   1.374   3.891   0.036 -0.6987  0.7996 -0.7485
12213WAT    EPW49574   1.415   3.950   0.005 -0.4370  0.8055 -0.3959
12214WAT      O49575   2.274   4.376   4.378 -0.4261  0.1186  0.5735
12214WAT     H149576   2.202   4.424   4.388 -1.9929 -1.0003 -3.3296
12214WAT     H249577   2.336   4.435   4.365 -1.4444  1.1198  0.0843
12214WAT    EPW49578   2.273   4.392   4.378 -0.8080  0.1012 -0.0753
12215WAT      O49579   4.525   0.384   1.052  0.0440 -0.2520  0.2315
12215WAT     H149580   4.524   0.366   1.138  1.7629  0.0184  0.3556
12215WAT     H249581   4.582   0.327   1.020 -0.5798 -0.3475 -0.7507
12215WAT    EPW49582   4.533   0.373   1.060  0.2057 -0.2262  0.1048
12216WAT      O49583   4.548   5.547   3.194 -0.1235 -0.1315  0.3902
12216WAT     H149584   4.611   5.608   3.195  0.6257 -0.8245 -0.8440
12216WAT     H249585   4.565   5.499   3.265  0.7860 -0.3156  0.0659
12216WAT    EPW49586   4.560   5.549   3.205  0.1215 -0.2610  0.1600
12217WAT      O49587   2.169   5.768   7.306 -0.1887  0.4878  0.2531
12217WAT     H149588   2.152   5.726   7.232  0.4146  0.4897  0.1046
12217WAT     H249589   2.099   5.753   7.356  0.0749 -0.7916  0.2553
12217WAT    EPW49590   2.156   5.760   7.302 -0.0606  0.2991  0.2315
12218WAT      O49591   2.880   5.672   3.562 -0.0539  0.2080  0.2731
12218WAT     H149592   2.906   5.753   3.543 -0.6352  0.1473 -0.9002
12218WAT     H249593   2.826   5.652   3.496 -1.8095 -0.2460  1.7609
12218WAT    EPW49594   2.876   5.681   3.549 -0.3991  0.1319  0.3196
12219WAT      O49595   4.723   6.536   7.132  0.1792  0.4230  0.2879
12219WAT     H149596   4.743   6.478   7.070 -0.8270 -0.8900  1.1215
12219WAT     H249597   4.779   6.602   7.119  1.6428 -0.9100 -0.4560
12219WAT    EPW49598   4.734   6.537   7.121  0.2468  0.0321  0.3012
12220WAT      O49599   7.309   1.323   6.738  0.3013 -0.0314 -1.0506
12220WAT     H149600   7.353   1.275   6.680 -0.0032 -1.3136 -0.2618
12220WAT     H249601   7.367   1.336   6.802 -0.2055 -1.0968 -0.3462
12220WAT    EPW49602   7.324   1.318   6.739  0.1814 -0.3782 -0.8300
12221WAT      O49603   0.555   5.657   1.624  0.2457  0.2783 -0.2077
12221WAT     H149604   0.487   5.631   1.672  0.4173 -0.2225 -0.2276
12221WAT     H249605   0.525   5.728   1.582 -0.0523  0.4430  0.2755
12221WAT    EPW49606   0.541   5.664   1.624  0.2270  0.2286 -0.1393
12222WAT      O49607   5.460   6.223   1.577 -0.2672  0.5653 -0.1854
12222WAT     H149608   5.482   6.182   1.503 -0.6229 -2.7198  1.3513
12222WAT     H249609   5.378   6.195   1.592  0.1651  0.2999  1.9270
12222WAT    EPW49610   5.451   6.213   1.568 -0.2559  0.0408  0.3537
12223WAT      O49611   2.558   4.774   2.245  0.2711 -0.4095 -0.3909
12223WAT     H149612   2.634   4.739   2.221  0.3882 -0.1647 -0.3795
12223WAT     H249613   2.521   4.795   2.169  1.9772  3.2365 -0.3892
12223WAT    EPW49614   2.564   4.772   2.230  0.5404  0.1653 -0.3889
12224WAT      O49615   5.648   6.374   5.641  0.7559  0.8962  0.2066
12224WAT     H149616   5.644   6.456   5.614 -2.1485  0.9416  0.3613
12224WAT     H249617   5.604   6.376   5.717  1.5616 -0.6236  0.7567
12224WAT    EPW49618   5.641   6.386   5.648  0.4459  0.6784  0.3107
12225WAT      O49619   2.506   6.032   6.804 -0.4829  0.4832  0.2853
12225WAT     H149620   2.505   5.982   6.733  1.2198 -0.3422  0.7841
12225WAT     H249621   2.453   6.099   6.783 -1.4736 -0.6643 -1.0186
12225WAT    EPW49622   2.498   6.035   6.791 -0.3777  0.1918  0.1663
12226WAT      O49623   2.229   2.706   3.811  0.1273 -0.6083  0.8543
12226WAT     H149624   2.200   2.788   3.813 -1.4972 -1.1560  1.9242
12226WAT     H249625   2.186   2.671   3.744  0.1936 -0.7965  0.9084
12226WAT    EPW49626   2.218   2.713   3.801 -0.1028 -0.7170  1.0203
12227WAT      O49627   6.963   1.857   4.559  0.7494  0.2070 -0.7823
12227WAT     H149628   6.987   1.782   4.597  1.2493  1.2485  1.1356
12227WAT     H249629   7.023   1.870   4.498  0.9644 -0.6809 -0.7677
12227WAT    EPW49630   6.975   1.848   4.556  0.8550  0.2297 -0.4968
12228WAT      O49631   6.261   5.183   3.962 -0.0477 -0.3512  0.6107
12228WAT     H149632   6.286   5.105   3.933 -0.9075  0.0667 -1.4346
12228WAT     H249633   6.299   5.239   3.907 -0.8288  0.5704  0.9699
12228WAT    EPW49634   6.270   5.179   3.950 -0.2901 -0.1534  0.3616
12229WAT      O49635   3.744   6.850   3.794 -0.5191 -0.6593 -0.6123
12229WAT     H149636   3.828   6.842   3.818 -0.2558 -0.6192 -1.5109
12229WAT     H249637   3.721   6.928   3.824 -0.6267 -1.1861  0.7730
12229WAT    EPW49638   3.753   6.860   3.802 -0.4961 -0.7312 -0.5404
12230WAT      O49639   4.961   0.639   1.012 -0.3986  0.0873  0.4153
12230WAT     H149640   4.981   0.554   1.015  0.2292  0.2042 -0.2667
12230WAT     H249641   5.002   0.668   0.941 -2.2608  0.5411 -0.5635
12230WAT    EPW49642   4.970   0.631   1.002 -0.5809  0.1716  0.1699
12231WAT      O49643   2.271   4.570   5.957 -0.4621  0.2895  0.5908
12231WAT     H149644   2.295   4.518   6.023 -0.1842 -0.3879 -0.0303
12231WAT     H249645   2.188   4.546   5.941  0.5373 -2.2711 -1.7232
12231WAT    EPW49646   2.262   4.559   5.964 -0.2734 -0.1888  0.1572
12232WAT      O49647   1.983   0.407   1.783  0.1043  0.3708 -0.3077
12232WAT     H149648   2.024   0.481   1.803  1.6787 -0.3782 -0.5391
12232WAT     H249649   2.043   0.346   1.802 -1.2172 -0.8493  0.0618
12232WAT    EPW49650   1.998   0.409   1.789  0.1416  0.0799 -0.2873
12233WAT      O49651   2.980   0.723   4.832 -0.7156  0.2897  0.6671
12233WAT     H149652   3.009   0.793   4.789  1.8330 -0.6350  0.7081
12233WAT     H249653   2.925   0.686   4.776 -0.6489  1.3196 -0.1053
12233WAT    EPW49654   2.976   0.728   4.818 -0.3292  0.3053  0.5590
12234WAT      O49655   5.010   5.088   6.440  0.2759  0.5973 -0.1662
12234WAT     H149656   5.059   5.081   6.368  0.3805  2.1865 -0.2917
12234WAT     H249657   4.938   5.044   6.421  0.8790 -0.1794 -0.7014
12234WAT    EPW49658   5.007   5.081   6.427  0.3804  0.7173 -0.2638
12235WAT      O49659   6.581   0.952   0.740 -0.3989 -0.2691 -0.1406
12235WAT     H149660   6.562   0.886   0.686 -0.6916  0.0984 -0.4909
12235WAT     H249661   6.582   1.022   0.688  0.0503 -0.0152  0.2037
12235WAT    EPW49662   6.578   0.953   0.724 -0.3758 -0.1773 -0.1415
12236WAT      O49663   3.266   0.374   5.473  0.0400 -0.1285  0.1413
12236WAT     H149664   3.335   0.365   5.525  0.2356  0.4750  0.0002
12236WAT     H249665   3.301   0.404   5.398 -0.3510  0.0273  0.0182
12236WAT    EPW49666   3.281   0.377   5.470  0.0111 -0.0164  0.1023
12237WAT      O49667   1.509   6.624   0.305  0.1015 -0.5383  0.2192
12237WAT     H149668   1.549   6.547   0.291  1.5045 -0.0731  1.4283
12237WAT     H249669   1.549   6.655   0.375 -2.0984  0.2383  1.2183
12237WAT    EPW49670   1.521   6.617   0.313 -0.0162 -0.3549  0.5454
12238WAT      O49671   4.218   5.911   1.807  0.0437 -0.0212  0.0035
12238WAT     H149672   4.233   5.883   1.725 -0.1046  0.1863 -0.0931
12238WAT     H249673   4.180   5.988   1.796 -0.3738 -0.1872  0.2626
12238WAT    EPW49674   4.214   5.918   1.793 -0.0399 -0.0151  0.0275
12239WAT      O49675   5.456   1.644   6.591 -0.0236  0.0411  0.1333
12239WAT     H149676   5.501   1.572   6.568 -0.1218 -0.1080  0.4078
12239WAT     H249677   5.373   1.618   6.586 -0.0234 -0.3371  1.7897
12239WAT    EPW49678   5.451   1.629   6.587 -0.0381 -0.0368  0.4185
12240WAT      O49679   5.941   0.769   1.968  0.5447  0.0152 -0.1581
12240WAT     H149680   5.897   0.694   1.961  0.9342 -0.2269 -0.0449
12240WAT     H249681   5.939   0.785   2.054  2.4337 -1.0782  0.1377
12240WAT    EPW49682   5.934   0.760   1.980  0.8813 -0.1821 -0.0976
12241WAT      O49683   6.423   1.133   6.899  0.4857  0.6170 -0.4062
12241WAT     H149684   6.362   1.159   6.843  1.0696  2.1230 -0.3948
12241WAT     H249685   6.497   1.163   6.864  1.1046 -0.2966  0.0860
12241WAT    EPW49686   6.425   1.141   6.885  0.6634  0.7045 -0.3318
12242WAT      O49687   3.711   1.531   0.972  0.2916  0.4373 -0.6844
12242WAT     H149688   3.625   1.523   0.967  0.2305  0.9340 -0.5334
12242WAT     H249689   3.741   1.471   0.916 -0.1186 -0.4672  0.0429
12242WAT    EPW49690   3.703   1.521   0.963  0.2220  0.3771 -0.5546
12243WAT      O49691   1.893   2.688   2.851 -0.2322 -0.0583 -0.8747
12243WAT     H149692   1.897   2.601   2.844  0.3928  0.0070 -1.4687
12243WAT     H249693   1.829   2.702   2.908 -1.0827 -0.8843 -1.6002
12243WAT    EPW49694   1.884   2.678   2.858 -0.2655 -0.1707 -1.0696
12244WAT      O49695   3.333   5.320   0.999  0.5267 -0.0728 -0.3392
12244WAT     H149696   3.319   5.374   1.066 -1.9716  0.6229 -1.3104
12244WAT     H249697   3.334   5.241   1.037  2.9250  0.4714  0.9262
12244WAT    EPW49698   3.331   5.316   1.015  0.5120  0.1104 -0.2957
12245WAT      O49699   0.268   3.595   5.485 -0.3644 -0.0601  0.0123
12245WAT     H149700   0.303   3.554   5.416 -2.2286 -1.6729 -0.0704
12245WAT     H249701   0.210   3.650   5.448  0.0304  0.5138  0.2387
12245WAT    EPW49702   0.264   3.597   5.469 -0.5814 -0.2136  0.0335
12246WAT      O49703   2.759   0.086   5.159 -0.3921  0.2070 -0.0704
12246WAT     H149704   2.728   0.122   5.232  0.0963  0.8514 -0.1648
12246WAT     H249705   2.836   0.053   5.183 -0.6740 -0.4506 -0.0713
12246WAT    EPW49706   2.766   0.087   5.173 -0.3616  0.2051 -0.0845
12247WAT      O49707   3.625   4.082   0.735 -0.4517  0.2809 -0.0327
12247WAT     H149708   3.629   4.126   0.660 -0.3587 -0.2709 -0.3554
12247WAT     H249709   3.638   4.144   0.796 -2.7586  1.1322 -0.3355
12247WAT    EPW49710   3.628   4.098   0.733 -0.7787  0.3252 -0.1251
12248WAT      O49711   1.308   4.413   6.404  0.0283 -0.1021 -0.4663
12248WAT     H149712   1.342   4.483   6.365 -0.2223  0.4693  0.3332
12248WAT     H249713   1.225   4.436   6.420 -0.1084 -0.6462 -0.3568
12248WAT    EPW49714   1.300   4.427   6.400 -0.0289 -0.0981 -0.3320
12249WAT      O49715   5.493   1.118   4.243 -0.0324  0.2258  0.2579
12249WAT     H149716   5.435   1.154   4.297  1.1049  2.4311  0.1377
12249WAT     H249717   5.450   1.115   4.167  0.2773  2.9599 -0.1245
12249WAT    EPW49718   5.478   1.123   4.239  0.1813  0.9555  0.1836
12250WAT      O49719   2.682   4.788   3.434  0.3661 -0.0517  0.0233
12250WAT     H149720   2.605   4.827   3.445  1.1550  2.3010 -1.8252
12250WAT     H249721   2.662   4.712   3.397 -1.1206  1.3193 -2.2959
12250WAT    EPW49722   2.668   4.783   3.430  0.2631  0.4984 -0.5923
12251WAT      O49723   0.588   7.237   3.991  0.1184  0.1089 -0.2466
12251WAT     H149724   0.674   7.228   4.003  0.1274  0.8296  0.3565
12251WAT     H249725   0.568   7.307   4.039 -0.8957 -0.3410  0.0306
12251WAT    EPW49726   0.597   7.246   4.000 -0.0301  0.1489 -0.1166
12252WAT      O49727   5.011   6.352   5.496  0.4341  0.0929 -0.1136
12252WAT     H149728   5.088   6.326   5.464  0.9153  1.8100 -0.4995
12252WAT     H249729   4.972   6.387   5.426  0.9429  2.7039  0.8074
12252WAT    EPW49730   5.017   6.353   5.481  0.5803  0.7322 -0.0345
12253WAT      O49731   2.633   1.321   5.644 -0.0577 -0.6923  0.1530
12253WAT     H149732   2.594   1.367   5.707  1.1102  0.4389  0.1012
12253WAT     H249733   2.674   1.258   5.686  0.6110 -0.0163  0.5318
12253WAT    EPW49734   2.633   1.319   5.659  0.2136 -0.4254  0.2013
12254WAT      O49735   4.917   4.603   4.549 -0.4753  0.7516 -0.3417
12254WAT     H149736   4.886   4.524   4.532 -0.6874  1.0394 -1.3395
12254WAT     H249737   4.853   4.642   4.593 -0.1784  0.2193  0.5907
12254WAT    EPW49738   4.903   4.597   4.553 -0.4628  0.7155 -0.3514
12255WAT      O49739   3.958   5.428   2.396  0.1218 -0.0661 -0.0604
12255WAT     H149740   3.914   5.419   2.471  0.6435 -1.1750  0.1420
12255WAT     H249741   4.041   5.416   2.419  0.3470  0.1698 -0.7210
12255WAT    EPW49742   3.964   5.425   2.410  0.2321 -0.1951 -0.1281
12256WAT      O49743   6.527   0.340   1.081 -0.5956  0.2028 -0.0692
12256WAT     H149744   6.496   0.372   1.156 -0.1618  1.5981 -0.4446
12256WAT     H249745   6.520   0.407   1.026  0.7837 -0.2075 -0.7934
12256WAT    EPW49746   6.522   0.355   1.084 -0.3278  0.3483 -0.2316
12257WAT      O49747   5.231   0.869   7.324 -0.3186  0.0069 -0.1909
12257WAT     H149748   5.209   0.917   7.255  0.1394  1.0554  0.3669
12257WAT     H249749   5.298   0.822   7.296 -0.3810  0.1415 -0.5704
12257WAT    EPW49750   5.238   0.869   7.310 -0.2601  0.1817 -0.1645
12258WAT      O49751   2.202   2.033   3.196  0.7487 -1.3129  0.0682
12258WAT     H149752   2.149   1.974   3.232 -1.4124  1.0653  1.1439
12258WAT     H249753   2.167   2.046   3.117  1.6453 -1.9559 -0.4421
12258WAT    EPW49754   2.189   2.026   3.190  0.5619 -1.0566  0.1518
12259WAT      O49755   1.757   1.330   0.577 -0.5113  0.2477 -1.0053
12259WAT     H149756   1.816   1.283   0.622  1.0943  2.0612 -1.0668
12259WAT     H249757   1.780   1.317   0.494 -0.8478  0.1802 -1.0895
12259WAT    EPW49758   1.769   1.321   0.572 -0.3238  0.5056 -1.0268
12260WAT      O49759   2.194   3.180   6.127 -0.0293 -0.4632 -0.0342
12260WAT     H149760   2.139   3.220   6.181 -2.4967 -1.9476 -1.2911
12260WAT     H249761   2.224   3.112   6.173 -0.8922 -0.8354 -0.0188
12260WAT    EPW49762   2.191   3.176   6.142 -0.5213 -0.7374 -0.2176
12261WAT      O49763   2.300   2.110   4.869 -0.3248 -0.2209  0.8011
12261WAT     H149764   2.249   2.157   4.922  1.0846  1.0367  1.1131
12261WAT     H249765   2.339   2.053   4.922 -1.2869 -1.1096  0.5800
12261WAT    EPW49766   2.298   2.109   4.884 -0.2587 -0.1664  0.8145
12262WAT      O49767   1.341   7.212   2.666 -0.1089 -0.0197 -0.0915
12262WAT     H149768   1.388   7.241   2.734 -0.3292  0.8027 -0.2822
12262WAT     H249769   1.390   7.233   2.597  0.2124 -1.0384 -0.1894
12262WAT    EPW49770   1.355   7.220   2.666 -0.0940 -0.0487 -0.1342
12263WAT      O49771   5.468   2.827   1.256 -0.0759  0.0858 -0.2948
12263WAT     H149772   5.474   2.851   1.173 -0.9250 -1.8520 -0.9616
12263WAT     H249773   5.436   2.898   1.296 -0.0751  0.8946 -1.6794
12263WAT    EPW49774   5.465   2.841   1.250 -0.2012 -0.0810 -0.5978
12264WAT      O49775   4.373   0.779   2.822  0.0424  0.2690  0.0086
12264WAT     H149776   4.339   0.856   2.841  0.1820  0.9955 -2.3388
12264WAT     H249777   4.459   0.793   2.826  0.0648  0.0690  0.2094
12264WAT    EPW49778   4.381   0.792   2.825  0.0663  0.3467 -0.3085
12265WAT      O49779   5.760   0.923   0.106 -0.1047 -0.4670 -0.3694
12265WAT     H149780   5.727   0.975   0.044 -1.1645 -2.3953 -1.5079
12265WAT     H249781   5.757   0.844   0.071  1.0837 -1.4045  1.4526
12265WAT    EPW49782   5.755   0.919   0.092 -0.0857 -0.8903 -0.2684
12266WAT      O49783   0.036   6.212   1.935 -0.1062  0.3964 -0.3792
12266WAT     H149784   0.048   6.141   1.984 -1.8333 -0.2951 -0.9102
12266WAT     H249785  -0.050   6.218   1.927  0.0729  1.2602 -2.2372
12266WAT    EPW49786   0.025   6.203   1.941 -0.3349  0.4219 -0.7321
12267WAT      O49787   0.330   1.886   2.242  0.0799  0.1879  0.3290
12267WAT     H149788   0.326   1.920   2.161 -2.6418 -0.5821  0.0506
12267WAT     H249789   0.258   1.916   2.280  0.5445 -0.7051  1.9752
12267WAT    EPW49790   0.319   1.895   2.235 -0.2535 -0.0578  0.5311
12268WAT      O49791   6.757   4.077   2.977 -0.2863  0.3952  0.2166
12268WAT     H149792   6.762   4.115   3.056 -1.5938  0.7274  0.1679
12268WAT     H249793   6.772   4.142   2.922 -0.2904  0.3585  0.1721
12268WAT    EPW49794   6.760   4.092   2.981 -0.4801  0.4389  0.2028
12269WAT      O49795   5.482   3.902   0.695  0.0257 -0.4327  0.2658
12269WAT     H149796   5.477   3.975   0.743  1.7368 -0.5963  0.7690
12269WAT     H249797   5.480   3.931   0.613 -0.8496  0.0351  0.4389
12269WAT    EPW49798   5.481   3.917   0.690  0.1491 -0.3878  0.3657
12270WAT      O49799  -0.000   1.833   2.995 -0.2739  0.7739 -0.3400
12270WAT     H149800   0.085   1.844   3.010 -0.3925  3.3363 -1.0242
12270WAT     H249801  -0.005   1.824   2.909 -0.7900  3.0829 -0.6253
12270WAT    EPW49802   0.012   1.833   2.985 -0.3677  1.4935 -0.4832
12271WAT      O49803   2.747   5.224   5.741 -0.5820  0.4782  0.0833
12271WAT     H149804   2.684   5.173   5.707 -0.6966  0.1737  0.7385
12271WAT     H249805   2.708   5.264   5.808  0.2820 -0.8403  1.4527
12271WAT    EPW49806   2.732   5.222   5.746 -0.4713  0.2385  0.3824
12272WAT      O49807   3.788   2.682   4.679 -0.4268 -0.2674 -0.0638
12272WAT     H149808   3.798   2.763   4.708 -0.0879 -0.2307 -0.2804
12272WAT     H249809   3.707   2.681   4.646 -0.1398  0.2090 -0.8001
12272WAT    EPW49810   3.778   2.694   4.679 -0.3343 -0.1916 -0.2046
12273WAT      O49811   2.121   3.909   4.107 -0.0281 -0.3014 -0.8927
12273WAT     H149812   2.184   3.875   4.157 -0.1686 -1.1895 -1.2993
12273WAT     H249813   2.070   3.840   4.089 -1.4422  0.4721 -0.1096
12273WAT    EPW49814   2.123   3.893   4.112 -0.2577 -0.3183 -0.8371
12274WAT      O49815   0.191   0.581   0.043 -0.0519  0.4085 -0.3018
12274WAT     H149816   0.166   0.658   0.075 -1.2046  0.4499 -1.2419
12274WAT     H249817   0.242   0.602  -0.025  0.2952  0.3232 -0.0744
12274WAT    EPW49818   0.195   0.596   0.038 -0.1709  0.4020 -0.4071
12275WAT      O49819   5.064   6.230   4.913  0.0541  0.0214  0.2454
12275WAT     H149820   5.061   6.190   4.835  0.8834 -0.6730  0.5541
12275WAT     H249821   5.085   6.312   4.893  0.2475 -0.1478 -0.2653
12275WAT    EPW49822   5.066   6.236   4.899  0.2052 -0.1062  0.2156
12276WAT      O49823   7.092   1.276   2.913  0.0835 -0.4505 -0.0446
12276WAT     H149824   7.010   1.274   2.943  0.1297  1.0904  0.2646
12276WAT     H249825   7.083   1.258   2.828 -0.5068 -0.7260  0.0666
12276WAT    EPW49826   7.078   1.273   2.905  0.0032 -0.2636  0.0175
12277WAT      O49827   1.871   7.186   0.496 -0.0884  0.0899 -0.5433
12277WAT     H149828   1.888   7.189   0.582 -0.5050  2.5591 -0.4896
12277WAT     H249829   1.919   7.118   0.468 -1.4168 -2.0452  1.9072
12277WAT    EPW49830   1.880   7.176   0.505 -0.3461  0.1392 -0.1734
12278WAT      O49831   1.533   3.959   7.166  0.5154  0.6337 -0.0630
12278WAT     H149832   1.496   3.986   7.092  0.5673  1.0937  0.0753
12278WAT     H249833   1.597   4.016   7.179  0.9030  0.1923  0.0126
12278WAT    EPW49834   1.537   3.971   7.157  0.5803  0.6364 -0.0314
12279WAT      O49835   2.426   4.265   1.566 -0.5791  0.1201 -0.5287
12279WAT     H149836   2.474   4.195   1.546 -0.0795  0.3666 -0.2301
12279WAT     H249837   2.372   4.273   1.499 -1.0531 -0.9082 -0.2872
12279WAT    EPW49838   2.425   4.256   1.553 -0.5753  0.0046 -0.4490
12280WAT      O49839   7.197   6.964   2.045 -0.2421 -0.3138  0.3944
12280WAT     H149840   7.173   7.035   1.999 -1.2180 -0.6206  0.3979
12280WAT     H249841   7.132   6.953   2.102  0.2869 -0.7524  0.9307
12280WAT    EPW49842   7.184   6.973   2.046 -0.3082 -0.4239  0.4741
12281WAT      O49843   1.939   1.866   7.111  0.3049  0.0431  0.2447
12281WAT     H149844   1.963   1.934   7.062 -1.3851  0.7233  0.2942
12281WAT     H249845   1.886   1.821   7.058 -1.1795  0.5431  1.2441
12281WAT    EPW49846   1.935   1.869   7.096 -0.1641  0.2174  0.3996
12282WAT      O49847   2.517   0.700   4.864  0.5064 -0.5154  0.7196
12282WAT     H149848   2.486   0.728   4.787  0.0388  0.2407  1.1712
12282WAT     H249849   2.500   0.614   4.863  2.8848 -1.0912 -1.1419
12282WAT    EPW49850   2.510   0.691   4.852  0.7887 -0.4888  0.5113
12283WAT      O49851   0.288   1.909   5.266  0.3008 -0.2546  0.6559
12283WAT     H149852   0.273   1.925   5.351 -0.2634 -3.2249  1.2367
12283WAT     H249853   0.354   1.852   5.267  0.5385 -0.0638 -0.9655
12283WAT    EPW49854   0.296   1.903   5.279  0.2525 -0.6652  0.5022
12284WAT      O49855   6.477   5.779   2.237  0.4443 -0.1553  0.2318
12284WAT     H149856   6.538   5.838   2.217  0.1420  0.0977  0.0354
12284WAT     H249857   6.478   5.724   2.169 -0.2802  0.4561 -0.2888
12284WAT    EPW49858   6.486   5.780   2.224  0.2926 -0.0276  0.1259
12285WAT      O49859   1.871   4.041   4.831  0.2343 -0.1464  0.3326
12285WAT     H149860   1.902   3.961   4.816 -0.0907 -0.2091 -0.0176
12285WAT     H249861   1.887   4.083   4.756  0.5077  0.1494  0.5566
12285WAT    EPW49862   1.878   4.035   4.818  0.2267 -0.1119  0.3139
12286WAT      O49863   2.213   6.327   1.880  0.4833  0.0649  0.3457
12286WAT     H149864   2.250   6.406   1.885 -1.3043  0.9216  1.0629
12286WAT     H249865   2.130   6.345   1.861  0.5336 -1.8131 -2.1012
12286WAT    EPW49866   2.206   6.341   1.878  0.2267 -0.0860  0.0902
12287WAT      O49867   6.181   5.564   0.571 -0.0817 -0.0769 -0.7421
12287WAT     H149868   6.259   5.549   0.608 -0.2093  0.5856 -0.1868
12287WAT     H249869   6.129   5.505   0.608 -0.1330  0.3562 -0.1105
12287WAT    EPW49870   6.185   5.553   0.582 -0.1082  0.0850 -0.5668
12288WAT      O49871   0.646   0.632   5.170  0.2900 -0.4633  0.3234
12288WAT     H149872   0.686   0.692   5.122  0.0650  0.5735  1.3982
12288WAT     H249873   0.711   0.585   5.205  0.4648 -0.7808 -0.4120
12288WAT    EPW49874   0.661   0.634   5.168  0.2826 -0.3570  0.3735
12289WAT      O49875   3.278   6.703   4.597 -0.2084 -0.2470  0.2613
12289WAT     H149876   3.301   6.633   4.550  0.3979  0.0468  0.1160
12289WAT     H249877   3.273   6.671   4.678 -1.9915 -0.9262 -0.0620
12289WAT    EPW49878   3.280   6.688   4.602 -0.3822 -0.3039  0.1921
12290WAT      O49879   4.736   6.830   3.059 -0.0031 -0.2080 -0.0513
12290WAT     H149880   4.650   6.818   3.054 -0.0996 -0.7318  1.8063
12290WAT     H249881   4.766   6.800   2.983 -1.2788 -2.0199  0.0902
12290WAT    EPW49882   4.728   6.824   3.047 -0.2058 -0.5530  0.2440
12291WAT      O49883   6.845   6.255   2.824  0.8808 -0.2188 -0.2689
12291WAT     H149884   6.852   6.338   2.850 -0.9704 -0.4081  1.0616
12291WAT     H249885   6.768   6.229   2.858  0.9587 -2.1978 -1.4314
12291WAT    EPW49886   6.835   6.263   2.833  0.6188 -0.5391 -0.2441
12292WAT      O49887   4.287   5.478   2.818 -0.2246  0.3656 -0.4177
12292WAT     H149888   4.322   5.408   2.780 -0.9238 -0.1653 -0.1266
12292WAT     H249889   4.344   5.542   2.802  0.4142 -0.2673 -0.7117
12292WAT    EPW49890   4.300   5.477   2.810 -0.2335  0.1937 -0.4181
12293WAT      O49891   1.058   6.184   1.183 -0.0477  0.4005  0.3825
12293WAT     H149892   0.991   6.240   1.189  0.9860  2.2572 -3.0882
12293WAT     H249893   1.128   6.235   1.176  1.5145 -1.4586  1.2850
12293WAT    EPW49894   1.058   6.200   1.183  0.3358  0.4002  0.0031
12294WAT      O49895   3.773   5.842   1.134  0.1131 -0.5329  0.0777
12294WAT     H149896   3.796   5.811   1.212 -0.7883  0.4726  0.7709
12294WAT     H249897   3.751   5.770   1.090 -0.1812 -1.0606  1.0451
12294WAT    EPW49898   3.773   5.826   1.139 -0.0636 -0.4623  0.3230
12295WAT      O49899   4.119   1.900   7.257  0.3272  0.4966 -0.2936
12295WAT     H149900   4.103   1.848   7.188  4.0905  0.9214 -1.7015
12295WAT     H249901   4.157   1.846   7.314 -3.3943 -0.0322  2.0593
12295WAT    EPW49902   4.122   1.884   7.255  0.3334  0.4813 -0.1540
12296WAT      O49903   3.248   3.945   1.019 -0.1051  0.5463 -0.0661
12296WAT     H149904   3.246   3.858   1.018 -1.0604  0.5659 -0.6407
12296WAT     H249905   3.268   3.964   1.101 -0.4244 -0.2161  0.1965
12296WAT    EPW49906   3.251   3.935   1.031 -0.2934  0.4366 -0.1122
12297WAT      O49907   6.112   0.709   3.114 -0.3214 -0.2801  0.2950
12297WAT     H149908   6.080   0.748   3.186 -0.2638 -1.3276  0.9203
12297WAT     H249909   6.180   0.758   3.092 -0.0662 -0.1860  1.2398
12297WAT    EPW49910   6.117   0.722   3.122 -0.2752 -0.4210  0.5270
12298WAT      O49911   2.337   5.070   2.853  0.5071  0.1931  0.2256
12298WAT     H149912   2.352   5.128   2.790  1.7385  0.1687  0.4819
12298WAT     H249913   2.350   4.993   2.813 -0.9811  0.0545 -0.0758
12298WAT    EPW49914   2.341   5.067   2.837  0.4692  0.1690  0.2189
12299WAT      O49915   1.990   5.245   1.629 -0.1125  0.1053  0.0183
12299WAT     H149916   1.936   5.287   1.683  1.3142 -1.6505  3.0737
12299WAT     H249917   2.067   5.285   1.642  0.1942 -0.1506 -0.9646
12299WAT    EPW49918   1.994   5.257   1.639  0.1436 -0.1919  0.3244
12300WAT      O49919   1.360   1.259   6.861  0.2384  0.5912  0.3042
12300WAT     H149920   1.426   1.271   6.918  0.6999  1.7537 -0.4379
12300WAT     H249921   1.381   1.311   6.794 -0.7951 -0.0036 -0.5120
12300WAT    EPW49922   1.373   1.269   6.860  0.1539  0.6751  0.0740
12301WAT      O49923   1.239   1.993   5.941  0.0513  0.3736  0.2848
12301WAT     H149924   1.179   2.013   5.881  0.3809  1.1462  0.1931
12301WAT     H249925   1.242   2.064   5.991  1.1250  0.4818  0.0831
12301WAT    EPW49926   1.231   2.006   5.939  0.2586  0.5037  0.2414
12302WAT      O49927   1.108   6.545   0.005  0.0222 -0.3818  0.7026
12302WAT     H149928   1.064   6.577  -0.063  0.7144  1.2693  0.9832
12302WAT     H249929   1.184   6.587   0.002  1.4094 -2.7371  0.5694
12302WAT    EPW49930   1.113   6.556  -0.006  0.3294 -0.4858  0.7244
12303WAT      O49931   2.565   6.639   3.659 -0.0642  0.9114 -0.2818
12303WAT     H149932   2.479   6.644   3.673 -0.3973 -0.6262 -1.4675
12303WAT     H249933   2.599   6.681   3.728 -1.7569  2.7233 -0.4522
12303WAT    EPW49934   2.557   6.646   3.671 -0.3635  0.9519 -0.4821
12304WAT      O49935   0.436   3.457   3.220  0.2983  0.4270 -0.5218
12304WAT     H149936   0.391   3.383   3.207  1.7135 -0.4205 -0.8721
12304WAT     H249937   0.455   3.483   3.138 -1.3888  1.9997 -0.4721
12304WAT    EPW49938   0.432   3.450   3.206  0.2581  0.5341 -0.5662
12305WAT      O49939   1.212   5.437   1.443 -0.0411 -0.1116 -0.0930
12305WAT     H149940   1.202   5.380   1.509  2.1699 -2.0153 -1.2251
12305WAT     H249941   1.168   5.400   1.378  0.3144  0.1335 -0.4756
12305WAT    EPW49942   1.204   5.423   1.443  0.3380 -0.3566 -0.3168
12306WAT      O49943   0.190   1.966   4.764  0.4958  0.2695  0.0691
12306WAT     H149944   0.255   1.967   4.706 -0.4349 -1.2211 -1.0794
12306WAT     H249945   0.137   2.030   4.737 -0.3682 -0.9717 -1.3286
12306WAT    EPW49946   0.192   1.976   4.752  0.2307 -0.1340 -0.3070
12307WAT      O49947   4.855   2.550   4.125  0.3563 -0.2342  0.4179
12307WAT     H149948   4.810   2.526   4.054 -0.3103  2.1586 -0.0472
12307WAT     H249949   4.799   2.535   4.190 -0.6757  1.4394 -0.0250
12307WAT    EPW49950   4.840   2.544   4.124  0.1054  0.3665  0.2838
12308WAT      O49951   2.880   7.161   0.376 -0.1379  0.8542 -0.0032
12308WAT     H149952   2.803   7.200   0.386  0.8928  2.7893  1.0289
12308WAT     H249953   2.860   7.077   0.368 -2.2376  0.8633  3.2791
12308WAT    EPW49954   2.866   7.154   0.377 -0.2958  1.1414  0.6342
12309WAT      O49955   1.643   3.494   1.115 -0.1765  0.6809  0.0901
12309WAT     H149956   1.698   3.446   1.068  0.2967  1.8910 -0.6519
12309WAT     H249957   1.564   3.465   1.090  0.0649 -1.2663  1.3794
12309WAT    EPW49958   1.639   3.483   1.105 -0.0709  0.5720  0.1710
12310WAT      O49959   3.382   5.274   7.243 -0.3176 -0.2727  0.2098
12310WAT     H149960   3.365   5.284   7.158  1.8685 -0.5445 -0.3296
12310WAT     H249961   3.363   5.352   7.278 -2.3624 -0.5090 -0.2618
12310WAT    EPW49962   3.377   5.287   7.236 -0.2967 -0.3478  0.0605
12311WAT      O49963   7.204   6.178   5.486  0.4772 -0.2350  0.0019
12311WAT     H149964   7.222   6.189   5.571  2.4902  1.0891 -0.5141
12311WAT     H249965   7.249   6.107   5.464  0.1245 -0.4554 -0.0207
12311WAT    EPW49966   7.213   6.169   5.495  0.7225 -0.0720 -0.0777
12312WAT      O49967   3.680   0.329   6.609 -0.2930 -0.7194 -0.0266
12312WAT     H149968   3.732   0.335   6.679  0.6171  1.0110 -0.7943
12312WAT     H249969   3.730   0.289   6.550  0.2121  0.9100 -0.7538
12312WAT    EPW49970   3.695   0.324   6.610 -0.0840 -0.2231 -0.2475
12313WAT      O49971   5.680   5.391   4.259 -0.1650 -0.1612 -0.0603
12313WAT     H149972   5.599   5.413   4.280 -0.4035  0.4851 -1.4865
12313WAT     H249973   5.729   5.425   4.323 -0.9699 -0.0806  0.5165
12313WAT    EPW49974   5.675   5.399   4.271 -0.3191 -0.0539 -0.1858
12314WAT      O49975   0.685   2.915   5.328 -0.1739  0.2986  0.3106
12314WAT     H149976   0.636   2.986   5.321 -0.4738  0.3496  2.2777
12314WAT     H249977   0.665   2.883   5.407  1.8505 -0.5010  0.5856
12314WAT    EPW49978   0.675   2.921   5.339  0.0809  0.1880  0.6418
12315WAT      O49979   4.789   2.665   3.596  0.1719 -0.3673  0.3071
12315WAT     H149980   4.797   2.589   3.555 -1.7072  0.0135 -0.8982
12315WAT     H249981   4.728   2.707   3.549  0.5332  1.5315  1.4375
12315WAT    EPW49982   4.781   2.660   3.583 -0.0523 -0.0306  0.2960
12316WAT      O49983   2.900   3.314   6.328 -0.2625  0.0042 -0.0905
12316WAT     H149984   2.987   3.315   6.324 -0.1973 -0.3413  1.1081
12316WAT     H249985   2.878   3.397   6.308  0.3192  0.0457 -0.5930
12316WAT    EPW49986   2.910   3.327   6.324 -0.1670 -0.0407  0.0124
12317WAT      O49987   4.892   5.688   6.612  0.3942 -0.2764 -0.6373
12317WAT     H149988   4.819   5.652   6.580  1.1257 -2.0993 -0.3751
12317WAT     H249989   4.935   5.621   6.646  1.6943  0.9322  0.2411
12317WAT    EPW49990   4.887   5.673   6.613  0.6943 -0.3672 -0.4688
12318WAT      O49991   2.510   4.750   5.790 -0.2390  0.5351  0.2834
12318WAT     H149992   2.479   4.788   5.717 -0.8816  0.7276  0.6481
12318WAT     H249993   2.461   4.785   5.853 -0.2416 -0.2371  0.7174
12318WAT    EPW49994   2.498   4.760   5.788 -0.3343  0.4495  0.4014
12319WAT      O49995   2.121   1.809   4.418 -1.1927 -0.0487 -0.1178
12319WAT     H149996   2.136   1.813   4.504  0.7695 -1.0477 -0.3546
12319WAT     H249997   2.108   1.724   4.403 -0.9789  0.0406 -0.8694
12319WAT    EPW49998   2.121   1.797   4.429 -0.8713 -0.1831 -0.2638
12320WAT      O49999   5.020   6.126   4.655 -0.0032  0.3024 -0.2414
12320WAT     H150000   5.079   6.170   4.608  0.6421  0.6104  0.8275
12320WAT     H250001   4.958   6.186   4.671 -0.8698 -0.1394 -1.7483
12320WAT    EPW50002   5.020   6.141   4.650 -0.0359  0.2826 -0.3061
12321WAT      O50003   0.626   4.023   3.055 -0.4611  0.1838  0.1842
12321WAT     H150004   0.639   4.012   3.140  0.1168 -0.0141  0.0735
12321WAT     H250005   0.633   4.109   3.044 -0.0261  0.1608  0.2589
12321WAT    EPW50006   0.629   4.034   3.066 -0.3115  0.1512  0.1789
12322WAT      O50007   0.985   1.487   5.865  0.3060 -0.4605  0.1507
12322WAT     H150008   1.032   1.561   5.865  1.7731 -1.3301 -0.6626
12322WAT     H250009   0.905   1.513   5.844  0.7984  0.8961 -0.1582
12322WAT    EPW50010   0.980   1.501   5.862  0.5954 -0.3886 -0.0151
12323WAT      O50011   4.244   4.718   5.985  0.2673 -0.2124 -0.1984
12323WAT     H150012   4.216   4.801   5.992 -0.7673 -0.4447 -1.2347
12323WAT     H250013   4.170   4.672   5.986  0.7737 -1.0510 -0.5555
12323WAT    EPW50014   4.229   4.724   5.986  0.1893 -0.3706 -0.4042
12324WAT      O50015   4.731   1.466   4.186  0.8595 -0.3794 -0.2278
12324WAT     H150016   4.661   1.433   4.147  0.9397 -2.3995  1.1658
12324WAT     H250017   4.796   1.451   4.129  0.7916 -2.2387  0.1315
12324WAT    EPW50018   4.730   1.459   4.172  0.8613 -0.9525  0.0311
12325WAT      O50019   3.174   5.573   4.072 -0.1266 -0.2946  0.2820
12325WAT     H150020   3.156   5.583   4.156 -2.8477 -0.5670 -0.1744
12325WAT     H250021   3.211   5.649   4.050 -2.4001  1.1490  1.0723
12325WAT    EPW50022   3.177   5.586   4.081 -0.8644 -0.1216  0.3313
12326WAT      O50023   5.939   2.862   1.388 -0.1084 -0.2722 -0.1576
12326WAT     H150024   5.870   2.821   1.355  0.7570 -2.0377  0.0814
12326WAT     H250025   5.923   2.865   1.473  0.8154 -2.2787  0.1449
12326WAT    EPW50026   5.927   2.856   1.395  0.1559 -0.8294 -0.0776
12327WAT      O50027   3.130   6.326   5.298  0.2613 -0.1142 -0.0508
12327WAT     H150028   3.163   6.369   5.230  1.0364 -1.5782 -0.6580
12327WAT     H250029   3.080   6.265   5.261  1.4911 -1.5768  0.5930
12327WAT    EPW50030   3.128   6.323   5.283  0.5574 -0.5465 -0.0454
12328WAT      O50031   5.140   6.222   3.714  0.3266 -0.6046 -0.4387
12328WAT     H150032   5.133   6.240   3.799  1.1699 -1.0181 -0.2703
12328WAT     H250033   5.066   6.178   3.696  0.6299 -1.4653  0.3383
12328WAT    EPW50034   5.128   6.218   3.724  0.4960 -0.7928 -0.2991
12329WAT      O50035   5.605   4.635   3.333  0.1481  0.3287 -0.4700
12329WAT     H150036   5.686   4.657   3.358  0.0547  1.5860 -1.2101
12329WAT     H250037   5.557   4.704   3.355 -0.3895  0.3819 -1.7262
12329WAT    EPW50038   5.610   4.648   3.340  0.0549  0.5223 -0.7649
12330WAT      O50039   2.599   5.995   2.122 -0.0396 -0.8119  0.3128
12330WAT     H150040   2.654   5.992   2.189 -0.8460 -2.3710  0.9737
12330WAT     H250041   2.598   6.079   2.099  0.3847 -0.2659  2.1557
12330WAT    EPW50042   2.607   6.007   2.129 -0.0961 -0.9616  0.6827
12331WAT      O50043   4.241   2.564   0.838 -0.0329  0.3762  0.1806
12331WAT     H150044   4.155   2.564   0.856  0.1912 -0.7683  1.4552
12331WAT     H250045   4.266   2.645   0.856 -0.3027 -0.0691  2.9004
12331WAT    EPW50046   4.232   2.576   0.843 -0.0396  0.1413  0.7707
12332WAT      O50047   3.777   1.717   0.371 -0.0285 -0.1598  0.8995
12332WAT     H150048   3.801   1.700   0.288  1.6374  0.2967  1.2501
12332WAT     H250049   3.748   1.640   0.400  0.8643 -0.7170  0.3567
12332WAT    EPW50050   3.776   1.703   0.363  0.3495 -0.1747  0.8711
12333WAT      O50051   6.719   2.885   0.865 -0.4009  0.5320  0.0756
12333WAT     H150052   6.681   2.807   0.868  1.1443 -0.2214  0.6888
12333WAT     H250053   6.798   2.869   0.832 -0.4539  2.0248 -0.8941
12333WAT    EPW50054   6.725   2.871   0.860 -0.1805  0.6412  0.0229
12334WAT      O50055   0.597   2.633   7.121 -0.0779 -0.5206 -0.2506
12334WAT     H150056   0.572   2.692   7.180 -0.1301  0.5473 -1.3082
12334WAT     H250057   0.525   2.586   7.107  0.7164 -3.0866  2.9946
12334WAT    EPW50058   0.583   2.635   7.128  0.0317 -0.7419  0.0726
12335WAT      O50059   7.268   6.975   4.436 -0.3616 -0.8582 -0.5329
12335WAT     H150060   7.251   6.912   4.494 -0.4485 -0.7828 -0.4761
12335WAT     H250061   7.210   6.960   4.373 -1.2195 -0.0949  0.0455
12335WAT    EPW50062   7.257   6.964   4.435 -0.5012 -0.7343 -0.4391
12336WAT      O50063   0.177   6.990   0.342  0.1117 -0.0854  0.1405
12336WAT     H150064   0.117   6.948   0.295  0.8936 -0.3324 -0.6554
12336WAT     H250065   0.199   7.058   0.291 -0.4128  0.7371  0.9800
12336WAT    EPW50066   0.171   6.994   0.328  0.1497 -0.0004  0.1470
12337WAT      O50067   0.384   6.829   6.252 -0.1579  0.0054 -0.6566
12337WAT     H150068   0.406   6.819   6.336 -0.7882  1.5967 -0.2745
12337WAT     H250069   0.441   6.778   6.210  1.5226  0.7399  0.5942
12337WAT    EPW50070   0.396   6.820   6.258 -0.0028  0.3490 -0.4154
12338WAT      O50071   6.120   6.385   1.699  0.8256  0.2357  0.2291
12338WAT     H150072   6.094   6.372   1.616 -0.6817 -0.3157  0.7572
12338WAT     H250073   6.206   6.369   1.696  0.7397 -0.0949 -1.1691
12338WAT    EPW50074   6.129   6.380   1.686  0.5903  0.1054  0.1006
12339WAT      O50075   2.456   5.049   2.385 -0.3461  0.0347 -0.0153
12339WAT     H150076   2.517   4.987   2.379  0.7800  1.1691 -1.2130
12339WAT     H250077   2.460   5.089   2.307 -3.0466 -0.1908 -0.3565
12339WAT    EPW50078   2.465   5.046   2.372 -0.5787  0.1690 -0.2426
12340WAT      O50079   5.736   2.857   0.569 -0.3173  0.0846  0.4321
12340WAT     H150080   5.750   2.917   0.631 -0.9655 -1.4918  2.1916
12340WAT     H250081   5.817   2.829   0.550 -0.1210  0.5031  0.6293
12340WAT    EPW50082   5.750   2.862   0.575 -0.3840 -0.0864  0.7212
12341WAT      O50083   4.825   6.500   2.536  0.1871 -0.2865 -0.3232
12341WAT     H150084   4.855   6.556   2.477  0.1061  1.2540  1.0365
12341WAT     H250085   4.747   6.532   2.557 -0.2173 -1.3696 -0.0649
12341WAT    EPW50086   4.818   6.513   2.530  0.1154 -0.2190 -0.0842
12342WAT      O50087   4.962   5.356   6.494 -0.3308  0.0533 -0.7332
12342WAT     H150088   4.997   5.285   6.458  1.8205 -0.4003  1.9646
12342WAT     H250089   4.989   5.421   6.441 -0.3297 -0.8704 -1.9054
12342WAT    EPW50090   4.971   5.355   6.481 -0.0129 -0.1502 -0.5078
12343WAT      O50091   6.816   2.477   0.037  0.2218  0.0379 -0.2131
12343WAT     H150092   6.827   2.394   0.011  0.2631 -0.0102 -0.0473
12343WAT     H250093   6.887   2.494   0.084  0.6324  0.4681 -0.9795
12343WAT    EPW50094   6.828   2.467   0.040  0.2885  0.0943 -0.3018
12344WAT      O50095   2.708   6.822   5.990 -0.3555  0.0662 -0.4161
12344WAT     H150096   2.773   6.791   5.941 -0.3491 -0.6022 -0.0026
12344WAT     H250097   2.696   6.759   6.050 -2.6431 -0.7944 -1.6203
12344WAT    EPW50098   2.716   6.808   5.992 -0.6925 -0.1597 -0.5329
12345WAT      O50099   1.621   6.442   3.511  0.1726  0.3071  0.5817
12345WAT     H150100   1.631   6.526   3.490  1.8303 -0.1251 -0.6214
12345WAT     H250101   1.700   6.417   3.537  0.5727 -1.5706 -1.9936
12345WAT    EPW50102   1.634   6.450   3.512  0.4766 -0.0341  0.0235
12346WAT      O50103   2.503   3.100   7.325 -0.1618 -0.3811 -0.2551
12346WAT     H150104   2.488   3.146   7.252  0.1466 -0.1010 -0.1406
12346WAT     H250105   2.454   3.028   7.314 -0.2912 -0.2353 -0.6365
12346WAT    EPW50106   2.494   3.096   7.312 -0.1353 -0.3182 -0.2945
12347WAT      O50107   2.170   5.136   3.072 -0.2671  0.2002  0.0585
12347WAT     H150108   2.108   5.088   3.032  0.2855 -0.0205 -0.5583
12347WAT     H250109   2.235   5.136   3.014  0.9299 -0.8996  1.3349
12347WAT    EPW50110   2.170   5.129   3.057 -0.0086  0.0051  0.1559
12348WAT      O50111   6.466   0.849   1.658  0.0467  0.3807 -0.1845
12348WAT     H150112   6.512   0.807   1.719  0.6569 -0.9049 -1.4819
12348WAT     H250113   6.384   0.824   1.674  0.1009  0.6232  0.5216
12348WAT    EPW50114   6.460   0.839   1.670  0.1449  0.2266 -0.2718
12349WAT      O50115   1.565   1.014   0.252 -0.1453  0.1422  0.3332
12349WAT     H150116   1.631   0.961   0.273 -2.0621 -2.7514 -0.2411
12349WAT     H250117   1.495   0.970   0.280 -1.9057  2.8429  0.5374
12349WAT    EPW50118   1.564   1.000   0.260 -0.6885  0.1137  0.2786
12350WAT      O50119   2.041   1.899   2.259  0.3728  0.1517  0.2641
12350WAT     H150120   2.016   1.874   2.179 -1.1404  0.6754  0.5420
12350WAT     H250121   1.966   1.904   2.303  1.0903  0.7589  1.4606
12350WAT    EPW50122   2.026   1.896   2.253  0.2553  0.3188  0.4819
12351WAT      O50123   0.735   0.686   2.633  0.0769  0.1363  0.9002
12351WAT     H150124   0.728   0.773   2.628 -1.1053  0.0625  1.0405
12351WAT     H250125   0.774   0.674   2.711  1.9074  0.5743  0.1197
12351WAT    EPW50126   0.740   0.697   2.644  0.1727  0.1901  0.8057
12352WAT      O50127   7.201   6.357   4.151  0.3036  0.3437  0.0773
12352WAT     H150128   7.271   6.365   4.099 -0.3870  1.0657 -0.7444
12352WAT     H250129   7.233   6.377   4.230  1.1301  0.1883 -0.2004
12352WAT    EPW50130   7.216   6.361   4.155  0.3236  0.4274 -0.0851
12353WAT      O50131   2.850   2.093   2.349  0.3256 -0.3878 -0.3802
12353WAT     H150132   2.879   2.147   2.286 -1.3816  1.8014  0.5685
12353WAT     H250133   2.858   2.141   2.421  0.7528 -2.2652  0.8640
12353WAT    EPW50134   2.856   2.108   2.350  0.1365 -0.3417 -0.0563
12354WAT      O50135   5.007   4.295   6.441 -0.8000 -0.2038 -0.6153
12354WAT     H150136   4.998   4.209   6.453 -0.3239 -0.0845  0.8918
12354WAT     H250137   5.058   4.300   6.371 -1.5174 -1.1177 -1.2368
12354WAT    EPW50138   5.013   4.283   6.432 -0.8356 -0.3212 -0.4845
12355WAT      O50139   2.451   4.455   1.188  0.2001  0.2447 -0.2933
12355WAT     H150140   2.506   4.494   1.244 -0.4772  1.5882 -0.5093
12355WAT     H250141   2.384   4.431   1.238  0.0527  0.5260 -0.3498
12355WAT    EPW50142   2.449   4.457   1.203  0.0783  0.4847 -0.3335
12356WAT      O50143   1.749   2.192   2.657 -0.0514 -0.4028  0.0837
12356WAT     H150144   1.666   2.218   2.662 -0.2643 -0.9775 -0.3899
12356WAT     H250145   1.751   2.122   2.709  0.2130 -0.2114  0.3345
12356WAT    EPW50146   1.737   2.185   2.666 -0.0438 -0.4594  0.0508
12357WAT      O50147   2.909   2.456   5.545  0.2362  0.1454 -0.2545
12357WAT     H150148   2.971   2.396   5.540  0.0257 -0.0405 -0.7100
12357WAT     H250149   2.861   2.430   5.613  0.8583  0.4914  0.3269
12357WAT    EPW50150   2.911   2.443   5.554  0.2970  0.1691 -0.2359
12358WAT      O50151   1.081   4.024   0.723 -0.0165 -0.2900 -0.4531
12358WAT     H150152   1.138   3.990   0.780 -1.2425 -0.1718  0.9107
12358WAT     H250153   1.016   4.053   0.774  0.8691  4.0880 -1.4863
12358WAT    EPW50154   1.080   4.023   0.739 -0.0668  0.3742 -0.4043
12359WAT      O50155   0.789   1.802   5.513 -0.0010 -0.0682 -0.4636
12359WAT     H150156   0.852   1.813   5.572  0.4394 -0.0770 -0.9280
12359WAT     H250157   0.758   1.883   5.501  0.6619  0.1144 -1.0401
12359WAT    EPW50158   0.794   1.816   5.520  0.1620 -0.0425 -0.6174
12360WAT      O50159   2.246   5.333   6.364 -0.5651  0.2735 -0.1929
12360WAT     H150160   2.248   5.304   6.281 -1.1978  0.7778 -0.3882
12360WAT     H250161   2.211   5.266   6.408  0.7498 -0.4238 -0.1371
12360WAT    EPW50162   2.241   5.319   6.358 -0.4643  0.2450 -0.2135
12361WAT      O50163   3.070   5.864   3.325  0.0977  0.0334 -0.7030
12361WAT     H150164   3.031   5.920   3.379 -0.4595 -0.5168 -0.5167
12361WAT     H250165   3.087   5.795   3.377  0.7730  0.0227 -0.9262
12361WAT    EPW50166   3.067   5.862   3.341  0.1151 -0.0495 -0.7085
12362WAT      O50167   3.192   2.226   5.961  0.5028  0.0946 -0.1894
12362WAT     H150168   3.154   2.184   5.895 -1.9080  2.5986 -0.5892
12362WAT     H250169   3.260   2.266   5.922  0.7768 -0.6440 -0.5019
12362WAT    EPW50170   3.197   2.226   5.945  0.1872  0.3554 -0.2946
12363WAT      O50171   5.188   5.838   1.606  0.3971  0.1988  0.3695
12363WAT     H150172   5.147   5.783   1.660 -0.8368 -0.9319 -1.5737
12363WAT     H250173   5.265   5.801   1.593 -0.0186 -0.5418 -0.0725
12363WAT    EPW50174   5.193   5.824   1.612  0.1534 -0.0777  0.0172
12364WAT      O50175   1.291   1.640   2.295  0.2872 -0.0814  0.2874
12364WAT     H150176   1.217   1.622   2.337  0.5527 -2.4337 -0.1439
12364WAT     H250177   1.285   1.594   2.221  0.9095  2.0060 -1.1726
12364WAT    EPW50178   1.279   1.631   2.290  0.4183 -0.1205  0.0080
12365WAT      O50179   0.122   2.592   3.975  0.2503 -0.0005 -0.2647
12365WAT     H150180   0.071   2.566   3.910  0.7600 -0.0143 -0.6683
12365WAT     H250181   0.155   2.668   3.946  0.5052 -0.0232 -0.0370
12365WAT    EPW50182   0.120   2.600   3.961  0.3632 -0.0059 -0.2906
12366WAT      O50183   2.608   4.968   4.745 -0.3239 -0.0362  0.1343
12366WAT     H150184   2.550   5.022   4.708  0.4360  1.1524  0.6038
12366WAT     H250185   2.675   5.021   4.764  1.6617 -1.6087 -1.9020
12366WAT    EPW50186   2.609   4.984   4.742  0.0816 -0.0929 -0.0971
12367WAT      O50187   6.813   2.659   4.412  0.0023  0.5243 -0.8481
12367WAT     H150188   6.765   2.728   4.437  0.2949  0.6140 -0.5369
12367WAT     H250189   6.888   2.694   4.386  0.8014  0.1888  0.9276
12367WAT    EPW50190   6.817   2.674   4.412  0.1636  0.4880 -0.5399
12368WAT      O50191   2.503   1.260   3.018  0.1561 -0.1793 -0.4964
12368WAT     H150192   2.521   1.345   3.017  0.5174 -0.2399  0.3471
12368WAT     H250193   2.422   1.257   3.051 -0.1876 -0.1162 -1.3115
12368WAT    EPW50194   2.494   1.272   3.023  0.1587 -0.1789 -0.4922
12369WAT      O50195   5.545   1.524   6.190 -0.0558 -0.2581  0.1776
12369WAT     H150196   5.603   1.580   6.156 -1.4032  1.3050  0.3326
12369WAT     H250197   5.595   1.462   6.227  1.5057  1.0467  0.3431
12369WAT    EPW50198   5.561   1.523   6.191 -0.0242  0.1656  0.2250
12370WAT      O50199   7.287   5.072   6.226  0.1786 -0.0126  0.7986
12370WAT     H150200   7.371   5.086   6.205 -0.2509 -1.4778 -2.4439
12370WAT     H250201   7.255   5.153   6.232  1.5666  0.5667  0.9861
12370WAT    EPW50202   7.295   5.086   6.224  0.3202 -0.1435  0.3473
12371WAT      O50203   2.592   0.143   1.468 -0.1392  0.1582 -0.1451
12371WAT     H150204   2.607   0.177   1.547  0.2085 -0.3117 -0.0030
12371WAT     H250205   2.553   0.067   1.486 -1.8410  0.9016 -0.4821
12371WAT    EPW50206   2.588   0.137   1.483 -0.3392  0.1986 -0.1739
12372WAT      O50207   4.354   2.108   5.810 -0.5633 -0.4189  0.0103
12372WAT     H150208   4.334   2.041   5.863  0.5999 -1.8010 -1.1885
12372WAT     H250209   4.380   2.068   5.737  1.0696  1.3466 -0.4424
12372WAT    EPW50210   4.355   2.092   5.807 -0.1503 -0.3623 -0.2337
12373WAT      O50211   0.509   5.530   7.348 -0.0571  0.2146 -0.1481
12373WAT     H150212   0.522   5.500   7.429 -0.2169  1.4067  0.3431
12373WAT     H250213   0.447   5.477   7.317 -0.4576  0.1269  0.7448
12373WAT    EPW50214   0.502   5.518   7.356 -0.1399  0.3777  0.0564
12374WAT      O50215   4.300   7.258   3.399  0.0663  0.2511 -0.1654
12374WAT     H150216   4.336   7.321   3.448 -0.5498  0.6293 -0.1939
12374WAT     H250217   4.224   7.292   3.374  0.0207 -0.2551 -0.7290
12374WAT    EPW50218   4.294   7.272   3.403 -0.0315  0.2322 -0.2529
12375WAT      O50219   1.970   3.096   2.919 -0.0157 -0.1346  0.2724
12375WAT     H150220   1.888   3.068   2.911  0.4255 -1.1386 -1.0707
12375WAT     H250221   2.018   3.027   2.897  1.1911  0.6180  0.4162
12375WAT    EPW50222   1.965   3.082   2.915  0.2278 -0.1717  0.0952
12376WAT      O50223   0.644   5.177   5.381 -0.0547  0.0518 -0.7938
12376WAT     H150224   0.611   5.253   5.407  0.6941  0.4341 -0.9127
12376WAT     H250225   0.634   5.125   5.450  0.5363  0.6212 -0.2595
12376WAT    EPW50226   0.638   5.180   5.395  0.1432  0.1924 -0.7325
12377WAT      O50227   0.466   0.874   6.454 -0.7013 -1.1196  0.0310
12377WAT     H150228   0.417   0.918   6.511 -3.2269 -2.0012 -1.2979
12377WAT     H250229   0.518   0.934   6.420 -2.6649  0.4820 -0.3203
12377WAT    EPW50230   0.466   0.889   6.458 -1.3645 -1.0133 -0.2172
12378WAT      O50231   5.038   3.057   2.103 -0.1536 -0.1538  0.1564
12378WAT     H150232   4.977   3.084   2.160 -0.3246  0.6836 -0.3983
12378WAT     H250233   5.110   3.051   2.151 -0.6750 -1.2451  0.8470
12378WAT    EPW50234   5.040   3.060   2.119 -0.2559 -0.1913  0.1765
12379WAT      O50235   5.170   5.104   6.206 -0.0085  0.2254 -0.2304
12379WAT     H150236   5.178   5.044   6.142  1.6152 -1.3614  1.3240
12379WAT     H250237   5.245   5.149   6.200 -0.4834  1.0150 -0.3216
12379WAT    EPW50238   5.182   5.101   6.196  0.1612  0.1076 -0.0143
12380WAT      O50239   5.101   1.305   7.113 -0.6527  0.0689 -0.0228
12380WAT     H150240   5.142   1.344   7.047 -0.7075 -0.7624 -0.5563
12380WAT     H250241   5.016   1.315   7.094 -0.7645  1.9593  1.1794
12380WAT    EPW50242   5.095   1.313   7.101 -0.6773  0.2254  0.0760
12381WAT      O50243   4.551   5.343   3.006 -0.0358 -0.3198 -0.0720
12381WAT     H150244   4.530   5.416   3.048 -2.8406 -0.1470 -1.5445
12381WAT     H250245   4.506   5.281   3.048  0.0993 -0.7479 -0.5473
12381WAT    EPW50246   4.542   5.345   3.018 -0.4302 -0.3575 -0.3597
12382WAT      O50247   3.552   2.712   6.701 -0.2780  0.2981 -0.0201
12382WAT     H150248   3.530   2.628   6.714 -2.1265  0.8736  0.8960
12382WAT     H250249   3.549   2.747   6.781 -0.2646  1.3944 -0.4789
12382WAT    EPW50250   3.548   2.705   6.714 -0.5491  0.5451  0.0474
12383WAT      O50251   2.542   3.546   5.703 -0.2038  0.2041 -0.5131
12383WAT     H150252   2.485   3.607   5.678  0.5496  0.8836 -0.6445
12383WAT     H250253   2.607   3.554   5.646  0.5389  0.2566  0.3122
12383WAT    EPW50254   2.543   3.557   5.691  0.0172  0.3122 -0.4106
12384WAT      O50255   5.641   4.720   5.471  0.1183  0.4332 -0.1726
12384WAT     H150256   5.700   4.680   5.420 -0.3990 -0.6736  0.0504
12384WAT     H250257   5.650   4.679   5.548 -0.8691  0.3104 -0.1111
12384WAT    EPW50258   5.651   4.708   5.475 -0.1040  0.2515 -0.1305
12385WAT      O50259   3.622   0.650   2.443 -0.5102  0.5943  0.0257
12385WAT     H150260   3.651   0.730   2.459  3.1569 -0.7310  0.9050
12385WAT     H250261   3.594   0.622   2.520  1.4781 -0.0590  0.5704
12385WAT    EPW50262   3.622   0.658   2.456  0.3252  0.3020  0.2360
12386WAT      O50263   1.569   3.492   2.432 -0.5618  0.0980 -0.2018
12386WAT     H150264   1.494   3.479   2.475 -0.0635 -0.1702  0.6060
12386WAT     H250265   1.559   3.570   2.394 -0.6551  0.7811  1.1821
12386WAT    EPW50266   1.557   3.502   2.432 -0.5020  0.1593  0.1220
12387WAT      O50267   7.135   5.954   1.977 -0.3093  0.1184 -0.0635
12387WAT     H150268   7.089   5.893   2.020 -0.4609  0.4943  0.3249
12387WAT     H250269   7.212   5.954   2.017  0.4108 -1.2320 -1.3814
12387WAT    EPW50270   7.139   5.945   1.989 -0.2253 -0.0255 -0.2008
12388WAT      O50271   5.301   0.532   6.468 -0.4482  0.4314 -0.4467
12388WAT     H150272   5.219   0.504   6.455 -0.4830  0.0765  0.5077
12388WAT     H250273   5.345   0.459   6.488  0.1960  0.5606 -1.3247
12388WAT    EPW50274   5.295   0.517   6.469 -0.3581  0.3981 -0.4354
12389WAT      O50275   6.157   6.439   5.440  0.4048  0.1596 -0.7639
12389WAT     H150276   6.169   6.384   5.373  0.2359 -0.0969 -0.5820
12389WAT     H250277   6.078   6.418   5.470  0.1670  0.7694 -0.9402
12389WAT    EPW50278   6.147   6.428   5.434  0.3447  0.2118 -0.7631
12390WAT      O50279   2.815   3.660   2.307  0.0365  0.0689 -0.1115
12390WAT     H150280   2.866   3.729   2.326 -2.1661  1.8871 -0.2949
12390WAT     H250281   2.807   3.664   2.220 -2.6483  1.6976  0.0852
12390WAT    EPW50282   2.821   3.671   2.297 -0.6855  0.5780 -0.1095
12391WAT      O50283   1.196   2.732   0.656  0.1508  0.6609  0.2814
12391WAT     H150284   1.197   2.722   0.570  0.9365  0.2769  0.3281
12391WAT     H250285   1.184   2.651   0.686  2.8637  0.2510  0.5709
12391WAT    EPW50286   1.195   2.718   0.648  0.6676  0.5437  0.3311
12392WAT      O50287   2.434   6.356   5.229 -0.2851  0.1839  0.3934
12392WAT     H150288   2.356   6.370   5.267  0.5830  0.5937  2.1390
12392WAT     H250289   2.447   6.271   5.239 -1.6690 -0.4715 -2.3911
12392WAT    EPW50290   2.424   6.346   5.236 -0.3613  0.1476  0.2400
12393WAT      O50291   4.793   4.213   4.871  0.5077  0.4165 -0.1152
12393WAT     H150292   4.710   4.233   4.892  0.4858 -0.8665  1.1923
12393WAT     H250293   4.839   4.249   4.936  0.9070  0.4721 -0.4316
12393WAT    EPW50294   4.788   4.221   4.884  0.5635  0.2352  0.0312
12394WAT      O50295   5.290   0.366   5.070  0.3137  0.3060  0.6505
12394WAT     H150296   5.250   0.393   5.143 -0.8786  1.3228 -0.3246
12394WAT     H250297   5.300   0.439   5.024  1.1437 -0.3034 -0.1615
12394WAT    EPW50298   5.285   0.380   5.074  0.2602  0.3662  0.3865
12395WAT      O50299   3.971   6.825   2.509  0.7131 -0.2459 -0.2748
12395WAT     H150300   4.040   6.772   2.516 -0.0484 -1.0756  1.6834
12395WAT     H250301   3.916   6.795   2.569 -0.0862  2.2791  0.4000
12395WAT    EPW50302   3.973   6.813   2.519  0.4826  0.0045  0.1141
12396WAT      O50303   0.734   1.064   0.365  0.0301  0.3393 -0.7081
12396WAT     H150304   0.768   1.108   0.432  0.7785 -0.9585 -0.2124
12396WAT     H250305   0.803   1.044   0.316  0.1452 -2.7394  0.5531
12396WAT    EPW50306   0.749   1.068   0.367  0.1577 -0.3072 -0.4486
12397WAT      O50307   6.592   6.009   1.919 -0.4372 -0.2954  0.1689
12397WAT     H150308   6.609   5.971   1.995 -1.2166  1.2735  1.1973
12397WAT     H250309   6.505   6.019   1.920 -0.4770 -0.3206 -0.9787
12397WAT    EPW50310   6.581   6.005   1.930 -0.5582 -0.0674  0.1513
12398WAT      O50311   6.476   5.690   4.967  0.1158  0.1996  0.5731
12398WAT     H150312   6.431   5.736   5.026 -0.0844  1.2350 -0.3447
12398WAT     H250313   6.419   5.679   4.902  0.7794  0.4153 -0.0646
12398WAT    EPW50314   6.461   5.695   4.966  0.1842  0.3844  0.3434
12399WAT      O50315   2.311   7.033   5.525  0.7721  0.0584 -0.1529
12399WAT     H150316   2.244   7.084   5.505  3.4522  3.5864 -1.1353
12399WAT     H250317   2.327   7.053   5.609  0.1450 -1.4699  0.3709
12399WAT    EPW50318   2.304   7.043   5.535  1.0754  0.3538 -0.2206
12400WAT      O50319   1.468   6.141   0.827  0.1696  0.0511 -0.5622
12400WAT     H150320   1.492   6.096   0.757 -0.7894 -0.7118 -0.4251
12400WAT     H250321   1.537   6.135   0.880  0.6948  0.1903 -1.2219
12400WAT    EPW50322   1.482   6.133   0.825  0.1055 -0.0410 -0.6394
12401WAT      O50323   2.485   4.494   0.359  0.1249  0.0038  0.0206
12401WAT     H150324   2.561   4.461   0.386  0.4352 -1.1166 -2.0191
12401WAT     H250325   2.435   4.425   0.347 -0.6396  0.6048 -0.3412
12401WAT    EPW50326   2.489   4.479   0.361  0.0578 -0.0729 -0.3341
12402WAT      O50327   6.491   3.142   1.657 -0.1018 -0.0672 -0.4433
12402WAT     H150328   6.564   3.188   1.649 -0.2004 -0.1447 -2.0250
12402WAT     H250329   6.516   3.072   1.704  0.7415  0.1108 -0.6142
12402WAT    EPW50330   6.505   3.138   1.663  0.0082 -0.0523 -0.7022
12403WAT      O50331   5.075   1.996   6.765  0.2330 -0.3929  0.4034
12403WAT     H150332   4.988   2.001   6.761  0.0861 -1.4471  1.5382
12403WAT     H250333   5.096   2.050   6.830  0.4689  0.1871 -0.1539
12403WAT    EPW50334   5.065   2.005   6.774  0.2461 -0.4629  0.4887
12404WAT      O50335   0.610   7.154   2.715  0.1196 -0.1303  0.3211
12404WAT     H150336   0.643   7.175   2.637  0.5581  2.7325  1.1633
12404WAT     H250337   0.535   7.114   2.695  1.5963 -2.1964 -1.5537
12404WAT    EPW50338   0.604   7.151   2.700  0.4025 -0.0126  0.1686
12405WAT      O50339   6.568   0.995   1.452 -0.1539  0.2437  0.3378
12405WAT     H150340   6.502   1.050   1.435 -0.0101  0.2997 -0.0636
12405WAT     H250341   6.536   0.941   1.512 -0.4885  0.4117  0.3101
12405WAT    EPW50342   6.554   0.995   1.458 -0.1821  0.2768  0.2744
12406WAT      O50343   4.211   0.995   5.157 -0.3040 -0.1713  0.1506
12406WAT     H150344   4.295   1.014   5.171 -0.4749 -0.4200  1.7315
12406WAT     H250345   4.169   1.064   5.189 -0.7242 -0.3385 -0.0293
12406WAT    EPW50346   4.217   1.008   5.164 -0.3913 -0.2327  0.3576
12407WAT      O50347   5.652   2.079   4.483  0.1548  0.0346 -0.3228
12407WAT     H150348   5.656   2.053   4.566  1.3010  2.2358  0.3948
12407WAT     H250349   5.724   2.044   4.447 -0.4951 -1.1655 -0.5288
12407WAT    EPW50350   5.664   2.070   4.490  0.2281  0.1825 -0.2472
12408WAT      O50351   2.372   6.473   2.686 -0.9213  0.5692 -0.3189
12408WAT     H150352   2.401   6.534   2.632 -3.7026  1.2933 -1.1628
12408WAT     H250353   2.395   6.398   2.647  1.1498  1.0056 -0.0513
12408WAT    EPW50354   2.380   6.471   2.673 -1.0262  0.7406 -0.4040
12409WAT      O50355   1.767   5.309   0.750 -0.2694  0.4372  0.0511
12409WAT     H150356   1.727   5.241   0.787  0.9022 -0.0652  0.4238
12409WAT     H250357   1.820   5.339   0.812  1.4703 -0.2001 -1.0513
12409WAT    EPW50358   1.769   5.304   0.765  0.1607  0.2688 -0.0567
12410WAT      O50359   0.895   5.671   2.272  0.2719 -0.7297  0.2161
12410WAT     H150360   0.825   5.718   2.292 -0.4510 -1.2302 -0.9991
12410WAT     H250361   0.959   5.730   2.268 -0.8088  0.4479 -2.3539
12410WAT    EPW50362   0.894   5.686   2.274  0.0055 -0.6297 -0.3430
12411WAT      O50363   4.571   5.180   3.566  0.0641 -0.5214 -0.2576
12411WAT     H150364   4.590   5.178   3.651  1.4589  0.6752 -0.4987
12411WAT     H250365   4.515   5.114   3.556 -1.0788  0.0399  1.7982
12411WAT    EPW50366   4.566   5.170   3.577  0.1013 -0.2617  0.0105
12412WAT      O50367   4.153   1.518   0.883 -0.1744 -0.4076 -0.1826
12412WAT     H150368   4.169   1.479   0.959  1.7761 -0.5079 -0.5795
12412WAT     H250369   4.166   1.454   0.825  2.0884  0.5060 -0.7800
12412WAT    EPW50370   4.158   1.503   0.886  0.4480 -0.2875 -0.3295
12413WAT      O50371   5.544   1.664   0.585 -0.4798  0.5169  0.1960
12413WAT     H150372   5.580   1.667   0.506 -1.3247  1.7926 -0.1907
12413WAT     H250373   5.487   1.731   0.583  0.4154  1.4290  2.3304
12413WAT    EPW50374   5.541   1.675   0.573 -0.4724  0.8401  0.4542
12414WAT      O50375   6.342   5.179   6.090 -0.1389  0.5488 -0.2812
12414WAT     H150376   6.399   5.209   6.149  0.5942 -0.4404 -0.4566
12414WAT     H250377   6.327   5.098   6.116  1.3990 -0.4764 -2.2515
12414WAT    EPW50378   6.348   5.172   6.102  0.1966  0.2512 -0.5982
12415WAT      O50379   2.029   2.765   1.080 -0.1414 -0.2796  0.3171
12415WAT     H150380   2.042   2.718   1.007  0.4718  0.0404  0.2192
12415WAT     H250381   2.060   2.713   1.143  0.0064 -0.2456  0.2722
12415WAT    EPW50382   2.035   2.750   1.078 -0.0290 -0.2273  0.2960
12416WAT      O50383   5.006   3.383   7.021 -0.2272  0.1376  0.3460
12416WAT     H150384   5.055   3.407   7.088  2.6095  1.2129 -1.8999
12416WAT     H250385   4.932   3.428   7.033  0.4740  0.8759  2.2814
12416WAT    EPW50386   5.002   3.393   7.033  0.2954  0.4055  0.3001
12417WAT      O50387   5.504   2.875   0.974 -0.2492 -0.7376 -0.9000
12417WAT     H150388   5.534   2.951   1.004 -1.5529 -0.6919  0.4211
12417WAT     H250389   5.574   2.836   0.940  0.9256  0.0692  0.4964
12417WAT    EPW50390   5.519   2.880   0.974 -0.2683 -0.6117 -0.4986
12418WAT      O50391   6.803   6.403   7.300  0.7710  0.2829 -0.2124
12418WAT     H150392   6.738   6.348   7.282  2.6024 -2.1727  0.2089
12418WAT     H250393   6.825   6.436   7.222  1.4627 -1.8109 -0.9511
12418WAT    EPW50394   6.797   6.400   7.286  1.1437 -0.3891 -0.2593
12419WAT      O50395   6.016   6.131   3.951  0.1759 -0.2399  0.0736
12419WAT     H150396   6.099   6.157   3.959  0.5667 -1.4987  0.3761
12419WAT     H250397   5.990   6.165   3.875  1.0496 -0.0323 -0.1347
12419WAT    EPW50398   6.024   6.140   3.941  0.3627 -0.3952  0.0875
12420WAT      O50399   0.610   6.308   1.580 -0.0227 -0.4699  0.3449
12420WAT     H150400   0.664   6.376   1.593  0.3635 -0.7817  0.4017
12420WAT     H250401   0.579   6.291   1.660 -3.1086  2.0288 -0.1249
12420WAT    EPW50402   0.614   6.315   1.594 -0.4215 -0.1468  0.2839
12421WAT      O50403   2.918   5.612   5.260 -0.1420  0.3802  0.7153
12421WAT     H150404   2.869   5.546   5.234  1.4147 -1.1826  1.5102
12421WAT     H250405   2.990   5.605   5.212  0.5490  0.7175  1.6619
12421WAT    EPW50406   2.922   5.602   5.249  0.1900  0.1991  0.9725
12422WAT      O50407   1.586   0.008   5.672  0.1105  0.0763 -0.1490
12422WAT     H150408   1.593   0.082   5.627  0.0630  0.6697  0.7831
12422WAT     H250409   1.502   0.007   5.698 -0.2336 -0.9494 -1.1948
12422WAT    EPW50410   1.575   0.019   5.669  0.0527  0.0125 -0.1658
12423WAT      O50411   6.172   6.334   2.777 -0.0332 -0.6066 -0.4601
12423WAT     H150412   6.156   6.279   2.712 -0.7306 -0.5160 -0.3776
12423WAT     H250413   6.092   6.355   2.806  0.2202  0.4225 -0.4739
12423WAT    EPW50414   6.158   6.329   2.772 -0.0988 -0.4412 -0.4499
12424WAT      O50415   0.212   4.554   1.466 -0.3031 -0.5909  0.6728
12424WAT     H150416   0.248   4.555   1.386 -1.7401 -0.9410 -0.0269
12424WAT     H250417   0.186   4.472   1.475 -2.0553 -0.0959  0.5609
12424WAT    EPW50418   0.213   4.542   1.455 -0.7742 -0.5695  0.5529
12425WAT      O50419   1.703   5.805   2.074 -0.1274  0.2007  0.1047
12425WAT     H150420   1.757   5.747   2.108  0.3392  0.5657 -0.0048
12425WAT     H250421   1.744   5.881   2.084  0.4722  0.2456 -2.0452
12425WAT    EPW50422   1.717   5.808   2.080  0.0301  0.2613 -0.2291
12426WAT      O50423   1.248   6.306   0.794  0.4809  0.7622 -0.0870
12426WAT     H150424   1.302   6.238   0.807  0.2055  0.6320  0.4036
12426WAT     H250425   1.181   6.272   0.750  0.2426  0.6691  0.3462
12426WAT    EPW50426   1.246   6.291   0.789  0.4050  0.7292  0.0495
12427WAT      O50427   6.009   2.173   1.029 -0.3706 -0.4350  0.3777
12427WAT     H150428   5.926   2.184   1.052 -2.1278 -1.5409 -4.2701
12427WAT     H250429   6.014   2.087   1.012  0.8690 -0.0329 -1.6904
12427WAT    EPW50430   5.997   2.162   1.030 -0.4471 -0.5390 -0.6144
12428WAT      O50431   4.002   1.693   0.740  0.0995  0.1302 -0.0101
12428WAT     H150432   4.063   1.745   0.706  0.7550 -1.9826 -2.4082
12428WAT     H250433   4.047   1.642   0.795 -0.1823  0.7850  0.8468
12428WAT    EPW50434   4.017   1.693   0.743  0.1547 -0.0852 -0.2378
12429WAT      O50435   2.723   2.017   3.390  0.8491 -0.1431 -0.0852
12429WAT     H150436   2.721   2.070   3.459  3.3640  0.3474 -0.3091
12429WAT     H250437   2.766   1.947   3.419  0.3406 -0.7201 -0.6827
12429WAT    EPW50438   2.729   2.014   3.405  1.1455 -0.1559 -0.2065
12430WAT      O50439   5.272   0.513   1.290  0.0185  0.4371 -0.3317
12430WAT     H150440   5.198   0.497   1.335  1.6372 -0.4858  2.2475
12430WAT     H250441   5.263   0.596   1.265 -1.1568  0.9301  1.4858
12430WAT    EPW50442   5.259   0.523   1.293  0.0840  0.3736  0.3178
12431WAT      O50443   1.011   0.785   3.868  1.2498 -0.1388 -0.0129
12431WAT     H150444   1.071   0.723   3.856  2.2176  0.9627 -1.0755
12431WAT     H250445   1.000   0.785   3.955  1.1687 -1.8124  0.0216
12431WAT    EPW50446   1.018   0.776   3.879  1.3808 -0.2233 -0.1648
12432WAT      O50447   1.339   2.945   0.821 -0.6134  0.0428 -0.7741
12432WAT     H150448   1.288   2.882   0.791 -1.2888  0.3158 -0.2221
12432WAT     H250449   1.409   2.903   0.850 -1.0665 -0.4586 -0.3936
12432WAT    EPW50450   1.342   2.930   0.821 -0.7801  0.0091 -0.6364
12433WAT      O50451   2.626   6.379   4.852 -0.1664 -0.2754  0.3276
12433WAT     H150452   2.569   6.441   4.874 -0.4742 -0.5363  0.2669
12433WAT     H250453   2.680   6.376   4.920  0.0152  0.2516  0.2143
12433WAT    EPW50454   2.626   6.388   4.865 -0.1851 -0.2361  0.3019
12434WAT      O50455   6.832   1.360   2.981 -0.3571  0.8387  0.2107
12434WAT     H150456   6.789   1.417   3.032 -2.1879  0.0059 -0.3018
12434WAT     H250457   6.805   1.282   3.010  0.4337  0.2855 -0.4920
12434WAT    EPW50458   6.821   1.357   2.993 -0.5107  0.6340  0.0312
12435WAT      O50459   4.931   6.748   4.865  0.4582 -0.4702  0.2034
12435WAT     H150460   4.925   6.763   4.951  1.2300 -0.2726  0.2245
12435WAT     H250461   4.940   6.827   4.831  1.0334 -0.6189  0.0138
12435WAT    EPW50462   4.931   6.762   4.873  0.6572 -0.4630  0.1785
12436WAT      O50463   3.917   5.481   5.910 -0.3934  0.0133  0.4320
12436WAT     H150464   3.874   5.406   5.922  1.1545 -0.7459  1.6947
12436WAT     H250465   3.939   5.505   5.991  0.5056  0.9693 -0.0698
12436WAT    EPW50466   3.914   5.473   5.924 -0.0319  0.0423  0.5444
12437WAT      O50467   3.771   5.116   2.731  0.1002  0.2237 -0.3206
12437WAT     H150468   3.714   5.182   2.732 -0.4748 -0.2555  0.6276
12437WAT     H250469   3.725   5.049   2.763  0.8177 -0.5177 -0.7787
12437WAT    EPW50470   3.756   5.116   2.736  0.1213  0.0434 -0.2482
12438WAT      O50471   2.369   5.159   4.723  0.1509 -0.2435 -0.3586
12438WAT     H150472   2.382   5.200   4.799  1.4256 -1.0604 -0.0990
12438WAT     H250473   2.289   5.183   4.700 -0.0657  0.4227  0.9915
12438WAT    EPW50474   2.359   5.169   4.731  0.3072 -0.2658 -0.1208
12439WAT      O50475   4.510   1.630   4.425  0.4921  0.4338  0.4905
12439WAT     H150476   4.456   1.625   4.357  1.6375 -3.2966 -0.3884
12439WAT     H250477   4.583   1.663   4.390  0.9578 -1.1225 -0.0751
12439WAT    EPW50478   4.513   1.634   4.410  0.7301 -0.3471  0.2771
12440WAT      O50479   1.639   0.130   0.724  0.4041 -0.7706 -0.3547
12440WAT     H150480   1.561   0.168   0.714  0.9728  0.4425 -0.2956
12440WAT     H250481   1.620   0.045   0.718 -1.1602 -0.5989  1.2972
12440WAT    EPW50482   1.625   0.123   0.722  0.2570 -0.5661 -0.1019
12441WAT      O50483   1.239   0.381   4.484  0.0261  0.0173  0.4430
12441WAT     H150484   1.229   0.419   4.406  0.2314 -1.5365 -0.3840
12441WAT     H250485   1.297   0.317   4.468 -1.3376 -1.5421  1.3988
12441WAT    EPW50486   1.246   0.377   4.470 -0.1450 -0.4426  0.4620
12442WAT      O50487   6.321   3.928   4.183 -0.5927  0.2709  0.0428
12442WAT     H150488   6.405   3.952   4.190 -0.4491  0.1510 -1.1813
12442WAT     H250489   6.324   3.841   4.185 -0.9465  0.2416  2.5308
12442WAT    EPW50490   6.334   3.919   4.184 -0.6238  0.2489  0.2295
12443WAT      O50491   2.136   5.076   3.578  0.3228  0.1292  0.6021
12443WAT     H150492   2.064   5.115   3.547  1.8404  0.9879 -2.1970
12443WAT     H250493   2.113   4.993   3.586 -0.9011  0.3173 -0.6084
12443WAT    EPW50494   2.122   5.070   3.575  0.3662  0.2838  0.0098
12444WAT      O50495   7.202   4.888   5.150 -0.7246  0.0144  0.3602
12444WAT     H150496   7.216   4.887   5.236 -0.5482  0.5156  0.3386
12444WAT     H250497   7.204   4.972   5.129  0.5015 -0.1443 -0.3246
12444WAT    EPW50498   7.205   4.900   5.160 -0.5174  0.0650  0.2558
12445WAT      O50499   0.382   5.116   3.991  0.4484  0.4849 -0.2292
12445WAT     H150500   0.302   5.105   4.023 -0.1936 -0.3686 -1.9937
12445WAT     H250501   0.396   5.202   3.998 -1.1271  0.8418 -0.9608
12445WAT    EPW50502   0.372   5.127   3.997  0.1209  0.4115 -0.5979
12446WAT      O50503   1.368   0.760   2.268  0.0640  0.5561 -0.0678
12446WAT     H150504   1.315   0.690   2.264  0.8289  0.0182 -2.4130
12446WAT     H250505   1.353   0.800   2.192  0.3551  2.4617  0.8297
12446WAT    EPW50506   1.358   0.756   2.256  0.2200  0.7582 -0.2817
12447WAT      O50507   6.572   1.609   2.682  0.6311  0.3388  0.2539
12447WAT     H150508   6.561   1.536   2.635 -0.2712  1.6488 -1.6651
12447WAT     H250509   6.491   1.634   2.701  0.9415  0.7641  1.0567
12447WAT    EPW50510   6.559   1.602   2.678  0.5436  0.5951  0.0890
12448WAT      O50511   5.233   5.939   4.384  0.0842 -0.3172 -0.1994
12448WAT     H150512   5.260   5.857   4.389  0.2166 -0.2726 -0.1804
12448WAT     H250513   5.209   5.958   4.465 -1.8998 -0.9950 -0.5709
12448WAT    EPW50514   5.233   5.930   4.396 -0.1893 -0.4107 -0.2515
12449WAT      O50515   0.734   3.155   7.341 -0.0242  0.4795  0.1506
12449WAT     H150516   0.700   3.119   7.269  0.4507 -1.6194  0.9049
12449WAT     H250517   0.782   3.221   7.310 -0.4052  0.0864 -1.3717
12449WAT    EPW50518   0.736   3.160   7.325 -0.0104  0.1114  0.0372
12450WAT      O50519   5.235   1.187   7.339 -0.1828  0.2262 -0.0428
12450WAT     H150520   5.248   1.263   7.378 -1.1448  0.3058  0.1478
12450WAT     H250521   5.186   1.207   7.269 -1.0022 -0.2837  0.3663
12450WAT    EPW50522   5.230   1.201   7.334 -0.4460  0.1626  0.0458
12451WAT      O50523   2.048   0.422   3.379 -0.0303  0.4194  0.8989
12451WAT     H150524   2.092   0.482   3.425  1.7428 -0.5778  0.5666
12451WAT     H250525   2.036   0.461   3.301  1.0442  0.3964  0.7090
12451WAT    EPW50526   2.053   0.437   3.374  0.3903  0.2687  0.8218
12452WAT      O50527   6.208   2.185   3.540 -0.6963 -0.0498  0.3142
12452WAT     H150528   6.144   2.126   3.529 -0.2792 -0.3229 -0.8838
12452WAT     H250529   6.166   2.261   3.546 -1.1708 -0.3001  0.1950
12452WAT    EPW50530   6.193   2.187   3.539 -0.7048 -0.1271  0.1196
12453WAT      O50531   2.898   4.784   0.553 -0.4794  1.3240 -0.1518
12453WAT     H150532   2.921   4.749   0.629  1.6535  1.0510 -0.8464
12453WAT     H250533   2.813   4.764   0.546 -0.3698  0.0649  1.4486
12453WAT    EPW50534   2.889   4.776   0.563 -0.1482  1.0977 -0.0180
12454WAT      O50535   4.894   7.012   0.168  0.5285  0.4629 -0.1208
12454WAT     H150536   4.879   6.956   0.234 -0.6365 -1.6676 -2.0530
12454WAT     H250537   4.892   7.090   0.207 -0.0141 -0.6923  2.3813
12454WAT    EPW50538   4.891   7.015   0.184  0.2763 -0.0225 -0.0366
12455WAT      O50539   3.702   6.833   4.832  0.2981 -0.4765 -0.0409
12455WAT     H150540   3.783   6.845   4.861  0.1923 -2.0093  0.9493
12455WAT     H250541   3.702   6.752   4.801 -0.5590 -0.0937 -1.1361
12455WAT    EPW50542   3.714   6.823   4.832  0.1559 -0.6464 -0.0564
12456WAT      O50543   6.647   6.447   6.044 -0.1892  0.6150  0.5314
12456WAT     H150544   6.696   6.510   6.080  1.5995 -0.2337 -0.2765
12456WAT     H250545   6.645   6.385   6.106  0.8057  0.1756  0.1583
12456WAT    EPW50546   6.654   6.447   6.059  0.2220  0.4247  0.3569
12457WAT      O50547   3.668   0.043   3.388  0.0561  0.3611 -0.1581
12457WAT     H150548   3.679   0.115   3.341 -3.5303  0.8664 -0.4461
12457WAT     H250549   3.647  -0.018   3.329 -2.6057  0.5520  0.4527
12457WAT    EPW50550   3.667   0.044   3.373 -0.8669  0.4639 -0.1104
12458WAT      O50551   2.264   0.816   1.401 -0.2751  0.1590 -0.0617
12458WAT     H150552   2.231   0.849   1.474  0.2934 -2.1370  1.3404
12458WAT     H250553   2.193   0.793   1.355 -0.6282  0.4030  0.3573
12458WAT    EPW50554   2.248   0.817   1.405 -0.2433 -0.1441  0.2073
12459WAT      O50555   1.800   0.385   2.038  0.7521 -0.4056 -0.2443
12459WAT     H150556   1.821   0.457   1.994 -2.4158 -0.1841 -1.6526
12459WAT     H250557   1.842   0.322   1.996  1.6015  0.3361 -0.5322
12459WAT    EPW50558   1.809   0.387   2.025  0.4096 -0.2633 -0.4948
12460WAT      O50559   0.504   3.235   0.253 -0.1046 -0.0180  0.0676
12460WAT     H150560   0.440   3.261   0.199 -0.1150 -0.3493 -0.0864
12460WAT     H250561   0.487   3.277   0.327 -0.1878  0.3162 -0.1374
12460WAT    EPW50562   0.492   3.245   0.256 -0.1184 -0.0176  0.0146
12461WAT      O50563   6.664   3.917   2.213  0.3490 -0.1697 -0.3020
12461WAT     H150564   6.681   3.994   2.176  2.2300  0.2419  1.2109
12461WAT     H250565   6.589   3.929   2.255  0.6274  0.8789 -0.0843
12461WAT    EPW50566   6.656   3.930   2.214  0.6680  0.0460 -0.0464
12462WAT      O50567   1.074   4.065   3.015  0.2354 -0.0410 -0.5428
12462WAT     H150568   1.039   4.140   3.043  0.5775 -0.4737  1.0873
12462WAT     H250569   1.004   4.020   2.989 -0.2028  0.0362  0.4491
12462WAT    EPW50570   1.058   4.070   3.015  0.2212 -0.0935 -0.1555
12463WAT      O50571   0.775   1.189   0.602  0.0675 -0.4264 -0.2805
12463WAT     H150572   0.840   1.162   0.652  0.7665  2.5637  0.6077
12463WAT     H250573   0.786   1.275   0.597 -2.4602 -0.0655 -2.0748
12463WAT    EPW50574   0.786   1.198   0.609 -0.2026  0.0686 -0.4143
12464WAT      O50575   2.499   0.279   0.327 -0.2079 -0.1570 -0.5368
12464WAT     H150576   2.542   0.245   0.395 -2.2643 -0.8128  0.5081
12464WAT     H250577   2.424   0.306   0.361 -0.7850  0.6646 -2.3450
12464WAT    EPW50578   2.494   0.278   0.342 -0.5969 -0.1325 -0.6495
12465WAT      O50579   1.350   5.943   5.077 -0.2004  0.0680 -0.0342
12465WAT     H150580   1.288   6.004   5.073 -1.4775 -1.0936  0.8711
12465WAT     H250581   1.421   5.984   5.048 -1.1305  1.7969 -0.0275
12465WAT    EPW50582   1.351   5.958   5.072 -0.5264  0.1518  0.1005
12466WAT      O50583   3.319   5.960   5.592  0.4007 -0.1884 -0.0293
12466WAT     H150584   3.308   6.039   5.556 -0.0408 -0.4133 -0.4010
12466WAT     H250585   3.374   5.921   5.536 -0.9139 -0.8218 -0.9368
12466WAT    EPW50586   3.326   5.966   5.578  0.1413 -0.3152 -0.2182
12467WAT      O50587   6.012   5.339   3.262 -0.6133  0.7463 -0.0460
12467WAT     H150588   5.987   5.284   3.325  1.1556  0.2290  0.2594
12467WAT     H250589   5.951   5.402   3.265 -1.3233  0.0480  1.2487
12467WAT    EPW50590   5.999   5.340   3.272 -0.4569  0.5668  0.1904
12468WAT      O50591   3.471   3.007   6.296 -0.3875 -0.0728  0.3887
12468WAT     H150592   3.546   2.968   6.317 -0.5889  0.3335  2.0003
12468WAT     H250593   3.497   3.076   6.249  0.0499 -1.2456 -1.2230
12468WAT    EPW50594   3.486   3.011   6.292 -0.3526 -0.1860  0.3887
12469WAT      O50595   4.537   6.758   6.192 -0.9839 -0.0808  0.1813
12469WAT     H150596   4.601   6.767   6.133  0.4813 -0.3604  1.6659
12469WAT     H250597   4.579   6.749   6.267 -2.8109  1.1895  1.4446
12469WAT    EPW50598   4.553   6.758   6.194 -1.0373  0.0656  0.5872
12470WAT      O50599   1.574   6.130   4.998 -0.4307  0.1564 -0.2319
12470WAT     H150600   1.564   6.217   4.993  0.9574  0.2690 -2.0805
12470WAT     H250601   1.658   6.120   5.018 -0.0918 -0.7177 -1.8567
12470WAT    EPW50602   1.585   6.142   5.000 -0.1756  0.0439 -0.7450
12471WAT      O50603   6.968   1.633   3.867  0.1328  0.0465 -0.0375
12471WAT     H150604   6.975   1.629   3.954 -3.1924 -1.9525  0.2930
12471WAT     H250605   7.030   1.577   3.839 -1.1218 -2.1575  1.3337
12471WAT    EPW50606   6.978   1.624   3.876 -0.5438 -0.5744  0.2139
12472WAT      O50607   4.857   6.847   7.359  0.3095  0.3735 -0.1056
12472WAT     H150608   4.922   6.789   7.371  0.4622  0.9164  2.1071
12472WAT     H250609   4.867   6.903   7.425 -2.1657  0.7202  0.0594
12472WAT    EPW50610   4.868   6.846   7.371 -0.0336  0.5049  0.2457
12473WAT      O50611   4.789   3.250   6.449 -0.0861 -1.0765  0.6457
12473WAT     H150612   4.821   3.318   6.404 -0.1195 -0.3200  1.7228
12473WAT     H250613   4.714   3.232   6.408 -0.2637 -0.2107  0.5787
12473WAT    EPW50614   4.783   3.257   6.436 -0.1172 -0.8368  0.7949
12474WAT      O50615   2.720   1.366   2.102  0.2321  0.1641  0.0931
12474WAT     H150616   2.791   1.370   2.051  0.5478  0.2481  0.5348
12474WAT     H250617   2.658   1.404   2.053 -0.0152 -1.6738 -1.0944
12474WAT    EPW50618   2.721   1.372   2.087  0.2422 -0.0950 -0.0171
12475WAT      O50619   1.351   2.320   7.223  0.2173 -0.3522  0.3346
12475WAT     H150620   1.287   2.293   7.170  0.5536 -0.6882  0.0981
12475WAT     H250621   1.418   2.335   7.170 -0.1115  1.5295  0.3820
12475WAT    EPW50622   1.351   2.318   7.207  0.2184 -0.1239  0.3067
12476WAT      O50623   5.629   7.112   4.042 -0.0024 -0.1446  0.0002
12476WAT     H150624   5.710   7.132   4.017 -0.0470  0.4973  0.3501
12476WAT     H250625   5.594   7.074   3.972  0.5984 -0.4302 -0.1519
12476WAT    EPW50626   5.636   7.109   4.028  0.0798 -0.0919  0.0294
12477WAT      O50627   1.822   5.822   0.400 -0.1534 -0.2002  0.1328
12477WAT     H150628   1.891   5.872   0.418  0.4012 -0.5061 -1.0414
12477WAT     H250629   1.831   5.754   0.454  0.1270  0.0664  0.4216
12477WAT    EPW50630   1.834   5.819   0.410 -0.0301 -0.2060  0.0020
12478WAT      O50631   2.512   7.167   4.662  0.3223  0.3323  0.0692
12478WAT     H150632   2.593   7.153   4.692  0.7413 -2.4133 -1.9164
12478WAT     H250633   2.523   7.221   4.595  0.8897 -1.5122 -1.4060
12478WAT    EPW50634   2.526   7.173   4.657  0.4680 -0.3458 -0.4421
12479WAT      O50635   1.342   2.591   1.830 -0.2700 -0.1475 -0.0097
12479WAT     H150636   1.295   2.553   1.767  0.2723  0.8804 -1.0981
12479WAT     H250637   1.304   2.565   1.903 -2.2085  0.2248 -0.8232
12479WAT    EPW50638   1.330   2.582   1.831 -0.4762  0.0594 -0.2907
12480WAT      O50639   3.551   1.854   0.494  0.2262 -0.4505  0.4918
12480WAT     H150640   3.619   1.826   0.446  0.5696 -0.3087  0.8912
12480WAT     H250641   3.578   1.931   0.526 -0.0418 -0.4889  0.8186
12480WAT    EPW50642   3.565   1.861   0.492  0.2374 -0.4352  0.5990
12481WAT      O50643   0.912   1.905   1.260 -0.0397 -0.0544 -0.3456
12481WAT     H150644   0.826   1.911   1.248  0.1121  0.6823 -1.1776
12481WAT     H250645   0.938   1.853   1.194  0.1690 -0.1637 -0.1794
12481WAT    EPW50646   0.903   1.898   1.248  0.0135  0.0383 -0.4439
12482WAT      O50647   0.327   4.545   4.794 -0.1142  0.0216  0.3166
12482WAT     H150648   0.338   4.560   4.879 -0.5738  1.3638  0.1628
12482WAT     H250649   0.392   4.588   4.757 -0.0677 -0.3454 -0.0335
12482WAT    EPW50650   0.338   4.553   4.801 -0.1752  0.1656  0.2422
12483WAT      O50651   3.050   3.077   1.844  0.1832  0.5945  0.9992
12483WAT     H150652   3.056   3.066   1.758 -0.9981  0.7367  0.8875
12483WAT     H250653   3.131   3.061   1.873  0.4152 -0.1706 -0.0496
12483WAT    EPW50654   3.063   3.073   1.836  0.0430  0.5025  0.8278
12484WAT      O50655   0.344   3.308   4.944  0.1054  0.3321 -0.0891
12484WAT     H150656   0.325   3.251   5.007  1.0981 -0.0023 -0.0855
12484WAT     H250657   0.402   3.265   4.894  0.3820  1.1045 -0.4462
12484WAT    EPW50658   0.349   3.293   4.946  0.2929  0.3968 -0.1414
12485WAT      O50659   0.926   0.204   3.089 -0.1028  0.0987  0.4062
12485WAT     H150660   0.851   0.229   3.053 -1.7397 -1.4079  2.5027
12485WAT     H250661   0.939   0.262   3.153  0.4899  0.3137  0.0950
12485WAT    EPW50662   0.917   0.216   3.093 -0.2570 -0.0921  0.6700
12486WAT      O50663   2.642   3.373   7.203 -0.4797  0.3684 -0.0450
12486WAT     H150664   2.671   3.448   7.235  0.0300  0.4963 -0.7901
12486WAT     H250665   2.557   3.374   7.223 -0.3016  0.7070  0.7630
12486WAT    EPW50666   2.634   3.384   7.211 -0.3781  0.4373 -0.0357
12487WAT      O50667   5.966   0.465   2.014 -0.4667  0.5150  0.4745
12487WAT     H150668   5.937   0.452   2.095 -0.6572  0.2774  0.3695
12487WAT     H250669   5.957   0.387   1.976  2.8630 -0.4044  1.2009
12487WAT    EPW50670   5.960   0.452   2.020 -0.0030  0.3440  0.5663
12488WAT      O50671   2.196   1.715   5.056 -0.4103  0.1031  0.6020
12488WAT     H150672   2.243   1.784   5.031 -0.5234 -0.2695 -0.7211
12488WAT     H250673   2.247   1.675   5.114  0.7199 -0.0345 -0.4519
12488WAT    EPW50674   2.211   1.720   5.061 -0.2601  0.0277  0.2509
12489WAT      O50675   1.717   0.147   7.249 -0.2402  0.2248  0.2330
12489WAT     H150676   1.643   0.151   7.295 -1.2391 -0.5098 -1.2038
12489WAT     H250677   1.742   0.230   7.242 -2.4632  0.8592 -1.4969
12489WAT    EPW50678   1.710   0.160   7.255 -0.7161  0.2100 -0.2348
12490WAT      O50679   4.008   4.260   1.122  0.1184 -0.0422 -0.1706
12490WAT     H150680   3.965   4.186   1.137  0.1423  0.0598  0.4237
12490WAT     H250681   4.063   4.239   1.059 -1.1300 -0.0510 -1.3020
12490WAT    EPW50682   4.009   4.246   1.115 -0.0625 -0.0284 -0.2500
12491WAT      O50683   4.884   6.926   3.465  0.1146 -0.2588  0.4574
12491WAT     H150684   4.911   6.959   3.389  1.4129 -0.2848  0.8689
12491WAT     H250685   4.801   6.952   3.471 -0.1501 -0.6371 -1.1665
12491WAT    EPW50686   4.876   6.935   3.455  0.2673 -0.3185  0.2783
12492WAT      O50687   0.613   3.933   0.758 -0.5872 -0.3249 -0.0137
12492WAT     H150688   0.541   3.969   0.725 -0.9699 -1.0557  0.0121
12492WAT     H250689   0.648   3.891   0.690  0.6505  1.2498 -0.4339
12492WAT    EPW50690   0.608   3.932   0.743 -0.4609 -0.2003 -0.0720
12493WAT      O50691   6.143   6.247   6.036 -0.1807 -0.2419 -0.7009
12493WAT     H150692   6.080   6.188   6.042 -1.1265  0.8561  0.8795
12493WAT     H250693   6.126   6.303   6.101  2.1699  0.3375 -0.4613
12493WAT    EPW50694   6.131   6.247   6.047  0.0268  0.0059 -0.4321
12494WAT      O50695   3.650   1.809   2.570  0.0153  0.2784 -0.2709
12494WAT     H150696   3.661   1.895   2.559  0.8247  0.4980  1.8916
12494WAT     H250697   3.605   1.803   2.644  0.5002 -1.1707 -0.0568
12494WAT    EPW50698   3.645   1.821   2.579  0.2065  0.0967  0.0802
12495WAT      O50699   7.019   0.162   0.153  0.1797  0.2888  0.2249
12495WAT     H150700   7.028   0.091   0.204  1.7757 -0.8778 -1.5610
12495WAT     H250701   6.944   0.147   0.111 -0.5050  0.6567  1.2752
12495WAT    EPW50702   7.009   0.149   0.154  0.3143  0.1708  0.1163
12496WAT      O50703   0.434   1.726   5.095  0.2852  0.4089  0.0951
12496WAT     H150704   0.353   1.739   5.067  0.2624  1.2294  0.5013
12496WAT     H250705   0.432   1.647   5.131 -0.3027  0.3863  0.0126
12496WAT    EPW50706   0.422   1.716   5.096  0.1950  0.5267  0.1429
12497WAT      O50707   6.797   6.126   0.032  0.0075  0.0609 -0.0946
12497WAT     H150708   6.760   6.189  -0.015  1.7525 -1.0518 -3.2322
12497WAT     H250709   6.867   6.165   0.066 -0.7979  0.6453  0.9729
12497WAT    EPW50710   6.802   6.141   0.030  0.1463 -0.0172 -0.4004
12498WAT      O50711   0.452   2.876   1.085  0.0449  0.1678  1.0046
12498WAT     H150712   0.432   2.889   1.169 -1.9796 -0.5480  0.6871
12498WAT     H250713   0.414   2.799   1.066  1.8289 -0.5033 -0.1615
12498WAT    EPW50714   0.444   2.866   1.094  0.0094 -0.0371  0.7855
12499WAT      O50715   2.346   0.015   0.281 -0.0517  0.3704  0.0050
12499WAT     H150716   2.368  -0.023   0.206  1.9568 -0.6020  1.0289
12499WAT     H250717   2.372   0.098   0.270 -0.0793  0.3213 -0.4690
12499WAT    EPW50718   2.353   0.022   0.268  0.2409  0.2195  0.0862
12500WAT      O50719   1.500   2.369   2.014  0.1222 -0.5416  0.1379
12500WAT     H150720   1.420   2.399   2.029  0.8964  1.9827 -0.3950
12500WAT     H250721   1.515   2.316   2.082 -2.0170 -1.1828  0.1634
12500WAT    EPW50722   1.490   2.365   2.027 -0.0794 -0.2634  0.0630
12501WAT      O50723   5.340   2.123   3.556  0.2305  0.2533 -0.5654
12501WAT     H150724   5.375   2.079   3.623 -0.0088 -1.2820 -1.4194
12501WAT     H250725   5.261   2.145   3.585 -0.8896 -2.5942 -1.1439
12501WAT    EPW50726   5.333   2.120   3.571  0.0297 -0.3941 -0.7770
12502WAT      O50727   0.908   4.251   5.972  0.6426  0.1956 -0.2403
12502WAT     H150728   0.835   4.210   5.946 -0.6139  2.3660 -0.4228
12502WAT     H250729   0.945   4.194   6.028 -1.0942 -1.0530 -0.2796
12502WAT    EPW50730   0.903   4.236   5.977  0.2004  0.3318 -0.2731
12503WAT      O50731   4.873   5.818   1.588 -0.0518 -0.1036  0.1571
12503WAT     H150732   4.926   5.771   1.638 -1.3513 -0.2420  1.4517
12503WAT     H250733   4.923   5.839   1.519  1.3996 -0.9399  0.9192
12503WAT    EPW50734   4.888   5.814   1.585 -0.0294 -0.2476  0.4609
12504WAT      O50735   4.014   4.650   6.967  0.1650  0.4854  0.4097
12504WAT     H150736   3.946   4.634   6.915 -0.2389  2.5676  0.1856
12504WAT     H250737   4.078   4.671   6.912 -0.6313  4.0618  0.5804
12504WAT    EPW50738   4.013   4.651   6.951 -0.0123  1.3213  0.4018
12505WAT      O50739   0.191   6.340   2.566 -0.2782  0.0108 -0.7348
12505WAT     H150740   0.182   6.324   2.651 -1.0367  0.5802 -0.7059
12505WAT     H250741   0.229   6.419   2.564 -0.3136  0.0225 -0.9319
12505WAT    EPW50742   0.195   6.349   2.578 -0.3955  0.0966 -0.7596
12506WAT      O50743   0.987   6.571   0.485 -0.4203  0.2136  0.8873
12506WAT     H150744   0.917   6.522   0.503  1.0615 -1.4234  2.6528
12506WAT     H250745   1.046   6.514   0.456  1.1995  0.9660  2.4870
12506WAT    EPW50746   0.985   6.556   0.484  0.0379  0.0829  1.3844
12507WAT      O50747   1.276   6.947   2.674  0.2152 -0.1224 -0.5914
12507WAT     H150748   1.298   7.030   2.660 -1.3869  0.4478  0.0626
12507WAT     H250749   1.299   6.907   2.600  0.8585  0.9163 -0.9757
12507WAT    EPW50750   1.283   6.953   2.661  0.0735  0.1153 -0.5515
12508WAT      O50751   4.854   4.060   3.808  0.6481  0.3177  0.7519
12508WAT     H150752   4.842   3.977   3.831 -0.4547 -0.6973 -2.7764
12508WAT     H250753   4.773   4.089   3.791  1.1682  1.4289  0.0167
12508WAT    EPW50754   4.840   4.052   3.809  0.5620  0.3319  0.1221
12509WAT      O50755   2.763   1.792   3.827 -0.3039 -0.0541 -0.0031
12509WAT     H150756   2.745   1.822   3.907 -0.0179  1.3336 -0.4319
12509WAT     H250757   2.839   1.750   3.839  0.0596  0.6678  0.3637
12509WAT    EPW50758   2.772   1.790   3.841 -0.2080  0.2575 -0.0122
12510WAT      O50759   4.466   6.197   4.580  0.3177 -0.4443  0.8033
12510WAT     H150760   4.524   6.246   4.538 -0.3688 -0.1607  0.1665
12510WAT     H250761   4.506   6.177   4.655  0.8684  0.5280  0.7775
12510WAT    EPW50762   4.480   6.201   4.585  0.2976 -0.2588  0.7054
12511WAT      O50763   4.043   6.950   4.385  0.4195  0.3721 -0.2153
12511WAT     H150764   3.996   7.021   4.401 -0.7004 -0.5939  1.0854
12511WAT     H250765   3.984   6.894   4.351  1.2854  0.0599 -1.2713
12511WAT    EPW50766   4.027   6.952   4.382  0.3820  0.1833 -0.1791
12512WAT      O50767   0.299   1.521   3.394 -0.0377  0.3727  0.0796
12512WAT     H150768   0.378   1.485   3.389  0.0375  0.7539 -2.8253
12512WAT     H250769   0.301   1.564   3.470  2.5830  0.5062  0.0125
12512WAT    EPW50770   0.311   1.522   3.405  0.3605  0.4487 -0.3594
12513WAT      O50771   6.184   2.283   1.650  0.1293  0.1086  0.0049
12513WAT     H150772   6.255   2.334   1.650  0.1027  0.1883  1.4163
12513WAT     H250773   6.144   2.304   1.725 -1.3891  0.0551 -0.7655
12513WAT    EPW50774   6.189   2.293   1.661 -0.0989  0.1124  0.0996
12514WAT      O50775   1.027   1.743   0.318 -0.7576 -0.1667  0.8815
12514WAT     H150776   1.097   1.731   0.369 -0.6219  1.0690  1.0204
12514WAT     H250777   0.989   1.665   0.317  0.9456 -1.0354  0.2924
12514WAT    EPW50778   1.031   1.730   0.326 -0.4860 -0.1125  0.8150
12515WAT      O50779   7.294   4.101   2.071 -0.1700 -0.2531  0.1019
12515WAT     H150780   7.330   4.175   2.043 -1.8448  0.4041 -0.4560
12515WAT     H250781   7.303   4.105   2.158  0.2036  0.3527  0.0411
12515WAT    EPW50782   7.300   4.112   2.080 -0.3622 -0.0665  0.0105
12516WAT      O50783   2.284   1.588   0.946 -0.2145 -0.2158  0.5340
12516WAT     H150784   2.342   1.585   0.881 -1.0262 -1.2165 -0.1758
12516WAT     H250785   2.314   1.652   0.998  0.8005  0.1550 -0.4805
12516WAT    EPW50786   2.297   1.597   0.944 -0.1845 -0.3089  0.2793
12517WAT      O50787   6.310   6.034   1.790  0.3077 -1.1116 -0.1666
12517WAT     H150788   6.240   6.052   1.840  0.9004 -0.3221  0.4140
12517WAT     H250789   6.288   6.067   1.712  0.5285  0.3460  0.3462
12517WAT    EPW50790   6.296   6.042   1.786  0.4278 -0.7796 -0.0051
12518WAT      O50791   5.254   7.183   3.026  0.0468  0.4416  0.2676
12518WAT     H150792   5.261   7.266   3.000  3.2096  0.9547  2.1865
12518WAT     H250793   5.168   7.172   3.035 -0.6636  2.6513 -2.3864
12518WAT    EPW50794   5.242   7.194   3.024  0.4090  0.8438  0.1590
12519WAT      O50795   7.207   4.740   0.044  0.0740  0.0791 -0.7445
12519WAT     H150796   7.137   4.787   0.021  0.7952  0.4646 -2.2912
12519WAT     H250797   7.173   4.671   0.085 -1.2305  0.1255 -1.6775
12519WAT    EPW50798   7.192   4.737   0.047 -0.0122  0.1429 -1.1108
12520WAT      O50799   6.212   3.429   7.337 -0.5525  0.3311 -0.2029
12520WAT     H150800   6.162   3.359   7.352 -1.6012  0.9065 -0.9093
12520WAT     H250801   6.290   3.395   7.315 -0.7089 -0.5772  0.6006
12520WAT    EPW50802   6.216   3.414   7.336 -0.7305  0.2819 -0.1885
12521WAT      O50803   0.031   7.201   0.870 -0.1297  0.2283  0.1169
12521WAT     H150804   0.118   7.206   0.872 -0.1283  0.3063 -0.0943
12521WAT     H250805   0.006   7.284   0.858 -0.2499  0.2637  0.5838
12521WAT    EPW50806   0.041   7.214   0.868 -0.1473  0.2451  0.1547
12522WAT      O50807   6.109   4.075   0.400 -0.2606 -0.6516 -0.7613
12522WAT     H150808   6.176   4.020   0.411  0.1709 -0.0368 -0.1739
12522WAT     H250809   6.042   4.035   0.438  0.3216 -0.2664  0.7244
12522WAT    EPW50810   6.109   4.061   0.407 -0.1108 -0.5039 -0.4550
12523WAT      O50811   2.178   2.294   3.378 -0.4313  0.1182 -0.2059
12523WAT     H150812   2.196   2.225   3.328  1.5075  0.4996 -0.1395
12523WAT     H250813   2.225   2.279   3.450 -0.7361  1.0481  0.1971
12523WAT    EPW50814   2.188   2.281   3.381 -0.1899  0.3119 -0.1366
12524WAT      O50815   0.832   5.976   5.648  0.2153  0.1463  0.2977
12524WAT     H150816   0.785   6.026   5.593 -0.3656 -0.8145 -0.1030
12524WAT     H250817   0.846   6.029   5.716 -3.2920 -0.0548  1.4141
12524WAT    EPW50818   0.827   5.991   5.650 -0.3886 -0.0254  0.4034
12525WAT      O50819   0.400   1.109   2.631  0.3948  0.3216 -0.1934
12525WAT     H150820   0.394   1.155   2.705  3.3334  0.5442  0.0576
12525WAT     H250821   0.399   1.170   2.569 -0.0653  0.3147 -0.1952
12525WAT    EPW50822   0.399   1.125   2.633  0.7609  0.3534 -0.1566
12526WAT      O50823   6.428   4.356   3.591  0.0979 -0.1709 -0.0115
12526WAT     H150824   6.386   4.424   3.556  0.7863  1.3733  1.9886
12526WAT     H250825   6.442   4.303   3.523 -0.8204  1.4906 -1.5663
12526WAT    EPW50826   6.424   4.358   3.576  0.0640  0.3027  0.0543
12527WAT      O50827   2.466   2.180   7.074 -0.1679 -0.1732  0.1283
12527WAT     H150828   2.542   2.213   7.102 -0.8475  2.5356 -0.9331
12527WAT     H250829   2.490   2.119   7.018  1.2828  0.9971 -0.5908
12527WAT    EPW50830   2.481   2.176   7.070 -0.0540  0.3999 -0.1347
12528WAT      O50831   1.888   2.781   6.747  0.1902  0.1297 -0.0207
12528WAT     H150832   1.897   2.712   6.694  0.4756  0.1502 -0.0004
12528WAT     H250833   1.803   2.783   6.763  0.1519 -0.0966 -0.1877
12528WAT    EPW50834   1.877   2.771   6.742  0.2267  0.0993 -0.0423
12529WAT      O50835   1.152   4.229   6.873  0.0238  0.2226  0.1575
12529WAT     H150836   1.122   4.157   6.913  1.1048 -1.3554 -1.7154
12529WAT     H250837   1.138   4.212   6.789 -0.3108  2.5594 -0.3091
12529WAT    EPW50838   1.145   4.216   6.867  0.1341  0.3347 -0.1881
12530WAT      O50839   2.992   7.073   3.246 -0.2549  0.1918 -0.0871
12530WAT     H150840   3.006   7.026   3.318 -0.6921 -0.3316 -0.3383
12530WAT     H250841   2.943   7.140   3.274 -2.2601 -1.1341 -0.2421
12530WAT    EPW50842   2.987   7.076   3.261 -0.6157 -0.0814 -0.1471
12531WAT      O50843   3.752   5.353   1.618  0.3804 -0.2683  0.3973
12531WAT     H150844   3.827   5.310   1.626  1.4990  1.6180  0.8122
12531WAT     H250845   3.716   5.348   1.697  1.5869  1.3156  1.1119
12531WAT    EPW50846   3.758   5.346   1.631  0.7238  0.2443  0.5641
12532WAT      O50847   5.645   3.813   2.561  0.3812  0.0038 -0.4321
12532WAT     H150848   5.688   3.835   2.488 -1.0669  1.3010 -0.9410
12532WAT     H250849   5.620   3.731   2.545  0.7484  0.0061 -1.0581
12532WAT    EPW50850   5.648   3.804   2.548  0.2215  0.1958 -0.5997
12533WAT      O50851   6.019   6.374   1.447 -0.4276  0.3791  0.3797
12533WAT     H150852   6.067   6.332   1.387 -0.6733  0.2899  0.2453
12533WAT     H250853   5.940   6.336   1.440  0.3121 -1.9784  3.0110
12533WAT    EPW50854   6.014   6.362   1.437 -0.3546  0.0177  0.7485
12534WAT      O50855   1.905   5.348   4.064 -0.2997 -0.3928  0.6044
12534WAT     H150856   1.937   5.359   4.144 -0.0706  0.1133  0.4533
12534WAT     H250857   1.956   5.287   4.029  1.8190  1.6860 -0.2813
12534WAT    EPW50858   1.917   5.341   4.071  0.0471 -0.0110  0.4513
12535WAT      O50859   3.671   6.705   7.211 -0.1466 -0.2708 -0.1740
12535WAT     H150860   3.597   6.689   7.255 -0.1099 -0.1651 -0.0758
12535WAT     H250861   3.643   6.724   7.131 -0.1662 -1.4643 -0.4733
12535WAT    EPW50862   3.656   6.705   7.206 -0.1441 -0.4315 -0.2037
12536WAT      O50863   5.969   4.177   1.013 -0.0165  0.0750  0.2008
12536WAT     H150864   6.018   4.238   1.054 -1.3770  1.1154  0.3540
12536WAT     H250865   5.939   4.128   1.078 -1.0860  0.9045  0.3547
12536WAT    EPW50866   5.972   4.179   1.029 -0.3754  0.3512  0.2462
12537WAT      O50867   0.309   4.242   6.093  0.3082  0.1937  0.1380
12537WAT     H150868   0.339   4.274   6.018 -0.4646  0.0340 -0.2530
12537WAT     H250869   0.272   4.310   6.132 -0.3310  0.0304 -0.1725
12537WAT    EPW50870   0.308   4.257   6.088  0.0996  0.1460  0.0344
12538WAT      O50871   5.036   1.837   4.646  0.2039 -0.1251 -0.0109
12538WAT     H150872   5.026   1.817   4.561 -0.3702  0.7865 -0.1695
12538WAT     H250873   5.019   1.762   4.687  1.1793 -0.7628 -0.7334
12538WAT    EPW50874   5.032   1.823   4.639  0.2632 -0.0846 -0.1411
12539WAT      O50875   6.126   2.008   3.103 -0.5327 -0.0294 -0.3805
12539WAT     H150876   6.200   1.975   3.137  0.1959 -0.0035 -1.8551
12539WAT     H250877   6.083   2.038   3.172  0.5109 -0.7081  0.5940
12539WAT    EPW50878   6.131   2.007   3.118 -0.2709 -0.1258 -0.4544
12540WAT      O50879   3.002   1.656   3.842 -0.3234  0.2572  0.1674
12540WAT     H150880   3.039   1.731   3.817  0.0929 -0.2144 -0.6516
12540WAT     H250881   3.058   1.623   3.900 -1.4954  1.5640  2.2019
12540WAT    EPW50882   3.015   1.662   3.847 -0.4350  0.3806  0.3469
12541WAT      O50883   2.545   3.996   3.882 -0.0351  0.3667 -0.3147
12541WAT     H150884   2.577   3.922   3.847 -1.3552 -0.1209 -0.5339
12541WAT     H250885   2.577   4.058   3.830  0.5371 -0.0955 -0.5332
12541WAT    EPW50886   2.554   3.994   3.869 -0.1456  0.2264 -0.3794
12542WAT      O50887   3.352   4.186   5.282  0.6401 -0.2017  0.5636
12542WAT     H150888   3.439   4.186   5.284  0.7435 -1.2439 -1.1865
12542WAT     H250889   3.334   4.143   5.208 -1.3396  1.2296  0.1395
12542WAT    EPW50890   3.362   4.180   5.271  0.3630 -0.1442  0.2424
12543WAT      O50891   0.234   0.035   5.722 -0.4197  0.7627  0.1528
12543WAT     H150892   0.236   0.044   5.809 -1.8060  1.5696  0.1307
12543WAT     H250893   0.157  -0.003   5.707 -0.1851  0.6194 -0.7192
12543WAT    EPW50894   0.223   0.031   5.733 -0.5898  0.8607  0.0207
12544WAT      O50895   7.039   3.363   3.669 -0.0460  0.3898 -0.9638
12544WAT     H150896   7.120   3.396   3.669  0.1768 -0.0494  0.8935
12544WAT     H250897   6.992   3.422   3.713 -1.1412  1.4135 -3.3394
12544WAT    EPW50898   7.044   3.376   3.675 -0.1749  0.4762 -1.0403
12545WAT      O50899   4.000   6.858   4.835  0.9282 -0.6562 -0.4042
12545WAT     H150900   4.053   6.831   4.771 -0.4471 -1.5738 -1.2120
12545WAT     H250901   4.055   6.896   4.891  2.4482 -1.5348 -1.1903
12545WAT    EPW50902   4.016   6.859   4.834  0.9496 -0.9215 -0.6396
12546WAT      O50903   4.065   5.716   6.660  0.0359 -0.3037  0.2945
12546WAT     H150904   4.040   5.637   6.633 -0.6844  0.4110 -1.2543
12546WAT     H250905   4.063   5.764   6.587  0.5527  1.1268  1.1836
12546WAT    EPW50906   4.061   5.712   6.645  0.0058  0.0132  0.1971
12547WAT      O50907   2.324   3.118   1.470  0.1140  0.2707 -0.8790
12547WAT     H150908   2.329   3.035   1.496 -5.0358 -0.0441  0.2355
12547WAT     H250909   2.270   3.114   1.401 -1.1031  2.7031 -0.1662
12547WAT    EPW50910   2.317   3.105   1.464 -0.8266  0.5835 -0.6091
12548WAT      O50911   5.190   4.567   1.993 -0.2417  0.1922  0.0781
12548WAT     H150912   5.262   4.518   2.001 -1.0203 -1.2784 -1.3875
12548WAT     H250913   5.187   4.586   1.908 -1.4883  0.3856  0.1435
12548WAT    EPW50914   5.200   4.563   1.982 -0.5408  0.0035 -0.1287
12549WAT      O50915   6.052   1.421   1.165 -0.7037 -0.2414  0.3620
12549WAT     H150916   6.006   1.475   1.114 -0.0472  1.1055  1.1369
12549WAT     H250917   6.132   1.424   1.131 -0.2534  0.6849  1.4330
12549WAT    EPW50918   6.057   1.430   1.152 -0.5402  0.0944  0.6347
12550WAT      O50919   2.647   1.054   2.187  0.2317 -0.0686 -0.3352
12550WAT     H150920   2.722   1.024   2.155 -0.4193  0.5155 -2.6249
12550WAT     H250921   2.656   1.141   2.182 -0.4831  0.0089 -0.3185
12550WAT    EPW50922   2.659   1.062   2.182  0.0299  0.0291 -0.6710
12551WAT      O50923   3.359   4.831   5.904  0.2765  0.3277 -0.0819
12551WAT     H150924   3.305   4.874   5.851 -0.2100 -2.9137 -2.5880
12551WAT     H250925   3.316   4.756   5.918  1.6759 -0.0474  2.7122
12551WAT    EPW50926   3.344   4.826   5.898  0.4113 -0.2065 -0.0394
12552WAT      O50927   3.831   0.855   2.500 -0.3999 -0.1656  0.1430
12552WAT     H150928   3.893   0.915   2.483  1.7474 -1.7720  1.7165
12552WAT     H250929   3.811   0.869   2.583 -0.7140 -0.9051  0.1998
12552WAT    EPW50930   3.837   0.866   2.510 -0.1291 -0.5122  0.3839
12553WAT      O50931   5.480   1.871   6.129  0.2992 -0.1971  0.3989
12553WAT     H150932   5.540   1.815   6.099  1.5677  1.3470 -0.0478
12553WAT     H250933   5.459   1.837   6.207 -0.5969 -2.4518 -0.7318
12553WAT    EPW50934   5.486   1.857   6.136  0.3542 -0.3020  0.1659
12554WAT      O50935   0.773   6.031   6.932 -0.6640 -0.0560  0.3427
12554WAT     H150936   0.738   5.965   6.888 -0.3964  0.2982 -0.4086
12554WAT     H250937   0.704   6.080   6.955 -0.9071 -0.8004  1.2787
12554WAT    EPW50938   0.758   6.029   6.929 -0.6604 -0.1136  0.3700
12555WAT      O50939   1.275   4.545   2.369  0.1140 -0.1417  0.5557
12555WAT     H150940   1.240   4.564   2.446  0.6597 -0.8859  0.9980
12555WAT     H250941   1.208   4.514   2.322 -0.7263  2.3578 -0.0603
12555WAT    EPW50942   1.260   4.543   2.373  0.0705  0.1176  0.5300
12556WAT      O50943   4.755   5.453   0.855  0.2105  0.0997 -0.6558
12556WAT     H150944   4.733   5.524   0.810  1.5366  0.8178 -0.1999
12556WAT     H250945   4.763   5.392   0.792 -0.9377  0.3120 -1.0430
12556WAT    EPW50946   4.753   5.454   0.839  0.2368  0.2372 -0.6456
12557WAT      O50947   0.315   4.622   5.776 -0.8443 -0.0195 -0.2059
12557WAT     H150948   0.300   4.680   5.713 -0.4318  0.3821  0.0645
12557WAT     H250949   0.387   4.651   5.814 -2.4272  1.1823  2.0989
12557WAT    EPW50950   0.323   4.635   5.772 -1.0172  0.2173  0.1745
12558WAT      O50951   3.686   5.956   4.623  0.5773 -0.3540 -0.1346
12558WAT     H150952   3.691   5.985   4.540  0.2997  0.2504  0.0518
12558WAT     H250953   3.769   5.952   4.648  0.6300  0.1194 -0.2255
12558WAT    EPW50954   3.699   5.960   4.614  0.5441 -0.1948 -0.1205
12559WAT      O50955   2.125   3.997   1.313 -0.1987  0.0420 -0.1164
12559WAT     H150956   2.091   3.916   1.310 -0.1605  0.0536 -1.0821
12559WAT     H250957   2.211   3.983   1.311 -0.1296  0.0462  1.5664
12559WAT    EPW50958   2.133   3.983   1.313 -0.1828  0.0443 -0.0105
12560WAT      O50959   3.160   3.279   6.430 -0.2576 -0.0641 -0.2129
12560WAT     H150960   3.208   3.317   6.493 -0.6675  0.4230 -0.1894
12560WAT     H250961   3.149   3.197   6.460 -1.3798  0.4580  0.9032
12560WAT    EPW50962   3.166   3.272   6.444 -0.4839  0.0850 -0.0446
12561WAT      O50963   6.100   3.906   2.131  0.3222  0.0379 -0.4036
12561WAT     H150964   6.018   3.878   2.140  0.5241 -0.6838 -0.7352
12561WAT     H250965   6.113   3.953   2.204  0.2028 -1.3673  0.5809
12561WAT    EPW50966   6.090   3.909   2.143  0.3344 -0.2763 -0.3071
12562WAT      O50967   2.500   4.285   2.165 -0.6700 -0.1952  0.7885
12562WAT     H150968   2.491   4.354   2.217 -0.0822  0.3350  0.2064
12562WAT     H250969   2.424   4.244   2.172 -1.1231  0.6460  0.9518
12562WAT    EPW50970   2.488   4.289   2.173 -0.6501  0.0074  0.7266
12563WAT      O50971   6.673   0.170   2.568 -0.1592 -0.2739 -0.0735
12563WAT     H150972   6.675   0.240   2.517  2.2535  0.2146  0.5631
12563WAT     H250973   6.588   0.154   2.578 -0.7340  1.0618 -2.2181
12563WAT    EPW50974   6.661   0.178   2.562  0.1123 -0.0044 -0.2962
12564WAT      O50975   4.284   0.048   0.359  0.2382  0.1466  0.2330
12564WAT     H150976   4.313   0.069   0.439  0.6331 -0.2667  0.1980
12564WAT     H250977   4.212   0.097   0.351 -1.3785 -1.7263  1.9240
12564WAT    EPW50978   4.277   0.058   0.370  0.0577 -0.1911  0.4776
12565WAT      O50979   5.853   6.910   6.440  0.0247  0.2952  0.2220
12565WAT     H150980   5.934   6.920   6.473 -0.8182  3.2645  1.8540
12565WAT     H250981   5.807   6.971   6.483 -2.5773  0.3371 -2.3650
12565WAT    EPW50982   5.858   6.921   6.451 -0.4842  0.7400  0.0809
12566WAT      O50983   1.870   1.420   5.002 -0.2352 -0.1893 -0.0123
12566WAT     H150984   1.861   1.461   5.078  1.9438 -1.7374  1.2168
12566WAT     H250985   1.916   1.477   4.954  2.2560 -0.7594  1.4624
12566WAT    EPW50986   1.876   1.434   5.006  0.4546 -0.5022  0.3871
12567WAT      O50987   4.117   0.184   5.513 -0.1910 -0.5777  0.0284
12567WAT     H150988   4.190   0.141   5.534 -0.7181 -0.7630  1.7014
12567WAT     H250989   4.054   0.124   5.523 -0.6565 -0.1710 -0.4085
12567WAT    EPW50990   4.118   0.169   5.518 -0.3376 -0.5450  0.2110
12568WAT      O50991   0.800   2.204   6.678  0.4941 -0.2108  0.0440
12568WAT     H150992   0.733   2.151   6.658 -0.9377  1.4787  0.0924
12568WAT     H250993   0.870   2.161   6.648 -0.6642 -1.7648 -0.5790
12568WAT    EPW50994   0.800   2.189   6.670  0.1115 -0.1908 -0.0408
12569WAT      O50995   2.074   2.516   1.754  0.2381  0.7653 -0.2200
12569WAT     H150996   2.070   2.596   1.719 -2.3294  0.5896 -0.4530
12569WAT     H250997   2.059   2.529   1.839 -2.5449  0.4025 -0.5750
12569WAT    EPW50998   2.071   2.530   1.761 -0.5523  0.6858 -0.3069
12570WAT      O50999   0.220   4.565   2.797  0.0570 -0.1333 -0.2097
12570WAT     H151000   0.190   4.583   2.877 -0.0715 -0.6665 -0.1315
12570WAT     H251001   0.241   4.643   2.764 -2.3979  0.4261 -0.6497
12570WAT    EPW51002   0.219   4.579   2.804 -0.3246 -0.1294 -0.2631
12571WAT      O51003   1.545   2.253   0.700 -0.4600 -0.0542  0.0894
12571WAT     H151004   1.585   2.201   0.758 -0.5367  1.3012  1.4220
12571WAT     H251005   1.551   2.332   0.736  1.1911  1.2259 -2.6580
12571WAT    EPW51006   1.552   2.257   0.714 -0.2274  0.3351 -0.1196
   7.32054   7.26794   7.42754
