Generic title
 1080
    1C5    HO5'    1   3.200   4.863   3.121  0.0029  3.0825  0.1077
    1C5     O5'    2   3.217   4.880   3.214  1.1785  0.1379  0.5274
    1C5     C5'    3   3.245   5.023   3.229 -0.4206 -0.0566  0.0449
    1C5     H5'    4   3.159   5.070   3.181  1.3194  1.0901 -2.1293
    1C5    H5''    5   3.333   5.049   3.170 -0.3978 -0.9554 -0.3321
    1C5     C4'    6   3.264   5.068   3.374 -0.0136 -0.1148 -0.2396
    1C5     H4'    7   3.291   5.174   3.366  1.6445 -0.5033 -0.3087
    1C5     O4'    8   3.144   5.061   3.452  0.7245 -0.2844 -0.9562
    1C5     C1'    9   3.175   5.021   3.583  0.0376  0.2544 -0.0719
    1C5     H1'   10   3.141   5.100   3.650  1.2745 -2.1034  3.6391
    1C5      N1   11   3.131   4.883   3.623 -0.6406  0.2069 -0.0321
    1C5      C6   12   3.086   4.795   3.526 -0.3438 -0.3561 -0.2412
    1C5      H6   13   3.088   4.814   3.420 -2.2042  0.6262 -0.1318
    1C5      C5   14   3.021   4.682   3.572 -0.7955  0.5457  1.2503
    1C5      H5   15   2.985   4.608   3.502 -0.2299  1.8238 -0.4324
    1C5      C4   16   3.006   4.660   3.710  0.0458 -0.1119 -0.2241
    1C5      N4   17   2.946   4.551   3.766 -0.4630 -0.3407 -0.1345
    1C5     H41   18   2.941   4.544   3.866  1.0171  0.4573  0.0419
    1C5     H42   19   2.933   4.467   3.712  3.0956 -2.3489  1.7854
    1C5      N3   20   3.055   4.746   3.794  0.0215  0.1945  0.0869
    1C5      C2   21   3.123   4.859   3.760  0.4869  0.2548  0.0604
    1C5      O2   22   3.175   4.935   3.839  0.3595 -0.6112 -0.5251
    1C5     C3'   23   3.372   4.992   3.448  0.1870  0.0080  0.7169
    1C5     H3'   24   3.362   4.887   3.424  1.9387  0.0614 -0.4744
    1C5     C2'   25   3.330   5.025   3.594 -0.3062 -0.1622  0.5591
    1C5     H2'   26   3.362   4.948   3.665  2.0262 -0.4664 -0.7484
    1C5     O2'   27   3.360   5.159   3.641 -0.5231  0.1176 -0.2441
    1C5    HO2'   28   3.374   5.167   3.736 -0.5093 -0.9004 -0.1508
    1C5     O3'   29   3.510   5.027   3.428 -0.0227 -0.0345 -0.2656
    2U        P   30   3.629   4.920   3.433  0.0202 -0.5758  0.0352
    2U      OP1   31   3.754   4.987   3.388 -0.3567 -0.8187  0.3905
    2U      OP2   32   3.582   4.796   3.377  0.3166  0.2762  0.1936
    2U      O5'   33   3.645   4.893   3.590  0.0754  0.8464  0.7802
    2U      C5'   34   3.674   4.998   3.676 -0.1281 -0.1164 -0.3641
    2U      H5'   35   3.600   5.074   3.651  0.3452  0.1751 -0.8816
    2U     H5''   36   3.773   5.043   3.665  0.5712 -1.5919 -0.2963
    2U      C4'   37   3.652   4.959   3.812 -0.3565 -0.3063 -0.5019
    2U      H4'   38   3.694   5.043   3.867  1.3116 -0.6734 -1.1641
    2U      O4'   39   3.519   4.941   3.849  0.4766 -0.4184  0.1287
    2U      C1'   40   3.512   4.831   3.943 -0.4871  0.0523 -0.3556
    2U      H1'   41   3.448   4.865   4.024  0.7246  0.6846  0.3614
    2U       N1   42   3.445   4.707   3.882  0.4225  0.0569 -0.8842
    2U       C6   43   3.435   4.687   3.749 -0.3044 -0.3669 -0.9384
    2U       H6   44   3.478   4.757   3.679  2.3303 -0.6716  0.2664
    2U       C5   45   3.362   4.582   3.702  0.1768 -0.2369  0.5123
    2U       H5   46   3.353   4.568   3.596 -0.1602  1.4487  0.2936
    2U       C4   47   3.291   4.496   3.792  0.2405  1.0915  0.7626
    2U       O4   48   3.219   4.398   3.767 -0.0042 -0.1018 -0.0074
    2U       N3   49   3.312   4.519   3.921 -0.3950 -0.4307 -0.1767
    2U       H3   50   3.272   4.450   3.983 -0.1927 -0.9200 -0.5953
    2U       C2   51   3.401   4.617   3.972  0.6118  0.2969 -0.7839
    2U       O2   52   3.412   4.624   4.094  0.1265  0.0265  0.1299
    2U      C3'   53   3.724   4.828   3.855  0.0689 -0.3837  0.3550
    2U      H3'   54   3.703   4.747   3.786  1.1627  0.5547 -1.1277
    2U      C2'   55   3.653   4.794   3.987 -0.6735  0.5157 -0.2319
    2U      H2'   56   3.657   4.692   4.025  0.9361  0.1153 -1.3683
    2U      O2'   57   3.682   4.892   4.085  0.2484 -0.2904  0.0954
    2U     HO2'   58   3.664   4.851   4.171 -3.2290  0.8621  0.0750
    2U      O3'   59   3.864   4.844   3.865  0.4893  0.1271  0.3989
    3G        P   60   3.961   4.721   3.856  0.3369 -0.1411  0.0392
    3G      OP1   61   4.099   4.768   3.868 -1.2650 -0.1426  0.3755
    3G      OP2   62   3.922   4.637   3.746  0.3762 -0.4782  0.0439
    3G      O5'   63   3.912   4.651   3.993  0.0213 -0.2238 -0.9467
    3G      C5'   64   3.939   4.708   4.120  0.3340 -0.1988 -0.2596
    3G      H5'   65   3.901   4.809   4.134  2.5070  0.5726  0.5121
    3G     H5''   66   4.045   4.711   4.147  0.2892 -2.7867  0.4567
    3G      C4'   67   3.887   4.617   4.224 -0.2698 -0.1577  0.4612
    3G      H4'   68   3.922   4.647   4.322  0.1509 -0.4890  0.4149
    3G      O4'   69   3.748   4.599   4.227  0.0218 -0.3252 -0.0245
    3G      C1'   70   3.718   4.468   4.270 -1.5039 -0.2799  0.0633
    3G      H1'   71   3.659   4.469   4.362  0.3165 -0.4847  1.2820
    3G       N9   72   3.648   4.409   4.162 -0.1232 -0.2672 -0.1188
    3G       C8   73   3.655   4.435   4.027 -0.2805 -0.1504 -0.2541
    3G       H8   74   3.711   4.516   3.982 -1.4248  0.6382 -0.2955
    3G       N7   75   3.572   4.359   3.956  0.3373 -0.0779  0.7474
    3G       C5   76   3.520   4.270   4.047 -0.7518  1.2324 -0.7826
    3G       C6   77   3.435   4.157   4.031 -0.4132  0.3349 -0.0799
    3G       O6   78   3.376   4.125   3.927 -0.2253  0.4128 -0.8783
    3G       N1   79   3.415   4.091   4.151  0.0354 -0.1058  0.8970
    3G       H1   80   3.346   4.017   4.152 -1.6222  1.3189 -1.0649
    3G       C2   81   3.478   4.119   4.268  0.0996  0.5873  0.2509
    3G       N2   82   3.450   4.046   4.367  0.3023 -0.4608 -0.0314
    3G      H21   83   3.384   3.970   4.353  0.1228 -0.5432  1.1620
    3G      H22   84   3.482   4.057   4.462 -0.2131  1.4078 -0.0282
    3G       N3   85   3.560   4.220   4.286  0.6571  0.0156 -0.4280
    3G       C4   86   3.577   4.290   4.171  0.6175  0.0691 -0.7701
    3G      C3'   87   3.947   4.479   4.205  0.1087  0.0929  0.7027
    3G      H3'   88   3.940   4.444   4.102  2.3437  0.1742  0.4678
    3G      C2'   89   3.854   4.397   4.294  0.1792 -0.2269  0.4940
    3G      H2'   90   3.852   4.291   4.268 -0.2984  0.0661 -0.7774
    3G      O2'   91   3.877   4.418   4.431 -0.2229  0.5531  0.8699
    3G     HO2'   92   3.879   4.338   4.485 -1.3660  0.2609  0.4917
    3G      O3'   93   4.085   4.488   4.240  0.2636 -0.1318  0.3523
    4G        P   94   4.182   4.375   4.181  0.0877  0.0261 -0.5427
    4G      OP1   95   4.319   4.403   4.228 -0.1847 -0.7630  0.4781
    4G      OP2   96   4.154   4.359   4.040  0.3435 -0.2431  0.3690
    4G      O5'   97   4.129   4.255   4.269  0.2834 -0.2062 -0.1273
    4G      C5'   98   4.131   4.121   4.228 -0.8566  0.0772  0.3874
    4G      H5'   99   4.231   4.077   4.228 -1.3434 -1.1447 -1.2742
    4G     H5''  100   4.097   4.124   4.124  2.4620  1.0752 -0.7951
    4G      C4'  101   4.046   4.034   4.322  0.3863  0.4231  0.5562
    4G      H4'  102   4.093   4.037   4.420  0.8161  0.3221  0.3566
    4G      O4'  103   3.910   4.088   4.325  0.0415  0.8213 -0.0926
    4G      C1'  104   3.818   3.987   4.294  0.1321 -0.0254  0.3560
    4G      H1'  105   3.735   3.996   4.363 -0.1225  0.1903  0.0223
    4G       N9  106   3.773   3.991   4.154  0.4701  0.5850 -0.4143
    4G       C8  107   3.793   4.082   4.055 -1.0445  0.3795 -0.9556
    4G       H8  108   3.857   4.166   4.079 -1.5129 -0.0327  2.1506
    4G       N7  109   3.731   4.056   3.945  0.0603 -0.1144 -0.8050
    4G       C5  110   3.646   3.952   3.979  0.0388  0.7221  1.1351
    4G       C6  111   3.536   3.894   3.908 -0.7161 -0.1540 -0.0682
    4G       O6  112   3.499   3.909   3.790 -0.3472 -0.0341  0.0975
    4G       N1  113   3.483   3.787   3.983  1.1367  0.2719  0.3016
    4G       H1  114   3.407   3.737   3.939  1.6663 -1.2289  1.0268
    4G       C2  115   3.512   3.761   4.111  0.5100  1.0265 -0.2828
    4G       N2  116   3.454   3.655   4.160  0.9138  0.3185 -0.1316
    4G      H21  117   3.383   3.605   4.107  0.3550 -2.1673  2.7187
    4G      H22  118   3.469   3.627   4.256  0.5262 -1.3408 -0.5100
    4G       N3  119   3.601   3.825   4.184  0.1476 -0.6743  0.4637
    4G       C4  120   3.669   3.914   4.111  0.2654 -0.2628  0.0352
    4G      C3'  121   4.035   3.891   4.280 -0.0968  0.5733 -0.0930
    4G      H3'  122   4.022   3.874   4.173  0.2501  0.5902 -0.1392
    4G      C2'  123   3.898   3.863   4.336  0.7876  0.1998 -0.1455
    4G      H2'  124   3.855   3.774   4.290 -0.1798  0.2796  0.5776
    4G      O2'  125   3.902   3.841   4.480  0.6317 -0.1330  0.3384
    4G     HO2'  126   3.808   3.835   4.499  0.1762  2.5091 -0.5294
    4G      O3'  127   4.143   3.809   4.327 -0.2138 -0.0166 -0.0532
    5G        P  128   4.201   3.688   4.234 -0.1582 -0.0926  0.3209
    5G      OP1  129   4.315   3.638   4.307 -0.4068  0.3384  0.1124
    5G      OP2  130   4.217   3.731   4.093 -0.3984 -0.3194  0.2529
    5G      O5'  131   4.087   3.587   4.248 -0.3289  0.3244  0.4071
    5G      C5'  132   4.036   3.544   4.369 -0.1766  0.9144 -0.2347
    5G      H5'  133   4.005   3.622   4.438 -4.1899 -3.0785  3.1228
    5G     H5''  134   4.108   3.482   4.423 -0.6238  1.9914  1.6915
    5G      C4'  135   3.911   3.472   4.326 -0.3124 -0.4353 -0.6307
    5G      H4'  136   3.873   3.421   4.415  0.3168  1.8071  1.0006
    5G      O4'  137   3.802   3.554   4.270  0.4316 -0.0128 -0.3749
    5G      C1'  138   3.734   3.480   4.174  0.2286 -0.5050  0.0155
    5G      H1'  139   3.628   3.481   4.201  0.2257 -2.7659  0.2654
    5G       N9  140   3.749   3.540   4.042 -0.2111  0.4979  0.4032
    5G       C8  141   3.841   3.641   4.008  0.5679 -0.0512  0.6959
    5G       H8  142   3.910   3.686   4.078  2.0027  1.5166 -1.5873
    5G       N7  143   3.811   3.693   3.886 -0.0592 -0.7484 -0.3632
    5G       C5  144   3.705   3.614   3.838 -0.5371 -1.0371 -0.8730
    5G       C6  145   3.616   3.627   3.720  0.0030  0.7186 -0.3806
    5G       O6  146   3.631   3.699   3.625 -0.1689  0.0288 -0.3418
    5G       N1  147   3.511   3.540   3.719 -0.4515  0.0725 -0.0167
    5G       H1  148   3.449   3.552   3.640  1.3754  2.4322 -1.2575
    5G       C2  149   3.490   3.449   3.819 -0.3521  0.4452 -0.1082
    5G       N2  150   3.392   3.363   3.801  0.2753 -0.3305 -0.2330
    5G      H21  151   3.346   3.363   3.712  2.4345 -1.8486 -1.4500
    5G      H22  152   3.381   3.286   3.865 -3.2238 -0.0047 -0.2460
    5G       N3  153   3.560   3.438   3.934  0.3294 -0.4294 -0.0642
    5G       C4  154   3.668   3.522   3.938 -0.1869 -0.0732 -0.0035
    5G      C3'  155   3.931   3.361   4.224  0.2147  0.1522  0.0151
    5G      H3'  156   3.996   3.401   4.146  0.8862  2.8696  1.8199
    5G      C2'  157   3.786   3.336   4.172  0.3598 -0.1667  0.2228
    5G      H2'  158   3.787   3.291   4.073 -1.5450  0.9693 -0.3586
    5G      O2'  159   3.714   3.251   4.260 -0.3373 -0.5195 -0.6069
    5G     HO2'  160   3.784   3.198   4.299 -0.0302  0.8117  0.7117
    5G      O3'  161   3.988   3.252   4.287  0.4726  0.3604 -0.4934
    6U        P  162   4.063   3.134   4.210  0.5273 -0.0703 -0.0994
    6U      OP1  163   4.186   3.096   4.281  0.4828  0.1759 -0.2771
    6U      OP2  164   4.073   3.170   4.072 -0.3257 -0.0743  0.0952
    6U      O5'  165   3.962   3.007   4.229 -0.1784 -0.7167  0.5038
    6U      C5'  166   3.952   2.939   4.347 -0.0888  0.8541 -0.7348
    6U      H5'  167   3.927   3.017   4.419 -0.7738  0.3141 -0.3715
    6U     H5''  168   4.042   2.891   4.385 -1.2339  0.0195  1.0055
    6U      C4'  169   3.841   2.839   4.360  0.3574  1.0440  0.6055
    6U      H4'  170   3.852   2.786   4.455  0.7769 -1.9763 -1.0059
    6U      O4'  171   3.714   2.900   4.341 -0.0340  0.5653  0.8272
    6U      C1'  172   3.648   2.817   4.250 -0.4403  0.3080  0.0048
    6U      H1'  173   3.555   2.782   4.296  1.6092 -2.6082  2.3580
    6U       N1  174   3.632   2.881   4.111 -0.2897  0.0364  0.3204
    6U       C6  175   3.706   2.984   4.069 -0.2842  0.2626 -0.2622
    6U       H6  176   3.779   3.027   4.136 -0.8071  0.7838 -0.0226
    6U       C5  177   3.677   3.045   3.954 -0.2014 -0.1299 -0.2057
    6U       H5  178   3.727   3.138   3.930 -1.1961  1.2075  2.5337
    6U       C4  179   3.579   2.997   3.866  0.4586 -0.1441  0.0728
    6U       O4  180   3.547   3.041   3.755 -0.4048  0.1045 -0.2832
    6U       N3  181   3.515   2.889   3.913  0.6077 -0.0559  0.3674
    6U       H3  182   3.425   2.874   3.870  0.7911 -0.3591  0.0867
    6U       C2  183   3.530   2.831   4.032 -0.2211  0.2008 -0.2655
    6U       O2  184   3.447   2.745   4.068  0.2266  0.6699  0.1279
    6U      C3'  185   3.859   2.739   4.249  0.2898 -0.3088 -0.3954
    6U      H3'  186   3.879   2.784   4.151 -2.6362  0.1292 -0.8760
    6U      C2'  187   3.721   2.684   4.239  1.2074 -0.0191  0.0768
    6U      H2'  188   3.705   2.643   4.139 -0.1507  1.7022 -0.4640
    6U      O2'  189   3.685   2.587   4.337  0.2582  0.0584  0.3581
    6U     HO2'  190   3.634   2.627   4.407  1.3402 -3.0268  3.1694
    6U      O3'  191   3.960   2.642   4.274 -0.4518 -0.4746 -0.0267
    7C        P  192   4.059   2.584   4.164  0.0821  0.0785  0.4263
    7C      OP1  193   4.130   2.469   4.224 -0.3975 -0.1628  0.3226
    7C      OP2  194   4.133   2.701   4.106 -0.3036  0.2925  0.2915
    7C      O5'  195   3.981   2.522   4.047 -0.1573  0.7886  0.6684
    7C      C5'  196   3.875   2.428   4.061 -0.6055  0.5109  0.5137
    7C      H5'  197   3.816   2.432   4.153 -0.0431 -0.6790  0.9396
    7C     H5''  198   3.925   2.331   4.056 -1.3929  0.0352  1.6187
    7C      C4'  199   3.775   2.440   3.943 -0.4757  0.4605 -0.7281
    7C      H4'  200   3.700   2.361   3.954  0.6445 -0.7638 -1.6296
    7C      O4'  201   3.712   2.566   3.936  0.1836 -0.0711 -0.5574
    7C      C1'  202   3.687   2.619   3.813  0.1527  0.5339  0.1231
    7C      H1'  203   3.585   2.653   3.795  0.1129  0.2382 -0.2377
    7C       N1  204   3.783   2.731   3.773  0.1860  0.3395 -0.3589
    7C       C6  205   3.888   2.772   3.851  0.2700  0.4840 -0.3003
    7C       H6  206   3.924   2.723   3.940 -2.5751  0.0756  0.7366
    7C       C5  207   3.955   2.886   3.830 -0.7965  0.8756  0.4052
    7C       H5  208   4.038   2.922   3.890 -0.0427  0.5380 -0.4236
    7C       C4  209   3.919   2.959   3.713  1.2122 -0.1600 -0.8459
    7C       N4  210   3.971   3.069   3.676  0.8692 -0.3457 -0.0093
    7C      H41  211   3.942   3.113   3.590 -0.5939  0.5256  0.8946
    7C      H42  212   4.044   3.120   3.725  0.0202  0.6884  0.2057
    7C       N3  213   3.814   2.920   3.638 -0.1497 -0.2611 -0.8436
    7C       C2  214   3.750   2.808   3.660  0.6409 -0.1877  0.2944
    7C       O2  215   3.650   2.774   3.594  0.6456  0.0478 -0.1330
    7C      C3'  216   3.834   2.426   3.801  0.0755  0.5654 -0.3099
    7C      H3'  217   3.924   2.488   3.801 -0.2549  1.0995  1.1378
    7C      C2'  218   3.722   2.496   3.724 -0.2911  0.6035 -0.1657
    7C      H2'  219   3.749   2.532   3.624 -0.0040  1.0170  0.0558
    7C      O2'  220   3.599   2.422   3.712 -0.3324 -0.1013 -0.4288
    7C     HO2'  221   3.548   2.465   3.643  0.0540  0.0928 -0.5939
    7C      O3'  222   3.852   2.291   3.762 -0.1242  0.3802 -0.7590
    8G        P  223   4.000   2.231   3.743  0.1252  0.1960 -0.0030
    8G      OP1  224   3.990   2.123   3.643 -0.3661 -0.1343 -0.6573
    8G      OP2  225   4.060   2.198   3.870  0.2548  0.0072  0.0951
    8G      O5'  226   4.076   2.361   3.690  0.0897 -0.4301  0.0594
    8G      C5'  227   4.125   2.364   3.559 -0.4898  0.0851 -1.0168
    8G      H5'  228   4.191   2.278   3.549  1.4809  1.3132  0.4667
    8G     H5''  229   4.201   2.442   3.561 -0.5918  0.1827 -0.9218
    8G      C4'  230   4.020   2.384   3.448  0.5188 -0.3989  0.2888
    8G      H4'  231   3.947   2.305   3.432 -1.9162  1.8745 -0.6452
    8G      O4'  232   3.928   2.498   3.482  0.5176  0.0646  0.2813
    8G      C1'  233   3.963   2.609   3.406 -0.0669  0.1060  0.7159
    8G      H1'  234   3.884   2.677   3.375  1.1255  0.0417 -2.7881
    8G       N9  235   4.049   2.702   3.482  0.3338  0.6244  0.1484
    8G       C8  236   4.111   2.681   3.602 -0.3721 -0.2685 -0.3505
    8G       H8  237   4.085   2.601   3.669 -2.8610  0.4103 -0.4399
    8G       N7  238   4.213   2.761   3.623  0.4578  0.3662  0.4629
    8G       C5  239   4.200   2.855   3.520 -0.3676  0.0868  0.6225
    8G       C6  240   4.270   2.977   3.496  0.4186  0.3345  0.6709
    8G       O6  241   4.348   3.033   3.564  0.4375  0.8723  0.7841
    8G       N1  242   4.232   3.035   3.380 -0.7738 -0.8382  0.7072
    8G       H1  243   4.276   3.123   3.358 -0.6453 -1.0662  0.0287
    8G       C2  244   4.148   2.984   3.293 -0.6559  1.0113 -0.0624
    8G       N2  245   4.130   3.059   3.188 -0.0984 -0.3116  0.7619
    8G      H21  246   4.159   3.156   3.189 -0.5502 -0.1769  0.9417
    8G      H22  247   4.055   3.026   3.129 -0.5193  1.1789  0.4064
    8G       N3  248   4.075   2.872   3.308 -0.2523 -0.9606 -0.4598
    8G       C4  249   4.106   2.817   3.429 -0.4906  0.4351  0.4884
    8G      C3'  250   4.100   2.420   3.323 -0.8833  0.8748 -0.1403
    8G      H3'  251   4.205   2.444   3.336 -0.6387 -0.2482  0.0717
    8G      C2'  252   4.038   2.556   3.283 -0.6612  0.4797  0.1375
    8G      H2'  253   4.115   2.630   3.259  0.3551 -0.5139  0.2815
    8G      O2'  254   3.948   2.553   3.175 -0.2167  0.3912  0.1280
    8G     HO2'  255   3.979   2.604   3.099 -2.1960  1.4053 -0.0834
    8G      O3'  256   4.091   2.325   3.217 -0.4790  0.1990  0.2178
    9C        P  257   4.206   2.217   3.219 -0.1023  0.0979 -0.3636
    9C      OP1  258   4.194   2.126   3.103  0.3693  0.3099  0.6124
    9C      OP2  259   4.231   2.164   3.352 -0.5340  0.3828 -0.3763
    9C      O5'  260   4.328   2.306   3.178 -0.3993  0.1193  0.4026
    9C      C5'  261   4.445   2.302   3.247 -0.2984 -0.2897  0.3485
    9C      H5'  262   4.482   2.201   3.270 -0.6632 -0.8300 -1.2761
    9C     H5''  263   4.427   2.352   3.342  0.8175 -0.2591  0.5690
    9C      C4'  264   4.552   2.375   3.162  0.6060  0.5232  0.3976
    9C      H4'  265   4.651   2.366   3.208  0.5088 -2.4662  0.1583
    9C      O4'  266   4.565   2.329   3.032  0.3609 -0.0248  0.3848
    9C      C1'  267   4.568   2.442   2.939 -0.0146  0.1907 -0.0651
    9C      H1'  268   4.653   2.437   2.872  0.1058 -0.0847  0.1045
    9C       N1  269   4.436   2.450   2.862  0.0321  0.4132 -0.8308
    9C       C6  270   4.336   2.365   2.889 -0.0566  0.6047  0.3303
    9C       H6  271   4.356   2.288   2.962 -1.1726  1.9165  2.1202
    9C       C5  272   4.222   2.371   2.818  0.2110 -0.4909 -0.6967
    9C       H5  273   4.145   2.299   2.844  0.2549 -0.2864  0.0276
    9C       C4  274   4.198   2.473   2.727  0.2817  0.1775  0.7112
    9C       N4  275   4.087   2.482   2.656  0.0775 -0.5888 -0.1608
    9C      H41  276   4.073   2.554   2.587 -1.9095 -0.3627  0.3985
    9C      H42  277   4.009   2.420   2.672  1.4198 -2.3592 -0.0842
    9C       N3  278   4.296   2.555   2.698 -0.1568  0.1024  0.3588
    9C       C2  279   4.414   2.545   2.760  0.0322  0.4252 -0.4431
    9C       O2  280   4.505   2.619   2.731  0.7046 -1.0817  0.4846
    9C      C3'  281   4.526   2.528   3.158 -0.1698 -0.1834  0.1373
    9C      H3'  282   4.418   2.545   3.156 -0.4609 -1.7491  1.1345
    9C      C2'  283   4.587   2.567   3.025 -0.2751  0.7201  0.2563
    9C      H2'  284   4.530   2.653   2.992  0.0847  0.7053 -0.4069
    9C      O2'  285   4.730   2.590   3.022 -0.2155 -0.5737 -1.0536
    9C     HO2'  286   4.758   2.633   2.941  2.0148 -0.7958 -0.4597
    9C      O3'  287   4.587   2.601   3.264  0.0226 -0.0760  0.6293
   10A        P  288   4.503   2.712   3.341  0.0684  0.0981  0.2426
   10A      OP1  289   4.591   2.780   3.441  0.3050 -0.3059  0.1830
   10A      OP2  290   4.380   2.643   3.388 -0.3823  0.0644 -0.0894
   10A      O5'  291   4.472   2.817   3.225 -0.1222 -0.4446  0.3991
   10A      C5'  292   4.579   2.879   3.156 -0.0630  0.2404 -0.3230
   10A      H5'  293   4.653   2.805   3.125  0.1457 -0.1644  1.0659
   10A     H5''  294   4.629   2.947   3.225 -0.1036 -0.5582  0.5069
   10A      C4'  295   4.534   2.959   3.033 -0.6805  0.3743 -0.0410
   10A      H4'  296   4.619   3.019   2.999  0.0496 -0.3175  0.5229
   10A      O4'  297   4.499   2.872   2.931 -0.0204 -0.2226  0.2649
   10A      C1'  298   4.377   2.920   2.873  0.3946 -0.0504  0.8154
   10A      H1'  299   4.387   2.935   2.765 -1.3838  1.5296  0.8081
   10A       N9  300   4.265   2.827   2.896 -0.3139 -0.4594  0.3247
   10A       C8  301   4.240   2.743   3.002  0.1848  0.1035 -0.3558
   10A       H8  302   4.307   2.738   3.087  0.5919  2.2250 -0.4997
   10A       N7  303   4.121   2.680   3.002 -0.1871  0.5688  0.0246
   10A       C5  304   4.067   2.731   2.884 -0.3053 -0.2726 -0.2257
   10A       C6  305   3.945   2.706   2.809  0.1860  0.3773  0.4246
   10A       N6  306   3.846   2.623   2.841 -0.0832  0.2759  0.4097
   10A      H61  307   3.756   2.633   2.797  0.4647 -1.0159 -1.0818
   10A      H62  308   3.859   2.569   2.925  0.9335  0.3032  0.2838
   10A       N1  309   3.923   2.774   2.692 -0.1741  0.4003 -0.2743
   10A       C2  310   4.011   2.862   2.653 -0.2682  0.2934 -0.4302
   10A       H2  311   3.986   2.910   2.560 -0.3495  1.9786  0.4250
   10A       N3  312   4.132   2.890   2.713 -0.1691  0.0361 -0.3616
   10A       C4  313   4.153   2.820   2.828  0.4931 -0.1796 -0.0772
   10A      C3'  314   4.426   3.070   3.061  0.2426  1.0346 -0.0454
   10A      H3'  315   4.361   3.042   3.144 -1.1369 -0.6544 -1.6069
   10A      C2'  316   4.347   3.061   2.932  0.2800  0.2534  0.4836
   10A      H2'  317   4.242   3.073   2.959  0.4561  1.2301  0.7801
   10A      O2'  318   4.386   3.153   2.830 -0.0385  0.3692  0.6539
   10A     HO2'  319   4.470   3.194   2.848  0.7619  0.2387 -2.2263
   10A      O3'  320   4.487   3.196   3.077  0.0301 -0.0222  0.3532
   11G        P  321   4.453   3.287   3.199  0.2495  0.0982  0.4458
   11G      OP1  322   4.531   3.411   3.197  0.2019 -0.4110  0.0606
   11G      OP2  323   4.447   3.218   3.327  0.4474  0.7907 -0.8322
   11G      O5'  324   4.299   3.323   3.167  0.3366 -0.8746 -0.4303
   11G      C5'  325   4.273   3.401   3.046 -0.5552 -0.3096  0.1771
   11G      H5'  326   4.257   3.332   2.963  1.6753 -0.2592 -0.3570
   11G     H5''  327   4.364   3.457   3.025  1.2088 -2.5909  1.2196
   11G      C4'  328   4.149   3.496   3.075 -0.5894 -0.2056  0.8760
   11G      H4'  329   4.150   3.566   2.992 -1.1396  0.3720  1.3487
   11G      O4'  330   4.024   3.437   3.062  0.7724 -0.2155 -0.1569
   11G      C1'  331   3.950   3.475   3.175 -0.2937  1.2730  0.4725
   11G      H1'  332   3.851   3.502   3.137 -0.5661 -1.4868 -0.9834
   11G       N9  333   3.934   3.355   3.254  0.1817 -0.6750 -0.5035
   11G       C8  334   4.012   3.298   3.352  0.3839  0.4511  0.4496
   11G       H8  335   4.112   3.325   3.382  1.2605 -2.3689  0.3895
   11G       N7  336   3.955   3.197   3.407 -0.4583 -0.1104  0.6150
   11G       C5  337   3.847   3.173   3.325 -0.3035  0.2272  0.2776
   11G       C6  338   3.756   3.064   3.308 -0.2068  0.0206  0.5795
   11G       O6  339   3.768   2.951   3.353  0.4874  0.7063 -0.2041
   11G       N1  340   3.650   3.083   3.218 -0.5176  0.4225 -0.3167
   11G       H1  341   3.579   3.011   3.220  1.0125 -1.3709 -3.1329
   11G       C2  342   3.651   3.180   3.124 -0.1289 -0.3140 -1.1031
   11G       N2  343   3.551   3.186   3.044  0.2618 -0.1477  0.7153
   11G      H21  344   3.480   3.114   3.038 -1.3675  1.4500 -0.2619
   11G      H22  345   3.535   3.270   2.990 -2.3392 -1.6274 -1.0800
   11G       N3  346   3.736   3.285   3.131 -0.2899  0.3479  0.2657
   11G       C4  347   3.827   3.270   3.228  0.1231 -0.4304 -0.2231
   11G      C3'  348   4.165   3.579   3.201  0.2069  0.0178  0.1907
   11G      H3'  349   4.231   3.527   3.271  1.4397  2.7659  1.1983
   11G      C2'  350   4.017   3.576   3.262  0.5038  0.4394 -0.0333
   11G      H2'  351   4.016   3.549   3.367 -1.5349  0.7095  0.0600
   11G      O2'  352   3.947   3.700   3.248 -0.0841 -0.0806 -0.0016
   11G     HO2'  353   3.933   3.722   3.156 -2.0525  2.3202  0.7940
   11G      O3'  354   4.199   3.713   3.171  0.0361  0.2085  0.5095
   12U        P  355   4.348   3.755   3.144  0.0080 -0.1751  0.0162
   12U      OP1  356   4.402   3.685   3.029 -0.1581  0.0779 -0.1847
   12U      OP2  357   4.429   3.765   3.268 -0.6701 -0.3200  0.2339
   12U      O5'  358   4.317   3.904   3.110  0.6509  0.0070  0.4526
   12U      C5'  359   4.244   3.978   3.204 -0.5217 -0.1461  0.0484
   12U      H5'  360   4.292   4.009   3.297 -0.0976  1.6825 -0.7367
   12U     H5''  361   4.146   3.941   3.234  0.5030 -0.4020  3.4791
   12U      C4'  362   4.214   4.109   3.135  0.2085  0.8682  0.1269
   12U      H4'  363   4.157   4.168   3.206  0.5366 -0.4889  1.5548
   12U      O4'  364   4.331   4.184   3.098  0.4053  0.2493  0.2509
   12U      C1'  365   4.336   4.195   2.958  0.3345 -0.0559  0.3348
   12U      H1'  366   4.309   4.297   2.931  0.3108 -0.0401  0.4204
   12U       N1  367   4.470   4.159   2.905 -0.0106 -0.5182 -0.3627
   12U       C6  368   4.549   4.064   2.968  0.6463 -0.3755 -0.5882
   12U       H6  369   4.511   4.021   3.059  1.6111 -1.3183 -0.6173
   12U       C5  370   4.673   4.032   2.918  0.7167  0.7492 -0.3875
   12U       H5  371   4.737   3.958   2.965 -1.6588 -1.0012  0.2629
   12U       C4  372   4.722   4.089   2.793  0.4145  0.2297 -0.8141
   12U       O4  373   4.836   4.064   2.756 -0.2173  0.3056 -0.1283
   12U       N3  374   4.636   4.183   2.741  0.1765 -0.2948  0.8290
   12U       H3  375   4.686   4.249   2.682  1.8418 -0.9272  1.4745
   12U       C2  376   4.513   4.224   2.789  0.0171  0.1290  0.1300
   12U       O2  377   4.451   4.313   2.726 -0.3142  0.5587 -0.2391
   12U      C3'  378   4.130   4.097   3.005  0.5716 -0.4343 -0.6367
   12U      H3'  379   4.073   4.004   3.001 -1.0244  0.4123  0.8620
   12U      C2'  380   4.234   4.099   2.897 -0.0496  0.5870  0.0505
   12U      H2'  381   4.275   3.999   2.889  1.8594  1.3195  0.1922
   12U      O2'  382   4.194   4.152   2.772 -0.1548 -0.6026 -0.9048
   12U     HO2'  383   4.109   4.192   2.793 -0.5995 -1.9842  0.0691
   12U      O3'  384   4.044   4.213   2.995 -0.5001  0.1843 -0.5905
   13A        P  385   3.889   4.181   2.972 -0.2143  0.2743 -0.0897
   13A      OP1  386   3.823   4.311   2.986 -0.1548 -0.4376 -0.0841
   13A      OP2  387   3.842   4.061   3.047  0.6108  0.1406  0.0245
   13A      O5'  388   3.879   4.144   2.819 -0.1935  0.1914  0.0513
   13A      C5'  389   3.891   4.245   2.720  0.9863  0.1075  0.5711
   13A      H5'  390   3.988   4.293   2.717  1.2920 -0.5266 -1.4994
   13A     H5''  391   3.811   4.317   2.739 -0.4322 -1.1429 -0.4210
   13A      C4'  392   3.863   4.169   2.592 -0.0471 -0.5181 -0.2608
   13A      H4'  393   3.864   4.240   2.508 -0.9794  1.1827  1.0962
   13A      O4'  394   3.961   4.063   2.552  0.8382 -0.0708  0.0898
   13A      C1'  395   3.886   3.961   2.491 -0.3081  0.3816 -0.0448
   13A      H1'  396   3.915   3.942   2.387 -1.2979  2.1240 -0.6808
   13A       N9  397   3.910   3.840   2.574  0.4003  0.0279  0.0907
   13A       C8  398   3.998   3.832   2.676  0.5613 -0.5237 -0.2005
   13A       H8  399   4.056   3.915   2.714  0.7086 -0.6848 -0.0732
   13A       N7  400   4.012   3.712   2.725 -0.0528 -0.3232 -0.7286
   13A       C5  401   3.926   3.638   2.645 -0.2314 -0.3948  0.2209
   13A       C6  402   3.873   3.509   2.645  0.9523 -0.0190  0.1392
   13A       N6  403   3.899   3.409   2.725  0.7413 -0.8420 -0.5526
   13A      H61  404   3.832   3.334   2.734  0.5001 -0.6250 -0.5192
   13A      H62  405   3.965   3.440   2.795  0.2135  3.1931 -1.5873
   13A       N1  406   3.776   3.468   2.561  0.2242  0.3405  0.0920
   13A       C2  407   3.720   3.554   2.479 -0.4140 -0.6187 -0.1181
   13A       H2  408   3.636   3.527   2.417  1.0638 -2.5807 -1.3608
   13A       N3  409   3.758   3.684   2.470 -0.0411 -0.2220 -0.3318
   13A       C4  410   3.861   3.716   2.553 -0.7005  0.3834 -0.0906
   13A      C3'  411   3.724   4.109   2.591 -0.4225  0.0808  0.1304
   13A      H3'  412   3.700   4.063   2.686 -0.8724  1.4373  0.6991
   13A      C2'  413   3.739   4.001   2.484 -0.0865 -0.5837 -0.6353
   13A      H2'  414   3.677   3.915   2.508 -2.0653  0.5082 -1.5880
   13A      O2'  415   3.716   4.060   2.359 -0.1112  0.5693  0.2722
   13A     HO2'  416   3.651   4.013   2.306  1.8569 -1.4466 -0.5093
   13A      O3'  417   3.628   4.211   2.576 -0.0640  0.2547  0.3769
   14A        P  418   3.504   4.242   2.684 -0.2263 -0.1060 -0.4016
   14A      OP1  419   3.462   4.381   2.662 -0.4510 -0.8856 -0.1926
   14A      OP2  420   3.543   4.205   2.825 -0.2524 -0.5076  0.0125
   14A      O5'  421   3.391   4.151   2.647  0.0235  0.2403 -0.1667
   14A      C5'  422   3.357   4.134   2.510 -0.5631  0.2477  0.6813
   14A      H5'  423   3.431   4.166   2.436  0.8083  1.9615  2.6518
   14A     H5''  424   3.262   4.181   2.485 -1.9368 -2.5337  0.3214
   14A      C4'  425   3.318   3.992   2.490  0.3518 -0.1052 -0.5983
   14A      H4'  426   3.265   3.999   2.396 -2.5521 -2.2077  0.7211
   14A      O4'  427   3.432   3.905   2.483  0.3485 -0.5477  0.7010
   14A      C1'  428   3.400   3.780   2.535  0.1371 -0.3971  0.5790
   14A      H1'  429   3.421   3.702   2.461 -2.7328 -0.3766 -0.3528
   14A       N9  430   3.484   3.746   2.654 -0.1930 -0.0600  0.2190
   14A       C8  431   3.560   3.830   2.728 -0.2375 -0.1460 -0.3005
   14A       H8  432   3.563   3.936   2.708  0.8458 -0.0457  0.3283
   14A       N7  433   3.638   3.767   2.809  0.0525  0.7380 -0.0113
   14A       C5  434   3.595   3.636   2.794 -0.4575 -0.4879 -0.7883
   14A       C6  435   3.627   3.511   2.862  0.4945  0.0723 -0.3713
   14A       N6  436   3.715   3.500   2.956 -0.2483  0.4260  0.6899
   14A      H61  437   3.720   3.407   2.996 -0.7273  0.0455 -0.1215
   14A      H62  438   3.776   3.578   2.977  0.3216 -0.1488  1.2119
   14A       N1  439   3.549   3.398   2.843  1.2658  0.2905 -0.8223
   14A       C2  440   3.451   3.401   2.755  0.1997  0.4217 -0.2556
   14A       H2  441   3.403   3.306   2.735  2.6834 -0.7497 -1.0677
   14A       N3  442   3.421   3.510   2.680  0.4553  0.4290  0.3880
   14A       C4  443   3.494   3.621   2.709  0.0342 -0.0954 -0.3407
   14A      C3'  444   3.227   3.931   2.593  0.1574  1.4704  0.0453
   14A      H3'  445   3.269   3.961   2.689  1.5810  1.4458 -0.5335
   14A      C2'  446   3.253   3.781   2.570 -0.1011  0.0070  1.0761
   14A      H2'  447   3.237   3.731   2.665  0.7951 -1.6904  0.3744
   14A      O2'  448   3.178   3.728   2.460  0.0762  0.2864  0.1887
   14A     HO2'  449   3.207   3.637   2.453  1.4195  0.6013  1.1693
   14A      O3'  450   3.097   3.972   2.583 -0.3790 -0.3043 -0.3475
   15C        P  451   3.020   4.005   2.719  0.0713  0.4385 -0.3087
   15C      OP1  452   2.885   4.044   2.680  0.2770 -0.0709  0.3528
   15C      OP2  453   3.104   4.099   2.793  0.0129 -0.3383 -0.0932
   15C      O5'  454   3.004   3.864   2.797  0.1142 -0.2532 -0.3768
   15C      C5'  455   2.934   3.759   2.736 -0.0117 -0.0383  0.0116
   15C      H5'  456   2.949   3.765   2.628 -0.5953 -3.0594 -0.3292
   15C     H5''  457   2.828   3.779   2.753  0.3635  2.0656  0.1138
   15C      C4'  458   2.972   3.616   2.786 -0.6871  0.6896 -0.0488
   15C      H4'  459   2.906   3.548   2.732 -0.6867  1.1417 -0.6342
   15C      O4'  460   3.109   3.576   2.768 -0.1868  0.7347 -0.2672
   15C      C1'  461   3.148   3.505   2.878  0.9437  0.1595  0.0784
   15C      H1'  462   3.181   3.404   2.852 -0.3568 -0.3996  0.4935
   15C       N1  463   3.258   3.581   2.947 -0.8161  0.2756  0.8444
   15C       C6  464   3.286   3.710   2.927 -0.4810 -0.0410  0.6731
   15C       H6  465   3.218   3.768   2.866 -1.4219 -1.1032  0.6798
   15C       C5  466   3.378   3.781   2.992  0.1440  0.0142  0.4666
   15C       H5  467   3.395   3.886   2.971  1.3265 -0.0640  1.0077
   15C       C4  468   3.453   3.710   3.085 -0.7554 -0.3514 -0.0620
   15C       N4  469   3.551   3.766   3.154 -0.0503  0.4278 -0.1689
   15C      H41  470   3.606   3.698   3.204 -0.9061  0.4544  0.8536
   15C      H42  471   3.582   3.853   3.114 -2.7363  1.7098  0.3101
   15C       N3  472   3.435   3.583   3.106 -0.2261  0.2220 -0.1918
   15C       C2  473   3.339   3.516   3.045 -0.0823 -0.5915  0.5688
   15C       O2  474   3.327   3.392   3.065 -0.0282 -0.3584 -0.0304
   15C      C3'  475   2.951   3.614   2.935 -0.4039  0.2161 -0.2954
   15C      H3'  476   3.003   3.693   2.990 -1.3387 -0.4933  1.7070
   15C      C2'  477   3.024   3.487   2.967 -0.3257 -0.0356  0.3188
   15C      H2'  478   3.062   3.483   3.069  2.3162 -2.7477 -0.6009
   15C      O2'  479   2.949   3.373   2.941  0.0844  0.2048 -0.3775
   15C     HO2'  480   3.007   3.301   2.966 -0.0809  0.3027  0.2923
   15C      O3'  481   2.815   3.619   2.961  0.0661  0.3136 -0.1156
   16C        P  482   2.759   3.686   3.091 -0.0416 -0.2654 -0.4047
   16C      OP1  483   2.616   3.696   3.074 -0.2280 -0.1136  0.3314
   16C      OP2  484   2.828   3.804   3.139 -0.2396  0.3897 -0.7460
   16C      O5'  485   2.794   3.573   3.190 -0.6228 -0.0937  0.5213
   16C      C5'  486   2.743   3.442   3.187 -0.0981  0.7744  0.9406
   16C      H5'  487   2.760   3.391   3.092  0.7528 -0.5756  1.7773
   16C     H5''  488   2.636   3.441   3.209 -0.3616  2.4609 -0.0991
   16C      C4'  489   2.826   3.354   3.288  0.1544 -0.0443 -0.1626
   16C      H4'  490   2.793   3.250   3.291 -3.2122  0.8918 -0.7378
   16C      O4'  491   2.967   3.344   3.253 -0.5939  0.9388 -0.2260
   16C      C1'  492   3.040   3.346   3.378  0.0143  0.6525 -0.0625
   16C      H1'  493   3.109   3.262   3.388  0.1893  0.8492  0.3839
   16C       N1  494   3.111   3.465   3.407  0.4683 -0.2722  0.2580
   16C       C6  495   3.118   3.569   3.318  0.3698 -0.6055 -0.0294
   16C       H6  496   3.032   3.576   3.253 -0.7210 -0.4242  1.3927
   16C       C5  497   3.213   3.664   3.331  0.1148  0.4517 -0.6139
   16C       H5  498   3.204   3.750   3.265 -0.4249  0.8548 -0.0239
   16C       C4  499   3.311   3.636   3.426  0.2303 -0.9902  0.7374
   16C       N4  500   3.404   3.726   3.442 -0.6183  0.3335 -0.1370
   16C      H41  501   3.479   3.709   3.506 -0.4470 -2.3530 -0.9479
   16C      H42  502   3.408   3.816   3.395  0.5998  0.4691  0.2004
   16C       N3  503   3.307   3.541   3.515 -0.3686  0.2807 -0.3655
   16C       C2  504   3.205   3.451   3.505 -0.6487  0.1526 -0.7309
   16C       O2  505   3.214   3.361   3.589  0.7181  0.7017  0.2264
   16C      C3'  506   2.827   3.422   3.426 -0.6586  0.3741 -0.0561
   16C      H3'  507   2.854   3.528   3.429  0.2386  0.2151 -1.3138
   16C      C2'  508   2.937   3.337   3.490  0.0331 -0.0681 -0.2278
   16C      H2'  509   2.979   3.371   3.584  0.0034  0.4505 -0.3995
   16C      O2'  510   2.900   3.211   3.517 -0.0901  0.5584 -0.2901
   16C     HO2'  511   2.974   3.165   3.556  0.1647  0.1027 -1.2795
   16C      O3'  512   2.699   3.392   3.477 -0.0958  0.1817  0.1940
   17C        P  513   2.634   3.491   3.579 -0.3143  0.0886 -0.4435
   17C      OP1  514   2.495   3.448   3.600  0.2403  0.4060  0.1361
   17C      OP2  515   2.666   3.638   3.551  0.6565  0.6309  0.2484
   17C      O5'  516   2.708   3.452   3.709 -0.5430 -0.0288  0.0387
   17C      C5'  517   2.711   3.324   3.766  0.3439 -0.3585  0.2183
   17C      H5'  518   2.728   3.248   3.689 -0.2386 -1.3461  1.0480
   17C     H5''  519   2.613   3.313   3.812 -0.3147  0.6312 -0.8682
   17C      C4'  520   2.821   3.313   3.872  0.7486 -0.4208  0.5017
   17C      H4'  521   2.792   3.225   3.927  0.7553 -0.1090  1.0084
   17C      O4'  522   2.955   3.310   3.823  0.4002  0.4788  0.0637
   17C      C1'  523   3.029   3.386   3.916 -0.1954 -0.3900 -0.0366
   17C      H1'  524   3.126   3.339   3.928 -0.1362 -0.6183 -1.3227
   17C       N1  525   3.069   3.518   3.861 -0.0374  0.4059  0.8007
   17C       C6  526   3.006   3.577   3.753 -0.2949 -0.1947 -0.0185
   17C       H6  527   2.916   3.540   3.706  0.6651  0.3050 -2.4450
   17C       C5  528   3.072   3.675   3.687 -0.6103 -1.0665  0.6633
   17C       H5  529   3.036   3.715   3.593 -1.1719 -1.3117  0.7692
   17C       C4  530   3.200   3.724   3.742 -0.1675 -0.3016  0.4557
   17C       N4  531   3.257   3.826   3.682  0.2258  0.0638  0.0485
   17C      H41  532   3.346   3.855   3.719  0.7847  1.1317 -1.9988
   17C      H42  533   3.217   3.859   3.595 -1.3584 -0.5520  0.5004
   17C       N3  534   3.254   3.674   3.847  0.5879 -0.5323 -0.3119
   17C       C2  535   3.194   3.569   3.907  1.0862  0.3911  0.6045
   17C       O2  536   3.254   3.526   4.009  0.4067 -0.5504 -0.7424
   17C      C3'  537   2.807   3.418   3.981  0.2838  0.2420 -0.2893
   17C      H3'  538   2.814   3.514   3.930 -0.5189  0.7057  0.4563
   17C      C2'  539   2.946   3.401   4.042  0.9842 -0.7109 -0.1202
   17C      H2'  540   2.983   3.482   4.105  2.7763 -2.7134  1.5934
   17C      O2'  541   2.945   3.277   4.117 -1.0111  0.2837 -0.1174
   17C     HO2'  542   3.006   3.288   4.191 -3.4371 -1.1408  2.2511
   17C      O3'  543   2.688   3.402   4.056 -0.3798 -0.7578 -0.5478
   18C        P  544   2.615   3.530   4.113 -0.3646 -0.3284  0.0260
   18C      OP1  545   2.484   3.488   4.174  0.1907 -0.3579 -0.4257
   18C      OP2  546   2.612   3.639   4.018 -0.6298 -0.1079 -0.2736
   18C      O5'  547   2.710   3.579   4.231 -0.9964 -0.0264 -0.2150
   18C      C5'  548   2.746   3.491   4.338 -0.1933  0.9593 -0.0575
   18C      H5'  549   2.776   3.394   4.298 -1.2940  0.6998 -0.2707
   18C     H5''  550   2.662   3.491   4.408  0.0335 -1.6181  0.2913
   18C      C4'  551   2.870   3.549   4.412  0.4301  0.1244  0.0072
   18C      H4'  552   2.891   3.498   4.506  1.5900  0.5659 -0.0047
   18C      O4'  553   2.987   3.531   4.339  0.1238  0.2192  0.6341
   18C      C1'  554   3.066   3.639   4.366 -0.1889  0.6253 -0.1638
   18C      H1'  555   3.165   3.610   4.399 -0.4692 -1.3920 -0.9517
   18C       N1  556   3.087   3.729   4.252 -0.0522 -0.6950  0.1016
   18C       C6  557   2.996   3.735   4.155  0.7214 -0.2780 -0.2413
   18C       H6  558   2.907   3.675   4.151 -1.0648  2.2700 -0.9815
   18C       C5  559   3.010   3.809   4.045 -0.1006 -0.7625  0.6274
   18C       H5  560   2.933   3.816   3.970  1.0140  1.9371 -0.3923
   18C       C4  561   3.124   3.890   4.037 -0.3615  0.5595  0.3235
   18C       N4  562   3.147   3.975   3.943 -0.2129  0.4797 -0.2705
   18C      H41  563   3.238   4.018   3.934  0.3361 -0.7342 -0.8405
   18C      H42  564   3.092   3.949   3.862 -1.0774 -4.9908  1.6910
   18C       N3  565   3.217   3.890   4.133 -1.2558  0.0804 -0.2478
   18C       C2  566   3.194   3.818   4.246  0.3409 -1.0226 -0.2048
   18C       O2  567   3.270   3.843   4.341 -0.3543  0.1447  0.3935
   18C      C3'  568   2.859   3.702   4.448  0.2994 -0.6647  0.3202
   18C      H3'  569   2.823   3.761   4.364  4.5446  1.9991  0.0826
   18C      C2'  570   3.006   3.724   4.475  0.1078  0.3584 -0.2546
   18C      H2'  571   3.037   3.828   4.463  0.2068  0.0728 -2.8623
   18C      O2'  572   3.050   3.679   4.599 -0.5733  0.3070 -0.2765
   18C     HO2'  573   3.086   3.751   4.651  2.4871 -1.1133 -0.2231
   18C      O3'  574   2.778   3.722   4.559 -0.1680 -0.3700 -0.2330
   19A        P  575   2.688   3.859   4.567  0.2454 -0.1668 -0.3054
   19A      OP1  576   2.590   3.842   4.675 -0.1393  0.0100 -0.2612
   19A      OP2  577   2.639   3.894   4.433  0.4900 -0.0984 -0.1512
   19A      O5'  578   2.800   3.959   4.612 -0.3174  0.1928  0.1705
   19A      C5'  579   2.869   3.932   4.730 -0.0360 -0.0050  0.2782
   19A      H5'  580   2.905   3.830   4.732  1.0293  0.3597  0.4829
   19A     H5''  581   2.794   3.940   4.809 -0.7417 -0.0778 -0.3707
   19A      C4'  582   2.986   4.024   4.735 -0.4906  0.3701  0.5395
   19A      H4'  583   3.035   4.013   4.831  0.5802  0.6989  0.0478
   19A      O4'  584   3.075   3.989   4.634  0.0985 -0.2660 -0.2784
   19A      C1'  585   3.129   4.107   4.571 -0.0576 -0.2046 -0.5202
   19A      H1'  586   3.237   4.116   4.569 -0.1641  1.5311 -0.0296
   19A       N9  587   3.081   4.121   4.429 -0.2840  0.3556 -0.1916
   19A       C8  588   2.981   4.061   4.362  0.3631 -0.1554 -0.5722
   19A       H8  589   2.915   3.987   4.406  0.2382 -1.0021 -2.1300
   19A       N7  590   2.976   4.087   4.234  0.3019  0.1108  0.2583
   19A       C5  591   3.082   4.183   4.216 -0.3484  0.1541 -0.3966
   19A       C6  592   3.123   4.271   4.112  0.5097 -0.4274  0.0175
   19A       N6  593   3.071   4.269   3.990 -0.1145 -0.5367  0.0340
   19A      H61  594   3.113   4.318   3.912  2.2957  1.4598  2.3758
   19A      H62  595   2.988   4.214   3.973  0.1463 -0.7111 -0.7518
   19A       N1  596   3.217   4.363   4.133 -0.3461  0.3377  0.5674
   19A       C2  597   3.269   4.374   4.249 -0.0917 -0.2770 -0.2784
   19A       H2  598   3.337   4.456   4.261 -0.0668 -0.0226 -1.8850
   19A       N3  599   3.246   4.297   4.355 -0.1371 -0.2500  0.3539
   19A       C4  600   3.141   4.206   4.334  0.3783  0.6947 -0.5819
   19A      C3'  601   2.956   4.174   4.716 -0.6393  0.4220 -0.0838
   19A      H3'  602   2.878   4.178   4.639  0.7255 -1.9424 -1.7012
   19A      C2'  603   3.090   4.220   4.666 -0.7497  0.4131  1.0975
   19A      H2'  604   3.092   4.317   4.616 -0.7526 -1.3759 -2.7418
   19A      O2'  605   3.188   4.219   4.774 -0.1405  0.0246 -0.4827
   19A     HO2'  606   3.272   4.237   4.732  0.8293 -1.6760  0.6383
   19A      O3'  607   2.915   4.237   4.832 -0.0088  0.5060 -0.2780
   20G        P  608   2.837   4.374   4.820 -0.1453  0.1315 -0.2499
   20G      OP1  609   2.780   4.401   4.956 -0.2437 -0.1006 -0.1172
   20G      OP2  610   2.742   4.361   4.708 -0.0853 -0.6312  0.8575
   20G      O5'  611   2.940   4.488   4.787  0.5456  0.0726  0.4436
   20G      C5'  612   3.050   4.520   4.867  0.8312  0.8230 -0.3095
   20G      H5'  613   3.108   4.430   4.888  0.3325  0.7194  0.7281
   20G     H5''  614   3.009   4.557   4.961 -0.9821  1.1180 -1.1881
   20G      C4'  615   3.143   4.622   4.797 -0.6066  0.4350 -0.3429
   20G      H4'  616   3.232   4.633   4.859 -1.6864 -2.2305  1.9006
   20G      O4'  617   3.177   4.574   4.668  0.0027 -0.2594  0.0839
   20G      C1'  618   3.133   4.664   4.570  0.5975 -0.7631 -0.4395
   20G      H1'  619   3.214   4.732   4.541  0.2662 -0.1802 -0.0297
   20G       N9  620   3.066   4.604   4.453 -0.2401 -0.0826  0.3039
   20G       C8  621   2.974   4.504   4.456 -0.3238 -0.2662  0.3179
   20G       H8  622   2.944   4.462   4.551  1.1540  2.0358  1.8977
   20G       N7  623   2.929   4.471   4.339  0.7850 -1.3551 -0.2739
   20G       C5  624   3.000   4.558   4.253 -0.7862 -0.4120  0.2071
   20G       C6  625   2.999   4.587   4.113  0.1114 -0.1419 -0.5578
   20G       O6  626   2.932   4.529   4.029  0.1830 -0.3515 -0.4175
   20G       N1  627   3.065   4.701   4.074  0.3386  0.2555 -0.2272
   20G       H1  628   3.073   4.715   3.974  3.3820  1.3011  0.0450
   20G       C2  629   3.146   4.766   4.159 -0.2435 -0.1757  0.0986
   20G       N2  630   3.201   4.871   4.112  0.2813 -0.4930  0.0253
   20G      H21  631   3.181   4.886   4.014 -1.4901 -0.3482  0.3798
   20G      H22  632   3.243   4.937   4.176  0.4315  0.0093 -0.5765
   20G       N3  633   3.161   4.747   4.290 -0.2822 -0.1334  0.1717
   20G       C4  634   3.088   4.641   4.323  0.3860  0.2773 -0.1855
   20G      C3'  635   3.068   4.755   4.776 -0.0156  0.3059 -0.0037
   20G      H3'  636   2.992   4.771   4.853  0.6488 -0.4268  0.8209
   20G      C2'  637   3.022   4.748   4.630 -0.1243 -0.0507 -0.0449
   20G      H2'  638   2.934   4.684   4.642  0.8511 -1.1461  1.6301
   20G      O2'  639   2.991   4.867   4.565  0.6228  0.3685  0.3830
   20G     HO2'  640   2.916   4.853   4.506 -2.0657 -0.2078  3.6098
   20G      O3'  641   3.165   4.857   4.781 -0.1721 -0.0697 -0.1032
   21U        P  642   3.220   4.922   4.911 -0.3760  0.1883  0.0695
   21U      OP1  643   3.218   4.837   5.035 -0.3694 -0.3381  0.0648
   21U      OP2  644   3.178   5.062   4.921  0.0540  0.1472 -0.0894
   21U      O5'  645   3.367   4.933   4.863 -0.0254 -0.2296 -0.3125
   21U      C5'  646   3.473   4.865   4.937 -0.1130 -0.2024  0.4422
   21U      H5'  647   3.468   4.757   4.925 -1.4477 -0.3747  2.1371
   21U     H5''  648   3.466   4.889   5.043 -0.5976 -0.5735  0.5001
   21U      C4'  649   3.601   4.920   4.881 -0.1234 -0.0311 -0.1171
   21U      H4'  650   3.686   4.871   4.929 -0.8555 -3.5717 -2.1142
   21U      O4'  651   3.604   4.896   4.740  0.0796  0.0779  0.0411
   21U      C1'  652   3.638   5.017   4.667 -0.4808  0.1199 -0.7782
   21U      H1'  653   3.737   5.007   4.623  0.4282 -2.7666  1.6290
   21U       N1  654   3.533   5.041   4.562  0.0125 -0.4397 -0.4145
   21U       C6  655   3.408   4.977   4.563 -0.2423  0.4452  0.3017
   21U       H6  656   3.389   4.900   4.636  0.3300  0.0265  0.0144
   21U       C5  657   3.315   5.006   4.466 -0.6038 -0.4817 -0.0617
   21U       H5  658   3.223   4.949   4.463 -1.2341  0.5194  0.0222
   21U       C4  659   3.358   5.075   4.348 -0.1930  0.2142  0.9199
   21U       O4  660   3.291   5.097   4.246 -0.2515  0.2087  0.7785
   21U       N3  661   3.487   5.120   4.347  0.4420 -0.5399 -0.0152
   21U       H3  662   3.515   5.181   4.272  2.1426 -0.4995  0.6040
   21U       C2  663   3.572   5.122   4.454 -0.2043  0.3612 -0.3380
   21U       O2  664   3.685   5.170   4.438 -0.3341  0.7441 -0.3882
   21U      C3'  665   3.606   5.071   4.893  0.2770 -0.7421  0.2250
   21U      H3'  666   3.502   5.101   4.900  0.1033 -1.4115  0.6156
   21U      C2'  667   3.644   5.138   4.766  0.6059 -0.0111  0.1888
   21U      H2'  668   3.568   5.214   4.747  1.0892  0.1827 -1.0723
   21U      O2'  669   3.770   5.213   4.752  0.1250  0.2584 -0.6507
   21U     HO2'  670   3.831   5.177   4.817  0.5767 -0.4206 -1.4341
   21U      O3'  671   3.683   5.110   5.008  0.5512  0.1446  0.2456
   22U        P  672   3.831   5.069   5.037  0.1689 -0.0694 -0.1017
   22U      OP1  673   3.896   5.175   5.114  0.3177 -0.1691 -0.3136
   22U      OP2  674   3.893   5.037   4.914 -0.6397 -0.2630  0.0540
   22U      O5'  675   3.808   4.938   5.118 -0.5526  0.4142 -0.3756
   22U      C5'  676   3.901   4.821   5.119 -0.0424 -0.3888 -0.5471
   22U      H5'  677   4.004   4.843   5.148  0.6170  0.4501 -3.1656
   22U     H5''  678   3.899   4.791   5.014  0.4725  1.3782 -1.1013
   22U      C4'  679   3.837   4.712   5.199 -0.0827 -0.0736  0.2935
   22U      H4'  680   3.902   4.625   5.192 -0.5986 -0.3797 -0.9785
   22U      O4'  681   3.822   4.747   5.332 -0.2160  0.5031 -0.1749
   22U      C1'  682   3.708   4.701   5.394  1.0051  0.4026 -0.3292
   22U      H1'  683   3.734   4.612   5.452 -0.1643  0.9776  1.1597
   22U       N1  684   3.662   4.810   5.477  0.0828 -0.2964 -0.1242
   22U       C6  685   3.627   4.929   5.417  0.1794  0.1341  0.2308
   22U       H6  686   3.659   4.944   5.315  1.4042  2.9087  0.9155
   22U       C5  687   3.581   5.035   5.488 -0.2429  0.2021 -0.4539
   22U       H5  688   3.565   5.128   5.436 -0.5254  0.1617 -0.4440
   22U       C4  689   3.564   5.021   5.632 -0.2287 -0.3959 -0.0057
   22U       O4  690   3.531   5.114   5.705 -0.5674 -0.0394  0.3653
   22U       N3  691   3.580   4.892   5.685 -0.3732 -0.0183  0.2976
   22U       H3  692   3.546   4.882   5.779  0.8313 -0.8213  0.6780
   22U       C2  693   3.641   4.790   5.612 -0.0430  0.1739 -0.2962
   22U       O2  694   3.656   4.683   5.672 -0.8559 -0.2169 -0.2696
   22U      C3'  695   3.697   4.677   5.151  0.0604 -0.3152 -0.1147
   22U      H3'  696   3.647   4.762   5.104  0.1411  0.8144  1.7435
   22U      C2'  697   3.614   4.658   5.277  0.0098 -0.7545  0.0920
   22U      H2'  698   3.532   4.730   5.275  0.1223 -0.5486  1.5539
   22U      O2'  699   3.554   4.536   5.305 -0.0310  0.0797 -1.0256
   22U     HO2'  700   3.612   4.466   5.276  1.2260  0.8805 -0.5262
   22U      O3'  701   3.689   4.575   5.055  0.1578 -0.4420  0.1388
   23A        P  702   3.754   4.431   5.080 -0.1248  0.5063  0.5110
   23A      OP1  703   3.731   4.391   5.218 -0.0084  0.0775  0.6119
   23A      OP2  704   3.890   4.433   5.019  0.3820  0.2986 -0.7036
   23A      O5'  705   3.667   4.338   4.985 -1.0285 -0.1040 -0.2686
   23A      C5'  706   3.528   4.346   4.996  0.2721  0.2885  0.2568
   23A      H5'  707   3.497   4.419   5.071 -0.5296 -0.8112  1.0250
   23A     H5''  708   3.488   4.250   5.026  0.1411  0.1894 -0.2175
   23A      C4'  709   3.466   4.372   4.860 -0.2602  0.4829  0.0330
   23A      H4'  710   3.357   4.375   4.866 -0.2144  1.5704  0.6293
   23A      O4'  711   3.487   4.509   4.815 -0.0597 -0.0336  0.2779
   23A      C1'  712   3.496   4.500   4.677  0.2915  0.6198  0.0277
   23A      H1'  713   3.412   4.561   4.643 -1.6126 -0.2836  2.7441
   23A       N9  714   3.613   4.573   4.621  0.2640  0.2511  0.0043
   23A       C8  715   3.736   4.597   4.671 -0.0044  0.2134  0.2744
   23A       H8  716   3.776   4.535   4.750 -1.3497 -0.7746  0.2050
   23A       N7  717   3.809   4.682   4.600  0.2439 -0.2944  0.1579
   23A       C5  718   3.718   4.727   4.513 -0.0669  0.1302  0.2936
   23A       C6  719   3.715   4.823   4.407  0.3272  0.3392 -0.5933
   23A       N6  720   3.816   4.905   4.381  0.0650  0.4998  0.4902
   23A      H61  721   3.808   4.977   4.311  0.7819  0.8007  0.7148
   23A      H62  722   3.902   4.899   4.432  0.2802  2.1991  0.3738
   23A       N1  723   3.606   4.844   4.333  0.0800  0.5659  0.3873
   23A       C2  724   3.503   4.762   4.342 -0.3582 -0.0355  0.1547
   23A       H2  725   3.422   4.789   4.276  1.6671  3.6648 -1.0972
   23A       N3  726   3.493   4.663   4.435 -0.5795 -0.8813 -0.2343
   23A       C4  727   3.601   4.656   4.517  0.2142 -0.2258  0.5360
   23A      C3'  728   3.513   4.281   4.749 -0.2419  0.0874  0.3244
   23A      H3'  729   3.621   4.282   4.757 -0.2314 -0.5004  0.3233
   23A      C2'  730   3.482   4.358   4.627  0.2375 -0.2817  0.0696
   23A      H2'  731   3.561   4.342   4.553  1.1181  2.0955  0.3824
   23A      O2'  732   3.344   4.357   4.594 -0.1338 -0.8115 -0.2287
   23A     HO2'  733   3.326   4.331   4.503  1.4482 -2.3764 -0.1379
   23A      O3'  734   3.457   4.151   4.750  0.4644 -0.7734  0.0415
   24A        P  735   3.554   4.030   4.719  0.2508 -0.3245 -0.3185
   24A      OP1  736   3.696   4.071   4.719  0.6823  0.5726  0.0245
   24A      OP2  737   3.502   3.947   4.610 -0.7875 -0.0351  0.3403
   24A      O5'  738   3.521   3.946   4.840  0.3618  0.3379 -0.4852
   24A      C5'  739   3.585   3.980   4.967  0.3209 -0.0026 -0.2957
   24A      H5'  740   3.579   4.088   4.979 -2.2247  0.0995 -1.7772
   24A     H5''  741   3.688   3.944   4.971  0.2006 -0.2526  0.7818
   24A      C4'  742   3.520   3.916   5.087 -0.5736  0.2539  0.3912
   24A      H4'  743   3.569   3.950   5.178  2.6100 -1.8605 -0.3675
   24A      O4'  744   3.385   3.937   5.088  0.0060  0.0436 -0.0279
   24A      C1'  745   3.315   3.827   5.136 -0.6120 -0.1286 -0.3087
   24A      H1'  746   3.258   3.849   5.227 -1.1348 -2.4823 -0.0142
   24A       N9  747   3.207   3.786   5.045  0.2842 -0.2259 -0.5396
   24A       C8  748   3.192   3.817   4.914  0.4615  0.8604 -0.3428
   24A       H8  749   3.259   3.888   4.869 -0.2215  3.0579  1.8557
   24A       N7  750   3.093   3.758   4.851  0.3824 -0.4476  0.3259
   24A       C5  751   3.032   3.682   4.957 -0.0604 -0.3288  0.5557
   24A       C6  752   2.925   3.593   4.966  0.0356 -0.1528 -0.4854
   24A       N6  753   2.844   3.567   4.862 -0.0220  0.0077 -0.0006
   24A      H61  754   2.763   3.510   4.877  1.5483 -2.6615 -0.9777
   24A      H62  755   2.853   3.629   4.782 -2.2328  0.7699  0.2727
   24A       N1  756   2.898   3.530   5.084 -0.3170 -0.1788 -0.2553
   24A       C2  757   2.978   3.559   5.188  1.2669  0.2251  0.6397
   24A       H2  758   2.952   3.514   5.283  1.1811 -1.0451  0.0348
   24A       N3  759   3.078   3.639   5.188  1.0975  0.1231  0.1219
   24A       C4  760   3.100   3.704   5.074 -0.3718  0.1983 -0.9358
   24A      C3'  761   3.530   3.763   5.063 -0.5810 -0.3788 -0.7596
   24A      H3'  762   3.497   3.738   4.962 -1.0705  2.1360 -1.3092
   24A      C2'  763   3.415   3.713   5.153  0.9691 -0.1635 -0.2473
   24A      H2'  764   3.373   3.619   5.114 -0.3269 -0.6819  2.2165
   24A      O2'  765   3.435   3.693   5.296 -0.2574  0.3625 -0.1079
   24A     HO2'  766   3.399   3.608   5.321  1.7295 -0.1834  1.1244
   24A      O3'  767   3.658   3.726   5.091 -0.0103 -0.9183 -0.5450
   25C        P  768   3.727   3.612   5.016 -0.6061 -0.3471  0.1860
   25C      OP1  769   3.861   3.592   5.069  0.1599 -0.2245 -0.4404
   25C      OP2  770   3.706   3.627   4.873  0.5586 -0.3701  0.1015
   25C      O5'  771   3.645   3.488   5.048  0.2230 -0.2071 -0.4047
   25C      C5'  772   3.654   3.435   5.179 -0.1116 -0.0360 -0.3444
   25C      H5'  773   3.655   3.510   5.258  2.1896  0.2905 -0.6033
   25C     H5''  774   3.743   3.374   5.191  0.6008  0.9840 -0.2517
   25C      C4'  775   3.537   3.345   5.214 -0.3172 -0.0139  0.0816
   25C      H4'  776   3.555   3.322   5.319  1.6166  1.1188  0.0490
   25C      O4'  777   3.411   3.407   5.197  0.3705 -0.1438  0.1871
   25C      C1'  778   3.312   3.309   5.157 -0.5168  0.2953 -0.5387
   25C      H1'  779   3.236   3.311   5.235 -0.4427 -1.1568 -0.3921
   25C       N1  780   3.257   3.331   5.026  0.9606 -0.2026 -0.1143
   25C       C6  781   3.306   3.421   4.934 -0.6221 -0.1486 -0.5277
   25C       H6  782   3.397   3.477   4.955 -0.7876 -0.8037  2.3390
   25C       C5  783   3.243   3.449   4.820 -0.0883 -0.8746 -0.8223
   25C       H5  784   3.285   3.515   4.747 -1.2354 -1.3983 -1.9948
   25C       C4  785   3.129   3.379   4.788  0.5699 -0.2262  0.2401
   25C       N4  786   3.062   3.399   4.682 -0.1077  0.8380  0.4394
   25C      H41  787   2.971   3.354   4.685  0.9386 -1.7547 -2.1056
   25C      H42  788   3.075   3.486   4.632  1.5436  0.8180  0.7793
   25C       N3  789   3.079   3.285   4.872 -0.4391 -0.0607  0.3966
   25C       C2  790   3.141   3.260   4.988 -0.2209  0.3197  0.3974
   25C       O2  791   3.086   3.182   5.061 -0.0603  0.4592 -0.0554
   25C      C3'  792   3.530   3.223   5.126  0.3313  0.1186  0.0597
   25C      H3'  793   3.526   3.257   5.023 -2.0517  0.9160  0.3527
   25C      C2'  794   3.388   3.177   5.164  1.3564  0.0820 -0.3114
   25C      H2'  795   3.359   3.104   5.088 -0.6319 -1.4613  1.7877
   25C      O2'  796   3.370   3.122   5.292 -0.2411 -0.1322  0.1542
   25C     HO2'  797   3.354   3.027   5.286  0.7738 -0.2903 -0.1384
   25C      O3'  798   3.638   3.141   5.163  0.5002 -0.6246 -0.1614
   26A        P  799   3.709   3.038   5.073 -0.3941  0.0076 -0.7948
   26A      OP1  800   3.780   2.933   5.157 -0.3747  0.3285  0.6312
   26A      OP2  801   3.781   3.108   4.964  0.1424  0.2410 -0.6391
   26A      O5'  802   3.590   2.964   5.017  0.1627 -0.0028  0.4707
   26A      C5'  803   3.561   2.947   4.884  0.4469 -0.9606 -0.6416
   26A      H5'  804   3.617   2.860   4.850 -2.8967 -3.6485  0.1053
   26A     H5''  805   3.574   3.042   4.832 -2.8840 -0.0462 -0.0646
   26A      C4'  806   3.415   2.925   4.863  0.0692 -0.4081 -0.1476
   26A      H4'  807   3.380   2.857   4.941  0.7500 -0.5031  0.0783
   26A      O4'  808   3.332   3.046   4.859  0.1863  0.0859 -0.3989
   26A      C1'  809   3.248   3.046   4.748  0.1027  0.0633  0.1224
   26A      H1'  810   3.145   3.070   4.774 -0.6919  1.0416 -3.3420
   26A       N9  811   3.292   3.141   4.646 -0.4113 -0.6041 -0.4363
   26A       C8  812   3.392   3.235   4.656  0.1705 -0.1969 -0.2334
   26A       H8  813   3.462   3.245   4.739 -0.9602  1.9455  0.5550
   26A       N7  814   3.400   3.314   4.551 -0.8451 -0.0842 -0.2721
   26A       C5  815   3.290   3.277   4.469 -0.1610 -0.4818 -0.8521
   26A       C6  816   3.234   3.326   4.354  0.4455 -0.7465  0.4291
   26A       N6  817   3.279   3.429   4.281 -0.5960  0.3142  0.1918
   26A      H61  818   3.230   3.444   4.194 -2.7965 -2.9353  0.7077
   26A      H62  819   3.361   3.479   4.311 -1.0514  1.2013 -0.0005
   26A       N1  820   3.115   3.279   4.310 -0.1218 -0.8808 -0.9596
   26A       C2  821   3.060   3.183   4.384  0.6785 -0.4209  0.1898
   26A       H2  822   2.979   3.135   4.331 -2.0155  1.9090  1.9290
   26A       N3  823   3.100   3.124   4.494 -0.3688  0.1941 -0.2924
   26A       C4  824   3.218   3.177   4.533 -0.1065 -0.3048 -0.2882
   26A      C3'  825   3.383   2.858   4.731 -0.4159 -0.2263  0.0572
   26A      H3'  826   3.454   2.895   4.658 -0.3538 -0.0521  0.2069
   26A      C2'  827   3.243   2.901   4.699  0.0938  0.5287  0.4084
   26A      H2'  828   3.222   2.904   4.592 -1.5470 -0.0041  0.6857
   26A      O2'  829   3.129   2.837   4.766  0.1024 -0.5122 -0.7070
   26A     HO2'  830   3.044   2.876   4.747 -0.2472 -0.3020  1.0615
   26A      O3'  831   3.396   2.714   4.753  0.5547 -0.0882 -0.3926
   27A        P  832   3.426   2.615   4.635 -0.2338  0.1472 -0.1512
   27A      OP1  833   3.413   2.477   4.693 -0.6603 -0.4937 -0.0583
   27A      OP2  834   3.553   2.656   4.578 -0.0343  0.2791 -0.4732
   27A      O5'  835   3.322   2.641   4.522 -0.2486  0.1667  0.5429
   27A      C5'  836   3.193   2.595   4.554 -0.3866  0.2067 -0.5134
   27A      H5'  837   3.162   2.645   4.646  1.3443  1.0550 -0.3646
   27A     H5''  838   3.189   2.491   4.587  1.2881  0.0708 -0.6574
   27A      C4'  839   3.092   2.631   4.447 -0.1918 -1.1137  0.8835
   27A      H4'  840   2.994   2.591   4.475 -0.7988  0.4398  1.0986
   27A      O4'  841   3.090   2.772   4.428 -0.2219 -0.1989  0.4118
   27A      C1'  842   3.102   2.815   4.290  0.1503  0.2666  0.2027
   27A      H1'  843   3.017   2.881   4.273  0.6794  0.2026 -3.6010
   27A       N9  844   3.225   2.892   4.271 -0.1988 -0.2671  0.2949
   27A       C8  845   3.331   2.909   4.353 -0.0354  0.4076 -0.2842
   27A       H8  846   3.355   2.845   4.436  1.5950  0.4655 -0.6836
   27A       N7  847   3.406   3.011   4.320  0.0678 -0.3492 -0.3514
   27A       C5  848   3.341   3.062   4.207  0.3379  0.1696  0.6595
   27A       C6  849   3.364   3.172   4.118  0.0304 -0.0610 -0.0636
   27A       N6  850   3.465   3.251   4.133 -0.5400 -0.1002  0.5041
   27A      H61  851   3.472   3.325   4.064 -0.0291 -0.6005  0.0065
   27A      H62  852   3.524   3.238   4.213 -2.6729  1.1500  2.3916
   27A       N1  853   3.293   3.194   4.005  0.1066 -0.2566 -0.2645
   27A       C2  854   3.189   3.110   3.990  0.0144  0.3248  0.0568
   27A       H2  855   3.136   3.114   3.896 -2.0204 -0.7313  1.0928
   27A       N3  856   3.147   3.009   4.071 -0.1454  0.0506  0.3870
   27A       C4  857   3.235   2.985   4.174 -0.1366  0.0447 -0.1926
   27A      C3'  858   3.147   2.580   4.316  0.3342 -0.0510  0.2652
   27A      H3'  859   3.256   2.586   4.309  0.4407 -1.9801 -0.6539
   27A      C2'  860   3.096   2.686   4.211 -0.0519  0.0698 -1.0669
   27A      H2'  861   3.154   2.688   4.119  0.8550 -0.1374 -0.5096
   27A      O2'  862   2.950   2.677   4.192 -0.0542 -0.8324 -0.3861
   27A     HO2'  863   2.937   2.624   4.113  2.2094 -1.1502 -0.6317
   27A      O3'  864   3.112   2.444   4.296  0.0722 -0.1414  0.1204
   28A        P  865   3.212   2.344   4.218  0.1375  0.1809 -0.0682
   28A      OP1  866   3.172   2.205   4.261 -0.1781 -0.6538  0.1683
   28A      OP2  867   3.350   2.396   4.243  0.0415  0.6578 -0.1913
   28A      O5'  868   3.168   2.373   4.064 -0.2278  0.1385 -0.6682
   28A      C5'  869   3.052   2.313   4.029  0.3625  0.9061  0.1822
   28A      H5'  870   2.981   2.320   4.112  0.3385  2.4765  0.0618
   28A     H5''  871   3.073   2.207   4.013  0.2926  0.9278 -0.0575
   28A      C4'  872   2.994   2.381   3.903 -0.7049 -0.1572  0.0593
   28A      H4'  873   2.894   2.342   3.886 -0.5394 -0.3888 -0.3995
   28A      O4'  874   2.985   2.515   3.937 -0.5157 -0.5138 -0.1565
   28A      C1'  875   2.981   2.581   3.815  0.1332  0.0520  0.7141
   28A      H1'  876   2.887   2.632   3.795  0.1506  0.8105  2.4106
   28A       N9  877   3.086   2.690   3.815 -0.4720  0.2972  0.5104
   28A       C8  878   3.226   2.679   3.843  0.4496 -0.0048 -0.2357
   28A       H8  879   3.268   2.584   3.869 -2.2810 -1.4828 -0.8062
   28A       N7  880   3.290   2.781   3.791  0.1666  0.3809 -0.3022
   28A       C5  881   3.194   2.868   3.740 -0.0198  0.1698 -0.3999
   28A       C6  882   3.190   2.994   3.685 -0.4904 -0.6339 -0.0490
   28A       N6  883   3.291   3.083   3.681  0.0354 -0.0758 -0.0445
   28A      H61  884   3.275   3.170   3.632  0.8361 -0.2797 -0.6892
   28A      H62  885   3.379   3.041   3.708 -0.3332 -1.1096 -0.4089
   28A       N1  886   3.081   3.040   3.632  0.2107  0.2269  0.8068
   28A       C2  887   2.972   2.962   3.637 -0.8682  0.2163  0.1988
   28A       H2  888   2.886   2.997   3.582 -1.5636  0.0067  1.1407
   28A       N3  889   2.958   2.849   3.694  0.2100  0.0027 -0.1109
   28A       C4  890   3.076   2.805   3.744 -0.1694  0.1033  0.3245
   28A      C3'  891   3.083   2.369   3.781  0.7501  0.5417  0.1877
   28A      H3'  892   3.189   2.386   3.801  0.5891  1.6880  0.1500
   28A      C2'  893   3.017   2.483   3.709 -0.6283  0.3907 -0.0749
   28A      H2'  894   3.076   2.513   3.622 -0.7133  0.5525 -0.0769
   28A      O2'  895   2.891   2.446   3.664  0.7749 -0.7777 -0.1433
   28A     HO2'  896   2.888   2.484   3.576 -0.0048 -0.8745 -0.1624
   28A      O3'  897   3.058   2.240   3.719 -0.0439  0.6476 -0.2633
   29A        P  898   3.147   2.189   3.602  0.1684  0.1958 -0.4178
   29A      OP1  899   3.099   2.053   3.584 -0.1064 -0.4228 -0.8264
   29A      OP2  900   3.287   2.211   3.644  0.5951 -0.1373  0.1945
   29A      O5'  901   3.104   2.281   3.486 -0.0107  0.8258 -0.1748
   29A      C5'  902   2.980   2.263   3.420  0.1360 -0.5140  0.4017
   29A      H5'  903   2.898   2.250   3.490  0.5169 -1.9951  0.6099
   29A     H5''  904   2.991   2.179   3.353 -2.2058  0.6308 -1.5817
   29A      C4'  905   2.955   2.384   3.327  0.5901  0.1336 -0.3603
   29A      H4'  906   2.862   2.363   3.273  0.5941 -0.1181 -0.2690
   29A      O4'  907   2.940   2.500   3.413 -0.1204 -0.1219 -0.1270
   29A      C1'  908   2.988   2.614   3.355 -0.3365 -0.5111 -0.3130
   29A      H1'  909   2.917   2.696   3.354  0.4152  0.2464  1.9806
   29A       N9  910   3.115   2.670   3.398  0.7024 -0.1032  0.1642
   29A       C8  911   3.222   2.599   3.449  0.4566 -0.3013  0.4535
   29A       H8  912   3.218   2.493   3.471 -1.8418 -0.2635  0.4255
   29A       N7  913   3.327   2.674   3.464  0.4547  0.4902 -0.5062
   29A       C5  914   3.288   2.798   3.418  0.3010  0.2656  0.5839
   29A       C6  915   3.347   2.924   3.412  0.5565  0.2496 -0.5578
   29A       N6  916   3.465   2.957   3.462 -0.5121  0.5645  0.6035
   29A      H61  917   3.478   3.057   3.473 -0.6681  0.4172  2.4920
   29A      H62  918   3.525   2.886   3.502  0.7719  0.4758 -1.3553
   29A       N1  919   3.281   3.025   3.351 -0.0906  0.2638 -0.2330
   29A       C2  920   3.156   3.001   3.309  0.6441 -0.3061 -1.0148
   29A       H2  921   3.108   3.088   3.266  0.8380  0.8730  0.9924
   29A       N3  922   3.080   2.894   3.319  0.5066  0.5211  0.4693
   29A       C4  923   3.157   2.797   3.380  0.4662 -0.3901 -0.1458
   29A      C3'  924   3.065   2.420   3.222  0.4466 -0.8837 -0.5270
   29A      H3'  925   3.165   2.422   3.266 -0.2530  0.3640  1.0979
   29A      C2'  926   3.013   2.565   3.211 -0.6637 -0.3572 -0.6245
   29A      H2'  927   3.091   2.630   3.172  0.7753  0.0102  2.5327
   29A      O2'  928   2.898   2.588   3.139  0.3328 -0.1800 -0.0977
   29A     HO2'  929   2.925   2.632   3.059  1.8298  0.4263  0.7032
   29A      O3'  930   3.050   2.340   3.107 -0.0471  0.0756  0.0256
   30C        P  931   3.170   2.327   3.003 -0.1240  0.0457  0.4163
   30C      OP1  932   3.134   2.207   2.926  0.2273  0.2177 -0.1644
   30C      OP2  933   3.303   2.331   3.071  0.0386  1.1257 -0.0821
   30C      O5'  934   3.157   2.464   2.912  0.1408  0.3714  0.1652
   30C      C5'  935   3.046   2.510   2.840 -0.7609  0.2929 -0.3254
   30C      H5'  936   2.947   2.480   2.876 -1.0717  1.5038 -0.1574
   30C     H5''  937   3.055   2.459   2.745 -0.3216  1.8450 -1.1428
   30C      C4'  938   3.074   2.663   2.829 -0.1114 -0.0939 -0.6172
   30C      H4'  939   2.995   2.711   2.770  0.1507  2.8455  1.2417
   30C      O4'  940   3.068   2.722   2.963  0.2169 -0.1540 -0.6747
   30C      C1'  941   3.165   2.831   2.969 -0.8381  0.1545 -0.2574
   30C      H1'  942   3.125   2.927   3.001  0.9434  0.4352  1.3222
   30C       N1  943   3.294   2.795   3.037  0.1619  0.1258 -0.1791
   30C       C6  944   3.322   2.666   3.079  0.5167 -0.5329  0.0690
   30C       H6  945   3.260   2.580   3.061  1.4169 -0.7873 -2.2664
   30C       C5  946   3.433   2.646   3.147 -0.0382  0.0084  0.0281
   30C       H5  947   3.459   2.546   3.178  0.1565 -0.1115 -0.5147
   30C       C4  948   3.516   2.755   3.182  0.4286 -0.0736  0.4140
   30C       N4  949   3.620   2.742   3.255 -0.2649  0.6200  0.5043
   30C      H41  950   3.672   2.823   3.286 -0.6345  1.0179  0.1012
   30C      H42  951   3.628   2.653   3.302 -2.0652  1.1799  1.9592
   30C       N3  952   3.487   2.880   3.145  0.4342 -0.9774  0.4788
   30C       C2  953   3.375   2.898   3.070 -1.0515 -0.0262 -0.3902
   30C       O2  954   3.339   3.013   3.038 -0.4829  0.8956  0.3174
   30C      C3'  955   3.206   2.710   2.759  0.0370  0.2453 -0.7335
   30C      H3'  956   3.288   2.649   2.796 -2.3420 -2.0622  1.1374
   30C      C2'  957   3.200   2.855   2.825 -0.0873  0.1594 -0.1539
   30C      H2'  958   3.296   2.902   2.802  1.5863 -2.0893  1.7008
   30C      O2'  959   3.099   2.937   2.762 -0.4781  0.0225  0.2457
   30C     HO2'  960   3.145   2.993   2.699  0.8249 -0.9407  0.2985
   30C      O3'  961   3.176   2.700   2.623 -0.3463  0.5726 -0.0031
   31A        P  962   3.294   2.681   2.525  0.2501  0.0035 -0.1354
   31A      OP1  963   3.238   2.660   2.393  0.6272  0.0655  0.7440
   31A      OP2  964   3.398   2.587   2.575 -0.4265  0.6635 -0.0652
   31A      O5'  965   3.357   2.823   2.536 -0.0203  0.0877 -0.4740
   31A      C5'  966   3.299   2.940   2.475 -0.2030  0.8576 -0.2285
   31A      H5'  967   3.210   2.965   2.533 -0.0813  1.3511 -0.2538
   31A     H5''  968   3.290   2.933   2.367  0.2447 -1.5916 -0.1850
   31A      C4'  969   3.394   3.054   2.501 -0.9982 -0.1214 -0.3943
   31A      H4'  970   3.358   3.151   2.467  2.5183  1.4008 -0.1745
   31A      O4'  971   3.431   3.068   2.636 -0.0742 -0.7907  0.6599
   31A      C1'  972   3.573   3.092   2.639  0.1296 -0.3241 -0.2340
   31A      H1'  973   3.597   3.181   2.697  2.3769 -1.0209 -0.0009
   31A       N9  974   3.639   2.987   2.723 -0.0520 -0.2227 -0.1136
   31A       C8  975   3.587   2.872   2.768  0.3253  0.2275  0.4668
   31A       H8  976   3.499   2.833   2.719 -0.2549  1.1978  0.7253
   31A       N7  977   3.648   2.819   2.870  0.3688 -0.7880 -0.1104
   31A       C5  978   3.750   2.915   2.895 -0.4456  0.3064 -0.5909
   31A       C6  979   3.851   2.939   2.997  0.2456  1.3455  0.3203
   31A       N6  980   3.881   2.845   3.091  0.4624 -0.8562 -0.1016
   31A      H61  981   3.937   2.879   3.168 -0.3987  4.0905 -1.3066
   31A      H62  982   3.816   2.769   3.106 -2.7980  1.8062  0.3009
   31A       N1  983   3.937   3.040   2.992  0.2539 -0.0938 -0.8067
   31A       C2  984   3.918   3.130   2.898  0.0313 -0.0452 -0.1449
   31A       H2  985   3.981   3.218   2.893  2.1746 -1.5440 -1.2621
   31A       N3  986   3.831   3.126   2.798 -0.2176  0.4065 -0.3049
   31A       C4  987   3.750   3.011   2.799  0.0683 -0.0710 -0.7087
   31A      C3'  988   3.531   3.023   2.430 -0.2590  0.3229 -1.2005
   31A      H3'  989   3.556   2.919   2.451  2.0257  1.2106  1.1534
   31A      C2'  990   3.629   3.106   2.502  0.1009 -0.0049  0.2296
   31A      H2'  991   3.732   3.071   2.510 -0.5600 -1.8361  1.5094
   31A      O2'  992   3.624   3.248   2.473 -0.1968 -0.0300  0.2707
   31A     HO2'  993   3.699   3.290   2.517 -0.0535 -0.6236  0.6172
   31A      O3'  994   3.514   3.040   2.292 -0.1691  0.0023 -0.2000
   32A        P  995   3.611   2.984   2.181  0.2821  0.0614 -0.1422
   32A      OP1  996   3.534   2.937   2.061  0.3770 -0.0564  0.1123
   32A      OP2  997   3.705   2.896   2.246 -0.8491  0.6532 -0.3133
   32A      O5'  998   3.680   3.110   2.135  0.4415 -0.8360  0.1163
   32A      C5'  999   3.608   3.219   2.079 -0.3114 -0.4207  0.1003
   32A      H5' 1000   3.521   3.232   2.144 -0.5595 -1.7702  0.0535
   32A     H5'' 1001   3.554   3.198   1.987 -0.6121  1.2917 -0.1559
   32A      C4' 1002   3.692   3.346   2.083  0.3567  0.2400 -0.3969
   32A      H4' 1003   3.643   3.420   2.021 -0.0108  0.5100  0.2065
   32A      O4' 1004   3.716   3.391   2.218  0.0738 -0.1769 -0.3300
   32A      C1' 1005   3.853   3.427   2.234  0.5349  0.5538  0.5459
   32A      H1' 1006   3.866   3.519   2.291  2.8682  0.7457 -0.1869
   32A       N9 1007   3.930   3.330   2.314 -0.2058 -0.1594 -0.6854
   32A       C8 1008   3.896   3.204   2.342  0.0318  0.8558  0.1619
   32A       H8 1009   3.818   3.142   2.300  0.1090  0.2584  0.8704
   32A       N7 1010   3.976   3.146   2.431 -0.1305 -0.2506 -0.1784
   32A       C5 1011   4.051   3.254   2.470 -0.8351 -0.1406 -0.3564
   32A       C6 1012   4.153   3.265   2.568 -0.4746 -0.5933 -0.0610
   32A       N6 1013   4.182   3.169   2.652 -0.5152 -0.4686  0.4828
   32A      H61 1014   4.251   3.191   2.722  0.6700  2.5490 -1.4586
   32A      H62 1015   4.124   3.086   2.649  2.9709 -3.0933 -1.2032
   32A       N1 1016   4.214   3.385   2.588  0.2843  0.5346  0.0545
   32A       C2 1017   4.180   3.486   2.507 -1.2095  0.3571  0.3737
   32A       H2 1018   4.223   3.582   2.528  0.6625 -0.3143 -0.2377
   32A       N3 1019   4.098   3.486   2.403 -0.3842  0.0393  0.5106
   32A       C4 1020   4.035   3.370   2.394  0.3212  0.4417 -0.1957
   32A      C3' 1021   3.825   3.328   2.018  0.1195  0.2293  0.7985
   32A      H3' 1022   3.861   3.230   2.049  0.6975 -0.3452 -1.4800
   32A      C2' 1023   3.909   3.438   2.088 -0.0343  0.2604 -0.7121
   32A      H2' 1024   4.014   3.412   2.085 -0.3391 -1.5083  1.5788
   32A      O2' 1025   3.889   3.572   2.049 -0.4025  0.4914  0.1622
   32A     HO2' 1026   3.929   3.584   1.963 -0.4238  1.8337  0.3241
   32A      O3' 1027   3.819   3.335   1.878 -0.5329 -0.5421  0.8207
   33G3       P 1028   3.860   3.222   1.778 -0.1527 -0.2423 -0.3808
   33G3     OP1 1029   3.832   3.284   1.648  0.4293  0.7689  0.0179
   33G3     OP2 1030   3.791   3.095   1.805  0.4110  0.1954  0.3498
   33G3     O5' 1031   4.020   3.207   1.787  0.0970  0.4909 -0.2035
   33G3     C5' 1032   4.075   3.143   1.895 -0.4182 -0.0171  0.1391
   33G3     H5' 1033   4.085   3.037   1.871  1.3030  0.5312 -1.7211
   33G3    H5'' 1034   3.999   3.151   1.974 -0.3241  2.1231  0.0733
   33G3     C4' 1035   4.203   3.199   1.954  0.8478  0.1328 -0.6869
   33G3     H4' 1036   4.222   3.296   1.907 -0.3525 -1.0026 -3.8317
   33G3     O4' 1037   4.173   3.219   2.094  0.3541  0.0079  0.8650
   33G3     C1' 1038   4.253   3.141   2.171  0.4590  0.8703 -0.3258
   33G3     H1' 1039   4.289   3.193   2.260 -1.0001 -0.0942  0.8668
   33G3      N9 1040   4.186   3.019   2.222 -0.0381 -0.3130  0.0956
   33G3      C8 1041   4.065   2.968   2.189  0.6551  0.7863 -0.4325
   33G3      H8 1042   3.987   3.011   2.128 -0.2903 -1.2395 -0.7187
   33G3      N7 1043   4.033   2.855   2.251 -0.2088 -0.1265  0.4631
   33G3      C5 1044   4.153   2.830   2.328  0.8074 -0.4919  0.4180
   33G3      C6 1045   4.192   2.719   2.406  0.3190  0.4040  0.2272
   33G3      O6 1046   4.130   2.615   2.413 -0.3857 -0.0938 -0.0601
   33G3      N1 1047   4.304   2.738   2.478 -0.3879  0.4314  0.5998
   33G3      H1 1048   4.331   2.660   2.537 -1.8434 -0.2645  0.3916
   33G3      C2 1049   4.374   2.852   2.480  0.5615  0.9470 -0.4494
   33G3      N2 1050   4.488   2.839   2.537 -0.8593  0.1990 -0.5116
   33G3     H21 1051   4.500   2.754   2.591 -1.8192 -1.4720 -2.7732
   33G3     H22 1052   4.557   2.912   2.531 -0.4256 -0.1163  0.4467
   33G3      N3 1053   4.354   2.956   2.395  0.0341  0.2684  0.8703
   33G3      C4 1054   4.236   2.939   2.324  0.3898  0.3585 -0.7297
   33G3     C3' 1055   4.320   3.100   1.941 -0.2020 -0.5470 -0.0851
   33G3     H3' 1056   4.279   3.006   1.904  0.0439 -0.3806 -0.7909
   33G3     C2' 1057   4.371   3.095   2.082 -0.4031  0.7376  0.4840
   33G3     H2' 1058   4.388   2.989   2.101  2.4554  0.9336 -0.5882
   33G3     O2' 1059   4.488   3.176   2.110 -0.3299  0.1912  0.3081
   33G3    HO2' 1060   4.470   3.270   2.117 -2.4254 -0.3013  2.5168
   33G3     O3' 1061   4.413   3.146   1.843 -0.1241 -0.2857  0.9191
   33G3    HO3' 1062   4.491   3.094   1.863 -1.2379 -1.6348  1.8660
   34pq0     N1 1063   3.547   3.424   3.325  0.8875  0.3588 -0.2151
   34pq0     C2 1064   3.487   3.325   3.379 -0.0210 -0.2477 -0.4136
   34pq0     N3 1065   3.524   3.241   3.470  0.0649  0.1283  0.0280
   34pq0     C4 1066   3.635   3.282   3.524 -0.2040  1.0158 -0.2649
   34pq0     C5 1067   3.695   3.401   3.506  0.3629  0.2191  1.1605
   34pq0     C6 1068   3.654   3.473   3.389 -0.2732  0.0945 -0.6532
   34pq0     O6 1069   3.707   3.581   3.354  0.6505 -0.1435  0.0859
   34pq0     C7 1070   3.804   3.412   3.603  0.4083 -0.3670  0.1543
   34pq0    C10 1071   3.884   3.529   3.606 -0.0812  0.7093  0.4648
   34pq0    N11 1072   3.956   3.615   3.584 -0.4057  0.5919  0.2764
   34pq0     C8 1073   3.799   3.306   3.684  0.5872 -0.5162  0.7948
   34pq0     N9 1074   3.698   3.220   3.630 -0.5973 -0.1415  0.2193
   34pq0     N2 1075   3.383   3.304   3.318 -0.3591 -0.4391  0.2945
   34pq0     H1 1076   3.507   3.487   3.257  0.3966  1.8831  1.4134
   34pq0     H2 1077   3.865   3.288   3.769  0.1573 -1.3159  0.9632
   34pq0     H3 1078   3.671   3.134   3.675 -2.2970  0.3594  0.2250
   34pq0     H4 1079   3.388   3.324   3.219 -0.7045 -0.5106  0.2633
   34pq0     H5 1080   3.347   3.212   3.339 -0.1279 -0.7956 -0.7751
   7.32054   7.26794   7.42754
