Generic title
 1080
    1C5    HO5'    1   3.328   5.192   3.393 -0.8904  3.8153  0.8091
    1C5     O5'    2   3.367   5.184   3.480 -0.1034 -0.3645  0.2913
    1C5     C5'    3   3.429   5.311   3.511  0.1095  0.2383 -1.0261
    1C5     H5'    4   3.372   5.398   3.478  0.2569  1.7556  2.2843
    1C5    H5''    5   3.525   5.310   3.458  0.0774  1.7996 -1.1602
    1C5     C4'    6   3.459   5.337   3.666  0.1082  0.5170  0.3077
    1C5     H4'    7   3.501   5.437   3.674 -0.0152  0.4844  1.4067
    1C5     O4'    8   3.339   5.321   3.739 -0.0930  0.0617 -0.4296
    1C5     C1'    9   3.367   5.280   3.870 -1.1431 -0.2701  0.6996
    1C5     H1'   10   3.338   5.350   3.948  0.9804  1.5326 -0.0133
    1C5      N1   11   3.308   5.144   3.893  0.7607 -0.6414  0.2317
    1C5      C6   12   3.260   5.058   3.792  0.2022  0.5475  0.0875
    1C5      H6   13   3.280   5.093   3.692  0.9210  2.6707  0.9208
    1C5      C5   14   3.196   4.944   3.828  0.1801  0.2801  0.0330
    1C5      H5   15   3.158   4.882   3.749  0.0745 -1.5628  1.4709
    1C5      C4   16   3.190   4.914   3.966 -0.0089  0.1343 -0.4851
    1C5      N4   17   3.120   4.819   4.006  0.1554 -0.2281  0.0169
    1C5     H41   18   3.105   4.810   4.105 -1.0263  0.4073 -0.0905
    1C5     H42   19   3.057   4.772   3.943 -1.7595  1.0414  0.9148
    1C5      N3   20   3.228   4.998   4.062 -0.0015  0.4801  0.6473
    1C5      C2   21   3.295   5.111   4.030 -0.3143  0.5828  0.4368
    1C5      O2   22   3.326   5.188   4.124  0.5814  0.2824  0.0543
    1C5     C3'   23   3.560   5.235   3.723  0.0078  0.3106  0.0128
    1C5     H3'   24   3.527   5.134   3.697  1.1732 -0.0154 -0.2362
    1C5     C2'   25   3.525   5.256   3.871  0.3154  0.4847 -0.3489
    1C5     H2'   26   3.541   5.171   3.937 -1.7995  2.3938  2.8934
    1C5     O2'   27   3.582   5.373   3.937 -0.3399  0.5596  0.0562
    1C5    HO2'   28   3.550   5.392   4.026  1.3071  2.7291  0.2774
    1C5     O3'   29   3.696   5.264   3.694 -0.1426 -0.0012 -0.6949
    2U        P   30   3.808   5.145   3.693  0.5104 -0.2616  0.1680
    2U      OP1   31   3.933   5.203   3.641  0.2846 -0.6244  0.0822
    2U      OP2   32   3.751   5.027   3.622  0.1894  0.2274 -0.7995
    2U      O5'   33   3.813   5.120   3.849  0.3113 -0.4966  0.6326
    2U      C5'   34   3.859   5.223   3.940 -0.0675 -0.1939  0.1501
    2U      H5'   35   3.813   5.318   3.912  3.2663  1.1848 -1.1148
    2U     H5''   36   3.967   5.232   3.929  0.0511 -1.3211  0.2996
    2U      C4'   37   3.837   5.183   4.087 -0.1283  0.0770 -0.1172
    2U      H4'   38   3.877   5.264   4.148 -1.3715  0.2889  0.4465
    2U      O4'   39   3.703   5.162   4.122  0.6510 -0.7123  0.8156
    2U      C1'   40   3.693   5.057   4.217 -0.0542  0.0460  0.1674
    2U      H1'   41   3.649   5.103   4.305  3.3874  0.5417  1.7685
    2U       N1   42   3.614   4.937   4.171  0.7189  0.9730 -0.2727
    2U       C6   43   3.605   4.906   4.037 -0.1621  0.4167  0.1052
    2U       H6   44   3.648   4.967   3.958  0.9055 -1.0712 -0.5073
    2U       C5   45   3.527   4.802   3.994 -0.0401 -0.3247 -0.1315
    2U       H5   46   3.520   4.780   3.889  0.9755 -1.3485 -0.0135
    2U       C4   47   3.463   4.712   4.086  0.0632 -0.5497 -0.3914
    2U       O4   48   3.403   4.610   4.056  0.5939  0.5866  0.1584
    2U       N3   49   3.472   4.750   4.218  0.1031  0.1740  0.6063
    2U       H3   50   3.431   4.691   4.288  0.9659 -0.8242  0.2917
    2U       C2   51   3.548   4.854   4.264 -0.5412  0.7949  0.1859
    2U       O2   52   3.549   4.876   4.386 -0.5556 -0.1090  0.3551
    2U      C3'   53   3.913   5.051   4.132  0.2116  0.0681  0.2256
    2U      H3'   54   3.886   4.971   4.063 -3.1544 -0.0576  1.4851
    2U      C2'   55   3.836   5.022   4.260 -0.5970  0.3351  0.0822
    2U      H2'   56   3.832   4.916   4.284  0.4481 -0.0620 -1.4084
    2U      O2'   57   3.866   5.113   4.369 -0.1134 -0.3863  0.0362
    2U     HO2'   58   3.833   5.074   4.451  0.2699  0.1998  0.4803
    2U      O3'   59   4.049   5.074   4.139 -0.7477 -0.0206  0.0169
    3G        P   60   4.144   4.948   4.147  0.1257 -0.1026  0.1901
    3G      OP1   61   4.281   5.008   4.155  0.1293 -0.1316 -0.4465
    3G      OP2   62   4.108   4.857   4.041  0.6235  0.5353 -0.3264
    3G      O5'   63   4.113   4.877   4.281  0.0489 -0.1561 -0.8212
    3G      C5'   64   4.139   4.932   4.411  0.3190 -0.0978  0.4416
    3G      H5'   65   4.093   5.031   4.423  1.0935  0.4107 -0.6421
    3G     H5''   66   4.245   4.945   4.429  0.5492 -0.8599 -0.3068
    3G      C4'   67   4.087   4.837   4.520 -0.0550  0.4583  0.5928
    3G      H4'   68   4.104   4.877   4.620  0.2886 -1.8593  1.5116
    3G      O4'   69   3.942   4.824   4.502 -0.0095  0.2833  0.2387
    3G      C1'   70   3.915   4.693   4.552  0.9690  0.1565 -0.0602
    3G      H1'   71   3.842   4.701   4.632 -1.5982 -2.0312 -1.9707
    3G       N9   72   3.849   4.618   4.443 -0.1676 -0.5714  0.1320
    3G       C8   73   3.856   4.648   4.306 -0.3921 -0.1123 -0.4060
    3G       H8   74   3.923   4.718   4.259  2.3284 -3.8134 -2.5955
    3G       N7   75   3.772   4.582   4.232 -0.5813  0.3377  0.3112
    3G       C5   76   3.714   4.492   4.321 -0.3471 -0.5115 -0.3350
    3G       C6   77   3.618   4.385   4.308  0.4703  0.0632  0.0488
    3G       O6   78   3.546   4.342   4.213 -0.0665 -0.4758 -0.5765
    3G       N1   79   3.595   4.322   4.425  0.0548 -0.0689 -0.6999
    3G       H1   80   3.529   4.247   4.416 -0.7290  0.3174  1.2804
    3G       C2   81   3.647   4.348   4.545  0.1819 -0.0050  0.0926
    3G       N2   82   3.619   4.265   4.640 -0.0754 -0.7852  0.4125
    3G      H21   83   3.544   4.198   4.650  1.2564 -2.0187  2.8755
    3G      H22   84   3.662   4.291   4.727 -1.9181 -0.4085  1.2669
    3G       N3   85   3.725   4.451   4.569 -0.3815  0.7885 -0.3994
    3G       C4   86   3.757   4.515   4.453 -0.5810 -0.5326 -0.7788
    3G      C3'   87   4.148   4.696   4.504  0.1227  0.1982  0.8067
    3G      H3'   88   4.143   4.652   4.405 -0.8498 -2.7720  2.0691
    3G      C2'   89   4.045   4.624   4.590 -0.3907 -0.1928 -0.3747
    3G      H2'   90   4.058   4.519   4.564 -0.5208  0.0740 -1.5765
    3G      O2'   91   4.069   4.638   4.730  0.0691  0.3317  0.1770
    3G     HO2'   92   4.060   4.550   4.767 -0.1516 -0.4805 -1.6925
    3G      O3'   93   4.284   4.690   4.541  0.3286  0.2921  0.1218
    4G        P   94   4.372   4.555   4.510 -0.0595 -0.1618 -0.1629
    4G      OP1   95   4.502   4.572   4.582 -0.0302  0.1589  0.2902
    4G      OP2   96   4.363   4.523   4.363 -0.3510  0.4559  0.4197
    4G      O5'   97   4.294   4.447   4.593  0.0607 -0.6907  0.1343
    4G      C5'   98   4.303   4.306   4.562 -0.1292  0.0124  0.1129
    4G      H5'   99   4.405   4.272   4.579 -0.2711 -0.6607 -0.3245
    4G     H5''  100   4.289   4.289   4.455 -0.3507 -0.2947  0.1896
    4G      C4'  101   4.201   4.222   4.632  0.1208  0.6968 -0.6589
    4G      H4'  102   4.227   4.221   4.738  0.5313 -1.1378 -0.7297
    4G      O4'  103   4.079   4.274   4.609 -0.3417 -0.1306  0.5100
    4G      C1'  104   3.987   4.168   4.585  0.1392 -0.7137 -0.1195
    4G      H1'  105   3.897   4.177   4.647  0.1872  1.0920 -0.2712
    4G       N9  106   3.936   4.177   4.444  0.6000 -0.5015 -0.1084
    4G       C8  107   3.986   4.254   4.347 -0.0656 -0.0563  0.3678
    4G       H8  108   4.066   4.326   4.362 -0.8365  1.5946 -2.6975
    4G       N7  109   3.928   4.234   4.232 -0.2568  0.0705 -0.4473
    4G       C5  110   3.828   4.140   4.259 -0.3563  0.5889 -0.7860
    4G       C6  111   3.733   4.077   4.178 -0.7275  0.2127  0.9522
    4G       O6  112   3.705   4.081   4.057 -0.3765 -0.1809 -0.1738
    4G       N1  113   3.647   3.997   4.251 -0.7505  0.3979 -0.3273
    4G       H1  114   3.571   3.949   4.205 -0.7783 -0.8873  0.9974
    4G       C2  115   3.678   3.960   4.379  0.4966  0.2159  0.1565
    4G       N2  116   3.608   3.863   4.428 -0.2401 -0.4227 -0.5324
    4G      H21  117   3.544   3.814   4.367  0.6748 -1.6219 -0.5694
    4G      H22  118   3.641   3.820   4.514  1.2508  2.0290  0.2299
    4G       N3  119   3.765   4.013   4.458 -0.2924  0.0150 -0.0433
    4G       C4  120   3.835   4.108   4.390 -0.2285  0.6684  0.7397
    4G      C3'  121   4.191   4.079   4.589  0.0807  0.3965  0.0973
    4G      H3'  122   4.195   4.079   4.480 -0.3558  2.2717  0.0477
    4G      C2'  123   4.053   4.038   4.622 -0.3488  0.1336 -0.2402
    4G      H2'  124   4.015   3.957   4.560  1.0235 -2.0676  1.5790
    4G      O2'  125   4.030   4.007   4.757 -0.8320  0.3250  1.1219
    4G     HO2'  126   3.935   4.005   4.772 -1.0131  1.0462  0.1678
    4G      O3'  127   4.298   4.011   4.646 -0.1343 -0.1713  0.2212
    5G        P  128   4.374   3.895   4.567  0.1701 -0.1316  0.3723
    5G      OP1  129   4.472   3.839   4.661  0.4749 -0.1300  0.0605
    5G      OP2  130   4.420   3.950   4.439 -0.5141  0.2706 -0.0044
    5G      O5'  131   4.259   3.786   4.547  0.2134 -0.3609 -0.1149
    5G      C5'  132   4.202   3.716   4.656  0.1351 -0.7131 -0.2151
    5G      H5'  133   4.175   3.790   4.732  0.4383 -1.2520  0.4309
    5G     H5''  134   4.275   3.654   4.708 -0.9367  0.8818  3.6105
    5G      C4'  135   4.079   3.648   4.616  0.1991  0.2658  0.5236
    5G      H4'  136   4.041   3.595   4.703 -1.9376  1.0115  0.0954
    5G      O4'  137   3.980   3.724   4.557  0.2408  0.8371  0.3033
    5G      C1'  138   3.911   3.643   4.452 -0.5422 -1.1928 -0.3451
    5G      H1'  139   3.804   3.641   4.473 -0.1580  0.6772  2.2511
    5G       N9  140   3.932   3.700   4.321 -0.3179  0.0918  0.3992
    5G       C8  141   4.026   3.796   4.284 -0.0327 -0.4885 -0.3769
    5G       H8  142   4.102   3.835   4.351 -0.1126 -2.0430  0.6649
    5G       N7  143   4.007   3.853   4.170 -0.5628  0.0402 -0.0847
    5G       C5  144   3.890   3.788   4.127 -0.5258  0.1524  0.1414
    5G       C6  145   3.816   3.802   4.004 -0.5238 -0.0199 -0.5749
    5G       O6  146   3.838   3.879   3.910 -0.2340 -0.1141 -0.1854
    5G       N1  147   3.708   3.720   3.993 -0.1199  0.1578 -0.7172
    5G       H1  148   3.653   3.732   3.909 -0.1901 -0.5859 -0.7879
    5G       C2  149   3.680   3.623   4.087 -0.1437  0.2212 -0.6185
    5G       N2  150   3.579   3.547   4.070 -0.1923 -0.5365 -0.1155
    5G      H21  151   3.530   3.561   3.982 -0.3876  0.0992  0.0887
    5G      H22  152   3.546   3.498   4.151 -3.8374  1.0863 -0.4334
    5G       N3  153   3.736   3.620   4.204  0.1990  0.3552 -0.0997
    5G       C4  154   3.843   3.699   4.219 -0.2323  0.2428 -1.0629
    5G      C3'  155   4.116   3.537   4.511  0.0598 -0.2047 -0.1104
    5G      H3'  156   4.172   3.579   4.427 -0.8528 -0.8865 -1.0721
    5G      C2'  157   3.976   3.503   4.464 -0.2398  0.1198  0.2099
    5G      H2'  158   3.989   3.458   4.366  1.6336  0.5925  0.1932
    5G      O2'  159   3.898   3.430   4.562 -0.0254 -0.1252 -0.0411
    5G     HO2'  160   3.936   3.344   4.582 -0.4814 -0.4692 -0.6087
    5G      O3'  161   4.176   3.414   4.559  0.0865  0.3503  0.3073
    6U        P  162   4.277   3.337   4.472 -0.0254 -0.4104  0.3724
    6U      OP1  163   4.394   3.312   4.557 -0.9052 -0.3453  0.7008
    6U      OP2  164   4.288   3.387   4.333  0.0274  0.0926 -0.6088
    6U      O5'  165   4.194   3.199   4.473  0.5200 -0.5889 -0.1191
    6U      C5'  166   4.181   3.121   4.595 -0.1186 -0.6201  0.3460
    6U      H5'  167   4.175   3.189   4.680  1.7404 -0.3051  0.2665
    6U     H5''  168   4.273   3.068   4.619 -0.0001 -0.7817 -0.4125
    6U      C4'  169   4.066   3.016   4.600  0.1846 -0.2757  0.0512
    6U      H4'  170   4.062   2.961   4.694 -0.0846 -2.8745 -1.4008
    6U      O4'  171   3.940   3.087   4.590 -0.8672  0.6458  0.2920
    6U      C1'  172   3.847   3.002   4.515  0.4962 -0.0372 -0.0553
    6U      H1'  173   3.747   2.998   4.559  1.2122 -3.2309  1.5323
    6U       N1  174   3.824   3.063   4.378  0.6772 -0.2906 -0.6417
    6U       C6  175   3.894   3.168   4.331  0.2485 -0.6508 -0.4229
    6U       H6  176   3.965   3.218   4.396 -1.7319  0.7655  0.8041
    6U       C5  177   3.871   3.220   4.207 -0.3229 -0.1358  0.2460
    6U       H5  178   3.930   3.297   4.161 -1.7811  1.9653  1.7182
    6U       C4  179   3.768   3.169   4.126 -0.1388  0.5157  0.4599
    6U       O4  180   3.745   3.197   4.009 -0.2603  0.3817 -0.1345
    6U       N3  181   3.699   3.066   4.181 -0.0700  0.4405  0.2720
    6U       H3  182   3.633   3.013   4.127  1.3661  0.4969 -1.6173
    6U       C2  183   3.725   3.004   4.304  0.1237 -0.7405 -0.0445
    6U       O2  184   3.659   2.908   4.345  0.4286  0.0074  0.3376
    6U      C3'  185   4.061   2.909   4.499  0.1522 -0.0115 -0.9821
    6U      H3'  186   4.088   2.955   4.404  1.8466  1.2829  0.0617
    6U      C2'  187   3.911   2.861   4.507  0.3577  0.2535  0.3918
    6U      H2'  188   3.892   2.813   4.411 -0.5087  1.7725 -0.2419
    6U      O2'  189   3.878   2.788   4.619  0.2010  0.8801 -0.1277
    6U     HO2'  190   3.824   2.712   4.598  0.6724  0.3634  0.4875
    6U      O3'  191   4.146   2.800   4.533 -0.4145 -0.1372 -0.0388
    7C        P  192   4.242   2.738   4.431  0.3472  0.0154 -0.0033
    7C      OP1  193   4.298   2.619   4.500  0.1371  0.3742  0.0819
    7C      OP2  194   4.336   2.848   4.396 -0.7569  0.0882 -0.1693
    7C      O5'  195   4.144   2.702   4.316 -0.3093 -0.1456  0.1996
    7C      C5'  196   4.053   2.592   4.326 -0.4380  0.3263  0.3785
    7C      H5'  197   3.999   2.604   4.420 -0.5161 -0.1127  0.3924
    7C     H5''  198   4.109   2.500   4.312  0.0931  0.2030  2.8363
    7C      C4'  199   3.954   2.607   4.207 -0.3921 -0.2069  0.2284
    7C      H4'  200   3.873   2.537   4.230  0.3130 -0.8538  0.8072
    7C      O4'  201   3.908   2.737   4.197  0.2253 -0.4439  0.2168
    7C      C1'  202   3.883   2.771   4.065 -0.1989  0.0836 -0.1291
    7C      H1'  203   3.775   2.785   4.057 -0.3822 -1.6870 -1.2991
    7C       N1  204   3.963   2.890   4.022  0.7532 -0.0757  0.0493
    7C       C6  205   4.077   2.937   4.090 -0.0638 -0.0248  0.6737
    7C       H6  206   4.108   2.892   4.184  1.6095 -0.7051 -0.1627
    7C       C5  207   4.156   3.037   4.037 -0.2508 -0.0906 -0.7171
    7C       H5  208   4.239   3.069   4.098 -0.4015 -1.4259  0.2533
    7C       C4  209   4.097   3.102   3.925 -1.1208  0.0476  0.0802
    7C       N4  210   4.174   3.205   3.886 -0.0592 -0.4267 -0.1750
    7C      H41  211   4.126   3.253   3.811 -0.3032 -3.1384 -1.8967
    7C      H42  212   4.246   3.250   3.939  0.0185 -1.5777  0.7298
    7C       N3  213   3.998   3.054   3.845 -0.1254  0.5579 -0.1532
    7C       C2  214   3.918   2.957   3.906  0.0719  0.3144  0.3123
    7C       O2  215   3.812   2.929   3.853  0.5257  0.3640  0.1079
    7C      C3'  216   4.023   2.580   4.077 -0.2379  0.1139 -0.0742
    7C      H3'  217   4.120   2.631   4.074  0.2606 -0.7875 -2.9401
    7C      C2'  218   3.932   2.655   3.976  0.6472  0.8219  0.0163
    7C      H2'  219   3.991   2.692   3.893  0.7148  0.9810  0.1342
    7C      O2'  220   3.828   2.577   3.927  0.0861  0.1193  0.6344
    7C     HO2'  221   3.794   2.629   3.854 -1.2780 -1.6454 -0.0490
    7C      O3'  222   4.045   2.437   4.059 -0.1068 -0.1477  0.1795
    8G        P  223   4.164   2.382   3.966  0.2504 -0.2074 -0.0831
    8G      OP1  224   4.105   2.296   3.858  0.0247 -0.1987  0.3858
    8G      OP2  225   4.259   2.329   4.061  0.5449 -0.3668  0.1192
    8G      O5'  226   4.234   2.517   3.906  0.3278 -0.3719  0.1094
    8G      C5'  227   4.306   2.510   3.790  0.6248 -0.8997  0.2102
    8G      H5'  228   4.352   2.412   3.779 -0.1594 -1.1170 -1.4971
    8G     H5''  229   4.382   2.588   3.789  0.9482 -1.2060 -0.8819
    8G      C4'  230   4.215   2.540   3.668  0.0879 -0.4586 -0.4142
    8G      H4'  231   4.163   2.453   3.630  0.9382 -0.3582 -1.8934
    8G      O4'  232   4.140   2.658   3.702  0.5768 -0.1197 -0.4072
    8G      C1'  233   4.180   2.766   3.618  0.2888 -1.0059  0.2019
    8G      H1'  234   4.091   2.825   3.592  0.9594 -0.4523 -0.9342
    8G       N9  235   4.270   2.859   3.689  0.0551 -0.0610 -0.0361
    8G       C8  236   4.314   2.843   3.820  0.3933  0.1896 -0.5801
    8G       H8  237   4.298   2.757   3.883 -1.4970  1.3773  0.6454
    8G       N7  238   4.389   2.946   3.860  0.5896 -0.4554 -0.0139
    8G       C5  239   4.387   3.036   3.751  0.1829 -0.3462  0.1531
    8G       C6  240   4.448   3.164   3.737  0.0268 -0.0098 -0.5755
    8G       O6  241   4.502   3.227   3.828  0.2632 -0.1063 -0.2725
    8G       N1  242   4.436   3.213   3.610 -0.5273 -0.3639  0.1709
    8G       H1  243   4.487   3.300   3.597  1.8892 -1.8553 -1.2673
    8G       C2  244   4.344   3.165   3.521 -0.6416  0.0420  0.8369
    8G       N2  245   4.342   3.236   3.414 -0.2527 -0.0662 -0.9137
    8G      H21  246   4.373   3.332   3.408 -1.3686  0.2229 -2.8491
    8G      H22  247   4.267   3.202   3.355 -0.8955 -2.3750  1.0473
    8G       N3  248   4.295   3.043   3.525  0.3503 -0.0790  0.2751
    8G       C4  249   4.325   2.977   3.642 -0.4637 -0.7010  0.0538
    8G      C3'  250   4.305   2.571   3.544  1.1832  0.8160  0.1672
    8G      H3'  251   4.408   2.595   3.572  1.2658  1.9726 -1.0040
    8G      C2'  252   4.253   2.703   3.493  0.6890  0.4507 -0.0332
    8G      H2'  253   4.342   2.759   3.464  0.4804  0.6168 -0.3605
    8G      O2'  254   4.156   2.700   3.389 -0.6836 -0.2059  0.6871
    8G     HO2'  255   4.180   2.772   3.331 -0.6664  0.0636  1.0240
    8G      O3'  256   4.316   2.461   3.453 -0.0125 -0.4329  0.6911
    9C        P  257   4.440   2.363   3.454 -0.0664 -0.2895 -0.0805
    9C      OP1  258   4.441   2.268   3.344 -0.2533  0.2696  0.1626
    9C      OP2  259   4.443   2.322   3.594  0.0430 -0.0112  0.0764
    9C      O5'  260   4.551   2.477   3.432 -0.5683  0.2397  0.1551
    9C      C5'  261   4.689   2.452   3.450 -0.2926 -0.1460 -0.2937
    9C      H5'  262   4.720   2.349   3.431 -0.0103 -0.3937  1.3150
    9C     H5''  263   4.707   2.483   3.553  0.0973 -0.6797 -0.1981
    9C      C4'  264   4.774   2.542   3.363 -0.1885 -0.0166 -0.5107
    9C      H4'  265   4.876   2.541   3.401  0.7430 -0.6271 -2.8390
    9C      O4'  266   4.769   2.496   3.231  0.0690  0.3140 -0.1866
    9C      C1'  267   4.755   2.613   3.153 -0.5501  0.2677 -0.5328
    9C      H1'  268   4.841   2.602   3.087  0.1260 -1.2925  0.5313
    9C       N1  269   4.623   2.614   3.084 -0.3811  0.4737 -0.0210
    9C       C6  270   4.518   2.521   3.114  0.5794  0.4189 -0.3705
    9C       H6  271   4.526   2.446   3.192  0.2411  0.6043 -0.1563
    9C       C5  272   4.406   2.528   3.038 -0.1932  0.2890  0.2630
    9C       H5  273   4.322   2.461   3.053 -0.4001 -0.1200 -2.3651
    9C       C4  274   4.403   2.621   2.936  0.8759 -0.1942 -0.5608
    9C       N4  275   4.301   2.627   2.856 -0.2984 -0.3431 -0.5019
    9C      H41  276   4.292   2.710   2.799 -1.0601  1.0682  1.5412
    9C      H42  277   4.219   2.574   2.881 -0.2326 -0.4822 -0.5831
    9C       N3  278   4.496   2.706   2.906  0.2089 -0.6760  0.4914
    9C       C2  279   4.604   2.703   2.984  0.1745 -0.0804 -0.8799
    9C       O2  280   4.687   2.787   2.964  0.3896  0.2648 -0.6026
    9C      C3'  281   4.742   2.694   3.367 -0.5996  0.0614 -0.4022
    9C      H3'  282   4.636   2.714   3.362 -0.4639  0.8213 -0.2956
    9C      C2'  283   4.798   2.741   3.234  1.2141  1.0099 -0.3756
    9C      H2'  284   4.751   2.834   3.205 -0.8485  0.5674  1.3166
    9C      O2'  285   4.936   2.749   3.227 -0.1631 -0.1575  0.0807
    9C     HO2'  286   4.957   2.811   3.296 -0.1734 -0.5718  0.4618
    9C      O3'  287   4.807   2.762   3.465  0.4184 -0.3985 -0.3327
   10A        P  288   4.730   2.876   3.545 -0.3551  0.2155  0.1901
   10A      OP1  289   4.824   2.932   3.645 -0.0250 -0.0409  0.3654
   10A      OP2  290   4.612   2.808   3.602  0.0448 -0.5447  0.0592
   10A      O5'  291   4.690   2.995   3.451 -0.0552 -0.5004 -0.2395
   10A      C5'  292   4.792   3.071   3.390  0.3083 -0.0297  0.1131
   10A      H5'  293   4.873   3.005   3.357  0.3895  0.6128 -1.0302
   10A     H5''  294   4.824   3.149   3.458 -1.2075  0.6793  0.0349
   10A      C4'  295   4.752   3.142   3.256 -0.4013 -0.0210 -0.8005
   10A      H4'  296   4.847   3.179   3.219  1.1033 -2.0547  0.7941
   10A      O4'  297   4.695   3.045   3.166 -0.2286 -0.0339 -0.0985
   10A      C1'  298   4.585   3.110   3.096 -0.6513 -0.2565 -0.5797
   10A      H1'  299   4.611   3.125   2.991  3.4312  1.9898  0.5122
   10A       N9  300   4.465   3.027   3.124 -0.4999  0.5265  0.6261
   10A       C8  301   4.443   2.930   3.217  0.7765 -0.4205  0.0023
   10A       H8  302   4.506   2.911   3.303  1.9989 -2.1757 -1.2187
   10A       N7  303   4.332   2.857   3.207 -0.7232 -0.6263  0.0552
   10A       C5  304   4.280   2.905   3.086  0.5984 -0.4604  0.4745
   10A       C6  305   4.169   2.861   3.006 -0.5183 -0.6076  0.3899
   10A       N6  306   4.087   2.767   3.048 -0.0854 -0.5658 -0.1772
   10A      H61  307   4.011   2.734   2.990 -0.4221 -1.0612  0.5293
   10A      H62  308   4.111   2.712   3.129 -2.9243  2.1676  2.8533
   10A       N1  309   4.148   2.924   2.892  0.4147  0.4848  0.6088
   10A       C2  310   4.230   3.022   2.857  0.0674  0.9293 -0.2840
   10A       H2  311   4.202   3.072   2.765 -1.2771  0.1553 -0.3163
   10A       N3  312   4.338   3.065   2.917 -0.4528  0.1124  0.3099
   10A       C4  313   4.357   3.005   3.037  0.1240  0.2153  0.0710
   10A      C3'  314   4.658   3.251   3.286 -0.2753  0.1662  0.1573
   10A      H3'  315   4.592   3.227   3.370 -0.6207  2.2121  0.5150
   10A      C2'  316   4.578   3.255   3.150 -0.0107  0.5073 -0.5817
   10A      H2'  317   4.474   3.274   3.177 -0.5623 -1.8041 -0.8119
   10A      O2'  318   4.620   3.348   3.055 -0.3650  0.3121  0.0329
   10A     HO2'  319   4.713   3.327   3.039 -1.0015 -3.6264  0.4158
   10A      O3'  320   4.713   3.373   3.319  0.0433  0.3137 -0.2041
   11G        P  321   4.667   3.452   3.445 -0.1311 -0.0557  0.0127
   11G      OP1  322   4.758   3.563   3.466 -0.1120  0.0826 -0.2287
   11G      OP2  323   4.648   3.361   3.557  0.4581 -0.5784 -0.2660
   11G      O5'  324   4.528   3.501   3.407  0.3615 -0.0130 -0.2273
   11G      C5'  325   4.515   3.598   3.299  0.3431 -0.0396 -0.3120
   11G      H5'  326   4.524   3.554   3.200 -1.6364  0.4160 -0.7192
   11G     H5''  327   4.601   3.665   3.309  1.1858 -1.2315  0.7551
   11G      C4'  328   4.391   3.689   3.305 -0.1909  0.1396 -0.2867
   11G      H4'  329   4.393   3.758   3.221 -1.8333 -0.1129 -0.5695
   11G      O4'  330   4.281   3.603   3.292  0.1591  0.4146 -0.1928
   11G      C1'  331   4.184   3.631   3.388  0.2133  0.8720 -0.0946
   11G      H1'  332   4.097   3.677   3.340 -0.1309  1.9458  1.4737
   11G       N9  333   4.153   3.512   3.461  0.0894 -0.7520 -0.1194
   11G       C8  334   4.198   3.469   3.587  0.0486  0.9452 -0.1140
   11G       H8  335   4.280   3.512   3.642  0.8960  0.4742 -0.9776
   11G       N7  336   4.127   3.374   3.640 -0.0833  0.0116 -0.0129
   11G       C5  337   4.032   3.344   3.544  0.4593  0.3268  0.0779
   11G       C6  338   3.919   3.250   3.539 -0.0939 -0.2564 -0.8437
   11G       O6  339   3.892   3.156   3.610  0.2142  0.1217  0.3950
   11G       N1  340   3.832   3.267   3.433 -0.1162 -0.2486 -0.5874
   11G       H1  341   3.760   3.197   3.422  1.0381 -1.3638 -1.2670
   11G       C2  342   3.852   3.360   3.338  0.5862  0.7056  0.5196
   11G       N2  343   3.757   3.366   3.245 -0.5317 -0.5582  0.1720
   11G      H21  344   3.678   3.302   3.243  1.3429 -3.0804 -3.0334
   11G      H22  345   3.772   3.428   3.166  1.5158 -0.2729  0.7322
   11G       N3  346   3.958   3.441   3.332 -0.3523 -0.3728  1.0191
   11G       C4  347   4.042   3.429   3.437  0.0675 -0.0651 -0.2715
   11G      C3'  348   4.382   3.758   3.436  0.0201 -0.3049  0.1194
   11G      H3'  349   4.446   3.702   3.504 -0.3973 -0.9695 -0.0236
   11G      C2'  350   4.241   3.737   3.480 -0.1556  0.0335  0.1960
   11G      H2'  351   4.237   3.714   3.587  2.1882 -0.9010  0.1547
   11G      O2'  352   4.158   3.846   3.458 -0.1626 -0.4536  0.3977
   11G     HO2'  353   4.165   3.873   3.366  1.2451  1.9339  1.1305
   11G      O3'  354   4.411   3.899   3.428 -0.4131 -0.5383 -0.0544
   12U        P  355   4.545   3.963   3.370  0.6655 -0.0636 -0.1805
   12U      OP1  356   4.544   3.958   3.223  0.5548  0.2293 -0.2526
   12U      OP2  357   4.653   3.897   3.444  0.3557  0.7080  0.1709
   12U      O5'  358   4.526   4.103   3.427 -0.3274 -0.2289  0.1081
   12U      C5'  359   4.412   4.170   3.411  0.3761 -0.3020 -0.0436
   12U      H5'  360   4.407   4.227   3.504 -0.4099 -0.3083 -0.0741
   12U     H5''  361   4.325   4.104   3.406  1.6187 -1.9188 -1.8062
   12U      C4'  362   4.399   4.274   3.297  0.0095 -0.7311  0.0601
   12U      H4'  363   4.345   4.362   3.331  2.3743  0.1960  1.5739
   12U      O4'  364   4.530   4.341   3.283  0.1234  0.0624  0.6654
   12U      C1'  365   4.559   4.372   3.151 -0.0740 -0.4780  0.8821
   12U      H1'  366   4.537   4.478   3.140  2.5591 -0.0531 -1.2953
   12U       N1  367   4.703   4.352   3.122 -0.7264  0.1162  0.2269
   12U       C6  368   4.762   4.234   3.173  0.2877 -0.3853  0.6727
   12U       H6  369   4.708   4.166   3.238  2.2395 -2.2444  0.4541
   12U       C5  370   4.896   4.206   3.145  0.1216 -0.4448 -0.4255
   12U       H5  371   4.946   4.116   3.178 -0.2740 -0.7140 -0.5559
   12U       C4  372   4.976   4.287   3.056 -0.4832  0.2248  0.3571
   12U       O4  373   5.089   4.264   3.022 -0.5882 -0.2049  0.9851
   12U       N3  374   4.904   4.391   2.993  0.4634  0.0474 -0.2587
   12U       H3  375   4.953   4.442   2.921 -2.1053  1.5773 -1.0795
   12U       C2  376   4.764   4.422   3.020  0.6615 -0.3218  0.4082
   12U       O2  377   4.706   4.517   2.964 -0.2409  0.0863  0.3224
   12U      C3'  378   4.366   4.233   3.156  0.7693  0.0840 -0.0912
   12U      H3'  379   4.383   4.125   3.155  1.1952  0.1480 -1.1615
   12U      C2'  380   4.474   4.283   3.059  0.2583 -0.5290  0.5783
   12U      H2'  381   4.518   4.194   3.015  0.3324 -1.2458  2.0442
   12U      O2'  382   4.411   4.370   2.972  0.0584  0.1359  0.4593
   12U     HO2'  383   4.342   4.410   3.025 -0.5115 -0.3356  0.0937
   12U      O3'  384   4.234   4.249   3.112 -0.2117  0.2916 -0.1492
   13A        P  385   4.147   4.372   3.152  0.3276  0.2610  0.1749
   13A      OP1  386   4.234   4.490   3.157  0.0639 -0.1163 -0.2689
   13A      OP2  387   4.077   4.338   3.278  0.3770  0.3974 -0.0545
   13A      O5'  388   4.039   4.390   3.036  0.3075 -0.4276  0.1411
   13A      C5'  389   4.079   4.451   2.906 -0.5026 -0.4557 -0.2796
   13A      H5'  390   4.187   4.464   2.898 -0.1876 -1.8306  1.3053
   13A     H5''  391   4.036   4.551   2.901 -1.5039 -0.7744  1.2923
   13A      C4'  392   4.040   4.366   2.794 -0.0444 -0.4613  0.4049
   13A      H4'  393   4.054   4.432   2.708 -0.1007 -0.7289  0.1852
   13A      O4'  394   4.127   4.255   2.773 -0.3315  0.7147 -0.8604
   13A      C1'  395   4.063   4.152   2.693  0.1062 -0.2736  0.0128
   13A      H1'  396   4.115   4.146   2.597  0.6168  1.8629  0.0917
   13A       N9  397   4.074   4.025   2.775 -0.1947 -0.0154 -0.1382
   13A       C8  398   4.166   4.008   2.879 -0.5110  0.7727 -0.2336
   13A       H8  399   4.221   4.089   2.925  1.2661  0.2442 -1.3258
   13A       N7  400   4.170   3.886   2.927  0.0256 -0.3200  0.6817
   13A       C5  401   4.082   3.816   2.840  0.1547  0.5409  0.1348
   13A       C6  402   4.036   3.685   2.828 -0.4617  0.2118  0.3629
   13A       N6  403   4.081   3.581   2.884  0.4728 -0.6317 -0.3036
   13A      H61  404   4.040   3.489   2.876 -2.2674  0.2442  1.9515
   13A      H62  405   4.155   3.598   2.951 -0.3365  1.0184  0.2024
   13A       N1  406   3.939   3.651   2.734  0.1496  0.2823 -0.6928
   13A       C2  407   3.897   3.748   2.656  0.5758 -0.3412  0.2370
   13A       H2  408   3.826   3.718   2.580 -0.0134 -0.8773  0.9818
   13A       N3  409   3.938   3.873   2.647 -0.0588 -0.2201 -0.5154
   13A       C4  410   4.027   3.900   2.745  0.2182 -0.1274 -0.3390
   13A      C3'  411   3.904   4.307   2.787 -0.5951  0.0056  0.4891
   13A      H3'  412   3.885   4.270   2.887  3.6333  1.5385  2.0829
   13A      C2'  413   3.913   4.198   2.675  0.0849  0.3020 -0.1959
   13A      H2'  414   3.841   4.116   2.685  0.5926 -0.1298 -0.0435
   13A      O2'  415   3.910   4.239   2.541 -0.3041  0.5739  0.1830
   13A     HO2'  416   3.823   4.275   2.523 -0.3329  0.3777 -0.0680
   13A      O3'  417   3.804   4.405   2.750 -0.2525 -0.2646  0.5498
   14A        P  418   3.689   4.451   2.847  0.0254 -0.1697  0.2516
   14A      OP1  419   3.622   4.574   2.796  0.3180  0.3526 -0.3258
   14A      OP2  420   3.723   4.436   2.988  0.1115  0.5121  0.1512
   14A      O5'  421   3.595   4.337   2.821 -0.1462 -0.4258  0.2498
   14A      C5'  422   3.533   4.318   2.697 -0.0684 -0.5141  0.6602
   14A      H5'  423   3.602   4.337   2.614 -0.1673 -2.7545 -0.0172
   14A     H5''  424   3.444   4.379   2.685  0.4118  0.1384  0.3328
   14A      C4'  425   3.494   4.172   2.681 -0.2206  0.1182 -0.0532
   14A      H4'  426   3.434   4.168   2.590 -1.2590 -1.7641  0.6564
   14A      O4'  427   3.615   4.094   2.672  0.2939 -0.0307 -0.1489
   14A      C1'  428   3.585   3.965   2.735  0.6131  0.1932 -0.5020
   14A      H1'  429   3.601   3.885   2.664 -1.7278  1.3718 -2.4851
   14A       N9  430   3.669   3.935   2.855  0.0683  0.2373 -0.6467
   14A       C8  431   3.748   4.014   2.932  0.4281 -0.3316 -0.5459
   14A       H8  432   3.757   4.120   2.919  2.7767 -0.5580 -1.1241
   14A       N7  433   3.812   3.952   3.027 -0.2884 -0.7152  0.3591
   14A       C5  434   3.771   3.820   3.004  0.5082 -0.3399  0.3635
   14A       C6  435   3.805   3.694   3.058 -0.3983  0.3728  0.1382
   14A       N6  436   3.902   3.683   3.148  0.5137  0.2797  0.2134
   14A      H61  437   3.905   3.601   3.206  0.3132 -1.3760 -2.0085
   14A      H62  438   3.943   3.770   3.178  1.0568  0.1770 -0.2165
   14A       N1  439   3.741   3.579   3.030 -0.2936  0.2204  0.3721
   14A       C2  440   3.650   3.597   2.932 -0.5058  0.1867 -0.8488
   14A       H2  441   3.603   3.506   2.899  0.4021 -0.7104  0.2589
   14A       N3  442   3.606   3.705   2.868  0.6673  0.2904  0.1283
   14A       C4  443   3.672   3.811   2.910  0.1770 -0.5924  0.1523
   14A      C3'  444   3.413   4.110   2.795 -0.0543  0.8123 -0.1272
   14A      H3'  445   3.459   4.134   2.891 -2.0393  0.1234  1.0571
   14A      C2'  446   3.440   3.960   2.769  0.1062 -0.4774 -0.6907
   14A      H2'  447   3.422   3.899   2.857  0.0905  1.6884  0.8766
   14A      O2'  448   3.360   3.913   2.658  0.5134  0.6404  0.1732
   14A     HO2'  449   3.324   3.830   2.689 -1.8016  1.9273  1.2551
   14A      O3'  450   3.278   4.147   2.800  0.1791 -0.1443 -0.2038
   15C        P  451   3.204   4.176   2.934 -0.2865 -0.2732 -0.2137
   15C      OP1  452   3.069   4.228   2.906 -0.0464  0.1105  0.4518
   15C      OP2  453   3.303   4.255   3.014  0.7259  0.1797  0.4071
   15C      O5'  454   3.192   4.040   3.012 -0.0620  0.1763 -0.0202
   15C      C5'  455   3.133   3.929   2.950 -0.3517 -0.7744 -0.3711
   15C      H5'  456   3.175   3.932   2.850 -0.1376  1.2810 -0.2751
   15C     H5''  457   3.024   3.941   2.945 -0.3192 -0.3996 -0.2082
   15C      C4'  458   3.162   3.805   3.021  0.3566  0.2331  1.2739
   15C      H4'  459   3.104   3.727   2.971 -2.1092  2.9556 -0.4020
   15C      O4'  460   3.303   3.782   3.006  0.5169  0.2045  0.0403
   15C      C1'  461   3.343   3.699   3.116  0.9373 -0.4457  0.0517
   15C      H1'  462   3.385   3.604   3.081 -1.2658 -1.8443  1.0138
   15C       N1  463   3.445   3.768   3.191 -0.6057 -0.0751  0.2029
   15C       C6  464   3.464   3.904   3.181 -0.0584  0.7937 -0.2930
   15C       H6  465   3.400   3.959   3.113  2.2943  1.3866 -2.1655
   15C       C5  466   3.574   3.961   3.240 -0.5381  0.2157 -0.0587
   15C       H5  467   3.594   4.065   3.221 -0.3379  0.4595  1.4392
   15C       C4  468   3.657   3.874   3.320 -0.2830 -0.6104 -0.3869
   15C       N4  469   3.761   3.918   3.386 -0.1843  0.3570  0.4075
   15C      H41  470   3.821   3.860   3.442  0.9775  1.5067  0.4028
   15C      H42  471   3.796   4.012   3.374  0.5675  0.3987  2.5271
   15C       N3  472   3.644   3.747   3.323 -0.1434  0.7910 -0.4723
   15C       C2  473   3.534   3.693   3.267  0.0887  0.4088  0.6661
   15C       O2  474   3.509   3.572   3.285  0.2451  0.0148 -0.1616
   15C      C3'  475   3.138   3.803   3.168 -0.8190  0.8341  0.1352
   15C      H3'  476   3.193   3.890   3.205  2.9686 -1.9705  1.8129
   15C      C2'  477   3.222   3.676   3.208 -0.1574 -0.1549  0.0826
   15C      H2'  478   3.247   3.680   3.314  0.3480 -0.3489 -0.0294
   15C      O2'  479   3.149   3.562   3.159  0.3301 -0.1062 -0.4502
   15C     HO2'  480   3.162   3.497   3.229 -0.1037 -0.5868 -0.8089
   15C      O3'  481   3.001   3.805   3.202  0.1674 -0.3476  0.0738
   16C        P  482   2.958   3.879   3.332  0.2630  0.2532  0.2111
   16C      OP1  483   2.811   3.909   3.331 -0.0700  0.0243  0.4844
   16C      OP2  484   3.051   3.989   3.361  0.4522 -0.1203 -0.2995
   16C      O5'  485   2.984   3.772   3.441 -0.1442 -0.1408  0.2805
   16C      C5'  486   2.946   3.633   3.432  0.4875  0.4311  0.2654
   16C      H5'  487   2.965   3.586   3.336  0.9191 -0.4272  0.7644
   16C     H5''  488   2.838   3.623   3.442  0.3862  0.6774 -0.5096
   16C      C4'  489   3.022   3.548   3.543  0.4877 -0.2372  0.2759
   16C      H4'  490   2.981   3.447   3.544  2.2428 -0.9857  0.5335
   16C      O4'  491   3.154   3.550   3.520  0.1511 -0.3235  0.4658
   16C      C1'  492   3.217   3.523   3.648 -0.1504  0.5962 -0.0949
   16C      H1'  493   3.277   3.432   3.651  0.4150  0.8831 -1.8392
   16C       N1  494   3.300   3.644   3.675 -0.6489 -0.2192  0.1559
   16C       C6  495   3.307   3.755   3.593 -0.0300 -0.2921  0.2577
   16C       H6  496   3.232   3.774   3.518  1.2826  0.3012 -0.9582
   16C       C5  497   3.409   3.847   3.605 -0.6909 -0.0272 -0.1817
   16C       H5  498   3.407   3.925   3.531  0.5870  0.2315  0.0264
   16C       C4  499   3.512   3.821   3.697  0.3230 -0.4513 -0.7568
   16C       N4  500   3.609   3.905   3.698  0.0452  0.1449  0.6103
   16C      H41  501   3.661   3.913   3.784 -1.4154 -0.5853  1.6013
   16C      H42  502   3.605   3.979   3.629 -0.9262  0.2094  0.7167
   16C       N3  503   3.509   3.712   3.775  0.7596 -0.9294  0.5195
   16C       C2  504   3.400   3.627   3.766 -0.4258  0.1660  0.1863
   16C       O2  505   3.399   3.534   3.844 -0.2611  0.2425  0.2534
   16C      C3'  506   3.002   3.596   3.688  0.3774 -0.4945  0.0997
   16C      H3'  507   3.028   3.701   3.698  0.7602 -0.6106  0.3504
   16C      C2'  508   3.116   3.520   3.758  0.1059  0.8083  0.1538
   16C      H2'  509   3.157   3.573   3.844 -0.3875 -1.2696  1.7484
   16C      O2'  510   3.081   3.390   3.789  0.2142  0.2887 -0.0797
   16C     HO2'  511   3.157   3.351   3.833 -0.0450  0.4213  0.5005
   16C      O3'  512   2.871   3.560   3.734 -0.2956 -0.1391 -0.2053
   17C        P  513   2.805   3.659   3.845 -0.0863 -0.3527 -0.0845
   17C      OP1  514   2.663   3.615   3.860  0.2892 -0.1123  0.1428
   17C      OP2  515   2.836   3.804   3.816 -0.3157 -0.0409  0.0191
   17C      O5'  516   2.894   3.616   3.975  0.1222 -0.1136 -0.2523
   17C      C5'  517   2.890   3.498   4.041  0.2413  0.3379 -0.6178
   17C      H5'  518   2.909   3.419   3.968 -0.0372  0.9568 -1.3754
   17C     H5''  519   2.784   3.493   4.067  0.0540 -0.0755 -1.4158
   17C      C4'  520   2.989   3.491   4.154 -0.3921 -0.1035  0.3301
   17C      H4'  521   2.957   3.403   4.209 -0.6037  0.0943  0.5274
   17C      O4'  522   3.125   3.490   4.120 -0.2394 -0.1460  0.0747
   17C      C1'  523   3.203   3.557   4.211 -0.4902 -0.2375 -0.5467
   17C      H1'  524   3.284   3.493   4.243 -1.4280 -1.1425  0.0604
   17C       N1  525   3.249   3.691   4.154 -0.0111  0.0596  0.1784
   17C       C6  526   3.197   3.741   4.039 -0.6157  0.8858 -0.4151
   17C       H6  527   3.110   3.688   4.003  0.8135 -2.2979  0.3620
   17C       C5  528   3.261   3.840   3.971 -0.0986  0.3703 -0.3322
   17C       H5  529   3.216   3.891   3.887 -1.5215  0.8968  0.6938
   17C       C4  530   3.375   3.890   4.026  0.2199 -0.2402 -0.5153
   17C       N4  531   3.437   3.988   3.967  0.1547 -0.1419 -0.7352
   17C      H41  532   3.515   4.035   4.011 -0.5628  0.1054  0.3195
   17C      H42  533   3.408   4.024   3.877 -0.1763 -0.3859 -0.7244
   17C       N3  534   3.422   3.853   4.145 -0.8008  0.1603 -0.2418
   17C       C2  535   3.357   3.751   4.211 -0.6431  0.1055 -0.0525
   17C       O2  536   3.390   3.735   4.329 -0.0791  0.0822  0.9375
   17C      C3'  537   2.975   3.608   4.255 -0.1875 -0.3957 -0.1773
   17C      H3'  538   2.962   3.701   4.199 -0.7464  0.4245  1.2557
   17C      C2'  539   3.108   3.586   4.327  0.5026 -1.0694 -0.2070
   17C      H2'  540   3.140   3.680   4.373 -0.7995  1.1519 -3.4519
   17C      O2'  541   3.094   3.469   4.405  0.0845 -0.7390 -0.2696
   17C     HO2'  542   3.163   3.481   4.471  0.5709  0.2038 -0.9299
   17C      O3'  543   2.868   3.604   4.343 -0.3068  0.8385 -0.6537
   18C        P  544   2.805   3.735   4.411 -0.2269 -0.2894  0.4460
   18C      OP1  545   2.674   3.696   4.472  0.0367 -0.7896 -0.6735
   18C      OP2  546   2.800   3.838   4.308 -0.1757 -0.1319 -0.1894
   18C      O5'  547   2.913   3.766   4.519 -0.7090 -0.3855  0.0953
   18C      C5'  548   2.937   3.689   4.634  0.1110  0.5754  0.2640
   18C      H5'  549   2.972   3.589   4.610  0.5492  1.3403 -2.6389
   18C     H5''  550   2.850   3.682   4.699 -0.8394  2.0837 -0.7982
   18C      C4'  551   3.044   3.750   4.726  0.0769 -0.6209  0.2010
   18C      H4'  552   3.053   3.687   4.815 -1.4528 -0.8486  0.2230
   18C      O4'  553   3.167   3.739   4.649 -0.0878 -0.3165  0.1978
   18C      C1'  554   3.247   3.858   4.656  0.7117  0.2901  0.3997
   18C      H1'  555   3.346   3.825   4.690  2.0573  3.4118 -0.1355
   18C       N1  556   3.251   3.957   4.544 -0.3062  1.0023  0.4001
   18C       C6  557   3.173   3.943   4.432 -0.7762 -0.0875 -0.1993
   18C       H6  558   3.099   3.865   4.432  0.0077 -0.8783 -1.5984
   18C       C5  559   3.197   4.018   4.320  0.6657  0.0959 -0.0884
   18C       H5  560   3.128   4.005   4.238 -0.7718  1.4083  0.8640
   18C       C4  561   3.305   4.106   4.321  0.0172 -0.3230 -0.0506
   18C       N4  562   3.321   4.182   4.218 -0.2622 -1.0851  0.0878
   18C      H41  563   3.401   4.240   4.201 -0.8599  0.2494  1.5717
   18C      H42  564   3.264   4.163   4.136  0.0058 -0.1646 -0.3159
   18C       N3  565   3.380   4.124   4.422  0.1458  0.0793  0.6628
   18C       C2  566   3.362   4.042   4.529  0.2596 -0.1006 -0.3677
   18C       O2  567   3.444   4.057   4.624  0.2497  0.4746  0.4915
   18C      C3'  568   3.031   3.898   4.758 -0.0834 -0.2615 -0.3340
   18C      H3'  569   3.002   3.956   4.670 -0.8599 -0.2357 -0.0757
   18C      C2'  570   3.183   3.924   4.783 -0.2941  0.3376 -0.4689
   18C      H2'  571   3.213   4.028   4.781 -1.3579  0.6548 -1.5686
   18C      O2'  572   3.241   3.863   4.894 -0.0110 -0.1841 -0.2411
   18C     HO2'  573   3.291   3.928   4.943 -1.2809  0.3057  0.4435
   18C      O3'  574   2.939   3.931   4.859  0.3219  0.3221  0.9267
   19A        P  575   2.852   4.062   4.856 -0.1027 -0.1401 -0.2847
   19A      OP1  576   2.758   4.048   4.969 -0.4368  0.4979  0.5285
   19A      OP2  577   2.800   4.075   4.718  0.3680 -0.0966 -0.1177
   19A      O5'  578   2.955   4.181   4.895 -0.0308 -0.0587  0.3692
   19A      C5'  579   3.018   4.175   5.023 -0.0927  0.3851 -0.4712
   19A      H5'  580   3.039   4.070   5.043  0.9932  0.4642 -1.1187
   19A     H5''  581   2.949   4.223   5.092  1.6487  1.3070  0.7200
   19A      C4'  582   3.149   4.253   5.020 -0.7887  0.7768  0.0954
   19A      H4'  583   3.205   4.234   5.111  0.3703  0.0270 -0.7373
   19A      O4'  584   3.230   4.221   4.912 -0.0555 -0.0079  0.1858
   19A      C1'  585   3.300   4.338   4.864 -0.5523  0.4357  0.6673
   19A      H1'  586   3.409   4.328   4.869 -0.4366 -0.7343 -2.2034
   19A       N9  587   3.259   4.364   4.727 -0.4084  0.6834 -0.2075
   19A       C8  588   3.170   4.289   4.661  1.3826 -0.3651  0.3466
   19A       H8  589   3.110   4.213   4.709 -0.1499 -0.4880 -1.6223
   19A       N7  590   3.156   4.319   4.533 -0.0742  0.3849 -0.3782
   19A       C5  591   3.251   4.414   4.515  0.2226  0.0772 -0.1522
   19A       C6  592   3.290   4.489   4.404  0.2529  0.4995 -0.0554
   19A       N6  593   3.250   4.472   4.279  0.1230  0.0551 -0.5725
   19A      H61  594   3.310   4.525   4.217 -0.7087  2.2889  0.4379
   19A      H62  595   3.193   4.393   4.253  1.6938 -1.0028 -0.9979
   19A       N1  596   3.383   4.581   4.419 -0.2036  0.5378  0.0550
   19A       C2  597   3.435   4.600   4.539 -0.2267 -0.2633 -0.0416
   19A       H2  598   3.509   4.679   4.544 -0.1439 -0.3707  0.4808
   19A       N3  599   3.408   4.545   4.655  0.6903  1.0221  0.2874
   19A       C4  600   3.308   4.445   4.634  0.5483 -0.6202  0.2464
   19A      C3'  601   3.127   4.403   5.007 -0.5274  0.9917  0.5857
   19A      H3'  602   3.055   4.411   4.925  0.6334  1.2737 -0.4257
   19A      C2'  603   3.261   4.450   4.957  0.1464 -0.1430 -0.3862
   19A      H2'  604   3.248   4.539   4.896 -0.3818 -0.3732 -0.6149
   19A      O2'  605   3.364   4.467   5.057 -0.3221 -0.0048 -0.0596
   19A     HO2'  606   3.434   4.492   4.996 -2.8963 -0.0222 -3.3332
   19A      O3'  607   3.072   4.455   5.123  0.1713 -0.1215 -0.5482
   20G        P  608   3.004   4.598   5.127 -0.1185 -0.2086  0.0045
   20G      OP1  609   2.968   4.630   5.265 -0.4337  0.2733 -0.2609
   20G      OP2  610   2.895   4.589   5.029 -0.2572 -0.1658 -0.0533
   20G      O5'  611   3.102   4.704   5.074 -0.1272  0.0978  0.3090
   20G      C5'  612   3.208   4.757   5.157 -0.1733 -0.3194 -0.3508
   20G      H5'  613   3.270   4.678   5.200 -2.2728 -1.9445 -0.1696
   20G     H5''  614   3.169   4.822   5.235  0.8273 -1.4259  1.1422
   20G      C4'  615   3.292   4.851   5.080 -0.7390 -0.7462 -0.7241
   20G      H4'  616   3.382   4.861   5.142 -2.2260  0.3504  1.3726
   20G      O4'  617   3.315   4.814   4.939 -0.7312  0.6581  0.0023
   20G      C1'  618   3.281   4.915   4.859  0.1237 -0.9086  0.2463
   20G      H1'  619   3.375   4.964   4.834  0.0964 -1.1504 -0.3505
   20G       N9  620   3.221   4.852   4.734  0.1219 -0.6376 -0.4920
   20G       C8  621   3.124   4.753   4.731 -1.2475  0.2661  0.2099
   20G       H8  622   3.089   4.696   4.816 -0.9281 -0.1211  0.0853
   20G       N7  623   3.099   4.720   4.606 -0.2193  0.2727 -0.6140
   20G       C5  624   3.176   4.810   4.530  1.2574 -0.6220 -0.3582
   20G       C6  625   3.167   4.833   4.388  0.0786 -0.1740  0.5555
   20G       O6  626   3.100   4.778   4.301 -0.6121 -0.1129 -0.0086
   20G       N1  627   3.241   4.944   4.355 -0.8026  0.6020  0.6525
   20G       H1  628   3.243   4.974   4.259  1.4980  1.4011  0.8972
   20G       C2  629   3.313   5.025   4.442  0.1089  0.8396  0.9294
   20G       N2  630   3.378   5.119   4.388 -0.1348  0.4067 -0.0556
   20G      H21  631   3.396   5.117   4.289  0.0425 -0.6006 -0.0090
   20G      H22  632   3.418   5.189   4.450 -0.1462  1.1164 -0.8285
   20G       N3  633   3.326   4.997   4.570  0.3661 -0.2058 -0.4698
   20G       C4  634   3.245   4.894   4.609 -0.6938 -0.4826 -0.1358
   20G      C3'  635   3.236   4.990   5.072  0.0807  0.1346  0.2169
   20G      H3'  636   3.163   5.005   5.151  0.3540  1.8295  0.1868
   20G      C2'  637   3.175   4.997   4.934 -0.1563 -1.0862 -0.1596
   20G      H2'  638   3.080   4.943   4.936 -1.3721  0.9212  2.2745
   20G      O2'  639   3.151   5.133   4.889 -0.1263 -0.6718  0.2405
   20G     HO2'  640   3.110   5.118   4.804 -1.0162 -0.9892  0.7112
   20G      O3'  641   3.352   5.079   5.089  0.4696  0.2234 -0.1514
   21U        P  642   3.394   5.136   5.231 -0.1846  0.1910  0.1314
   21U      OP1  643   3.376   5.034   5.329 -0.4908  0.3795  0.5705
   21U      OP2  644   3.328   5.266   5.246  0.4016  0.1271 -0.4657
   21U      O5'  645   3.533   5.178   5.202  0.3840 -0.5120  0.0758
   21U      C5'  646   3.653   5.114   5.249  0.0418  0.2322 -0.2333
   21U      H5'  647   3.656   5.011   5.215  0.6703  0.2978 -0.3873
   21U     H5''  648   3.658   5.109   5.358  0.7219 -2.8416 -0.3101
   21U      C4'  649   3.782   5.185   5.197  0.1407 -0.8285  0.4731
   21U      H4'  650   3.865   5.131   5.241  0.6509  0.5084  1.2177
   21U      O4'  651   3.791   5.157   5.062 -0.1154 -0.0228 -0.4015
   21U      C1'  652   3.818   5.277   4.991  0.1212  0.0389 -0.4403
   21U      H1'  653   3.916   5.265   4.945  0.9640  1.8017  0.7478
   21U       N1  654   3.719   5.305   4.884  0.1727 -0.4626  0.5565
   21U       C6  655   3.584   5.262   4.888  0.2761 -0.0107  0.5516
   21U       H6  656   3.551   5.192   4.964 -0.4415 -0.8691 -0.5235
   21U       C5  657   3.500   5.277   4.780  0.4558  0.0692 -0.3802
   21U       H5  658   3.399   5.238   4.791 -0.2780  1.3953 -2.0085
   21U       C4  659   3.539   5.350   4.664 -0.3828  0.6062 -0.6619
   21U       O4  660   3.472   5.357   4.564  0.5488  0.1111  0.1488
   21U       N3  661   3.664   5.407   4.678 -0.3169 -0.0611  0.2137
   21U       H3  662   3.690   5.475   4.608 -0.2373 -0.9737 -0.6698
   21U       C2  663   3.758   5.384   4.778  0.2338 -0.2978  0.0019
   21U       O2  664   3.866   5.432   4.766  0.7259  0.0084 -0.5700
   21U      C3'  665   3.786   5.344   5.223  0.2269  0.5313 -0.5792
   21U      H3'  666   3.680   5.369   5.229  0.0451 -0.2469 -0.5307
   21U      C2'  667   3.828   5.395   5.083 -0.0863  0.4103  0.8606
   21U      H2'  668   3.773   5.484   5.053  1.4006  0.3052 -2.6914
   21U      O2'  669   3.960   5.445   5.073  0.1299 -0.3581 -0.4429
   21U     HO2'  670   4.020   5.391   5.126  0.4609 -0.3360 -0.7960
   21U      O3'  671   3.864   5.382   5.345 -0.0371 -0.1554  0.2285
   22U        P  672   4.000   5.326   5.385 -0.3414 -0.2913 -0.0466
   22U      OP1  673   4.050   5.415   5.491 -0.0731  0.3335  0.1031
   22U      OP2  674   4.089   5.299   5.268  0.1338  0.5715 -0.1755
   22U      O5'  675   3.972   5.183   5.452 -0.0675 -0.6883  0.0632
   22U      C5'  676   4.056   5.069   5.428  0.4476 -0.4836  0.4770
   22U      H5'  677   4.154   5.098   5.465 -0.0997  2.7171 -0.2737
   22U     H5''  678   4.043   5.029   5.327  1.3522  3.0099 -1.1477
   22U      C4'  679   4.013   4.946   5.515 -0.0372 -0.3145 -0.2345
   22U      H4'  680   4.069   4.854   5.496 -0.9788 -1.0702  0.4987
   22U      O4'  681   4.020   4.978   5.651  1.0621  0.4065  0.4578
   22U      C1'  682   3.899   4.958   5.722 -0.1334  0.5158  0.0564
   22U      H1'  683   3.927   4.878   5.791  3.7811 -0.3165 -2.1616
   22U       N1  684   3.842   5.075   5.795 -0.2671 -0.4666  0.1407
   22U       C6  685   3.880   5.202   5.759  0.4879 -0.3005  1.2195
   22U       H6  686   3.948   5.218   5.677  1.9651  1.2184  2.6522
   22U       C5  687   3.837   5.306   5.832 -0.5124 -0.2956  0.2617
   22U       H5  688   3.871   5.405   5.807 -0.2862 -0.6258 -0.7702
   22U       C4  689   3.746   5.290   5.940  0.2487 -0.4033  0.0957
   22U       O4  690   3.689   5.381   6.000  0.6914 -0.4231 -0.3133
   22U       N3  691   3.715   5.161   5.974  0.3355  0.5578  0.0230
   22U       H3  692   3.657   5.144   6.056 -0.4971  2.7545 -0.0413
   22U       C2  693   3.762   5.050   5.908 -0.1938 -0.2495 -0.1326
   22U       O2  694   3.749   4.940   5.966 -0.2572  0.2243  0.6792
   22U      C3'  695   3.860   4.919   5.485  0.2611  0.0922 -0.1156
   22U      H3'  696   3.815   5.009   5.443  0.5794 -0.2190 -1.1609
   22U      C2'  697   3.802   4.891   5.623 -0.5635  0.3372 -0.0848
   22U      H2'  698   3.701   4.934   5.622 -0.6535  0.1505  0.3710
   22U      O2'  699   3.789   4.763   5.674  0.3134  0.3840 -0.3077
   22U     HO2'  700   3.845   4.708   5.618  0.4368 -0.4277  0.5805
   22U      O3'  701   3.843   4.817   5.382  0.5114  0.5974  0.5359
   23A        P  702   3.932   4.685   5.377 -0.0917  0.2904  0.2443
   23A      OP1  703   3.929   4.620   5.513  0.2832 -1.2039 -0.2696
   23A      OP2  704   4.055   4.718   5.307 -0.0948  0.5502 -0.0669
   23A      O5'  705   3.855   4.582   5.287  0.3514  0.1843 -0.5892
   23A      C5'  706   3.710   4.583   5.293 -0.7722  0.5408 -0.3672
   23A      H5'  707   3.663   4.649   5.365  0.3156  0.5948  0.3212
   23A     H5''  708   3.680   4.484   5.328  1.1785  0.4667  1.2934
   23A      C4'  709   3.653   4.610   5.151 -0.4375  0.2944  0.2684
   23A      H4'  710   3.545   4.595   5.150 -0.6388  1.5973  0.7628
   23A      O4'  711   3.678   4.743   5.109  0.3870  0.1495  0.2112
   23A      C1'  712   3.666   4.747   4.963 -0.1713  1.0777 -0.1387
   23A      H1'  713   3.577   4.794   4.921 -0.0836  3.0749  1.6808
   23A       N9  714   3.779   4.823   4.911  0.0772  0.2408  0.9166
   23A       C8  715   3.909   4.836   4.957 -0.2938  0.0961 -0.3890
   23A       H8  716   3.948   4.767   5.031 -1.1654  0.1439  0.1352
   23A       N7  717   3.985   4.922   4.888  0.4698  0.9445 -0.2589
   23A       C5  718   3.896   4.968   4.788 -0.3232  0.1811  0.0367
   23A       C6  719   3.894   5.073   4.694 -0.4900  0.6959 -0.8560
   23A       N6  720   4.004   5.140   4.670  0.6345  0.1806  0.1283
   23A      H61  721   4.007   5.226   4.617  1.5915 -0.6896 -1.3359
   23A      H62  722   4.082   5.120   4.731  0.6146 -0.8036 -0.1499
   23A       N1  723   3.785   5.113   4.626 -0.0425  0.0053 -0.6096
   23A       C2  724   3.674   5.050   4.664 -0.3731  0.2905 -0.4001
   23A       H2  725   3.582   5.080   4.616 -0.1573  0.8852 -0.4382
   23A       N3  726   3.655   4.958   4.752  0.2858  0.4240  0.1335
   23A       C4  727   3.769   4.913   4.811  0.3417 -1.6029  0.7537
   23A      C3'  728   3.716   4.527   5.043 -0.5464 -0.0283 -0.0209
   23A      H3'  729   3.824   4.528   5.055 -0.4720 -0.2647 -0.5972
   23A      C2'  730   3.673   4.604   4.919  0.3528 -0.1977  0.6171
   23A      H2'  731   3.747   4.592   4.840 -0.5615 -0.5757 -0.2012
   23A      O2'  732   3.543   4.557   4.888 -0.0093  0.0490 -0.0547
   23A     HO2'  733   3.524   4.559   4.794 -4.3809  0.3961  0.6429
   23A      O3'  734   3.660   4.392   5.061 -0.3000 -0.1960  0.7310
   24A        P  735   3.735   4.255   5.035  0.0461 -0.1951  0.1425
   24A      OP1  736   3.880   4.278   5.036 -0.6293  0.6970  0.0285
   24A      OP2  737   3.678   4.196   4.917  0.6467 -0.2898 -0.7534
   24A      O5'  738   3.704   4.165   5.166  0.6472 -0.4000 -0.8796
   24A      C5'  739   3.748   4.210   5.293  0.1831  0.3361  0.2376
   24A      H5'  740   3.727   4.315   5.311 -0.6064 -0.1948  2.8428
   24A     H5''  741   3.855   4.191   5.294  0.0923 -0.2830 -0.7215
   24A      C4'  742   3.680   4.119   5.401 -0.6985 -0.2653  0.7222
   24A      H4'  743   3.723   4.144   5.498  0.0868 -1.0343  0.5832
   24A      O4'  744   3.533   4.126   5.403  0.1695  0.4477 -0.4018
   24A      C1'  745   3.479   4.001   5.451  0.3426  0.3440  0.3400
   24A      H1'  746   3.424   4.015   5.544 -0.6150  1.5257 -0.3610
   24A       N9  747   3.386   3.955   5.342  0.1642  0.1780 -0.2425
   24A       C8  748   3.386   3.997   5.212 -0.9426  0.0085 -0.9614
   24A       H8  749   3.470   4.053   5.175 -0.9768  0.1205 -0.8688
   24A       N7  750   3.283   3.956   5.146 -0.3778  0.4704 -0.9766
   24A       C5  751   3.206   3.888   5.243  0.0979 -0.7350 -0.6611
   24A       C6  752   3.080   3.829   5.245 -0.4775 -0.0622 -0.1518
   24A       N6  753   3.010   3.803   5.132  0.3537 -0.3690 -0.4656
   24A      H61  754   2.928   3.744   5.135  0.3321 -0.3163  0.0150
   24A      H62  755   3.050   3.843   5.048  1.6415  0.2318  0.4066
   24A       N1  756   3.032   3.762   5.353  0.2945 -0.3966 -0.5697
   24A       C2  757   3.108   3.761   5.461 -0.7558 -0.2084 -0.0095
   24A       H2  758   3.073   3.711   5.550 -0.1584 -0.3444  0.1522
   24A       N3  759   3.230   3.817   5.470 -0.2773 -1.0083  0.0937
   24A       C4  760   3.270   3.884   5.356 -0.4542  0.3297 -0.5620
   24A      C3'  761   3.707   3.972   5.385  0.1084 -0.5998 -0.0362
   24A      H3'  762   3.683   3.949   5.281  2.4361  0.4602 -0.8767
   24A      C2'  763   3.600   3.901   5.468 -0.0088 -0.2099  0.3360
   24A      H2'  764   3.582   3.801   5.429  1.6547  0.0397 -1.2023
   24A      O2'  765   3.629   3.892   5.608  0.1302  0.2255 -0.0441
   24A     HO2'  766   3.547   3.862   5.650  0.3477  0.5815  0.6610
   24A      O3'  767   3.833   3.919   5.418 -0.1816  0.1636  0.2449
   25C        P  768   3.896   3.803   5.323 -0.3450  0.1637  0.4630
   25C      OP1  769   4.035   3.773   5.355 -0.6762 -0.2379  0.0195
   25C      OP2  770   3.865   3.847   5.186  0.1240 -0.4473  0.1709
   25C      O5'  771   3.818   3.668   5.363  0.4455  0.5865  0.0498
   25C      C5'  772   3.810   3.614   5.494  0.6983 -0.3165 -0.6139
   25C      H5'  773   3.799   3.697   5.565 -0.9455 -0.7673 -0.3031
   25C     H5''  774   3.903   3.574   5.535 -0.3886 -0.5912  1.7201
   25C      C4'  775   3.694   3.513   5.522 -0.2510 -0.3258 -0.1105
   25C      H4'  776   3.709   3.485   5.626 -2.4584  0.1488  0.3831
   25C      O4'  777   3.561   3.567   5.514 -0.1934 -0.8289  0.4732
   25C      C1'  778   3.475   3.472   5.460  0.0552 -0.1777 -0.9294
   25C      H1'  779   3.391   3.460   5.527 -0.1360 -0.4801 -1.2233
   25C       N1  780   3.418   3.505   5.324 -0.2541  0.1846 -0.2348
   25C       C6  781   3.465   3.606   5.248  0.8201  0.3285  0.3902
   25C       H6  782   3.555   3.661   5.271  0.6696  1.3892 -1.3710
   25C       C5  783   3.403   3.636   5.130  0.3443  0.1997 -0.7754
   25C       H5  784   3.441   3.718   5.071 -1.7913  0.4376 -1.9411
   25C       C4  785   3.294   3.564   5.086  0.9052  0.1833 -0.8493
   25C       N4  786   3.224   3.588   4.976  0.2867  0.9060  0.5928
   25C      H41  787   3.138   3.538   4.959  0.6293  0.7338 -0.7558
   25C      H42  788   3.233   3.679   4.934  1.5170 -0.2338 -1.8565
   25C       N3  789   3.244   3.465   5.160 -0.0848  0.0225  0.1237
   25C       C2  790   3.304   3.439   5.277 -0.3682  1.1414 -0.6136
   25C       O2  791   3.263   3.345   5.343 -0.3529 -0.5716  0.2094
   25C      C3'  792   3.699   3.392   5.433  0.4673  0.2466 -0.3693
   25C      H3'  793   3.713   3.432   5.332 -0.5273  0.8046 -0.2946
   25C      C2'  794   3.552   3.342   5.449 -0.7068 -0.5625  0.2223
   25C      H2'  795   3.537   3.278   5.363  1.4549 -3.0519  1.5428
   25C      O2'  796   3.535   3.256   5.564  0.1380  0.1860  0.1491
   25C     HO2'  797   3.454   3.207   5.545  0.9743 -0.5344 -1.8366
   25C      O3'  798   3.801   3.297   5.468 -0.5989  0.7432 -0.7061
   26A        P  799   3.862   3.201   5.363  0.0941  0.1111 -0.0889
   26A      OP1  800   3.954   3.115   5.434 -0.0800  0.3706 -0.5894
   26A      OP2  801   3.915   3.282   5.253 -0.1996  0.6432  0.3819
   26A      O5'  802   3.737   3.109   5.319  0.2408 -0.2491 -0.1586
   26A      C5'  803   3.707   3.099   5.181 -0.1623 -0.0280  0.2980
   26A      H5'  804   3.763   3.015   5.141 -1.6852  0.4128 -3.1637
   26A     H5''  805   3.740   3.185   5.123 -0.7837 -0.2620 -0.4191
   26A      C4'  806   3.562   3.087   5.168  0.2423  0.7783  0.0848
   26A      H4'  807   3.511   3.042   5.253  2.9397  1.1758  2.0339
   26A      O4'  808   3.493   3.213   5.144  0.0303  0.1521 -0.5428
   26A      C1'  809   3.412   3.202   5.027  0.1263 -0.0979 -0.4677
   26A      H1'  810   3.314   3.247   5.046 -0.0528 -0.8012  0.3166
   26A       N9  811   3.467   3.284   4.918 -0.4114 -0.0374  0.3328
   26A       C8  812   3.580   3.361   4.921  0.0049 -0.4754  0.1695
   26A       H8  813   3.655   3.353   4.999  0.1114  1.4710  0.3282
   26A       N7  814   3.592   3.449   4.827 -0.3018  0.0087  0.0114
   26A       C5  815   3.472   3.426   4.754  0.7664 -0.0084 -0.3362
   26A       C6  816   3.412   3.487   4.641 -0.0681  0.2456 -0.2219
   26A       N6  817   3.471   3.571   4.567  0.1972 -0.3694 -0.6895
   26A      H61  818   3.435   3.598   4.476  1.4201  0.8607 -0.8486
   26A      H62  819   3.555   3.614   4.604 -0.4517 -0.1309  0.5399
   26A       N1  820   3.296   3.446   4.594  0.6769 -0.2439  0.0124
   26A       C2  821   3.223   3.359   4.664 -0.7521  0.0765  0.3611
   26A       H2  822   3.131   3.330   4.617  0.6166 -1.2755 -1.6695
   26A       N3  823   3.264   3.293   4.772 -0.4165 -0.1790  0.2913
   26A       C4  824   3.392   3.330   4.810 -0.3361 -0.6292 -0.5501
   26A      C3'  825   3.537   3.004   5.042 -0.1669  0.2053  0.5023
   26A      H3'  826   3.612   3.039   4.971 -1.5457  1.3148 -0.4533
   26A      C2'  827   3.403   3.053   4.997 -0.8526 -0.0357  0.2309
   26A      H2'  828   3.390   3.051   4.889 -1.9326 -0.5130  0.3556
   26A      O2'  829   3.292   2.994   5.065  0.1335  0.3733 -0.5346
   26A     HO2'  830   3.209   3.039   5.047 -0.1670  0.6468  1.3670
   26A      O3'  831   3.532   2.862   5.063 -1.0783 -0.0362  0.0719
   27A        P  832   3.600   2.766   4.957 -0.0584  0.3876  0.3442
   27A      OP1  833   3.598   2.623   4.994 -0.7061 -0.0570  0.7207
   27A      OP2  834   3.726   2.833   4.917 -0.0229 -0.4849 -0.1580
   27A      O5'  835   3.504   2.789   4.843 -0.2167 -0.1572  0.0417
   27A      C5'  836   3.370   2.753   4.852 -0.1030 -0.6608 -0.2119
   27A      H5'  837   3.317   2.801   4.935 -1.3107 -0.3029 -1.1517
   27A     H5''  838   3.350   2.648   4.875  1.9531 -0.9609  0.3903
   27A      C4'  839   3.286   2.792   4.731 -0.7601  0.9291 -0.7001
   27A      H4'  840   3.187   2.747   4.733 -1.3231  2.1048  1.1343
   27A      O4'  841   3.282   2.930   4.706 -0.4320  0.0052  0.2701
   27A      C1'  842   3.297   2.956   4.567  0.4949  0.4536  0.0282
   27A      H1'  843   3.203   2.999   4.534 -1.6071 -1.4432  3.0777
   27A       N9  844   3.406   3.059   4.560 -0.8016  0.0512  0.2052
   27A       C8  845   3.518   3.089   4.641  0.5634 -0.3243 -0.3851
   27A       H8  846   3.542   3.035   4.732  1.4193 -0.8056 -0.8877
   27A       N7  847   3.603   3.175   4.605 -0.1479 -0.4826  0.7535
   27A       C5  848   3.545   3.211   4.483  0.2868 -0.1084  0.0142
   27A       C6  849   3.574   3.319   4.392 -0.0642 -0.2183 -0.3832
   27A       N6  850   3.675   3.401   4.391  0.6314  0.4361  0.0994
   27A      H61  851   3.685   3.471   4.319 -0.6411 -0.3697 -0.9050
   27A      H62  852   3.742   3.394   4.467 -0.1382  0.1432  0.7734
   27A       N1  853   3.496   3.341   4.286  0.1573 -0.2543 -0.1927
   27A       C2  854   3.384   3.263   4.271  0.1980  0.3002 -0.3151
   27A       H2  855   3.312   3.290   4.195 -2.8655 -2.6927  1.2454
   27A       N3  856   3.335   3.172   4.360  0.2714 -0.0981 -0.1626
   27A       C4  857   3.426   3.144   4.458  0.7273 -0.0719  0.2089
   27A      C3'  858   3.348   2.730   4.605  0.2375  1.1192  0.0246
   27A      H3'  859   3.457   2.725   4.612  0.3055 -0.5830 -1.4034
   27A      C2'  860   3.320   2.833   4.494 -0.3416  0.4180 -0.3814
   27A      H2'  861   3.409   2.834   4.431  0.5958  1.3889  0.8948
   27A      O2'  862   3.204   2.802   4.419  0.0232 -0.3453 -0.1159
   27A     HO2'  863   3.212   2.721   4.368 -0.6492  0.1634 -1.0687
   27A      O3'  864   3.305   2.595   4.583 -0.3305  1.1625 -0.7440
   28A        P  865   3.385   2.493   4.486  0.3588  0.2199 -0.2072
   28A      OP1  866   3.336   2.358   4.514 -0.1713 -0.6566 -0.3036
   28A      OP2  867   3.527   2.525   4.475 -0.0241  0.1571 -0.0908
   28A      O5'  868   3.324   2.524   4.347 -0.2227 -0.4115 -0.2230
   28A      C5'  869   3.211   2.461   4.298 -0.1486  0.2903 -0.6589
   28A      H5'  870   3.135   2.472   4.375 -0.8433 -0.1963 -1.2586
   28A     H5''  871   3.232   2.357   4.272  0.3732 -0.0995  1.1686
   28A      C4'  872   3.149   2.527   4.178  0.1955 -0.1574  0.0179
   28A      H4'  873   3.047   2.493   4.164 -0.2578  1.4831 -1.0488
   28A      O4'  874   3.150   2.671   4.193  0.0585 -0.1613 -0.1355
   28A      C1'  875   3.153   2.729   4.069  0.4581 -0.8397 -0.9180
   28A      H1'  876   3.059   2.782   4.055  0.3538 -1.0329 -0.9515
   28A       N9  877   3.256   2.832   4.054 -0.0655  0.4934 -0.4219
   28A       C8  878   3.377   2.835   4.118 -0.3241  0.5636 -0.1133
   28A       H8  879   3.405   2.748   4.175 -0.2720  0.2272 -0.6432
   28A       N7  880   3.443   2.945   4.098 -1.1288 -0.3359  1.0796
   28A       C5  881   3.365   3.020   4.012  0.0508  0.4008  0.2574
   28A       C6  882   3.362   3.152   3.956 -0.6740 -0.5321  0.0246
   28A       N6  883   3.459   3.239   3.962 -0.5179 -0.2604  0.1202
   28A      H61  884   3.457   3.327   3.912  1.2596 -0.7268 -0.8585
   28A      H62  885   3.549   3.208   3.995 -0.5515  0.8575  1.3310
   28A       N1  886   3.259   3.197   3.887  0.0886 -0.8703  0.0693
   28A       C2  887   3.152   3.121   3.876 -0.0105  0.1232 -0.7470
   28A       H2  888   3.066   3.151   3.819  0.4617  0.1798 -1.4399
   28A       N3  889   3.139   3.000   3.926  0.2618  0.1403  0.4511
   28A       C4  890   3.243   2.948   3.985 -0.2208 -0.2639 -0.0398
   28A      C3'  891   3.227   2.504   4.053  0.2712 -0.8737 -0.1134
   28A      H3'  892   3.334   2.521   4.050 -0.1739  2.2696 -2.5960
   28A      C2'  893   3.169   2.617   3.967  0.9284 -0.3890 -0.1302
   28A      H2'  894   3.242   2.652   3.895  1.2675  0.8943  0.8035
   28A      O2'  895   3.041   2.590   3.905 -0.3046  0.6919 -0.1700
   28A     HO2'  896   3.039   2.616   3.813 -2.1615 -0.8655 -0.6323
   28A      O3'  897   3.203   2.376   3.986  0.0101  0.2383 -0.9264
   29A        P  898   3.284   2.339   3.854  0.0240 -0.0722  0.5564
   29A      OP1  899   3.224   2.213   3.809 -0.0250 -0.4491  0.2231
   29A      OP2  900   3.426   2.354   3.890 -0.2303 -0.4254  0.2648
   29A      O5'  901   3.257   2.444   3.740 -0.3291 -0.9419  0.2798
   29A      C5'  902   3.154   2.418   3.650  0.0340  0.1640  0.6174
   29A      H5'  903   3.063   2.393   3.704 -0.3732  2.2819  1.0222
   29A     H5''  904   3.185   2.336   3.586 -2.3458  0.8331 -1.5774
   29A      C4'  905   3.111   2.548   3.569 -0.5553 -0.5176  0.3158
   29A      H4'  906   3.017   2.530   3.518 -1.1264  0.4348  1.0011
   29A      O4'  907   3.101   2.666   3.654  0.3456 -0.1315  0.2366
   29A      C1'  908   3.144   2.779   3.579 -0.8241  0.4414 -0.3989
   29A      H1'  909   3.060   2.847   3.587 -0.6595  0.5237  0.8765
   29A       N9  910   3.269   2.840   3.627 -0.0058 -0.6381  0.3563
   29A       C8  911   3.374   2.784   3.692 -0.5169  0.1171  0.3688
   29A       H8  912   3.378   2.682   3.729 -0.3560  0.0489  0.1646
   29A       N7  913   3.480   2.859   3.715  0.2748  0.7000  0.3247
   29A       C5  914   3.435   2.986   3.665  0.4300  1.2817  0.3689
   29A       C6  915   3.488   3.113   3.646 -0.1282  0.6547 -0.4367
   29A       N6  916   3.611   3.154   3.682 -0.0898  0.3564  0.7036
   29A      H61  917   3.637   3.251   3.689  0.6769  0.3959 -1.8717
   29A      H62  918   3.666   3.087   3.735 -2.4743 -1.6866  0.7826
   29A       N1  919   3.415   3.211   3.595 -0.1554 -0.0453  0.0297
   29A       C2  920   3.294   3.185   3.550  0.4000  0.0641 -0.3379
   29A       H2  921   3.237   3.262   3.500  0.4630  0.8208  0.7084
   29A       N3  922   3.231   3.066   3.558 -0.0754  0.1417  0.1352
   29A       C4  923   3.303   2.970   3.619 -0.3338  0.7077 -0.3829
   29A      C3'  924   3.212   2.590   3.461 -0.5194  0.1423  0.1896
   29A      H3'  925   3.314   2.599   3.500 -0.7025 -1.5558  1.1532
   29A      C2'  926   3.159   2.728   3.434  0.3213  0.1248 -0.2682
   29A      H2'  927   3.240   2.786   3.390 -0.8344  0.1419 -2.5404
   29A      O2'  928   3.037   2.732   3.361 -0.0289 -0.3198  0.4203
   29A     HO2'  929   3.032   2.799   3.292 -1.2909 -1.0283 -0.2186
   29A      O3'  930   3.208   2.496   3.352 -0.4424  0.4020  0.1821
   30C        P  931   3.327   2.485   3.247 -0.0228 -0.0370 -0.2323
   30C      OP1  932   3.280   2.376   3.162  0.3792 -0.5559  0.5448
   30C      OP2  933   3.452   2.478   3.326  0.7476  0.1088  0.0403
   30C      O5'  934   3.333   2.618   3.165  0.2234 -0.0263 -0.2549
   30C      C5'  935   3.230   2.660   3.078  0.3843  0.2087 -0.7091
   30C      H5'  936   3.132   2.632   3.117 -0.2307 -2.3611 -3.7070
   30C     H5''  937   3.240   2.611   2.981  2.4266 -0.1360 -0.3706
   30C      C4'  938   3.246   2.815   3.065  0.0289  0.1367 -0.0718
   30C      H4'  939   3.162   2.856   3.009 -1.9628 -1.6306  1.4670
   30C      O4'  940   3.265   2.876   3.186  0.6614 -0.6693 -0.7716
   30C      C1'  941   3.366   2.980   3.178  0.2602  0.4091  0.6556
   30C      H1'  942   3.325   3.075   3.213  0.4846  1.1996 -1.1413
   30C       N1  943   3.488   2.955   3.269  0.0602 -0.4050  0.7778
   30C       C6  944   3.519   2.838   3.334  0.8970  0.0102 -0.1427
   30C       H6  945   3.444   2.760   3.326 -0.4199  1.2102  0.0560
   30C       C5  946   3.626   2.819   3.410 -0.6175  0.0983 -0.2674
   30C       H5  947   3.649   2.727   3.462  1.9250  1.2081  0.6862
   30C       C4  948   3.707   2.930   3.427 -0.8029 -0.2841  0.0784
   30C       N4  949   3.816   2.922   3.496  0.6296  0.0204  0.3810
   30C      H41  950   3.858   3.011   3.518 -0.7400  1.2155 -1.5305
   30C      H42  951   3.838   2.834   3.541  3.6706  0.1790 -0.5452
   30C       N3  952   3.684   3.043   3.366 -0.5782  0.7367  0.0467
   30C       C2  953   3.577   3.060   3.288 -0.5938 -0.9669  0.2477
   30C       O2  954   3.545   3.169   3.251 -0.2745 -0.1431  0.1095
   30C      C3'  955   3.375   2.848   2.985  1.1805  0.4793 -1.1698
   30C      H3'  956   3.450   2.778   3.019 -1.8900 -2.4749  0.0507
   30C      C2'  957   3.402   2.987   3.033  0.6674 -0.3298  1.1185
   30C      H2'  958   3.504   3.017   3.009  1.1253  0.3598  3.6354
   30C      O2'  959   3.311   3.078   2.976 -0.3953 -0.1906  0.4993
   30C     HO2'  960   3.344   3.168   2.980  0.5626  0.0568 -5.0352
   30C      O3'  961   3.360   2.839   2.845  0.1024  0.6254 -0.8256
   31A        P  962   3.486   2.834   2.751  0.0569 -0.3346 -0.1810
   31A      OP1  963   3.429   2.820   2.615 -0.2200 -0.6236 -0.5941
   31A      OP2  964   3.582   2.735   2.788 -0.3715  0.1374  0.5707
   31A      O5'  965   3.547   2.973   2.762 -0.4118 -0.2099 -0.5139
   31A      C5'  966   3.490   3.086   2.708 -0.0659 -0.4119 -0.4194
   31A      H5'  967   3.399   3.118   2.759  0.4329  0.4081 -0.0202
   31A     H5''  968   3.462   3.078   2.603  0.3245 -1.0011 -0.4799
   31A      C4'  969   3.592   3.199   2.719  0.3813 -0.2101 -0.9313
   31A      H4'  970   3.543   3.282   2.668 -2.6533 -0.3182  1.5355
   31A      O4'  971   3.627   3.256   2.848 -0.0527 -0.2185 -0.0338
   31A      C1'  972   3.770   3.281   2.849  0.6420  0.4002  0.1566
   31A      H1'  973   3.799   3.379   2.886  2.2771  0.0177 -0.0643
   31A       N9  974   3.833   3.179   2.937  0.0773 -0.2576  0.0171
   31A       C8  975   3.790   3.057   2.979  1.0251 -0.3766 -0.2362
   31A       H8  976   3.698   3.011   2.948 -0.5958  1.8518  1.0298
   31A       N7  977   3.848   3.002   3.082 -0.5741 -0.0292  0.7577
   31A       C5  978   3.948   3.092   3.106 -0.0597 -0.4275  0.4235
   31A       C6  979   4.054   3.096   3.196 -0.1629 -0.2891  0.3464
   31A       N6  980   4.077   3.016   3.303  0.1865  0.4121  0.6010
   31A      H61  981   4.155   3.029   3.366  0.4210 -1.0874  0.6595
   31A      H62  982   4.009   2.943   3.317  0.0946  0.5313  0.7759
   31A       N1  983   4.142   3.197   3.196 -0.4193 -0.1565 -0.3417
   31A       C2  984   4.125   3.291   3.104 -0.2600 -0.4480 -0.0196
   31A       H2  985   4.201   3.367   3.102 -3.1574  2.6599 -1.4255
   31A       N3  986   4.036   3.298   3.006 -0.1874  0.0874 -0.0482
   31A       C4  987   3.944   3.198   3.015 -0.6200  0.4354 -0.2963
   31A      C3'  988   3.728   3.171   2.647  0.7479 -0.7183 -0.5099
   31A      H3'  989   3.755   3.067   2.669  0.0827 -0.7805  0.0622
   31A      C2'  990   3.819   3.281   2.711 -0.4912 -0.6131 -0.1865
   31A      H2'  991   3.923   3.253   2.699 -0.8073 -1.4454 -1.1912
   31A      O2'  992   3.785   3.417   2.661 -0.1896  0.4223  0.3645
   31A     HO2'  993   3.857   3.477   2.641 -1.5496  1.5742 -1.5040
   31A      O3'  994   3.701   3.181   2.508  0.1561 -0.6606 -0.0707
   32A        P  995   3.806   3.134   2.398  0.3074  0.0629 -0.1478
   32A      OP1  996   3.729   3.059   2.299  0.4026  0.5070  0.6455
   32A      OP2  997   3.918   3.067   2.465  0.1870 -0.3457 -0.2735
   32A      O5'  998   3.865   3.260   2.320 -0.0558 -0.4699  0.1478
   32A      C5'  999   3.782   3.364   2.261 -0.1273  0.7830 -0.0745
   32A      H5' 1000   3.692   3.378   2.320 -0.6914  1.0692 -0.9819
   32A     H5'' 1001   3.764   3.322   2.162  0.0619 -2.2016  1.0335
   32A      C4' 1002   3.861   3.496   2.264  0.1564  0.0020  0.0758
   32A      H4' 1003   3.795   3.575   2.228 -1.3740 -0.2652  2.0653
   32A      O4' 1004   3.905   3.543   2.393  0.0783  0.2639 -0.1722
   32A      C1' 1005   4.040   3.572   2.404 -0.2796  0.1404  0.0226
   32A      H1' 1006   4.051   3.673   2.444 -0.1019 -0.4755  1.5946
   32A       N9 1007   4.119   3.474   2.491  0.2138 -0.3711  0.6828
   32A       C8 1008   4.111   3.336   2.500 -0.0300  0.3932 -0.0046
   32A       H8 1009   4.051   3.277   2.433  0.8669  1.6597 -2.0102
   32A       N7 1010   4.183   3.285   2.596  0.8050  0.4591 -0.4260
   32A       C5 1011   4.255   3.399   2.644  0.1799  0.3635 -0.7459
   32A       C6 1012   4.353   3.421   2.746  0.1087  0.2033  0.0742
   32A       N6 1013   4.406   3.324   2.829 -0.2367 -0.0401  0.2431
   32A      H61 1014   4.479   3.340   2.897  1.2715  0.3034 -1.3869
   32A      H62 1015   4.362   3.234   2.835 -0.5307  0.1273  0.6738
   32A       N1 1016   4.413   3.539   2.756 -0.8149  0.0671 -0.5762
   32A       C2 1017   4.372   3.640   2.675 -0.6543  0.2622 -0.6970
   32A       H2 1018   4.427   3.733   2.680 -0.2031 -0.0215 -0.4176
   32A       N3 1019   4.270   3.634   2.597  0.5003  0.0315 -0.6836
   32A       C4 1020   4.213   3.513   2.584  0.9367 -0.0146 -0.6963
   32A      C3' 1021   3.992   3.482   2.181 -0.3385  0.0222 -0.1527
   32A      H3' 1022   4.017   3.378   2.204 -2.5027 -1.1113 -2.4200
   32A      C2' 1023   4.081   3.582   2.253 -0.0450  0.1888 -0.5975
   32A      H2' 1024   4.187   3.558   2.246  0.2043  0.6970  1.0516
   32A      O2' 1025   4.055   3.720   2.211 -0.2263  0.1147  0.3834
   32A     HO2' 1026   4.134   3.749   2.166 -0.7640  0.1494 -0.5549
   32A      O3' 1027   3.989   3.493   2.036 -0.1524 -0.2539 -0.0367
   33G3       P 1028   4.061   3.383   1.945  0.2909 -0.1752  0.0212
   33G3     OP1 1029   4.058   3.439   1.810 -0.5658  0.0869  0.6957
   33G3     OP2 1030   4.001   3.248   1.966 -0.2671 -0.1447 -0.0842
   33G3     O5' 1031   4.219   3.381   1.986  0.3652  0.1318 -0.0801
   33G3     C5' 1032   4.263   3.312   2.100  0.1074 -0.2051 -0.1458
   33G3     H5' 1033   4.274   3.207   2.073  2.0537  0.2567 -1.3572
   33G3    H5'' 1034   4.187   3.323   2.177 -2.1641 -1.3351 -2.0947
   33G3     C4' 1035   4.400   3.356   2.157 -0.4925  0.5206 -0.1611
   33G3     H4' 1036   4.420   3.451   2.107 -0.8826  0.6363 -0.0988
   33G3     O4' 1037   4.400   3.369   2.300 -0.3403  0.4105 -0.0386
   33G3     C1' 1038   4.495   3.272   2.364  0.3270 -0.7641  0.6411
   33G3     H1' 1039   4.544   3.317   2.450  0.5811  0.4715 -0.1311
   33G3      N9 1040   4.422   3.153   2.406 -0.0374 -0.3447 -0.8243
   33G3      C8 1041   4.305   3.113   2.356  0.1590  0.0045  0.3350
   33G3      H8 1042   4.248   3.163   2.278 -1.9682 -1.3741  0.9087
   33G3      N7 1043   4.261   3.003   2.416 -0.1740 -0.4570  0.5255
   33G3      C5 1044   4.354   2.980   2.517 -0.1839 -0.4448  0.2555
   33G3      C6 1045   4.373   2.876   2.616  0.5091  0.4564 -0.2420
   33G3      O6 1046   4.300   2.785   2.639  0.0233  0.1306  0.2952
   33G3      N1 1047   4.487   2.896   2.701  0.5325  0.0789 -0.6697
   33G3      H1 1048   4.504   2.827   2.773  2.7639 -1.0802 -2.1869
   33G3      C2 1049   4.572   2.994   2.690 -0.4600 -0.7704  0.5997
   33G3      N2 1050   4.671   2.998   2.774  0.0518  0.5994  0.7593
   33G3     H21 1051   4.675   2.932   2.851 -2.0034  0.8743  1.1383
   33G3     H22 1052   4.737   3.073   2.761 -0.5906  1.0241 -0.1435
   33G3      N3 1053   4.559   3.093   2.604  0.4745  0.0847  0.3560
   33G3      C4 1054   4.448   3.082   2.518 -0.4166 -0.4627 -0.2874
   33G3     C3' 1055   4.518   3.264   2.119 -0.0969 -0.3571 -0.1298
   33G3     H3' 1056   4.486   3.164   2.088 -1.3682 -0.2911  0.8681
   33G3     C2' 1057   4.597   3.245   2.255  0.2213 -0.7423 -0.1595
   33G3     H2' 1058   4.646   3.151   2.277 -0.1744 -0.3932  2.6104
   33G3     O2' 1059   4.686   3.353   2.282  0.3676 -0.3096  0.1246
   33G3    HO2' 1060   4.719   3.378   2.195  0.5523 -0.9454  0.0031
   33G3     O3' 1061   4.604   3.319   2.018 -0.1322  0.0291 -0.1060
   33G3    HO3' 1062   4.665   3.247   2.005 -0.1689 -0.1066  0.4409
   34pq0     N1 1063   3.725   3.606   3.571 -0.0176  0.0335  0.6192
   34pq0     C2 1064   3.660   3.501   3.610 -0.5179 -0.5534  0.5373
   34pq0     N3 1065   3.694   3.423   3.711 -0.1483  0.3037  0.5178
   34pq0     C4 1066   3.803   3.463   3.782 -0.6332  0.2847  1.1175
   34pq0     C5 1067   3.871   3.574   3.746  0.1439  0.3632  0.9084
   34pq0     C6 1068   3.827   3.658   3.638 -0.0799  0.3939 -0.1384
   34pq0     O6 1069   3.885   3.763   3.606 -0.7166  0.4502 -0.0779
   34pq0     C7 1070   3.974   3.602   3.843  0.1190  0.0259 -0.3389
   34pq0    C10 1071   4.071   3.702   3.832 -0.1225 -0.0546  0.1977
   34pq0    N11 1072   4.157   3.781   3.818  0.0992  0.2791 -0.1957
   34pq0     C8 1073   3.965   3.497   3.935  0.5514 -0.0462 -0.0516
   34pq0     N9 1074   3.860   3.418   3.891 -0.2113  0.0888 -0.1684
   34pq0     N2 1075   3.554   3.464   3.537 -0.4521  0.2633  0.2431
   34pq0     H1 1076   3.687   3.658   3.493 -0.1706  2.0901  2.0087
   34pq0     H2 1077   4.031   3.485   4.020  0.4994  0.0756  0.0070
   34pq0     H3 1078   3.834   3.328   3.930 -1.3125  0.9499  1.1920
   34pq0     H4 1079   3.569   3.492   3.441  0.7583 -1.4871 -0.1275
   34pq0     H5 1080   3.524   3.370   3.557  1.7314 -0.5433 -0.0329
   7.75279   7.69708   7.86611
