Generic title
51006
    1C5    HO5'    1   3.328   5.192   3.393 -0.8904  3.8153  0.8091
    1C5     O5'    2   3.367   5.184   3.480 -0.1034 -0.3645  0.2913
    1C5     C5'    3   3.429   5.311   3.511  0.1095  0.2383 -1.0261
    1C5     H5'    4   3.372   5.398   3.478  0.2569  1.7556  2.2843
    1C5    H5''    5   3.525   5.310   3.458  0.0774  1.7996 -1.1602
    1C5     C4'    6   3.459   5.337   3.666  0.1082  0.5170  0.3077
    1C5     H4'    7   3.501   5.437   3.674 -0.0152  0.4844  1.4067
    1C5     O4'    8   3.339   5.321   3.739 -0.0930  0.0617 -0.4296
    1C5     C1'    9   3.367   5.280   3.870 -1.1431 -0.2701  0.6996
    1C5     H1'   10   3.338   5.350   3.948  0.9804  1.5326 -0.0133
    1C5      N1   11   3.308   5.144   3.893  0.7607 -0.6414  0.2317
    1C5      C6   12   3.260   5.058   3.792  0.2022  0.5475  0.0875
    1C5      H6   13   3.280   5.093   3.692  0.9210  2.6707  0.9208
    1C5      C5   14   3.196   4.944   3.828  0.1801  0.2801  0.0330
    1C5      H5   15   3.158   4.882   3.749  0.0745 -1.5628  1.4709
    1C5      C4   16   3.190   4.914   3.966 -0.0089  0.1343 -0.4851
    1C5      N4   17   3.120   4.819   4.006  0.1554 -0.2281  0.0169
    1C5     H41   18   3.105   4.810   4.105 -1.0263  0.4073 -0.0905
    1C5     H42   19   3.057   4.772   3.943 -1.7595  1.0414  0.9148
    1C5      N3   20   3.228   4.998   4.062 -0.0015  0.4801  0.6473
    1C5      C2   21   3.295   5.111   4.030 -0.3143  0.5828  0.4368
    1C5      O2   22   3.326   5.188   4.124  0.5814  0.2824  0.0543
    1C5     C3'   23   3.560   5.235   3.723  0.0078  0.3106  0.0128
    1C5     H3'   24   3.527   5.134   3.697  1.1732 -0.0154 -0.2362
    1C5     C2'   25   3.525   5.256   3.871  0.3154  0.4847 -0.3489
    1C5     H2'   26   3.541   5.171   3.937 -1.7995  2.3938  2.8934
    1C5     O2'   27   3.582   5.373   3.937 -0.3399  0.5596  0.0562
    1C5    HO2'   28   3.550   5.392   4.026  1.3071  2.7291  0.2774
    1C5     O3'   29   3.696   5.264   3.694 -0.1426 -0.0012 -0.6949
    2U        P   30   3.808   5.145   3.693  0.5104 -0.2616  0.1680
    2U      OP1   31   3.933   5.203   3.641  0.2846 -0.6244  0.0822
    2U      OP2   32   3.751   5.027   3.622  0.1894  0.2274 -0.7995
    2U      O5'   33   3.813   5.120   3.849  0.3113 -0.4966  0.6326
    2U      C5'   34   3.859   5.223   3.940 -0.0675 -0.1939  0.1501
    2U      H5'   35   3.813   5.318   3.912  3.2663  1.1848 -1.1148
    2U     H5''   36   3.967   5.232   3.929  0.0511 -1.3211  0.2996
    2U      C4'   37   3.837   5.183   4.087 -0.1283  0.0770 -0.1172
    2U      H4'   38   3.877   5.264   4.148 -1.3715  0.2889  0.4465
    2U      O4'   39   3.703   5.162   4.122  0.6510 -0.7123  0.8156
    2U      C1'   40   3.693   5.057   4.217 -0.0542  0.0460  0.1674
    2U      H1'   41   3.649   5.103   4.305  3.3874  0.5417  1.7685
    2U       N1   42   3.614   4.937   4.171  0.7189  0.9730 -0.2727
    2U       C6   43   3.605   4.906   4.037 -0.1621  0.4167  0.1052
    2U       H6   44   3.648   4.967   3.958  0.9055 -1.0712 -0.5073
    2U       C5   45   3.527   4.802   3.994 -0.0401 -0.3247 -0.1315
    2U       H5   46   3.520   4.780   3.889  0.9755 -1.3485 -0.0135
    2U       C4   47   3.463   4.712   4.086  0.0632 -0.5497 -0.3914
    2U       O4   48   3.403   4.610   4.056  0.5939  0.5866  0.1584
    2U       N3   49   3.472   4.750   4.218  0.1031  0.1740  0.6063
    2U       H3   50   3.431   4.691   4.288  0.9659 -0.8242  0.2917
    2U       C2   51   3.548   4.854   4.264 -0.5412  0.7949  0.1859
    2U       O2   52   3.549   4.876   4.386 -0.5556 -0.1090  0.3551
    2U      C3'   53   3.913   5.051   4.132  0.2116  0.0681  0.2256
    2U      H3'   54   3.886   4.971   4.063 -3.1544 -0.0576  1.4851
    2U      C2'   55   3.836   5.022   4.260 -0.5970  0.3351  0.0822
    2U      H2'   56   3.832   4.916   4.284  0.4481 -0.0620 -1.4084
    2U      O2'   57   3.866   5.113   4.369 -0.1134 -0.3863  0.0362
    2U     HO2'   58   3.833   5.074   4.451  0.2699  0.1998  0.4803
    2U      O3'   59   4.049   5.074   4.139 -0.7477 -0.0206  0.0169
    3G        P   60   4.144   4.948   4.147  0.1257 -0.1026  0.1901
    3G      OP1   61   4.281   5.008   4.155  0.1293 -0.1316 -0.4465
    3G      OP2   62   4.108   4.857   4.041  0.6235  0.5353 -0.3264
    3G      O5'   63   4.113   4.877   4.281  0.0489 -0.1561 -0.8212
    3G      C5'   64   4.139   4.932   4.411  0.3190 -0.0978  0.4416
    3G      H5'   65   4.093   5.031   4.423  1.0935  0.4107 -0.6421
    3G     H5''   66   4.245   4.945   4.429  0.5492 -0.8599 -0.3068
    3G      C4'   67   4.087   4.837   4.520 -0.0550  0.4583  0.5928
    3G      H4'   68   4.104   4.877   4.620  0.2886 -1.8593  1.5116
    3G      O4'   69   3.942   4.824   4.502 -0.0095  0.2833  0.2387
    3G      C1'   70   3.915   4.693   4.552  0.9690  0.1565 -0.0602
    3G      H1'   71   3.842   4.701   4.632 -1.5982 -2.0312 -1.9707
    3G       N9   72   3.849   4.618   4.443 -0.1676 -0.5714  0.1320
    3G       C8   73   3.856   4.648   4.306 -0.3921 -0.1123 -0.4060
    3G       H8   74   3.923   4.718   4.259  2.3284 -3.8134 -2.5955
    3G       N7   75   3.772   4.582   4.232 -0.5813  0.3377  0.3112
    3G       C5   76   3.714   4.492   4.321 -0.3471 -0.5115 -0.3350
    3G       C6   77   3.618   4.385   4.308  0.4703  0.0632  0.0488
    3G       O6   78   3.546   4.342   4.213 -0.0665 -0.4758 -0.5765
    3G       N1   79   3.595   4.322   4.425  0.0548 -0.0689 -0.6999
    3G       H1   80   3.529   4.247   4.416 -0.7290  0.3174  1.2804
    3G       C2   81   3.647   4.348   4.545  0.1819 -0.0050  0.0926
    3G       N2   82   3.619   4.265   4.640 -0.0754 -0.7852  0.4125
    3G      H21   83   3.544   4.198   4.650  1.2564 -2.0187  2.8755
    3G      H22   84   3.662   4.291   4.727 -1.9181 -0.4085  1.2669
    3G       N3   85   3.725   4.451   4.569 -0.3815  0.7885 -0.3994
    3G       C4   86   3.757   4.515   4.453 -0.5810 -0.5326 -0.7788
    3G      C3'   87   4.148   4.696   4.504  0.1227  0.1982  0.8067
    3G      H3'   88   4.143   4.652   4.405 -0.8498 -2.7720  2.0691
    3G      C2'   89   4.045   4.624   4.590 -0.3907 -0.1928 -0.3747
    3G      H2'   90   4.058   4.519   4.564 -0.5208  0.0740 -1.5765
    3G      O2'   91   4.069   4.638   4.730  0.0691  0.3317  0.1770
    3G     HO2'   92   4.060   4.550   4.767 -0.1516 -0.4805 -1.6925
    3G      O3'   93   4.284   4.690   4.541  0.3286  0.2921  0.1218
    4G        P   94   4.372   4.555   4.510 -0.0595 -0.1618 -0.1629
    4G      OP1   95   4.502   4.572   4.582 -0.0302  0.1589  0.2902
    4G      OP2   96   4.363   4.523   4.363 -0.3510  0.4559  0.4197
    4G      O5'   97   4.294   4.447   4.593  0.0607 -0.6907  0.1343
    4G      C5'   98   4.303   4.306   4.562 -0.1292  0.0124  0.1129
    4G      H5'   99   4.405   4.272   4.579 -0.2711 -0.6607 -0.3245
    4G     H5''  100   4.289   4.289   4.455 -0.3507 -0.2947  0.1896
    4G      C4'  101   4.201   4.222   4.632  0.1208  0.6968 -0.6589
    4G      H4'  102   4.227   4.221   4.738  0.5313 -1.1378 -0.7297
    4G      O4'  103   4.079   4.274   4.609 -0.3417 -0.1306  0.5100
    4G      C1'  104   3.987   4.168   4.585  0.1392 -0.7137 -0.1195
    4G      H1'  105   3.897   4.177   4.647  0.1872  1.0920 -0.2712
    4G       N9  106   3.936   4.177   4.444  0.6000 -0.5015 -0.1084
    4G       C8  107   3.986   4.254   4.347 -0.0656 -0.0563  0.3678
    4G       H8  108   4.066   4.326   4.362 -0.8365  1.5946 -2.6975
    4G       N7  109   3.928   4.234   4.232 -0.2568  0.0705 -0.4473
    4G       C5  110   3.828   4.140   4.259 -0.3563  0.5889 -0.7860
    4G       C6  111   3.733   4.077   4.178 -0.7275  0.2127  0.9522
    4G       O6  112   3.705   4.081   4.057 -0.3765 -0.1809 -0.1738
    4G       N1  113   3.647   3.997   4.251 -0.7505  0.3979 -0.3273
    4G       H1  114   3.571   3.949   4.205 -0.7783 -0.8873  0.9974
    4G       C2  115   3.678   3.960   4.379  0.4966  0.2159  0.1565
    4G       N2  116   3.608   3.863   4.428 -0.2401 -0.4227 -0.5324
    4G      H21  117   3.544   3.814   4.367  0.6748 -1.6219 -0.5694
    4G      H22  118   3.641   3.820   4.514  1.2508  2.0290  0.2299
    4G       N3  119   3.765   4.013   4.458 -0.2924  0.0150 -0.0433
    4G       C4  120   3.835   4.108   4.390 -0.2285  0.6684  0.7397
    4G      C3'  121   4.191   4.079   4.589  0.0807  0.3965  0.0973
    4G      H3'  122   4.195   4.079   4.480 -0.3558  2.2717  0.0477
    4G      C2'  123   4.053   4.038   4.622 -0.3488  0.1336 -0.2402
    4G      H2'  124   4.015   3.957   4.560  1.0235 -2.0676  1.5790
    4G      O2'  125   4.030   4.007   4.757 -0.8320  0.3250  1.1219
    4G     HO2'  126   3.935   4.005   4.772 -1.0131  1.0462  0.1678
    4G      O3'  127   4.298   4.011   4.646 -0.1343 -0.1713  0.2212
    5G        P  128   4.374   3.895   4.567  0.1701 -0.1316  0.3723
    5G      OP1  129   4.472   3.839   4.661  0.4749 -0.1300  0.0605
    5G      OP2  130   4.420   3.950   4.439 -0.5141  0.2706 -0.0044
    5G      O5'  131   4.259   3.786   4.547  0.2134 -0.3609 -0.1149
    5G      C5'  132   4.202   3.716   4.656  0.1351 -0.7131 -0.2151
    5G      H5'  133   4.175   3.790   4.732  0.4383 -1.2520  0.4309
    5G     H5''  134   4.275   3.654   4.708 -0.9367  0.8818  3.6105
    5G      C4'  135   4.079   3.648   4.616  0.1991  0.2658  0.5236
    5G      H4'  136   4.041   3.595   4.703 -1.9376  1.0115  0.0954
    5G      O4'  137   3.980   3.724   4.557  0.2408  0.8371  0.3033
    5G      C1'  138   3.911   3.643   4.452 -0.5422 -1.1928 -0.3451
    5G      H1'  139   3.804   3.641   4.473 -0.1580  0.6772  2.2511
    5G       N9  140   3.932   3.700   4.321 -0.3179  0.0918  0.3992
    5G       C8  141   4.026   3.796   4.284 -0.0327 -0.4885 -0.3769
    5G       H8  142   4.102   3.835   4.351 -0.1126 -2.0430  0.6649
    5G       N7  143   4.007   3.853   4.170 -0.5628  0.0402 -0.0847
    5G       C5  144   3.890   3.788   4.127 -0.5258  0.1524  0.1414
    5G       C6  145   3.816   3.802   4.004 -0.5238 -0.0199 -0.5749
    5G       O6  146   3.838   3.879   3.910 -0.2340 -0.1141 -0.1854
    5G       N1  147   3.708   3.720   3.993 -0.1199  0.1578 -0.7172
    5G       H1  148   3.653   3.732   3.909 -0.1901 -0.5859 -0.7879
    5G       C2  149   3.680   3.623   4.087 -0.1437  0.2212 -0.6185
    5G       N2  150   3.579   3.547   4.070 -0.1923 -0.5365 -0.1155
    5G      H21  151   3.530   3.561   3.982 -0.3876  0.0992  0.0887
    5G      H22  152   3.546   3.498   4.151 -3.8374  1.0863 -0.4334
    5G       N3  153   3.736   3.620   4.204  0.1990  0.3552 -0.0997
    5G       C4  154   3.843   3.699   4.219 -0.2323  0.2428 -1.0629
    5G      C3'  155   4.116   3.537   4.511  0.0598 -0.2047 -0.1104
    5G      H3'  156   4.172   3.579   4.427 -0.8528 -0.8865 -1.0721
    5G      C2'  157   3.976   3.503   4.464 -0.2398  0.1198  0.2099
    5G      H2'  158   3.989   3.458   4.366  1.6336  0.5925  0.1932
    5G      O2'  159   3.898   3.430   4.562 -0.0254 -0.1252 -0.0411
    5G     HO2'  160   3.936   3.344   4.582 -0.4814 -0.4692 -0.6087
    5G      O3'  161   4.176   3.414   4.559  0.0865  0.3503  0.3073
    6U        P  162   4.277   3.337   4.472 -0.0254 -0.4104  0.3724
    6U      OP1  163   4.394   3.312   4.557 -0.9052 -0.3453  0.7008
    6U      OP2  164   4.288   3.387   4.333  0.0274  0.0926 -0.6088
    6U      O5'  165   4.194   3.199   4.473  0.5200 -0.5889 -0.1191
    6U      C5'  166   4.181   3.121   4.595 -0.1186 -0.6201  0.3460
    6U      H5'  167   4.175   3.189   4.680  1.7404 -0.3051  0.2665
    6U     H5''  168   4.273   3.068   4.619 -0.0001 -0.7817 -0.4125
    6U      C4'  169   4.066   3.016   4.600  0.1846 -0.2757  0.0512
    6U      H4'  170   4.062   2.961   4.694 -0.0846 -2.8745 -1.4008
    6U      O4'  171   3.940   3.087   4.590 -0.8672  0.6458  0.2920
    6U      C1'  172   3.847   3.002   4.515  0.4962 -0.0372 -0.0553
    6U      H1'  173   3.747   2.998   4.559  1.2122 -3.2309  1.5323
    6U       N1  174   3.824   3.063   4.378  0.6772 -0.2906 -0.6417
    6U       C6  175   3.894   3.168   4.331  0.2485 -0.6508 -0.4229
    6U       H6  176   3.965   3.218   4.396 -1.7319  0.7655  0.8041
    6U       C5  177   3.871   3.220   4.207 -0.3229 -0.1358  0.2460
    6U       H5  178   3.930   3.297   4.161 -1.7811  1.9653  1.7182
    6U       C4  179   3.768   3.169   4.126 -0.1388  0.5157  0.4599
    6U       O4  180   3.745   3.197   4.009 -0.2603  0.3817 -0.1345
    6U       N3  181   3.699   3.066   4.181 -0.0700  0.4405  0.2720
    6U       H3  182   3.633   3.013   4.127  1.3661  0.4969 -1.6173
    6U       C2  183   3.725   3.004   4.304  0.1237 -0.7405 -0.0445
    6U       O2  184   3.659   2.908   4.345  0.4286  0.0074  0.3376
    6U      C3'  185   4.061   2.909   4.499  0.1522 -0.0115 -0.9821
    6U      H3'  186   4.088   2.955   4.404  1.8466  1.2829  0.0617
    6U      C2'  187   3.911   2.861   4.507  0.3577  0.2535  0.3918
    6U      H2'  188   3.892   2.813   4.411 -0.5087  1.7725 -0.2419
    6U      O2'  189   3.878   2.788   4.619  0.2010  0.8801 -0.1277
    6U     HO2'  190   3.824   2.712   4.598  0.6724  0.3634  0.4875
    6U      O3'  191   4.146   2.800   4.533 -0.4145 -0.1372 -0.0388
    7C        P  192   4.242   2.738   4.431  0.3472  0.0154 -0.0033
    7C      OP1  193   4.298   2.619   4.500  0.1371  0.3742  0.0819
    7C      OP2  194   4.336   2.848   4.396 -0.7569  0.0882 -0.1693
    7C      O5'  195   4.144   2.702   4.316 -0.3093 -0.1456  0.1996
    7C      C5'  196   4.053   2.592   4.326 -0.4380  0.3263  0.3785
    7C      H5'  197   3.999   2.604   4.420 -0.5161 -0.1127  0.3924
    7C     H5''  198   4.109   2.500   4.312  0.0931  0.2030  2.8363
    7C      C4'  199   3.954   2.607   4.207 -0.3921 -0.2069  0.2284
    7C      H4'  200   3.873   2.537   4.230  0.3130 -0.8538  0.8072
    7C      O4'  201   3.908   2.737   4.197  0.2253 -0.4439  0.2168
    7C      C1'  202   3.883   2.771   4.065 -0.1989  0.0836 -0.1291
    7C      H1'  203   3.775   2.785   4.057 -0.3822 -1.6870 -1.2991
    7C       N1  204   3.963   2.890   4.022  0.7532 -0.0757  0.0493
    7C       C6  205   4.077   2.937   4.090 -0.0638 -0.0248  0.6737
    7C       H6  206   4.108   2.892   4.184  1.6095 -0.7051 -0.1627
    7C       C5  207   4.156   3.037   4.037 -0.2508 -0.0906 -0.7171
    7C       H5  208   4.239   3.069   4.098 -0.4015 -1.4259  0.2533
    7C       C4  209   4.097   3.102   3.925 -1.1208  0.0476  0.0802
    7C       N4  210   4.174   3.205   3.886 -0.0592 -0.4267 -0.1750
    7C      H41  211   4.126   3.253   3.811 -0.3032 -3.1384 -1.8967
    7C      H42  212   4.246   3.250   3.939  0.0185 -1.5777  0.7298
    7C       N3  213   3.998   3.054   3.845 -0.1254  0.5579 -0.1532
    7C       C2  214   3.918   2.957   3.906  0.0719  0.3144  0.3123
    7C       O2  215   3.812   2.929   3.853  0.5257  0.3640  0.1079
    7C      C3'  216   4.023   2.580   4.077 -0.2379  0.1139 -0.0742
    7C      H3'  217   4.120   2.631   4.074  0.2606 -0.7875 -2.9401
    7C      C2'  218   3.932   2.655   3.976  0.6472  0.8219  0.0163
    7C      H2'  219   3.991   2.692   3.893  0.7148  0.9810  0.1342
    7C      O2'  220   3.828   2.577   3.927  0.0861  0.1193  0.6344
    7C     HO2'  221   3.794   2.629   3.854 -1.2780 -1.6454 -0.0490
    7C      O3'  222   4.045   2.437   4.059 -0.1068 -0.1477  0.1795
    8G        P  223   4.164   2.382   3.966  0.2504 -0.2074 -0.0831
    8G      OP1  224   4.105   2.296   3.858  0.0247 -0.1987  0.3858
    8G      OP2  225   4.259   2.329   4.061  0.5449 -0.3668  0.1192
    8G      O5'  226   4.234   2.517   3.906  0.3278 -0.3719  0.1094
    8G      C5'  227   4.306   2.510   3.790  0.6248 -0.8997  0.2102
    8G      H5'  228   4.352   2.412   3.779 -0.1594 -1.1170 -1.4971
    8G     H5''  229   4.382   2.588   3.789  0.9482 -1.2060 -0.8819
    8G      C4'  230   4.215   2.540   3.668  0.0879 -0.4586 -0.4142
    8G      H4'  231   4.163   2.453   3.630  0.9382 -0.3582 -1.8934
    8G      O4'  232   4.140   2.658   3.702  0.5768 -0.1197 -0.4072
    8G      C1'  233   4.180   2.766   3.618  0.2888 -1.0059  0.2019
    8G      H1'  234   4.091   2.825   3.592  0.9594 -0.4523 -0.9342
    8G       N9  235   4.270   2.859   3.689  0.0551 -0.0610 -0.0361
    8G       C8  236   4.314   2.843   3.820  0.3933  0.1896 -0.5801
    8G       H8  237   4.298   2.757   3.883 -1.4970  1.3773  0.6454
    8G       N7  238   4.389   2.946   3.860  0.5896 -0.4554 -0.0139
    8G       C5  239   4.387   3.036   3.751  0.1829 -0.3462  0.1531
    8G       C6  240   4.448   3.164   3.737  0.0268 -0.0098 -0.5755
    8G       O6  241   4.502   3.227   3.828  0.2632 -0.1063 -0.2725
    8G       N1  242   4.436   3.213   3.610 -0.5273 -0.3639  0.1709
    8G       H1  243   4.487   3.300   3.597  1.8892 -1.8553 -1.2673
    8G       C2  244   4.344   3.165   3.521 -0.6416  0.0420  0.8369
    8G       N2  245   4.342   3.236   3.414 -0.2527 -0.0662 -0.9137
    8G      H21  246   4.373   3.332   3.408 -1.3686  0.2229 -2.8491
    8G      H22  247   4.267   3.202   3.355 -0.8955 -2.3750  1.0473
    8G       N3  248   4.295   3.043   3.525  0.3503 -0.0790  0.2751
    8G       C4  249   4.325   2.977   3.642 -0.4637 -0.7010  0.0538
    8G      C3'  250   4.305   2.571   3.544  1.1832  0.8160  0.1672
    8G      H3'  251   4.408   2.595   3.572  1.2658  1.9726 -1.0040
    8G      C2'  252   4.253   2.703   3.493  0.6890  0.4507 -0.0332
    8G      H2'  253   4.342   2.759   3.464  0.4804  0.6168 -0.3605
    8G      O2'  254   4.156   2.700   3.389 -0.6836 -0.2059  0.6871
    8G     HO2'  255   4.180   2.772   3.331 -0.6664  0.0636  1.0240
    8G      O3'  256   4.316   2.461   3.453 -0.0125 -0.4329  0.6911
    9C        P  257   4.440   2.363   3.454 -0.0664 -0.2895 -0.0805
    9C      OP1  258   4.441   2.268   3.344 -0.2533  0.2696  0.1626
    9C      OP2  259   4.443   2.322   3.594  0.0430 -0.0112  0.0764
    9C      O5'  260   4.551   2.477   3.432 -0.5683  0.2397  0.1551
    9C      C5'  261   4.689   2.452   3.450 -0.2926 -0.1460 -0.2937
    9C      H5'  262   4.720   2.349   3.431 -0.0103 -0.3937  1.3150
    9C     H5''  263   4.707   2.483   3.553  0.0973 -0.6797 -0.1981
    9C      C4'  264   4.774   2.542   3.363 -0.1885 -0.0166 -0.5107
    9C      H4'  265   4.876   2.541   3.401  0.7430 -0.6271 -2.8390
    9C      O4'  266   4.769   2.496   3.231  0.0690  0.3140 -0.1866
    9C      C1'  267   4.755   2.613   3.153 -0.5501  0.2677 -0.5328
    9C      H1'  268   4.841   2.602   3.087  0.1260 -1.2925  0.5313
    9C       N1  269   4.623   2.614   3.084 -0.3811  0.4737 -0.0210
    9C       C6  270   4.518   2.521   3.114  0.5794  0.4189 -0.3705
    9C       H6  271   4.526   2.446   3.192  0.2411  0.6043 -0.1563
    9C       C5  272   4.406   2.528   3.038 -0.1932  0.2890  0.2630
    9C       H5  273   4.322   2.461   3.053 -0.4001 -0.1200 -2.3651
    9C       C4  274   4.403   2.621   2.936  0.8759 -0.1942 -0.5608
    9C       N4  275   4.301   2.627   2.856 -0.2984 -0.3431 -0.5019
    9C      H41  276   4.292   2.710   2.799 -1.0601  1.0682  1.5412
    9C      H42  277   4.219   2.574   2.881 -0.2326 -0.4822 -0.5831
    9C       N3  278   4.496   2.706   2.906  0.2089 -0.6760  0.4914
    9C       C2  279   4.604   2.703   2.984  0.1745 -0.0804 -0.8799
    9C       O2  280   4.687   2.787   2.964  0.3896  0.2648 -0.6026
    9C      C3'  281   4.742   2.694   3.367 -0.5996  0.0614 -0.4022
    9C      H3'  282   4.636   2.714   3.362 -0.4639  0.8213 -0.2956
    9C      C2'  283   4.798   2.741   3.234  1.2141  1.0099 -0.3756
    9C      H2'  284   4.751   2.834   3.205 -0.8485  0.5674  1.3166
    9C      O2'  285   4.936   2.749   3.227 -0.1631 -0.1575  0.0807
    9C     HO2'  286   4.957   2.811   3.296 -0.1734 -0.5718  0.4618
    9C      O3'  287   4.807   2.762   3.465  0.4184 -0.3985 -0.3327
   10A        P  288   4.730   2.876   3.545 -0.3551  0.2155  0.1901
   10A      OP1  289   4.824   2.932   3.645 -0.0250 -0.0409  0.3654
   10A      OP2  290   4.612   2.808   3.602  0.0448 -0.5447  0.0592
   10A      O5'  291   4.690   2.995   3.451 -0.0552 -0.5004 -0.2395
   10A      C5'  292   4.792   3.071   3.390  0.3083 -0.0297  0.1131
   10A      H5'  293   4.873   3.005   3.357  0.3895  0.6128 -1.0302
   10A     H5''  294   4.824   3.149   3.458 -1.2075  0.6793  0.0349
   10A      C4'  295   4.752   3.142   3.256 -0.4013 -0.0210 -0.8005
   10A      H4'  296   4.847   3.179   3.219  1.1033 -2.0547  0.7941
   10A      O4'  297   4.695   3.045   3.166 -0.2286 -0.0339 -0.0985
   10A      C1'  298   4.585   3.110   3.096 -0.6513 -0.2565 -0.5797
   10A      H1'  299   4.611   3.125   2.991  3.4312  1.9898  0.5122
   10A       N9  300   4.465   3.027   3.124 -0.4999  0.5265  0.6261
   10A       C8  301   4.443   2.930   3.217  0.7765 -0.4205  0.0023
   10A       H8  302   4.506   2.911   3.303  1.9989 -2.1757 -1.2187
   10A       N7  303   4.332   2.857   3.207 -0.7232 -0.6263  0.0552
   10A       C5  304   4.280   2.905   3.086  0.5984 -0.4604  0.4745
   10A       C6  305   4.169   2.861   3.006 -0.5183 -0.6076  0.3899
   10A       N6  306   4.087   2.767   3.048 -0.0854 -0.5658 -0.1772
   10A      H61  307   4.011   2.734   2.990 -0.4221 -1.0612  0.5293
   10A      H62  308   4.111   2.712   3.129 -2.9243  2.1676  2.8533
   10A       N1  309   4.148   2.924   2.892  0.4147  0.4848  0.6088
   10A       C2  310   4.230   3.022   2.857  0.0674  0.9293 -0.2840
   10A       H2  311   4.202   3.072   2.765 -1.2771  0.1553 -0.3163
   10A       N3  312   4.338   3.065   2.917 -0.4528  0.1124  0.3099
   10A       C4  313   4.357   3.005   3.037  0.1240  0.2153  0.0710
   10A      C3'  314   4.658   3.251   3.286 -0.2753  0.1662  0.1573
   10A      H3'  315   4.592   3.227   3.370 -0.6207  2.2121  0.5150
   10A      C2'  316   4.578   3.255   3.150 -0.0107  0.5073 -0.5817
   10A      H2'  317   4.474   3.274   3.177 -0.5623 -1.8041 -0.8119
   10A      O2'  318   4.620   3.348   3.055 -0.3650  0.3121  0.0329
   10A     HO2'  319   4.713   3.327   3.039 -1.0015 -3.6264  0.4158
   10A      O3'  320   4.713   3.373   3.319  0.0433  0.3137 -0.2041
   11G        P  321   4.667   3.452   3.445 -0.1311 -0.0557  0.0127
   11G      OP1  322   4.758   3.563   3.466 -0.1120  0.0826 -0.2287
   11G      OP2  323   4.648   3.361   3.557  0.4581 -0.5784 -0.2660
   11G      O5'  324   4.528   3.501   3.407  0.3615 -0.0130 -0.2273
   11G      C5'  325   4.515   3.598   3.299  0.3431 -0.0396 -0.3120
   11G      H5'  326   4.524   3.554   3.200 -1.6364  0.4160 -0.7192
   11G     H5''  327   4.601   3.665   3.309  1.1858 -1.2315  0.7551
   11G      C4'  328   4.391   3.689   3.305 -0.1909  0.1396 -0.2867
   11G      H4'  329   4.393   3.758   3.221 -1.8333 -0.1129 -0.5695
   11G      O4'  330   4.281   3.603   3.292  0.1591  0.4146 -0.1928
   11G      C1'  331   4.184   3.631   3.388  0.2133  0.8720 -0.0946
   11G      H1'  332   4.097   3.677   3.340 -0.1309  1.9458  1.4737
   11G       N9  333   4.153   3.512   3.461  0.0894 -0.7520 -0.1194
   11G       C8  334   4.198   3.469   3.587  0.0486  0.9452 -0.1140
   11G       H8  335   4.280   3.512   3.642  0.8960  0.4742 -0.9776
   11G       N7  336   4.127   3.374   3.640 -0.0833  0.0116 -0.0129
   11G       C5  337   4.032   3.344   3.544  0.4593  0.3268  0.0779
   11G       C6  338   3.919   3.250   3.539 -0.0939 -0.2564 -0.8437
   11G       O6  339   3.892   3.156   3.610  0.2142  0.1217  0.3950
   11G       N1  340   3.832   3.267   3.433 -0.1162 -0.2486 -0.5874
   11G       H1  341   3.760   3.197   3.422  1.0381 -1.3638 -1.2670
   11G       C2  342   3.852   3.360   3.338  0.5862  0.7056  0.5196
   11G       N2  343   3.757   3.366   3.245 -0.5317 -0.5582  0.1720
   11G      H21  344   3.678   3.302   3.243  1.3429 -3.0804 -3.0334
   11G      H22  345   3.772   3.428   3.166  1.5158 -0.2729  0.7322
   11G       N3  346   3.958   3.441   3.332 -0.3523 -0.3728  1.0191
   11G       C4  347   4.042   3.429   3.437  0.0675 -0.0651 -0.2715
   11G      C3'  348   4.382   3.758   3.436  0.0201 -0.3049  0.1194
   11G      H3'  349   4.446   3.702   3.504 -0.3973 -0.9695 -0.0236
   11G      C2'  350   4.241   3.737   3.480 -0.1556  0.0335  0.1960
   11G      H2'  351   4.237   3.714   3.587  2.1882 -0.9010  0.1547
   11G      O2'  352   4.158   3.846   3.458 -0.1626 -0.4536  0.3977
   11G     HO2'  353   4.165   3.873   3.366  1.2451  1.9339  1.1305
   11G      O3'  354   4.411   3.899   3.428 -0.4131 -0.5383 -0.0544
   12U        P  355   4.545   3.963   3.370  0.6655 -0.0636 -0.1805
   12U      OP1  356   4.544   3.958   3.223  0.5548  0.2293 -0.2526
   12U      OP2  357   4.653   3.897   3.444  0.3557  0.7080  0.1709
   12U      O5'  358   4.526   4.103   3.427 -0.3274 -0.2289  0.1081
   12U      C5'  359   4.412   4.170   3.411  0.3761 -0.3020 -0.0436
   12U      H5'  360   4.407   4.227   3.504 -0.4099 -0.3083 -0.0741
   12U     H5''  361   4.325   4.104   3.406  1.6187 -1.9188 -1.8062
   12U      C4'  362   4.399   4.274   3.297  0.0095 -0.7311  0.0601
   12U      H4'  363   4.345   4.362   3.331  2.3743  0.1960  1.5739
   12U      O4'  364   4.530   4.341   3.283  0.1234  0.0624  0.6654
   12U      C1'  365   4.559   4.372   3.151 -0.0740 -0.4780  0.8821
   12U      H1'  366   4.537   4.478   3.140  2.5591 -0.0531 -1.2953
   12U       N1  367   4.703   4.352   3.122 -0.7264  0.1162  0.2269
   12U       C6  368   4.762   4.234   3.173  0.2877 -0.3853  0.6727
   12U       H6  369   4.708   4.166   3.238  2.2395 -2.2444  0.4541
   12U       C5  370   4.896   4.206   3.145  0.1216 -0.4448 -0.4255
   12U       H5  371   4.946   4.116   3.178 -0.2740 -0.7140 -0.5559
   12U       C4  372   4.976   4.287   3.056 -0.4832  0.2248  0.3571
   12U       O4  373   5.089   4.264   3.022 -0.5882 -0.2049  0.9851
   12U       N3  374   4.904   4.391   2.993  0.4634  0.0474 -0.2587
   12U       H3  375   4.953   4.442   2.921 -2.1053  1.5773 -1.0795
   12U       C2  376   4.764   4.422   3.020  0.6615 -0.3218  0.4082
   12U       O2  377   4.706   4.517   2.964 -0.2409  0.0863  0.3224
   12U      C3'  378   4.366   4.233   3.156  0.7693  0.0840 -0.0912
   12U      H3'  379   4.383   4.125   3.155  1.1952  0.1480 -1.1615
   12U      C2'  380   4.474   4.283   3.059  0.2583 -0.5290  0.5783
   12U      H2'  381   4.518   4.194   3.015  0.3324 -1.2458  2.0442
   12U      O2'  382   4.411   4.370   2.972  0.0584  0.1359  0.4593
   12U     HO2'  383   4.342   4.410   3.025 -0.5115 -0.3356  0.0937
   12U      O3'  384   4.234   4.249   3.112 -0.2117  0.2916 -0.1492
   13A        P  385   4.147   4.372   3.152  0.3276  0.2610  0.1749
   13A      OP1  386   4.234   4.490   3.157  0.0639 -0.1163 -0.2689
   13A      OP2  387   4.077   4.338   3.278  0.3770  0.3974 -0.0545
   13A      O5'  388   4.039   4.390   3.036  0.3075 -0.4276  0.1411
   13A      C5'  389   4.079   4.451   2.906 -0.5026 -0.4557 -0.2796
   13A      H5'  390   4.187   4.464   2.898 -0.1876 -1.8306  1.3053
   13A     H5''  391   4.036   4.551   2.901 -1.5039 -0.7744  1.2923
   13A      C4'  392   4.040   4.366   2.794 -0.0444 -0.4613  0.4049
   13A      H4'  393   4.054   4.432   2.708 -0.1007 -0.7289  0.1852
   13A      O4'  394   4.127   4.255   2.773 -0.3315  0.7147 -0.8604
   13A      C1'  395   4.063   4.152   2.693  0.1062 -0.2736  0.0128
   13A      H1'  396   4.115   4.146   2.597  0.6168  1.8629  0.0917
   13A       N9  397   4.074   4.025   2.775 -0.1947 -0.0154 -0.1382
   13A       C8  398   4.166   4.008   2.879 -0.5110  0.7727 -0.2336
   13A       H8  399   4.221   4.089   2.925  1.2661  0.2442 -1.3258
   13A       N7  400   4.170   3.886   2.927  0.0256 -0.3200  0.6817
   13A       C5  401   4.082   3.816   2.840  0.1547  0.5409  0.1348
   13A       C6  402   4.036   3.685   2.828 -0.4617  0.2118  0.3629
   13A       N6  403   4.081   3.581   2.884  0.4728 -0.6317 -0.3036
   13A      H61  404   4.040   3.489   2.876 -2.2674  0.2442  1.9515
   13A      H62  405   4.155   3.598   2.951 -0.3365  1.0184  0.2024
   13A       N1  406   3.939   3.651   2.734  0.1496  0.2823 -0.6928
   13A       C2  407   3.897   3.748   2.656  0.5758 -0.3412  0.2370
   13A       H2  408   3.826   3.718   2.580 -0.0134 -0.8773  0.9818
   13A       N3  409   3.938   3.873   2.647 -0.0588 -0.2201 -0.5154
   13A       C4  410   4.027   3.900   2.745  0.2182 -0.1274 -0.3390
   13A      C3'  411   3.904   4.307   2.787 -0.5951  0.0056  0.4891
   13A      H3'  412   3.885   4.270   2.887  3.6333  1.5385  2.0829
   13A      C2'  413   3.913   4.198   2.675  0.0849  0.3020 -0.1959
   13A      H2'  414   3.841   4.116   2.685  0.5926 -0.1298 -0.0435
   13A      O2'  415   3.910   4.239   2.541 -0.3041  0.5739  0.1830
   13A     HO2'  416   3.823   4.275   2.523 -0.3329  0.3777 -0.0680
   13A      O3'  417   3.804   4.405   2.750 -0.2525 -0.2646  0.5498
   14A        P  418   3.689   4.451   2.847  0.0254 -0.1697  0.2516
   14A      OP1  419   3.622   4.574   2.796  0.3180  0.3526 -0.3258
   14A      OP2  420   3.723   4.436   2.988  0.1115  0.5121  0.1512
   14A      O5'  421   3.595   4.337   2.821 -0.1462 -0.4258  0.2498
   14A      C5'  422   3.533   4.318   2.697 -0.0684 -0.5141  0.6602
   14A      H5'  423   3.602   4.337   2.614 -0.1673 -2.7545 -0.0172
   14A     H5''  424   3.444   4.379   2.685  0.4118  0.1384  0.3328
   14A      C4'  425   3.494   4.172   2.681 -0.2206  0.1182 -0.0532
   14A      H4'  426   3.434   4.168   2.590 -1.2590 -1.7641  0.6564
   14A      O4'  427   3.615   4.094   2.672  0.2939 -0.0307 -0.1489
   14A      C1'  428   3.585   3.965   2.735  0.6131  0.1932 -0.5020
   14A      H1'  429   3.601   3.885   2.664 -1.7278  1.3718 -2.4851
   14A       N9  430   3.669   3.935   2.855  0.0683  0.2373 -0.6467
   14A       C8  431   3.748   4.014   2.932  0.4281 -0.3316 -0.5459
   14A       H8  432   3.757   4.120   2.919  2.7767 -0.5580 -1.1241
   14A       N7  433   3.812   3.952   3.027 -0.2884 -0.7152  0.3591
   14A       C5  434   3.771   3.820   3.004  0.5082 -0.3399  0.3635
   14A       C6  435   3.805   3.694   3.058 -0.3983  0.3728  0.1382
   14A       N6  436   3.902   3.683   3.148  0.5137  0.2797  0.2134
   14A      H61  437   3.905   3.601   3.206  0.3132 -1.3760 -2.0085
   14A      H62  438   3.943   3.770   3.178  1.0568  0.1770 -0.2165
   14A       N1  439   3.741   3.579   3.030 -0.2936  0.2204  0.3721
   14A       C2  440   3.650   3.597   2.932 -0.5058  0.1867 -0.8488
   14A       H2  441   3.603   3.506   2.899  0.4021 -0.7104  0.2589
   14A       N3  442   3.606   3.705   2.868  0.6673  0.2904  0.1283
   14A       C4  443   3.672   3.811   2.910  0.1770 -0.5924  0.1523
   14A      C3'  444   3.413   4.110   2.795 -0.0543  0.8123 -0.1272
   14A      H3'  445   3.459   4.134   2.891 -2.0393  0.1234  1.0571
   14A      C2'  446   3.440   3.960   2.769  0.1062 -0.4774 -0.6907
   14A      H2'  447   3.422   3.899   2.857  0.0905  1.6884  0.8766
   14A      O2'  448   3.360   3.913   2.658  0.5134  0.6404  0.1732
   14A     HO2'  449   3.324   3.830   2.689 -1.8016  1.9273  1.2551
   14A      O3'  450   3.278   4.147   2.800  0.1791 -0.1443 -0.2038
   15C        P  451   3.204   4.176   2.934 -0.2865 -0.2732 -0.2137
   15C      OP1  452   3.069   4.228   2.906 -0.0464  0.1105  0.4518
   15C      OP2  453   3.303   4.255   3.014  0.7259  0.1797  0.4071
   15C      O5'  454   3.192   4.040   3.012 -0.0620  0.1763 -0.0202
   15C      C5'  455   3.133   3.929   2.950 -0.3517 -0.7744 -0.3711
   15C      H5'  456   3.175   3.932   2.850 -0.1376  1.2810 -0.2751
   15C     H5''  457   3.024   3.941   2.945 -0.3192 -0.3996 -0.2082
   15C      C4'  458   3.162   3.805   3.021  0.3566  0.2331  1.2739
   15C      H4'  459   3.104   3.727   2.971 -2.1092  2.9556 -0.4020
   15C      O4'  460   3.303   3.782   3.006  0.5169  0.2045  0.0403
   15C      C1'  461   3.343   3.699   3.116  0.9373 -0.4457  0.0517
   15C      H1'  462   3.385   3.604   3.081 -1.2658 -1.8443  1.0138
   15C       N1  463   3.445   3.768   3.191 -0.6057 -0.0751  0.2029
   15C       C6  464   3.464   3.904   3.181 -0.0584  0.7937 -0.2930
   15C       H6  465   3.400   3.959   3.113  2.2943  1.3866 -2.1655
   15C       C5  466   3.574   3.961   3.240 -0.5381  0.2157 -0.0587
   15C       H5  467   3.594   4.065   3.221 -0.3379  0.4595  1.4392
   15C       C4  468   3.657   3.874   3.320 -0.2830 -0.6104 -0.3869
   15C       N4  469   3.761   3.918   3.386 -0.1843  0.3570  0.4075
   15C      H41  470   3.821   3.860   3.442  0.9775  1.5067  0.4028
   15C      H42  471   3.796   4.012   3.374  0.5675  0.3987  2.5271
   15C       N3  472   3.644   3.747   3.323 -0.1434  0.7910 -0.4723
   15C       C2  473   3.534   3.693   3.267  0.0887  0.4088  0.6661
   15C       O2  474   3.509   3.572   3.285  0.2451  0.0148 -0.1616
   15C      C3'  475   3.138   3.803   3.168 -0.8190  0.8341  0.1352
   15C      H3'  476   3.193   3.890   3.205  2.9686 -1.9705  1.8129
   15C      C2'  477   3.222   3.676   3.208 -0.1574 -0.1549  0.0826
   15C      H2'  478   3.247   3.680   3.314  0.3480 -0.3489 -0.0294
   15C      O2'  479   3.149   3.562   3.159  0.3301 -0.1062 -0.4502
   15C     HO2'  480   3.162   3.497   3.229 -0.1037 -0.5868 -0.8089
   15C      O3'  481   3.001   3.805   3.202  0.1674 -0.3476  0.0738
   16C        P  482   2.958   3.879   3.332  0.2630  0.2532  0.2111
   16C      OP1  483   2.811   3.909   3.331 -0.0700  0.0243  0.4844
   16C      OP2  484   3.051   3.989   3.361  0.4522 -0.1203 -0.2995
   16C      O5'  485   2.984   3.772   3.441 -0.1442 -0.1408  0.2805
   16C      C5'  486   2.946   3.633   3.432  0.4875  0.4311  0.2654
   16C      H5'  487   2.965   3.586   3.336  0.9191 -0.4272  0.7644
   16C     H5''  488   2.838   3.623   3.442  0.3862  0.6774 -0.5096
   16C      C4'  489   3.022   3.548   3.543  0.4877 -0.2372  0.2759
   16C      H4'  490   2.981   3.447   3.544  2.2428 -0.9857  0.5335
   16C      O4'  491   3.154   3.550   3.520  0.1511 -0.3235  0.4658
   16C      C1'  492   3.217   3.523   3.648 -0.1504  0.5962 -0.0949
   16C      H1'  493   3.277   3.432   3.651  0.4150  0.8831 -1.8392
   16C       N1  494   3.300   3.644   3.675 -0.6489 -0.2192  0.1559
   16C       C6  495   3.307   3.755   3.593 -0.0300 -0.2921  0.2577
   16C       H6  496   3.232   3.774   3.518  1.2826  0.3012 -0.9582
   16C       C5  497   3.409   3.847   3.605 -0.6909 -0.0272 -0.1817
   16C       H5  498   3.407   3.925   3.531  0.5870  0.2315  0.0264
   16C       C4  499   3.512   3.821   3.697  0.3230 -0.4513 -0.7568
   16C       N4  500   3.609   3.905   3.698  0.0452  0.1449  0.6103
   16C      H41  501   3.661   3.913   3.784 -1.4154 -0.5853  1.6013
   16C      H42  502   3.605   3.979   3.629 -0.9262  0.2094  0.7167
   16C       N3  503   3.509   3.712   3.775  0.7596 -0.9294  0.5195
   16C       C2  504   3.400   3.627   3.766 -0.4258  0.1660  0.1863
   16C       O2  505   3.399   3.534   3.844 -0.2611  0.2425  0.2534
   16C      C3'  506   3.002   3.596   3.688  0.3774 -0.4945  0.0997
   16C      H3'  507   3.028   3.701   3.698  0.7602 -0.6106  0.3504
   16C      C2'  508   3.116   3.520   3.758  0.1059  0.8083  0.1538
   16C      H2'  509   3.157   3.573   3.844 -0.3875 -1.2696  1.7484
   16C      O2'  510   3.081   3.390   3.789  0.2142  0.2887 -0.0797
   16C     HO2'  511   3.157   3.351   3.833 -0.0450  0.4213  0.5005
   16C      O3'  512   2.871   3.560   3.734 -0.2956 -0.1391 -0.2053
   17C        P  513   2.805   3.659   3.845 -0.0863 -0.3527 -0.0845
   17C      OP1  514   2.663   3.615   3.860  0.2892 -0.1123  0.1428
   17C      OP2  515   2.836   3.804   3.816 -0.3157 -0.0409  0.0191
   17C      O5'  516   2.894   3.616   3.975  0.1222 -0.1136 -0.2523
   17C      C5'  517   2.890   3.498   4.041  0.2413  0.3379 -0.6178
   17C      H5'  518   2.909   3.419   3.968 -0.0372  0.9568 -1.3754
   17C     H5''  519   2.784   3.493   4.067  0.0540 -0.0755 -1.4158
   17C      C4'  520   2.989   3.491   4.154 -0.3921 -0.1035  0.3301
   17C      H4'  521   2.957   3.403   4.209 -0.6037  0.0943  0.5274
   17C      O4'  522   3.125   3.490   4.120 -0.2394 -0.1460  0.0747
   17C      C1'  523   3.203   3.557   4.211 -0.4902 -0.2375 -0.5467
   17C      H1'  524   3.284   3.493   4.243 -1.4280 -1.1425  0.0604
   17C       N1  525   3.249   3.691   4.154 -0.0111  0.0596  0.1784
   17C       C6  526   3.197   3.741   4.039 -0.6157  0.8858 -0.4151
   17C       H6  527   3.110   3.688   4.003  0.8135 -2.2979  0.3620
   17C       C5  528   3.261   3.840   3.971 -0.0986  0.3703 -0.3322
   17C       H5  529   3.216   3.891   3.887 -1.5215  0.8968  0.6938
   17C       C4  530   3.375   3.890   4.026  0.2199 -0.2402 -0.5153
   17C       N4  531   3.437   3.988   3.967  0.1547 -0.1419 -0.7352
   17C      H41  532   3.515   4.035   4.011 -0.5628  0.1054  0.3195
   17C      H42  533   3.408   4.024   3.877 -0.1763 -0.3859 -0.7244
   17C       N3  534   3.422   3.853   4.145 -0.8008  0.1603 -0.2418
   17C       C2  535   3.357   3.751   4.211 -0.6431  0.1055 -0.0525
   17C       O2  536   3.390   3.735   4.329 -0.0791  0.0822  0.9375
   17C      C3'  537   2.975   3.608   4.255 -0.1875 -0.3957 -0.1773
   17C      H3'  538   2.962   3.701   4.199 -0.7464  0.4245  1.2557
   17C      C2'  539   3.108   3.586   4.327  0.5026 -1.0694 -0.2070
   17C      H2'  540   3.140   3.680   4.373 -0.7995  1.1519 -3.4519
   17C      O2'  541   3.094   3.469   4.405  0.0845 -0.7390 -0.2696
   17C     HO2'  542   3.163   3.481   4.471  0.5709  0.2038 -0.9299
   17C      O3'  543   2.868   3.604   4.343 -0.3068  0.8385 -0.6537
   18C        P  544   2.805   3.735   4.411 -0.2269 -0.2894  0.4460
   18C      OP1  545   2.674   3.696   4.472  0.0367 -0.7896 -0.6735
   18C      OP2  546   2.800   3.838   4.308 -0.1757 -0.1319 -0.1894
   18C      O5'  547   2.913   3.766   4.519 -0.7090 -0.3855  0.0953
   18C      C5'  548   2.937   3.689   4.634  0.1110  0.5754  0.2640
   18C      H5'  549   2.972   3.589   4.610  0.5492  1.3403 -2.6389
   18C     H5''  550   2.850   3.682   4.699 -0.8394  2.0837 -0.7982
   18C      C4'  551   3.044   3.750   4.726  0.0769 -0.6209  0.2010
   18C      H4'  552   3.053   3.687   4.815 -1.4528 -0.8486  0.2230
   18C      O4'  553   3.167   3.739   4.649 -0.0878 -0.3165  0.1978
   18C      C1'  554   3.247   3.858   4.656  0.7117  0.2901  0.3997
   18C      H1'  555   3.346   3.825   4.690  2.0573  3.4118 -0.1355
   18C       N1  556   3.251   3.957   4.544 -0.3062  1.0023  0.4001
   18C       C6  557   3.173   3.943   4.432 -0.7762 -0.0875 -0.1993
   18C       H6  558   3.099   3.865   4.432  0.0077 -0.8783 -1.5984
   18C       C5  559   3.197   4.018   4.320  0.6657  0.0959 -0.0884
   18C       H5  560   3.128   4.005   4.238 -0.7718  1.4083  0.8640
   18C       C4  561   3.305   4.106   4.321  0.0172 -0.3230 -0.0506
   18C       N4  562   3.321   4.182   4.218 -0.2622 -1.0851  0.0878
   18C      H41  563   3.401   4.240   4.201 -0.8599  0.2494  1.5717
   18C      H42  564   3.264   4.163   4.136  0.0058 -0.1646 -0.3159
   18C       N3  565   3.380   4.124   4.422  0.1458  0.0793  0.6628
   18C       C2  566   3.362   4.042   4.529  0.2596 -0.1006 -0.3677
   18C       O2  567   3.444   4.057   4.624  0.2497  0.4746  0.4915
   18C      C3'  568   3.031   3.898   4.758 -0.0834 -0.2615 -0.3340
   18C      H3'  569   3.002   3.956   4.670 -0.8599 -0.2357 -0.0757
   18C      C2'  570   3.183   3.924   4.783 -0.2941  0.3376 -0.4689
   18C      H2'  571   3.213   4.028   4.781 -1.3579  0.6548 -1.5686
   18C      O2'  572   3.241   3.863   4.894 -0.0110 -0.1841 -0.2411
   18C     HO2'  573   3.291   3.928   4.943 -1.2809  0.3057  0.4435
   18C      O3'  574   2.939   3.931   4.859  0.3219  0.3221  0.9267
   19A        P  575   2.852   4.062   4.856 -0.1027 -0.1401 -0.2847
   19A      OP1  576   2.758   4.048   4.969 -0.4368  0.4979  0.5285
   19A      OP2  577   2.800   4.075   4.718  0.3680 -0.0966 -0.1177
   19A      O5'  578   2.955   4.181   4.895 -0.0308 -0.0587  0.3692
   19A      C5'  579   3.018   4.175   5.023 -0.0927  0.3851 -0.4712
   19A      H5'  580   3.039   4.070   5.043  0.9932  0.4642 -1.1187
   19A     H5''  581   2.949   4.223   5.092  1.6487  1.3070  0.7200
   19A      C4'  582   3.149   4.253   5.020 -0.7887  0.7768  0.0954
   19A      H4'  583   3.205   4.234   5.111  0.3703  0.0270 -0.7373
   19A      O4'  584   3.230   4.221   4.912 -0.0555 -0.0079  0.1858
   19A      C1'  585   3.300   4.338   4.864 -0.5523  0.4357  0.6673
   19A      H1'  586   3.409   4.328   4.869 -0.4366 -0.7343 -2.2034
   19A       N9  587   3.259   4.364   4.727 -0.4084  0.6834 -0.2075
   19A       C8  588   3.170   4.289   4.661  1.3826 -0.3651  0.3466
   19A       H8  589   3.110   4.213   4.709 -0.1499 -0.4880 -1.6223
   19A       N7  590   3.156   4.319   4.533 -0.0742  0.3849 -0.3782
   19A       C5  591   3.251   4.414   4.515  0.2226  0.0772 -0.1522
   19A       C6  592   3.290   4.489   4.404  0.2529  0.4995 -0.0554
   19A       N6  593   3.250   4.472   4.279  0.1230  0.0551 -0.5725
   19A      H61  594   3.310   4.525   4.217 -0.7087  2.2889  0.4379
   19A      H62  595   3.193   4.393   4.253  1.6938 -1.0028 -0.9979
   19A       N1  596   3.383   4.581   4.419 -0.2036  0.5378  0.0550
   19A       C2  597   3.435   4.600   4.539 -0.2267 -0.2633 -0.0416
   19A       H2  598   3.509   4.679   4.544 -0.1439 -0.3707  0.4808
   19A       N3  599   3.408   4.545   4.655  0.6903  1.0221  0.2874
   19A       C4  600   3.308   4.445   4.634  0.5483 -0.6202  0.2464
   19A      C3'  601   3.127   4.403   5.007 -0.5274  0.9917  0.5857
   19A      H3'  602   3.055   4.411   4.925  0.6334  1.2737 -0.4257
   19A      C2'  603   3.261   4.450   4.957  0.1464 -0.1430 -0.3862
   19A      H2'  604   3.248   4.539   4.896 -0.3818 -0.3732 -0.6149
   19A      O2'  605   3.364   4.467   5.057 -0.3221 -0.0048 -0.0596
   19A     HO2'  606   3.434   4.492   4.996 -2.8963 -0.0222 -3.3332
   19A      O3'  607   3.072   4.455   5.123  0.1713 -0.1215 -0.5482
   20G        P  608   3.004   4.598   5.127 -0.1185 -0.2086  0.0045
   20G      OP1  609   2.968   4.630   5.265 -0.4337  0.2733 -0.2609
   20G      OP2  610   2.895   4.589   5.029 -0.2572 -0.1658 -0.0533
   20G      O5'  611   3.102   4.704   5.074 -0.1272  0.0978  0.3090
   20G      C5'  612   3.208   4.757   5.157 -0.1733 -0.3194 -0.3508
   20G      H5'  613   3.270   4.678   5.200 -2.2728 -1.9445 -0.1696
   20G     H5''  614   3.169   4.822   5.235  0.8273 -1.4259  1.1422
   20G      C4'  615   3.292   4.851   5.080 -0.7390 -0.7462 -0.7241
   20G      H4'  616   3.382   4.861   5.142 -2.2260  0.3504  1.3726
   20G      O4'  617   3.315   4.814   4.939 -0.7312  0.6581  0.0023
   20G      C1'  618   3.281   4.915   4.859  0.1237 -0.9086  0.2463
   20G      H1'  619   3.375   4.964   4.834  0.0964 -1.1504 -0.3505
   20G       N9  620   3.221   4.852   4.734  0.1219 -0.6376 -0.4920
   20G       C8  621   3.124   4.753   4.731 -1.2475  0.2661  0.2099
   20G       H8  622   3.089   4.696   4.816 -0.9281 -0.1211  0.0853
   20G       N7  623   3.099   4.720   4.606 -0.2193  0.2727 -0.6140
   20G       C5  624   3.176   4.810   4.530  1.2574 -0.6220 -0.3582
   20G       C6  625   3.167   4.833   4.388  0.0786 -0.1740  0.5555
   20G       O6  626   3.100   4.778   4.301 -0.6121 -0.1129 -0.0086
   20G       N1  627   3.241   4.944   4.355 -0.8026  0.6020  0.6525
   20G       H1  628   3.243   4.974   4.259  1.4980  1.4011  0.8972
   20G       C2  629   3.313   5.025   4.442  0.1089  0.8396  0.9294
   20G       N2  630   3.378   5.119   4.388 -0.1348  0.4067 -0.0556
   20G      H21  631   3.396   5.117   4.289  0.0425 -0.6006 -0.0090
   20G      H22  632   3.418   5.189   4.450 -0.1462  1.1164 -0.8285
   20G       N3  633   3.326   4.997   4.570  0.3661 -0.2058 -0.4698
   20G       C4  634   3.245   4.894   4.609 -0.6938 -0.4826 -0.1358
   20G      C3'  635   3.236   4.990   5.072  0.0807  0.1346  0.2169
   20G      H3'  636   3.163   5.005   5.151  0.3540  1.8295  0.1868
   20G      C2'  637   3.175   4.997   4.934 -0.1563 -1.0862 -0.1596
   20G      H2'  638   3.080   4.943   4.936 -1.3721  0.9212  2.2745
   20G      O2'  639   3.151   5.133   4.889 -0.1263 -0.6718  0.2405
   20G     HO2'  640   3.110   5.118   4.804 -1.0162 -0.9892  0.7112
   20G      O3'  641   3.352   5.079   5.089  0.4696  0.2234 -0.1514
   21U        P  642   3.394   5.136   5.231 -0.1846  0.1910  0.1314
   21U      OP1  643   3.376   5.034   5.329 -0.4908  0.3795  0.5705
   21U      OP2  644   3.328   5.266   5.246  0.4016  0.1271 -0.4657
   21U      O5'  645   3.533   5.178   5.202  0.3840 -0.5120  0.0758
   21U      C5'  646   3.653   5.114   5.249  0.0418  0.2322 -0.2333
   21U      H5'  647   3.656   5.011   5.215  0.6703  0.2978 -0.3873
   21U     H5''  648   3.658   5.109   5.358  0.7219 -2.8416 -0.3101
   21U      C4'  649   3.782   5.185   5.197  0.1407 -0.8285  0.4731
   21U      H4'  650   3.865   5.131   5.241  0.6509  0.5084  1.2177
   21U      O4'  651   3.791   5.157   5.062 -0.1154 -0.0228 -0.4015
   21U      C1'  652   3.818   5.277   4.991  0.1212  0.0389 -0.4403
   21U      H1'  653   3.916   5.265   4.945  0.9640  1.8017  0.7478
   21U       N1  654   3.719   5.305   4.884  0.1727 -0.4626  0.5565
   21U       C6  655   3.584   5.262   4.888  0.2761 -0.0107  0.5516
   21U       H6  656   3.551   5.192   4.964 -0.4415 -0.8691 -0.5235
   21U       C5  657   3.500   5.277   4.780  0.4558  0.0692 -0.3802
   21U       H5  658   3.399   5.238   4.791 -0.2780  1.3953 -2.0085
   21U       C4  659   3.539   5.350   4.664 -0.3828  0.6062 -0.6619
   21U       O4  660   3.472   5.357   4.564  0.5488  0.1111  0.1488
   21U       N3  661   3.664   5.407   4.678 -0.3169 -0.0611  0.2137
   21U       H3  662   3.690   5.475   4.608 -0.2373 -0.9737 -0.6698
   21U       C2  663   3.758   5.384   4.778  0.2338 -0.2978  0.0019
   21U       O2  664   3.866   5.432   4.766  0.7259  0.0084 -0.5700
   21U      C3'  665   3.786   5.344   5.223  0.2269  0.5313 -0.5792
   21U      H3'  666   3.680   5.369   5.229  0.0451 -0.2469 -0.5307
   21U      C2'  667   3.828   5.395   5.083 -0.0863  0.4103  0.8606
   21U      H2'  668   3.773   5.484   5.053  1.4006  0.3052 -2.6914
   21U      O2'  669   3.960   5.445   5.073  0.1299 -0.3581 -0.4429
   21U     HO2'  670   4.020   5.391   5.126  0.4609 -0.3360 -0.7960
   21U      O3'  671   3.864   5.382   5.345 -0.0371 -0.1554  0.2285
   22U        P  672   4.000   5.326   5.385 -0.3414 -0.2913 -0.0466
   22U      OP1  673   4.050   5.415   5.491 -0.0731  0.3335  0.1031
   22U      OP2  674   4.089   5.299   5.268  0.1338  0.5715 -0.1755
   22U      O5'  675   3.972   5.183   5.452 -0.0675 -0.6883  0.0632
   22U      C5'  676   4.056   5.069   5.428  0.4476 -0.4836  0.4770
   22U      H5'  677   4.154   5.098   5.465 -0.0997  2.7171 -0.2737
   22U     H5''  678   4.043   5.029   5.327  1.3522  3.0099 -1.1477
   22U      C4'  679   4.013   4.946   5.515 -0.0372 -0.3145 -0.2345
   22U      H4'  680   4.069   4.854   5.496 -0.9788 -1.0702  0.4987
   22U      O4'  681   4.020   4.978   5.651  1.0621  0.4065  0.4578
   22U      C1'  682   3.899   4.958   5.722 -0.1334  0.5158  0.0564
   22U      H1'  683   3.927   4.878   5.791  3.7811 -0.3165 -2.1616
   22U       N1  684   3.842   5.075   5.795 -0.2671 -0.4666  0.1407
   22U       C6  685   3.880   5.202   5.759  0.4879 -0.3005  1.2195
   22U       H6  686   3.948   5.218   5.677  1.9651  1.2184  2.6522
   22U       C5  687   3.837   5.306   5.832 -0.5124 -0.2956  0.2617
   22U       H5  688   3.871   5.405   5.807 -0.2862 -0.6258 -0.7702
   22U       C4  689   3.746   5.290   5.940  0.2487 -0.4033  0.0957
   22U       O4  690   3.689   5.381   6.000  0.6914 -0.4231 -0.3133
   22U       N3  691   3.715   5.161   5.974  0.3355  0.5578  0.0230
   22U       H3  692   3.657   5.144   6.056 -0.4971  2.7545 -0.0413
   22U       C2  693   3.762   5.050   5.908 -0.1938 -0.2495 -0.1326
   22U       O2  694   3.749   4.940   5.966 -0.2572  0.2243  0.6792
   22U      C3'  695   3.860   4.919   5.485  0.2611  0.0922 -0.1156
   22U      H3'  696   3.815   5.009   5.443  0.5794 -0.2190 -1.1609
   22U      C2'  697   3.802   4.891   5.623 -0.5635  0.3372 -0.0848
   22U      H2'  698   3.701   4.934   5.622 -0.6535  0.1505  0.3710
   22U      O2'  699   3.789   4.763   5.674  0.3134  0.3840 -0.3077
   22U     HO2'  700   3.845   4.708   5.618  0.4368 -0.4277  0.5805
   22U      O3'  701   3.843   4.817   5.382  0.5114  0.5974  0.5359
   23A        P  702   3.932   4.685   5.377 -0.0917  0.2904  0.2443
   23A      OP1  703   3.929   4.620   5.513  0.2832 -1.2039 -0.2696
   23A      OP2  704   4.055   4.718   5.307 -0.0948  0.5502 -0.0669
   23A      O5'  705   3.855   4.582   5.287  0.3514  0.1843 -0.5892
   23A      C5'  706   3.710   4.583   5.293 -0.7722  0.5408 -0.3672
   23A      H5'  707   3.663   4.649   5.365  0.3156  0.5948  0.3212
   23A     H5''  708   3.680   4.484   5.328  1.1785  0.4667  1.2934
   23A      C4'  709   3.653   4.610   5.151 -0.4375  0.2944  0.2684
   23A      H4'  710   3.545   4.595   5.150 -0.6388  1.5973  0.7628
   23A      O4'  711   3.678   4.743   5.109  0.3870  0.1495  0.2112
   23A      C1'  712   3.666   4.747   4.963 -0.1713  1.0777 -0.1387
   23A      H1'  713   3.577   4.794   4.921 -0.0836  3.0749  1.6808
   23A       N9  714   3.779   4.823   4.911  0.0772  0.2408  0.9166
   23A       C8  715   3.909   4.836   4.957 -0.2938  0.0961 -0.3890
   23A       H8  716   3.948   4.767   5.031 -1.1654  0.1439  0.1352
   23A       N7  717   3.985   4.922   4.888  0.4698  0.9445 -0.2589
   23A       C5  718   3.896   4.968   4.788 -0.3232  0.1811  0.0367
   23A       C6  719   3.894   5.073   4.694 -0.4900  0.6959 -0.8560
   23A       N6  720   4.004   5.140   4.670  0.6345  0.1806  0.1283
   23A      H61  721   4.007   5.226   4.617  1.5915 -0.6896 -1.3359
   23A      H62  722   4.082   5.120   4.731  0.6146 -0.8036 -0.1499
   23A       N1  723   3.785   5.113   4.626 -0.0425  0.0053 -0.6096
   23A       C2  724   3.674   5.050   4.664 -0.3731  0.2905 -0.4001
   23A       H2  725   3.582   5.080   4.616 -0.1573  0.8852 -0.4382
   23A       N3  726   3.655   4.958   4.752  0.2858  0.4240  0.1335
   23A       C4  727   3.769   4.913   4.811  0.3417 -1.6029  0.7537
   23A      C3'  728   3.716   4.527   5.043 -0.5464 -0.0283 -0.0209
   23A      H3'  729   3.824   4.528   5.055 -0.4720 -0.2647 -0.5972
   23A      C2'  730   3.673   4.604   4.919  0.3528 -0.1977  0.6171
   23A      H2'  731   3.747   4.592   4.840 -0.5615 -0.5757 -0.2012
   23A      O2'  732   3.543   4.557   4.888 -0.0093  0.0490 -0.0547
   23A     HO2'  733   3.524   4.559   4.794 -4.3809  0.3961  0.6429
   23A      O3'  734   3.660   4.392   5.061 -0.3000 -0.1960  0.7310
   24A        P  735   3.735   4.255   5.035  0.0461 -0.1951  0.1425
   24A      OP1  736   3.880   4.278   5.036 -0.6293  0.6970  0.0285
   24A      OP2  737   3.678   4.196   4.917  0.6467 -0.2898 -0.7534
   24A      O5'  738   3.704   4.165   5.166  0.6472 -0.4000 -0.8796
   24A      C5'  739   3.748   4.210   5.293  0.1831  0.3361  0.2376
   24A      H5'  740   3.727   4.315   5.311 -0.6064 -0.1948  2.8428
   24A     H5''  741   3.855   4.191   5.294  0.0923 -0.2830 -0.7215
   24A      C4'  742   3.680   4.119   5.401 -0.6985 -0.2653  0.7222
   24A      H4'  743   3.723   4.144   5.498  0.0868 -1.0343  0.5832
   24A      O4'  744   3.533   4.126   5.403  0.1695  0.4477 -0.4018
   24A      C1'  745   3.479   4.001   5.451  0.3426  0.3440  0.3400
   24A      H1'  746   3.424   4.015   5.544 -0.6150  1.5257 -0.3610
   24A       N9  747   3.386   3.955   5.342  0.1642  0.1780 -0.2425
   24A       C8  748   3.386   3.997   5.212 -0.9426  0.0085 -0.9614
   24A       H8  749   3.470   4.053   5.175 -0.9768  0.1205 -0.8688
   24A       N7  750   3.283   3.956   5.146 -0.3778  0.4704 -0.9766
   24A       C5  751   3.206   3.888   5.243  0.0979 -0.7350 -0.6611
   24A       C6  752   3.080   3.829   5.245 -0.4775 -0.0622 -0.1518
   24A       N6  753   3.010   3.803   5.132  0.3537 -0.3690 -0.4656
   24A      H61  754   2.928   3.744   5.135  0.3321 -0.3163  0.0150
   24A      H62  755   3.050   3.843   5.048  1.6415  0.2318  0.4066
   24A       N1  756   3.032   3.762   5.353  0.2945 -0.3966 -0.5697
   24A       C2  757   3.108   3.761   5.461 -0.7558 -0.2084 -0.0095
   24A       H2  758   3.073   3.711   5.550 -0.1584 -0.3444  0.1522
   24A       N3  759   3.230   3.817   5.470 -0.2773 -1.0083  0.0937
   24A       C4  760   3.270   3.884   5.356 -0.4542  0.3297 -0.5620
   24A      C3'  761   3.707   3.972   5.385  0.1084 -0.5998 -0.0362
   24A      H3'  762   3.683   3.949   5.281  2.4361  0.4602 -0.8767
   24A      C2'  763   3.600   3.901   5.468 -0.0088 -0.2099  0.3360
   24A      H2'  764   3.582   3.801   5.429  1.6547  0.0397 -1.2023
   24A      O2'  765   3.629   3.892   5.608  0.1302  0.2255 -0.0441
   24A     HO2'  766   3.547   3.862   5.650  0.3477  0.5815  0.6610
   24A      O3'  767   3.833   3.919   5.418 -0.1816  0.1636  0.2449
   25C        P  768   3.896   3.803   5.323 -0.3450  0.1637  0.4630
   25C      OP1  769   4.035   3.773   5.355 -0.6762 -0.2379  0.0195
   25C      OP2  770   3.865   3.847   5.186  0.1240 -0.4473  0.1709
   25C      O5'  771   3.818   3.668   5.363  0.4455  0.5865  0.0498
   25C      C5'  772   3.810   3.614   5.494  0.6983 -0.3165 -0.6139
   25C      H5'  773   3.799   3.697   5.565 -0.9455 -0.7673 -0.3031
   25C     H5''  774   3.903   3.574   5.535 -0.3886 -0.5912  1.7201
   25C      C4'  775   3.694   3.513   5.522 -0.2510 -0.3258 -0.1105
   25C      H4'  776   3.709   3.485   5.626 -2.4584  0.1488  0.3831
   25C      O4'  777   3.561   3.567   5.514 -0.1934 -0.8289  0.4732
   25C      C1'  778   3.475   3.472   5.460  0.0552 -0.1777 -0.9294
   25C      H1'  779   3.391   3.460   5.527 -0.1360 -0.4801 -1.2233
   25C       N1  780   3.418   3.505   5.324 -0.2541  0.1846 -0.2348
   25C       C6  781   3.465   3.606   5.248  0.8201  0.3285  0.3902
   25C       H6  782   3.555   3.661   5.271  0.6696  1.3892 -1.3710
   25C       C5  783   3.403   3.636   5.130  0.3443  0.1997 -0.7754
   25C       H5  784   3.441   3.718   5.071 -1.7913  0.4376 -1.9411
   25C       C4  785   3.294   3.564   5.086  0.9052  0.1833 -0.8493
   25C       N4  786   3.224   3.588   4.976  0.2867  0.9060  0.5928
   25C      H41  787   3.138   3.538   4.959  0.6293  0.7338 -0.7558
   25C      H42  788   3.233   3.679   4.934  1.5170 -0.2338 -1.8565
   25C       N3  789   3.244   3.465   5.160 -0.0848  0.0225  0.1237
   25C       C2  790   3.304   3.439   5.277 -0.3682  1.1414 -0.6136
   25C       O2  791   3.263   3.345   5.343 -0.3529 -0.5716  0.2094
   25C      C3'  792   3.699   3.392   5.433  0.4673  0.2466 -0.3693
   25C      H3'  793   3.713   3.432   5.332 -0.5273  0.8046 -0.2946
   25C      C2'  794   3.552   3.342   5.449 -0.7068 -0.5625  0.2223
   25C      H2'  795   3.537   3.278   5.363  1.4549 -3.0519  1.5428
   25C      O2'  796   3.535   3.256   5.564  0.1380  0.1860  0.1491
   25C     HO2'  797   3.454   3.207   5.545  0.9743 -0.5344 -1.8366
   25C      O3'  798   3.801   3.297   5.468 -0.5989  0.7432 -0.7061
   26A        P  799   3.862   3.201   5.363  0.0941  0.1111 -0.0889
   26A      OP1  800   3.954   3.115   5.434 -0.0800  0.3706 -0.5894
   26A      OP2  801   3.915   3.282   5.253 -0.1996  0.6432  0.3819
   26A      O5'  802   3.737   3.109   5.319  0.2408 -0.2491 -0.1586
   26A      C5'  803   3.707   3.099   5.181 -0.1623 -0.0280  0.2980
   26A      H5'  804   3.763   3.015   5.141 -1.6852  0.4128 -3.1637
   26A     H5''  805   3.740   3.185   5.123 -0.7837 -0.2620 -0.4191
   26A      C4'  806   3.562   3.087   5.168  0.2423  0.7783  0.0848
   26A      H4'  807   3.511   3.042   5.253  2.9397  1.1758  2.0339
   26A      O4'  808   3.493   3.213   5.144  0.0303  0.1521 -0.5428
   26A      C1'  809   3.412   3.202   5.027  0.1263 -0.0979 -0.4677
   26A      H1'  810   3.314   3.247   5.046 -0.0528 -0.8012  0.3166
   26A       N9  811   3.467   3.284   4.918 -0.4114 -0.0374  0.3328
   26A       C8  812   3.580   3.361   4.921  0.0049 -0.4754  0.1695
   26A       H8  813   3.655   3.353   4.999  0.1114  1.4710  0.3282
   26A       N7  814   3.592   3.449   4.827 -0.3018  0.0087  0.0114
   26A       C5  815   3.472   3.426   4.754  0.7664 -0.0084 -0.3362
   26A       C6  816   3.412   3.487   4.641 -0.0681  0.2456 -0.2219
   26A       N6  817   3.471   3.571   4.567  0.1972 -0.3694 -0.6895
   26A      H61  818   3.435   3.598   4.476  1.4201  0.8607 -0.8486
   26A      H62  819   3.555   3.614   4.604 -0.4517 -0.1309  0.5399
   26A       N1  820   3.296   3.446   4.594  0.6769 -0.2439  0.0124
   26A       C2  821   3.223   3.359   4.664 -0.7521  0.0765  0.3611
   26A       H2  822   3.131   3.330   4.617  0.6166 -1.2755 -1.6695
   26A       N3  823   3.264   3.293   4.772 -0.4165 -0.1790  0.2913
   26A       C4  824   3.392   3.330   4.810 -0.3361 -0.6292 -0.5501
   26A      C3'  825   3.537   3.004   5.042 -0.1669  0.2053  0.5023
   26A      H3'  826   3.612   3.039   4.971 -1.5457  1.3148 -0.4533
   26A      C2'  827   3.403   3.053   4.997 -0.8526 -0.0357  0.2309
   26A      H2'  828   3.390   3.051   4.889 -1.9326 -0.5130  0.3556
   26A      O2'  829   3.292   2.994   5.065  0.1335  0.3733 -0.5346
   26A     HO2'  830   3.209   3.039   5.047 -0.1670  0.6468  1.3670
   26A      O3'  831   3.532   2.862   5.063 -1.0783 -0.0362  0.0719
   27A        P  832   3.600   2.766   4.957 -0.0584  0.3876  0.3442
   27A      OP1  833   3.598   2.623   4.994 -0.7061 -0.0570  0.7207
   27A      OP2  834   3.726   2.833   4.917 -0.0229 -0.4849 -0.1580
   27A      O5'  835   3.504   2.789   4.843 -0.2167 -0.1572  0.0417
   27A      C5'  836   3.370   2.753   4.852 -0.1030 -0.6608 -0.2119
   27A      H5'  837   3.317   2.801   4.935 -1.3107 -0.3029 -1.1517
   27A     H5''  838   3.350   2.648   4.875  1.9531 -0.9609  0.3903
   27A      C4'  839   3.286   2.792   4.731 -0.7601  0.9291 -0.7001
   27A      H4'  840   3.187   2.747   4.733 -1.3231  2.1048  1.1343
   27A      O4'  841   3.282   2.930   4.706 -0.4320  0.0052  0.2701
   27A      C1'  842   3.297   2.956   4.567  0.4949  0.4536  0.0282
   27A      H1'  843   3.203   2.999   4.534 -1.6071 -1.4432  3.0777
   27A       N9  844   3.406   3.059   4.560 -0.8016  0.0512  0.2052
   27A       C8  845   3.518   3.089   4.641  0.5634 -0.3243 -0.3851
   27A       H8  846   3.542   3.035   4.732  1.4193 -0.8056 -0.8877
   27A       N7  847   3.603   3.175   4.605 -0.1479 -0.4826  0.7535
   27A       C5  848   3.545   3.211   4.483  0.2868 -0.1084  0.0142
   27A       C6  849   3.574   3.319   4.392 -0.0642 -0.2183 -0.3832
   27A       N6  850   3.675   3.401   4.391  0.6314  0.4361  0.0994
   27A      H61  851   3.685   3.471   4.319 -0.6411 -0.3697 -0.9050
   27A      H62  852   3.742   3.394   4.467 -0.1382  0.1432  0.7734
   27A       N1  853   3.496   3.341   4.286  0.1573 -0.2543 -0.1927
   27A       C2  854   3.384   3.263   4.271  0.1980  0.3002 -0.3151
   27A       H2  855   3.312   3.290   4.195 -2.8655 -2.6927  1.2454
   27A       N3  856   3.335   3.172   4.360  0.2714 -0.0981 -0.1626
   27A       C4  857   3.426   3.144   4.458  0.7273 -0.0719  0.2089
   27A      C3'  858   3.348   2.730   4.605  0.2375  1.1192  0.0246
   27A      H3'  859   3.457   2.725   4.612  0.3055 -0.5830 -1.4034
   27A      C2'  860   3.320   2.833   4.494 -0.3416  0.4180 -0.3814
   27A      H2'  861   3.409   2.834   4.431  0.5958  1.3889  0.8948
   27A      O2'  862   3.204   2.802   4.419  0.0232 -0.3453 -0.1159
   27A     HO2'  863   3.212   2.721   4.368 -0.6492  0.1634 -1.0687
   27A      O3'  864   3.305   2.595   4.583 -0.3305  1.1625 -0.7440
   28A        P  865   3.385   2.493   4.486  0.3588  0.2199 -0.2072
   28A      OP1  866   3.336   2.358   4.514 -0.1713 -0.6566 -0.3036
   28A      OP2  867   3.527   2.525   4.475 -0.0241  0.1571 -0.0908
   28A      O5'  868   3.324   2.524   4.347 -0.2227 -0.4115 -0.2230
   28A      C5'  869   3.211   2.461   4.298 -0.1486  0.2903 -0.6589
   28A      H5'  870   3.135   2.472   4.375 -0.8433 -0.1963 -1.2586
   28A     H5''  871   3.232   2.357   4.272  0.3732 -0.0995  1.1686
   28A      C4'  872   3.149   2.527   4.178  0.1955 -0.1574  0.0179
   28A      H4'  873   3.047   2.493   4.164 -0.2578  1.4831 -1.0488
   28A      O4'  874   3.150   2.671   4.193  0.0585 -0.1613 -0.1355
   28A      C1'  875   3.153   2.729   4.069  0.4581 -0.8397 -0.9180
   28A      H1'  876   3.059   2.782   4.055  0.3538 -1.0329 -0.9515
   28A       N9  877   3.256   2.832   4.054 -0.0655  0.4934 -0.4219
   28A       C8  878   3.377   2.835   4.118 -0.3241  0.5636 -0.1133
   28A       H8  879   3.405   2.748   4.175 -0.2720  0.2272 -0.6432
   28A       N7  880   3.443   2.945   4.098 -1.1288 -0.3359  1.0796
   28A       C5  881   3.365   3.020   4.012  0.0508  0.4008  0.2574
   28A       C6  882   3.362   3.152   3.956 -0.6740 -0.5321  0.0246
   28A       N6  883   3.459   3.239   3.962 -0.5179 -0.2604  0.1202
   28A      H61  884   3.457   3.327   3.912  1.2596 -0.7268 -0.8585
   28A      H62  885   3.549   3.208   3.995 -0.5515  0.8575  1.3310
   28A       N1  886   3.259   3.197   3.887  0.0886 -0.8703  0.0693
   28A       C2  887   3.152   3.121   3.876 -0.0105  0.1232 -0.7470
   28A       H2  888   3.066   3.151   3.819  0.4617  0.1798 -1.4399
   28A       N3  889   3.139   3.000   3.926  0.2618  0.1403  0.4511
   28A       C4  890   3.243   2.948   3.985 -0.2208 -0.2639 -0.0398
   28A      C3'  891   3.227   2.504   4.053  0.2712 -0.8737 -0.1134
   28A      H3'  892   3.334   2.521   4.050 -0.1739  2.2696 -2.5960
   28A      C2'  893   3.169   2.617   3.967  0.9284 -0.3890 -0.1302
   28A      H2'  894   3.242   2.652   3.895  1.2675  0.8943  0.8035
   28A      O2'  895   3.041   2.590   3.905 -0.3046  0.6919 -0.1700
   28A     HO2'  896   3.039   2.616   3.813 -2.1615 -0.8655 -0.6323
   28A      O3'  897   3.203   2.376   3.986  0.0101  0.2383 -0.9264
   29A        P  898   3.284   2.339   3.854  0.0240 -0.0722  0.5564
   29A      OP1  899   3.224   2.213   3.809 -0.0250 -0.4491  0.2231
   29A      OP2  900   3.426   2.354   3.890 -0.2303 -0.4254  0.2648
   29A      O5'  901   3.257   2.444   3.740 -0.3291 -0.9419  0.2798
   29A      C5'  902   3.154   2.418   3.650  0.0340  0.1640  0.6174
   29A      H5'  903   3.063   2.393   3.704 -0.3732  2.2819  1.0222
   29A     H5''  904   3.185   2.336   3.586 -2.3458  0.8331 -1.5774
   29A      C4'  905   3.111   2.548   3.569 -0.5553 -0.5176  0.3158
   29A      H4'  906   3.017   2.530   3.518 -1.1264  0.4348  1.0011
   29A      O4'  907   3.101   2.666   3.654  0.3456 -0.1315  0.2366
   29A      C1'  908   3.144   2.779   3.579 -0.8241  0.4414 -0.3989
   29A      H1'  909   3.060   2.847   3.587 -0.6595  0.5237  0.8765
   29A       N9  910   3.269   2.840   3.627 -0.0058 -0.6381  0.3563
   29A       C8  911   3.374   2.784   3.692 -0.5169  0.1171  0.3688
   29A       H8  912   3.378   2.682   3.729 -0.3560  0.0489  0.1646
   29A       N7  913   3.480   2.859   3.715  0.2748  0.7000  0.3247
   29A       C5  914   3.435   2.986   3.665  0.4300  1.2817  0.3689
   29A       C6  915   3.488   3.113   3.646 -0.1282  0.6547 -0.4367
   29A       N6  916   3.611   3.154   3.682 -0.0898  0.3564  0.7036
   29A      H61  917   3.637   3.251   3.689  0.6769  0.3959 -1.8717
   29A      H62  918   3.666   3.087   3.735 -2.4743 -1.6866  0.7826
   29A       N1  919   3.415   3.211   3.595 -0.1554 -0.0453  0.0297
   29A       C2  920   3.294   3.185   3.550  0.4000  0.0641 -0.3379
   29A       H2  921   3.237   3.262   3.500  0.4630  0.8208  0.7084
   29A       N3  922   3.231   3.066   3.558 -0.0754  0.1417  0.1352
   29A       C4  923   3.303   2.970   3.619 -0.3338  0.7077 -0.3829
   29A      C3'  924   3.212   2.590   3.461 -0.5194  0.1423  0.1896
   29A      H3'  925   3.314   2.599   3.500 -0.7025 -1.5558  1.1532
   29A      C2'  926   3.159   2.728   3.434  0.3213  0.1248 -0.2682
   29A      H2'  927   3.240   2.786   3.390 -0.8344  0.1419 -2.5404
   29A      O2'  928   3.037   2.732   3.361 -0.0289 -0.3198  0.4203
   29A     HO2'  929   3.032   2.799   3.292 -1.2909 -1.0283 -0.2186
   29A      O3'  930   3.208   2.496   3.352 -0.4424  0.4020  0.1821
   30C        P  931   3.327   2.485   3.247 -0.0228 -0.0370 -0.2323
   30C      OP1  932   3.280   2.376   3.162  0.3792 -0.5559  0.5448
   30C      OP2  933   3.452   2.478   3.326  0.7476  0.1088  0.0403
   30C      O5'  934   3.333   2.618   3.165  0.2234 -0.0263 -0.2549
   30C      C5'  935   3.230   2.660   3.078  0.3843  0.2087 -0.7091
   30C      H5'  936   3.132   2.632   3.117 -0.2307 -2.3611 -3.7070
   30C     H5''  937   3.240   2.611   2.981  2.4266 -0.1360 -0.3706
   30C      C4'  938   3.246   2.815   3.065  0.0289  0.1367 -0.0718
   30C      H4'  939   3.162   2.856   3.009 -1.9628 -1.6306  1.4670
   30C      O4'  940   3.265   2.876   3.186  0.6614 -0.6693 -0.7716
   30C      C1'  941   3.366   2.980   3.178  0.2602  0.4091  0.6556
   30C      H1'  942   3.325   3.075   3.213  0.4846  1.1996 -1.1413
   30C       N1  943   3.488   2.955   3.269  0.0602 -0.4050  0.7778
   30C       C6  944   3.519   2.838   3.334  0.8970  0.0102 -0.1427
   30C       H6  945   3.444   2.760   3.326 -0.4199  1.2102  0.0560
   30C       C5  946   3.626   2.819   3.410 -0.6175  0.0983 -0.2674
   30C       H5  947   3.649   2.727   3.462  1.9250  1.2081  0.6862
   30C       C4  948   3.707   2.930   3.427 -0.8029 -0.2841  0.0784
   30C       N4  949   3.816   2.922   3.496  0.6296  0.0204  0.3810
   30C      H41  950   3.858   3.011   3.518 -0.7400  1.2155 -1.5305
   30C      H42  951   3.838   2.834   3.541  3.6706  0.1790 -0.5452
   30C       N3  952   3.684   3.043   3.366 -0.5782  0.7367  0.0467
   30C       C2  953   3.577   3.060   3.288 -0.5938 -0.9669  0.2477
   30C       O2  954   3.545   3.169   3.251 -0.2745 -0.1431  0.1095
   30C      C3'  955   3.375   2.848   2.985  1.1805  0.4793 -1.1698
   30C      H3'  956   3.450   2.778   3.019 -1.8900 -2.4749  0.0507
   30C      C2'  957   3.402   2.987   3.033  0.6674 -0.3298  1.1185
   30C      H2'  958   3.504   3.017   3.009  1.1253  0.3598  3.6354
   30C      O2'  959   3.311   3.078   2.976 -0.3953 -0.1906  0.4993
   30C     HO2'  960   3.344   3.168   2.980  0.5626  0.0568 -5.0352
   30C      O3'  961   3.360   2.839   2.845  0.1024  0.6254 -0.8256
   31A        P  962   3.486   2.834   2.751  0.0569 -0.3346 -0.1810
   31A      OP1  963   3.429   2.820   2.615 -0.2200 -0.6236 -0.5941
   31A      OP2  964   3.582   2.735   2.788 -0.3715  0.1374  0.5707
   31A      O5'  965   3.547   2.973   2.762 -0.4118 -0.2099 -0.5139
   31A      C5'  966   3.490   3.086   2.708 -0.0659 -0.4119 -0.4194
   31A      H5'  967   3.399   3.118   2.759  0.4329  0.4081 -0.0202
   31A     H5''  968   3.462   3.078   2.603  0.3245 -1.0011 -0.4799
   31A      C4'  969   3.592   3.199   2.719  0.3813 -0.2101 -0.9313
   31A      H4'  970   3.543   3.282   2.668 -2.6533 -0.3182  1.5355
   31A      O4'  971   3.627   3.256   2.848 -0.0527 -0.2185 -0.0338
   31A      C1'  972   3.770   3.281   2.849  0.6420  0.4002  0.1566
   31A      H1'  973   3.799   3.379   2.886  2.2771  0.0177 -0.0643
   31A       N9  974   3.833   3.179   2.937  0.0773 -0.2576  0.0171
   31A       C8  975   3.790   3.057   2.979  1.0251 -0.3766 -0.2362
   31A       H8  976   3.698   3.011   2.948 -0.5958  1.8518  1.0298
   31A       N7  977   3.848   3.002   3.082 -0.5741 -0.0292  0.7577
   31A       C5  978   3.948   3.092   3.106 -0.0597 -0.4275  0.4235
   31A       C6  979   4.054   3.096   3.196 -0.1629 -0.2891  0.3464
   31A       N6  980   4.077   3.016   3.303  0.1865  0.4121  0.6010
   31A      H61  981   4.155   3.029   3.366  0.4210 -1.0874  0.6595
   31A      H62  982   4.009   2.943   3.317  0.0946  0.5313  0.7759
   31A       N1  983   4.142   3.197   3.196 -0.4193 -0.1565 -0.3417
   31A       C2  984   4.125   3.291   3.104 -0.2600 -0.4480 -0.0196
   31A       H2  985   4.201   3.367   3.102 -3.1574  2.6599 -1.4255
   31A       N3  986   4.036   3.298   3.006 -0.1874  0.0874 -0.0482
   31A       C4  987   3.944   3.198   3.015 -0.6200  0.4354 -0.2963
   31A      C3'  988   3.728   3.171   2.647  0.7479 -0.7183 -0.5099
   31A      H3'  989   3.755   3.067   2.669  0.0827 -0.7805  0.0622
   31A      C2'  990   3.819   3.281   2.711 -0.4912 -0.6131 -0.1865
   31A      H2'  991   3.923   3.253   2.699 -0.8073 -1.4454 -1.1912
   31A      O2'  992   3.785   3.417   2.661 -0.1896  0.4223  0.3645
   31A     HO2'  993   3.857   3.477   2.641 -1.5496  1.5742 -1.5040
   31A      O3'  994   3.701   3.181   2.508  0.1561 -0.6606 -0.0707
   32A        P  995   3.806   3.134   2.398  0.3074  0.0629 -0.1478
   32A      OP1  996   3.729   3.059   2.299  0.4026  0.5070  0.6455
   32A      OP2  997   3.918   3.067   2.465  0.1870 -0.3457 -0.2735
   32A      O5'  998   3.865   3.260   2.320 -0.0558 -0.4699  0.1478
   32A      C5'  999   3.782   3.364   2.261 -0.1273  0.7830 -0.0745
   32A      H5' 1000   3.692   3.378   2.320 -0.6914  1.0692 -0.9819
   32A     H5'' 1001   3.764   3.322   2.162  0.0619 -2.2016  1.0335
   32A      C4' 1002   3.861   3.496   2.264  0.1564  0.0020  0.0758
   32A      H4' 1003   3.795   3.575   2.228 -1.3740 -0.2652  2.0653
   32A      O4' 1004   3.905   3.543   2.393  0.0783  0.2639 -0.1722
   32A      C1' 1005   4.040   3.572   2.404 -0.2796  0.1404  0.0226
   32A      H1' 1006   4.051   3.673   2.444 -0.1019 -0.4755  1.5946
   32A       N9 1007   4.119   3.474   2.491  0.2138 -0.3711  0.6828
   32A       C8 1008   4.111   3.336   2.500 -0.0300  0.3932 -0.0046
   32A       H8 1009   4.051   3.277   2.433  0.8669  1.6597 -2.0102
   32A       N7 1010   4.183   3.285   2.596  0.8050  0.4591 -0.4260
   32A       C5 1011   4.255   3.399   2.644  0.1799  0.3635 -0.7459
   32A       C6 1012   4.353   3.421   2.746  0.1087  0.2033  0.0742
   32A       N6 1013   4.406   3.324   2.829 -0.2367 -0.0401  0.2431
   32A      H61 1014   4.479   3.340   2.897  1.2715  0.3034 -1.3869
   32A      H62 1015   4.362   3.234   2.835 -0.5307  0.1273  0.6738
   32A       N1 1016   4.413   3.539   2.756 -0.8149  0.0671 -0.5762
   32A       C2 1017   4.372   3.640   2.675 -0.6543  0.2622 -0.6970
   32A       H2 1018   4.427   3.733   2.680 -0.2031 -0.0215 -0.4176
   32A       N3 1019   4.270   3.634   2.597  0.5003  0.0315 -0.6836
   32A       C4 1020   4.213   3.513   2.584  0.9367 -0.0146 -0.6963
   32A      C3' 1021   3.992   3.482   2.181 -0.3385  0.0222 -0.1527
   32A      H3' 1022   4.017   3.378   2.204 -2.5027 -1.1113 -2.4200
   32A      C2' 1023   4.081   3.582   2.253 -0.0450  0.1888 -0.5975
   32A      H2' 1024   4.187   3.558   2.246  0.2043  0.6970  1.0516
   32A      O2' 1025   4.055   3.720   2.211 -0.2263  0.1147  0.3834
   32A     HO2' 1026   4.134   3.749   2.166 -0.7640  0.1494 -0.5549
   32A      O3' 1027   3.989   3.493   2.036 -0.1524 -0.2539 -0.0367
   33G3       P 1028   4.061   3.383   1.945  0.2909 -0.1752  0.0212
   33G3     OP1 1029   4.058   3.439   1.810 -0.5658  0.0869  0.6957
   33G3     OP2 1030   4.001   3.248   1.966 -0.2671 -0.1447 -0.0842
   33G3     O5' 1031   4.219   3.381   1.986  0.3652  0.1318 -0.0801
   33G3     C5' 1032   4.263   3.312   2.100  0.1074 -0.2051 -0.1458
   33G3     H5' 1033   4.274   3.207   2.073  2.0537  0.2567 -1.3572
   33G3    H5'' 1034   4.187   3.323   2.177 -2.1641 -1.3351 -2.0947
   33G3     C4' 1035   4.400   3.356   2.157 -0.4925  0.5206 -0.1611
   33G3     H4' 1036   4.420   3.451   2.107 -0.8826  0.6363 -0.0988
   33G3     O4' 1037   4.400   3.369   2.300 -0.3403  0.4105 -0.0386
   33G3     C1' 1038   4.495   3.272   2.364  0.3270 -0.7641  0.6411
   33G3     H1' 1039   4.544   3.317   2.450  0.5811  0.4715 -0.1311
   33G3      N9 1040   4.422   3.153   2.406 -0.0374 -0.3447 -0.8243
   33G3      C8 1041   4.305   3.113   2.356  0.1590  0.0045  0.3350
   33G3      H8 1042   4.248   3.163   2.278 -1.9682 -1.3741  0.9087
   33G3      N7 1043   4.261   3.003   2.416 -0.1740 -0.4570  0.5255
   33G3      C5 1044   4.354   2.980   2.517 -0.1839 -0.4448  0.2555
   33G3      C6 1045   4.373   2.876   2.616  0.5091  0.4564 -0.2420
   33G3      O6 1046   4.300   2.785   2.639  0.0233  0.1306  0.2952
   33G3      N1 1047   4.487   2.896   2.701  0.5325  0.0789 -0.6697
   33G3      H1 1048   4.504   2.827   2.773  2.7639 -1.0802 -2.1869
   33G3      C2 1049   4.572   2.994   2.690 -0.4600 -0.7704  0.5997
   33G3      N2 1050   4.671   2.998   2.774  0.0518  0.5994  0.7593
   33G3     H21 1051   4.675   2.932   2.851 -2.0034  0.8743  1.1383
   33G3     H22 1052   4.737   3.073   2.761 -0.5906  1.0241 -0.1435
   33G3      N3 1053   4.559   3.093   2.604  0.4745  0.0847  0.3560
   33G3      C4 1054   4.448   3.082   2.518 -0.4166 -0.4627 -0.2874
   33G3     C3' 1055   4.518   3.264   2.119 -0.0969 -0.3571 -0.1298
   33G3     H3' 1056   4.486   3.164   2.088 -1.3682 -0.2911  0.8681
   33G3     C2' 1057   4.597   3.245   2.255  0.2213 -0.7423 -0.1595
   33G3     H2' 1058   4.646   3.151   2.277 -0.1744 -0.3932  2.6104
   33G3     O2' 1059   4.686   3.353   2.282  0.3676 -0.3096  0.1246
   33G3    HO2' 1060   4.719   3.378   2.195  0.5523 -0.9454  0.0031
   33G3     O3' 1061   4.604   3.319   2.018 -0.1322  0.0291 -0.1060
   33G3    HO3' 1062   4.665   3.247   2.005 -0.1689 -0.1066  0.4409
   34pq0     N1 1063   3.725   3.606   3.571 -0.0176  0.0335  0.6192
   34pq0     C2 1064   3.660   3.501   3.610 -0.5179 -0.5534  0.5373
   34pq0     N3 1065   3.694   3.423   3.711 -0.1483  0.3037  0.5178
   34pq0     C4 1066   3.803   3.463   3.782 -0.6332  0.2847  1.1175
   34pq0     C5 1067   3.871   3.574   3.746  0.1439  0.3632  0.9084
   34pq0     C6 1068   3.827   3.658   3.638 -0.0799  0.3939 -0.1384
   34pq0     O6 1069   3.885   3.763   3.606 -0.7166  0.4502 -0.0779
   34pq0     C7 1070   3.974   3.602   3.843  0.1190  0.0259 -0.3389
   34pq0    C10 1071   4.071   3.702   3.832 -0.1225 -0.0546  0.1977
   34pq0    N11 1072   4.157   3.781   3.818  0.0992  0.2791 -0.1957
   34pq0     C8 1073   3.965   3.497   3.935  0.5514 -0.0462 -0.0516
   34pq0     N9 1074   3.860   3.418   3.891 -0.2113  0.0888 -0.1684
   34pq0     N2 1075   3.554   3.464   3.537 -0.4521  0.2633  0.2431
   34pq0     H1 1076   3.687   3.658   3.493 -0.1706  2.0901  2.0087
   34pq0     H2 1077   4.031   3.485   4.020  0.4994  0.0756  0.0070
   34pq0     H3 1078   3.834   3.328   3.930 -1.3125  0.9499  1.1920
   34pq0     H4 1079   3.569   3.492   3.441  0.7583 -1.4871 -0.1275
   34pq0     H5 1080   3.524   3.370   3.557  1.7314 -0.5433 -0.0329
   35K+      K+ 1081   4.084   4.019   3.975 -0.1473 -0.0137  0.4592
   36K+      K+ 1082   4.687   4.161   5.356 -0.0132 -0.2816 -0.1164
   37K+      K+ 1083   2.701   4.761   4.597  0.0241 -0.3259  0.2861
   38K+      K+ 1084   3.682   1.495   4.143  0.1529  0.2894  0.0589
   39K+      K+ 1085   3.784   4.373   3.646  0.1462 -0.2508  0.3083
   40K+      K+ 1086   4.517   3.078   4.053  0.1495 -0.3260  0.0755
   41K+      K+ 1087   3.861   1.955   4.174 -0.1217  0.3178  0.2718
   42K+      K+ 1088   0.897   5.640   5.881  0.5893 -0.0777 -0.2114
   43K+      K+ 1089   3.948   4.440   4.019  0.1956  0.1996  0.1528
   44K+      K+ 1090   5.727   1.626   0.439  0.1946 -0.3666 -0.1450
   45K+      K+ 1091   5.231   5.861   7.778 -0.1070 -0.0843 -0.2209
   46K+      K+ 1092   1.508   4.221   5.908  0.0073 -0.0355 -0.0195
   47K+      K+ 1093   3.718   2.480   3.301  0.0060 -0.1456 -0.0486
   48K+      K+ 1094   3.939   1.936   5.341 -0.1853  0.1699 -0.5192
   49K+      K+ 1095   3.918   4.266   0.952 -0.0173 -0.1624 -0.5375
   50K+      K+ 1096   3.834   3.572   4.864  0.0543  0.4263 -0.0050
   51K+      K+ 1097   0.470   3.050   5.086 -0.3106  0.1052  0.6800
   52K+      K+ 1098   5.003   3.513   3.329 -0.4596 -0.1686  0.7977
   53K+      K+ 1099   6.760   3.750   5.419 -0.1744  0.2242  0.0368
   54K+      K+ 1100   5.891   2.589   3.748  0.2878 -0.2501 -0.3202
   55K+      K+ 1101   3.677   2.282   5.276 -0.1790 -0.3316  0.0720
   56K+      K+ 1102   2.767   4.836   3.212  0.2209 -0.2289  0.5255
   57K+      K+ 1103   2.055   3.903   4.229  0.2434  0.1007 -0.0389
   58K+      K+ 1104   4.563   3.785   5.152  0.4188  0.3449  0.0451
   59K+      K+ 1105   3.932   5.713   3.545  0.0193  0.0295  0.1634
   60K+      K+ 1106   4.332   5.665   3.758  0.2787 -0.3108  0.0700
   61K+      K+ 1107   4.627   1.504   3.145 -0.2656  0.3357  0.0528
   62K+      K+ 1108   2.875   3.227   6.001 -0.3072  0.1927 -0.7899
   63K+      K+ 1109   3.321   4.427   3.241  0.2145 -0.1009  0.1397
   64K+      K+ 1110   0.097   4.450   7.237 -0.1206 -0.3670  0.3649
   65K+      K+ 1111   6.637   6.196   0.174 -0.0220 -0.2902  0.0195
   66K+      K+ 1112   5.041   3.826   5.516 -0.1493  0.2952 -0.1230
   67K+      K+ 1113   2.946   1.159   3.829 -0.0515  0.1085  0.1211
   68K+      K+ 1114   4.042   2.860   2.348 -0.3815 -0.1999  0.1711
   69K+      K+ 1115   3.829   2.296   3.968 -0.5287  0.0163 -0.5962
   70K+      K+ 1116   2.937   5.345   5.050 -0.1526  0.1297  0.0018
   71K+      K+ 1117   1.643   1.843   3.733  0.1712 -0.1986 -0.2396
   72K+      K+ 1118   3.988   7.159   1.581 -0.0578 -0.1198  0.0812
   73K+      K+ 1119   3.836   4.673   5.953 -0.2366  0.2607 -0.1726
   74K+      K+ 1120   4.683   3.406   3.883 -0.1809  0.3599 -0.0576
   75K+      K+ 1121   3.755   2.629   2.065  0.5634  0.4370  0.1217
   76K+      K+ 1122   0.083   6.503   4.118  0.1647  0.0693  0.3371
   77K+      K+ 1123   3.245   0.366   5.182  0.0332 -0.2236  0.1828
   78K+      K+ 1124   2.817   4.247   2.899  0.0813  0.3353 -0.5224
   79K+      K+ 1125   3.732   1.340   7.541  0.2883  0.0892 -0.3708
   80K+      K+ 1126   3.862   1.525   1.935 -0.0615 -0.0175  0.3032
   81K+      K+ 1127   4.686   7.381   3.202  0.1853 -0.4505  0.2454
   82K+      K+ 1128   2.315   1.748   2.032 -0.1795  0.0558 -0.1693
   83K+      K+ 1129   0.012   2.115   5.589  0.5436 -0.0072 -0.0708
   84K+      K+ 1130   4.270   4.828   5.785 -0.1480  0.3037  0.1978
   85K+      K+ 1131   4.762   0.938   5.628 -0.1767 -0.0002  0.0262
   86K+      K+ 1132   3.943   0.467   6.641  0.2809  0.0656 -0.0210
   87K+      K+ 1133   3.939   4.003   1.861  0.3397 -0.0828  0.3438
   88Cl-    Cl- 1134   1.634   0.860   0.939  0.0162  0.2172  0.1184
   89Cl-    Cl- 1135   3.529   4.609   7.157 -0.2297  0.0581  0.1851
   90Cl-    Cl- 1136   3.273   1.921   4.976  0.0015  0.1576 -0.0497
   91Cl-    Cl- 1137   1.724   2.255   0.282 -0.2583  0.1786 -0.0247
   92Cl-    Cl- 1138   6.167   0.334   4.565  0.3894  0.1680  0.2105
   93Cl-    Cl- 1139   4.433   6.345   7.633  0.0527  0.1434 -0.0669
   94Cl-    Cl- 1140   3.114   0.036   5.756 -0.0034 -0.0352  0.3712
   95Cl-    Cl- 1141   4.407   5.571   2.578  0.0938 -0.0262  0.7741
   96Cl-    Cl- 1142   2.857   5.956   6.700 -0.4576  0.1275  0.3421
   97Cl-    Cl- 1143   7.276   4.843   5.776  0.3808  0.1543 -0.7852
   98Cl-    Cl- 1144   1.513   3.299   5.865 -0.0805 -0.0984 -0.0065
   99Cl-    Cl- 1145   4.561   1.833   3.150  0.2412  0.0237 -0.0212
  100Cl-    Cl- 1146   3.650   6.771   3.117 -0.6008 -0.6163  0.4211
  101Cl-    Cl- 1147   3.942   0.775   3.568 -0.3327  0.0500  0.0862
  102Cl-    Cl- 1148   4.851   1.579   6.643  0.1265 -0.4305 -0.1170
  103Cl-    Cl- 1149   6.911   3.237   5.348  0.0026  0.1272  0.2032
  104Cl-    Cl- 1150   5.131   3.807   6.673 -0.3547 -0.1067  0.2222
  105Cl-    Cl- 1151   5.285   5.968   1.705  0.1528 -0.1308 -0.2258
  106Cl-    Cl- 1152   2.053   3.612   5.897 -0.1862 -0.0360  0.1366
  107Cl-    Cl- 1153   3.912   1.768   2.137  0.3621 -0.2805  0.4435
  108Cl-    Cl- 1154   6.182   7.068   5.724 -0.1745 -0.1212  0.4808
  109WAT      O 1155   3.796   6.439   0.621  0.8260 -0.4807 -0.4213
  109WAT     H1 1156   3.819   6.523   0.614  1.7209 -0.7357 -0.5927
  109WAT     H2 1157   3.785   6.427   0.707  1.2697 -0.3423 -0.3472
  109WAT    EPW 1158   3.798   6.450   0.633  1.0237 -0.4980 -0.4357
  110WAT      O 1159   5.595   7.428   4.439  0.6256  0.1932 -0.1778
  110WAT     H1 1160   5.594   7.341   4.445 -3.0422  0.1452  0.4381
  110WAT     H2 1161   5.586   7.443   4.353  1.4619  0.0036 -0.3060
  110WAT    EPW 1162   5.594   7.417   4.427  0.2073  0.1581 -0.1057
  111WAT      O 1163   1.328   2.586   7.722  0.0066  0.3684  0.0378
  111WAT     H1 1164   1.370   2.553   7.653 -1.0492  1.9250 -1.4110
  111WAT     H2 1165   1.331   2.520   7.780  2.4225 -0.3758 -0.7912
  111WAT    EPW 1166   1.335   2.571   7.721  0.2075  0.4884 -0.2987
  112WAT      O 1167   1.036   3.530   0.015  0.2493 -0.8127  0.5031
  112WAT     H1 1168   1.030   3.444  -0.000  0.4089 -1.0008  1.5014
  112WAT     H2 1169   0.968   3.563  -0.029  1.1307 -1.2438 -1.2918
  112WAT    EPW 1170   1.025   3.522   0.006  0.4031 -0.9042  0.3854
  113WAT      O 1171   6.008   6.597   1.259  0.7266  0.0271  0.3685
  113WAT     H1 1172   5.932   6.590   1.301  0.2671  3.3506  0.3365
  113WAT     H2 1173   6.067   6.599   1.323  0.4838  0.4788  0.5771
  113WAT    EPW 1174   6.006   6.596   1.275  0.6229  0.5848  0.3946
  114WAT      O 1175   5.268   4.231   3.982  0.0874  0.2662 -0.5111
  114WAT     H1 1176   5.191   4.214   4.018  0.5916 -0.0687  0.4276
  114WAT     H2 1177   5.275   4.318   3.989 -1.3478  0.6962 -3.0076
  114WAT    EPW 1178   5.258   4.241   3.988 -0.0501  0.2802 -0.7412
  115WAT      O 1179   0.006   6.058   0.577 -0.4077  0.1740  0.5927
  115WAT     H1 1180  -0.049   5.995   0.552 -0.1748 -0.2930  1.2532
  115WAT     H2 1181   0.084   6.019   0.578  0.1291  1.0432 -1.1859
  115WAT    EPW 1182   0.009   6.043   0.573 -0.2940  0.2334  0.4275
  116WAT      O 1183   4.642   6.130   6.637 -0.0705  0.4413  1.0747
  116WAT     H1 1184   4.659   6.207   6.599 -0.8776 -0.1275 -0.5104
  116WAT     H2 1185   4.650   6.148   6.722  0.1776  2.1716  0.7331
  116WAT    EPW 1186   4.646   6.144   6.644 -0.1531  0.6129  0.7901
  117WAT      O 1187   4.682   3.298   5.767  0.0042  0.1883  0.2980
  117WAT     H1 1188   4.723   3.226   5.741  0.3858  0.1238  1.0689
  117WAT     H2 1189   4.712   3.359   5.713 -0.9762 -0.3668 -0.9382
  117WAT    EPW 1190   4.692   3.296   5.755 -0.0843  0.0968  0.2293
  118WAT      O 1191   0.646   2.647   6.947 -0.0339 -0.2924 -0.3286
  118WAT     H1 1192   0.703   2.680   6.890  0.8755  0.3412  0.8880
  118WAT     H2 1193   0.671   2.682   7.023 -1.4962 -0.7272  0.3908
  118WAT    EPW 1194   0.658   2.657   6.950 -0.1155 -0.2631 -0.0426
  119WAT      O 1195   0.059   0.204   5.962  0.1953  0.3934  0.3147
  119WAT     H1 1196   0.078   0.119   5.957 -1.7739 -0.1987  1.7823
  119WAT     H2 1197  -0.007   0.213   5.907  0.4830  1.0267  0.0653
  119WAT    EPW 1198   0.052   0.193   5.953 -0.0531  0.3995  0.4946
  120WAT      O 1199   1.733   2.759   5.517 -0.3386  0.1896  0.4172
  120WAT     H1 1200   1.725   2.794   5.438 -0.1244  0.1405  0.3725
  120WAT     H2 1201   1.661   2.785   5.559 -0.6454 -0.1145  0.0802
  120WAT    EPW 1202   1.721   2.768   5.512 -0.3523  0.1374  0.3608
  121WAT      O 1203   0.105   0.525   7.756 -0.3063  0.3557 -0.1635
  121WAT     H1 1204   0.132   0.591   7.705 -1.8507  0.8099 -0.4266
  121WAT     H2 1205   0.021   0.515   7.735 -0.6208 -0.3853  1.2937
  121WAT    EPW 1206   0.097   0.533   7.746 -0.5809  0.3134  0.0129
  122WAT      O 1207   1.572   3.973   7.550  0.0737 -0.5754 -0.6534
  122WAT     H1 1208   1.527   3.914   7.596 -0.3321  0.2010 -0.0381
  122WAT     H2 1209   1.635   3.998   7.604 -0.0474 -0.0936 -0.7272
  122WAT    EPW 1210   1.575   3.968   7.565 -0.0041 -0.3896 -0.5734
  123WAT      O 1211   5.007   5.742   4.452  0.2012  0.3320  0.2041
  123WAT     H1 1212   5.074   5.797   4.443  1.5655 -1.3247 -0.3347
  123WAT     H2 1213   4.962   5.776   4.518  2.3862  0.7223  1.5976
  123WAT    EPW 1214   5.010   5.755   4.460  0.7255  0.1449  0.3303
  124WAT      O 1215   6.728   6.094   6.880 -0.1244 -0.2231 -0.4070
  124WAT     H1 1216   6.771   6.071   6.952  1.0064 -1.0056 -1.2991
  124WAT     H2 1217   6.753   6.035   6.821 -2.3091 -0.6204 -1.0385
  124WAT    EPW 1218   6.738   6.082   6.882 -0.2801 -0.3974 -0.6321
  125WAT      O 1219   4.540   6.250   5.803 -0.1401 -0.2369 -1.0186
  125WAT     H1 1220   4.616   6.214   5.828  0.6351  0.5137 -2.2159
  125WAT     H2 1221   4.535   6.322   5.852 -0.7864 -0.9703  0.0452
  125WAT    EPW 1222   4.551   6.255   5.814 -0.1210 -0.2343 -1.0384
  126WAT      O 1223   4.515   6.805   3.125 -0.1503 -0.1859  0.2415
  126WAT     H1 1224   4.486   6.787   3.045  0.7764 -0.4162 -0.0491
  126WAT     H2 1225   4.568   6.738   3.143 -0.3142 -0.1097  1.0310
  126WAT    EPW 1226   4.519   6.792   3.116 -0.0377 -0.2087  0.3152
  127WAT      O 1227   7.153   6.767   7.124  0.4913  0.1305 -0.1584
  127WAT     H1 1228   7.175   6.728   7.049  0.5418  0.7820 -0.4860
  127WAT     H2 1229   7.067   6.756   7.128  0.0822  2.2502 -1.5866
  127WAT    EPW 1230   7.144   6.759   7.114  0.4383  0.5399 -0.4178
  128WAT      O 1231   5.302   0.934   0.868 -0.2216 -0.0171  0.0563
  128WAT     H1 1232   5.273   1.012   0.841  0.8477  0.2009 -0.4974
  128WAT     H2 1233   5.370   0.952   0.919  0.3597 -0.5927 -0.4885
  128WAT    EPW 1234   5.307   0.948   0.871  0.0222 -0.0700 -0.1060
  129WAT      O 1235   2.521   3.177   7.223  0.6294  0.3711  0.1383
  129WAT     H1 1236   2.580   3.121   7.254  0.0065 -0.8450 -0.7901
  129WAT     H2 1237   2.468   3.191   7.291  0.1548 -1.0690  0.1058
  129WAT    EPW 1238   2.522   3.171   7.238  0.4673 -0.0213 -0.0037
  130WAT      O 1239   0.947   0.232   0.124 -0.1337 -0.1227 -0.0794
  130WAT     H1 1240   0.960   0.170   0.183  3.4778  0.4349 -0.0784
  130WAT     H2 1241   0.953   0.306   0.169 -0.4451  0.2835 -0.6801
  130WAT    EPW 1242   0.949   0.233   0.139  0.3538  0.0196 -0.1680
  131WAT      O 1243   7.690   3.490   5.900  0.5626  0.1790  0.0699
  131WAT     H1 1244   7.620   3.437   5.896  0.4497  0.1188  1.9661
  131WAT     H2 1245   7.669   3.555   5.846 -0.6111 -0.2477 -0.0290
  131WAT    EPW 1246   7.677   3.492   5.891  0.3725  0.1071  0.3354
  132WAT      O 1247   6.054   2.877   3.000  0.1767 -0.0221  0.5625
  132WAT     H1 1248   6.030   2.841   2.924  1.2815 -0.0426  0.1903
  132WAT     H2 1249   6.115   2.935   2.975 -0.1304  0.6417  1.3469
  132WAT    EPW 1250   6.060   2.880   2.985  0.2945  0.0729  0.6234
  133WAT      O 1251   6.273   6.723   5.139 -0.0710  0.2324 -0.3373
  133WAT     H1 1252   6.350   6.722   5.180  1.3486  2.2045 -2.6746
  133WAT     H2 1253   6.242   6.803   5.154  0.1527  0.7643 -2.3529
  133WAT    EPW 1254   6.280   6.734   5.147  0.1718  0.6023 -0.9803
  134WAT      O 1255   5.297   2.772   0.500  0.2637 -0.1482 -0.1099
  134WAT     H1 1256   5.305   2.796   0.417  0.5653  0.5253  0.1100
  134WAT     H2 1257   5.295   2.685   0.495 -0.8268 -0.0978 -0.9041
  134WAT    EPW 1258   5.298   2.762   0.487  0.1471 -0.0413 -0.1947
  135WAT      O 1259   6.938   1.131   7.343 -0.7335  0.2416  0.3084
  135WAT     H1 1260   7.011   1.157   7.383 -0.1829 -0.9704  0.1573
  135WAT     H2 1261   6.890   1.098   7.408 -0.6883  0.0678  0.2534
  135WAT    EPW 1262   6.941   1.130   7.359 -0.6455  0.0369  0.2779
  136WAT      O 1263   7.390   0.010   0.339  0.7490  0.3141  0.0058
  136WAT     H1 1264   7.351  -0.053   0.385 -1.5033  0.0574 -2.0730
  136WAT     H2 1265   7.438  -0.035   0.281  3.3541  0.6317  1.7587
  136WAT    EPW 1266   7.392  -0.006   0.337  0.8011  0.3231 -0.0424
  137WAT      O 1267   1.316   4.570   5.488 -0.4118  0.0027 -0.0439
  137WAT     H1 1268   1.371   4.638   5.478 -0.5016  0.0952  0.0986
  137WAT     H2 1269   1.262   4.578   5.419  1.7662 -2.0072 -2.1878
  137WAT    EPW 1270   1.316   4.582   5.476 -0.1034 -0.2805 -0.3396
  138WAT      O 1271   3.158   7.426   4.885  0.5273  0.0483 -0.0618
  138WAT     H1 1272   3.218   7.364   4.870 -1.1350 -1.7268  0.3231
  138WAT     H2 1273   3.087   7.398   4.844 -0.8149  0.7545  1.6321
  138WAT    EPW 1274   3.157   7.413   4.877  0.0835 -0.1096  0.2453
  139WAT      O 1275   5.008   0.017   5.330 -0.6309 -0.1047  0.0273
  139WAT     H1 1276   4.940  -0.012   5.283  0.3945 -3.1574  0.2022
  139WAT     H2 1277   5.056   0.060   5.271 -1.3661 -0.3243 -0.7531
  139WAT    EPW 1278   5.005   0.019   5.314 -0.5880 -0.5881 -0.0621
  140WAT      O 1279   2.583   2.442   7.475  0.0942 -0.2423  0.0893
  140WAT     H1 1280   2.502   2.469   7.495  0.2215  0.3109 -0.1369
  140WAT     H2 1281   2.577   2.355   7.481 -0.6583 -0.2367 -0.4412
  140WAT    EPW 1282   2.570   2.433   7.479  0.0018 -0.1597 -0.0225
  141WAT      O 1283   5.225   5.771   5.588 -0.0786 -0.1458  0.1572
  141WAT     H1 1284   5.301   5.811   5.574 -0.0435 -0.9003 -2.2627
  141WAT     H2 1285   5.167   5.836   5.590  0.2710  0.2442 -1.3011
  141WAT    EPW 1286   5.227   5.786   5.587 -0.0218 -0.1997 -0.4157
  142WAT      O 1287   5.344   1.784   6.012 -0.2836 -0.0096 -0.1449
  142WAT     H1 1288   5.380   1.790   6.091  0.3446 -0.3942 -0.3984
  142WAT     H2 1289   5.324   1.699   6.006  0.5153 -0.1659 -0.7599
  142WAT    EPW 1290   5.346   1.772   6.023 -0.0728 -0.0895 -0.2732
  143WAT      O 1291   5.778   6.545   0.037 -0.2682  0.4644 -0.2075
  143WAT     H1 1292   5.835   6.581   0.092  0.0901  0.4260 -0.5472
  143WAT     H2 1293   5.825   6.484  -0.005 -1.2953 -1.7677  1.6707
  143WAT    EPW 1294   5.793   6.541   0.039 -0.3670  0.1290  0.0198
  144WAT      O 1295   3.286   2.942   1.637 -0.2744  0.1446  0.5421
  144WAT     H1 1296   3.324   2.987   1.573  1.4292 -2.5971 -0.5642
  144WAT     H2 1297   3.337   2.957   1.707 -0.2196  0.5741  0.4084
  144WAT    EPW 1298   3.299   2.951   1.638 -0.0146 -0.1969  0.3589
  145WAT      O 1299   0.241   0.591   7.433  0.1950  0.1442  0.4941
  145WAT     H1 1300   0.312   0.544   7.416  0.8895  1.6440 -1.0258
  145WAT     H2 1301   0.263   0.639   7.502 -0.0286 -0.7101  1.1769
  145WAT    EPW 1302   0.254   0.591   7.440  0.2646  0.2396  0.3704
  146WAT      O 1303   6.024   7.344   2.955 -0.4371 -0.5419 -0.5316
  146WAT     H1 1304   6.050   7.382   3.029  0.7098 -0.9664 -0.7021
  146WAT     H2 1305   6.058   7.395   2.893 -1.9093  0.1664 -0.8052
  146WAT    EPW 1306   6.033   7.357   2.957 -0.4851 -0.5000 -0.5972
  147WAT      O 1307   6.588   2.579   6.490 -0.1124  0.5630 -0.2755
  147WAT     H1 1308   6.518   2.631   6.493  0.5649  1.6659 -2.0717
  147WAT     H2 1309   6.653   2.633   6.468  1.0204 -0.6934 -0.1660
  147WAT    EPW 1310   6.587   2.595   6.487  0.1550  0.5403 -0.5246
  148WAT      O 1311   6.074   3.795   7.275  0.1189 -0.1109 -0.1365
  148WAT     H1 1312   6.063   3.867   7.323 -0.7966  0.0244 -0.5311
  148WAT     H2 1313   6.047   3.731   7.328 -1.0313  0.0529 -0.4941
  148WAT    EPW 1314   6.068   3.796   7.290 -0.1863 -0.0667 -0.2476
  149WAT      O 1315   4.849   4.323   0.190  0.0284 -0.4105  0.9805
  149WAT     H1 1316   4.877   4.353   0.266  0.2536 -0.0429  0.7559
  149WAT     H2 1317   4.909   4.265   0.167  1.4556  1.4193 -0.1992
  149WAT    EPW 1318   4.862   4.319   0.198  0.2725 -0.0859  0.7731
  150WAT      O 1319   6.665   1.677   7.822  0.0436 -0.0231 -0.3408
  150WAT     H1 1320   6.650   1.753   7.863 -0.5824 -0.1376 -0.3463
  150WAT     H2 1321   6.751   1.665   7.832  0.4732  1.4921 -1.7219
  150WAT    EPW 1322   6.676   1.687   7.830  0.0146  0.1838 -0.5456
  151WAT      O 1323   4.291   1.844   7.583 -0.0984  0.1088 -0.1655
  151WAT     H1 1324   4.368   1.814   7.555  0.3017  1.8437 -1.1008
  151WAT     H2 1325   4.252   1.871   7.509 -2.1945 -1.8959  0.1183
  151WAT    EPW 1326   4.297   1.844   7.568 -0.3489  0.0689 -0.2617
  152WAT      O 1327   6.526   2.083   4.855  0.0672 -0.0271  0.3102
  152WAT     H1 1328   6.505   2.032   4.922 -0.1678  0.9715  1.0200
  152WAT     H2 1329   6.561   2.154   4.893 -0.8788  0.9404 -0.5646
  152WAT    EPW 1330   6.528   2.086   4.870 -0.1072  0.2633  0.2859
  153WAT      O 1331   6.213   2.249   4.356 -0.2543 -0.1223 -0.0737
  153WAT     H1 1332   6.155   2.208   4.307  0.9975 -0.6353 -1.1705
  153WAT     H2 1333   6.229   2.323   4.312  0.3840 -0.2784 -0.1169
  153WAT    EPW 1334   6.207   2.254   4.342  0.0249 -0.2212 -0.2421
  154WAT      O 1335   6.974   4.268   4.521 -0.0217 -0.1927  0.0768
  154WAT     H1 1336   7.024   4.269   4.450 -0.7128 -1.6167 -0.4790
  154WAT     H2 1337   6.987   4.346   4.557  1.4717  0.0146 -0.8139
  154WAT    EPW 1338   6.984   4.280   4.516  0.0968 -0.3725 -0.1369
  155WAT      O 1339   6.630   6.005   0.980  0.8103  0.1450  0.0004
  155WAT     H1 1340   6.618   6.044   0.903 -0.5421 -0.5785 -0.1996
  155WAT     H2 1341   6.630   5.920   0.959  1.4634 -0.0286  0.6826
  155WAT    EPW 1342   6.628   5.998   0.965  0.7070  0.0125  0.0717
  156WAT      O 1343   6.988   6.978   6.186  0.3615 -0.2571  0.4082
  156WAT     H1 1344   7.060   7.023   6.167  0.3918 -0.2400  0.5637
  156WAT     H2 1345   6.962   6.948   6.108  1.9529 -2.3917  0.5863
  156WAT    EPW 1346   6.995   6.980   6.172  0.6011 -0.5699  0.4575
  157WAT      O 1347   4.402   5.223   1.925 -1.1194 -0.2476 -0.5859
  157WAT     H1 1348   4.424   5.211   2.009 -0.2581 -2.5565 -1.0613
  157WAT     H2 1349   4.316   5.241   1.929 -1.2707 -1.1144  0.7711
  157WAT    EPW 1350   4.392   5.224   1.938 -1.0145 -0.7167 -0.4557
  158WAT      O 1351   2.448   0.954   5.023 -0.4377 -0.0417 -0.2403
  158WAT     H1 1352   2.384   1.007   4.998 -0.4817  0.2787  0.5202
  158WAT     H2 1353   2.407   0.880   5.045 -0.6427  0.4386  1.0299
  158WAT    EPW 1354   2.433   0.951   5.022 -0.4745  0.0766  0.0597
  159WAT      O 1355   5.758   0.690   6.365  0.0751 -0.1235 -0.5203
  159WAT     H1 1356   5.687   0.714   6.320 -0.7298 -2.0461 -0.3862
  159WAT     H2 1357   5.776   0.760   6.414 -1.8667  0.3414 -0.3977
  159WAT    EPW 1358   5.750   0.704   6.366 -0.3306 -0.3388 -0.4823
  160WAT      O 1359   5.436   4.548   5.354  0.1502  0.5628  0.1529
  160WAT     H1 1360   5.420   4.574   5.435 -0.1376 -0.2861  0.3758
  160WAT     H2 1361   5.464   4.466   5.363  0.5128  0.5925 -0.5715
  160WAT    EPW 1362   5.438   4.540   5.367  0.1612  0.4418  0.0788
  161WAT      O 1363   6.519   6.887   0.529  0.0393  0.4629  0.4331
  161WAT     H1 1364   6.585   6.847   0.489  3.1302 -0.4069  5.5057
  161WAT     H2 1365   6.557   6.951   0.574 -2.5018  0.1740  3.4049
  161WAT    EPW 1366   6.534   6.891   0.530  0.1205  0.2917  1.6214
  162WAT      O 1367   2.115   7.646   2.118 -0.4099  0.4678  0.1002
  162WAT     H1 1368   2.187   7.603   2.139 -1.5941 -1.5857  0.2262
  162WAT     H2 1369   2.111   7.710   2.177  0.5730 -0.2348  0.9638
  162WAT    EPW 1370   2.125   7.649   2.130 -0.4396  0.0607  0.2464
  163WAT      O 1371   6.544   5.453   6.364  0.2851 -0.1576  0.4359
  163WAT     H1 1372   6.476   5.403   6.342  0.3588 -0.5478  1.0435
  163WAT     H2 1373   6.513   5.534   6.359 -0.4767 -0.3673  1.4812
  163WAT    EPW 1374   6.530   5.457   6.360  0.1834 -0.2462  0.6801
  164WAT      O 1375   5.805   2.746   0.863  0.4240  0.0074  0.0618
  164WAT     H1 1376   5.789   2.734   0.948 -1.5347  1.6632  0.0033
  164WAT     H2 1377   5.871   2.803   0.862  1.5369 -1.2252  0.4086
  164WAT    EPW 1378   5.812   2.753   0.875  0.2990  0.0699  0.1044
  165WAT      O 1379   2.133   0.533   0.193  0.0605 -0.1411 -0.2304
  165WAT     H1 1380   2.123   0.616   0.169 -1.8492  0.3599  1.9512
  165WAT     H2 1381   2.056   0.497   0.174  0.5660 -1.1920 -0.3319
  165WAT    EPW 1382   2.121   0.540   0.187 -0.1469 -0.2223  0.0769
  166WAT      O 1383   0.025   0.619   6.367 -0.2861 -0.7505 -0.1036
  166WAT     H1 1384  -0.010   0.681   6.417  2.2886  0.6099  0.1235
  166WAT     H2 1385   0.045   0.556   6.423 -3.1725 -2.1078 -0.3682
  166WAT    EPW 1386   0.023   0.619   6.383 -0.3321 -0.7500 -0.1091
  167WAT      O 1387   5.607   1.920   1.470  0.4313  0.0607 -0.2715
  167WAT     H1 1388   5.521   1.905   1.476  0.5697 -0.5614  0.2892
  167WAT     H2 1389   5.630   1.935   1.553  1.0260 -0.7217 -0.2885
  167WAT    EPW 1390   5.597   1.920   1.484  0.5396 -0.1468 -0.1912
  168WAT      O 1391   0.009   5.566   0.513 -0.9104  0.4652 -0.3844
  168WAT     H1 1392  -0.022   5.487   0.533  0.4033 -0.1121 -0.5361
  168WAT     H2 1393   0.050   5.554   0.437  0.0586  1.0937  0.0193
  168WAT    EPW 1394   0.010   5.553   0.505 -0.5732  0.4728 -0.3472
  169WAT      O 1395   1.173   7.106   0.966  0.2891 -0.0538  0.6840
  169WAT     H1 1396   1.197   7.190   0.969  0.4147  0.0079 -0.9726
  169WAT     H2 1397   1.160   7.085   1.049  2.3307  1.0184  1.3591
  169WAT    EPW 1398   1.175   7.115   0.978  0.6093  0.1137  0.5390
  170WAT      O 1399   6.681   4.888   0.025  0.7908  0.1929  0.5341
  170WAT     H1 1400   6.678   4.959   0.077 -0.1195  1.4634 -1.1599
  170WAT     H2 1401   6.597   4.864   0.019  0.8561  0.2242 -0.5577
  170WAT    EPW 1402   6.668   4.895   0.032  0.6660  0.3852  0.1226
  171WAT      O 1403   6.531   5.563   0.326  0.2493  0.0854  0.3135
  171WAT     H1 1404   6.523   5.501   0.265 -3.3533 -0.0418  0.6864
  171WAT     H2 1405   6.538   5.637   0.280  0.1849 -0.2374 -0.2195
  171WAT    EPW 1406   6.531   5.565   0.310 -0.2924  0.0189  0.2899
  172WAT      O 1407   5.619   1.213   0.971  0.4447 -0.4142 -0.1597
  172WAT     H1 1408   5.645   1.263   1.039  2.8633 -0.3027 -1.0496
  172WAT     H2 1409   5.672   1.239   0.906  1.2415 -3.5300 -0.9019
  172WAT    EPW 1410   5.631   1.224   0.971  0.9197 -0.8580 -0.4008
  173WAT      O 1411   0.123   6.000   6.250  0.1806  0.3938 -0.0062
  173WAT     H1 1412   0.205   5.970   6.259  0.4907  1.1225 -0.3096
  173WAT     H2 1413   0.102   5.978   6.169 -0.1291 -0.2708  0.2511
  173WAT    EPW 1414   0.132   5.992   6.240  0.1807  0.4033 -0.0130
  174WAT      O 1415   2.462   6.401   0.085  0.4119 -0.0109 -0.6196
  174WAT     H1 1416   2.528   6.356   0.119  0.6236 -0.3265 -1.4278
  174WAT     H2 1417   2.397   6.343   0.082 -0.3890  0.6650  1.5056
  174WAT    EPW 1418   2.462   6.386   0.089  0.3249  0.0424 -0.4250
  175WAT      O 1419   0.966   0.203   5.152  0.6881 -0.0105  0.4618
  175WAT     H1 1420   0.905   0.259   5.178  0.3956 -0.4180  0.6607
  175WAT     H2 1421   1.005   0.245   5.086 -0.2988 -0.0616 -0.1717
  175WAT    EPW 1422   0.963   0.218   5.146  0.4991 -0.0783  0.3976
  176WAT      O 1423   6.057   7.356   5.816  0.0437 -0.5889  0.3846
  176WAT     H1 1424   6.096   7.279   5.809 -0.7318 -1.1721  1.9085
  176WAT     H2 1425   6.045   7.381   5.734  0.5517 -1.9755 -0.1377
  176WAT    EPW 1426   6.061   7.348   5.803  0.0042 -0.8799  0.5326
  177WAT      O 1427   1.455   5.576   3.798 -0.2958  0.0348  0.0188
  177WAT     H1 1428   1.524   5.554   3.751 -0.6092 -1.0603  0.0503
  177WAT     H2 1429   1.398   5.607   3.739 -0.0456  0.2966 -0.0882
  177WAT    EPW 1430   1.456   5.577   3.782 -0.3052 -0.0883  0.0076
  178WAT      O 1431   4.017   5.650   4.913  0.4887 -0.0146  0.3076
  178WAT     H1 1432   3.980   5.588   4.962 -0.6452 -0.6761 -1.3217
  178WAT     H2 1433   4.027   5.612   4.836  0.8514  1.4759 -0.4105
  178WAT    EPW 1434   4.013   5.635   4.909  0.3747  0.1079 -0.0392
  179WAT      O 1435   0.513   4.992   5.822  0.0270  0.1454 -0.3943
  179WAT     H1 1436   0.475   4.980   5.900  1.5980 -1.1743  0.2279
  179WAT     H2 1437   0.503   5.077   5.807  1.2158  0.8179  2.1137
  179WAT    EPW 1438   0.506   5.002   5.831  0.4347  0.0498  0.0681
  180WAT      O 1439   7.719   6.555   6.683 -0.1516 -0.2412 -0.1190
  180WAT     H1 1440   7.761   6.480   6.695  0.1424  0.2613  2.6724
  180WAT     H2 1441   7.660   6.556   6.747  0.4041  2.2096  0.4783
  180WAT    EPW 1442   7.717   6.544   6.694 -0.0261  0.1951  0.3816
  181WAT      O 1443   0.821   4.808   4.994  0.4505  0.3597  0.3345
  181WAT     H1 1444   0.839   4.887   4.962  2.4586  0.7926  2.2600
  181WAT     H2 1445   0.884   4.758   4.961 -0.2791 -0.2340 -0.1558
  181WAT    EPW 1446   0.833   4.813   4.984  0.6393  0.3359  0.5465
  182WAT      O 1447   5.630   4.445   3.419  0.8018  0.3867  0.1191
  182WAT     H1 1448   5.688   4.383   3.399  0.4492  0.4135 -1.0938
  182WAT     H2 1449   5.568   4.434   3.358 -0.8022 -0.0606  1.7656
  182WAT    EPW 1450   5.629   4.434   3.407  0.5128  0.3246  0.1831
  183WAT      O 1451   7.649   4.852   6.056 -1.0838 -0.4726 -0.1709
  183WAT     H1 1452   7.712   4.821   6.107 -1.6845  0.9805  1.5715
  183WAT     H2 1453   7.681   4.843   5.976  1.6551  0.8069  0.6620
  183WAT    EPW 1454   7.663   4.846   6.052 -0.7679 -0.0690  0.2095
  184WAT      O 1455   5.350   1.663   3.121  0.2572 -0.2605  0.5133
  184WAT     H1 1456   5.288   1.613   3.087 -0.4892  0.2739  1.0493
  184WAT     H2 1457   5.424   1.621   3.101 -0.3785 -2.2649  2.0412
  184WAT    EPW 1458   5.352   1.650   3.113  0.0530 -0.4776  0.8182
  185WAT      O 1459   4.464   4.124   3.779  0.1362 -0.0463  0.2149
  185WAT     H1 1460   4.457   4.209   3.761 -0.9704 -0.3414 -0.8646
  185WAT     H2 1461   4.547   4.115   3.803  0.3957  1.2479 -0.1258
  185WAT    EPW 1462   4.475   4.136   3.780  0.0111  0.1013  0.0051
  186WAT      O 1463   5.797   7.338   5.058 -0.1502 -0.5126 -0.3739
  186WAT     H1 1464   5.778   7.279   4.997  0.0147 -0.6177 -0.3237
  186WAT     H2 1465   5.726   7.339   5.108 -1.2772  1.2453 -1.8683
  186WAT    EPW 1466   5.784   7.330   5.056 -0.2924 -0.2684 -0.5872
  187WAT      O 1467   4.421   4.543   6.245  0.1573 -0.5526 -0.2959
  187WAT     H1 1468   4.345   4.520   6.208 -0.4731  1.6505 -0.4678
  187WAT     H2 1469   4.442   4.617   6.205  0.5709  0.7789  2.2086
  187WAT    EPW 1470   4.413   4.550   6.234  0.1253 -0.0304  0.0487
  188WAT      O 1471   1.815   5.333   5.077 -0.1757  0.2767 -0.0229
  188WAT     H1 1472   1.866   5.387   5.123 -1.2617  0.2174  1.3386
  188WAT     H2 1473   1.850   5.254   5.093  1.5749  0.5130 -2.2317
  188WAT    EPW 1474   1.828   5.329   5.086 -0.0776  0.3028 -0.1481
  189WAT      O 1475   6.533   0.182   3.843  0.1472 -0.3765  0.2077
  189WAT     H1 1476   6.518   0.104   3.808 -2.7073  0.8204 -1.6431
  189WAT     H2 1477   6.480   0.185   3.912  0.1979 -0.0675  0.2379
  189WAT    EPW 1478   6.523   0.171   3.848 -0.2670 -0.1541 -0.0613
  190WAT      O 1479   0.173   0.384   4.811  0.1863 -0.1338 -0.2228
  190WAT     H1 1480   0.212   0.332   4.868  2.0076  1.2640 -0.1100
  190WAT     H2 1481   0.120   0.433   4.860  0.8907  0.2925  0.1223
  190WAT    EPW 1482   0.171   0.384   4.826  0.5594  0.1357 -0.1552
  191WAT      O 1483   3.639   6.476   4.636 -0.4860 -0.4321  0.1780
  191WAT     H1 1484   3.608   6.490   4.716  1.1091  0.0423  0.7450
  191WAT     H2 1485   3.602   6.538   4.588  1.0197  1.3484  1.2241
  191WAT    EPW 1486   3.629   6.487   4.640 -0.0279 -0.0990  0.4163
  192WAT      O 1487   1.567   7.676   1.069 -0.5327  0.1803 -0.4580
  192WAT     H1 1488   1.529   7.733   1.123 -0.9850 -0.6388  0.1180
  192WAT     H2 1489   1.649   7.671   1.098 -0.3836  0.8252 -0.7579
  192WAT    EPW 1490   1.573   7.683   1.081 -0.5775  0.1546 -0.4172
  193WAT      O 1491   6.900   2.029   7.456 -0.4233  0.2537 -0.2243
  193WAT     H1 1492   6.917   1.973   7.391  0.9894  0.1702  0.1815
  193WAT     H2 1493   6.902   1.979   7.527 -3.5309  0.0326 -0.1462
  193WAT    EPW 1494   6.903   2.013   7.457 -0.6737  0.2087 -0.1528
  194WAT      O 1495   2.509   6.651   1.306 -0.2647  0.5220 -0.5048
  194WAT     H1 1496   2.533   6.568   1.310  0.3917  0.7261  0.0659
  194WAT     H2 1497   2.578   6.691   1.271  0.8914  1.3119  2.3836
  194WAT    EPW 1498   2.522   6.645   1.302  0.0030  0.6689  0.0062
  195WAT      O 1499   5.796   0.367   5.240  0.2269  0.2688  0.0182
  195WAT     H1 1500   5.881   0.383   5.248 -0.0614  1.2696  1.3794
  195WAT     H2 1501   5.791   0.314   5.171  2.2134 -1.9152  1.3998
  195WAT    EPW 1502   5.808   0.361   5.231  0.4777  0.0940  0.4234
  196WAT      O 1503   2.147   4.865   3.549 -0.8389  0.5576 -0.0994
  196WAT     H1 1504   2.169   4.800   3.602 -0.1298  0.1549 -0.8651
  196WAT     H2 1505   2.219   4.914   3.546 -0.6972  0.3109 -1.0560
  196WAT    EPW 1506   2.161   4.863   3.556 -0.7132  0.4617 -0.3538
  197WAT      O 1507   5.443   2.570   6.333  0.1665 -0.1975 -0.0182
  197WAT     H1 1508   5.408   2.597   6.408  0.2405  0.6562 -0.2724
  197WAT     H2 1509   5.516   2.619   6.326  0.1603 -0.2676 -0.6367
  197WAT    EPW 1510   5.449   2.581   6.343  0.1766 -0.0818 -0.1471
  198WAT      O 1511   6.072   0.970   5.218 -0.0695  0.8515  0.6911
  198WAT     H1 1512   6.131   0.978   5.154  0.3226  0.9984  1.0662
  198WAT     H2 1513   6.013   0.915   5.185 -0.6453  2.0359 -0.3738
  198WAT    EPW 1514   6.072   0.963   5.204 -0.0967  1.0482  0.5892
  199WAT      O 1515   4.765   7.351   0.622  0.0191 -0.0115  0.3217
  199WAT     H1 1516   4.798   7.271   0.636  1.3470  0.2232 -1.1057
  199WAT     H2 1517   4.794   7.397   0.690  2.5841  0.1168 -0.7277
  199WAT    EPW 1518   4.774   7.346   0.634  0.5941  0.0421 -0.0442
  200WAT      O 1519   5.763   1.802   2.666 -0.0171 -0.4347 -0.1851
  200WAT     H1 1520   5.698   1.750   2.640 -1.0362 -0.1197  1.5649
  200WAT     H2 1521   5.723   1.865   2.711  1.4486  0.0650  0.4942
  200WAT    EPW 1522   5.747   1.803   2.669  0.0489 -0.3143  0.1738
  201WAT      O 1523   5.539   6.865   2.489  0.3876 -0.0417 -0.5381
  201WAT     H1 1524   5.517   6.923   2.551  0.7489 -0.9031  0.4363
  201WAT     H2 1525   5.465   6.820   2.477  0.5773 -0.5327  0.0382
  201WAT    EPW 1526   5.525   6.867   2.497  0.4690 -0.2415 -0.3090
  202WAT      O 1527   3.423   5.577   5.647 -0.4471  0.8028  0.3570
  202WAT     H1 1528   3.340   5.555   5.666 -0.5599  1.0709  0.1876
  202WAT     H2 1529   3.449   5.512   5.594  0.6101 -1.1683  3.0957
  202WAT    EPW 1530   3.414   5.564   5.642 -0.3076  0.5512  0.7365
  203WAT      O 1531   5.699   4.583   7.122  0.2772  0.5983  0.2620
  203WAT     H1 1532   5.781   4.569   7.097 -0.2708 -0.4956 -1.0459
  203WAT     H2 1533   5.671   4.643   7.065  0.3833  1.6098  1.2296
  203WAT    EPW 1534   5.707   4.590   7.110  0.2119  0.5861  0.2117
  204WAT      O 1535   5.772   7.144   1.961  0.5087  0.7926 -0.6394
  204WAT     H1 1536   5.818   7.071   1.950  1.0677  0.6643  1.9459
  204WAT     H2 1537   5.831   7.208   1.956  0.5063  0.8401 -0.1360
  204WAT    EPW 1538   5.787   7.143   1.959  0.5909  0.7806 -0.1832
  205WAT      O 1539   0.785   1.805   4.612  0.1624  0.2171  0.0164
  205WAT     H1 1540   0.731   1.829   4.676  0.6850 -1.0063  0.9543
  205WAT     H2 1541   0.842   1.871   4.607 -0.2096  0.5730  0.4152
  205WAT    EPW 1542   0.786   1.818   4.621  0.1846  0.0890  0.2139
  206WAT      O 1543   6.543   1.259   6.452 -0.3292 -0.3180 -0.1336
  206WAT     H1 1544   6.498   1.236   6.381 -0.6599 -0.2403  0.0463
  206WAT     H2 1545   6.607   1.200   6.456 -1.7410 -1.8764  0.8992
  206WAT    EPW 1546   6.546   1.247   6.442 -0.5866 -0.5367  0.0456
  207WAT      O 1547   6.471   3.220   5.019 -0.2625  0.4446 -0.1774
  207WAT     H1 1548   6.540   3.247   5.065 -0.5026 -0.5587  0.8112
  207WAT     H2 1549   6.403   3.252   5.063 -0.4964 -0.5462  0.1919
  207WAT    EPW 1550   6.471   3.229   5.032 -0.3325  0.1501  0.0232
  208WAT      O 1551   2.791   7.594   3.688 -0.0545 -0.4789  0.6526
  208WAT     H1 1552   2.823   7.607   3.768  0.0319 -1.7990  0.8629
  208WAT     H2 1553   2.705   7.589   3.701 -0.0077 -1.1189  0.7354
  208WAT    EPW 1554   2.783   7.595   3.701 -0.0348 -0.7685  0.6959
  209WAT      O 1555   2.433   1.144   2.418 -0.3896 -0.0366  0.6209
  209WAT     H1 1556   2.458   1.208   2.471 -1.6236  0.8631  0.1713
  209WAT     H2 1557   2.346   1.149   2.420 -0.4845 -0.8524 -0.4560
  209WAT    EPW 1558   2.424   1.154   2.426 -0.5859 -0.0242  0.3954
  210WAT      O 1559   6.943   5.426   3.846  0.1634  0.0440  0.0630
  210WAT     H1 1560   6.990   5.352   3.842 -1.0737 -0.8042  0.6082
  210WAT     H2 1561   7.000   5.484   3.878  0.3291 -1.4657  2.8838
  210WAT    EPW 1562   6.959   5.424   3.850  0.0052 -0.3043  0.5602
  211WAT      O 1563   5.606   5.163   2.659  0.1388  0.7157  0.5195
  211WAT     H1 1564   5.671   5.200   2.614  0.3673 -1.6550 -1.2842
  211WAT     H2 1565   5.647   5.116   2.719  0.3663 -2.2073 -1.7223
  211WAT    EPW 1566   5.622   5.162   2.661  0.2061 -0.0663 -0.0781
  212WAT      O 1567   5.097   7.360   6.706 -0.4105  0.1511 -0.1841
  212WAT     H1 1568   5.172   7.330   6.741 -0.9756  0.2145  1.1144
  212WAT     H2 1569   5.116   7.443   6.687 -0.5782  0.6090  1.5163
  212WAT    EPW 1570   5.111   7.368   6.708 -0.5188  0.2281  0.2589
  213WAT      O 1571   6.394   1.101   0.274  0.4593 -0.1698  0.2537
  213WAT     H1 1572   6.430   1.028   0.242  1.5960 -0.2586  1.6289
  213WAT     H2 1573   6.423   1.163   0.220 -0.3242 -0.6755 -0.7934
  213WAT    EPW 1574   6.404   1.099   0.261  0.5115 -0.2576  0.3022
  214WAT      O 1575   4.833   6.396   4.575  0.3496 -0.1560 -0.9701
  214WAT     H1 1576   4.769   6.428   4.625 -1.1774 -3.7166 -0.3432
  214WAT     H2 1577   4.879   6.467   4.552 -1.8331  2.2008  1.3111
  214WAT    EPW 1578   4.830   6.411   4.579 -0.1984 -0.3338 -0.5405
  215WAT      O 1579   3.675   1.214   4.097  0.0263 -0.2577 -0.5995
  215WAT     H1 1580   3.712   1.159   4.152 -0.9658 -0.4124 -0.0532
  215WAT     H2 1581   3.595   1.181   4.086 -0.3050  0.6075 -0.9112
  215WAT    EPW 1582   3.668   1.201   4.103 -0.1692 -0.1527 -0.5648
  216WAT      O 1583   4.895   5.862   4.232  0.0989  0.2691  0.2865
  216WAT     H1 1584   4.933   5.810   4.290  1.3387  0.8664  0.0459
  216WAT     H2 1585   4.823   5.890   4.273  0.2336 -0.4049  0.9946
  216WAT    EPW 1586   4.890   5.859   4.247  0.3020  0.2578  0.3555
  217WAT      O 1587   1.713   4.397   4.790 -0.3791  0.0428 -0.5837
  217WAT     H1 1588   1.731   4.479   4.769 -2.6370  0.6311 -0.5074
  217WAT     H2 1589   1.672   4.366   4.719 -3.1829  0.3399  0.7827
  217WAT    EPW 1590   1.709   4.404   4.776 -1.1268  0.1736 -0.3706
  218WAT      O 1591   5.967   7.431   5.564  0.9099 -0.3899 -0.6234
  218WAT     H1 1592   5.971   7.487   5.497  1.9624 -0.2590 -0.4726
  218WAT     H2 1593   5.953   7.354   5.525  0.6450 -0.1948 -0.9234
  218WAT    EPW 1594   5.965   7.428   5.548  1.0263 -0.3418 -0.6454
  219WAT      O 1595   6.631   6.151   5.384 -0.3489  0.3875  0.2836
  219WAT     H1 1596   6.617   6.071   5.417  0.8235 -0.6966 -1.6537
  219WAT     H2 1597   6.598   6.204   5.445 -0.1572 -1.5145  2.1716
  219WAT    EPW 1598   6.624   6.147   5.398 -0.1474 -0.0536  0.2763
  220WAT      O 1599   5.997   2.545   0.844 -0.2290 -0.4867 -0.2182
  220WAT     H1 1600   5.932   2.602   0.850  0.4315  0.0831  2.6850
  220WAT     H2 1601   6.002   2.510   0.923  2.5217 -1.0449 -0.5238
  220WAT    EPW 1602   5.988   2.548   0.856  0.2749 -0.4850  0.1655
  221WAT      O 1603   6.460   1.731   3.684 -0.0927 -0.0300  0.2094
  221WAT     H1 1604   6.426   1.740   3.605  2.0267  0.8629 -0.6802
  221WAT     H2 1605   6.467   1.644   3.694  0.3413 -0.1384 -0.9327
  221WAT    EPW 1606   6.456   1.719   3.674  0.2845  0.0859 -0.0907
  222WAT      O 1607   4.836   1.833   5.694  0.7069  0.2395 -0.4191
  222WAT     H1 1608   4.882   1.797   5.629  2.7852  0.2711  0.9352
  222WAT     H2 1609   4.754   1.833   5.664  1.4406 -0.6417 -2.6157
  222WAT    EPW 1610   4.831   1.828   5.680  1.1223  0.1140 -0.5435
  223WAT      O 1611   7.331   3.737   7.001 -0.1230  0.5419  0.6948
  223WAT     H1 1612   7.269   3.726   7.062  0.1662  1.4689  1.1646
  223WAT     H2 1613   7.397   3.687   7.029 -0.8915 -1.0629 -0.1986
  223WAT    EPW 1614   7.331   3.728   7.014 -0.1938  0.4418  0.6323
  224WAT      O 1615   0.906   1.634   5.053 -0.2393  0.3887 -0.0910
  224WAT     H1 1616   0.884   1.633   4.968  0.0992 -2.0105 -0.2094
  224WAT     H2 1617   0.858   1.570   5.088 -0.2156  1.1928  1.5211
  224WAT    EPW 1618   0.896   1.625   5.046 -0.1858  0.1531  0.1296
  225WAT      O 1619   7.159   0.583   4.605  0.2519 -0.2535  0.8352
  225WAT     H1 1620   7.161   0.602   4.690 -0.4389  1.5768  0.5026
  225WAT     H2 1621   7.077   0.554   4.593  0.4167 -0.7197  0.8299
  225WAT    EPW 1622   7.147   0.582   4.616  0.1742 -0.0520  0.7853
  226WAT      O 1623   5.143   0.356   2.967  0.5029  0.4023 -0.1080
  226WAT     H1 1624   5.207   0.392   3.014 -0.0727  0.5475  0.5858
  226WAT     H2 1625   5.071   0.392   3.001 -0.0440 -0.8220  0.0825
  226WAT    EPW 1626   5.142   0.367   2.979  0.3371  0.2429  0.0227
  227WAT      O 1627   3.732   2.102   5.692 -0.0566 -0.1032  0.6885
  227WAT     H1 1628   3.801   2.151   5.714  0.8164 -2.1606  3.0184
  227WAT     H2 1629   3.768   2.025   5.672 -1.5818 -0.7349  0.2236
  227WAT    EPW 1630   3.748   2.098   5.692 -0.1529 -0.5005  0.9640
  228WAT      O 1631   6.018   0.856   5.982  0.4235 -0.4073  0.0836
  228WAT     H1 1632   5.979   0.820   6.051 -1.1919 -0.5015 -0.8362
  228WAT     H2 1633   6.068   0.791   5.951 -1.5162 -1.5385 -0.8387
  228WAT    EPW 1634   6.020   0.841   5.987 -0.1017 -0.5883 -0.1885
  229WAT      O 1635   1.854   5.721   5.548 -0.2423 -0.0957 -0.0843
  229WAT     H1 1636   1.799   5.777   5.509 -1.5249 -2.0397 -1.2128
  229WAT     H2 1637   1.832   5.644   5.514  2.4590 -1.1282  0.3177
  229WAT    EPW 1638   1.843   5.718   5.537 -0.0327 -0.5354 -0.1916
  230WAT      O 1639   7.028   7.605   4.912  0.1348  0.3433 -0.2774
  230WAT     H1 1640   7.080   7.649   4.967 -0.6191 -0.7019  1.3547
  230WAT     H2 1641   6.948   7.626   4.939 -0.2724  0.3796 -1.4808
  230WAT    EPW 1642   7.024   7.615   4.924 -0.0367  0.1943 -0.2141
  231WAT      O 1643   4.130   1.334   6.710 -0.6567  0.4898  0.7024
  231WAT     H1 1644   4.173   1.407   6.691  2.5987 -1.3813  0.1297
  231WAT     H2 1645   4.182   1.295   6.769 -2.0172 -1.5947  0.6124
  231WAT    EPW 1646   4.144   1.339   6.716 -0.3768 -0.0945  0.6045
  232WAT      O 1647   7.721   5.799   4.345  0.4273 -0.4726 -1.0002
  232WAT     H1 1648   7.659   5.779   4.403 -0.1837  1.7213 -0.8272
  232WAT     H2 1649   7.676   5.813   4.271  0.2072  3.7101 -0.3065
  232WAT    EPW 1650   7.705   5.798   4.343  0.3046  0.4693 -0.8722
  233WAT      O 1651   4.541   1.310   5.843  0.2713  0.2451  0.1201
  233WAT     H1 1652   4.581   1.235   5.860  1.2400  0.8195  0.4391
  233WAT     H2 1653   4.565   1.363   5.908  0.1923  1.0489 -0.4771
  233WAT    EPW 1654   4.550   1.307   5.855  0.4027  0.4487  0.0790
  234WAT      O 1655   0.485   6.587   5.923  0.3346 -0.0023  0.3012
  234WAT     H1 1656   0.463   6.647   5.864 -0.7595 -2.0301 -1.5252
  234WAT     H2 1657   0.539   6.534   5.880 -1.7880 -2.4972  0.4347
  234WAT    EPW 1658   0.490   6.588   5.908 -0.1406 -0.6704  0.0511
  235WAT      O 1659   4.784   4.025   7.085 -0.4212  0.3140  0.2478
  235WAT     H1 1660   4.800   4.005   7.168 -0.6637 -0.9750  0.0102
  235WAT     H2 1661   4.703   4.056   7.086  0.2017  2.0303  0.7249
  235WAT    EPW 1662   4.774   4.027   7.097 -0.3650  0.3771  0.2832
  236WAT      O 1663   6.174   6.788   1.114  0.0942 -0.5254  0.1568
  236WAT     H1 1664   6.125   6.717   1.127 -0.9068  0.2906  0.9815
  236WAT     H2 1665   6.145   6.819   1.038  1.1916 -1.4867 -0.6974
  236WAT    EPW 1666   6.162   6.782   1.105  0.1084 -0.5469  0.1524
  237WAT      O 1667   6.457   1.533   5.656  0.1772  0.3261 -0.5721
  237WAT     H1 1668   6.485   1.616   5.657 -1.3847  0.8899 -0.6358
  237WAT     H2 1669   6.474   1.507   5.574  2.0749  0.0506 -0.1204
  237WAT    EPW 1670   6.464   1.542   5.644  0.2268  0.3687 -0.5148
  238WAT      O 1671   0.292   2.948   6.442  0.1039  0.1732 -0.1347
  238WAT     H1 1672   0.329   2.878   6.407  1.2271 -0.3620  1.9546
  238WAT     H2 1673   0.210   2.923   6.457  0.2681 -0.4049 -0.1941
  238WAT    EPW 1674   0.285   2.934   6.439  0.2941  0.0087  0.1652
  239WAT      O 1675   5.269   0.135   5.168  0.3378  0.2450 -0.7750
  239WAT     H1 1676   5.204   0.172   5.122 -1.1581  1.6634  2.1915
  239WAT     H2 1677   5.296   0.200   5.220  1.6454 -1.3467  0.6193
  239WAT    EPW 1678   5.263   0.150   5.169  0.3100  0.2194 -0.1308
  240WAT      O 1679   5.709   3.857   4.270 -0.8338  0.5348 -0.4714
  240WAT     H1 1680   5.736   3.931   4.233 -1.6017 -0.3909 -3.1288
  240WAT     H2 1681   5.665   3.817   4.206 -0.7493 -2.0625  0.9533
  240WAT    EPW 1682   5.707   3.862   4.255 -0.9347  0.0144 -0.6535
  241WAT      O 1683   0.309   3.231   7.708 -0.0162 -0.3295 -0.0597
  241WAT     H1 1684   0.235   3.278   7.707 -0.3000 -0.7588  0.5842
  241WAT     H2 1685   0.303   3.184   7.781  0.9206 -0.3367  0.0256
  241WAT    EPW 1686   0.297   3.231   7.719  0.0802 -0.3940  0.0480
  242WAT      O 1687   3.550   6.515   5.324 -0.8814 -0.2366 -1.1187
  242WAT     H1 1688   3.493   6.578   5.343 -2.2922 -0.2426 -4.5065
  242WAT     H2 1689   3.502   6.459   5.277  1.2138 -1.8845 -1.4207
  242WAT    EPW 1690   3.534   6.516   5.320 -0.7803 -0.4809 -1.6638
  243WAT      O 1691   7.011   3.720   6.298 -0.6272 -0.1977  0.3711
  243WAT     H1 1692   7.071   3.773   6.333  0.3974 -0.9020 -0.2796
  243WAT     H2 1693   6.991   3.759   6.223  0.6489 -1.0491 -0.4448
  243WAT    EPW 1694   7.017   3.734   6.292 -0.2874 -0.4275  0.1544
  244WAT      O 1695   4.518   2.491   0.649  0.9137  0.1494  0.0119
  244WAT     H1 1696   4.601   2.518   0.655  0.6534  1.5355 -1.8973
  244WAT     H2 1697   4.473   2.555   0.686  0.7020 -1.2555  2.3766
  244WAT    EPW 1698   4.524   2.504   0.655  0.8440  0.1466  0.0792
  245WAT      O 1699   5.303   4.668   1.079  0.1572 -0.3649 -0.2528
  245WAT     H1 1700   5.230   4.676   1.127  0.9825 -2.0043  1.3861
  245WAT     H2 1701   5.326   4.751   1.065 -0.2964  0.2199  1.9802
  245WAT    EPW 1702   5.295   4.681   1.084  0.2121 -0.5207  0.3191
  246WAT      O 1703   2.141   6.350   7.204  0.1182 -0.3907  0.0137
  246WAT     H1 1704   2.064   6.376   7.172 -1.3819 -1.2174  2.6469
  246WAT     H2 1705   2.178   6.425   7.231 -0.4186 -0.1288  0.0412
  246WAT    EPW 1706   2.135   6.365   7.204 -0.1827 -0.4741  0.4067
  247WAT      O 1707   5.893   5.223   7.790  0.2988  0.0138  0.0426
  247WAT     H1 1708   5.817   5.266   7.791 -0.6010 -1.4070 -1.7763
  247WAT     H2 1709   5.952   5.285   7.808 -0.9885  1.8960 -1.8110
  247WAT    EPW 1710   5.891   5.239   7.793 -0.0243  0.0819 -0.4999
  248WAT      O 1711   4.231   0.198   1.701 -0.5249 -0.1700  0.1524
  248WAT     H1 1712   4.169   0.146   1.668  0.1610 -0.6180 -0.4419
  248WAT     H2 1713   4.289   0.142   1.735 -0.3292  0.2361  0.4945
  248WAT    EPW 1714   4.230   0.182   1.701 -0.3947 -0.1762  0.1152
  249WAT      O 1715   4.267   6.845   7.530  0.1342 -0.6522 -0.2844
  249WAT     H1 1716   4.313   6.917   7.514  0.3437 -0.8564 -0.6143
  249WAT     H2 1717   4.218   6.867   7.599  2.4072 -1.1686  1.6403
  249WAT    EPW 1718   4.266   6.859   7.538  0.5009 -0.7587 -0.0488
  250WAT      O 1719   3.692   5.398   6.344  0.1224 -0.1606  0.2887
  250WAT     H1 1720   3.640   5.465   6.324 -2.6821 -1.9930  0.9011
  250WAT     H2 1721   3.734   5.425   6.416 -0.6600  1.0503  0.3145
  250WAT    EPW 1722   3.691   5.412   6.352 -0.4074 -0.2524  0.3830
  251WAT      O 1723   4.326   6.703   6.416  0.3714 -0.0547  0.2547
  251WAT     H1 1724   4.282   6.641   6.460  0.9364 -1.0001 -0.4633
  251WAT     H2 1725   4.404   6.666   6.403  0.6338  0.7206 -0.4052
  251WAT    EPW 1726   4.331   6.688   6.421  0.4936 -0.0798  0.0511
  252WAT      O 1727   1.095   0.116   6.765  0.6353 -0.0920 -0.1007
  252WAT     H1 1728   1.027   0.105   6.711  0.8697 -1.1184 -0.2029
  252WAT     H2 1729   1.132   0.190   6.737  1.7224 -1.4268 -2.4291
  252WAT    EPW 1730   1.090   0.125   6.753  0.8305 -0.4408 -0.4597
  253WAT      O 1731   1.331   5.863   5.579  0.2552 -0.0404  0.0307
  253WAT     H1 1732   1.248   5.873   5.552  0.5943 -0.0677 -1.0638
  253WAT     H2 1733   1.372   5.932   5.543  0.8239 -0.3617  0.0588
  253WAT    EPW 1734   1.324   5.875   5.570  0.3893 -0.0919 -0.1269
  254WAT      O 1735   7.729   7.298   5.729 -0.3726 -0.4228 -0.0266
  254WAT     H1 1736   7.667   7.303   5.791 -1.1455  2.8094 -0.9190
  254WAT     H2 1737   7.686   7.268   5.660 -1.1905  2.1679 -0.7531
  254WAT    EPW 1738   7.714   7.294   5.728 -0.6076  0.4374 -0.2657
  255WAT      O 1739   5.150   0.475   6.191  0.0624  0.3655  0.2726
  255WAT     H1 1740   5.184   0.490   6.112  0.4776  1.2898  0.6135
  255WAT     H2 1741   5.116   0.395   6.183 -0.7411  0.8106 -1.1291
  255WAT    EPW 1742   5.150   0.465   6.178  0.0050  0.5678  0.1159
  256WAT      O 1743   6.912   6.132   3.547  0.3159  0.4917 -0.0537
  256WAT     H1 1744   6.984   6.167   3.512  0.3405  1.4868  0.9512
  256WAT     H2 1745   6.863   6.201   3.568 -0.9140 -0.1693 -0.6394
  256WAT    EPW 1746   6.915   6.147   3.545  0.1378  0.5410  0.0082
  257WAT      O 1747   1.554   6.036   7.737  0.3746 -0.2911  0.3014
  257WAT     H1 1748   1.537   6.017   7.653  0.5781  0.6686  0.0256
  257WAT     H2 1749   1.605   5.970   7.763 -0.7310 -1.2770  0.0586
  257WAT    EPW 1750   1.559   6.023   7.728  0.2413 -0.2950  0.2248
  258WAT      O 1751   5.774   6.401   2.228  0.7317  0.5120 -0.2509
  258WAT     H1 1752   5.768   6.345   2.295 -0.4100 -0.7454 -1.3351
  258WAT     H2 1753   5.852   6.383   2.193 -0.0508 -1.2898 -1.2441
  258WAT    EPW 1754   5.784   6.390   2.232  0.4475  0.0601 -0.5578
  259WAT      O 1755   5.614   6.755   0.875  0.2623 -0.3974  0.0364
  259WAT     H1 1756   5.691   6.795   0.861 -0.8352  1.9749  0.1920
  259WAT     H2 1757   5.586   6.734   0.796  0.1614  0.6631 -0.2274
  259WAT    EPW 1758   5.621   6.758   0.862  0.0853  0.1097  0.0204
  260WAT      O 1759   6.327   2.050   3.478  0.0230  0.2058 -0.2931
  260WAT     H1 1760   6.362   2.118   3.521 -1.5716  1.6829 -1.2196
  260WAT     H2 1761   6.259   2.027   3.528 -0.3405  0.2789 -0.7530
  260WAT    EPW 1762   6.322   2.057   3.492 -0.2663  0.4348 -0.4979
  261WAT      O 1763   2.955   7.094   0.030  0.2657  0.0698 -0.2745
  261WAT     H1 1764   2.970   7.022  -0.017  2.8442  0.7536 -0.6543
  261WAT     H2 1765   2.970   7.158  -0.027 -0.2983  0.9256  0.5206
  261WAT    EPW 1766   2.960   7.093   0.015  0.5633  0.2973 -0.2131
  262WAT      O 1767   2.321   3.538   5.419 -0.2280 -0.3003 -0.4464
  262WAT     H1 1768   2.311   3.581   5.495  0.4704 -0.8577 -0.0290
  262WAT     H2 1769   2.248   3.558   5.375  0.2738  1.7387 -0.4813
  262WAT    EPW 1770   2.309   3.548   5.424 -0.0507 -0.0814 -0.3899
  263WAT      O 1771   2.874   5.911   1.260 -0.5682 -0.0037  0.1277
  263WAT     H1 1772   2.788   5.927   1.259 -0.4996  0.3707 -0.1779
  263WAT     H2 1773   2.879   5.825   1.274 -1.0070 -0.1004 -0.2809
  263WAT    EPW 1774   2.862   5.901   1.262 -0.6229  0.0373  0.0222
  264WAT      O 1775   4.704   5.830   2.287 -0.1162  0.4997  0.1230
  264WAT     H1 1776   4.759   5.766   2.264  0.3707  0.7805  0.4658
  264WAT     H2 1777   4.709   5.887   2.222  0.5952  0.8840  0.4973
  264WAT    EPW 1778   4.713   5.829   2.274  0.0608  0.5980  0.2289
  265WAT      O 1779   6.097   2.512   7.351  0.8263  0.1201 -0.3635
  265WAT     H1 1780   6.042   2.509   7.419 -0.1764  1.0940 -1.0912
  265WAT     H2 1781   6.158   2.569   7.377 -0.1752  1.3814 -0.6817
  265WAT    EPW 1782   6.098   2.520   7.365  0.5302  0.4503 -0.5180
  266WAT      O 1783   6.942   0.455   7.708 -0.3623 -0.5495 -0.2351
  266WAT     H1 1784   6.906   0.524   7.669 -0.6149 -0.4351  0.1908
  266WAT     H2 1785   6.927   0.390   7.652 -1.0193 -0.4530 -0.1830
  266WAT    EPW 1786   6.935   0.456   7.694 -0.4966 -0.5184 -0.1645
  267WAT      O 1787   6.783   3.221   6.535  0.2454 -0.4964 -0.1878
  267WAT     H1 1788   6.842   3.257   6.589 -0.3057 -0.8786  0.6895
  267WAT     H2 1789   6.722   3.190   6.589 -1.1348  0.5212 -1.0945
  267WAT    EPW 1790   6.783   3.222   6.551 -0.0399 -0.4025 -0.1922
  268WAT      O 1791   5.197   0.406   5.045  0.0188 -0.3191  0.1678
  268WAT     H1 1792   5.149   0.457   4.993  1.6471  0.2914 -0.7984
  268WAT     H2 1793   5.266   0.456   5.065  1.4711 -1.9681 -0.4658
  268WAT    EPW 1794   5.200   0.421   5.040  0.4738 -0.4725 -0.0685
  269WAT      O 1795   7.061   1.413   6.470  0.1834  0.6406  0.1437
  269WAT     H1 1796   7.093   1.412   6.389 -1.1790  0.0190 -0.4319
  269WAT     H2 1797   7.118   1.365   6.516  0.6085  0.4228 -0.5978
  269WAT    EPW 1798   7.074   1.406   6.465  0.0449  0.5166 -0.0509
  270WAT      O 1799   5.299   5.603   4.943  0.4869  0.1931 -0.1326
  270WAT     H1 1800   5.214   5.608   4.922  0.4431 -0.0616 -0.0223
  270WAT     H2 1801   5.299   5.604   5.030  0.6464  0.8766 -0.1384
  270WAT    EPW 1802   5.286   5.604   4.953  0.5040  0.2564 -0.1172
  271WAT      O 1803   6.394   6.169   7.507  0.4884  0.0905  0.4960
  271WAT     H1 1804   6.372   6.165   7.423 -0.9869  0.7536  0.8137
  271WAT     H2 1805   6.359   6.245   7.533 -0.2436 -0.7175  1.9979
  271WAT    EPW 1806   6.385   6.179   7.499  0.1623  0.0691  0.7648
  272WAT      O 1807   7.497   1.945   4.639 -0.5987 -0.7298 -0.3025
  272WAT     H1 1808   7.571   1.904   4.615 -0.6345 -0.4871 -0.8533
  272WAT     H2 1809   7.446   1.880   4.667  0.5039 -0.6894  1.9642
  272WAT    EPW 1810   7.500   1.929   4.639 -0.4411 -0.6880 -0.0490
  273WAT      O 1811   0.345   6.472   4.149  0.1426  0.4136 -0.0175
  273WAT     H1 1812   0.375   6.412   4.206 -0.6643 -0.5845 -0.6070
  273WAT     H2 1813   0.385   6.451   4.075  2.2747  2.5789  0.4234
  273WAT    EPW 1814   0.355   6.460   4.147  0.3383  0.5860 -0.0394
  274WAT      O 1815   5.941   7.072   2.643  0.0519  0.1070  0.1348
  274WAT     H1 1816   6.015   7.118   2.633 -0.0084 -0.0846 -1.4124
  274WAT     H2 1817   5.879   7.126   2.614 -0.3365  0.0095  0.7701
  274WAT    EPW 1818   5.943   7.087   2.637 -0.0144  0.0643  0.0001
  275WAT      O 1819   6.478   7.098   6.993  0.2833  0.0793 -0.0189
  275WAT     H1 1820   6.532   7.127   6.931  3.3795  0.0606  2.4125
  275WAT     H2 1821   6.484   7.158   7.056 -1.5139 -0.6515  0.9314
  275WAT    EPW 1822   6.487   7.111   6.994  0.4752 -0.0314  0.4807
  276WAT      O 1823   6.756   5.098   7.671  0.0864  0.0343  0.1530
  276WAT     H1 1824   6.735   5.153   7.735 -0.3090 -1.2630  1.2059
  276WAT     H2 1825   6.726   5.021   7.701 -0.5168 -0.5409 -1.8013
  276WAT    EPW 1826   6.749   5.095   7.685 -0.0611 -0.2423  0.0198
  277WAT      O 1827   4.845   6.407   1.872 -0.4749 -0.0513  0.2163
  277WAT     H1 1828   4.900   6.408   1.939  0.9107 -1.7585 -0.7949
  277WAT     H2 1829   4.823   6.490   1.861  0.6764  0.4715  1.6322
  277WAT    EPW 1830   4.850   6.419   1.880 -0.1002 -0.2263  0.2761
  278WAT      O 1831   0.825   4.944   5.619 -0.0883  0.1968  0.3860
  278WAT     H1 1832   0.865   4.967   5.693  1.1065  0.2905 -0.2485
  278WAT     H2 1833   0.758   5.000   5.613  0.4174  0.8703  0.8819
  278WAT    EPW 1834   0.821   4.956   5.629  0.1629  0.3101  0.3655
  279WAT      O 1835   0.687   7.267   3.915  0.0113 -0.7574  0.3400
  279WAT     H1 1836   0.610   7.303   3.897  1.2593  1.9936 -0.1701
  279WAT     H2 1837   0.708   7.302   3.993  0.0233 -2.8802  1.3613
  279WAT    EPW 1838   0.679   7.278   3.924  0.1974 -0.6646  0.4155
  280WAT      O 1839   2.640   6.388   1.505  0.3065  0.0729  0.0005
  280WAT     H1 1840   2.569   6.346   1.477 -0.2638  1.1405 -0.2084
  280WAT     H2 1841   2.666   6.341   1.573 -0.3177 -0.6053 -0.2150
  280WAT    EPW 1842   2.634   6.375   1.511  0.1301  0.1304 -0.0622
  281WAT      O 1843   4.944   7.202   3.081  0.2771  0.6507  0.3585
  281WAT     H1 1844   4.954   7.123   3.046 -1.7292  0.1110  0.8671
  281WAT     H2 1845   4.957   7.256   3.015  2.5619 -0.0194  0.1866
  281WAT    EPW 1846   4.947   7.198   3.066  0.3182  0.4720  0.4082
  282WAT      O 1847   5.066   6.607   4.537 -0.0691  0.1715 -0.2038
  282WAT     H1 1848   5.030   6.685   4.553  2.2027  1.0512  1.0999
  282WAT     H2 1849   5.063   6.601   4.450 -0.6460  1.5434 -0.3138
  282WAT    EPW 1850   5.060   6.618   4.526  0.1812  0.5041 -0.0275
  283WAT      O 1851   4.823   6.149   4.442 -0.0402 -0.4211  0.0126
  283WAT     H1 1852   4.904   6.118   4.436  0.0898  0.1482 -2.3194
  283WAT     H2 1853   4.833   6.224   4.486  0.7525 -0.2281 -0.4722
  283WAT    EPW 1854   4.836   6.156   4.447  0.0961 -0.3085 -0.4035
  284WAT      O 1855   4.836   6.380   0.046 -0.4127  0.2540 -0.9247
  284WAT     H1 1856   4.763   6.427   0.055 -0.9422 -0.7023  0.1212
  284WAT     H2 1857   4.857   6.360   0.128  1.0941  0.5805 -1.2078
  284WAT    EPW 1858   4.828   6.384   0.059 -0.2683  0.1609 -0.8120
  285WAT      O 1859   0.066   5.219   5.317  0.8356  0.0683  0.2955
  285WAT     H1 1860   0.077   5.293   5.271  1.3267 -0.3842 -0.3337
  285WAT     H2 1861  -0.002   5.237   5.369 -1.5529 -0.2197 -2.4544
  285WAT    EPW 1862   0.057   5.232   5.318  0.5553 -0.0411 -0.2037
  286WAT      O 1863   7.451   5.890   3.903 -0.3537  0.2656 -0.0529
  286WAT     H1 1864   7.505   5.957   3.919  1.5059 -0.3772 -2.8544
  286WAT     H2 1865   7.383   5.928   3.864 -0.2483  0.7148  0.1890
  286WAT    EPW 1866   7.449   5.906   3.900 -0.0634  0.2370 -0.4310
  287WAT      O 1867   6.627   3.686   4.083  0.0093  0.5358  0.1947
  287WAT     H1 1868   6.706   3.713   4.106  0.2689 -1.0901  1.4115
  287WAT     H2 1869   6.574   3.729   4.138  0.4930 -1.9177  2.8307
  287WAT    EPW 1870   6.631   3.696   4.095  0.1191 -0.0668  0.7639
  288WAT      O 1871   5.575   6.560   3.954 -0.0489  0.3184  0.6206
  288WAT     H1 1872   5.515   6.614   3.987 -1.6350 -1.2130  0.3693
  288WAT     H2 1873   5.602   6.515   4.023 -0.0462  0.2202  0.5557
  288WAT    EPW 1874   5.570   6.562   3.969 -0.2828  0.0777  0.5739
  289WAT      O 1875   2.332   2.777   5.476  0.0343  0.6782 -0.1944
  289WAT     H1 1876   2.344   2.702   5.519  0.1470 -0.6894 -2.4624
  289WAT     H2 1877   2.360   2.838   5.533  2.0174 -1.1387  0.9398
  289WAT    EPW 1878   2.338   2.775   5.491  0.3439  0.2078 -0.3619
  290WAT      O 1879   4.821   3.791   7.691  0.0801  0.5072  0.2072
  290WAT     H1 1880   4.853   3.746   7.759 -3.2883 -0.0138  1.6423
  290WAT     H2 1881   4.789   3.730   7.638 -1.6384  1.0101  0.5975
  290WAT    EPW 1882   4.821   3.775   7.693 -0.6713  0.5045  0.4769
  291WAT      O 1883   5.219   3.455   4.095 -0.6688 -0.3382 -0.6439
  291WAT     H1 1884   5.227   3.511   4.161 -3.6216  1.0806 -1.3287
  291WAT     H2 1885   5.157   3.400   4.122 -0.3763 -1.0720 -1.4074
  291WAT    EPW 1886   5.211   3.455   4.109 -1.0618 -0.2370 -0.8579
  292WAT      O 1887   3.627   4.028   2.037 -0.1976 -0.4965  0.5918
  292WAT     H1 1888   3.547   4.002   2.013  0.8043 -2.1325 -1.2142
  292WAT     H2 1889   3.652   3.967   2.094 -0.8830  1.0480  2.6787
  292WAT    EPW 1890   3.619   4.015   2.042 -0.1509 -0.5100  0.6333
  293WAT      O 1891   4.871   4.735   2.474  0.2176 -0.1495 -0.2004
  293WAT     H1 1892   4.887   4.654   2.445 -0.2511 -0.6721  0.9170
  293WAT     H2 1893   4.826   4.721   2.548 -1.6180  1.1669 -0.9961
  293WAT    EPW 1894   4.867   4.721   2.481 -0.1228 -0.0322 -0.1529
  294WAT      O 1895   1.141   0.808   4.724  0.1741  0.5220  0.0173
  294WAT     H1 1896   1.108   0.878   4.683 -2.3205 -0.3606  0.3055
  294WAT     H2 1897   1.169   0.840   4.800  0.0555  1.3859 -0.2942
  294WAT    EPW 1898   1.140   0.823   4.729 -0.2119  0.5193  0.0139
  295WAT      O 1899   0.587   5.887   7.316  0.0835 -0.2874 -0.7747
  295WAT     H1 1900   0.561   5.882   7.399  0.4237  0.8380 -0.5976
  295WAT     H2 1901   0.549   5.959   7.286 -0.1624 -0.7632 -1.6535
  295WAT    EPW 1902   0.577   5.897   7.324  0.0974 -0.1914 -0.8783
  296WAT      O 1903   3.024   0.365   5.018  0.1583 -0.2459  0.2575
  296WAT     H1 1904   2.944   0.362   5.053 -0.0116  1.1496  0.0717
  296WAT     H2 1905   3.012   0.335   4.937 -0.0516 -0.6313  0.4287
  296WAT    EPW 1906   3.010   0.360   5.011  0.1022 -0.0967  0.2553
  297WAT      O 1907   4.936   1.930   3.789 -0.7511  0.3456  0.0424
  297WAT     H1 1908   5.014   1.895   3.802 -1.5277 -0.7470  2.4270
  297WAT     H2 1909   4.912   1.900   3.710  0.2044 -1.3950  0.3684
  297WAT    EPW 1910   4.944   1.920   3.779 -0.7247 -0.0729  0.4428
  298WAT      O 1911   6.574   6.599   5.940  0.0283 -0.4288  0.1010
  298WAT     H1 1912   6.604   6.665   5.989  0.2730  0.1779 -0.8267
  298WAT     H2 1913   6.519   6.557   5.993 -1.1057  1.2527  0.3415
  298WAT    EPW 1914   6.570   6.603   5.955 -0.1031 -0.0908 -0.0005
  299WAT      O 1915   5.867   3.646   6.796  0.2935 -0.4422 -0.5552
  299WAT     H1 1916   5.838   3.590   6.857  0.0299  0.5599  0.2650
  299WAT     H2 1917   5.851   3.604   6.721 -3.6359  0.0935 -0.2257
  299WAT    EPW 1918   5.860   3.631   6.794 -0.3259 -0.2150 -0.3854
  300WAT      O 1919   6.957   0.143   0.495  0.8827  0.2967  0.0321
  300WAT     H1 1920   7.037   0.141   0.461  0.7776 -0.1382 -0.1927
  300WAT     H2 1921   6.917   0.206   0.450  0.4520 -0.8939 -1.3151
  300WAT    EPW 1922   6.963   0.152   0.484  0.8036  0.0565 -0.2001
  301WAT      O 1923   6.422   6.152   4.553  0.4502  0.5922 -0.5471
  301WAT     H1 1924   6.506   6.159   4.576 -0.2093  1.3495  1.9563
  301WAT     H2 1925   6.379   6.179   4.624 -1.9802 -1.4371 -1.1042
  301WAT    EPW 1926   6.428   6.157   4.567 -0.0062  0.4043 -0.2596
  302WAT      O 1927   4.968   3.992   4.536 -0.4809 -0.6103 -0.8302
  302WAT     H1 1928   4.984   3.975   4.452 -1.4871  0.7674 -1.3315
  302WAT     H2 1929   4.883   3.972   4.545 -0.5545 -0.1036 -0.3155
  302WAT    EPW 1930   4.958   3.986   4.525 -0.6404 -0.3320 -0.8282
  303WAT      O 1931   1.544   3.049   4.203 -0.0588 -0.6501  0.2579
  303WAT     H1 1932   1.629   3.065   4.192 -0.5852  1.5401 -1.2295
  303WAT     H2 1933   1.532   3.059   4.289  0.8652  1.1060  0.2309
  303WAT    EPW 1934   1.555   3.053   4.214 -0.0001 -0.0671  0.0342
  304WAT      O 1935   6.601   4.956   6.036 -0.0682  0.5086 -0.2153
  304WAT     H1 1936   6.658   4.933   5.974 -1.0568  0.4611 -1.1122
  304WAT     H2 1937   6.555   4.883   6.050  0.0368  0.5657  0.4639
  304WAT    EPW 1938   6.603   4.942   6.029 -0.1987  0.5100 -0.2474
  305WAT      O 1939   7.480   6.993   4.355 -0.0369 -0.0764  0.1035
  305WAT     H1 1940   7.505   6.977   4.437 -1.9703  0.1879  0.7949
  305WAT     H2 1941   7.495   6.917   4.314 -2.0377 -1.3352  1.5221
  305WAT    EPW 1942   7.486   6.979   4.361 -0.6181 -0.2233  0.4152
  306WAT      O 1943   6.056   6.896   4.057 -0.2628 -0.5372  0.1504
  306WAT     H1 1944   6.077   6.976   4.028 -0.7471 -0.5543 -0.2640
  306WAT     H2 1945   6.064   6.846   3.986  0.9301 -1.0299  0.6161
  306WAT    EPW 1946   6.060   6.900   4.042 -0.1581 -0.6125  0.1580
  307WAT      O 1947   5.878   6.396   3.707  0.5242 -0.2908  0.2842
  307WAT     H1 1948   5.796   6.423   3.714  0.2343 -1.1757  0.3861
  307WAT     H2 1949   5.898   6.414   3.623  0.4086  0.3842  0.3931
  307WAT    EPW 1950   5.869   6.403   3.695  0.4643 -0.3218  0.3153
  308WAT      O 1951   3.577   0.355   5.766  0.5855 -0.7649  0.0674
  308WAT     H1 1952   3.562   0.415   5.704  1.8919 -2.2251 -1.7946
  308WAT     H2 1953   3.656   0.325   5.746  0.9978 -1.4451  2.4056
  308WAT    EPW 1954   3.587   0.360   5.754  0.8394 -1.0811  0.1377
  309WAT      O 1955   0.735   7.435   7.379 -0.2293 -0.1820  0.9773
  309WAT     H1 1956   0.775   7.435   7.301  0.1050  0.3817  1.1466
  309WAT     H2 1957   0.773   7.501   7.422 -0.5461 -0.3669  1.5513
  309WAT    EPW 1958   0.747   7.445   7.374 -0.2267 -0.1260  1.0871
  310WAT      O 1959   1.928   1.044   4.619  0.0038 -0.0419  0.3758
  310WAT     H1 1960   1.870   0.985   4.648 -0.3536  0.4809  0.7296
  310WAT     H2 1961   2.005   1.006   4.635 -0.2306 -0.7043 -0.0207
  310WAT    EPW 1962   1.931   1.029   4.626 -0.0836 -0.0625  0.3695
  311WAT      O 1963   7.071   2.272   4.558  0.4043 -0.2201  0.4506
  311WAT     H1 1964   7.143   2.239   4.596  0.3177 -0.7113  0.1944
  311WAT     H2 1965   7.024   2.201   4.540  0.0886  0.0700  0.1429
  311WAT    EPW 1966   7.075   2.257   4.561  0.3449 -0.2498  0.3673
  312WAT      O 1967   5.511   6.704   7.323  0.0285  0.2300  0.4107
  312WAT     H1 1968   5.425   6.701   7.304  0.4661 -0.0781 -1.7373
  312WAT     H2 1969   5.512   6.709   7.410 -2.1656 -0.3232  0.5301
  312WAT    EPW 1970   5.498   6.705   7.333 -0.2310  0.1027  0.1110
  313WAT      O 1971   6.027   1.730   2.612 -0.3629 -0.3026  0.2072
  313WAT     H1 1972   5.946   1.752   2.635 -0.5220 -1.3196  0.6575
  313WAT     H2 1973   6.051   1.671   2.672  0.7640  0.0729  0.1618
  313WAT    EPW 1974   6.019   1.725   2.624 -0.2199 -0.3974  0.2670
  314WAT      O 1975   7.262   1.296   4.873  0.3243 -0.0474  0.9026
  314WAT     H1 1976   7.256   1.210   4.886 -0.1243 -0.2579 -0.5733
  314WAT     H2 1977   7.192   1.328   4.913 -0.5464 -0.5780 -0.1575
  314WAT    EPW 1978   7.251   1.288   4.881  0.1294 -0.1569  0.5279
  315WAT      O 1979   7.115   5.021   6.330  0.3875  0.3647  0.3701
  315WAT     H1 1980   7.072   4.952   6.300  1.0779  0.9807 -2.3303
  315WAT     H2 1981   7.059   5.058   6.386 -1.5166 -0.2915 -1.0139
  315WAT    EPW 1982   7.100   5.016   6.334  0.2082  0.3587 -0.2332
  316WAT      O 1983   5.158   1.909   4.269  0.1524  0.5245  0.0907
  316WAT     H1 1984   5.124   1.987   4.291  0.7275  1.4350 -2.0104
  316WAT     H2 1985   5.100   1.876   4.213  0.4616 -0.0647  0.1098
  316WAT    EPW 1986   5.144   1.916   4.264  0.2830  0.5720 -0.2169
  317WAT      O 1987   5.652   7.124   7.833 -0.4868  0.7587 -0.0604
  317WAT     H1 1988   5.736   7.098   7.828  0.2802  2.8996  0.5011
  317WAT     H2 1989   5.632   7.145   7.751 -1.0167 -1.1449 -0.4669
  317WAT    EPW 1990   5.662   7.123   7.820 -0.4518  0.7937 -0.0375
  318WAT      O 1991   5.587   6.104   6.765 -0.5172 -0.2609  0.0456
  318WAT     H1 1992   5.590   6.026   6.725  0.0753  0.1243 -0.6813
  318WAT     H2 1993   5.670   6.120   6.785 -0.2244  1.3198 -2.0892
  318WAT    EPW 1994   5.600   6.095   6.762 -0.3864  0.0295 -0.3772
  319WAT      O 1995   5.932   7.454   6.034 -0.3492 -0.5524 -0.1006
  319WAT     H1 1996   5.949   7.415   5.958 -1.8277  0.1024 -0.8061
  319WAT     H2 1997   5.877   7.398   6.073 -1.2374  0.0519 -0.4436
  319WAT    EPW 1998   5.926   7.440   6.029 -0.6988 -0.3664 -0.2555
  320WAT      O 1999   5.759   7.133   6.840  0.2268  0.4521  0.2448
  320WAT     H1 2000   5.809   7.098   6.778  0.5395  2.9987 -1.0919
  320WAT     H2 2001   5.803   7.115   6.914  2.4404  1.3261 -0.7532
  320WAT    EPW 2002   5.773   7.125   6.842  0.6000  0.9574 -0.1001
  321WAT      O 2003   3.429   1.335   1.181  0.2355  0.1959  0.3698
  321WAT     H1 2004   3.504   1.374   1.202  0.7535 -0.2897 -0.5208
  321WAT     H2 2005   3.377   1.351   1.250  1.0626  0.7582  0.8770
  321WAT    EPW 2006   3.432   1.343   1.194  0.4342  0.2072  0.3132
  322WAT      O 2007   5.766   2.200   1.031 -0.5589  0.6950  0.4007
  322WAT     H1 2008   5.790   2.132   0.981  0.2483  1.3394 -0.1115
  322WAT     H2 2009   5.735   2.162   1.103  0.0647 -0.2206  0.2084
  322WAT    EPW 2010   5.765   2.184   1.034 -0.3475  0.6550  0.2967
  323WAT      O 2011   0.583   4.685   4.947  0.2580 -0.3990 -0.6169
  323WAT     H1 2012   0.642   4.749   4.958 -0.5090  0.2731 -0.3222
  323WAT     H2 2013   0.606   4.650   4.871  0.1051  0.8895 -1.2890
  323WAT    EPW 2014   0.595   4.690   4.937  0.1221 -0.1093 -0.6726
  324WAT      O 2015   3.140   7.157   7.444 -0.2377 -0.1844  0.0554
  324WAT     H1 2016   3.219   7.193   7.445  0.1994 -1.1154  0.8781
  324WAT     H2 2017   3.115   7.164   7.360  0.9277 -0.3262 -0.3266
  324WAT    EPW 2018   3.148   7.163   7.431 -0.0010 -0.3428  0.1205
  325WAT      O 2019   2.929   1.300   5.259  1.0331 -0.2479  0.2576
  325WAT     H1 2020   3.011   1.319   5.281  0.5989 -0.1727  1.9302
  325WAT     H2 2021   2.907   1.236   5.315 -0.1297 -0.0893  0.0001
  325WAT    EPW 2022   2.938   1.293   5.271  0.7971 -0.2134  0.4666
  326WAT      O 2023   4.539   4.928   4.254  0.1075  0.2389  0.4395
  326WAT     H1 2024   4.569   4.924   4.172 -0.0857 -0.4693  0.3961
  326WAT     H2 2025   4.454   4.948   4.244  0.1351  0.3843  0.4830
  326WAT    EPW 2026   4.531   4.931   4.240  0.0830  0.1557  0.4395
  327WAT      O 2027   3.882   4.266   6.279 -0.5479 -0.4903 -0.4086
  327WAT     H1 2028   3.817   4.306   6.322  0.3377  0.2260  0.3206
  327WAT     H2 2029   3.844   4.235   6.207 -1.3132  1.6080 -0.9827
  327WAT    EPW 2030   3.867   4.268   6.275 -0.5301 -0.0745 -0.3857
  328WAT      O 2031   3.102   7.022   2.147 -0.3115  0.5260 -0.1752
  328WAT     H1 2032   3.106   7.061   2.068  0.9434  1.6553  0.3976
  328WAT     H2 2033   3.106   7.089   2.202  0.7386 -0.3564  0.8580
  328WAT    EPW 2034   3.103   7.038   2.143  0.0290  0.5624  0.0621
  329WAT      O 2035   6.499   7.294   7.181 -0.6298 -0.0115 -0.3748
  329WAT     H1 2036   6.437   7.294   7.243 -1.0832 -1.2976 -0.7923
  329WAT     H2 2037   6.573   7.280   7.226 -0.5395  1.8072  0.1642
  329WAT    EPW 2038   6.501   7.292   7.197 -0.6834  0.0672 -0.3568
  330WAT      O 2039   5.909   0.111   7.240 -0.4379 -0.0958  0.2662
  330WAT     H1 2040   5.870   0.044   7.280  1.0366 -0.9369  0.3613
  330WAT     H2 2041   5.920   0.170   7.304 -2.4320  0.6180  0.0237
  330WAT    EPW 2042   5.905   0.110   7.255 -0.5147 -0.1146  0.2444
  331WAT      O 2043   5.490   0.661   6.179  0.0160  0.7322 -0.1735
  331WAT     H1 2044   5.405   0.680   6.190 -0.2002 -0.1024 -0.3636
  331WAT     H2 2045   5.490   0.576   6.161  0.9269  0.6541  0.1464
  331WAT    EPW 2046   5.478   0.651   6.178  0.1186  0.5974 -0.1544
  332WAT      O 2047   3.969   1.287   4.926  0.2973  0.0106  0.6170
  332WAT     H1 2048   3.950   1.206   4.900  0.6780 -0.1164  0.7350
  332WAT     H2 2049   4.037   1.309   4.877 -2.1639  1.7833 -2.3967
  332WAT    EPW 2050   3.976   1.278   4.915 -0.0100  0.2537  0.1893
  333WAT      O 2051   4.537   5.452   3.442  0.5480 -0.2905 -0.0269
  333WAT     H1 2052   4.485   5.396   3.484  0.7410 -0.6732 -0.2966
  333WAT     H2 2053   4.529   5.428   3.359 -0.9657  1.3718 -0.4164
  333WAT    EPW 2054   4.528   5.440   3.436  0.3529 -0.1015 -0.1243
  334WAT      O 2055   7.684   2.885   5.972 -0.3605  0.3113 -0.5932
  334WAT     H1 2056   7.645   2.844   6.038  1.1070  0.0493  0.1481
  334WAT     H2 2057   7.618   2.924   5.931 -1.4662 -0.5620  0.2684
  334WAT    EPW 2058   7.669   2.885   5.976 -0.3071  0.1436 -0.3564
  335WAT      O 2059   6.612   0.005   6.047 -0.0037 -0.6524 -0.2244
  335WAT     H1 2060   6.676   0.064   6.038  0.0596 -0.0897  2.6974
  335WAT     H2 2061   6.540   0.048   6.026  0.0867  0.4745  1.5423
  335WAT    EPW 2062   6.611   0.020   6.043  0.0190 -0.4028  0.4682
  336WAT      O 2063   6.509   1.828   4.387  0.5597  0.2589 -0.4303
  336WAT     H1 2064   6.539   1.810   4.307  0.0194  0.6338 -0.7231
  336WAT     H2 2065   6.472   1.754   4.413 -0.4003  0.5035 -1.0579
  336WAT    EPW 2066   6.508   1.815   4.379  0.3381  0.3504 -0.5663
  337WAT      O 2067   3.928   5.639   2.521  0.2994 -0.0963 -0.0826
  337WAT     H1 2068   3.973   5.676   2.456  0.5476 -1.1784 -0.5639
  337WAT     H2 2069   3.966   5.560   2.528 -1.1580 -0.8258 -0.1166
  337WAT    EPW 2070   3.940   5.633   2.512  0.1208 -0.3639 -0.1587
  338WAT      O 2071   0.567   4.018   7.048  0.0353  0.2897  0.3091
  338WAT     H1 2072   0.531   4.012   6.969 -0.2461 -1.3984  0.5381
  338WAT     H2 2073   0.637   4.069   7.035 -1.2028  1.8368 -0.5614
  338WAT    EPW 2074   0.572   4.025   7.035 -0.1892  0.2689  0.2143
  339WAT      O 2075   5.417   3.428   6.006 -0.3103 -0.4729  0.2453
  339WAT     H1 2076   5.401   3.344   6.025  1.8110 -0.8806  0.5180
  339WAT     H2 2077   5.455   3.459   6.079 -1.6450  0.9311  0.3917
  339WAT    EPW 2078   5.421   3.420   6.019 -0.1941 -0.3257  0.3072
  340WAT      O 2079   5.672   1.161   1.417  0.1488 -0.1170  0.5848
  340WAT     H1 2080   5.595   1.199   1.407 -0.2607 -1.3749 -1.7940
  340WAT     H2 2081   5.699   1.189   1.495 -2.2608  1.0919  1.0748
  340WAT    EPW 2082   5.665   1.171   1.427 -0.2676 -0.1243  0.3058
  341WAT      O 2083   4.040   6.369   3.162 -0.4970  0.2809 -0.0495
  341WAT     H1 2084   4.050   6.282   3.165 -0.3632  0.2653 -0.8200
  341WAT     H2 2085   4.104   6.395   3.108  0.0908  0.9689  0.9549
  341WAT    EPW 2086   4.051   6.360   3.154 -0.3904  0.3803 -0.0150
  342WAT      O 2087   6.586   4.388   5.349  0.2550  0.0306 -0.3028
  342WAT     H1 2088   6.655   4.421   5.308  0.1714 -1.6839 -1.9319
  342WAT     H2 2089   6.602   4.302   5.349 -0.3956 -0.1638  2.1393
  342WAT    EPW 2090   6.599   4.380   5.343  0.1465 -0.2514 -0.1827
  343WAT      O 2091   3.494   7.474   1.941 -0.1971 -0.0771 -0.2761
  343WAT     H1 2092   3.445   7.546   1.936 -0.4712 -0.1122  1.3878
  343WAT     H2 2093   3.568   7.501   1.976  0.4457 -0.2935 -1.4136
  343WAT    EPW 2094   3.497   7.488   1.945 -0.1427 -0.1143 -0.1983
  344WAT      O 2095   5.316   2.866   2.600  0.3007 -0.1665  0.0011
  344WAT     H1 2096   5.301   2.948   2.627 -0.8520 -0.7782  1.4003
  344WAT     H2 2097   5.269   2.859   2.527 -0.9948 -0.0426  0.7837
  344WAT    EPW 2098   5.307   2.877   2.593 -0.0609 -0.2385  0.3234
  345WAT      O 2099   4.099   6.141   2.086 -0.3732 -0.4770 -0.1575
  345WAT     H1 2100   4.124   6.059   2.070  0.4193 -0.3727  0.5165
  345WAT     H2 2101   4.015   6.141   2.062 -0.6597 -1.7539  0.7276
  345WAT    EPW 2102   4.090   6.129   2.080 -0.2984 -0.6502  0.0728
  346WAT      O 2103   4.466   5.752   5.737 -0.0850 -0.5594 -0.4368
  346WAT     H1 2104   4.496   5.672   5.722  0.1659 -0.1027 -2.7369
  346WAT     H2 2105   4.400   5.761   5.680 -0.1251  0.8526 -0.2197
  346WAT    EPW 2106   4.460   5.742   5.726 -0.0538 -0.2833 -0.7445
  347WAT      O 2107   5.761   5.548   1.122  0.1839 -0.1411  0.0235
  347WAT     H1 2108   5.825   5.585   1.077 -0.5495  0.0834 -0.8662
  347WAT     H2 2109   5.759   5.593   1.197 -0.1349  1.0719 -0.6928
  347WAT    EPW 2110   5.770   5.560   1.127  0.0284  0.0712 -0.2137
  348WAT      O 2111   6.855   3.816   4.214 -0.2613  0.2338 -0.2574
  348WAT     H1 2112   6.874   3.750   4.269  1.7582 -0.8692 -2.1326
  348WAT     H2 2113   6.856   3.886   4.266 -0.5904 -0.9800  1.4888
  348WAT    EPW 2114   6.858   3.817   4.230 -0.0116 -0.1084 -0.2765
  349WAT      O 2115   4.127   4.386   6.315  0.5443  0.3396  0.2196
  349WAT     H1 2116   4.102   4.450   6.370  1.2834  1.4448 -0.6763
  349WAT     H2 2117   4.053   4.347   6.294  0.0616  0.9378  0.7493
  349WAT    EPW 2118   4.113   4.390   6.320  0.5822  0.5913  0.1655
  350WAT      O 2119   5.634   0.803   3.985 -0.2611  0.0853 -0.2970
  350WAT     H1 2120   5.648   0.762   4.061 -0.6776 -1.5755 -1.0870
  350WAT     H2 2121   5.636   0.888   4.007  1.0601 -0.3093  1.3125
  350WAT    EPW 2122   5.636   0.810   3.999 -0.1275 -0.2183 -0.1760
  351WAT      O 2123   2.845   0.296   2.727  0.0929 -0.6834  0.5496
  351WAT     H1 2124   2.871   0.377   2.749 -1.1466 -0.6512  2.0588
  351WAT     H2 2125   2.919   0.259   2.697  0.8978  0.7016  0.7141
  351WAT    EPW 2126   2.860   0.303   2.726  0.0287 -0.4740  0.7969
  352WAT      O 2127   1.948   7.280   7.324  0.4246  0.0409  0.3935
  352WAT     H1 2128   1.952   7.195   7.305  0.3482 -0.0342  0.7072
  352WAT     H2 2129   2.023   7.312   7.293  1.7238 -0.6103  2.6340
  352WAT    EPW 2130   1.959   7.272   7.317  0.6052 -0.0664  0.7708
  353WAT      O 2131   4.092   7.596   5.736 -0.5649  0.7577  0.4071
  353WAT     H1 2132   4.082   7.641   5.810  0.4838  1.5954  0.0646
  353WAT     H2 2133   4.154   7.641   5.693 -0.2798 -0.4002 -0.4362
  353WAT    EPW 2134   4.100   7.609   5.741 -0.3679  0.7104  0.2319
  354WAT      O 2135   7.019   6.311   0.767 -0.5730 -0.1922 -0.0909
  354WAT     H1 2136   7.054   6.385   0.797 -1.6176 -0.3208  1.5914
  354WAT     H2 2137   7.079   6.281   0.711  0.5058  1.1967  0.2651
  354WAT    EPW 2138   7.033   6.317   0.763 -0.5679 -0.0060  0.2102
  355WAT      O 2139   4.428   4.077   0.663  0.1471  0.0402 -0.3581
  355WAT     H1 2140   4.482   4.099   0.597  0.5730  0.0132 -0.0231
  355WAT     H2 2141   4.482   4.070   0.731 -0.4000  0.8721  0.1783
  355WAT    EPW 2142   4.444   4.079   0.663  0.1292  0.1591 -0.2293
  356WAT      O 2143   4.221   1.311   7.855 -0.5405 -0.9114  0.5857
  356WAT     H1 2144   4.290   1.364   7.860 -0.0007 -1.5514  0.2031
  356WAT     H2 2145   4.154   1.360   7.881 -0.0421 -0.0770  0.3123
  356WAT    EPW 2146   4.221   1.326   7.860 -0.3871 -0.8827  0.4888
  357WAT      O 2147   4.630   0.080   2.582 -0.1544  0.0399 -0.1681
  357WAT     H1 2148   4.711   0.066   2.611 -0.0380  1.6300  0.3849
  357WAT     H2 2149   4.633   0.053   2.499  0.1585 -2.4085  0.5523
  357WAT    EPW 2150   4.642   0.074   2.574 -0.0910 -0.0869  0.0200
  358WAT      O 2151   5.827   3.215   1.396 -0.7236  0.2801  0.4323
  358WAT     H1 2152   5.860   3.228   1.476 -0.8396  1.7007  0.2756
  358WAT     H2 2153   5.898   3.201   1.347 -0.5384  0.8983  0.5221
  358WAT    EPW 2154   5.843   3.215   1.400 -0.7134  0.5813  0.4224
  359WAT      O 2155   6.756   6.592   7.298  0.0851  0.0937  0.3932
  359WAT     H1 2156   6.811   6.569   7.362  0.0892 -0.4562  0.2003
  359WAT     H2 2157   6.699   6.526   7.296  1.3542 -1.0293 -1.6266
  359WAT    EPW 2158   6.756   6.579   7.307  0.2732 -0.1535  0.0663
  360WAT      O 2159   6.269   0.382   7.610 -0.5976  0.2725 -0.0814
  360WAT     H1 2160   6.253   0.376   7.696  0.0132 -1.5402 -0.0602
  360WAT     H2 2161   6.355   0.400   7.607 -0.7155  0.8267 -0.3294
  360WAT    EPW 2162   6.279   0.384   7.622 -0.5248  0.0866 -0.1149
  361WAT      O 2163   7.597   7.144   4.874 -0.3869  0.4180  0.2829
  361WAT     H1 2164   7.661   7.109   4.825  0.2666  1.6951  0.1724
  361WAT     H2 2165   7.634   7.217   4.906 -1.9246  1.4350 -0.1496
  361WAT    EPW 2166   7.612   7.150   4.871 -0.5175  0.7569  0.2027
  362WAT      O 2167   2.137   1.569   2.159  0.6211 -0.1176  0.1145
  362WAT     H1 2168   2.072   1.582   2.102  1.5315  0.2297 -0.8757
  362WAT     H2 2169   2.147   1.482   2.160  0.6945 -0.1160 -0.3739
  362WAT    EPW 2170   2.129   1.558   2.151  0.7664 -0.0661 -0.1039
  363WAT      O 2171   7.740   1.483   7.648  0.0290  0.4197  0.3862
  363WAT     H1 2172   7.711   1.551   7.601  0.1937 -0.4313 -0.9804
  363WAT     H2 2173   7.785   1.435   7.591  1.0281 -0.1905  1.6274
  363WAT    EPW 2174   7.742   1.486   7.633  0.2009  0.2039  0.3677
  364WAT      O 2175   3.819   1.591   3.200 -0.2959  0.5310 -0.3883
  364WAT     H1 2176   3.765   1.660   3.209  1.2565  1.7244  0.2307
  364WAT     H2 2177   3.851   1.600   3.120 -1.1228 -0.2759 -0.8198
  364WAT    EPW 2178   3.816   1.603   3.190 -0.1887  0.5881 -0.3606
  365WAT      O 2179   4.209   6.993   4.116 -0.0006  0.0699  0.1236
  365WAT     H1 2180   4.247   7.024   4.044 -1.0929 -0.0283 -0.5168
  365WAT     H2 2181   4.154   6.933   4.086 -0.9882  0.5184  0.9577
  365WAT    EPW 2182   4.206   6.989   4.101 -0.3079  0.1217  0.1522
  366WAT      O 2183   0.350   5.044   4.478  0.5056  0.7651  0.4786
  366WAT     H1 2184   0.325   5.013   4.401  3.9598  1.0003 -0.9125
  366WAT     H2 2185   0.298   5.002   4.535 -1.8600  0.2661 -1.8676
  366WAT    EPW 2186   0.339   5.033   4.475  0.6664  0.7261 -0.0735
  367WAT      O 2187   4.854   5.803   7.724  0.0200 -0.7521  0.1423
  367WAT     H1 2188   4.835   5.887   7.733  1.3193 -0.5009  0.6962
  367WAT     H2 2189   4.921   5.791   7.778  0.0691 -2.0638 -0.1806
  367WAT    EPW 2190   4.861   5.814   7.733  0.2192 -0.9087  0.1764
  368WAT      O 2191   4.618   5.207   4.261 -0.5272  0.0416  0.1569
  368WAT     H1 2192   4.630   5.237   4.181 -2.9236  0.9121  0.0594
  368WAT     H2 2193   4.601   5.122   4.249 -0.2642  0.0334 -0.1751
  368WAT    EPW 2194   4.618   5.199   4.248 -0.8423  0.1690  0.0935
  369WAT      O 2195   2.745   1.350   2.123  0.1227 -0.2485 -0.0124
  369WAT     H1 2196   2.698   1.387   2.186 -1.9332 -1.4619 -0.7475
  369WAT     H2 2197   2.754   1.413   2.064  1.6615  0.7547  1.1956
  369WAT    EPW 2198   2.739   1.365   2.124  0.0463 -0.2795  0.0574
  370WAT      O 2199   5.940   0.054   3.366 -0.0462 -0.6650  0.2348
  370WAT     H1 2200   5.961   0.055   3.281 -1.2496  0.7891 -0.0868
  370WAT     H2 2201   5.937  -0.031   3.385  1.1214 -1.0017 -0.9445
  370WAT    EPW 2202   5.942   0.042   3.356 -0.0515 -0.4999  0.0131
  371WAT      O 2203   4.967   4.753   5.686  0.6147 -0.1646 -0.0620
  371WAT     H1 2204   4.997   4.677   5.716  0.1796 -0.7521 -1.0732
  371WAT     H2 2205   4.889   4.761   5.725  1.8103  1.1963  2.2957
  371WAT    EPW 2206   4.960   4.743   5.696  0.7271 -0.0504  0.1369
  372WAT      O 2207   4.091   3.931   1.258  0.0727 -0.3088  0.1929
  372WAT     H1 2208   4.055   3.855   1.280  1.2702 -1.1280 -0.5311
  372WAT     H2 2209   4.023   3.983   1.241 -0.8113 -0.6618  2.3781
  372WAT    EPW 2210   4.076   3.928   1.258  0.1190 -0.4819  0.4087
  373WAT      O 2211   6.302   6.514   3.549 -0.5682  0.3608  0.3959
  373WAT     H1 2212   6.325   6.433   3.574  1.5185  0.0516 -2.1284
  373WAT     H2 2213   6.249   6.500   3.482 -0.7524  1.1175  0.3766
  373WAT    EPW 2214   6.298   6.500   3.543 -0.2872  0.4269  0.0202
  374WAT      O 2215   4.892   5.028   1.915 -0.1849 -0.5208  0.0630
  374WAT     H1 2216   4.974   5.055   1.907  0.2743 -1.4558  1.3088
  374WAT     H2 2217   4.868   5.057   1.994 -0.9361 -0.5496 -0.1429
  374WAT    EPW 2218   4.900   5.036   1.926 -0.2280 -0.6632  0.2166
  375WAT      O 2219   5.433   4.985   2.514 -0.5082  0.5125  0.0632
  375WAT     H1 2220   5.440   5.029   2.439  0.2544  0.5511  0.1401
  375WAT     H2 2221   5.492   5.025   2.565  0.0884 -0.4962  0.1884
  375WAT    EPW 2222   5.443   4.998   2.511 -0.3074  0.3692  0.0931
  376WAT      O 2223   2.912   1.664   5.644 -0.4487  0.2788  0.0993
  376WAT     H1 2224   2.933   1.716   5.577  2.2794 -0.8302 -0.0530
  376WAT     H2 2225   2.825   1.665   5.644 -0.5377  2.5143 -1.6767
  376WAT    EPW 2226   2.902   1.672   5.634 -0.0589  0.4452 -0.1855
  377WAT      O 2227   4.837   1.416   5.749 -0.3456  0.6183  0.2298
  377WAT     H1 2228   4.887   1.376   5.690 -0.7069  0.1621  0.2213
  377WAT     H2 2229   4.889   1.478   5.782  0.2254  0.1364  0.2461
  377WAT    EPW 2230   4.852   1.419   5.745 -0.3146  0.4797  0.2310
  378WAT      O 2231   5.129   7.187   0.874  0.9224  0.1973 -0.0788
  378WAT     H1 2232   5.185   7.245   0.908  0.9674  0.5012 -0.6592
  378WAT     H2 2233   5.104   7.140   0.943 -0.3665  1.9307  0.7099
  378WAT    EPW 2234   5.134   7.189   0.889  0.7387  0.4982 -0.0480
  379WAT      O 2235   2.626   6.340   2.336 -0.3381  0.2464 -0.1923
  379WAT     H1 2236   2.554   6.381   2.309 -1.3187 -1.0050  0.3791
  379WAT     H2 2237   2.605   6.312   2.416  0.8185 -0.0831  0.0203
  379WAT    EPW 2238   2.612   6.342   2.344 -0.3121  0.0129 -0.0765
  380WAT      O 2239   0.369   2.063   4.728 -0.3843  0.2373 -0.3999
  380WAT     H1 2240   0.307   2.090   4.673  0.7044  0.1351 -1.7167
  380WAT     H2 2241   0.398   1.990   4.692 -0.5476 -0.5728  1.0441
  380WAT    EPW 2242   0.364   2.056   4.715 -0.2476  0.1025 -0.3811
  381WAT      O 2243   5.678   0.358   1.982  0.0822 -0.2201 -0.0528
  381WAT     H1 2244   5.736   0.296   1.966 -0.6828 -1.0978  0.4889
  381WAT     H2 2245   5.650   0.340   2.063  1.1395  1.8870  0.8648
  381WAT    EPW 2246   5.682   0.346   1.992  0.1253 -0.0385  0.1628
  382WAT      O 2247   5.419   2.742   3.594 -0.2360  0.0334 -1.4266
  382WAT     H1 2248   5.372   2.677   3.561 -0.2073 -1.2337  0.8304
  382WAT     H2 2249   5.369   2.774   3.658  1.4990 -0.8173  0.4909
  382WAT    EPW 2250   5.405   2.737   3.599  0.0245 -0.2794 -0.8099
  383WAT      O 2251   4.689   6.267   3.251  0.0925  0.2463 -0.4645
  383WAT     H1 2252   4.729   6.314   3.189  2.0427 -0.3992  0.2216
  383WAT     H2 2253   4.746   6.204   3.269 -2.0260 -1.8655 -0.6460
  383WAT    EPW 2254   4.703   6.265   3.244  0.0676 -0.1610 -0.3900
  384WAT      O 2255   1.582   3.589   0.343  0.4574  0.1665 -0.1021
  384WAT     H1 2256   1.512   3.555   0.383  1.7771 -2.6017  0.0260
  384WAT     H2 2257   1.568   3.571   0.259  1.0032 -0.3886 -0.0753
  384WAT    EPW 2258   1.569   3.582   0.337  0.7330 -0.3244 -0.0792
  385WAT      O 2259   5.590   6.181   3.003  0.1091  0.4079 -0.2374
  385WAT     H1 2260   5.543   6.250   2.979 -1.1997  0.2855  1.7886
  385WAT     H2 2261   5.544   6.113   2.974 -1.5215  0.2559  2.3896
  385WAT    EPW 2262   5.577   6.181   2.995 -0.3251  0.3674  0.4499
  386WAT      O 2263   0.454   5.585   5.765 -0.4955 -0.1986  0.1446
  386WAT     H1 2264   0.400   5.516   5.762 -1.6182  0.6462  0.2870
  386WAT     H2 2265   0.412   5.646   5.718  1.1532 -0.0535 -1.2468
  386WAT    EPW 2266   0.440   5.584   5.757 -0.4178 -0.0524 -0.0399
  387WAT      O 2267   0.507   2.064   3.893 -0.2789  0.1526  0.2136
  387WAT     H1 2268   0.571   2.101   3.939 -0.0878 -1.0314  0.9662
  387WAT     H2 2269   0.468   2.012   3.951  0.3844 -1.9147 -1.0785
  387WAT    EPW 2270   0.511   2.061   3.908 -0.1527 -0.3277  0.1340
  388WAT      O 2271   5.802   7.559   0.943 -0.0008  0.0841 -0.3528
  388WAT     H1 2272   5.722   7.592   0.948  0.7273  1.7627  1.8599
  388WAT     H2 2273   5.854   7.629   0.945  1.5659 -1.0266  0.3674
  388WAT    EPW 2274   5.798   7.574   0.944  0.3382  0.1680  0.0804
  389WAT      O 2275   5.421   1.602   7.736  0.1656  0.6342 -0.0715
  389WAT     H1 2276   5.420   1.687   7.718  0.0957  0.3468 -1.6215
  389WAT     H2 2277   5.506   1.583   7.743  0.1758  0.8467  0.4213
  389WAT    EPW 2278   5.434   1.611   7.734  0.1568  0.6232 -0.2277
  390WAT      O 2279   5.362   3.835   3.950  0.0801  0.2386  0.2702
  390WAT     H1 2280   5.380   3.844   4.035 -1.4456  1.7028  0.4920
  390WAT     H2 2281   5.421   3.887   3.911  1.0940 -0.8076  0.3700
  390WAT    EPW 2282   5.374   3.844   3.957  0.0045  0.3003  0.3177
  391WAT      O 2283   4.981   4.990   7.239 -0.0127  0.3252 -0.0529
  391WAT     H1 2284   5.050   4.936   7.237  0.2942  0.7392 -1.0549
  391WAT     H2 2285   4.913   4.937   7.229  0.2537  0.0561 -0.4926
  391WAT    EPW 2286   4.981   4.974   7.237  0.0720  0.3466 -0.2659
  392WAT      O 2287   7.360   3.437   4.596  0.0584 -0.8434 -0.1198
  392WAT     H1 2288   7.392   3.361   4.625 -0.8893 -1.2030  0.0160
  392WAT     H2 2289   7.341   3.481   4.669 -0.9888 -1.1725 -0.1813
  392WAT    EPW 2290   7.362   3.432   4.611 -0.2363 -0.9451 -0.1088
  393WAT      O 2291   6.136   1.798   1.967  0.4368  0.3713 -0.1705
  393WAT     H1 2292   6.214   1.831   1.983 -0.3507  3.0667 -1.3424
  393WAT     H2 2293   6.101   1.854   1.910 -1.5067 -1.9431 -1.4664
  393WAT    EPW 2294   6.142   1.811   1.961  0.0334  0.4276 -0.5351
  394WAT      O 2295   1.414   6.735   0.187 -0.0811 -0.1047  0.4425
  394WAT     H1 2296   1.489   6.731   0.142  0.9359 -0.0031  2.0652
  394WAT     H2 2297   1.369   6.668   0.155 -0.1671  1.0154 -1.9808
  394WAT    EPW 2298   1.419   6.724   0.176  0.0565  0.0758  0.3243
  395WAT      O 2299   3.172   0.054   2.440  0.1395  0.4132 -0.3364
  395WAT     H1 2300   3.198   0.117   2.495 -2.2732  2.1465 -1.0271
  395WAT     H2 2301   3.210   0.077   2.365  1.9698 -0.9413  0.1054
  395WAT    EPW 2302   3.182   0.067   2.437  0.0535  0.4692 -0.3732
  396WAT      O 2303   0.281   3.349   4.965  0.3565 -0.1105  0.5246
  396WAT     H1 2304   0.295   3.368   5.049  0.5322  1.2452  0.2228
  396WAT     H2 2305   0.346   3.295   4.944  1.5495  1.1887  0.7504
  396WAT    EPW 2306   0.293   3.344   4.974  0.5587  0.2817  0.5134
  397WAT      O 2307   2.541   6.311   4.558  0.5739  0.2182  0.2085
  397WAT     H1 2308   2.484   6.246   4.550  0.0976  0.3828  1.9354
  397WAT     H2 2309   2.574   6.319   4.477 -1.0312 -0.5984 -0.5717
  397WAT    EPW 2310   2.538   6.303   4.545  0.2665  0.1219  0.3484
  398WAT      O 2311   3.984   0.509   7.179 -0.4499  0.0083 -0.5516
  398WAT     H1 2312   4.055   0.461   7.198 -0.4576  0.3510  0.3750
  398WAT     H2 2313   3.952   0.530   7.257 -2.5948 -1.5653 -0.9034
  398WAT    EPW 2314   3.990   0.505   7.193 -0.7679 -0.1735 -0.4667
  399WAT      O 2315   5.038   6.415   2.074  0.4707 -0.3708  0.1908
  399WAT     H1 2316   5.016   6.456   2.148 -0.5026  1.6148 -1.1148
  399WAT     H2 2317   5.125   6.420   2.072  0.3897  2.6711 -0.3659
  399WAT    EPW 2318   5.048   6.421   2.084  0.3149  0.3719 -0.0843
  400WAT      O 2319   3.007   6.577   3.396  0.0232  0.8762  0.1465
  400WAT     H1 2320   3.067   6.514   3.400 -0.7587  0.0410 -0.7524
  400WAT     H2 2321   3.041   6.634   3.338 -0.2652  0.1447 -0.7675
  400WAT    EPW 2322   3.021   6.576   3.388 -0.1349  0.6447 -0.1213
  401WAT      O 2323   1.606   0.469   0.211 -0.4855 -0.1938 -0.1970
  401WAT     H1 2324   1.684   0.461   0.173 -0.2276 -0.9825  0.4760
  401WAT     H2 2325   1.618   0.435   0.290 -1.7127 -1.0437 -0.3482
  401WAT    EPW 2326   1.619   0.463   0.217 -0.6287 -0.4359 -0.1199
  402WAT      O 2327   6.038   7.276   7.757  0.1263  1.0562 -0.3923
  402WAT     H1 2328   6.081   7.348   7.731 -0.6150  1.5363 -0.3266
  402WAT     H2 2329   5.967   7.276   7.707 -0.8073  1.4153  0.8724
  402WAT    EPW 2330   6.034   7.287   7.746 -0.1211  1.1802 -0.1958
  403WAT      O 2331   4.056   4.797   2.307  0.5469  0.7819  0.0778
  403WAT     H1 2332   4.027   4.788   2.226  2.8807  0.2377 -0.7764
  403WAT     H2 2333   3.985   4.788   2.356 -0.9435  1.3014 -1.9008
  403WAT    EPW 2334   4.042   4.794   2.302  0.6715  0.7782 -0.3407
  404WAT      O 2335   4.589   2.610   1.676 -0.3478  0.3301  0.0224
  404WAT     H1 2336   4.570   2.666   1.612 -0.6536  1.7615  1.2787
  404WAT     H2 2337   4.673   2.627   1.693 -0.1979 -0.2229 -0.1665
  404WAT    EPW 2338   4.598   2.621   1.669 -0.3708  0.4599  0.1801
  405WAT      O 2339   5.070   4.408   7.852 -0.8347  0.2900  0.2788
  405WAT     H1 2340   5.052   4.470   7.793 -0.7737 -0.6643 -0.7492
  405WAT     H2 2341   4.997   4.360   7.854 -0.1189 -0.8735 -0.5270
  405WAT    EPW 2342   5.056   4.410   7.844 -0.7199 -0.0228  0.0079
  406WAT      O 2343   5.259   6.766   4.294  0.2069  0.0446  0.0892
  406WAT     H1 2344   5.283   6.767   4.378  0.7960  0.7626 -0.0725
  406WAT     H2 2345   5.244   6.850   4.276  1.1181  0.0417 -0.7919
  406WAT    EPW 2346   5.260   6.779   4.304  0.4285  0.1502 -0.0649
  407WAT      O 2347   3.092   6.767   1.826  0.8049 -0.3568  0.0493
  407WAT     H1 2348   3.130   6.794   1.753 -1.0417 -0.6733 -1.1099
  407WAT     H2 2349   3.060   6.688   1.804 -2.7776  0.9109 -0.0663
  407WAT    EPW 2350   3.093   6.759   1.812  0.0029 -0.2163 -0.1390
  408WAT      O 2351   6.775   0.479   4.259  0.0110 -0.4595  0.6044
  408WAT     H1 2352   6.757   0.443   4.181  2.0420  0.2775 -0.2510
  408WAT     H2 2353   6.736   0.557   4.254 -0.1545 -0.5461  0.4836
  408WAT    EPW 2354   6.766   0.485   4.247  0.2866 -0.3634  0.4602
  409WAT      O 2355   6.122   1.107   6.148  0.6010 -0.0239 -0.0140
  409WAT     H1 2356   6.094   1.044   6.095 -0.0841  0.8698 -0.7677
  409WAT     H2 2357   6.080   1.092   6.222  0.8837 -0.7757  0.0027
  409WAT    EPW 2358   6.112   1.096   6.151  0.5416 -0.0029 -0.1229
  410WAT      O 2359   3.015   1.156   2.143  0.3527  0.7774 -1.0279
  410WAT     H1 2360   2.976   1.116   2.076  0.7736  0.5201 -1.1256
  410WAT     H2 2361   2.969   1.230   2.153 -1.0331 -0.1477 -0.2393
  410WAT    EPW 2362   3.002   1.161   2.135  0.2101  0.6027 -0.9258
  411WAT      O 2363   5.193   4.860   6.553  0.1471  0.0259 -0.0758
  411WAT     H1 2364   5.266   4.905   6.569  0.5796 -0.4605 -0.6250
  411WAT     H2 2365   5.206   4.827   6.473 -1.3872  1.3180 -0.9158
  411WAT    EPW 2366   5.206   4.862   6.543 -0.0156  0.1449 -0.2810
  412WAT      O 2367   6.226   3.019   7.732 -0.5534  0.4404 -0.9287
  412WAT     H1 2368   6.289   2.960   7.721 -0.9657  0.0420 -1.1918
  412WAT     H2 2369   6.154   2.970   7.741 -0.7580  0.8700 -0.1254
  412WAT    EPW 2370   6.225   3.003   7.732 -0.6445  0.4450 -0.8489
  413WAT      O 2371   7.651   3.310   4.398  0.0928 -0.0943  0.4448
  413WAT     H1 2372   7.677   3.240   4.443  0.0201  1.0674  2.3688
  413WAT     H2 2373   7.564   3.299   4.392  0.3128 -1.2934 -1.3302
  413WAT    EPW 2374   7.642   3.298   4.404  0.1145 -0.0998  0.4668
  414WAT      O 2375   5.848   3.825   2.879 -0.3876 -0.5462 -0.4941
  414WAT     H1 2376   5.906   3.787   2.825  2.2853  2.1024  0.2639
  414WAT     H2 2377   5.803   3.878   2.826 -0.7615 -1.1179 -0.7620
  414WAT    EPW 2378   5.850   3.827   2.863 -0.0480 -0.2394 -0.4217
  415WAT      O 2379   1.187   4.089   5.121  0.4360 -0.5069 -0.4385
  415WAT     H1 2380   1.273   4.097   5.134  0.0667  2.2623  1.1589
  415WAT     H2 2381   1.153   4.137   5.184 -2.3517 -1.8349 -0.8102
  415WAT    EPW 2382   1.195   4.098   5.132 -0.0304 -0.2940 -0.2574
  416WAT      O 2383   2.700   2.235   0.653  0.1926 -0.2948 -0.5400
  416WAT     H1 2384   2.721   2.222   0.569 -0.7369 -0.3613 -0.7680
  416WAT     H2 2385   2.735   2.166   0.694 -0.8266 -1.1889 -1.1191
  416WAT    EPW 2386   2.709   2.223   0.647 -0.0953 -0.4367 -0.6592
  417WAT      O 2387   6.870   2.589   6.004 -0.3204  0.9182 -0.0630
  417WAT     H1 2388   6.914   2.664   5.992  1.1485  0.4305  1.9060
  417WAT     H2 2389   6.794   2.616   6.038  0.3403  1.5151  0.9870
  417WAT    EPW 2390   6.865   2.604   6.007 -0.0058  0.9343  0.3829
  418WAT      O 2391   4.079   0.624   1.323 -0.0820 -0.4403 -0.0553
  418WAT     H1 2392   4.156   0.655   1.298  1.0072  0.2870  3.5501
  418WAT     H2 2393   4.041   0.692   1.362 -1.1388 -1.5695  0.9941
  418WAT    EPW 2394   4.085   0.639   1.325 -0.0772 -0.4997  0.6323
  419WAT      O 2395   6.077   2.224   7.257  0.0022  0.6160  0.7119
  419WAT     H1 2396   6.064   2.310   7.265 -0.7969  0.6427 -0.5077
  419WAT     H2 2397   6.010   2.198   7.207  0.1559 -0.7440  1.1753
  419WAT    EPW 2398   6.065   2.233   7.250 -0.0931  0.4190  0.6002
  420WAT      O 2399   0.490   1.463   6.521 -0.3510 -0.2025  0.2276
  420WAT     H1 2400   0.473   1.396   6.469 -0.4978  0.4900 -0.6442
  420WAT     H2 2401   0.530   1.520   6.469 -1.0097  0.7500  0.7187
  420WAT    EPW 2402   0.493   1.462   6.506 -0.4700  0.0405  0.1713
  421WAT      O 2403   5.527   6.756   4.593  0.4423  0.0936 -0.0058
  421WAT     H1 2404   5.571   6.809   4.539  0.0551 -1.1651 -1.6499
  421WAT     H2 2405   5.450   6.795   4.602  0.1410 -0.1664 -1.2490
  421WAT    EPW 2406   5.522   6.770   4.586  0.3406 -0.1307 -0.4323
  422WAT      O 2407   5.244   6.451   5.569  0.1982  0.3399  0.2128
  422WAT     H1 2408   5.328   6.473   5.565  0.3271 -0.0479  0.6332
  422WAT     H2 2409   5.203   6.523   5.543  0.6888  0.1408 -1.1730
  422WAT    EPW 2410   5.250   6.464   5.565  0.2897  0.2532  0.0702
  423WAT      O 2411   4.126   5.846   7.309  0.0805 -0.3073 -0.7879
  423WAT     H1 2412   4.066   5.831   7.370  0.4472  0.3921 -0.2352
  423WAT     H2 2413   4.099   5.921   7.272  0.2046 -0.3908 -1.0488
  423WAT    EPW 2414   4.113   5.855   7.312  0.1530 -0.2163 -0.7448
  424WAT      O 2415   3.002   4.604   7.286  0.2538  0.4768 -0.0216
  424WAT     H1 2416   3.079   4.614   7.326  0.1977  0.5634  0.0618
  424WAT     H2 2417   3.005   4.521   7.258  0.4552  0.5349 -0.1803
  424WAT    EPW 2418   3.014   4.593   7.288  0.2753  0.4982 -0.0327
  425WAT      O 2419   5.357   0.503   3.095  0.8810 -1.1232 -0.4012
  425WAT     H1 2420   5.351   0.573   3.045 -0.5503 -0.6766  0.3215
  425WAT     H2 2421   5.441   0.499   3.117  0.9240  0.5866 -0.1594
  425WAT    EPW 2422   5.368   0.513   3.091  0.6759 -0.8046 -0.2588
  426WAT      O 2423   5.230   0.049   2.667  0.1835  0.1717 -0.7691
  426WAT     H1 2424   5.256  -0.031   2.642  1.6712 -0.2916  1.8822
  426WAT     H2 2425   5.191   0.035   2.743  0.2336  1.9653 -0.3728
  426WAT    EPW 2426   5.228   0.035   2.674  0.4107  0.3682 -0.3189
  427WAT      O 2427   4.478   6.135   3.102  0.0750 -0.5836  0.1026
  427WAT     H1 2428   4.549   6.153   3.149  0.0264 -0.8704  0.2875
  427WAT     H2 2429   4.474   6.201   3.045  0.2895 -0.3814  0.3203
  427WAT    EPW 2430   4.488   6.147   3.100  0.0995 -0.5961  0.1621
  428WAT      O 2431   3.463   2.277   3.507 -0.2611  0.0828  0.2016
  428WAT     H1 2432   3.450   2.337   3.445  0.4277 -1.1972 -1.2700
  428WAT     H2 2433   3.507   2.319   3.569  3.5805  0.3771 -2.3661
  428WAT    EPW 2434   3.467   2.292   3.507  0.4081 -0.0628 -0.3951
  429WAT      O 2435   5.536   5.351   0.361 -0.9172  0.2822 -0.0723
  429WAT     H1 2436   5.555   5.364   0.276  0.1894  0.5001  0.1854
  429WAT     H2 2437   5.589   5.285   0.383 -0.3269  0.9975  0.7238
  429WAT    EPW 2438   5.547   5.343   0.351 -0.6665  0.4200  0.0834
  430WAT      O 2439   3.873   1.575   0.418 -0.5339 -0.8594  0.4094
  430WAT     H1 2440   3.838   1.500   0.443 -2.5787 -0.3232 -0.6286
  430WAT     H2 2441   3.949   1.578   0.460 -0.4116 -3.4661  0.4843
  430WAT    EPW 2442   3.879   1.564   0.428 -0.8179 -1.1652  0.2672
  431WAT      O 2443   1.540   7.573   2.684 -0.1642  0.7119 -0.7348
  431WAT     H1 2444   1.576   7.651   2.674  2.0901  0.0874  1.4172
  431WAT     H2 2445   1.608   7.518   2.677 -0.7346 -0.6283  2.2832
  431WAT    EPW 2446   1.555   7.576   2.682  0.0845  0.4217  0.0289
  432WAT      O 2447   5.376   0.884   3.776 -0.2146  0.9392 -0.3300
  432WAT     H1 2448   5.299   0.925   3.774 -0.8506 -0.0683  1.4808
  432WAT     H2 2449   5.423   0.932   3.832 -0.9291 -0.6017  1.7199
  432WAT    EPW 2450   5.372   0.897   3.784 -0.4141  0.5627  0.2403
  433WAT      O 2451   5.802   7.109   1.065  0.1320 -0.0694 -0.3690
  433WAT     H1 2452   5.813   7.128   0.980 -2.5910 -0.3944 -0.9060
  433WAT     H2 2453   5.825   7.183   1.106  1.8276 -0.0254 -1.3364
  433WAT    EPW 2454   5.807   7.123   1.058 -0.0198 -0.1109 -0.5912
  434WAT      O 2455   7.661   5.672   7.313 -0.0755  0.5665 -0.4683
  434WAT     H1 2456   7.675   5.745   7.267  1.7856  0.3398 -0.3367
  434WAT     H2 2457   7.621   5.701   7.385  1.1059  1.5673 -0.1735
  434WAT    EPW 2458   7.657   5.687   7.317  0.3740  0.6808 -0.4053
  435WAT      O 2459   4.501   5.649   7.566 -0.2719  0.0969  0.5504
  435WAT     H1 2460   4.457   5.723   7.581 -0.1645  0.4336 -0.6687
  435WAT     H2 2461   4.503   5.610   7.643 -0.4192  1.3262  1.1967
  435WAT    EPW 2462   4.495   5.654   7.579 -0.2778  0.3282  0.4658
  436WAT      O 2463   4.420   1.274   4.064 -0.3829 -0.3348 -0.4697
  436WAT     H1 2464   4.376   1.348   4.082  1.2942  0.5965  0.0170
  436WAT     H2 2465   4.387   1.217   4.121  0.7052  1.0085  1.6296
  436WAT    EPW 2466   4.408   1.277   4.075  0.0256  0.0012 -0.0877
  437WAT      O 2467   2.983   4.210   6.544 -0.7917  0.1968 -0.3154
  437WAT     H1 2468   2.941   4.135   6.561  0.5531 -0.6687 -0.6247
  437WAT     H2 2469   2.941   4.243   6.475 -1.9107  0.1652  0.3277
  437WAT    EPW 2470   2.971   4.204   6.536 -0.7584  0.0643 -0.2661
  438WAT      O 2471   6.037   3.702   0.333  0.0639 -0.3271  0.4996
  438WAT     H1 2472   6.019   3.729   0.414 -2.3663  0.9437 -0.3527
  438WAT     H2 2473   6.029   3.774   0.285  1.1913 -1.1000 -0.9183
  438WAT    EPW 2474   6.033   3.717   0.338 -0.1285 -0.2536  0.1642
  439WAT      O 2475   6.334   6.170   0.063 -0.1476 -0.3075  0.1229
  439WAT     H1 2476   6.396   6.128   0.018  0.1828  0.4292 -0.1256
  439WAT     H2 2477   6.325   6.245   0.020  0.1014  0.3789  1.2325
  439WAT    EPW 2478   6.342   6.175   0.050 -0.0620 -0.0973  0.2501
  440WAT      O 2479   4.873   1.729   6.307  0.0391  0.5999 -0.1892
  440WAT     H1 2480   4.855   1.684   6.379 -0.3890  0.9469 -0.0739
  440WAT     H2 2481   4.935   1.785   6.332 -0.5036  1.1016  0.0614
  440WAT    EPW 2482   4.879   1.731   6.321 -0.1043  0.7253 -0.1351
  441WAT      O 2483   4.602   6.185   6.243  0.1972 -0.3955  0.6019
  441WAT     H1 2484   4.569   6.110   6.211 -0.9849  1.1533 -2.1656
  441WAT     H2 2485   4.533   6.227   6.274  0.1367  1.0963 -1.3751
  441WAT    EPW 2486   4.587   6.180   6.243  0.0137  0.0537 -0.0990
  442WAT      O 2487   3.045   0.627   1.889  0.0266 -0.0023 -0.1967
  442WAT     H1 2488   3.036   0.652   1.972  0.0145  1.2768 -0.5620
  442WAT     H2 2489   3.053   0.540   1.895 -0.6578 -0.0077  1.0794
  442WAT    EPW 2490   3.045   0.618   1.902 -0.0763  0.1858 -0.0621
  443WAT      O 2491   3.902   0.541   0.422  0.4000  0.0980 -0.2636
  443WAT     H1 2492   3.905   0.575   0.503  1.8636 -1.2744  0.2967
  443WAT     H2 2493   3.951   0.595   0.375  0.0984  0.5172 -0.1112
  443WAT    EPW 2494   3.909   0.554   0.427  0.5716 -0.0428 -0.1583
  444WAT      O 2495   6.937   4.139   7.663  0.0518 -0.9025 -0.2846
  444WAT     H1 2496   6.910   4.067   7.705  1.9595 -0.6833  1.4853
  444WAT     H2 2497   7.010   4.161   7.705 -2.5856  4.7641  2.5812
  444WAT    EPW 2498   6.944   4.132   7.675 -0.0560 -0.0331  0.4002
  445WAT      O 2499   6.802   3.214   4.982  0.1306  0.0639 -0.5598
  445WAT     H1 2500   6.807   3.301   4.977  0.3079  0.0877  0.0327
  445WAT     H2 2501   6.821   3.197   5.065 -1.1551 -0.4517 -0.3429
  445WAT    EPW 2502   6.805   3.225   4.993 -0.0331 -0.0087 -0.4402
  446WAT      O 2503   4.312   6.982   0.960  0.1946 -0.3192  0.0419
  446WAT     H1 2504   4.237   7.024   0.977 -0.3762 -1.5497  0.6755
  446WAT     H2 2505   4.295   6.939   0.886 -0.1660 -1.5556  0.8151
  446WAT    EPW 2506   4.299   6.982   0.952  0.0570 -0.6836  0.2497
  447WAT      O 2507   4.923   0.295   7.517  0.6633 -0.2618 -0.0184
  447WAT     H1 2508   4.998   0.324   7.483  0.1608 -0.3362 -1.2231
  447WAT     H2 2509   4.862   0.330   7.467 -0.0366 -1.8489 -0.3499
  447WAT    EPW 2510   4.925   0.304   7.505  0.4857 -0.5072 -0.2453
  448WAT      O 2511   3.801   5.782   1.688 -0.0117 -0.3306  0.0208
  448WAT     H1 2512   3.723   5.762   1.720  0.6032 -1.4530  0.8967
  448WAT     H2 2513   3.849   5.711   1.705  1.1189  0.2120 -0.7673
  448WAT    EPW 2514   3.797   5.769   1.695  0.2462 -0.4163  0.0338
  449WAT      O 2515   5.692   3.999   0.186  0.0714  0.1146 -0.0378
  449WAT     H1 2516   5.708   4.008   0.101 -1.1240  1.4175 -0.1718
  449WAT     H2 2517   5.606   3.983   0.189  0.0164  0.5004  0.9345
  449WAT    EPW 2518   5.681   3.998   0.174 -0.1133  0.3641  0.0860
  450WAT      O 2519   4.968   0.496   0.047 -0.5338 -0.1440  0.2158
  450WAT     H1 2520   5.040   0.450   0.028 -0.5314  0.0553 -0.2879
  450WAT     H2 2521   4.961   0.489   0.133 -1.5008 -2.5234  0.0099
  450WAT    EPW 2522   4.978   0.488   0.057 -0.6763 -0.4661  0.1110
  451WAT      O 2523   0.125   6.449   7.459  0.0161  0.1561 -0.3985
  451WAT     H1 2524   0.182   6.414   7.514 -1.4526 -0.1446  1.0111
  451WAT     H2 2525   0.167   6.519   7.427  0.7672  0.6162  1.4644
  451WAT    EPW 2526   0.140   6.454   7.462 -0.0899  0.1797  0.0849
  452WAT      O 2527   3.780   4.622   3.524  0.2938 -0.1743  0.9250
  452WAT     H1 2528   3.704   4.664   3.525  0.2276 -0.2764  2.4761
  452WAT     H2 2529   3.817   4.648   3.450 -0.0619  2.0429  1.4623
  452WAT    EPW 2530   3.774   4.632   3.513  0.2315  0.1382  1.2335
  453WAT      O 2531   2.180   5.764   0.392 -0.4600  0.4455  0.1127
  453WAT     H1 2532   2.169   5.687   0.431  0.2516  0.1134 -0.3282
  453WAT     H2 2533   2.219   5.744   0.316 -0.2404  1.2363  0.0051
  453WAT    EPW 2534   2.185   5.750   0.386 -0.3225  0.5132  0.0317
  454WAT      O 2535   4.595   6.059   1.778 -0.1680  0.9643 -0.3378
  454WAT     H1 2536   4.630   6.118   1.725 -0.7425 -0.2982 -2.2188
  454WAT     H2 2537   4.523   6.033   1.736 -1.1227  0.4922  1.4608
  454WAT    EPW 2538   4.589   6.064   1.764 -0.3939  0.7080 -0.3500
  455WAT      O 2539   5.942   0.494   2.485 -0.1054 -0.1815 -0.1118
  455WAT     H1 2540   5.938   0.576   2.455  1.5401 -0.0323 -0.0025
  455WAT     H2 2541   5.860   0.478   2.510 -0.1739  2.0163  1.3792
  455WAT    EPW 2542   5.930   0.504   2.484  0.1275  0.1652  0.1246
  456WAT      O 2543   4.312   2.026   1.755 -0.2439  0.1143 -0.1129
  456WAT     H1 2544   4.286   2.080   1.691  0.0356  0.0053 -0.3181
  456WAT     H2 2545   4.376   1.980   1.718 -1.4547 -1.4098 -0.4057
  456WAT    EPW 2546   4.318   2.027   1.740 -0.3815 -0.1270 -0.1865
  457WAT      O 2547   5.822   7.151   0.789 -0.0203 -0.2394 -0.5347
  457WAT     H1 2548   5.876   7.175   0.726  1.0234 -1.6179 -0.2058
  457WAT     H2 2549   5.829   7.064   0.792 -2.8439 -0.5985 -0.9799
  457WAT    EPW 2550   5.831   7.142   0.780 -0.2832 -0.4961 -0.5519
  458WAT      O 2551   6.248   0.623   7.448 -0.8544  0.4551  0.3192
  458WAT     H1 2552   6.253   0.591   7.367  0.0139  2.1773 -0.3520
  458WAT     H2 2553   6.255   0.552   7.499  0.4724 -0.4734 -1.0855
  458WAT    EPW 2554   6.250   0.608   7.444 -0.5302  0.5724  0.0125
  459WAT      O 2555   4.701   6.682   6.735 -0.0259 -0.1560 -0.3790
  459WAT     H1 2556   4.615   6.684   6.748  0.2146  1.8526  1.5325
  459WAT     H2 2557   4.733   6.732   6.799  2.6766 -1.7628 -0.3028
  459WAT    EPW 2558   4.693   6.690   6.746  0.4088 -0.0966 -0.0854
  460WAT      O 2559   2.060   4.824   1.649  0.2638 -0.4190 -0.8431
  460WAT     H1 2560   2.144   4.835   1.666  0.1872  1.9014 -1.6341
  460WAT     H2 2561   2.032   4.772   1.713  1.6113  1.5198  1.4512
  460WAT    EPW 2562   2.068   4.818   1.661  0.4515  0.2101 -0.6210
  461WAT      O 2563   7.576   0.133   0.061  0.1053 -0.3483 -0.3731
  461WAT     H1 2564   7.634   0.198   0.052  0.8234 -1.2086 -2.9604
  461WAT     H2 2565   7.500   0.171   0.045  0.2840  0.2471  0.1741
  461WAT    EPW 2566   7.573   0.148   0.057  0.2378 -0.3874 -0.6744
  462WAT      O 2567   4.547   1.538   3.820  0.2839 -0.0592  1.0593
  462WAT     H1 2568   4.620   1.496   3.796 -0.2952  0.6789 -2.6070
  462WAT     H2 2569   4.571   1.622   3.819 -0.0607  0.0734  2.3157
  462WAT    EPW 2570   4.561   1.544   3.816  0.1474  0.0694  0.7033
  463WAT      O 2571   2.952   5.710   0.072  0.1578 -0.1314 -0.5460
  463WAT     H1 2572   2.999   5.774   0.035 -1.3796  0.7245 -1.1441
  463WAT     H2 2573   2.996   5.690   0.144 -0.1284  2.7797  0.5513
  463WAT    EPW 2574   2.965   5.716   0.077 -0.1116  0.4250 -0.4722
  464WAT      O 2575   4.065   5.453   0.529 -0.3862 -0.0649 -0.3320
  464WAT     H1 2576   4.111   5.391   0.569  1.1789  1.3902  0.2653
  464WAT     H2 2577   3.983   5.426   0.536  0.1756 -1.6646  0.5780
  464WAT    EPW 2578   4.060   5.440   0.536 -0.0720 -0.0862 -0.1093
  465WAT      O 2579   0.113   7.482   5.236 -0.2119 -0.5727  0.3831
  465WAT     H1 2580   0.078   7.407   5.207 -1.3303 -0.6316  1.7448
  465WAT     H2 2581   0.046   7.538   5.232  0.2540  0.0021  0.5938
  465WAT    EPW 2582   0.098   7.479   5.231 -0.3083 -0.4965  0.6154
  466WAT      O 2583   6.174   7.125   5.380 -0.0009  0.2055 -0.7879
  466WAT     H1 2584   6.163   7.119   5.467 -0.1673  2.0908 -0.6341
  466WAT     H2 2585   6.260   7.112   5.371  0.0388  0.1060 -0.3342
  466WAT    EPW 2586   6.185   7.122   5.392 -0.0196  0.4693 -0.6982
  467WAT      O 2587   6.756   2.462   4.235  0.1703 -0.3714 -0.0875
  467WAT     H1 2588   6.768   2.461   4.149  1.2032  1.4325  0.0020
  467WAT     H2 2589   6.733   2.380   4.253  1.2930 -1.1366 -1.8823
  467WAT    EPW 2590   6.754   2.450   4.225  0.4887 -0.2180 -0.3394
  468WAT      O 2591   2.318   0.273   2.986  0.2834 -0.1060  0.4750
  468WAT     H1 2592   2.361   0.314   2.923  0.0850  1.3252  1.2292
  468WAT     H2 2593   2.382   0.237   3.034  0.6953  1.7625  1.4263
  468WAT    EPW 2594   2.334   0.274   2.984  0.3149  0.3815  0.7269
  469WAT      O 2595   5.901   4.101   0.808 -0.6810  0.5104 -0.3189
  469WAT     H1 2596   5.909   4.020   0.839  1.9516  0.7300 -0.1892
  469WAT     H2 2597   5.863   4.090   0.731 -0.6383 -0.8300 -0.1697
  469WAT    EPW 2598   5.897   4.088   0.801 -0.2858  0.3449 -0.2777
  470WAT      O 2599   6.109   0.174   5.973 -0.4315 -0.0798  0.2250
  470WAT     H1 2600   6.050   0.116   5.997 -0.5492 -0.7167 -1.5064
  470WAT     H2 2601   6.185   0.131   5.981 -0.5093 -0.4509 -0.9454
  470WAT    EPW 2602   6.112   0.159   5.978 -0.4604 -0.2287 -0.2036
  471WAT      O 2603   2.646   1.215   3.967  0.2828  0.4891 -0.0405
  471WAT     H1 2604   2.681   1.274   4.021  0.8169 -0.7367  1.0088
  471WAT     H2 2605   2.590   1.172   4.018 -1.9721  1.6141 -1.3823
  471WAT    EPW 2606   2.643   1.218   3.983  0.0286  0.4742 -0.0837
  472WAT      O 2607   3.991   2.359   7.056 -0.4708 -0.0959 -0.1655
  472WAT     H1 2608   4.003   2.379   7.140 -0.8565 -1.1933  0.1774
  472WAT     H2 2609   3.905   2.344   7.050 -0.3354 -0.7718 -0.5695
  472WAT    EPW 2610   3.980   2.359   7.068 -0.5078 -0.3579 -0.1745
  473WAT      O 2611   4.031   3.412   0.073  0.0137  0.3923 -0.5463
  473WAT     H1 2612   4.014   3.351   0.132 -1.0082  0.1393 -1.0714
  473WAT     H2 2613   4.112   3.437   0.092  0.1458 -0.5329  0.1946
  473WAT    EPW 2614   4.040   3.407   0.084 -0.1177  0.2183 -0.5144
  474WAT      O 2615   5.158   7.150   3.966 -0.4179  0.4452 -0.2514
  474WAT     H1 2616   5.073   7.141   3.948 -0.2874 -0.1144 -0.6051
  474WAT     H2 2617   5.197   7.124   3.892  0.1651 -2.4912  0.9700
  474WAT    EPW 2618   5.151   7.145   3.952 -0.3125 -0.0713 -0.1232
  475WAT      O 2619   4.059   6.801   4.001 -0.2908 -0.2651 -0.4309
  475WAT     H1 2620   4.000   6.866   3.996 -0.0769  0.0376  0.7644
  475WAT     H2 2621   4.046   6.757   3.927 -2.5803 -0.6699  0.1153
  475WAT    EPW 2622   4.048   6.804   3.989 -0.5974 -0.2802 -0.1736
  476WAT      O 2623   4.260   1.504   1.832  0.2087 -0.1259  0.0146
  476WAT     H1 2624   4.216   1.491   1.906  0.6604  0.1053  0.3269
  476WAT     H2 2625   4.308   1.431   1.824 -0.6793 -0.6507 -0.6486
  476WAT    EPW 2626   4.261   1.491   1.842  0.1443 -0.1693 -0.0372
  477WAT      O 2627   7.463   7.067   6.982  0.2427  0.3387 -0.1631
  477WAT     H1 2628   7.409   7.125   7.016  1.7491  2.1360 -0.6643
  477WAT     H2 2629   7.514   7.044   7.049  0.3347  0.4248 -0.2029
  477WAT    EPW 2630   7.463   7.072   6.997  0.4788  0.6169 -0.2430
  478WAT      O 2631   4.119   4.193   0.520 -0.0441 -0.4078 -0.1790
  478WAT     H1 2632   4.177   4.250   0.489 -0.4031  1.1832  1.8477
  478WAT     H2 2633   4.150   4.115   0.495  0.7383  0.6113 -2.5957
  478WAT    EPW 2634   4.132   4.190   0.512  0.0184 -0.0222 -0.2366
  479WAT      O 2635   2.238   7.609   7.496 -0.1239 -0.3633  0.2489
  479WAT     H1 2636   2.306   7.660   7.516 -0.6033  1.9016 -3.0751
  479WAT     H2 2637   2.169   7.653   7.528 -0.4579  0.7401 -1.8257
  479WAT    EPW 2638   2.237   7.623   7.504 -0.2440  0.1343 -0.5486
  480WAT      O 2639   7.746   0.113   7.209  0.0421  0.6149 -0.4571
  480WAT     H1 2640   7.787   0.177   7.251  0.5788  1.2242 -1.8620
  480WAT     H2 2641   7.759   0.131   7.125  0.5888 -1.5703 -0.9188
  480WAT    EPW 2642   7.754   0.125   7.203  0.2021  0.3821 -0.7328
  481WAT      O 2643   1.984   6.121   1.304 -0.6079  0.6252  0.0921
  481WAT     H1 2644   1.973   6.043   1.343 -0.6955 -0.0250 -1.1823
  481WAT     H2 2645   1.937   6.114   1.231 -0.2872  1.7391 -0.2398
  481WAT    EPW 2646   1.976   6.108   1.299 -0.5734  0.6937 -0.1452
  482WAT      O 2647   6.515   5.875   4.236  0.4264  0.3015  0.0422
  482WAT     H1 2648   6.443   5.851   4.194  0.1134  0.3790  0.5243
  482WAT     H2 2649   6.508   5.962   4.242  0.5968  0.3175  0.0159
  482WAT    EPW 2650   6.503   5.884   4.231  0.4054  0.3153  0.1095
  483WAT      O 2651   1.878   2.727   3.334  0.1760 -0.1431  0.0316
  483WAT     H1 2652   1.803   2.772   3.333 -0.0986 -0.5424 -2.3325
  483WAT     H2 2653   1.875   2.680   3.260  0.4824 -4.0698  2.2540
  483WAT    EPW 2654   1.867   2.727   3.323  0.1807 -0.7822  0.0107
  484WAT      O 2655   4.175   0.766   7.155 -0.5854  0.1584 -0.1629
  484WAT     H1 2656   4.140   0.689   7.134 -0.3345  0.3285 -1.3096
  484WAT     H2 2657   4.105   0.817   7.168 -0.7556 -0.0902 -0.1042
  484WAT    EPW 2658   4.159   0.762   7.154 -0.5735  0.1468 -0.3236
  485WAT      O 2659   3.980   0.379   1.208 -0.8100  0.4459  0.1089
  485WAT     H1 2660   4.002   0.400   1.126 -0.2784 -1.5873 -0.3216
  485WAT     H2 2661   3.991   0.454   1.252  1.4715  0.9433 -1.1754
  485WAT    EPW 2662   3.985   0.393   1.202 -0.3944  0.2190 -0.1444
  486WAT      O 2663   0.971   0.014   4.442  0.5750 -0.0121 -0.0889
  486WAT     H1 2664   0.908   0.020   4.502  1.5236  1.5664  0.8063
  486WAT     H2 2665   1.041   0.045   4.483  1.8233 -1.2209 -1.2389
  486WAT    EPW 2666   0.972   0.020   4.456  0.8995  0.0425 -0.1265
  487WAT      O 2667   2.513   6.813   6.969 -0.8436  0.2728 -0.5076
  487WAT     H1 2668   2.558   6.757   7.019  0.2250 -2.5408 -4.2227
  487WAT     H2 2669   2.430   6.793   6.987 -0.5450  0.2312  0.9711
  487WAT    EPW 2670   2.507   6.801   6.979 -0.6416 -0.1490 -0.8380
  488WAT      O 2671   4.322   1.620   3.963  0.6347 -0.3253 -0.5151
  488WAT     H1 2672   4.314   1.695   3.919  0.2232 -0.3295 -0.4560
  488WAT     H2 2673   4.402   1.592   3.943  0.3772 -0.4488 -1.4642
  488WAT    EPW 2674   4.332   1.627   3.953  0.5359 -0.3442 -0.6466
  489WAT      O 2675   3.360   4.273   1.402  0.6396 -0.5248  0.1697
  489WAT     H1 2676   3.400   4.345   1.430  2.2709 -0.4459 -2.0416
  489WAT     H2 2677   3.407   4.250   1.332 -1.9371 -1.7160 -1.3241
  489WAT    EPW 2678   3.373   4.280   1.396  0.4999 -0.6891 -0.3777
  490WAT      O 2679   4.913   3.605   0.458  0.1704 -0.2884  0.5783
  490WAT     H1 2680   4.907   3.518   0.450 -3.7337 -0.0784 -1.0180
  490WAT     H2 2681   4.966   3.628   0.392 -0.3187 -1.3765 -0.2242
  490WAT    EPW 2682   4.920   3.595   0.447 -0.4785 -0.4181  0.2239
  491WAT      O 2683   5.310   5.808   2.406  0.0165 -0.1251 -0.5940
  491WAT     H1 2684   5.311   5.791   2.320 -1.2230  1.9558 -1.0803
  491WAT     H2 2685   5.227   5.797   2.428 -0.4805  2.9431 -0.5386
  491WAT    EPW 2686   5.298   5.804   2.396 -0.2400  0.6356 -0.6576
  492WAT      O 2687   7.719   4.439   5.190  0.1173 -0.1308  0.4374
  492WAT     H1 2688   7.738   4.374   5.136 -0.7746 -0.5060  0.5592
  492WAT     H2 2689   7.713   4.509   5.137  0.4699 -0.2593  0.2268
  492WAT    EPW 2690   7.721   4.440   5.174  0.0376 -0.2052  0.4243
  493WAT      O 2691   3.061   3.686   5.967  0.3230 -0.4184 -1.0031
  493WAT     H1 2692   3.005   3.727   5.915 -1.2087  0.8997  1.5038
  493WAT     H2 2693   3.010   3.633   6.015  0.4039  2.9147  3.4267
  493WAT    EPW 2694   3.045   3.684   5.967  0.1087  0.2687  0.0216
  494WAT      O 2695   7.072   3.180   4.936 -0.0494  0.4629  0.5069
  494WAT     H1 2696   6.991   3.196   4.965  0.2157  0.6577  1.1551
  494WAT     H2 2697   7.093   3.104   4.974 -0.1747  0.0675 -0.1952
  494WAT    EPW 2698   7.063   3.171   4.945 -0.0287  0.4332  0.4989
  495WAT      O 2699   7.199   5.272   7.191  0.2167 -0.4979  0.1032
  495WAT     H1 2700   7.147   5.316   7.137 -0.7129 -0.7961  0.7312
  495WAT     H2 2701   7.212   5.196   7.150  1.9952  0.3600 -1.0836
  495WAT    EPW 2702   7.193   5.267   7.177  0.3421 -0.4152  0.0207
  496WAT      O 2703   5.610   0.493   3.181  0.0461  0.0834 -0.0477
  496WAT     H1 2704   5.584   0.486   3.264  0.1253 -0.0220 -0.0324
  496WAT     H2 2705   5.675   0.435   3.175 -0.0383  0.0064 -0.2150
  496WAT    EPW 2706   5.616   0.483   3.193  0.0453  0.0564 -0.0702
  497WAT      O 2707   6.801   6.662   0.957  0.7756 -0.8071  0.1737
  497WAT     H1 2708   6.820   6.627   1.035 -0.2306 -0.1414  0.7320
  497WAT     H2 2709   6.776   6.593   0.909  1.7267 -1.2695  0.3104
  497WAT    EPW 2710   6.800   6.647   0.961  0.7675 -0.7770  0.2764
  498WAT      O 2711   1.255   0.268   6.407  0.2184 -0.0477 -0.3336
  498WAT     H1 2712   1.243   0.349   6.436 -0.5806 -0.3262  0.1559
  498WAT     H2 2713   1.274   0.279   6.323 -1.1925  0.5963 -0.5936
  498WAT    EPW 2714   1.256   0.281   6.399 -0.1080  0.0063 -0.2997
  499WAT      O 2715   5.761   3.591   3.000 -0.0296  0.0862 -0.6817
  499WAT     H1 2716   5.764   3.601   3.087  0.5660  2.0116 -0.8926
  499WAT     H2 2717   5.794   3.665   2.969  0.0370 -0.6728 -2.5767
  499WAT    EPW 2718   5.767   3.603   3.008  0.0682  0.2585 -0.9928
  500WAT      O 2719   6.304   7.112   4.136 -0.1156  0.1516  0.8959
  500WAT     H1 2720   6.339   7.039   4.169  2.1173  0.2733 -0.9104
  500WAT     H2 2721   6.344   7.176   4.179  1.3829  0.2859 -0.5911
  500WAT    EPW 2722   6.315   7.111   4.147  0.4356  0.1894  0.4094
  501WAT      O 2723   4.440   6.561   5.814  0.4916 -0.6378  0.4502
  501WAT     H1 2724   4.444   6.604   5.890  0.8015  0.4011 -0.1236
  501WAT     H2 2725   4.355   6.548   5.802  0.5220 -2.7898  2.0048
  501WAT    EPW 2726   4.428   6.566   5.823  0.5419 -0.8022  0.5951
  502WAT      O 2727   6.010   7.361   0.923 -0.2826  0.0632  0.2132
  502WAT     H1 2728   5.970   7.291   0.890 -0.9500 -0.6910  2.4647
  502WAT     H2 2729   5.948   7.422   0.924 -0.1625  0.1961 -0.2208
  502WAT    EPW 2730   5.995   7.359   0.918 -0.3634 -0.0286  0.4817
  503WAT      O 2731   5.125   1.219   4.347  0.0163  0.2198  0.8877
  503WAT     H1 2732   5.123   1.154   4.406 -0.7062 -0.0156  0.6046
  503WAT     H2 2733   5.057   1.268   4.370  0.9819  1.2930  1.5538
  503WAT    EPW 2734   5.115   1.216   4.359  0.0522  0.3435  0.9443
  504WAT      O 2735   4.241   5.269   2.346 -0.6366 -0.4014 -0.5192
  504WAT     H1 2736   4.183   5.218   2.306 -1.4996  0.7902 -0.8359
  504WAT     H2 2737   4.196   5.304   2.412  0.1198 -0.5311  0.0912
  504WAT    EPW 2738   4.226   5.267   2.350 -0.6523 -0.2446 -0.4758
  505WAT      O 2739   5.585   6.861   7.096  0.0239  0.1185 -0.1137
  505WAT     H1 2740   5.560   6.945   7.092  1.2495  0.4675 -1.6976
  505WAT     H2 2741   5.588   6.844   7.181 -0.7232  1.5303  0.2259
  505WAT    EPW 2742   5.582   6.871   7.108  0.0946  0.3786 -0.2975
  506WAT      O 2743   4.042   5.545   2.094  0.1897  0.0403 -0.3830
  506WAT     H1 2744   4.084   5.574   2.023 -0.3444 -0.7473 -1.0486
  506WAT     H2 2745   4.103   5.545   2.156  0.5161  1.3226 -0.6749
  506WAT    EPW 2746   4.057   5.549   2.093  0.1591  0.1134 -0.5244
  507WAT      O 2747   0.351   6.672   0.452  0.2750 -0.0951 -0.2580
  507WAT     H1 2748   0.366   6.725   0.384 -0.2126  0.9867  0.4394
  507WAT     H2 2749   0.274   6.700   0.483  1.0294  0.2586  1.4391
  507WAT    EPW 2750   0.342   6.684   0.446  0.3144  0.1170  0.0957
  508WAT      O 2751   7.020   4.735   7.801 -0.7295 -0.0030  0.1910
  508WAT     H1 2752   6.972   4.715   7.731 -2.1752  1.9384  0.5564
  508WAT     H2 2753   6.964   4.727   7.867 -0.3034  1.3597  0.7411
  508WAT    EPW 2754   7.005   4.731   7.800 -0.8801  0.4851  0.3262
  509WAT      O 2755   3.774   1.597   7.531  0.3104  0.1269  0.7574
  509WAT     H1 2756   3.842   1.650   7.548 -0.3059  0.6379  1.7372
  509WAT     H2 2757   3.751   1.620   7.450 -0.0500  1.5164  1.2180
  509WAT    EPW 2758   3.781   1.608   7.521  0.1661  0.4076  0.9702
  510WAT      O 2759   4.331   4.810   5.525  0.1754  0.5419  0.2217
  510WAT     H1 2760   4.365   4.861   5.463  2.0185  0.1588  0.8294
  510WAT     H2 2761   4.334   4.730   5.491  1.8452  0.2305  0.9826
  510WAT    EPW 2762   4.337   4.806   5.511  0.6943  0.4393  0.4239
  511WAT      O 2763   6.284   1.241   7.544 -0.1476 -0.3784 -0.6353
  511WAT     H1 2764   6.319   1.183   7.600 -1.8555 -1.8395 -0.9616
  511WAT     H2 2765   6.272   1.194   7.472 -1.4222  0.4403 -0.9754
  511WAT    EPW 2766   6.287   1.225   7.542 -0.5882 -0.4733 -0.7337
  512WAT      O 2767   5.255   4.994   0.608 -0.0386 -0.3724  0.4819
  512WAT     H1 2768   5.305   4.936   0.566 -1.3852 -1.2921  0.0747
  512WAT     H2 2769   5.299   5.009   0.682  1.8473  0.4518 -0.7398
  512WAT    EPW 2770   5.269   4.987   0.613  0.0410 -0.3865  0.2413
  513WAT      O 2771   6.898   4.781   6.163 -0.5615  0.0065  0.3046
  513WAT     H1 2772   6.918   4.838   6.099  0.1779 -1.0260 -0.4079
  513WAT     H2 2773   6.848   4.722   6.122 -2.4174  0.7820  1.3194
  513WAT    EPW 2774   6.893   4.781   6.147 -0.7265 -0.0314  0.3492
  514WAT      O 2775   1.160   5.454   6.501 -0.0283  0.1595  0.0042
  514WAT     H1 2776   1.184   5.424   6.579  2.6305 -2.0696 -1.4944
  514WAT     H2 2777   1.227   5.505   6.477 -0.0491 -0.4148 -1.4056
  514WAT    EPW 2778   1.173   5.457   6.509  0.3614 -0.2546 -0.4255
  515WAT      O 2779   5.140   1.465   3.922  0.3961  0.3329 -0.4276
  515WAT     H1 2780   5.128   1.550   3.937  0.6405  0.5104 -1.1949
  515WAT     H2 2781   5.059   1.433   3.920  0.2975  0.5689 -0.2268
  515WAT    EPW 2782   5.126   1.473   3.924  0.4176  0.3940 -0.5113
  516WAT      O 2783   5.580   4.885   3.106  0.0026 -0.1420 -0.4445
  516WAT     H1 2784   5.622   4.838   3.166 -0.8602 -0.9517 -0.4680
  516WAT     H2 2785   5.628   4.873   3.034 -0.1049 -0.8333 -0.4063
  516WAT    EPW 2786   5.593   4.877   3.104 -0.1407 -0.3637 -0.4423
  517WAT      O 2787   7.042   0.981   5.556 -0.5448  0.2547 -0.1268
  517WAT     H1 2788   7.114   0.972   5.605 -0.2303  2.1192 -0.1586
  517WAT     H2 2789   7.063   0.940   5.482 -0.1660 -0.6418  0.4509
  517WAT    EPW 2790   7.056   0.974   5.552 -0.4424  0.3977 -0.0461
  518WAT      O 2791   0.978   1.200   7.061 -0.0312  0.3017  0.3710
  518WAT     H1 2792   1.055   1.224   7.028  0.5846  0.7873  2.0602
  518WAT     H2 2793   0.922   1.214   6.995  1.4460 -1.2098 -1.3016
  518WAT    EPW 2794   0.981   1.206   7.047  0.2780  0.1501  0.3734
  519WAT      O 2795   4.900   5.956   7.075  0.4430  0.9234  0.4048
  519WAT     H1 2796   4.969   5.944   7.023 -1.2984 -0.3726 -1.7647
  519WAT     H2 2797   4.851   6.014   7.032 -0.8393  0.1897  0.8308
  519WAT    EPW 2798   4.903   5.963   7.061 -0.0037  0.6236  0.1473
  520WAT      O 2799   3.847   0.723   0.942  0.1257 -0.0026 -0.1654
  520WAT     H1 2800   3.913   0.765   0.903  0.9474 -1.1057  0.0028
  520WAT     H2 2801   3.882   0.646   0.964 -1.1754 -0.5393  0.0814
  520WAT    EPW 2802   3.862   0.718   0.939  0.0549 -0.2449 -0.1041
  521WAT      O 2803   5.413   5.994   0.705 -0.2175  0.1632  0.3858
  521WAT     H1 2804   5.439   5.948   0.775  0.4492  1.9339  1.3712
  521WAT     H2 2805   5.338   6.030   0.731 -1.0144 -0.7471 -0.5671
  521WAT    EPW 2806   5.406   5.993   0.719 -0.2367  0.2903  0.3906
  522WAT      O 2807   2.181   1.403   7.843  0.0649  0.2228  0.4034
  522WAT     H1 2808   2.185   1.489   7.835 -0.6221  0.1498 -0.9275
  522WAT     H2 2809   2.219   1.388   7.920  1.2876  1.5965  0.1169
  522WAT    EPW 2810   2.187   1.413   7.853  0.1440  0.4150  0.1645
  523WAT      O 2811   4.774   7.445   6.162 -0.3787 -0.0072 -0.3652
  523WAT     H1 2812   4.828   7.491   6.212 -0.1251 -0.0780 -0.5744
  523WAT     H2 2813   4.709   7.423   6.217 -1.3727  2.0376 -0.6534
  523WAT    EPW 2814   4.772   7.448   6.178 -0.4881  0.2844 -0.4386
  524WAT      O 2815   7.226   2.386   4.840 -0.1029 -0.1335 -0.1772
  524WAT     H1 2816   7.159   2.377   4.896  0.8778  0.3314  1.1297
  524WAT     H2 2817   7.212   2.463   4.803 -0.0368  0.2089  0.4848
  524WAT    EPW 2818   7.214   2.396   4.843  0.0518 -0.0143  0.1137
  525WAT      O 2819   6.195   1.039   5.648 -0.4415 -0.7319 -0.0857
  525WAT     H1 2820   6.174   0.970   5.599  1.3044 -1.9844  0.8252
  525WAT     H2 2821   6.279   1.026   5.669 -0.7727  0.2756  2.3080
  525WAT    EPW 2822   6.204   1.027   5.644 -0.2325 -0.7681  0.4025
  526WAT      O 2823   5.569   5.913   1.198 -0.2526  0.1724  0.3349
  526WAT     H1 2824   5.532   5.848   1.242 -0.5900 -0.0094 -0.2077
  526WAT     H2 2825   5.608   5.961   1.260 -0.0550 -0.5119  0.7415
  526WAT    EPW 2826   5.570   5.911   1.213 -0.2733  0.0444  0.3148
  527WAT      O 2827   4.047   5.567   6.136 -0.1832  0.2004  0.3981
  527WAT     H1 2828   4.112   5.534   6.088 -0.8609 -0.9482  0.2155
  527WAT     H2 2829   4.084   5.586   6.212  0.7042  1.1221 -0.2335
  527WAT    EPW 2830   4.062   5.565   6.140 -0.1522  0.1669  0.2778
  528WAT      O 2831   2.856   6.520   7.095 -0.3261 -0.0645  0.6272
  528WAT     H1 2832   2.889   6.600   7.086 -0.1396 -0.2918 -0.8482
  528WAT     H2 2833   2.896   6.474   7.034  1.0665 -1.8282  2.7325
  528WAT    EPW 2834   2.866   6.525   7.085 -0.0928 -0.3586  0.7203
  529WAT      O 2835   4.681   3.657   1.997  0.5042 -0.0298 -0.2184
  529WAT     H1 2836   4.683   3.646   2.084  1.6616 -0.0696 -0.2388
  529WAT     H2 2837   4.735   3.595   1.967  1.2712  0.9173 -0.8563
  529WAT    EPW 2838   4.689   3.646   2.005  0.7885  0.1042 -0.3156
  530WAT      O 2839   3.196   3.979   1.448  0.9792 -0.1433 -1.5071
  530WAT     H1 2840   3.171   3.903   1.414 -0.1252  0.2414 -1.5909
  530WAT     H2 2841   3.130   4.033   1.429  1.0208  0.4471 -0.0812
  530WAT    EPW 2842   3.183   3.976   1.440  0.8222  0.0007 -1.3089
  531WAT      O 2843   1.231   7.556   3.615 -0.2246  0.3778 -0.0265
  531WAT     H1 2844   1.209   7.475   3.590  2.2476 -0.6485  0.7534
  531WAT     H2 2845   1.204   7.606   3.550 -0.7427 -1.2336 -1.1164
  531WAT    EPW 2846   1.224   7.551   3.602  0.0641 -0.0119 -0.0723
  532WAT      O 2847   0.681   6.361   7.208 -0.4624 -0.0604 -0.5018
  532WAT     H1 2848   0.740   6.357   7.272 -0.2558 -0.5879 -0.7170
  532WAT     H2 2849   0.722   6.325   7.140 -0.0157  2.1418 -1.4794
  532WAT    EPW 2850   0.696   6.355   7.207 -0.3659  0.1870 -0.6780
  533WAT      O 2851   4.797   5.188   5.187  0.0877  0.1550 -0.3439
  533WAT     H1 2852   4.876   5.194   5.223 -1.2141 -1.8952  3.4727
  533WAT     H2 2853   4.774   5.105   5.201 -2.2898  0.3045 -2.5326
  533WAT    EPW 2854   4.805   5.176   5.194 -0.4558 -0.1258 -0.1034
  534WAT      O 2855   5.033   3.058   7.268 -0.0565 -0.0110  0.6646
  534WAT     H1 2856   4.970   3.027   7.217  0.4465 -0.8427  0.5126
  534WAT     H2 2857   5.068   3.123   7.222 -0.5183  0.1693  0.5666
  534WAT    EPW 2858   5.029   3.063   7.254 -0.0504 -0.1072  0.6277
  535WAT      O 2859   7.452   5.418   5.821 -0.5648  0.4963 -0.8515
  535WAT     H1 2860   7.470   5.462   5.895  1.2562  1.5948 -1.8914
  535WAT     H2 2861   7.424   5.480   5.767 -0.7742 -0.1197 -1.4589
  535WAT    EPW 2862   7.451   5.434   5.824 -0.3268  0.5676 -1.0949
  536WAT      O 2863   7.398   5.246   5.278  0.4129  0.0830 -0.5474
  536WAT     H1 2864   7.364   5.186   5.225  1.1277 -0.0686 -0.8461
  536WAT     H2 2865   7.328   5.280   5.318  0.0375 -1.3833  0.1170
  536WAT    EPW 2866   7.383   5.242   5.276  0.4630 -0.1560 -0.4934
  537WAT      O 2867   1.303   1.246   4.391  0.5669 -0.2701 -0.4913
  537WAT     H1 2868   1.253   1.175   4.398  1.4865 -1.0433 -1.6017
  537WAT     H2 2869   1.296   1.269   4.308  2.8742 -1.0557 -0.9854
  537WAT    EPW 2870   1.294   1.239   4.380  1.0436 -0.5003 -0.7283
  538WAT      O 2871   3.308   1.256   6.343 -0.6300 -0.0895  0.0498
  538WAT     H1 2872   3.384   1.296   6.358  0.6869 -1.4417 -2.3197
  538WAT     H2 2873   3.302   1.197   6.407 -0.0763  0.5256  0.6820
  538WAT    EPW 2874   3.318   1.253   6.354 -0.3537 -0.1984 -0.2069
  539WAT      O 2875   0.005   2.735   5.606 -0.6711 -0.2127  0.0633
  539WAT     H1 2876   0.073   2.683   5.590 -1.1348 -0.7740 -0.1228
  539WAT     H2 2877   0.016   2.759   5.689 -0.3186 -0.4017  0.0730
  539WAT    EPW 2878   0.017   2.731   5.616 -0.6875 -0.3236  0.0372
  540WAT      O 2879   5.867   4.855   5.686  0.0651  0.0819  0.2351
  540WAT     H1 2880   5.861   4.858   5.773  2.7203  2.7368  0.4995
  540WAT     H2 2881   5.933   4.800   5.672  1.8174  2.0648  0.2245
  540WAT    EPW 2882   5.876   4.847   5.697  0.7162  0.7670  0.2726
  541WAT      O 2883   1.619   3.296   3.314 -0.0832 -0.4163 -0.5428
  541WAT     H1 2884   1.622   3.244   3.244  0.8835 -0.5454 -0.4123
  541WAT     H2 2885   1.674   3.361   3.294 -0.3155 -0.0989 -0.1765
  541WAT    EPW 2886   1.628   3.298   3.301  0.0253 -0.3885 -0.4694
  542WAT      O 2887   6.564   3.580   5.425 -0.3475  0.9622 -0.0446
  542WAT     H1 2888   6.492   3.569   5.377 -0.6659 -1.0846  0.8129
  542WAT     H2 2889   6.536   3.566   5.506  1.0654 -0.2669  0.2617
  542WAT    EPW 2890   6.549   3.576   5.430 -0.1858  0.4783  0.1273
  543WAT      O 2891   1.391   5.357   1.675  0.3690 -0.7321 -0.0328
  543WAT     H1 2892   1.356   5.278   1.687  0.7883 -0.7462  1.2729
  543WAT     H2 2893   1.447   5.365   1.741  1.0574  0.2690 -0.6984
  543WAT    EPW 2894   1.394   5.347   1.687  0.5326 -0.5863  0.0618
  544WAT      O 2895   5.029   4.030   1.167 -0.4054 -0.1078  0.0553
  544WAT     H1 2896   5.055   4.034   1.084  1.1712  0.3650  0.5472
  544WAT     H2 2897   5.094   4.066   1.212 -1.0721 -0.6402  1.5471
  544WAT    EPW 2898   5.042   4.036   1.162 -0.2710 -0.1166  0.3483
  545WAT      O 2899   6.191   4.128   0.889  0.1933  0.0979 -0.2006
  545WAT     H1 2900   6.105   4.122   0.881  0.1516 -0.4261  0.5820
  545WAT     H2 2901   6.222   4.075   0.827 -0.0647 -0.6854  0.3326
  545WAT    EPW 2902   6.183   4.120   0.879  0.1490 -0.0952 -0.0062
  546WAT      O 2903   4.639   3.396   4.536 -0.5063 -0.4840 -0.2252
  546WAT     H1 2904   4.623   3.479   4.558 -0.5265 -0.3844 -0.6063
  546WAT     H2 2905   4.560   3.360   4.532 -0.5136 -0.4580 -0.3087
  546WAT    EPW 2906   4.625   3.403   4.538 -0.5103 -0.4654 -0.2939
  547WAT      O 2907   3.926   4.488   0.324 -0.6931 -0.1102  0.0333
  547WAT     H1 2908   3.917   4.466   0.408 -1.1576 -0.8958 -0.2167
  547WAT     H2 2909   3.871   4.555   0.314  0.2671  0.8097  0.6405
  547WAT    EPW 2910   3.917   4.495   0.335 -0.6199 -0.0904  0.0861
  548WAT      O 2911   6.415   7.238   6.487 -0.0413 -0.2223 -0.2314
  548WAT     H1 2912   6.483   7.220   6.435  0.5908  0.0424  0.4797
  548WAT     H2 2913   6.368   7.164   6.485  0.3278 -0.4523 -0.6447
  548WAT    EPW 2914   6.418   7.224   6.479  0.1066 -0.2172 -0.1874
  549WAT      O 2915   4.659   4.142   0.510  0.2331  0.3770  0.3477
  549WAT     H1 2916   4.672   4.223   0.539 -0.3550 -0.1221  2.1386
  549WAT     H2 2917   4.732   4.100   0.531 -0.3301 -0.0718  1.5120
  549WAT    EPW 2918   4.671   4.148   0.517  0.0630  0.2370  0.7843
  550WAT      O 2919   1.078   6.435   7.606  0.0244 -0.3600  0.3009
  550WAT     H1 2920   0.993   6.446   7.586 -0.1397 -1.7799  0.1127
  550WAT     H2 2921   1.077   6.366   7.659  0.8161  1.2195  2.5135
  550WAT    EPW 2922   1.065   6.427   7.611  0.1171 -0.3364  0.5999
  551WAT      O 2923   6.506   2.614   5.850 -0.4469  0.1123  0.7016
  551WAT     H1 2924   6.551   2.561   5.796  1.0326  0.7448  1.2812
  551WAT     H2 2925   6.423   2.600   5.827  0.0102 -1.2934 -0.2248
  551WAT    EPW 2926   6.500   2.604   5.838 -0.1608 -0.0019  0.6504
  552WAT      O 2927   6.095   5.976   6.240 -0.1026 -0.3000  0.4539
  552WAT     H1 2928   6.070   6.059   6.242  2.0774  0.4166  0.0858
  552WAT     H2 2929   6.026   5.934   6.207 -1.6152  1.1818  1.5690
  552WAT    EPW 2930   6.081   5.982   6.236 -0.0040  0.0248  0.5643
  553WAT      O 2931   5.000   4.658   4.532 -0.1185 -0.2278  0.2107
  553WAT     H1 2932   5.022   4.602   4.595  0.9032  0.3808  0.4227
  553WAT     H2 2933   4.951   4.611   4.478  1.9011 -1.7723 -0.4116
  553WAT    EPW 2934   4.996   4.643   4.534  0.3307 -0.3661  0.1501
  554WAT      O 2935   5.358   2.210   6.669 -0.1801  0.1045  0.2395
  554WAT     H1 2936   5.430   2.260   6.669  0.2685 -0.5182 -0.6069
  554WAT     H2 2937   5.303   2.253   6.617 -0.1158  0.1415  0.2032
  554WAT    EPW 2938   5.360   2.224   6.662 -0.1043  0.0180  0.1091
  555WAT      O 2939   0.580   4.561   7.056  0.6286  0.2343 -0.3059
  555WAT     H1 2940   0.599   4.615   7.121  0.2063  0.2078 -0.1614
  555WAT     H2 2941   0.591   4.482   7.091 -1.4010  0.1762  0.3049
  555WAT    EPW 2942   0.585   4.557   7.071  0.2664  0.2218 -0.1943
  556WAT      O 2943   2.201   0.866   1.240 -0.8523 -0.6376  0.3855
  556WAT     H1 2944   2.130   0.880   1.192 -1.7279 -0.0236  1.8077
  556WAT     H2 2945   2.183   0.791   1.282  0.1870 -1.5324 -0.6818
  556WAT    EPW 2946   2.188   0.857   1.239 -0.8281 -0.6791  0.4379
  557WAT      O 2947   5.339   5.736   3.508 -0.0880  0.0887  0.4285
  557WAT     H1 2948   5.330   5.663   3.460 -0.1231  1.1102 -1.1827
  557WAT     H2 2949   5.278   5.727   3.569  0.3497 -1.5344  0.6994
  557WAT    EPW 2950   5.329   5.724   3.510 -0.0285 -0.0002  0.2305
  558WAT      O 2951   5.900   2.757   0.378 -0.2924 -0.3923  0.0542
  558WAT     H1 2952   5.859   2.736   0.452 -0.0991 -0.3307  0.1809
  558WAT     H2 2953   5.971   2.800   0.405 -1.7343  2.3446 -0.2844
  558WAT    EPW 2954   5.905   2.760   0.393 -0.4769  0.0211  0.0229
  559WAT      O 2955   3.075   3.374   6.086 -0.4852 -0.0378 -0.4815
  559WAT     H1 2956   3.152   3.339   6.066  0.7091  0.5011  2.6372
  559WAT     H2 2957   3.056   3.340   6.164 -2.2065  1.7010 -0.0466
  559WAT    EPW 2958   3.083   3.364   6.094 -0.5630  0.2987  0.0435
  560WAT      O 2959   2.152   5.711   1.890 -0.3942  0.2099 -0.3770
  560WAT     H1 2960   2.133   5.781   1.938 -0.1187  0.7341 -1.0123
  560WAT     H2 2961   2.104   5.647   1.926  0.1465  0.4747  0.8747
  560WAT    EPW 2962   2.142   5.712   1.902 -0.2737  0.3264 -0.2860
  561WAT      O 2963   2.717   4.941   1.516  0.1214 -0.0776 -0.3045
  561WAT     H1 2964   2.773   4.949   1.449 -0.5679 -2.5845 -1.2823
  561WAT     H2 2965   2.641   4.927   1.477 -0.3953 -1.1090  1.0003
  561WAT    EPW 2966   2.714   4.940   1.500 -0.0568 -0.6003 -0.2562
  562WAT      O 2967   1.948   5.370   1.319 -0.0788 -0.2975  0.0173
  562WAT     H1 2968   1.963   5.448   1.355 -0.4348 -0.1679 -0.1108
  562WAT     H2 2969   1.863   5.357   1.334 -0.5265  0.2855 -1.7647
  562WAT    EPW 2970   1.938   5.380   1.327 -0.1975 -0.1922 -0.2649
  563WAT      O 2971   5.340   2.189   0.888 -0.0766  0.2207 -0.4854
  563WAT     H1 2972   5.282   2.238   0.930 -0.8013 -0.5605 -0.5348
  563WAT     H2 2973   5.416   2.229   0.902 -0.3774  0.2813  1.0867
  563WAT    EPW 2974   5.343   2.202   0.896 -0.2281  0.1142 -0.2604
  564WAT      O 2975   3.449   2.244   7.112  0.2757  0.4423 -0.1499
  564WAT     H1 2976   3.436   2.327   7.087 -1.9990  0.8653  2.0535
  564WAT     H2 2977   3.528   2.225   7.079  1.2012  3.7044 -0.1391
  564WAT    EPW 2978   3.459   2.253   7.103  0.0764  0.9866  0.1772
  565WAT      O 2979   5.761   6.767   3.911  0.0946 -0.1900 -0.0898
  565WAT     H1 2980   5.715   6.695   3.929  0.5531 -0.4795 -0.0531
  565WAT     H2 2981   5.824   6.738   3.858 -0.6589  0.4662 -1.4013
  565WAT    EPW 2982   5.764   6.752   3.906  0.0510 -0.1358 -0.2781
  566WAT      O 2983   7.560   4.920   6.430 -0.1059  0.4802  0.1970
  566WAT     H1 2984   7.622   4.872   6.392  1.3203  1.9513  0.5425
  566WAT     H2 2985   7.567   4.998   6.391  0.4084  1.6064  2.3909
  566WAT    EPW 2986   7.570   4.924   6.418  0.1808  0.8639  0.5721
  567WAT      O 2987   1.603   5.187   0.179  0.0528  0.0411 -0.1819
  567WAT     H1 2988   1.624   5.153   0.101 -1.0308  2.0084 -1.4307
  567WAT     H2 2989   1.522   5.158   0.193  0.4388 -0.7475  0.5204
  567WAT    EPW 2990   1.594   5.178   0.169 -0.0502  0.2152 -0.2626
  568WAT      O 2991   0.984   0.530   7.820 -0.0703  0.3147 -0.3563
  568WAT     H1 2992   0.948   0.546   7.742 -0.5861  0.0866 -0.1693
  568WAT     H2 2993   1.047   0.472   7.802 -2.2908 -2.3662 -0.2226
  568WAT    EPW 2994   0.988   0.524   7.806 -0.4745 -0.1150 -0.3089
  569WAT      O 2995   6.053   0.841   7.360  0.2654  0.2509  0.2108
  569WAT     H1 2996   6.087   0.801   7.429 -0.0527  0.0304  0.2444
  569WAT     H2 2997   5.982   0.793   7.341  1.3734 -0.8436 -1.4486
  569WAT    EPW 2998   6.047   0.828   7.367  0.3821  0.0567 -0.0294
  570WAT      O 2999   7.350   7.256   0.487  0.2013  0.0760 -0.4936
  570WAT     H1 3000   7.288   7.216   0.534 -0.3671  1.4599 -0.0251
  570WAT     H2 3001   7.306   7.284   0.417  0.3031  1.0184 -0.1834
  570WAT    EPW 3002   7.334   7.254   0.484  0.1324  0.4197 -0.3785
  571WAT      O 3003   0.283   6.541   0.004  0.1605  0.0048 -0.3541
  571WAT     H1 3004   0.345   6.519   0.062 -0.4320 -0.5402  0.0899
  571WAT     H2 3005   0.287   6.628   0.002 -0.3162  0.0818  1.1003
  571WAT    EPW 3006   0.293   6.551   0.012  0.0025 -0.0644 -0.0736
  572WAT      O 3007   5.989   7.318   5.303 -0.3090 -0.3861 -0.0985
  572WAT     H1 3008   5.921   7.276   5.268  1.5613 -1.5202 -2.6616
  572WAT     H2 3009   6.044   7.254   5.324  0.4748  0.5631  0.8609
  572WAT    EPW 3010   5.987   7.302   5.301  0.0830 -0.4134 -0.3354
  573WAT      O 3011   6.222   4.920   7.274  0.1117  0.0874  0.3741
  573WAT     H1 3012   6.288   4.892   7.325  0.9077 -0.3137 -0.8345
  573WAT     H2 3013   6.259   4.980   7.224 -0.9335  1.2808  0.9917
  573WAT    EPW 3014   6.237   4.925   7.274  0.0749  0.2045  0.2868
  574WAT      O 3015   0.535   4.943   7.612 -0.8571 -0.0511  0.8797
  574WAT     H1 3016   0.543   4.876   7.668 -0.1348 -0.6276  0.1086
  574WAT     H2 3017   0.600   4.997   7.635 -0.6304 -0.2345  0.6721
  574WAT    EPW 3018   0.546   4.941   7.624 -0.7169 -0.1634  0.7351
  575WAT      O 3019   7.151   5.235   6.611 -0.4604  0.2212 -0.0889
  575WAT     H1 3020   7.071   5.202   6.594 -0.9958  1.6891 -0.5234
  575WAT     H2 3021   7.134   5.304   6.661  0.6750 -0.3001  1.0709
  575WAT    EPW 3022   7.137   5.240   6.616 -0.3718  0.3610  0.0183
  576WAT      O 3023   3.945   0.372   0.105  0.5848 -0.3581 -0.4652
  576WAT     H1 3024   4.014   0.382   0.052  0.3013 -0.3098 -0.8226
  576WAT     H2 3025   3.982   0.360   0.183  1.0091  2.1813 -0.1877
  576WAT    EPW 3026   3.961   0.372   0.109  0.6056  0.0241 -0.4770
  577WAT      O 3027   2.581   0.199   4.013  0.2785 -0.0909 -0.1318
  577WAT     H1 3028   2.623   0.126   4.035  1.0781  0.1602 -0.7681
  577WAT     H2 3029   2.604   0.212   3.930  0.2351  0.9436  0.0026
  577WAT    EPW 3030   2.590   0.190   4.004  0.3902  0.0990 -0.2059
  578WAT      O 3031   6.833   2.758   7.308  0.1637  0.4483 -0.3255
  578WAT     H1 3032   6.819   2.678   7.274  0.5345 -0.3898  1.3809
  578WAT     H2 3033   6.757   2.799   7.293 -0.2016 -0.3707 -0.8457
  578WAT    EPW 3034   6.819   2.752   7.301  0.1645  0.2035 -0.1503
  579WAT      O 3035   6.865   3.032   3.729 -0.2799 -0.4094 -0.3741
  579WAT     H1 3036   6.902   2.952   3.726 -2.6846 -1.6994  1.1212
  579WAT     H2 3037   6.836   3.044   3.648 -0.2385 -1.2514 -0.5257
  579WAT    EPW 3038   6.867   3.022   3.717 -0.6290 -0.7244 -0.1756
  580WAT      O 3039   3.404   3.153   1.464  0.1768 -0.0166  0.6309
  580WAT     H1 3040   3.338   3.198   1.428  1.8912  2.0135 -0.1711
  580WAT     H2 3041   3.426   3.200   1.534  2.6493  1.1308 -0.7712
  580WAT    EPW 3042   3.397   3.166   1.469  0.7953  0.4528  0.3053
  581WAT      O 3043   7.318   2.857   6.599 -0.1927  0.2776  0.2145
  581WAT     H1 3044   7.303   2.917   6.661 -1.0762 -0.8225  1.0959
  581WAT     H2 3045   7.379   2.806   6.635 -0.7910 -0.4298  0.2397
  581WAT    EPW 3046   7.325   2.859   6.614 -0.4116  0.0106  0.3484
  582WAT      O 3047   1.203   4.756   4.512 -0.0569 -0.1283 -0.0453
  582WAT     H1 3048   1.152   4.687   4.527 -1.8392  1.2484  0.5671
  582WAT     H2 3049   1.229   4.780   4.592  1.0405 -0.4104 -0.3018
  582WAT    EPW 3050   1.200   4.749   4.526 -0.1581  0.0334  0.0073
  583WAT      O 3051   6.755   3.736   7.654 -0.2855 -0.4312  0.1891
  583WAT     H1 3052   6.682   3.689   7.665 -1.0509  0.5030 -0.6221
  583WAT     H2 3053   6.746   3.769   7.573 -0.2189  1.7730  0.9916
  583WAT    EPW 3054   6.743   3.734   7.644 -0.3887  0.0324  0.1878
  584WAT      O 3055   4.377   0.210   0.735 -0.3790 -0.2590  0.1279
  584WAT     H1 3056   4.300   0.247   0.750 -0.8256 -2.0870  3.1563
  584WAT     H2 3057   4.433   0.276   0.743 -1.4657  0.6955  0.1273
  584WAT    EPW 3058   4.374   0.225   0.738 -0.6055 -0.3880  0.5752
  585WAT      O 3059   6.176   3.540   6.881  0.2013 -0.2745  0.0884
  585WAT     H1 3060   6.093   3.564   6.876 -0.2072 -1.5626  0.2337
  585WAT     H2 3061   6.172   3.453   6.889  1.6237 -0.5747 -1.8156
  585WAT    EPW 3062   6.163   3.531   6.882  0.3511 -0.5092 -0.1714
  586WAT      O 3063   5.387   1.239   4.289  0.0861  0.0139 -0.2521
  586WAT     H1 3064   5.302   1.251   4.302 -0.1304 -0.9985 -0.6330
  586WAT     H2 3065   5.390   1.187   4.219  0.9684 -1.0474  0.5377
  586WAT    EPW 3066   5.375   1.233   4.281  0.1844 -0.2924 -0.1917
  587WAT      O 3067   1.605   0.391   6.346 -0.3677  0.6597  0.6140
  587WAT     H1 3068   1.578   0.429   6.272  1.1020  0.7249  0.0964
  587WAT     H2 3069   1.582   0.308   6.336 -1.9955  1.0157  0.9880
  587WAT    EPW 3070   1.598   0.385   6.333 -0.3910  0.7219  0.5928
  588WAT      O 3071   0.170   5.818   4.639 -0.1262 -0.2770 -0.6584
  588WAT     H1 3072   0.225   5.791   4.577 -0.3294 -0.2995 -0.8280
  588WAT     H2 3073   0.163   5.749   4.691  0.7401  0.0204 -0.1106
  588WAT    EPW 3074   0.177   5.804   4.638 -0.0282 -0.2364 -0.6025
  589WAT      O 3075   2.653   0.975   0.135  0.3550  0.3272  0.1229
  589WAT     H1 3076   2.632   1.046   0.181  1.1347  0.9217 -0.4212
  589WAT     H2 3077   2.660   1.004   0.053 -2.4024 -0.9717 -0.7002
  589WAT    EPW 3078   2.651   0.990   0.130  0.0629  0.2232 -0.0791
  590WAT      O 3079   5.111   2.675   1.324 -0.7369  0.1071  0.6712
  590WAT     H1 3080   5.198   2.674   1.332 -0.6297 -1.8132 -0.1208
  590WAT     H2 3081   5.097   2.632   1.249 -2.4077 -0.1889  1.1172
  590WAT    EPW 3082   5.122   2.669   1.314 -0.9679 -0.2203  0.6201
  591WAT      O 3083   3.466   7.356   3.582 -0.0876 -0.2232 -0.6646
  591WAT     H1 3084   3.530   7.353   3.523 -0.5313  2.5486 -1.4124
  591WAT     H2 3085   3.497   7.308   3.648  1.3308 -1.6264 -2.2664
  591WAT    EPW 3086   3.480   7.348   3.583  0.0564 -0.0210 -1.0117
  592WAT      O 3087   5.203   5.542   1.977 -0.4211  0.2703  0.1722
  592WAT     H1 3088   5.144   5.488   2.012 -0.9074  0.7315  0.0754
  592WAT     H2 3089   5.175   5.553   1.895  0.0611  0.1200 -0.0132
  592WAT    EPW 3090   5.190   5.536   1.970 -0.4217  0.3163  0.1305
  593WAT      O 3091   4.690   3.525   7.265  0.4212 -0.1673 -0.1404
  593WAT     H1 3092   4.718   3.494   7.188 -0.5036 -1.5276  0.0437
  593WAT     H2 3093   4.604   3.516   7.261  0.3755 -0.5049  1.1701
  593WAT    EPW 3094   4.682   3.519   7.253  0.2778 -0.4181  0.0804
  594WAT      O 3095   6.370   6.381   0.993  1.2374 -0.0920  0.3166
  594WAT     H1 3096   6.366   6.456   1.037  0.3650  0.2993 -0.4191
  594WAT     H2 3097   6.431   6.395   0.933  1.5400 -0.2053  0.5920
  594WAT    EPW 3098   6.378   6.394   0.991  1.1532 -0.0510  0.2486
  595WAT      O 3099   0.450   3.657   6.972 -0.2312  0.3809 -0.5991
  595WAT     H1 3100   0.509   3.604   6.936  0.7241 -1.3544  2.9915
  595WAT     H2 3101   0.482   3.737   6.959  1.1437 -0.2985 -1.6161
  595WAT    EPW 3102   0.463   3.661   6.965  0.1130  0.0242 -0.2189
  596WAT      O 3103   6.455   7.158   4.712 -0.8329 -0.0232 -0.1247
  596WAT     H1 3104   6.411   7.218   4.666  0.9875  1.2692 -0.2905
  596WAT     H2 3105   6.508   7.206   4.763  0.4957 -1.4695 -0.0574
  596WAT    EPW 3106   6.456   7.174   4.713 -0.3677 -0.0459 -0.1393
  597WAT      O 3107   5.462   5.356   1.149  0.0897 -0.1757 -0.1232
  597WAT     H1 3108   5.462   5.436   1.115  0.1842  0.3376  1.0488
  597WAT     H2 3109   5.507   5.365   1.224  1.2277 -1.5916 -0.5871
  597WAT    EPW 3110   5.468   5.369   1.155  0.2717 -0.3090 -0.0186
  598WAT      O 3111   5.862   1.750   1.018 -0.0398 -0.2326  0.0590
  598WAT     H1 3112   5.829   1.770   1.096  0.2311  0.5437 -0.0209
  598WAT     H2 3113   5.810   1.685   0.990  0.0720 -0.7643  1.0210
  598WAT    EPW 3114   5.849   1.743   1.026  0.0167 -0.1964  0.1893
  599WAT      O 3115   5.261   2.892   1.973  0.0531  0.0544  0.2367
  599WAT     H1 3116   5.293   2.958   2.020  1.1638  0.4641 -1.0541
  599WAT     H2 3117   5.196   2.928   1.928 -0.3064 -0.0927  0.6265
  599WAT    EPW 3118   5.256   2.907   1.973  0.1641  0.0932  0.1036
  600WAT      O 3119   3.150   5.789   5.268 -0.2184 -0.0971  0.0854
  600WAT     H1 3120   3.132   5.846   5.204 -2.0102 -1.3648 -0.6262
  600WAT     H2 3121   3.097   5.722   5.252  1.2199 -1.6515  1.3642
  600WAT    EPW 3122   3.139   5.788   5.256 -0.2706 -0.5140  0.1692
  601WAT      O 3123   5.694   3.977   3.552  0.2445  0.8126  0.4543
  601WAT     H1 3124   5.666   4.058   3.567 -0.3280  0.5574  0.8037
  601WAT     H2 3125   5.700   3.943   3.632 -1.2264 -0.0403  0.2316
  601WAT    EPW 3126   5.690   3.984   3.566 -0.0574  0.6489  0.4730
  602WAT      O 3127   2.223   6.237   6.968 -0.3858  0.0077  0.5451
  602WAT     H1 3128   2.205   6.266   7.049  2.5154  0.3662  1.1653
  602WAT     H2 3129   2.273   6.299   6.934  0.7174 -1.3762 -0.4946
  602WAT    EPW 3130   2.228   6.250   6.975  0.2057 -0.1438  0.4831
  603WAT      O 3131   2.018   5.242   7.647  0.0761 -0.0029  0.6934
  603WAT     H1 3132   1.999   5.229   7.563  0.8964 -0.7507  0.5987
  603WAT     H2 3133   2.074   5.177   7.665  0.5225  0.6161  1.6055
  603WAT    EPW 3134   2.023   5.230   7.637  0.2632 -0.0219  0.8142
  604WAT      O 3135   3.182   6.285   0.702  0.1486  0.4227 -0.2396
  604WAT     H1 3136   3.188   6.244   0.779  0.6009  1.1301  0.1122
  604WAT     H2 3137   3.213   6.226   0.645 -0.8824 -0.3902  0.0023
  604WAT    EPW 3138   3.187   6.270   0.705  0.0631  0.4071 -0.1519
  605WAT      O 3139   4.913   5.309   0.253 -0.3694 -0.1941 -0.4867
  605WAT     H1 3140   4.862   5.360   0.203 -0.6951  0.7215  0.7191
  605WAT     H2 3141   4.912   5.349   0.331  3.4020  0.7832 -0.7215
  605WAT    EPW 3142   4.905   5.323   0.257  0.1396  0.0855 -0.3433
  606WAT      O 3143   6.439   4.742   0.060  0.2556 -0.2342 -0.0583
  606WAT     H1 3144   6.375   4.752   0.118 -0.4909 -0.7564 -0.7828
  606WAT     H2 3145   6.486   4.676   0.093 -0.0257 -0.3661  0.0832
  606WAT    EPW 3146   6.437   4.733   0.074  0.1037 -0.3308 -0.1444
  607WAT      O 3147   1.615   0.758   7.828 -0.1609  0.0531  0.1189
  607WAT     H1 3148   1.575   0.772   7.751  1.7078 -0.7171 -1.0709
  607WAT     H2 3149   1.603   0.673   7.842 -1.2208  0.3469  1.1704
  607WAT    EPW 3150   1.607   0.747   7.818 -0.0414 -0.0172  0.0985
  608WAT      O 3151   5.453   4.420   7.643  0.1589 -0.2424  0.2308
  608WAT     H1 3152   5.426   4.381   7.716  1.6886 -0.3614  0.7684
  608WAT     H2 3153   5.464   4.353   7.587 -1.7976 -0.0816 -0.4296
  608WAT    EPW 3154   5.450   4.404   7.645  0.0959 -0.2362  0.2127
  609WAT      O 3155   5.999   6.133   1.621  0.0067 -0.0135 -0.4621
  609WAT     H1 3156   5.932   6.179   1.589  0.6108 -0.8916 -3.2111
  609WAT     H2 3157   6.041   6.191   1.671 -2.0593  0.8997  0.3222
  609WAT    EPW 3158   5.996   6.148   1.624 -0.2092 -0.0083 -0.7524
  610WAT      O 3159   1.692   6.026   6.186 -0.3962  0.6843  0.2867
  610WAT     H1 3160   1.755   6.081   6.212  0.5287 -0.8814  1.5404
  610WAT     H2 3161   1.718   6.000   6.107  0.9506 -0.4826  1.0752
  610WAT    EPW 3162   1.705   6.030   6.178 -0.0606  0.2806  0.5883
  611WAT      O 3163   0.412   4.088   7.286  0.6259 -0.0218 -0.0305
  611WAT     H1 3164   0.458   4.038   7.231 -2.3626 -1.7189 -1.2717
  611WAT     H2 3165   0.387   4.032   7.348 -0.8519  0.4147 -0.1810
  611WAT    EPW 3166   0.415   4.072   7.287 -0.0339 -0.2080 -0.2361
  612WAT      O 3167   5.565   1.691   3.900 -0.0982  0.1276 -0.4879
  612WAT     H1 3168   5.546   1.771   3.872 -0.2712  0.7196  1.2057
  612WAT     H2 3169   5.549   1.695   3.986  2.5356 -0.8922  0.1525
  612WAT    EPW 3170   5.560   1.703   3.908  0.2653  0.0644 -0.1431
  613WAT      O 3171   4.668   3.646   2.283  0.0537 -0.3503  0.5402
  613WAT     H1 3172   4.591   3.673   2.313  0.2518  0.6920  0.1575
  613WAT     H2 3173   4.677   3.566   2.318 -0.6733 -0.0256  1.5008
  613WAT    EPW 3174   4.658   3.638   2.293 -0.0244 -0.1484  0.6255
  614WAT      O 3175   6.926   0.452   5.977  0.1368 -0.2376 -0.7814
  614WAT     H1 3176   6.851   0.495   5.968  0.0697  0.0064  0.6827
  614WAT     H2 3177   6.945   0.461   6.062  2.3449  0.5659 -1.2849
  614WAT    EPW 3178   6.918   0.459   5.988  0.4531 -0.0829 -0.6395
  615WAT      O 3179   6.343   4.299   5.944 -0.0930  0.1556  0.5027
  615WAT     H1 3180   6.401   4.283   6.007  0.0425  1.6197  0.7797
  615WAT     H2 3181   6.393   4.304   5.872 -0.0341  0.1617  0.5437
  615WAT    EPW 3182   6.359   4.297   5.942 -0.0642  0.3728  0.5497
  616WAT      O 3183   2.973   5.835   1.697 -0.2558  0.6675 -0.9800
  616WAT     H1 3184   3.004   5.771   1.646 -1.7013 -1.3070  0.4677
  616WAT     H2 3185   2.988   5.907   1.650  3.1770 -0.4491 -1.8888
  616WAT    EPW 3186   2.980   5.836   1.683  0.0377  0.2108 -0.9004
  617WAT      O 3187   5.286   5.579   3.941  0.0269  0.2546 -0.3647
  617WAT     H1 3188   5.227   5.539   3.991 -1.1647  0.5001 -1.5414
  617WAT     H2 3189   5.295   5.657   3.978 -0.0652  0.0709  0.0521
  617WAT    EPW 3190   5.279   5.584   3.954 -0.1627  0.2637 -0.4770
  618WAT      O 3191   6.070   6.477   3.898  0.4588  0.5010  0.1521
  618WAT     H1 3192   6.038   6.437   3.969 -0.6480  0.5865 -0.2802
  618WAT     H2 3193   6.024   6.443   3.833  0.7616  1.1662 -0.4211
  618WAT    EPW 3194   6.058   6.466   3.899  0.3400  0.6119  0.0036
  619WAT      O 3195   5.970   5.791   4.487  0.3836 -0.5234 -0.6669
  619WAT     H1 3196   5.965   5.765   4.570 -1.3601  0.7826 -0.3037
  619WAT     H2 3197   5.929   5.727   4.444 -1.3155  0.1493 -0.1312
  619WAT    EPW 3198   5.963   5.778   4.493 -0.1249 -0.2311 -0.5341
  620WAT      O 3199   5.742   0.096   2.992  0.1153  0.1384  0.4173
  620WAT     H1 3200   5.657   0.114   2.984  0.3833  1.2988 -0.1870
  620WAT     H2 3201   5.745   0.039   3.057 -1.1361 -0.0107  0.3767
  620WAT    EPW 3202   5.730   0.091   3.000 -0.0300  0.2878  0.3220
  621WAT      O 3203   4.040   7.265   0.761  0.1672  0.2850  0.0081
  621WAT     H1 3204   4.007   7.190   0.791  0.2441  0.3024  0.1348
  621WAT     H2 3205   4.042   7.254   0.675  2.3461 -0.7544  0.1265
  621WAT    EPW 3206   4.035   7.253   0.753  0.5004  0.1340  0.0443
  622WAT      O 3207   3.559   7.592   7.372 -0.4420  0.4115  0.4292
  622WAT     H1 3208   3.482   7.616   7.407 -0.4573  2.0427 -0.6128
  622WAT     H2 3209   3.558   7.631   7.294  2.6300  3.0198  1.4739
  622WAT    EPW 3210   3.547   7.602   7.366  0.0096  1.0378  0.4296
  623WAT      O 3211   4.990   2.899   6.384  0.4369 -0.2580 -0.1433
  623WAT     H1 3212   5.075   2.898   6.363  0.3767 -0.9337 -0.3974
  623WAT     H2 3213   4.984   2.963   6.442  0.9224  0.5171 -0.9264
  623WAT    EPW 3214   5.002   2.908   6.389  0.4997 -0.2433 -0.2965
  624WAT      O 3215   6.236   4.162   5.422  0.3110  0.1875 -0.0703
  624WAT     H1 3216   6.159   4.122   5.432  0.2883  0.1252 -0.4901
  624WAT     H2 3217   6.248   4.163   5.336 -0.5810  2.7423 -0.2640
  624WAT    EPW 3218   6.226   4.156   5.411  0.1759  0.5557 -0.1609
  625WAT      O 3219   0.410   4.282   6.257 -0.1296  0.0552  0.3224
  625WAT     H1 3220   0.473   4.248   6.307 -0.3700  0.7057  1.0950
  625WAT     H2 3221   0.387   4.354   6.300 -0.7155  0.3543 -0.4683
  625WAT    EPW 3222   0.416   4.288   6.271 -0.2517  0.1955  0.3197
  626WAT      O 3223   7.564   7.051   3.869 -0.1397 -0.3185 -0.5267
  626WAT     H1 3224   7.637   7.050   3.918 -0.9304  0.2633  0.7125
  626WAT     H2 3225   7.588   7.095   3.798  1.0081 -1.0538 -0.6328
  626WAT    EPW 3226   7.578   7.057   3.866 -0.0869 -0.3412 -0.3593
  627WAT      O 3227   5.483   2.320   3.964 -0.6938 -0.3069 -0.1001
  627WAT     H1 3228   5.515   2.246   3.998 -1.4392 -1.5805 -1.9807
  627WAT     H2 3229   5.431   2.292   3.899 -1.4588  1.8617 -0.5229
  627WAT    EPW 3230   5.480   2.305   3.960 -0.9169 -0.1747 -0.4404
  628WAT      O 3231   7.321   6.956   7.228  0.2168  0.5315 -0.3396
  628WAT     H1 3232   7.270   6.886   7.236  0.0634  0.8317  1.8723
  628WAT     H2 3233   7.266   7.016   7.195 -0.5005  0.4381  0.6299
  628WAT    EPW 3234   7.305   6.955   7.224  0.0882  0.5621  0.1304
  629WAT      O 3235   6.100   6.704   4.886  0.5707 -0.7332  0.2550
  629WAT     H1 3236   6.155   6.693   4.819  2.4422  2.1147  1.1469
  629WAT     H2 3237   6.151   6.690   4.956 -0.8273 -1.6213  1.1574
  629WAT    EPW 3238   6.116   6.700   4.887  0.6407 -0.4437  0.5201
  630WAT      O 3239   6.446   7.243   5.258  0.1816 -0.0992  0.1220
  630WAT     H1 3240   6.407   7.291   5.319  1.2497  0.1764  0.6068
  630WAT     H2 3241   6.402   7.263   5.185 -0.7820 -0.0522  0.7017
  630WAT    EPW 3242   6.434   7.253   5.256  0.1970 -0.0516  0.2792
  631WAT      O 3243   7.516   2.098   6.341 -0.5277  0.2681  0.0450
  631WAT     H1 3244   7.587   2.103   6.291 -1.1629  1.6018 -0.7917
  631WAT     H2 3245   7.451   2.110   6.284 -1.3363  0.6724  1.0382
  631WAT    EPW 3246   7.517   2.100   6.325 -0.7410  0.5248  0.0681
  632WAT      O 3247   4.466   3.558   3.991  0.1614  0.5959  0.4636
  632WAT     H1 3248   4.450   3.570   3.906 -1.0447  2.0555  0.8539
  632WAT     H2 3249   4.517   3.625   4.013 -1.1674  1.3884  1.2816
  632WAT    EPW 3250   4.471   3.570   3.982 -0.2130  0.9286  0.6420
  633WAT      O 3251   0.709   6.815   3.832  0.5541  0.2100 -0.4600
  633WAT     H1 3252   0.784   6.809   3.875 -0.3788  1.0220  1.4196
  633WAT     H2 3253   0.675   6.890   3.860 -0.5924  0.2894 -1.9082
  633WAT    EPW 3254   0.715   6.825   3.842  0.2470  0.3417 -0.3962
  634WAT      O 3255   4.397   7.057   7.440  0.1486  0.5060 -0.5270
  634WAT     H1 3256   4.474   7.098   7.436 -0.1215  1.2026  0.8193
  634WAT     H2 3257   4.392   7.015   7.363  2.1442 -0.0858 -0.3859
  634WAT    EPW 3258   4.407   7.057   7.428  0.4035  0.5215 -0.3073
  635WAT      O 3259   5.249   0.328   1.459  0.7729 -0.5791  0.0436
  635WAT     H1 3260   5.301   0.344   1.527  0.2074  1.1515  0.1189
  635WAT     H2 3261   5.276   0.385   1.398 -2.5518  2.2856  0.9440
  635WAT    EPW 3262   5.261   0.339   1.460  0.1982  0.0997  0.1877
  636WAT      O 3263   6.816   6.373   3.616 -0.6005  0.2780  0.3475
  636WAT     H1 3264   6.869   6.418   3.669 -0.5075  0.9136 -0.2738
  636WAT     H2 3265   6.753   6.344   3.670 -0.3094  0.5954  0.8642
  636WAT    EPW 3266   6.814   6.375   3.632 -0.5438  0.4188  0.3320
  637WAT      O 3267   7.410   6.433   7.773 -0.4689  0.4652 -0.0157
  637WAT     H1 3268   7.430   6.355   7.808 -1.5113  0.1421 -0.0967
  637WAT     H2 3269   7.477   6.450   7.720  0.7240  0.5400  1.4526
  637WAT    EPW 3270   7.422   6.424   7.771 -0.4467  0.4285  0.1893
  638WAT      O 3271   0.905   1.490   6.564 -0.2008  0.8740 -0.2765
  638WAT     H1 3272   0.834   1.532   6.591 -1.7934 -1.4678 -0.5885
  638WAT     H2 3273   0.945   1.466   6.639  0.2808  2.1505 -0.1036
  638WAT    EPW 3274   0.901   1.493   6.579 -0.3649  0.7166 -0.2970
  639WAT      O 3275   7.525   2.705   6.108 -0.1890  0.2776 -0.1009
  639WAT     H1 3276   7.502   2.658   6.038 -4.4402 -1.8413  2.3204
  639WAT     H2 3277   7.581   2.652   6.150 -0.9675 -0.3882  0.1224
  639WAT    EPW 3278   7.530   2.690   6.104 -0.9320 -0.1338  0.2897
  640WAT      O 3279   1.792   2.827   7.119 -1.1310 -0.0800 -0.4553
  640WAT     H1 3280   1.754   2.784   7.053  1.0990 -2.0233 -0.6071
  640WAT     H2 3281   1.873   2.796   7.119 -0.4121  1.5762  1.7829
  640WAT    EPW 3282   1.798   2.816   7.109 -0.6954 -0.1224 -0.1471
  641WAT      O 3283   1.195   6.727   6.644  0.5951 -0.2142  0.3032
  641WAT     H1 3284   1.245   6.688   6.704  3.8080  1.3234 -1.1400
  641WAT     H2 3285   1.159   6.660   6.601  1.9363 -1.4537  1.0156
  641WAT    EPW 3286   1.197   6.711   6.647  1.2678 -0.1702  0.1952
  642WAT      O 3287   6.057   4.680   5.590  0.3979 -0.2703 -0.2097
  642WAT     H1 3288   6.055   4.703   5.506 -3.3402 -0.3467 -0.3015
  642WAT     H2 3289   6.021   4.601   5.591  0.9496 -0.5470  1.4472
  642WAT    EPW 3290   6.052   4.672   5.578 -0.0728 -0.3224  0.0215
  643WAT      O 3291   3.971   4.103   7.592  0.1727 -0.2899 -0.2132
  643WAT     H1 3292   3.937   4.036   7.635 -0.2815  0.2744  0.3302
  643WAT     H2 3293   4.001   4.068   7.518 -0.7354 -0.9630 -0.2723
  643WAT    EPW 3294   3.970   4.088   7.587 -0.0285 -0.3060 -0.1416
  644WAT      O 3295   4.019   6.676   0.667  0.5399  0.3032 -0.1899
  644WAT     H1 3296   3.941   6.705   0.640  1.0380  0.4658 -1.5462
  644WAT     H2 3297   4.007   6.661   0.752 -1.0589 -0.0008 -0.4385
  644WAT    EPW 3298   4.006   6.678   0.675  0.3773  0.2823 -0.4270
  645WAT      O 3299   2.446   4.841   0.446 -0.4141 -0.2539 -0.2399
  645WAT     H1 3300   2.501   4.808   0.505  0.6574 -1.7313 -1.9600
  645WAT     H2 3301   2.464   4.926   0.446  1.5384 -0.6226 -0.3788
  645WAT    EPW 3302   2.456   4.849   0.455  0.0326 -0.5266 -0.5145
  646WAT      O 3303   4.699   5.954   1.162 -0.9608 -0.2353 -0.2542
  646WAT     H1 3304   4.727   5.985   1.239 -0.6652  0.4470 -0.6226
  646WAT     H2 3305   4.746   5.882   1.150  1.0742  1.1287 -1.0772
  646WAT    EPW 3306   4.710   5.948   1.172 -0.6165  0.0670 -0.4302
  647WAT      O 3307   5.393   3.399   0.397  0.0763 -0.2054 -1.1129
  647WAT     H1 3308   5.477   3.376   0.390  0.7554  1.6492  0.2973
  647WAT     H2 3309   5.357   3.332   0.440  1.3423 -0.0509  0.2644
  647WAT    EPW 3310   5.400   3.385   0.402  0.3636  0.0914 -0.7011
  648WAT      O 3311   6.699   5.970   7.864 -0.1446  0.4146 -0.2738
  648WAT     H1 3312   6.643   5.982   7.797 -1.7617 -0.2474  0.8794
  648WAT     H2 3313   6.772   6.008   7.837 -1.3921  2.0534 -1.5672
  648WAT    EPW 3314   6.701   5.978   7.850 -0.5678  0.5589 -0.2945
  649WAT      O 3315   4.165   5.363   3.396 -0.0600  0.1282  0.5464
  649WAT     H1 3316   4.205   5.396   3.326  0.3456 -0.6451  0.4057
  649WAT     H2 3317   4.230   5.346   3.451  0.1421 -3.1431 -0.4950
  649WAT    EPW 3318   4.180   5.365   3.394  0.0298 -0.4693  0.3718
  650WAT      O 3319   6.239   4.016   3.812 -0.2626  0.6652 -0.5730
  650WAT     H1 3320   6.175   3.960   3.791 -0.5317  1.4172 -1.8752
  650WAT     H2 3321   6.312   3.968   3.802 -0.5639 -0.1219  0.6783
  650WAT    EPW 3322   6.240   4.001   3.807 -0.3469  0.6600 -0.5805
  651WAT      O 3323   0.211   5.104   6.684  0.4486  0.0480  0.0613
  651WAT     H1 3324   0.187   5.187   6.696  3.6771  0.9753  1.0676
  651WAT     H2 3325   0.243   5.080   6.761  1.7589 -1.3012 -0.8378
  651WAT    EPW 3326   0.213   5.112   6.697  1.1191 -0.0144  0.0772
  652WAT      O 3327   6.250   3.565   6.416  0.6882 -0.0333 -0.4832
  652WAT     H1 3328   6.257   3.615   6.486  2.0915 -1.6358  0.6059
  652WAT     H2 3329   6.326   3.577   6.374  0.9476 -1.0292 -0.3289
  652WAT    EPW 3330   6.262   3.574   6.420  0.9338 -0.4171 -0.2995
  653WAT      O 3331   6.318   5.374   4.232  0.1134  0.0364 -0.2774
  653WAT     H1 3332   6.304   5.366   4.318 -1.2398 -0.1937 -0.4966
  653WAT     H2 3333   6.346   5.295   4.209  0.2662  0.0334 -0.0894
  653WAT    EPW 3334   6.320   5.361   4.242 -0.0639  0.0019 -0.2820
  654WAT      O 3335   2.989   3.975   0.421 -0.1058 -0.3966 -0.2945
  654WAT     H1 3336   2.978   4.047   0.372 -0.7645 -0.0032  0.4196
  654WAT     H2 3337   2.908   3.948   0.438 -0.1296  1.4093  3.3836
  654WAT    EPW 3338   2.976   3.982   0.416 -0.2066 -0.0717  0.3543
  655WAT      O 3339   5.649   4.770   6.930  0.0004  0.7520 -0.6596
  655WAT     H1 3340   5.714   4.824   6.952 -1.1174  3.0219 -2.5681
  655WAT     H2 3341   5.662   4.756   6.845 -0.4892 -1.0234 -0.4820
  655WAT    EPW 3342   5.660   4.776   6.921 -0.2370  0.8250 -0.9153
  656WAT      O 3343   4.421   6.269   2.686  0.0374  0.1061 -0.0167
  656WAT     H1 3344   4.491   6.251   2.638 -0.4489 -0.5897 -0.4859
  656WAT     H2 3345   4.382   6.335   2.644 -0.4378 -0.5626 -0.6577
  656WAT    EPW 3346   4.425   6.276   2.673 -0.1046 -0.0955 -0.1807
  657WAT      O 3347   4.910   5.110   3.662  0.2160 -0.2084  0.0597
  657WAT     H1 3348   4.996   5.098   3.651  0.4073  0.2758  0.9149
  657WAT     H2 3349   4.886   5.043   3.712  0.1437 -0.2274 -0.0014
  657WAT    EPW 3350   4.919   5.098   3.668  0.2336 -0.1397  0.1770
  658WAT      O 3351   5.771   6.780   1.911 -0.1115  0.1319 -0.1569
  658WAT     H1 3352   5.694   6.746   1.930 -0.0297 -0.4109 -0.7815
  658WAT     H2 3353   5.802   6.805   1.989  0.4114 -2.4335  0.5350
  658WAT    EPW 3354   5.765   6.779   1.926 -0.0222 -0.3272 -0.1470
  659WAT      O 3355   4.928   5.702   5.798  0.2476  0.2843  0.3931
  659WAT     H1 3356   4.862   5.739   5.753 -0.5088  1.4585  2.3270
  659WAT     H2 3357   4.977   5.770   5.820  0.5596 -0.2466  1.3729
  659WAT    EPW 3358   4.925   5.718   5.795  0.1820  0.3793  0.8235
  660WAT      O 3359   0.559   4.940   6.944  0.2382  0.1742 -0.0075
  660WAT     H1 3360   0.517   4.939   6.868 -1.3039  2.9890  0.6561
  660WAT     H2 3361   0.614   4.873   6.938 -1.6258 -1.3205 -2.5211
  660WAT    EPW 3362   0.561   4.930   6.932 -0.2649  0.3692 -0.2808
  661WAT      O 3363   7.242   6.589   5.228 -0.5710  0.2359 -0.5102
  661WAT     H1 3364   7.190   6.597   5.297  0.6096  0.3386  0.3945
  661WAT     H2 3365   7.225   6.510   5.197 -0.1966 -0.3319  0.6871
  661WAT    EPW 3366   7.232   6.579   5.233 -0.3413  0.1672 -0.1997
  662WAT      O 3367   6.246   6.829   3.025 -1.0192  0.0076 -0.2388
  662WAT     H1 3368   6.190   6.892   3.001  0.9606  1.0445 -2.5740
  662WAT     H2 3369   6.256   6.842   3.110 -2.2430  1.5353 -0.2818
  662WAT    EPW 3370   6.239   6.841   3.034 -0.9075  0.3864 -0.5901
  663WAT      O 3371   7.142   3.646   7.862 -0.0955  0.2203 -0.1352
  663WAT     H1 3372   7.074   3.595   7.885 -0.7368  1.3435  0.5637
  663WAT     H2 3373   7.119   3.676   7.783  0.2176 -0.4353 -0.4854
  663WAT    EPW 3374   7.128   3.642   7.854 -0.1440  0.2894 -0.0837
  664WAT      O 3375   5.195   1.730   0.070 -0.0510 -0.0707 -0.0218
  664WAT     H1 3376   5.192   1.669   0.007  0.0339 -1.7375  1.5203
  664WAT     H2 3377   5.279   1.752   0.073  0.2192 -1.1307  0.5320
  664WAT    EPW 3378   5.207   1.724   0.061  0.0015 -0.4735  0.2878
  665WAT      O 3379   6.366   0.443   0.948 -0.3113  0.6374 -0.4846
  665WAT     H1 3380   6.310   0.412   1.008  0.9278  1.3191  1.1013
  665WAT     H2 3381   6.406   0.372   0.918 -0.0722  0.3661  0.4361
  665WAT    EPW 3382   6.363   0.428   0.952 -0.0930  0.6980 -0.1143
  666WAT      O 3383   4.689   0.600   0.193 -0.0484  0.2039 -0.7345
  666WAT     H1 3384   4.625   0.590   0.251 -0.4094 -1.6668 -1.3772
  666WAT     H2 3385   4.646   0.601   0.116  0.5647  0.7831 -1.0796
  666WAT    EPW 3386   4.673   0.599   0.190 -0.0112  0.0131 -0.8804
  667WAT      O 3387   6.488   6.621   0.371  0.0559  0.4851 -0.2568
  667WAT     H1 3388   6.457   6.657   0.445 -1.1887 -1.0361  0.0220
  667WAT     H2 3389   6.431   6.648   0.310  0.7730  1.3005 -0.5770
  667WAT    EPW 3390   6.475   6.630   0.373 -0.0220  0.3809 -0.2629
  668WAT      O 3391   5.666   5.130   2.056  0.1282 -0.8375  0.6620
  668WAT     H1 3392   5.723   5.064   2.059 -1.2590 -2.1952 -0.6619
  668WAT     H2 3393   5.706   5.189   2.006  1.0762 -0.9914  1.2118
  668WAT    EPW 3394   5.680   5.129   2.049  0.0633 -1.0608  0.5476
  669WAT      O 3395   4.592   4.515   6.754  0.2651  0.4721  0.2128
  669WAT     H1 3396   4.585   4.547   6.673 -0.4683  0.2419  0.1781
  669WAT     H2 3397   4.676   4.493   6.760  1.1726  3.5273  0.6541
  669WAT    EPW 3398   4.603   4.517   6.743  0.2908  0.8894  0.2728
  670WAT      O 3399   2.449   4.339   5.390  0.3770  0.3655  0.4721
  670WAT     H1 3400   2.500   4.287   5.342  0.4185 -0.9966  1.8719
  670WAT     H2 3401   2.483   4.418   5.380  2.4149 -0.4010  0.8717
  670WAT    EPW 3402   2.462   4.343   5.382  0.6842  0.0511  0.7379
  671WAT      O 3403   3.740   6.383   5.796  0.3738  0.2663 -0.2977
  671WAT     H1 3404   3.817   6.416   5.819 -0.1309  2.4505 -1.4597
  671WAT     H2 3405   3.738   6.394   5.709 -0.5652 -1.3294 -0.5157
  671WAT    EPW 3406   3.751   6.389   5.786  0.1605  0.3533 -0.5016
  672WAT      O 3407   7.048   2.402   7.276  0.1304  0.1320 -0.2846
  672WAT     H1 3408   6.964   2.423   7.271 -0.5853 -2.0340  1.1522
  672WAT     H2 3409   7.063   2.356   7.204 -0.3602 -0.8015  0.2011
  672WAT    EPW 3410   7.038   2.399   7.265 -0.0478 -0.3259 -0.0006
  673WAT      O 3411   3.678   4.606   0.512  0.0105  0.0897  0.7560
  673WAT     H1 3412   3.762   4.595   0.531  0.0846  1.3692  1.3506
  673WAT     H2 3413   3.648   4.525   0.499  1.3449 -0.3747  0.4260
  673WAT    EPW 3414   3.686   4.593   0.513  0.2186  0.2101  0.7951
  674WAT      O 3415   2.842   6.262   2.174  0.7095 -0.4703  0.0973
  674WAT     H1 3416   2.869   6.196   2.225 -0.0020 -0.4524  0.5181
  674WAT     H2 3417   2.777   6.298   2.220 -0.4514 -0.9077 -1.1307
  674WAT    EPW 3418   2.836   6.258   2.188  0.4329 -0.5323 -0.0219
  675WAT      O 3419   2.258   6.682   1.138 -0.5853 -0.0757 -0.0634
  675WAT     H1 3420   2.200   6.620   1.157  0.3791 -1.0411 -0.1642
  675WAT     H2 3421   2.324   6.664   1.192 -0.5019  1.2064  0.2835
  675WAT    EPW 3422   2.259   6.670   1.149 -0.4305 -0.0289 -0.0270
  676WAT      O 3423   6.735   6.812   7.626 -0.0413 -0.7616  0.5599
  676WAT     H1 3424   6.702   6.820   7.546  0.3512 -0.4526  0.4251
  676WAT     H2 3425   6.810   6.770   7.613  0.1822 -0.4175  0.7246
  676WAT    EPW 3426   6.741   6.807   7.612  0.0497 -0.6651  0.5643
  677WAT      O 3427   3.733   2.538   5.699 -0.8954  0.1144 -0.1411
  677WAT     H1 3428   3.695   2.616   5.689 -0.5592  0.1840 -0.9944
  677WAT     H2 3429   3.812   2.557   5.731  0.1562  0.3910 -2.5975
  677WAT    EPW 3430   3.739   2.553   5.702 -0.6904  0.1655 -0.6300
  678WAT      O 3431   6.181   5.108   5.310 -0.3884  0.0980  0.3361
  678WAT     H1 3432   6.097   5.085   5.304 -0.4153  0.1862  0.3683
  678WAT     H2 3433   6.224   5.032   5.306 -0.4073  0.1187 -0.8489
  678WAT    EPW 3434   6.175   5.093   5.308 -0.3952  0.1141  0.1658
  679WAT      O 3435   6.179   7.209   2.609 -0.2535  0.6549 -0.6191
  679WAT     H1 3436   6.247   7.156   2.598 -0.4498  0.3729 -0.4808
  679WAT     H2 3437   6.212   7.276   2.655 -0.5564 -0.5347  1.4345
  679WAT    EPW 3438   6.194   7.211   2.614 -0.3273  0.4375 -0.2953
  680WAT      O 3439   7.359   4.347   6.396  0.0238 -0.2914 -0.1641
  680WAT     H1 3440   7.385   4.415   6.443  1.1366 -1.0565  0.3736
  680WAT     H2 3441   7.290   4.317   6.440 -0.8578  0.8213 -0.7370
  680WAT    EPW 3442   7.352   4.352   6.409  0.0579 -0.2400 -0.1693
  681WAT      O 3443   3.473   1.381   0.098 -0.1289  0.1982 -0.0332
  681WAT     H1 3444   3.417   1.339   0.046 -0.5355  0.0542  0.5200
  681WAT     H2 3445   3.468   1.464   0.071 -0.0081  0.0485 -0.5171
  681WAT    EPW 3446   3.464   1.387   0.086 -0.1711  0.1548 -0.0229
  682WAT      O 3447   5.869   7.506   4.512  0.0255  0.8331  0.0692
  682WAT     H1 3448   5.841   7.577   4.554 -0.1544 -0.5375  2.4486
  682WAT     H2 3449   5.796   7.468   4.485 -0.2189 -0.2948  2.1054
  682WAT    EPW 3450   5.854   7.511   4.514 -0.0372  0.4640  0.7215
  683WAT      O 3451   5.895   4.081   4.007  0.0297  0.2581  0.0512
  683WAT     H1 3452   5.877   4.109   3.926  0.2958  0.6035  0.1066
  683WAT     H2 3453   5.936   4.005   3.994  1.8162  1.2003 -0.2553
  683WAT    EPW 3454   5.899   4.074   3.993  0.3329  0.4483  0.0141
  684WAT      O 3455   1.822   6.037   0.231 -0.4607 -0.4263 -0.1219
  684WAT     H1 3456   1.893   5.996   0.201  0.2258  0.8448 -0.2956
  684WAT     H2 3457   1.794   6.082   0.161  0.8213  2.1066  0.8525
  684WAT    EPW 3458   1.829   6.037   0.216 -0.1699  0.1357 -0.0036
  685WAT      O 3459   5.017   5.959   5.503  0.0778 -0.2054 -0.2109
  685WAT     H1 3460   5.051   5.945   5.423 -1.3620  0.7023 -1.0304
  685WAT     H2 3461   5.076   6.012   5.540  1.0833 -1.1434 -0.3985
  685WAT    EPW 3462   5.031   5.965   5.496  0.0136 -0.2099 -0.3597
  686WAT      O 3463   5.841   0.487   7.585 -0.1307 -0.1474 -0.1490
  686WAT     H1 3464   5.873   0.409   7.565 -2.2641 -1.8335  2.2924
  686WAT     H2 3465   5.755   0.473   7.588 -0.4576  1.7183  2.3231
  686WAT    EPW 3466   5.833   0.474   7.582 -0.4941 -0.1208  0.5768
  687WAT      O 3467   4.753   4.269   1.240  0.2082 -0.1916 -0.4463
  687WAT     H1 3468   4.825   4.270   1.290  1.1364  0.5684 -1.7362
  687WAT     H2 3469   4.711   4.341   1.264  0.6918  0.2156 -0.7862
  687WAT    EPW 3470   4.758   4.280   1.251  0.4167 -0.0192 -0.6871
  688WAT      O 3471   5.139   7.571   6.083 -0.3016 -0.3757  0.2622
  688WAT     H1 3472   5.118   7.600   6.004  0.9187  0.5970  0.2646
  688WAT     H2 3473   5.124   7.486   6.079  0.3231 -0.4336 -1.2158
  688WAT    EPW 3474   5.134   7.563   6.071 -0.0291 -0.2406  0.0442
  689WAT      O 3475   5.367   0.710   6.496  1.0106 -0.5478 -0.3584
  689WAT     H1 3476   5.415   0.768   6.540  0.0267 -0.4217  0.5903
  689WAT     H2 3477   5.426   0.662   6.454  1.8617  1.1491 -1.2184
  689WAT    EPW 3478   5.383   0.711   6.496  0.9910 -0.2785 -0.3453
  690WAT      O 3479   6.099   6.738   3.825  0.2756  0.6474  0.2494
  690WAT     H1 3480   6.105   6.657   3.857  1.3252  0.5608 -0.1463
  690WAT     H2 3481   6.046   6.728   3.757 -0.0909  0.4115  0.5600
  690WAT    EPW 3482   6.092   6.724   3.820  0.3765  0.5998  0.2368
  691WAT      O 3483   4.605   1.822   6.617  0.2008  0.1791 -0.0312
  691WAT     H1 3484   4.666   1.764   6.594  0.0911 -0.1299  0.4370
  691WAT     H2 3485   4.651   1.889   6.649  0.2972 -0.2127  0.6838
  691WAT    EPW 3486   4.621   1.823   6.618  0.1988  0.0756  0.1436
  692WAT      O 3487   5.570   3.570   4.846 -0.5027 -0.1477 -0.2253
  692WAT     H1 3488   5.627   3.570   4.780 -0.0212 -1.0828  0.1770
  692WAT     H2 3489   5.529   3.647   4.837 -0.7610 -0.4337 -1.8692
  692WAT    EPW 3490   5.572   3.581   4.835 -0.4697 -0.3281 -0.4087
  693WAT      O 3491   2.700   4.484   6.556  0.1488  0.0876  0.6918
  693WAT     H1 3492   2.722   4.484   6.640  0.7469  1.4917  0.5624
  693WAT     H2 3493   2.632   4.539   6.553 -0.8463 -1.1323  0.4777
  693WAT    EPW 3494   2.693   4.492   6.568  0.0901  0.1148  0.6411
  694WAT      O 3495   3.198   0.445   1.654  0.2443 -0.7631  0.0158
  694WAT     H1 3496   3.181   0.382   1.712 -0.5985  0.6605  1.3796
  694WAT     H2 3497   3.119   0.466   1.623  0.3864  0.3131  0.3456
  694WAT    EPW 3498   3.184   0.439   1.658  0.1408 -0.3938  0.2660
  695WAT      O 3499   6.107   5.471   3.901 -0.2472 -0.2637 -0.1764
  695WAT     H1 3500   6.126   5.410   3.841 -2.4961 -1.2394 -0.0137
  695WAT     H2 3501   6.182   5.512   3.913  0.8557 -1.6268 -1.8882
  695WAT    EPW 3502   6.121   5.468   3.894 -0.4165 -0.6092 -0.4052
  696WAT      O 3503   0.586   6.220   4.266 -0.6646 -0.4045  0.2821
  696WAT     H1 3504   0.667   6.193   4.285  0.3295  2.4484  0.5326
  696WAT     H2 3505   0.594   6.255   4.187 -1.8249 -0.6270  0.0438
  696WAT    EPW 3506   0.599   6.221   4.257 -0.6892 -0.0159  0.2839
  697WAT      O 3507   7.709   3.600   6.150 -0.3477  0.2313  0.0069
  697WAT     H1 3508   7.628   3.598   6.183 -0.2158 -2.3659  0.3224
  697WAT     H2 3509   7.703   3.556   6.075  0.5564  1.0177 -0.5564
  697WAT    EPW 3510   7.696   3.593   6.144 -0.1947 -0.0362 -0.0297
  698WAT      O 3511   5.876   6.123   3.713 -0.1552  0.2969 -0.0325
  698WAT     H1 3512   5.901   6.111   3.630 -1.5133 -2.0670 -0.1983
  698WAT     H2 3513   5.853   6.207   3.716 -1.5274  0.1079 -2.5093
  698WAT    EPW 3514   5.876   6.134   3.701 -0.5586 -0.0802 -0.4228
  699WAT      O 3515   6.200   0.125   5.251  0.4031  0.6841 -0.3489
  699WAT     H1 3516   6.153   0.129   5.324 -0.0188  2.4026 -0.6744
  699WAT     H2 3517   6.143   0.144   5.188  0.6988 -1.0263 -1.2158
  699WAT    EPW 3518   6.185   0.128   5.253  0.3844  0.6853 -0.5250
  700WAT      O 3519   1.569   0.817   2.701 -0.0889  0.4650  0.8262
  700WAT     H1 3520   1.595   0.897   2.724 -1.2218  0.6572  1.4965
  700WAT     H2 3521   1.489   0.811   2.736  0.6356 -1.5903  2.3294
  700WAT    EPW 3522   1.561   0.828   2.710 -0.1492  0.1898  1.1473
  701WAT      O 3523   3.691   7.299   0.678  0.1663 -0.2583  0.3816
  701WAT     H1 3524   3.747   7.366   0.685  0.5452 -0.3765 -1.2021
  701WAT     H2 3525   3.710   7.249   0.747  1.3539  0.2009  0.4094
  701WAT    EPW 3526   3.702   7.301   0.689  0.3977 -0.2079  0.1517
  702WAT      O 3527   7.635   5.743   4.064 -0.5194 -0.0598 -0.1263
  702WAT     H1 3528   7.715   5.764   4.039 -0.5740 -0.2304 -0.4551
  702WAT     H2 3529   7.585   5.770   3.998 -0.7444  0.1408  0.1227
  702WAT    EPW 3530   7.639   5.750   4.050 -0.5607 -0.0554 -0.1381
  703WAT      O 3531   5.177   2.713   4.884 -0.0611  0.0064 -0.2261
  703WAT     H1 3532   5.214   2.657   4.829  0.9083 -1.0016  1.3573
  703WAT     H2 3533   5.157   2.664   4.954 -0.1793  1.4140  0.7920
  703WAT    EPW 3534   5.180   2.698   4.886  0.0646  0.0655  0.1582
  704WAT      O 3535   6.591   2.576   4.419  0.1381 -0.3705 -0.9025
  704WAT     H1 3536   6.660   2.558   4.369  0.5063  0.7148 -0.8131
  704WAT     H2 3537   6.589   2.663   4.420  0.6755 -0.3020  1.6547
  704WAT    EPW 3538   6.601   2.586   4.412  0.2719 -0.2000 -0.5115
  705WAT      O 3539   6.336   7.109   7.509 -0.4683 -0.6682 -0.1162
  705WAT     H1 3540   6.336   7.050   7.444  0.8105 -0.2340 -0.5417
  705WAT     H2 3541   6.258   7.098   7.546 -1.7009 -0.2204 -2.3809
  705WAT    EPW 3542   6.324   7.099   7.505 -0.4615 -0.5379 -0.5136
  706WAT      O 3543   0.523   5.253   4.974  0.1840 -0.5989  0.3951
  706WAT     H1 3544   0.501   5.257   4.890 -1.2093  1.2422  0.8031
  706WAT     H2 3545   0.468   5.195   5.007  0.1614 -0.6802  0.2161
  706WAT    EPW 3546   0.512   5.245   4.967 -0.0252 -0.3389  0.4289
  707WAT      O 3547   6.905   5.282   7.502  0.1890  0.2844  0.3420
  707WAT     H1 3548   6.856   5.253   7.569  0.2806  0.2469  0.3933
  707WAT     H2 3549   6.893   5.368   7.504  2.6748  0.6902  2.4103
  707WAT    EPW 3550   6.896   5.290   7.513  0.5698  0.3388  0.6551
  708WAT      O 3551   6.924   6.078   0.448 -0.3406  0.0585 -0.0922
  708WAT     H1 3552   6.859   6.134   0.461 -0.6461 -0.3645  0.2563
  708WAT     H2 3553   6.932   6.038   0.526  0.4058  0.1828 -0.1001
  708WAT    EPW 3554   6.915   6.080   0.461 -0.2755  0.0144 -0.0419
  709WAT      O 3555   5.178   2.812   2.346 -0.1323 -0.6933  0.3081
  709WAT     H1 3556   5.162   2.883   2.299  0.9144 -0.9606 -0.4778
  709WAT     H2 3557   5.113   2.811   2.405 -0.8058  0.2670 -0.4001
  709WAT    EPW 3558   5.166   2.822   2.348 -0.0772 -0.5910  0.0874
  710WAT      O 3559   5.476   4.850   7.764 -0.1542 -0.0966 -0.1456
  710WAT     H1 3560   5.393   4.826   7.759  0.2821 -1.4923 -1.8910
  710WAT     H2 3561   5.496   4.874   7.682  0.8825  1.3073  0.4620
  710WAT    EPW 3562   5.467   4.850   7.751  0.0634 -0.0954 -0.3137
  711WAT      O 3563   1.926   1.314   4.678  0.1309  0.0012 -0.6996
  711WAT     H1 3564   1.853   1.335   4.637 -0.3395 -0.5452 -0.1620
  711WAT     H2 3565   1.933   1.228   4.667  1.9547  0.3134 -2.7408
  711WAT    EPW 3566   1.916   1.304   4.671  0.3308 -0.0334 -0.9217
  712WAT      O 3567   1.552   7.011   6.920  0.0648  0.6031 -0.3089
  712WAT     H1 3568   1.551   7.071   6.856 -0.8949  1.4575  0.4772
  712WAT     H2 3569   1.542   6.935   6.878 -0.6310  1.1578 -1.1673
  712WAT    EPW 3570   1.551   7.009   6.904 -0.1798  0.8112 -0.3196
  713WAT      O 3571   0.494   6.034   4.998  0.2266  0.2017  0.1231
  713WAT     H1 3572   0.559   6.082   4.963 -0.1634 -0.2348 -1.2776
  713WAT     H2 3573   0.448   6.009   4.928  0.0885 -1.7499  0.8646
  713WAT    EPW 3574   0.497   6.038   4.982  0.1486 -0.1510  0.0257
  714WAT      O 3575   0.229   6.505   5.252 -0.1411 -0.5594 -0.6040
  714WAT     H1 3576   0.191   6.540   5.182  0.1668  1.2077  0.0656
  714WAT     H2 3577   0.292   6.455   5.218 -1.2919 -1.3544 -1.6304
  714WAT    EPW 3578   0.233   6.503   5.237 -0.2656 -0.4158 -0.6567
  715WAT      O 3579   7.227   4.599   0.100  0.3589 -0.2730  0.0250
  715WAT     H1 3580   7.156   4.630   0.059  0.0649 -0.2038  0.5857
  715WAT     H2 3581   7.259   4.669   0.140  0.5993 -0.3620 -0.0132
  715WAT    EPW 3582   7.221   4.614   0.100  0.3510 -0.2759  0.1022
  716WAT      O 3583   3.868   0.587   3.826  0.4570  0.0451  0.0463
  716WAT     H1 3584   3.893   0.640   3.761  0.8128 -1.2345 -0.9264
  716WAT     H2 3585   3.781   0.590   3.824  0.4097 -1.0893 -1.5248
  716WAT    EPW 3586   3.859   0.595   3.816  0.5026 -0.3115 -0.3295
  717WAT      O 3587   5.527   4.475   2.750 -0.1341 -0.3800 -0.3863
  717WAT     H1 3588   5.466   4.494   2.809 -1.4211 -2.8936 -0.7641
  717WAT     H2 3589   5.592   4.442   2.798 -0.2488 -0.3131 -0.1844
  717WAT    EPW 3590   5.528   4.473   2.765 -0.3412 -0.7414 -0.4123
  718WAT      O 3591   6.874   5.380   4.727 -0.1413  0.1476 -0.3741
  718WAT     H1 3592   6.957   5.357   4.744  0.0125  1.8781  1.6442
  718WAT     H2 3593   6.882   5.463   4.700 -1.3399  1.9638  3.9605
  718WAT    EPW 3594   6.888   5.389   4.725 -0.2957  0.6715  0.5644
  719WAT      O 3595   1.039   6.551   6.991 -0.4838 -0.0123 -0.4825
  719WAT     H1 3596   1.089   6.539   7.062 -1.4267  0.6276  0.3179
  719WAT     H2 3597   1.006   6.631   7.003 -2.9452 -0.9814 -0.1740
  719WAT    EPW 3598   1.042   6.561   7.003 -0.9867 -0.0609 -0.3187
  720WAT      O 3599   5.365   7.535   3.792 -0.2367  0.4870 -0.3642
  720WAT     H1 3600   5.317   7.603   3.821  0.7640  0.4610  1.5040
  720WAT     H2 3601   5.379   7.488   3.865  2.4067  0.3667 -0.8732
  720WAT    EPW 3602   5.360   7.538   3.807  0.3016  0.4654 -0.1635
  721WAT      O 3603   3.676   0.950   1.528 -0.3848  0.0264 -0.1901
  721WAT     H1 3604   3.726   0.976   1.595 -0.8010  1.3759 -0.3795
  721WAT     H2 3605   3.641   0.875   1.557  0.4828 -0.1162  0.5614
  721WAT    EPW 3606   3.678   0.943   1.542 -0.3181  0.2047 -0.1071
  722WAT      O 3607   7.458   2.709   6.824 -0.4346 -0.1833 -0.1876
  722WAT     H1 3608   7.398   2.698   6.887 -0.2213  0.6498  0.1725
  722WAT     H2 3609   7.489   2.629   6.812 -2.8823 -1.0385 -1.7095
  722WAT    EPW 3610   7.453   2.696   6.832 -0.7646 -0.1866 -0.3592
  723WAT      O 3611   1.170   0.981   4.318 -0.4618  0.3201 -1.0528
  723WAT     H1 3612   1.089   0.953   4.303 -0.0114 -2.3220  0.7429
  723WAT     H2 3613   1.220   0.916   4.288  0.7943  0.1738  1.1203
  723WAT    EPW 3614   1.166   0.967   4.311 -0.2097 -0.0918 -0.4665
  724WAT      O 3615   4.237   7.042   2.909  0.5967 -0.0232 -0.3732
  724WAT     H1 3616   4.156   7.014   2.923  0.4754  0.9752  1.1350
  724WAT     H2 3617   4.264   7.070   2.987  1.2409  2.5670 -1.4145
  724WAT    EPW 3618   4.229   7.042   2.922  0.6739  0.5069 -0.3042
  725WAT      O 3619   5.300   3.510   7.023  0.4285  0.0352 -0.2334
  725WAT     H1 3620   5.239   3.534   6.966  1.1505  1.0903 -0.5906
  725WAT     H2 3621   5.306   3.578   7.077  2.3007  0.6282 -1.0761
  725WAT    EPW 3622   5.292   3.523   7.023  0.8118  0.2786 -0.4107
  726WAT      O 3623   6.185   4.409   4.078  0.1417 -0.3258 -0.0079
  726WAT     H1 3624   6.210   4.447   4.004  4.1314 -0.5085  0.9974
  726WAT     H2 3625   6.231   4.451   4.139 -0.5089 -2.2806  1.9711
  726WAT    EPW 3626   6.195   4.420   4.076  0.6350 -0.6416  0.4329
  727WAT      O 3627   0.620   1.521   7.373  0.5574 -0.3609  0.0337
  727WAT     H1 3628   0.539   1.552   7.386  0.3003 -1.4351  1.2360
  727WAT     H2 3629   0.657   1.529   7.452  1.8224  0.6152 -0.6317
  727WAT    EPW 3630   0.613   1.527   7.387  0.7063 -0.3754  0.1130
  728WAT      O 3631   6.846   6.481   0.465 -0.6383  0.4780  0.0499
  728WAT     H1 3632   6.853   6.517   0.386 -0.8798 -0.8982 -0.6354
  728WAT     H2 3633   6.928   6.460   0.485 -0.5339  1.1396  0.3240
  728WAT    EPW 3634   6.859   6.483   0.457 -0.6586  0.3725 -0.0108
  729WAT      O 3635   4.765   3.598   5.869  0.3612 -0.1067  0.3120
  729WAT     H1 3636   4.802   3.653   5.925  0.8956 -0.3235  0.1806
  729WAT     H2 3637   4.740   3.531   5.919  2.1972 -0.9975  0.1191
  729WAT    EPW 3638   4.766   3.596   5.884  0.7114 -0.2703  0.2641
  730WAT      O 3639   4.580   0.900   5.408 -0.0820  0.2004 -0.7754
  730WAT     H1 3640   4.510   0.889   5.459 -0.2990  1.1366 -0.8519
  730WAT     H2 3641   4.554   0.961   5.350  0.7472  0.4650 -0.8842
  730WAT    EPW 3642   4.566   0.908   5.407  0.0085  0.3778 -0.8028
  731WAT      O 3643   4.603   5.773   7.347  0.1893 -0.0978  0.2861
  731WAT     H1 3644   4.578   5.697   7.311  0.4017  0.0556 -0.1924
  731WAT     H2 3645   4.571   5.768   7.429 -0.3509 -0.4250  0.0658
  731WAT    EPW 3646   4.594   5.761   7.354  0.1409 -0.1235  0.1829
  732WAT      O 3647   6.021   3.501   6.252 -0.3426 -0.2335 -0.2229
  732WAT     H1 3648   6.079   3.546   6.300  0.2034 -0.1653 -0.9214
  732WAT     H2 3649   5.954   3.556   6.245  1.1809  1.5160 -2.9656
  732WAT    EPW 3650   6.020   3.516   6.258 -0.0369  0.0350 -0.7313
  733WAT      O 3651   3.354   6.105   1.939  0.2635 -0.5488 -0.4649
  733WAT     H1 3652   3.421   6.077   1.986  1.1826  0.2660 -1.2398
  733WAT     H2 3653   3.360   6.058   1.865  1.1471  0.8162 -1.3110
  733WAT    EPW 3654   3.365   6.094   1.935  0.5298 -0.2268 -0.7043
  734WAT      O 3655   1.819   7.512   1.700 -0.0438 -0.5952  0.5882
  734WAT     H1 3656   1.806   7.590   1.738 -2.5903 -1.1443  1.0439
  734WAT     H2 3657   1.741   7.473   1.708  1.0841 -3.1001  0.1405
  734WAT    EPW 3658   1.805   7.518   1.707 -0.2534 -1.0464  0.5894
  735WAT      O 3659   6.501   5.662   5.356 -0.3306 -0.1509  0.3655
  735WAT     H1 3660   6.545   5.594   5.323 -1.8485 -0.2099 -1.7370
  735WAT     H2 3661   6.438   5.625   5.403  0.9952 -0.0754  2.3275
  735WAT    EPW 3662   6.498   5.647   5.358 -0.3590 -0.1485  0.3447
  736WAT      O 3663   1.152   5.223   5.893  1.0365  0.0455  0.2488
  736WAT     H1 3664   1.152   5.248   5.977 -1.7159 -0.0983  0.4046
  736WAT     H2 3665   1.158   5.136   5.897 -0.4962 -0.0887  0.4625
  736WAT    EPW 3666   1.153   5.214   5.906  0.4035  0.0044  0.3034
  737WAT      O 3667   6.118   1.108   3.139 -0.6117 -0.2962 -0.6807
  737WAT     H1 3668   6.073   1.045   3.179 -1.4788  0.3605 -0.5893
  737WAT     H2 3669   6.121   1.082   3.056  0.6313 -1.3469 -0.3251
  737WAT    EPW 3670   6.112   1.095   3.133 -0.5562 -0.3544 -0.6147
  738WAT      O 3671   3.937   7.255   2.704  0.0896  0.5562 -0.0426
  738WAT     H1 3672   3.906   7.310   2.644 -1.3920  0.9243  0.9673
  738WAT     H2 3673   4.012   7.291   2.729  0.6754  0.4390 -1.5764
  738WAT    EPW 3674   3.943   7.268   2.699 -0.0427  0.5932 -0.1200
  739WAT      O 3675   0.364   0.123   3.968  0.7995 -0.4805 -0.1933
  739WAT     H1 3676   0.414   0.190   3.994  0.7193 -0.1016 -0.9980
  739WAT     H2 3677   0.422   0.063   3.943  0.9344 -1.3617  1.9450
  739WAT    EPW 3678   0.380   0.124   3.968  0.8076 -0.5547  0.0037
  740WAT      O 3679   7.041   5.609   5.618  0.1739 -1.0280 -0.2204
  740WAT     H1 3680   6.994   5.598   5.691  1.5513 -2.1595  0.5522
  740WAT     H2 3681   7.062   5.694   5.621 -0.1915 -0.9474  0.4418
  740WAT    EPW 3682   7.037   5.620   5.629  0.3234 -1.1832 -0.0085
  741WAT      O 3683   6.682   2.830   4.669  0.1132 -0.2757  0.3751
  741WAT     H1 3684   6.644   2.786   4.734  0.8424 -0.1515  0.8947
  741WAT     H2 3685   6.690   2.911   4.701  2.7318 -0.7400  1.1607
  741WAT    EPW 3686   6.678   2.836   4.683  0.6077 -0.3259  0.5679
  742WAT      O 3687   1.421   4.474   3.517  0.0751  0.4142  0.2485
  742WAT     H1 3688   1.382   4.425   3.456  0.9317  1.9970 -1.6940
  742WAT     H2 3689   1.357   4.495   3.572 -1.1534  0.4515 -1.1508
  742WAT    EPW 3690   1.406   4.470   3.516  0.0201  0.6535 -0.2451
  743WAT      O 3691   3.475   1.911   2.652  0.1673 -0.1298  0.0235
  743WAT     H1 3692   3.562   1.904   2.652  0.0469 -2.8782 -0.3708
  743WAT     H2 3693   3.455   1.913   2.737  0.5867  0.3432  0.1174
  743WAT    EPW 3694   3.485   1.910   2.664  0.2115 -0.4660 -0.0209
  744WAT      O 3695   5.295   0.283   1.085 -0.1852 -0.1424  0.0952
  744WAT     H1 3696   5.255   0.361   1.079  0.5442  0.1346 -1.8462
  744WAT     H2 3697   5.376   0.304   1.110  0.0493 -0.2428 -0.5580
  744WAT    EPW 3698   5.301   0.298   1.088 -0.0428 -0.1163 -0.2881
  745WAT      O 3699   5.279   4.697   4.509  0.0007 -0.4452 -0.3199
  745WAT     H1 3700   5.300   4.781   4.522  0.1375 -0.3279 -1.2489
  745WAT     H2 3701   5.193   4.696   4.521 -0.0696 -0.0780 -0.7809
  745WAT    EPW 3702   5.270   4.709   4.513  0.0105 -0.3736 -0.5252
  746WAT      O 3703   4.281   4.519   4.953  0.4830  0.2062 -0.1561
  746WAT     H1 3704   4.289   4.583   4.893  0.1007 -0.1776 -0.6308
  746WAT     H2 3705   4.194   4.511   4.962  0.5401  0.3001  0.5011
  746WAT    EPW 3706   4.269   4.527   4.945  0.4349  0.1634 -0.1292
  747WAT      O 3707   6.211   1.469   5.705  0.0751 -0.0210 -0.7180
  747WAT     H1 3708   6.195   1.400   5.654  0.1069  0.6257 -1.6242
  747WAT     H2 3709   6.295   1.486   5.691  0.2617 -0.2361  0.0710
  747WAT    EPW 3710   6.221   1.461   5.696  0.1073  0.0428 -0.7353
  748WAT      O 3711   5.337   1.302   5.499 -0.1672  0.4061 -0.2664
  748WAT     H1 3712   5.392   1.234   5.506 -0.9705 -0.2360 -0.0396
  748WAT     H2 3713   5.308   1.297   5.417 -1.2478 -0.3574  0.1330
  748WAT    EPW 3714   5.341   1.291   5.488 -0.4455  0.1985 -0.1739
  749WAT      O 3715   6.888   3.928   6.761 -0.6348 -0.4978 -0.0512
  749WAT     H1 3716   6.804   3.906   6.748 -0.2020 -1.9767 -0.5593
  749WAT     H2 3717   6.930   3.884   6.699  0.5624 -0.0233  0.4024
  749WAT    EPW 3718   6.882   3.918   6.750 -0.3940 -0.6462 -0.0593
  750WAT      O 3719   1.411   2.640   0.218 -0.3062 -0.1020 -0.2437
  750WAT     H1 3720   1.475   2.664   0.164 -0.2704 -0.8370 -0.5475
  750WAT     H2 3721   1.448   2.639   0.297 -0.2786  0.6901 -0.2475
  750WAT    EPW 3722   1.426   2.643   0.222 -0.2969 -0.0936 -0.2892
  751WAT      O 3723   1.150   0.151   5.344 -0.3748 -0.0783  0.1264
  751WAT     H1 3724   1.210   0.102   5.305  0.0767  0.8177 -0.3250
  751WAT     H2 3725   1.106   0.187   5.277  0.1639  1.1771  0.4205
  751WAT    EPW 3726   1.152   0.149   5.328 -0.2285  0.2395  0.1032
  752WAT      O 3727   4.630   5.860   4.408  0.9695 -0.2690 -0.4485
  752WAT     H1 3728   4.602   5.819   4.336  2.6556 -0.2365 -1.1833
  752WAT     H2 3729   4.629   5.798   4.469 -1.9035  0.0626 -0.0466
  752WAT    EPW 3730   4.626   5.845   4.407  0.7942 -0.2152 -0.4976
  753WAT      O 3731   6.640   4.083   5.017  0.6429 -0.3720  0.0335
  753WAT     H1 3732   6.674   4.139   4.959 -0.2048  0.1812  0.0545
  753WAT     H2 3733   6.619   4.014   4.968 -0.6071  0.3177 -0.4447
  753WAT    EPW 3734   6.642   4.081   5.001  0.3330 -0.1884 -0.0341
  754WAT      O 3735   5.774   5.620   1.386 -0.3531 -0.5092 -0.0065
  754WAT     H1 3736   5.835   5.664   1.430 -0.6018  0.3852 -0.5446
  754WAT     H2 3737   5.704   5.673   1.387 -2.1237 -2.6013  2.9784
  754WAT    EPW 3738   5.773   5.634   1.392 -0.6514 -0.6861  0.3549
  755WAT      O 3739   4.549   1.956   2.479 -0.2859  0.0006  0.6364
  755WAT     H1 3740   4.606   1.890   2.479 -0.4608 -0.1770 -0.4528
  755WAT     H2 3741   4.492   1.934   2.541 -0.7667 -1.2717 -0.2068
  755WAT    EPW 3742   4.549   1.943   2.488 -0.3827 -0.2136  0.3509
  756WAT      O 3743   4.810   5.504   3.441  0.3939 -0.8502 -0.0725
  756WAT     H1 3744   4.855   5.460   3.380 -0.2537  1.8626 -2.7460
  756WAT     H2 3745   4.729   5.472   3.434 -0.0751  0.5930 -2.0045
  756WAT    EPW 3746   4.805   5.493   3.431  0.2289 -0.2363 -0.7528
  757WAT      O 3747   6.612   5.625   6.025 -0.1498 -0.1972  0.7037
  757WAT     H1 3748   6.632   5.682   5.962  1.2289 -0.2183  1.0787
  757WAT     H2 3749   6.668   5.645   6.089  0.1197 -1.7164  0.9865
  757WAT    EPW 3750   6.623   5.636   6.025  0.0937 -0.4247  0.8009
  758WAT      O 3751   5.986   4.838   2.723 -0.1430 -0.1296 -0.0318
  758WAT     H1 3752   5.947   4.768   2.690 -0.8402 -0.5056  1.4720
  758WAT     H2 3753   5.993   4.819   2.808 -0.7629  1.7883  0.4912
  758WAT    EPW 3754   5.981   4.825   2.731 -0.3376  0.0982  0.2676
  759WAT      O 3755   1.250   6.506   7.204 -0.0142 -0.1948  0.3065
  759WAT     H1 3756   1.304   6.475   7.144  0.4288 -0.5954  0.8990
  759WAT     H2 3757   1.243   6.441   7.262 -0.2722  0.2472  0.7875
  759WAT    EPW 3758   1.257   6.492   7.204  0.0131 -0.1887  0.4651
  760WAT      O 3759   2.997   7.129   3.291  0.1615 -0.0278 -0.3788
  760WAT     H1 3760   2.921   7.107   3.254  0.2912 -0.6261 -0.2940
  760WAT     H2 3761   3.055   7.116   3.227  0.3746 -0.9707  0.0002
  760WAT    EPW 3762   2.994   7.124   3.276  0.2121 -0.2554 -0.3103
  761WAT      O 3763   5.259   4.071   0.026  0.0568  0.3760  0.1275
  761WAT     H1 3764   5.172   4.066   0.023  0.1274 -1.6349 -1.3536
  761WAT     H2 3765   5.284   4.009  -0.030  2.4509  1.2248  0.1508
  761WAT    EPW 3766   5.250   4.061   0.017  0.4209  0.2044 -0.0879
  762WAT      O 3767   4.833   5.511   7.772  0.4789  0.0708 -0.3459
  762WAT     H1 3768   4.795   5.588   7.758  1.5183  0.4006 -1.4933
  762WAT     H2 3769   4.842   5.508   7.859  0.7747  1.4200 -0.3055
  762WAT    EPW 3770   4.829   5.522   7.783  0.6761  0.3188 -0.5094
  763WAT      O 3771   4.099   2.210   5.187 -0.2318  0.2908 -0.0642
  763WAT     H1 3772   4.092   2.140   5.136  1.8561  0.3761 -0.5828
  763WAT     H2 3773   4.111   2.275   5.130 -1.7280  1.0520  0.4278
  763WAT    EPW 3774   4.100   2.209   5.171 -0.1444  0.4159 -0.0682
  764WAT      O 3775   7.068   4.378   5.166  0.0172 -0.5809  0.4387
  764WAT     H1 3776   7.093   4.436   5.106 -1.6434 -1.0216 -0.7669
  764WAT     H2 3777   7.141   4.333   5.183  0.6012 -0.2875 -1.1022
  764WAT    EPW 3778   7.082   4.380   5.160 -0.1418 -0.6027  0.0330
  765WAT      O 3779   7.183   0.897   5.332  0.0988 -0.0159 -0.2160
  765WAT     H1 3780   7.193   0.810   5.330 -1.3165 -0.2067 -0.3967
  765WAT     H2 3781   7.262   0.927   5.352  0.6329 -1.3459 -0.2540
  765WAT    EPW 3782   7.196   0.889   5.335 -0.0314 -0.2406 -0.2483
  766WAT      O 3783   3.722   6.142   1.145  0.0947 -0.1955 -0.0779
  766WAT     H1 3784   3.685   6.077   1.190 -0.3453  0.7794  1.0292
  766WAT     H2 3785   3.657   6.174   1.097  0.1864 -0.2559 -0.2414
  766WAT    EPW 3786   3.707   6.137   1.145  0.0432 -0.0604  0.0615
  767WAT      O 3787   5.967   2.811   6.712  0.1369  0.2252 -0.6094
  767WAT     H1 3788   5.979   2.868   6.777  0.3380 -1.5393  1.0059
  767WAT     H2 3789   5.889   2.776   6.730  0.0824 -0.0973 -1.4607
  767WAT    EPW 3790   5.957   2.814   6.725  0.1586 -0.0831 -0.4965
  768WAT      O 3791   2.754   2.635   4.764 -0.3845 -0.4379  0.1847
  768WAT     H1 3792   2.788   2.608   4.840  1.0722  0.4344 -0.1208
  768WAT     H2 3793   2.678   2.672   4.788  0.3353  0.3745  1.3020
  768WAT    EPW 3794   2.748   2.636   4.779 -0.0630 -0.1891  0.3046
  769WAT      O 3795   7.304   6.932   5.876  0.1397 -0.0554 -0.1244
  769WAT     H1 3796   7.315   6.936   5.789 -1.9669 -0.2066 -0.4619
  769WAT     H2 3797   7.367   6.878   5.902  1.8268  1.2084 -1.3063
  769WAT    EPW 3798   7.315   6.925   5.867  0.0777  0.1089 -0.3488
  770WAT      O 3799   0.453   2.539   7.333 -0.0063 -0.7140  0.6983
  770WAT     H1 3800   0.476   2.462   7.299  2.4647  0.0741  0.4622
  770WAT     H2 3801   0.528   2.576   7.356 -1.0423  1.9245  0.2456
  770WAT    EPW 3802   0.467   2.533   7.332  0.2057 -0.2078  0.5966
  771WAT      O 3803   5.870   4.698   6.474 -0.4254 -0.2024 -0.4191
  771WAT     H1 3804   5.924   4.766   6.479 -0.0182 -0.5208 -0.4208
  771WAT     H2 3805   5.894   4.648   6.541  0.1036 -0.9272 -1.1342
  771WAT    EPW 3806   5.881   4.701   6.485 -0.2871 -0.3565 -0.5250
  772WAT      O 3807   0.196   6.274   5.778  0.2325 -0.2511  0.6888
  772WAT     H1 3808   0.232   6.297   5.854  0.7141  0.0796  0.3665
  772WAT     H2 3809   0.110   6.277   5.794  0.3143  0.5095  1.0318
  772WAT    EPW 3810   0.188   6.278   5.791  0.3157 -0.0899  0.6919
  773WAT      O 3811   3.572   4.612   6.012  0.1839  0.3638 -0.5081
  773WAT     H1 3812   3.507   4.651   5.970 -1.0988 -0.8764  0.2388
  773WAT     H2 3813   3.562   4.639   6.095  0.0266 -0.5440 -0.2168
  773WAT    EPW 3814   3.561   4.621   6.018 -0.0288  0.0465 -0.3547
  774WAT      O 3815   1.220   3.770   5.477  0.3473  0.0347 -0.3865
  774WAT     H1 3816   1.229   3.723   5.550  0.1917  2.2376  1.1207
  774WAT     H2 3817   1.303   3.783   5.451  0.5510  1.1424  0.7164
  774WAT    EPW 3818   1.234   3.765   5.484  0.3544  0.5237 -0.0010
  775WAT      O 3819   4.021   0.963   0.308 -0.7217 -0.1214 -0.7208
  775WAT     H1 3820   4.074   0.992   0.245  0.8819 -1.2970 -0.0091
  775WAT     H2 3821   3.987   0.890   0.275 -0.2522 -0.4811 -0.4295
  775WAT    EPW 3822   4.024   0.956   0.294 -0.4155 -0.3482 -0.5726
  776WAT      O 3823   0.257   7.391   6.171 -0.3986 -0.5811  0.9875
  776WAT     H1 3824   0.340   7.371   6.187 -0.0103 -0.9463 -1.1404
  776WAT     H2 3825   0.238   7.343   6.100 -1.2915  2.0923 -0.7179
  776WAT    EPW 3826   0.266   7.381   6.163 -0.4731 -0.2401  0.4212
  777WAT      O 3827   5.648   2.835   6.578 -0.4387  0.2104 -0.4223
  777WAT     H1 3828   5.662   2.919   6.598  0.6198 -0.2678  0.9717
  777WAT     H2 3829   5.670   2.792   6.651 -1.0569 -1.2804 -1.0696
  777WAT    EPW 3830   5.653   2.841   6.592 -0.3737 -0.0805 -0.3120
  778WAT      O 3831   3.456   1.086   0.244 -0.1536 -0.1251 -0.4014
  778WAT     H1 3832   3.426   1.134   0.177  1.1190 -0.9671 -1.6269
  778WAT     H2 3833   3.395   1.097   0.306 -0.8459  1.5218 -1.3102
  778WAT    EPW 3834   3.442   1.095   0.243 -0.0679 -0.0062 -0.7167
  779WAT      O 3835   7.203   1.164   7.454 -0.3077  0.9693  0.3920
  779WAT     H1 3836   7.215   1.079   7.469 -0.1446 -0.2670 -4.9610
  779WAT     H2 3837   7.281   1.199   7.474 -0.0078 -0.2433  1.5480
  779WAT    EPW 3838   7.216   1.157   7.459 -0.2393  0.6076 -0.2280
  780WAT      O 3839   2.337   7.521   1.843 -0.3728 -0.2409  0.1684
  780WAT     H1 3840   2.353   7.554   1.764  0.6274  0.9955  0.8406
  780WAT     H2 3841   2.351   7.589   1.897  0.9647 -1.5445  1.5729
  780WAT    EPW 3842   2.342   7.536   1.840 -0.0275 -0.2508  0.4752
  781WAT      O 3843   4.429   7.020   4.310  0.1100  0.1049 -0.4343
  781WAT     H1 3844   4.456   7.081   4.255 -2.1267  0.8280 -0.8319
  781WAT     H2 3845   4.347   7.004   4.285  0.0498 -1.8231  0.7393
  781WAT    EPW 3846   4.421   7.026   4.298 -0.2293 -0.0731 -0.3196
  782WAT      O 3847   5.045   0.275   4.761 -0.7919 -0.1818  0.4354
  782WAT     H1 3848   5.024   0.360   4.764 -0.5803 -0.1026 -0.2728
  782WAT     H2 3849   4.992   0.244   4.699  0.3334 -0.2154 -0.5474
  782WAT    EPW 3850   5.034   0.283   4.752 -0.5944 -0.1751  0.1856
  783WAT      O 3851   5.791   6.904   5.006  0.0374 -0.4806 -0.1902
  783WAT     H1 3852   5.758   6.866   5.077  0.2629  1.0049  0.7537
  783WAT     H2 3853   5.751   6.863   4.940 -1.1209 -1.0488  0.8276
  783WAT    EPW 3854   5.780   6.892   5.006 -0.1004 -0.3451  0.0996
  784WAT      O 3855   2.676   6.141   3.917 -0.2435 -0.1625  0.6958
  784WAT     H1 3856   2.643   6.064   3.893  0.3964 -0.2975  0.1959
  784WAT     H2 3857   2.703   6.129   3.999  1.0298 -0.8870  0.2031
  784WAT    EPW 3858   2.675   6.128   3.925  0.0391 -0.2895  0.5492
  785WAT      O 3859   0.132   5.502   6.211 -0.1624  0.3331 -0.2478
  785WAT     H1 3860   0.115   5.525   6.128 -1.2893  1.6072  0.2906
  785WAT     H2 3861   0.096   5.567   6.257  1.8216  0.4705  1.2101
  785WAT    EPW 3862   0.124   5.515   6.205 -0.0358  0.5416  0.0471
  786WAT      O 3863   3.844   7.256   0.270  1.0459 -0.3055  0.1384
  786WAT     H1 3864   3.830   7.170   0.276  0.1006 -0.1355  0.5787
  786WAT     H2 3865   3.808   7.277   0.194 -0.2933 -0.0374  0.8077
  786WAT    EPW 3866   3.836   7.246   0.260  0.7084 -0.2408  0.3023
  787WAT      O 3867   4.304   0.105   4.313 -0.3744  0.2467 -0.3580
  787WAT     H1 3868   4.290   0.020   4.297 -2.5606 -0.0446  2.2715
  787WAT     H2 3869   4.298   0.110   4.400 -2.6005  3.3687 -0.5250
  787WAT    EPW 3870   4.301   0.093   4.324 -1.0262  0.6649  0.0057
  788WAT      O 3871   5.634   3.847   4.546 -0.1809 -0.4121  0.1210
  788WAT     H1 3872   5.675   3.835   4.470 -2.8140  0.1303 -1.5089
  788WAT     H2 3873   5.598   3.769   4.562 -0.1454 -0.3514  0.5020
  788WAT    EPW 3874   5.635   3.833   4.537 -0.5647 -0.3230 -0.0635
  789WAT      O 3875   0.299   0.506   5.329 -0.4479  0.1235 -0.3570
  789WAT     H1 3876   0.219   0.475   5.315 -0.5074  0.1613 -0.1034
  789WAT     H2 3877   0.286   0.590   5.349 -0.3805  0.0311  0.0902
  789WAT    EPW 3878   0.285   0.513   5.330 -0.4468  0.1154 -0.2535
  790WAT      O 3879   7.051   5.692   7.370 -0.0365 -0.3557  0.0608
  790WAT     H1 3880   7.133   5.700   7.399 -0.3056 -1.8425  1.4207
  790WAT     H2 3881   7.003   5.712   7.440 -0.8391  0.5265 -0.7342
  790WAT    EPW 3882   7.056   5.696   7.385 -0.1948 -0.4450  0.1443
  791WAT      O 3883   4.162   1.661   1.225  0.3382  0.0294  0.2419
  791WAT     H1 3884   4.197   1.727   1.271 -0.4936  0.8665 -0.3038
  791WAT     H2 3885   4.077   1.675   1.231  0.1222 -1.2491  0.4533
  791WAT    EPW 3886   4.155   1.673   1.233  0.1834 -0.0358  0.1925
  792WAT      O 3887   7.004   1.731   3.866 -0.2860 -0.8850  0.2436
  792WAT     H1 3888   7.010   1.692   3.789 -0.6522 -0.2892 -0.0911
  792WAT     H2 3889   6.964   1.807   3.849  0.4319 -0.3345  0.8644
  792WAT    EPW 3890   6.999   1.737   3.852 -0.2341 -0.7156  0.2858
  793WAT      O 3891   1.082   5.482   5.512 -0.0366 -0.5352  0.1851
  793WAT     H1 3892   1.149   5.479   5.457 -1.4302  1.9335 -1.8354
  793WAT     H2 3893   1.023   5.428   5.475 -0.2525 -0.4310  0.3737
  793WAT    EPW 3894   1.083   5.473   5.499 -0.2743 -0.1552 -0.0855
  794WAT      O 3895   5.001   3.326   3.511  0.7499  0.4749 -0.1675
  794WAT     H1 3896   5.070   3.274   3.524  0.9665  0.7655 -0.1527
  794WAT     H2 3897   4.953   3.314   3.584  2.2273  2.5196  1.2496
  794WAT    EPW 3898   5.004   3.317   3.524  1.0002  0.8199  0.0440
  795WAT      O 3899   4.509   5.068   4.613  0.5463 -0.1257  0.1772
  795WAT     H1 3900   4.429   5.064   4.646  0.3102 -1.4491 -0.4692
  795WAT     H2 3901   4.539   4.986   4.622  0.6149 -0.4796 -2.4286
  795WAT    EPW 3902   4.502   5.055   4.619  0.5215 -0.3735 -0.3032
  796WAT      O 3903   7.532   2.189   7.496  0.3080  0.1553  0.7002
  796WAT     H1 3904   7.455   2.164   7.465 -0.2000  0.6624  1.5230
  796WAT     H2 3905   7.588   2.135   7.457 -0.0925  1.6691 -2.2022
  796WAT    EPW 3906   7.529   2.177   7.486  0.1738  0.4538  0.3930
  797WAT      O 3907   3.373   7.262   7.359  0.3864 -0.5746 -0.2086
  797WAT     H1 3908   3.389   7.246   7.274  0.5929 -1.5826 -0.0001
  797WAT     H2 3909   3.397   7.345   7.369 -0.9684  0.0135 -1.4546
  797WAT    EPW 3910   3.379   7.272   7.348  0.2168 -0.6366 -0.3619
  798WAT      O 3911   5.019   1.136   6.860 -0.1957  0.2204 -0.3139
  798WAT     H1 3912   5.101   1.152   6.837  0.1064 -0.2081  0.4353
  798WAT     H2 3913   4.972   1.184   6.804  0.5656  0.6546 -0.5907
  798WAT    EPW 3914   5.024   1.145   6.849 -0.0386  0.2212 -0.2441
  799WAT      O 3915   0.378   7.481   5.137 -0.2074 -0.0099  0.2767
  799WAT     H1 3916   0.293   7.469   5.150 -0.5840 -0.1075 -1.8416
  799WAT     H2 3917   0.415   7.423   5.191 -1.4427  0.3999  1.6111
  799WAT    EPW 3918   0.371   7.470   5.147 -0.4455  0.0362  0.1609
  800WAT      O 3919   2.326   6.989   0.863  0.2774  0.0748  0.1475
  800WAT     H1 3920   2.344   7.067   0.898  2.2501 -0.5014  0.5200
  800WAT     H2 3921   2.322   7.006   0.777 -2.7729  1.1509  0.3742
  800WAT    EPW 3922   2.328   7.003   0.855  0.1182  0.1486  0.2360
  801WAT      O 3923   6.444   3.038   0.085  0.4082 -0.6824  0.8585
  801WAT     H1 3924   6.364   3.043   0.052  0.5961 -1.9165  0.1584
  801WAT     H2 3925   6.446   3.102   0.144 -1.0339 -0.5431  0.7884
  801WAT    EPW 3926   6.433   3.048   0.089  0.2230 -0.8442  0.7447
  802WAT      O 3927   5.770   1.558   4.224 -0.1794  0.3146  0.5070
  802WAT     H1 3928   5.834   1.501   4.239 -0.7350 -0.3348  0.5069
  802WAT     H2 3929   5.703   1.507   4.201 -0.6860  0.9757  0.4809
  802WAT    EPW 3930   5.769   1.542   4.223 -0.3363  0.3163  0.5031
  803WAT      O 3931   4.285   2.022   4.452  0.1677  0.2894  0.5729
  803WAT     H1 3932   4.255   2.089   4.405 -0.1949 -1.1863 -1.4070
  803WAT     H2 3933   4.349   2.057   4.500 -0.6539  2.2220  0.3294
  803WAT    EPW 3934   4.290   2.037   4.452 -0.0072  0.3569  0.2445
  804WAT      O 3935   3.976   6.612   0.237 -0.1770  0.0730  0.3123
  804WAT     H1 3936   4.037   6.578   0.289 -0.7173  0.1162  1.0065
  804WAT     H2 3937   3.902   6.596   0.281 -0.7999 -1.1104 -1.1030
  804WAT    EPW 3938   3.974   6.605   0.251 -0.3489 -0.0954  0.2058
  805WAT      O 3939   5.711   2.742   3.203 -0.1163 -0.0118  0.2200
  805WAT     H1 3940   5.777   2.799   3.204  0.3113 -0.3433 -2.4032
  805WAT     H2 3941   5.641   2.790   3.224  0.8672  0.2588  3.5310
  805WAT    EPW 3942   5.710   2.758   3.207  0.0922 -0.0208  0.3216
  806WAT      O 3943   1.401   5.582   6.398  0.2085 -0.3243 -0.4452
  806WAT     H1 3944   1.450   5.633   6.448  0.9457  1.4029 -2.7393
  806WAT     H2 3945   1.458   5.552   6.338 -1.2892  1.3030 -2.8602
  806WAT    EPW 3946   1.417   5.585   6.396  0.0962  0.1713 -1.1408
  807WAT      O 3947   7.372   1.734   4.784  0.2286 -0.5248  0.0380
  807WAT     H1 3948   7.445   1.689   4.766  0.7518  0.4044 -0.2667
  807WAT     H2 3949   7.318   1.710   4.720  0.1566 -1.4379  0.4233
  807WAT    EPW 3950   7.375   1.724   4.772  0.2952 -0.5224  0.0499
  808WAT      O 3951   2.181   3.910   5.570  0.3206  0.0613 -0.2039
  808WAT     H1 3952   2.104   3.906   5.611  0.6910  0.3301  0.5335
  808WAT     H2 3953   2.204   3.826   5.560 -0.8560 -0.1043 -1.9857
  808WAT    EPW 3954   2.173   3.897   5.575  0.2015  0.0765 -0.3582
  809WAT      O 3955   5.609   2.517   4.117  0.0225 -0.1050  0.1679
  809WAT     H1 3956   5.673   2.467   4.148  0.4640 -0.7180 -1.6152
  809WAT     H2 3957   5.556   2.460   4.077 -1.0579  0.5243  0.6593
  809WAT    EPW 3958   5.611   2.501   4.116 -0.0719 -0.1026 -0.0229
  810WAT      O 3959   0.863   1.371   7.810 -0.2816  0.2003 -0.0554
  810WAT     H1 3960   0.848   1.285   7.806  0.6366 -0.0174  0.9115
  810WAT     H2 3961   0.785   1.403   7.833 -0.2254 -0.5556  1.3073
  810WAT    EPW 3962   0.849   1.363   7.813 -0.1377  0.0565  0.2887
  811WAT      O 3963   3.410   5.554   3.276  0.0849 -0.3877 -0.3399
  811WAT     H1 3964   3.460   5.581   3.342 -1.4720 -0.6381  1.0255
  811WAT     H2 3965   3.334   5.596   3.289 -0.4506 -0.8916 -1.6333
  811WAT    EPW 3966   3.406   5.564   3.288 -0.2242 -0.4991 -0.3293
  812WAT      O 3967   2.248   2.929   7.022  0.2201 -0.2349  0.3333
  812WAT     H1 3968   2.274   3.012   7.021 -0.4216  0.0240  1.6534
  812WAT     H2 3969   2.167   2.932   6.988 -0.0788 -0.1877  1.0262
  812WAT    EPW 3970   2.240   2.941   7.017  0.0812 -0.1897  0.6307
  813WAT      O 3971   6.216   6.014   3.167 -0.1111  0.3693 -0.4443
  813WAT     H1 3972   6.166   6.085   3.176  0.1460  0.4393  0.5489
  813WAT     H2 3973   6.265   6.014   3.239  0.8693 -0.0535 -1.0923
  813WAT    EPW 3974   6.216   6.024   3.179  0.0717  0.3172 -0.3933
  814WAT      O 3975   6.281   0.031   7.094 -0.3353  0.2420 -0.1563
  814WAT     H1 3976   6.218  -0.024   7.069  1.6307 -2.1732 -0.1940
  814WAT     H2 3977   6.264   0.045   7.179 -2.8693  2.5946 -0.9151
  814WAT    EPW 3978   6.269   0.025   7.103 -0.4192  0.2327 -0.2739
  815WAT      O 3979   7.051   4.752   6.997  0.2662  0.3258 -0.0774
  815WAT     H1 3980   7.115   4.806   7.022 -0.5630  1.6387 -0.6779
  815WAT     H2 3981   7.074   4.730   6.916  0.0931  0.6061 -0.2052
  815WAT    EPW 3982   7.064   4.757   6.989  0.1181  0.5611 -0.1850
  816WAT      O 3983   5.830   1.707   6.886 -0.2485 -0.0362 -0.4555
  816WAT     H1 3984   5.751   1.670   6.886 -1.6048  2.4793 -2.5543
  816WAT     H2 3985   5.878   1.653   6.836 -0.8605 -1.1221  0.0894
  816WAT    EPW 3986   5.826   1.693   6.878 -0.5393  0.1750 -0.6850
  817WAT      O 3987   7.681   1.115   7.498 -0.2332  0.1453 -0.3990
  817WAT     H1 3988   7.677   1.055   7.434  0.0859 -0.4004  0.0856
  817WAT     H2 3989   7.760   1.151   7.486  0.6936 -1.3386  0.8853
  817WAT    EPW 3990   7.692   1.111   7.486 -0.0492 -0.1545 -0.1377
  818WAT      O 3991   3.120   0.224   2.669  0.3298 -0.3964  0.1757
  818WAT     H1 3992   3.162   0.169   2.722 -0.1768  0.3650  1.4108
  818WAT     H2 3993   3.153   0.302   2.689  0.2547 -0.1027 -0.7762
  818WAT    EPW 3994   3.131   0.227   2.680  0.2439 -0.2406  0.2175
  819WAT      O 3995   5.866   0.218   7.533 -0.0562 -0.0745 -0.4434
  819WAT     H1 3996   5.927   0.183   7.586  2.1544 -0.9154 -3.3110
  819WAT     H2 3997   5.805   0.156   7.529 -0.2061 -0.0612  0.9164
  819WAT    EPW 3998   5.866   0.204   7.540  0.2482 -0.1968 -0.6661
  820WAT      O 3999   1.954   3.370   2.063  0.3639 -0.4343  0.2100
  820WAT     H1 4000   1.926   3.395   2.141  0.8141 -1.6343  0.7901
  820WAT     H2 4001   1.950   3.283   2.067  1.5189 -0.5551 -0.6672
  820WAT    EPW 4002   1.949   3.361   2.075  0.6011 -0.6294  0.1661
  821WAT      O 4003   3.297   1.882   7.856  0.2562 -0.0729  0.1426
  821WAT     H1 4004   3.293   1.951   7.908 -1.1537  0.5222 -0.7107
  821WAT     H2 4005   3.214   1.868   7.834  0.7963 -0.3665 -1.8499
  821WAT    EPW 4006   3.284   1.890   7.861  0.1277 -0.0284 -0.2778
  822WAT      O 4007   1.780   5.159   6.245 -0.0374 -0.2723  0.2503
  822WAT     H1 4008   1.789   5.213   6.312  3.5067  0.1338 -0.3877
  822WAT     H2 4009   1.808   5.082   6.276 -0.0092 -0.4883 -0.2955
  822WAT    EPW 4010   1.785   5.155   6.259  0.4903 -0.2442  0.0754
  823WAT      O 4011   5.733   3.298   0.965 -0.8896 -0.1262  0.2515
  823WAT     H1 4012   5.753   3.383   0.959  0.3993 -0.4095  0.2083
  823WAT     H2 4013   5.757   3.278   1.047  0.3601 -0.8066 -0.2577
  823WAT    EPW 4014   5.739   3.308   0.976 -0.5146 -0.2686  0.1699
  824WAT      O 4015   6.285   6.990   0.424 -0.2763  0.3578 -0.0944
  824WAT     H1 4016   6.366   6.974   0.453 -0.7865  0.7410  1.5863
  824WAT     H2 4017   6.236   6.929   0.463 -1.1744  1.6894  0.9655
  824WAT    EPW 4018   6.290   6.978   0.434 -0.4843  0.6111  0.3104
  825WAT      O 4019   5.132   6.850   5.193  0.1886 -0.3828 -0.6079
  825WAT     H1 4020   5.149   6.777   5.149  1.5117  1.3699 -3.2935
  825WAT     H2 4021   5.052   6.871   5.167  1.6066  1.6263 -4.0856
  825WAT    EPW 4022   5.123   6.843   5.183  0.5935  0.1729 -1.5183
  826WAT      O 4023   2.468   1.509   1.965  0.2452 -0.1057 -0.6152
  826WAT     H1 4024   2.545   1.481   1.935 -0.5247 -1.9526 -1.0340
  826WAT     H2 4025   2.413   1.445   1.942 -1.5283  1.4355 -0.8520
  826WAT    EPW 4026   2.471   1.495   1.957 -0.1305 -0.1509 -0.7121
  827WAT      O 4027   2.786   6.438   3.282 -0.0225  0.1200  0.3510
  827WAT     H1 4028   2.771   6.497   3.219  1.1117  0.9735  0.8305
  827WAT     H2 4029   2.847   6.476   3.331 -1.1445 -0.3360  2.2181
  827WAT    EPW 4030   2.793   6.453   3.280 -0.0207  0.1787  0.6976
  828WAT      O 4031   5.448   2.854   7.416  0.0413  0.2522  0.1175
  828WAT     H1 4032   5.412   2.924   7.378  2.6598  0.6260 -1.9835
  828WAT     H2 4033   5.434   2.790   7.358  2.2305  0.3294 -0.5794
  828WAT    EPW 4034   5.440   2.855   7.402  0.7515  0.3189 -0.2958
  829WAT      O 4035   5.872   0.138   6.308 -0.7168  0.0144  0.1299
  829WAT     H1 4036   5.839   0.219   6.305  1.3255  0.9050 -2.1213
  829WAT     H2 4037   5.871   0.113   6.225  0.8655 -1.3054  0.4606
  829WAT    EPW 4038   5.867   0.146   6.295 -0.1814 -0.0490 -0.1538
  830WAT      O 4039   0.858   0.225   7.355 -0.8484 -0.2512  0.3253
  830WAT     H1 4040   0.841   0.301   7.395  0.5821 -0.6736  1.8426
  830WAT     H2 4041   0.872   0.170   7.421  0.5430 -1.2512 -0.7473
  830WAT    EPW 4042   0.858   0.228   7.371 -0.4316 -0.4613  0.3910
  831WAT      O 4043   4.537   3.350   0.437 -0.4317 -0.1205  0.3343
  831WAT     H1 4044   4.510   3.424   0.399  2.5100  0.1634 -1.5904
  831WAT     H2 4045   4.520   3.363   0.522  1.5283  3.6983  0.3833
  831WAT    EPW 4046   4.531   3.363   0.444  0.2924  0.4856  0.0572
  832WAT      O 4047   1.095   5.481   5.783 -0.0876  0.2806  0.5052
  832WAT     H1 4048   1.093   5.479   5.696 -1.8744 -0.5445  0.5062
  832WAT     H2 4049   1.104   5.397   5.805  0.1256  0.4549  1.1087
  832WAT    EPW 4050   1.096   5.468   5.774 -0.3201  0.1845  0.5945
  833WAT      O 4051   1.884   1.592   5.855  0.6763  0.2897  0.1535
  833WAT     H1 4052   1.809   1.607   5.897  0.8026  0.7573  0.2198
  833WAT     H2 4053   1.938   1.563   5.917  0.2600 -1.0566 -0.0836
  833WAT    EPW 4054   1.881   1.590   5.870  0.6335  0.1599  0.1283
  834WAT      O 4055   3.187   7.470   0.644  0.1617  0.0352 -0.2649
  834WAT     H1 4056   3.189   7.554   0.620  1.5617  0.0536 -0.1805
  834WAT     H2 4057   3.271   7.452   0.661 -0.2928 -1.0260  0.9715
  834WAT    EPW 4058   3.200   7.479   0.643  0.3014 -0.1189 -0.0698
  835WAT      O 4059   1.214   4.846   7.397  0.0206 -0.7985  0.1868
  835WAT     H1 4060   1.219   4.759   7.389  0.3496 -0.7361 -0.2984
  835WAT     H2 4061   1.143   4.857   7.447 -0.5488 -1.3119 -0.4725
  835WAT    EPW 4062   1.204   4.835   7.403 -0.0149 -0.8652  0.0177
  836WAT      O 4063   4.962   4.708   6.259  0.0937 -0.2942  0.3894
  836WAT     H1 4064   5.032   4.740   6.300  1.3708 -1.4953 -0.7607
  836WAT     H2 4065   4.959   4.753   6.185 -2.3478  2.0324  1.7182
  836WAT    EPW 4066   4.972   4.719   6.254 -0.0783 -0.1279  0.4158
  837WAT      O 4067   6.396   5.839   5.186  0.7316  0.2293  0.2235
  837WAT     H1 4068   6.415   5.772   5.239  0.0128 -0.0456  0.1501
  837WAT     H2 4069   6.309   5.846   5.192  0.6479  0.2761 -0.8206
  837WAT    EPW 4070   6.386   5.830   5.195  0.6131  0.1956  0.0584
  838WAT      O 4071   5.760   3.589   5.554  0.5574 -0.1415  0.0028
  838WAT     H1 4072   5.711   3.592   5.482  1.3802 -0.1875 -0.5656
  838WAT     H2 4073   5.841   3.603   5.525  0.9584 -0.6173  0.8546
  838WAT    EPW 4074   5.765   3.591   5.539  0.7382 -0.2186  0.0447
  839WAT      O 4075   3.030   3.203   0.111 -0.5757 -0.3368  0.1536
  839WAT     H1 4076   2.973   3.142   0.087  0.7692 -1.5543 -0.0607
  839WAT     H2 4077   3.061   3.234   0.035  0.3792 -0.9967  0.2588
  839WAT    EPW 4078   3.026   3.199   0.096 -0.2360 -0.6141  0.1375
  840WAT      O 4079   5.343   1.140   4.743 -0.7591  0.0578 -0.2191
  840WAT     H1 4080   5.369   1.085   4.805 -0.4599  0.4698  0.0264
  840WAT     H2 4081   5.378   1.216   4.768  1.2464 -0.1781 -2.0557
  840WAT    EPW 4082   5.352   1.143   4.756 -0.4187  0.0838 -0.4542
  841WAT      O 4083   2.817   4.789   4.858 -0.1414 -0.3725  0.8023
  841WAT     H1 4084   2.804   4.857   4.910  1.3328  1.1949 -0.7565
  841WAT     H2 4085   2.836   4.724   4.913  3.3815  1.6354  2.3011
  841WAT    EPW 4086   2.818   4.789   4.874  0.5968  0.1557  0.7935
  842WAT      O 4087   5.583   5.309   3.524 -0.0440  0.1426  0.7002
  842WAT     H1 4088   5.639   5.248   3.552  1.3304  0.1994 -1.6428
  842WAT     H2 4089   5.624   5.384   3.544 -0.7821  0.2869  1.7519
  842WAT    EPW 4090   5.598   5.311   3.531  0.0500  0.1723  0.5095
  843WAT      O 4091   4.702   0.130   1.346  0.0843  0.2732 -0.7208
  843WAT     H1 4092   4.662   0.057   1.371  0.8057 -0.4622 -1.6645
  843WAT     H2 4093   4.696   0.182   1.417 -0.6904 -0.5722 -0.1460
  843WAT    EPW 4094   4.695   0.127   1.360  0.0764  0.0397 -0.7753
  844WAT      O 4095   5.124   5.863   5.253  0.5926  0.2020 -0.4787
  844WAT     H1 4096   5.192   5.811   5.267 -0.5984 -1.0167  1.1353
  844WAT     H2 4097   5.057   5.807   5.241 -0.4378  1.3399 -0.2771
  844WAT    EPW 4098   5.124   5.847   5.253  0.2644  0.1901 -0.2105
  845WAT      O 4099   5.733   6.305   1.633  0.6061 -0.3777  0.3244
  845WAT     H1 4100   5.651   6.320   1.607  0.7774  0.9273  0.4458
  845WAT     H2 4101   5.732   6.326   1.718  1.0401 -0.4736  0.3568
  845WAT    EPW 4102   5.721   6.310   1.642  0.6955 -0.1991  0.3472
  846WAT      O 4103   5.940   3.629   5.917  0.1322  0.6829  0.2358
  846WAT     H1 4104   5.966   3.563   5.866  2.1631 -0.0454  2.0545
  846WAT     H2 4105   5.876   3.594   5.964  0.2437  0.4467  0.2140
  846WAT    EPW 4106   5.934   3.614   5.916  0.4487  0.5405  0.5012
  847WAT      O 4107   6.326   4.571   0.958 -0.0428 -0.0698 -0.3733
  847WAT     H1 4108   6.242   4.568   0.939  0.3050  2.0906 -2.7812
  847WAT     H2 4109   6.362   4.510   0.907  0.0240  0.3270 -0.8126
  847WAT    EPW 4110   6.319   4.562   0.948  0.0184  0.3079 -0.7939
  848WAT      O 4111   6.731   7.486   5.904  0.0620 -0.3851  0.3371
  848WAT     H1 4112   6.705   7.547   5.960 -0.5624 -0.0500 -0.3032
  848WAT     H2 4113   6.702   7.515   5.827  1.4780 -0.4945 -0.2688
  848WAT    EPW 4114   6.723   7.499   5.901  0.1789 -0.3517  0.1530
  849WAT      O 4115   1.530   6.374   6.435 -0.2291 -0.0272 -0.1130
  849WAT     H1 4116   1.460   6.349   6.480 -0.4813  2.8244  1.3573
  849WAT     H2 4117   1.507   6.361   6.352 -2.0517 -0.2182  0.3858
  849WAT    EPW 4118   1.517   6.369   6.429 -0.5356  0.3658  0.1778
  850WAT      O 4119   1.427   1.487   6.707 -0.1362  0.0089 -0.4390
  850WAT     H1 4120   1.482   1.475   6.641 -0.1256 -0.4592 -0.3465
  850WAT     H2 4121   1.459   1.557   6.747 -1.2108  1.4807 -2.0140
  850WAT    EPW 4122   1.440   1.496   6.703 -0.2934  0.1571 -0.6580
  851WAT      O 4123   5.002   4.896   5.440 -0.0352  0.1109 -0.4580
  851WAT     H1 4124   5.072   4.945   5.459 -0.2814 -0.2289  1.4741
  851WAT     H2 4125   4.977   4.864   5.517 -1.3180 -1.1536 -1.3381
  851WAT    EPW 4126   5.009   4.898   5.454 -0.2611 -0.1261 -0.3026
  852WAT      O 4127   5.556   7.282   1.899  0.2669 -0.4978  0.0377
  852WAT     H1 4128   5.630   7.241   1.920 -0.1226 -0.9801  0.4965
  852WAT     H2 4129   5.494   7.221   1.911 -0.1750 -0.1925 -0.6213
  852WAT    EPW 4130   5.557   7.267   1.904  0.1441 -0.5240  0.0082
  853WAT      O 4131   5.405   3.996   7.457  0.7723 -0.3262 -0.3823
  853WAT     H1 4132   5.318   3.999   7.452  0.7767  0.4165 -0.0697
  853WAT     H2 4133   5.429   4.079   7.452  1.3563 -0.3535  1.3439
  853WAT    EPW 4134   5.395   4.008   7.456  0.8592 -0.2205 -0.0811
  854WAT      O 4135   4.871   4.776   5.078  0.0713 -0.5615  0.5675
  854WAT     H1 4136   4.850   4.825   5.009 -1.3945 -0.2709  1.1866
  854WAT     H2 4137   4.859   4.694   5.049  1.0869 -0.5236 -0.0086
  854WAT    EPW 4138   4.866   4.771   5.063  0.0048 -0.5130  0.5739
  855WAT      O 4139   3.866   5.663   5.427  0.0780 -0.1035 -0.0140
  855WAT     H1 4140   3.917   5.593   5.421 -0.5202 -0.4764 -1.0663
  855WAT     H2 4141   3.798   5.643   5.376 -0.5610  0.8542  0.4307
  855WAT    EPW 4142   3.863   5.650   5.419 -0.1047 -0.0171 -0.1038
  856WAT      O 4143   0.832   6.828   0.459  0.4438  1.0659 -0.3003
  856WAT     H1 4144   0.772   6.808   0.520  0.8268  1.2163  0.1340
  856WAT     H2 4145   0.792   6.810   0.384  0.9308 -1.8535  0.0191
  856WAT    EPW 4146   0.817   6.822   0.457  0.5723  0.6569 -0.1890
  857WAT      O 4147   4.799   3.660   0.842 -0.0651  0.1679 -0.3353
  857WAT     H1 4148   4.856   3.618   0.792  0.4594  1.5902 -0.9843
  857WAT     H2 4149   4.742   3.694   0.786  0.2072  1.3067  0.0449
  857WAT    EPW 4150   4.799   3.659   0.827  0.0526  0.5463 -0.3750
  858WAT      O 4151   4.354   0.821   6.681 -0.1201  0.3556 -0.7924
  858WAT     H1 4152   4.373   0.890   6.631 -2.7170  1.1845 -0.7835
  858WAT     H2 4153   4.341   0.856   6.760  0.7949 -0.5061 -0.2333
  858WAT    EPW 4154   4.355   0.836   6.686 -0.3686  0.3508 -0.7085
  859WAT      O 4155   4.323   1.625   4.357 -0.3183  0.0523  0.4862
  859WAT     H1 4156   4.393   1.653   4.402 -0.0626  2.8228 -1.3963
  859WAT     H2 4157   4.257   1.668   4.395 -0.6763 -0.7191  0.7465
  859WAT    EPW 4158   4.324   1.636   4.369 -0.3334  0.3476  0.2466
  860WAT      O 4159   1.816   1.955   6.435  0.1485 -0.0882 -0.0172
  860WAT     H1 4160   1.860   1.950   6.359 -0.9117  0.4527 -0.6951
  860WAT     H2 4161   1.736   1.978   6.410 -0.2262  0.0746  1.2862
  860WAT    EPW 4162   1.811   1.957   6.420 -0.0635  0.0158  0.0752
  861WAT      O 4163   5.081   3.762   7.586 -0.1788  0.1284  0.1763
  861WAT     H1 4164   5.099   3.823   7.526 -0.5156  0.0298 -0.0280
  861WAT     H2 4165   4.997   3.776   7.603 -0.7318 -1.3363 -1.1026
  861WAT    EPW 4166   5.071   3.773   7.579 -0.3102 -0.1025 -0.0428
  862WAT      O 4167   7.386   5.494   7.053 -0.3996  0.1741 -0.1400
  862WAT     H1 4168   7.452   5.463   7.100 -0.9064 -1.9845 -0.7409
  862WAT     H2 4169   7.320   5.440   7.073 -1.6084  1.3985 -0.6333
  862WAT    EPW 4170   7.386   5.481   7.063 -0.6530  0.0361 -0.3016
  863WAT      O 4171   6.265   6.935   7.293  0.1209  0.1851 -0.0515
  863WAT     H1 4172   6.286   6.880   7.228 -0.6506 -0.4756  0.2480
  863WAT     H2 4173   6.184   6.910   7.315  0.0818  0.9170  0.6397
  863WAT    EPW 4174   6.256   6.923   7.286  0.0011  0.1956  0.0948
  864WAT      O 4175   5.473   3.583   4.551 -0.1786 -0.5943 -0.2964
  864WAT     H1 4176   5.487   3.514   4.602 -0.0564 -0.6658 -0.4255
  864WAT     H2 4177   5.431   3.639   4.603  0.6233 -0.3616  0.1072
  864WAT    EPW 4178   5.469   3.581   4.566 -0.0421 -0.5705 -0.2559
  865WAT      O 4179   4.989   3.112   4.836 -0.2545 -0.2312  0.1373
  865WAT     H1 4180   4.950   3.162   4.777 -3.6223 -2.6242  0.0847
  865WAT     H2 4181   5.011   3.040   4.792 -1.2394 -1.3476  1.3672
  865WAT    EPW 4182   4.987   3.109   4.821 -0.8974 -0.7496  0.3112
  866WAT      O 4183   5.626   0.152   4.446  0.0813 -0.1964  0.3905
  866WAT     H1 4184   5.672   0.226   4.443 -0.0999 -0.0406  1.3114
  866WAT     H2 4185   5.674   0.099   4.495 -0.4408 -0.2263  0.8739
  866WAT    EPW 4186   5.640   0.155   4.453 -0.0226 -0.1778  0.5980
  867WAT      O 4187   5.863   3.193   7.780 -0.0543  0.4068 -0.4549
  867WAT     H1 4188   5.934   3.241   7.764  1.6832 -1.9562 -0.2603
  867WAT     H2 4189   5.878   3.119   7.737 -2.3095 -0.2728 -0.1878
  867WAT    EPW 4190   5.876   3.189   7.771 -0.1308 -0.0426 -0.3867
  868WAT      O 4191   0.352   6.761   6.537  0.4203 -0.2221 -0.4241
  868WAT     H1 4192   0.308   6.738   6.465 -1.6407  0.0217  0.6876
  868WAT     H2 4193   0.365   6.846   6.526  1.2362 -0.4167 -1.0556
  868WAT    EPW 4194   0.347   6.770   6.525  0.2364 -0.2148 -0.3532
  869WAT      O 4195   7.030   3.706   7.609 -0.7195  0.3588  0.7056
  869WAT     H1 4196   7.024   3.626   7.576 -0.0239  0.2787  0.7722
  869WAT     H2 4197   6.947   3.725   7.631 -1.2332  0.4776 -1.1924
  869WAT    EPW 4198   7.017   3.697   7.608 -0.6927  0.3645  0.4350
  870WAT      O 4199   1.816   5.986   2.471 -0.2695 -0.2357  0.2083
  870WAT     H1 4200   1.750   5.934   2.495  0.8815 -0.6843  2.7319
  870WAT     H2 4201   1.793   6.064   2.502 -0.2741 -0.0580 -0.2364
  870WAT    EPW 4202   1.803   5.990   2.479 -0.1002 -0.2757  0.5154
  871WAT      O 4203   0.179   6.725   6.768  0.0436 -0.3876  0.3010
  871WAT     H1 4204   0.121   6.687   6.715  1.0758 -0.7057 -0.6277
  871WAT     H2 4205   0.243   6.750   6.714 -0.4172  2.3818  0.9117
  871WAT    EPW 4206   0.180   6.723   6.752  0.1280 -0.0255  0.2540
  872WAT      O 4207   1.778   0.691   6.592  0.1057 -0.2534  0.1658
  872WAT     H1 4208   1.733   0.686   6.666 -1.6855 -0.5591 -0.8879
  872WAT     H2 4209   1.850   0.646   6.609 -1.0123 -1.7464  1.2187
  872WAT    EPW 4210   1.782   0.684   6.605 -0.3240 -0.5191  0.1657
  873WAT      O 4211   1.180   2.647   5.774 -0.0390 -0.2000 -0.2161
  873WAT     H1 4212   1.102   2.622   5.802 -1.3879  2.1135 -1.5673
  873WAT     H2 4213   1.181   2.621   5.691 -0.4767  1.8641 -0.9255
  873WAT    EPW 4214   1.169   2.639   5.766 -0.3029  0.4467 -0.5205
  874WAT      O 4215   5.510   6.557   0.331  0.1796 -0.0539 -0.2336
  874WAT     H1 4216   5.425   6.561   0.314  0.1774 -0.0982 -0.2354
  874WAT     H2 4217   5.546   6.605   0.268 -0.0066  2.0198  1.1771
  874WAT    EPW 4218   5.503   6.565   0.319  0.1517  0.2459 -0.0255
  875WAT      O 4219   1.547   7.147   7.370 -0.1873  0.4660  0.3996
  875WAT     H1 4220   1.536   7.195   7.298 -0.2968 -0.0705  0.0509
  875WAT     H2 4221   1.623   7.108   7.357 -0.5982 -0.2878  0.1799
  875WAT    EPW 4222   1.556   7.148   7.357 -0.2642  0.2754  0.3156
  876WAT      O 4223   5.426   7.169   5.926 -0.0106  0.1660  0.4906
  876WAT     H1 4224   5.477   7.240   5.928 -0.3792  0.4674 -0.3791
  876WAT     H2 4225   5.380   7.179   5.852  0.0466 -1.0541  0.2732
  876WAT    EPW 4226   5.427   7.181   5.915 -0.0566  0.0303  0.3300
  877WAT      O 4227   6.887   5.562   5.850 -0.3419  0.0746  0.0892
  877WAT     H1 4228   6.921   5.509   5.910  0.9900  0.6607 -0.1004
  877WAT     H2 4229   6.877   5.638   5.894  0.6257  0.5011 -0.3992
  877WAT    EPW 4230   6.891   5.566   5.866 -0.0022  0.2242 -0.0110
  878WAT      O 4231   7.653   5.023   4.536  0.0121  0.3356 -0.1291
  878WAT     H1 4232   7.627   5.012   4.454  0.8952 -1.3316 -0.2358
  878WAT     H2 4233   7.583   5.055   4.576 -0.9428 -0.3448 -1.2126
  878WAT    EPW 4234   7.639   5.026   4.530  0.0015 -0.0112 -0.3049
  879WAT      O 4235   4.765   4.158   5.646 -0.3803  0.0842  0.5225
  879WAT     H1 4236   4.806   4.233   5.626  0.6524 -0.7046 -0.4256
  879WAT     H2 4237   4.806   4.130   5.717  0.1430 -0.2482  0.0968
  879WAT    EPW 4238   4.777   4.165   5.653 -0.1504 -0.0814  0.3195
  880WAT      O 4239   5.875   5.478   1.734 -0.2215 -0.2248 -0.8126
  880WAT     H1 4240   5.931   5.519   1.682  0.4750 -0.7563 -0.4950
  880WAT     H2 4241   5.802   5.526   1.728  0.1895  0.3358 -1.4090
  880WAT    EPW 4242   5.872   5.491   1.725 -0.0579 -0.2205 -0.8538
  881WAT      O 4243   6.630   7.222   3.803 -0.1605  0.0854 -0.2556
  881WAT     H1 4244   6.582   7.171   3.855 -0.3889  0.2601 -0.2935
  881WAT     H2 4245   6.581   7.230   3.732  0.0015  0.1248 -0.3628
  881WAT    EPW 4246   6.616   7.216   3.800 -0.1703  0.1171 -0.2770
  882WAT      O 4247   5.323   4.599   4.936  0.0037  0.3378  0.0512
  882WAT     H1 4248   5.352   4.596   4.854  0.9288 -1.0550  0.4028
  882WAT     H2 4249   5.318   4.684   4.953  1.1772  0.6311 -0.9681
  882WAT    EPW 4250   5.326   4.611   4.926  0.3137  0.1754 -0.0474
  883WAT      O 4251   5.245   1.399   2.731  0.0460  0.2129  0.0138
  883WAT     H1 4252   5.248   1.456   2.666  0.9407  0.6837  0.4575
  883WAT     H2 4253   5.171   1.355   2.716  0.6232 -0.2376 -1.7527
  883WAT    EPW 4254   5.234   1.401   2.719  0.2634  0.2159 -0.1816
  884WAT      O 4255   2.960   2.081   2.194  0.9293  0.1129  0.0359
  884WAT     H1 4256   2.941   2.074   2.109 -3.0619  2.0046  0.5175
  884WAT     H2 4257   3.026   2.139   2.195  0.3810  0.8323 -1.7382
  884WAT    EPW 4258   2.967   2.089   2.182  0.2587  0.4986 -0.1550
  885WAT      O 4259   7.222   3.603   4.772 -0.3006  0.1351 -0.3109
  885WAT     H1 4260   7.247   3.667   4.826 -1.0636 -0.9431  1.4150
  885WAT     H2 4261   7.214   3.534   4.825  0.3958 -1.3928 -2.0871
  885WAT    EPW 4262   7.225   3.602   4.788 -0.3104 -0.2499 -0.3184
  886WAT      O 4263   6.295   7.645   6.547  0.1513  0.1448  0.2013
  886WAT     H1 4264   6.309   7.585   6.609 -3.1201  2.4327  3.5361
  886WAT     H2 4265   6.338   7.715   6.575  0.2316  0.7357 -1.2683
  886WAT    EPW 4266   6.303   7.646   6.560 -0.3201  0.5701  0.4769
  887WAT      O 4267   7.319   4.981   5.449  0.1799 -0.0281  0.1979
  887WAT     H1 4268   7.390   4.968   5.401 -0.6943 -0.5924 -1.0014
  887WAT     H2 4269   7.341   4.950   5.527  1.2244 -0.2578 -0.1692
  887WAT    EPW 4270   7.333   4.974   5.453  0.2050 -0.1454 -0.0335
  888WAT      O 4271   4.674   3.960   5.892 -0.3765  0.3885  0.6416
  888WAT     H1 4272   4.672   4.025   5.950 -1.5803  0.1978  0.8383
  888WAT     H2 4273   4.596   3.922   5.901  0.5687 -1.5728  1.0727
  888WAT    EPW 4274   4.662   3.964   5.902 -0.4147  0.0706  0.7343
  889WAT      O 4275   6.845   6.811   7.157  0.2610 -0.2670  0.3014
  889WAT     H1 4276   6.840   6.800   7.070 -0.8850  0.0204  0.3162
  889WAT     H2 4277   6.811   6.737   7.189 -1.5849  0.5729  0.4514
  889WAT    EPW 4278   6.839   6.798   7.149 -0.1810 -0.1005  0.3258
  890WAT      O 4279   6.230   1.285   3.335  0.1018  0.4008  0.3406
  890WAT     H1 4280   6.235   1.220   3.278  1.1857 -0.6318  1.5376
  890WAT     H2 4281   6.305   1.328   3.326 -0.3323  1.1252  0.0134
  890WAT    EPW 4282   6.242   1.282   3.326  0.1978  0.3553  0.4691
  891WAT      O 4283   5.359   0.230   0.790  0.3127 -0.4683  0.0563
  891WAT     H1 4284   5.344   0.238   0.875  0.0510 -0.6520  0.0283
  891WAT     H2 4285   5.280   0.212   0.757  0.2949  0.2360 -0.3028
  891WAT    EPW 4286   5.345   0.229   0.797  0.2714 -0.3914 -0.0009
  892WAT      O 4287   7.076   5.200   6.010 -0.4332 -0.5736 -0.3585
  892WAT     H1 4288   7.129   5.219   6.076  0.0955 -0.0786 -0.9044
  892WAT     H2 4289   7.130   5.195   5.941 -1.1948  1.0478 -1.1350
  892WAT    EPW 4290   7.092   5.202   6.009 -0.4676 -0.2610 -0.5539
  893WAT      O 4291   2.268   2.379   4.394  0.6129  0.9333 -0.1481
  893WAT     H1 4292   2.329   2.436   4.418  1.7294 -0.2760 -0.0121
  893WAT     H2 4293   2.237   2.413   4.320  0.7157  2.0847  0.3152
  893WAT    EPW 4294   2.273   2.393   4.386  0.7930  0.9247 -0.0595
  894WAT      O 4295   2.445   5.492   5.393  0.2506 -0.3485  0.0865
  894WAT     H1 4296   2.367   5.527   5.376 -0.0932 -0.6414  1.0131
  894WAT     H2 4297   2.429   5.407   5.405  1.0167 -0.7953 -1.6767
  894WAT    EPW 4298   2.431   5.485   5.392  0.3130 -0.4578 -0.0371
  895WAT      O 4299   3.244   1.027   2.236 -0.2765 -0.2451  0.1333
  895WAT     H1 4300   3.173   1.055   2.193 -1.1857 -0.7139  1.2846
  895WAT     H2 4301   3.280   0.971   2.179 -0.9753 -0.2033 -0.3772
  895WAT    EPW 4302   3.239   1.023   2.221 -0.5140 -0.3082  0.2280
  896WAT      O 4303   5.638   3.182   0.582  0.3472  0.5792 -0.0927
  896WAT     H1 4304   5.626   3.100   0.556 -0.0882  0.4700  0.4302
  896WAT     H2 4305   5.632   3.228   0.507  1.2867  0.0808 -0.4818
  896WAT    EPW 4306   5.635   3.177   0.567  0.4217  0.4894 -0.0729
  897WAT      O 4307   3.348   6.027   2.784  0.3763 -0.7170  0.4540
  897WAT     H1 4308   3.277   6.064   2.749  1.1112  0.7159  0.4031
  897WAT     H2 4309   3.346   5.946   2.753  0.0201 -0.0222 -1.4827
  897WAT    EPW 4310   3.337   6.021   2.774  0.4322 -0.4027  0.1604
  898WAT      O 4311   1.684   0.376   0.478 -0.0906 -0.3725  0.4158
  898WAT     H1 4312   1.675   0.290   0.481 -0.2575 -0.3786 -0.2063
  898WAT     H2 4313   1.747   0.392   0.537  1.2111 -1.0915 -0.7228
  898WAT    EPW 4314   1.692   0.366   0.487  0.0770 -0.4796  0.1557
  899WAT      O 4315   5.855   6.165   2.912 -0.7032 -0.4396  0.5925
  899WAT     H1 4316   5.770   6.173   2.928 -0.5193 -0.4892  1.6711
  899WAT     H2 4317   5.875   6.088   2.948  0.3084  0.7566  2.7603
  899WAT    EPW 4318   5.845   6.154   2.919 -0.5266 -0.2702  1.0720
  900WAT      O 4319   5.369   5.868   0.144  0.1258  0.0491 -0.5621
  900WAT     H1 4320   5.430   5.905   0.193  1.5976 -0.9583 -1.5698
  900WAT     H2 4321   5.373   5.783   0.165  0.0970 -0.2475 -1.6863
  900WAT    EPW 4322   5.378   5.861   0.154  0.3390 -0.1435 -0.8770
  901WAT      O 4323   5.950   4.843   1.292  0.6567 -0.7237 -0.0328
  901WAT     H1 4324   5.929   4.864   1.374  0.4131  0.1647 -0.3200
  901WAT     H2 4325   6.027   4.880   1.279  1.0891 -1.5563  0.0535
  901WAT    EPW 4326   5.958   4.851   1.302  0.6846 -0.7155 -0.0625
  902WAT      O 4327   6.474   1.892   7.026 -0.0612 -0.2082  0.1518
  902WAT     H1 4328   6.421   1.887   6.957  0.7670 -0.6348 -0.4701
  902WAT     H2 4329   6.423   1.867   7.092 -0.8613  0.1673 -0.3015
  902WAT    EPW 4330   6.458   1.887   7.025 -0.0570 -0.2157 -0.0070
  903WAT      O 4331   6.531   0.318   4.646 -0.7519  0.2184  0.0296
  903WAT     H1 4332   6.468   0.333   4.587 -2.1722 -2.9567  0.5764
  903WAT     H2 4333   6.582   0.258   4.607  1.1523  1.5875  0.2289
  903WAT    EPW 4334   6.530   0.311   4.631 -0.6804 -0.0484  0.1398
  904WAT      O 4335   4.991   7.689   3.961 -0.3753  0.3449 -0.4345
  904WAT     H1 4336   4.975   7.723   4.040 -0.0575 -0.9337  0.2070
  904WAT     H2 4337   5.064   7.729   3.936 -0.0655  0.2413  0.2576
  904WAT    EPW 4338   4.999   7.700   3.969 -0.2826  0.1407 -0.2375
  905WAT      O 4339   4.933   4.559   2.043  0.1138  0.0001  0.0936
  905WAT     H1 4340   5.001   4.507   2.059  0.4602  1.0482  2.6709
  905WAT     H2 4341   4.865   4.516   2.076  0.3287  0.8442  1.7884
  905WAT    EPW 4342   4.933   4.545   2.050  0.1967  0.2796  0.7247
  906WAT      O 4343   1.928   5.163   0.115 -0.7129  0.8867  0.1068
  906WAT     H1 4344   1.946   5.193   0.195 -0.5620 -0.7653  0.7387
  906WAT     H2 4345   1.909   5.235   0.069 -1.0820  1.8449  1.6964
  906WAT    EPW 4346   1.928   5.178   0.120 -0.7451  0.7842  0.4350
  907WAT      O 4347   3.572   1.150   1.382 -0.4733 -0.0980  0.3112
  907WAT     H1 4348   3.487   1.153   1.403 -1.1991 -0.6092 -2.2170
  907WAT     H2 4349   3.599   1.075   1.418 -0.8702  0.4326  1.7709
  907WAT    EPW 4350   3.563   1.139   1.390 -0.6392 -0.0952  0.1534
  908WAT      O 4351   4.681   7.091   5.093  0.6420  0.1716 -0.2128
  908WAT     H1 4352   4.664   7.174   5.074 -2.0455 -0.2777 -0.1448
  908WAT     H2 4353   4.612   7.048   5.061  0.5868 -1.6967  2.1575
  908WAT    EPW 4354   4.668   7.097   5.085  0.2369 -0.1708  0.1474
  909WAT      O 4355   6.473   6.071   6.992  0.2411 -0.7622  0.7184
  909WAT     H1 4356   6.427   6.035   6.928  0.2171  1.3284 -0.5691
  909WAT     H2 4357   6.554   6.075   6.959  0.0498  1.2019  0.3294
  909WAT    EPW 4358   6.478   6.067   6.978  0.2093 -0.1633  0.4708
  910WAT      O 4359   4.903   6.944   1.593  0.1904 -0.4963  0.5168
  910WAT     H1 4360   4.922   7.023   1.561 -0.3845 -0.5961 -0.0855
  910WAT     H2 4361   4.963   6.933   1.655  0.2999  0.4001  0.5918
  910WAT    EPW 4362   4.915   6.954   1.598  0.1216 -0.3786  0.4389
  911WAT      O 4363   4.076   7.066   1.132 -0.4986 -0.7917 -0.2046
  911WAT     H1 4364   4.007   7.115   1.110 -2.7795 -2.6067  2.2559
  911WAT     H2 4365   4.103   7.102   1.207  0.6589 -0.6515 -0.6829
  911WAT    EPW 4366   4.070   7.078   1.140 -0.6645 -1.0391  0.0882
  912WAT      O 4367   5.977   6.313   5.915 -0.0087  0.1167  0.4577
  912WAT     H1 4368   5.941   6.371   5.861 -0.3549  0.3297  0.9072
  912WAT     H2 4369   5.909   6.284   5.962  0.2263 -0.3460  0.5191
  912WAT    EPW 4370   5.961   6.318   5.914 -0.0251  0.0798  0.5331
  913WAT      O 4371   4.169   6.579   5.768  0.3863  0.4176 -0.4564
  913WAT     H1 4372   4.164   6.661   5.738  1.9742 -1.0121 -5.9175
  913WAT     H2 4373   4.136   6.532   5.703 -0.8695 -3.4125  2.5951
  913WAT    EPW 4374   4.163   6.584   5.754  0.4353 -0.3594 -0.8123
  914WAT      O 4375   5.575   0.290   2.221 -0.1264 -0.3892 -0.0030
  914WAT     H1 4376   5.501   0.265   2.260  0.3001 -1.2611  0.2788
  914WAT     H2 4377   5.626   0.219   2.227  0.7143  0.1804 -0.2372
  914WAT    EPW 4378   5.571   0.276   2.228  0.0608 -0.4339  0.0041
  915WAT      O 4379   5.549   5.812   6.415  0.5520 -0.0770 -0.3277
  915WAT     H1 4380   5.503   5.886   6.406  1.6375  0.4386 -2.0339
  915WAT     H2 4381   5.508   5.756   6.362 -0.0498 -0.6384  0.6867
  915WAT    EPW 4382   5.536   5.814   6.406  0.6234 -0.0838 -0.4299
  916WAT      O 4383   3.690   6.363   5.133 -0.0112  0.0194 -0.6583
  916WAT     H1 4384   3.769   6.368   5.097 -0.3086  0.6265 -1.2567
  916WAT     H2 4385   3.684   6.435   5.180  0.5520 -0.9878  1.0457
  916WAT    EPW 4386   3.701   6.374   5.135  0.0281 -0.0397 -0.4950
  917WAT      O 4387   4.690   3.265   4.146 -0.8804 -0.0406  0.1049
  917WAT     H1 4388   4.759   3.259   4.199  1.0929  1.0554 -2.1653
  917WAT     H2 4389   4.637   3.322   4.186 -1.1657 -1.8651  2.5088
  917WAT    EPW 4390   4.692   3.272   4.160 -0.6311 -0.1482  0.1247
  918WAT      O 4391   6.567   5.908   5.531 -0.1323 -0.0126  0.5658
  918WAT     H1 4392   6.565   5.833   5.486 -1.1759 -0.1833  0.8580
  918WAT     H2 4393   6.493   5.905   5.578 -1.3607  2.1913 -1.0527
  918WAT    EPW 4394   6.556   5.896   5.532 -0.4679  0.2878  0.3699
  919WAT      O 4395   5.501   6.611   1.446 -0.5425  0.3496  0.0505
  919WAT     H1 4396   5.477   6.578   1.369 -0.4334  0.5895 -0.0840
  919WAT     H2 4397   5.586   6.625   1.437 -0.5593  0.5185  0.1660
  919WAT    EPW 4398   5.510   6.608   1.434 -0.5288  0.4100  0.0477
  920WAT      O 4399   6.625   7.461   5.018  0.3933  0.0359  0.5717
  920WAT     H1 4400   6.541   7.452   5.038 -0.0193 -2.3019 -1.7054
  920WAT     H2 4401   6.666   7.420   5.084 -0.5951 -2.8990 -0.4808
  920WAT    EPW 4402   6.619   7.453   5.031  0.1863 -0.7430  0.0798
  921WAT      O 4403   5.884   3.402   4.276  0.3256  0.1515  0.3312
  921WAT     H1 4404   5.917   3.471   4.317 -0.2273  2.8520 -3.2195
  921WAT     H2 4405   5.955   3.358   4.250  0.7857  0.5636  0.8660
  921WAT    EPW 4406   5.900   3.406   4.278  0.3119  0.6113 -0.1143
  922WAT      O 4407   4.012   3.959   0.805 -0.0151  0.4826 -0.3046
  922WAT     H1 4408   3.970   3.914   0.743 -0.1531  1.1859 -0.7429
  922WAT     H2 4409   4.093   3.928   0.803 -0.5292 -1.0314  0.6848
  922WAT    EPW 4410   4.017   3.948   0.796 -0.1114  0.3628 -0.2232
  923WAT      O 4411   2.891   2.110   1.027 -0.2839  0.3313  0.2665
  923WAT     H1 4412   2.835   2.170   1.055 -1.5863  0.3052 -2.0154
  923WAT     H2 4413   2.887   2.117   0.940  2.8859 -0.0468 -0.0608
  923WAT    EPW 4414   2.882   2.120   1.018 -0.0080  0.2716 -0.1189
  924WAT      O 4415   2.258   6.206   0.036 -0.2569 -0.3061  0.1485
  924WAT     H1 4416   2.287   6.125   0.046 -1.8295 -0.6951  2.4738
  924WAT     H2 4417   2.212   6.220   0.109 -1.2307  2.1679 -0.8298
  924WAT    EPW 4418   2.255   6.196   0.049 -0.6331  0.0019  0.3475
  925WAT      O 4419   5.986   6.509   5.704 -0.1668 -0.2172 -0.1272
  925WAT     H1 4420   6.051   6.559   5.736  0.0018 -0.6426  0.2042
  925WAT     H2 4421   6.005   6.503   5.619 -0.1757  0.2660 -0.1669
  925WAT    EPW 4422   5.999   6.516   5.696 -0.1432 -0.2087 -0.0841
  926WAT      O 4423   4.286   2.233   7.337  0.1613  0.0882  0.0902
  926WAT     H1 4424   4.249   2.205   7.262  2.4336 -0.1640 -1.0097
  926WAT     H2 4425   4.298   2.318   7.323 -1.4872  0.5449  1.1483
  926WAT    EPW 4426   4.282   2.241   7.324  0.2534  0.1184  0.0841
  927WAT      O 4427   7.536   6.168   4.237 -0.3609 -0.4406 -0.4998
  927WAT     H1 4428   7.455   6.147   4.263  0.0935 -0.3768  1.0495
  927WAT     H2 4429   7.586   6.148   4.305  0.9355 -0.3859 -1.3982
  927WAT    EPW 4430   7.531   6.162   4.250 -0.1023 -0.4231 -0.4036
  928WAT      O 4431   4.256   1.805   0.387  0.0730 -0.2053  0.0114
  928WAT     H1 4432   4.302   1.844   0.450 -1.6710  1.2977  0.4043
  928WAT     H2 4433   4.197   1.758   0.431 -1.0818  0.7637 -0.4791
  928WAT    EPW 4434   4.254   1.804   0.403 -0.3552  0.1599 -0.0030
  929WAT      O 4435   6.738   3.978   5.644 -0.3334 -0.0243  0.2559
  929WAT     H1 4436   6.795   3.961   5.707  0.4498 -0.0731 -0.4448
  929WAT     H2 4437   6.662   3.948   5.675 -0.4129  1.7928  2.0232
  929WAT    EPW 4438   6.735   3.971   5.658 -0.2295  0.2370  0.4135
  930WAT      O 4439   7.046   4.135   5.607 -0.3334 -0.4788 -0.7937
  930WAT     H1 4440   7.012   4.083   5.546 -2.9888  0.7173 -0.4615
  930WAT     H2 4441   7.077   4.203   5.562  0.7279 -1.0942 -1.0186
  930WAT    EPW 4442   7.046   4.138   5.592 -0.5689 -0.3930 -0.7779
  931WAT      O 4443   5.364   5.078   7.151 -0.5516 -0.5691 -0.0661
  931WAT     H1 4444   5.352   5.043   7.072 -0.2910 -0.5710 -0.1025
  931WAT     H2 4445   5.450   5.092   7.155 -0.7671  1.0553 -0.4596
  931WAT    EPW 4446   5.375   5.075   7.140 -0.5450 -0.3294 -0.1296
  932WAT      O 4447   6.289   5.661   3.430 -0.2124 -0.5529 -0.0549
  932WAT     H1 4448   6.297   5.659   3.517 -0.6224 -2.0633 -0.0355
  932WAT     H2 4449   6.371   5.673   3.403 -0.3877  3.7034  0.5255
  932WAT    EPW 4450   6.303   5.663   3.439 -0.2989 -0.1473  0.0337
  933WAT      O 4451   1.321   1.998   5.916  0.3309  0.0529 -0.1728
  933WAT     H1 4452   1.384   1.994   5.976  0.0738 -0.0896  0.0908
  933WAT     H2 4453   1.294   2.081   5.919  0.1464 -0.0145  0.0898
  933WAT    EPW 4454   1.326   2.010   5.925  0.2657  0.0219 -0.0951
  934WAT      O 4455   3.879   0.163   4.674  0.5645 -0.3583 -0.4324
  934WAT     H1 4456   3.906   0.194   4.597  2.1093  3.1884  1.3577
  934WAT     H2 4457   3.952   0.143   4.716 -0.1992 -1.0219  0.6499
  934WAT    EPW 4458   3.894   0.164   4.669  0.6799  0.0676 -0.0081
  935WAT      O 4459   7.159   6.856   4.820 -0.3432  0.4309  0.0094
  935WAT     H1 4460   7.205   6.929   4.804  1.2460  0.3767  3.5176
  935WAT     H2 4461   7.081   6.885   4.845  0.4668  1.0905  1.9731
  935WAT    EPW 4462   7.154   6.871   4.821  0.0112  0.5204  0.8177
  936WAT      O 4463   6.671   5.978   4.562  0.4122 -0.0557 -0.5359
  936WAT     H1 4464   6.675   5.999   4.647 -0.8067  1.9193 -0.8968
  936WAT     H2 4465   6.609   5.917   4.559  0.5113 -0.1922 -0.0126
  936WAT    EPW 4466   6.662   5.972   4.574  0.2468  0.2159 -0.5119
  937WAT      O 4467   7.481   4.677   4.597  0.0604 -0.0661 -0.0428
  937WAT     H1 4468   7.430   4.622   4.552  2.3235 -0.6477 -2.1088
  937WAT     H2 4469   7.534   4.709   4.537  1.4269  1.3511  1.8197
  937WAT    EPW 4470   7.481   4.673   4.581  0.5966  0.0573 -0.0728
  938WAT      O 4471   5.900   5.659   4.744  0.4806  0.0847  0.0624
  938WAT     H1 4472   5.823   5.680   4.710  1.7151  1.0357 -2.3669
  938WAT     H2 4473   5.886   5.580   4.779 -1.1904 -0.4919 -1.7319
  938WAT    EPW 4474   5.886   5.650   4.744  0.4161  0.1400 -0.5615
  939WAT      O 4475   4.635   1.586   2.872  0.4036 -0.2762  0.0741
  939WAT     H1 4476   4.645   1.673   2.878  2.0451 -0.4704  0.5680
  939WAT     H2 4477   4.562   1.577   2.825  0.2025  1.3743  0.0174
  939WAT    EPW 4478   4.626   1.598   2.866  0.6164 -0.0610  0.1387
  940WAT      O 4479   3.197   4.853   7.597  0.5466 -0.0398 -0.3665
  940WAT     H1 4480   3.211   4.807   7.524  1.5926  0.1230 -0.2980
  940WAT     H2 4481   3.278   4.877   7.621  0.1474  0.5838  0.4041
  940WAT    EPW 4482   3.211   4.850   7.590  0.6422  0.0764 -0.2425
  941WAT      O 4483   5.247   0.434   7.837  0.1123 -0.6000  0.3043
  941WAT     H1 4484   5.286   0.402   7.909  1.4466  0.8934  0.3100
  941WAT     H2 4485   5.307   0.489   7.805 -0.6620 -0.8708 -1.7024
  941WAT    EPW 4486   5.262   0.438   7.843  0.1950 -0.4194  0.0087
  942WAT      O 4487   4.918   4.581   5.402 -0.3771  0.3637 -0.5248
  942WAT     H1 4488   4.939   4.584   5.318 -0.4637  0.2747 -0.5505
  942WAT     H2 4489   4.966   4.644   5.438  0.4682 -0.2890 -0.4624
  942WAT    EPW 4490   4.928   4.591   5.395 -0.2650  0.2541 -0.5193
  943WAT      O 4491   7.496   5.478   5.094  0.4344 -0.2109 -0.4841
  943WAT     H1 4492   7.467   5.403   5.127  0.0215  0.0429 -0.2709
  943WAT     H2 4493   7.477   5.537   5.156  0.4047  0.1322 -0.8178
  943WAT    EPW 4494   7.489   5.475   5.108  0.3690 -0.1227 -0.5019
  944WAT      O 4495   4.800   7.309   5.705  0.7232  0.2779  0.2678
  944WAT     H1 4496   4.865   7.256   5.729  1.6465  1.8544  1.4158
  944WAT     H2 4497   4.729   7.260   5.716  1.6761 -2.6093 -3.8531
  944WAT    EPW 4498   4.799   7.294   5.710  1.0003  0.0843 -0.1713
  945WAT      O 4499   3.916   3.397   6.856 -0.0453  0.5194 -0.4227
  945WAT     H1 4500   3.940   3.383   6.773 -0.0222  0.6492 -0.4389
  945WAT     H2 4501   3.979   3.449   6.887  0.4928 -0.3464 -0.0241
  945WAT    EPW 4502   3.929   3.403   6.848  0.0376  0.4106 -0.3662
  946WAT      O 4503   4.345   7.290   1.156  0.1338  0.2798  0.0710
  946WAT     H1 4504   4.324   7.209   1.181  1.2318  0.5425  2.0365
  946WAT     H2 4505   4.291   7.305   1.089 -2.6740 -0.7220  1.9228
  946WAT    EPW 4506   4.334   7.280   1.150 -0.1188  0.1706  0.6349
  947WAT      O 4507   5.722   6.404   6.310 -0.6042  0.2542  0.2407
  947WAT     H1 4508   5.668   6.456   6.356  0.5291  1.5265  0.1868
  947WAT     H2 4509   5.755   6.457   6.250  2.1079  0.0445  1.3957
  947WAT    EPW 4510   5.719   6.420   6.308 -0.0362  0.4111  0.4034
  948WAT      O 4511   5.854   6.859   1.667  0.0377  0.2149  0.6996
  948WAT     H1 4512   5.813   6.916   1.615  2.1161  1.1182 -0.0731
  948WAT     H2 4513   5.795   6.840   1.728 -1.6588  1.0285 -0.6073
  948WAT    EPW 4514   5.839   6.865   1.668  0.0941  0.4686  0.3924
  949WAT      O 4515   5.767   5.510   3.577 -0.3629 -0.0818  0.1863
  949WAT     H1 4516   5.719   5.528   3.647 -0.9499 -1.2705  0.1125
  949WAT     H2 4517   5.762   5.584   3.530  1.5915  1.4662  2.1836
  949WAT    EPW 4518   5.759   5.524   3.580 -0.1609 -0.0287  0.4705
  950WAT      O 4519   7.297   5.116   5.067 -0.6462 -0.3704 -0.2077
  950WAT     H1 4520   7.248   5.170   5.018 -0.4602  0.1072  0.1193
  950WAT     H2 4521   7.262   5.038   5.053  0.1370 -0.4467 -2.0344
  950WAT    EPW 4522   7.285   5.113   5.058 -0.5030 -0.3111 -0.4292
  951WAT      O 4523   4.059   5.204   0.931  0.0087  0.1622  0.1917
  951WAT     H1 4524   4.045   5.242   0.854  0.5684  0.5632  0.2753
  951WAT     H2 4525   4.006   5.135   0.931 -0.1966  0.3175 -0.4349
  951WAT    EPW 4526   4.049   5.200   0.920  0.0611  0.2443  0.1115
  952WAT      O 4527   3.747   2.818   1.863  0.0991  0.1646  0.3595
  952WAT     H1 4528   3.775   2.899   1.880 -1.1436  0.9399 -1.0200
  952WAT     H2 4529   3.798   2.793   1.796 -0.8472  0.6581 -0.5852
  952WAT    EPW 4530   3.759   2.826   1.855 -0.2242  0.3520  0.0162
  953WAT      O 4531   5.809   4.368   2.800  0.0734  0.1276 -0.4141
  953WAT     H1 4532   5.823   4.448   2.832  0.2667 -0.0569 -0.0383
  953WAT     H2 4533   5.830   4.315   2.866 -1.2809 -0.1962 -0.2106
  953WAT    EPW 4534   5.814   4.372   2.814 -0.0981  0.0525 -0.3285
  954WAT      O 4535   5.440   5.438   2.072 -0.0742 -0.1465 -0.1060
  954WAT     H1 4536   5.360   5.467   2.052 -0.0476 -0.1216 -0.1782
  954WAT     H2 4537   5.491   5.506   2.051  0.1632 -0.7700 -1.7165
  954WAT    EPW 4538   5.435   5.453   2.066 -0.0352 -0.2349 -0.3546
  955WAT      O 4539   1.066   6.961   7.444 -0.3213  0.3363 -0.4508
  955WAT     H1 4540   1.123   6.899   7.417 -0.3165  0.4207 -0.6393
  955WAT     H2 4541   1.077   6.963   7.530  0.3961  0.7737 -0.5467
  955WAT    EPW 4542   1.076   6.952   7.452 -0.2147  0.4134 -0.4928
  956WAT      O 4543   5.480   3.277   4.905 -0.0236 -0.1432  0.3467
  956WAT     H1 4544   5.473   3.349   4.857 -1.4515 -1.7356 -2.0348
  956WAT     H2 4545   5.398   3.263   4.932 -0.0633 -1.5728 -0.4098
  956WAT    EPW 4546   5.467   3.285   4.902 -0.2404 -0.5896 -0.1168
  957WAT      O 4547   5.712   3.780   3.765 -0.1388  0.8361 -0.1592
  957WAT     H1 4548   5.652   3.716   3.766 -0.9710  1.6045  0.1282
  957WAT     H2 4549   5.696   3.824   3.838  2.1278 -0.1353  1.0455
  957WAT    EPW 4550   5.701   3.777   3.776  0.0731  0.8061  0.0612
  958WAT      O 4551   4.602   1.148   1.930 -0.1295 -0.1132 -0.2639
  958WAT     H1 4552   4.619   1.081   1.983  1.5095  0.4670  0.0086
  958WAT     H2 4553   4.668   1.203   1.944  0.1064  0.2916 -2.5717
  958WAT    EPW 4554   4.614   1.146   1.940  0.1474  0.0323 -0.5645
  959WAT      O 4555   5.837   4.787   0.198  1.1373 -0.0303  0.4713
  959WAT     H1 4556   5.831   4.841   0.130  1.1313 -1.6112 -0.8343
  959WAT     H2 4557   5.916   4.751   0.189  1.4236  0.2405  1.7121
  959WAT    EPW 4558   5.848   4.790   0.187  1.1787 -0.2238  0.4618
  960WAT      O 4559   5.858   6.759   5.820  0.3162  0.1445  0.2528
  960WAT     H1 4560   5.859   6.830   5.770  1.1213  0.4554  0.7078
  960WAT     H2 4561   5.901   6.700   5.773  2.4242  0.8698  1.1806
  960WAT    EPW 4562   5.864   6.761   5.806  0.7465  0.2976  0.4570
  961WAT      O 4563   7.244   5.400   6.391  0.6001 -0.3112  0.6301
  961WAT     H1 4564   7.202   5.355   6.452 -0.2662 -0.2391  0.0939
  961WAT     H2 4565   7.278   5.467   6.435  0.9709 -0.8809  1.2335
  961WAT    EPW 4566   7.243   5.403   6.406  0.5269 -0.3847  0.6400
  962WAT      O 4567   1.961   6.150   3.347 -0.1044 -0.0890 -0.3824
  962WAT     H1 4568   1.898   6.103   3.385  0.3075 -0.6774 -0.4118
  962WAT     H2 4569   2.011   6.176   3.413 -0.3111  0.2768 -0.3701
  962WAT    EPW 4570   1.959   6.147   3.362 -0.0741 -0.1219 -0.3849
  963WAT      O 4571   5.288   5.573   1.507  0.4552 -0.0466  0.5494
  963WAT     H1 4572   5.293   5.527   1.581  0.6204 -0.3961  0.3173
  963WAT     H2 4573   5.227   5.633   1.526  0.6718  0.0236  1.0549
  963WAT    EPW 4574   5.279   5.575   1.521  0.5116 -0.0878  0.5898
  964WAT      O 4575   4.469   7.578   2.725  0.3559 -0.1633 -0.0646
  964WAT     H1 4576   4.491   7.640   2.669 -1.6483  0.0836 -0.6566
  964WAT     H2 4577   4.382   7.585   2.731 -0.4425 -4.5946 -2.2819
  964WAT    EPW 4578   4.460   7.588   2.718 -0.0581 -0.7814 -0.4796
  965WAT      O 4579   6.276   2.176   4.778 -0.0181  0.0322  0.6489
  965WAT     H1 4580   6.349   2.128   4.786  0.4028  0.7670  1.4757
  965WAT     H2 4581   6.270   2.190   4.692  0.9283  0.0913  0.5789
  965WAT    EPW 4582   6.286   2.171   4.767  0.1839  0.1494  0.7607
  966WAT      O 4583   2.714   6.076   4.243  0.1329 -0.1631 -0.2046
  966WAT     H1 4584   2.707   6.163   4.253 -1.1833 -0.2792 -0.0478
  966WAT     H2 4585   2.774   6.054   4.303 -0.2667  0.5061  0.4546
  966WAT    EPW 4586   2.722   6.086   4.253 -0.1205 -0.0814 -0.0841
  967WAT      O 4587   4.957   3.323   0.473  0.0688  0.4007 -0.2074
  967WAT     H1 4588   4.909   3.268   0.425  2.5907 -0.1580 -2.2892
  967WAT     H2 4589   5.025   3.275   0.498  0.6684  1.7049  0.8006
  967WAT    EPW 4590   4.960   3.308   0.470  0.5299  0.5108 -0.3661
  968WAT      O 4591   7.615   1.486   5.205 -0.2117 -0.1984  0.0192
  968WAT     H1 4592   7.565   1.468   5.135  0.6634 -0.1278 -0.6349
  968WAT     H2 4593   7.669   1.418   5.209  0.5694  0.4099 -0.1347
  968WAT    EPW 4594   7.615   1.473   5.195  0.0329 -0.0981 -0.1002
  969WAT      O 4595   6.293   6.413   7.562 -0.0824 -0.6766 -0.4403
  969WAT     H1 4596   6.321   6.491   7.534 -1.6994 -0.5278 -1.8110
  969WAT     H2 4597   6.212   6.408   7.531 -1.3398 -1.4363  2.5918
  969WAT    EPW 4598   6.285   6.424   7.553 -0.5070 -0.7668 -0.1949
  970WAT      O 4599   7.111   5.235   4.321 -0.3147 -0.4140 -0.5782
  970WAT     H1 4600   7.173   5.198   4.370 -0.5640 -1.8185 -1.2395
  970WAT     H2 4601   7.055   5.169   4.307 -1.3519  0.5185 -0.9587
  970WAT    EPW 4602   7.112   5.219   4.326 -0.5047 -0.4837 -0.7321
  971WAT      O 4603   5.191   1.383   3.627 -0.2502 -0.5223 -0.1598
  971WAT     H1 4604   5.182   1.438   3.561 -1.1948 -1.5405 -0.9166
  971WAT     H2 4605   5.194   1.435   3.697 -0.7207  0.4943 -0.8786
  971WAT    EPW 4606   5.190   1.399   3.628 -0.4592 -0.5225 -0.3778
  972WAT      O 4607   4.378   2.533   1.871  0.1707 -0.0298  0.8142
  972WAT     H1 4608   4.334   2.544   1.797  1.2002 -1.2781 -0.0359
  972WAT     H2 4609   4.461   2.538   1.846  0.5398  0.4213  2.0581
  972WAT    EPW 4610   4.384   2.535   1.857  0.3773 -0.1476  0.8724
  973WAT      O 4611   1.634   7.503   6.808 -0.0940 -0.4666  0.7351
  973WAT     H1 4612   1.621   7.578   6.852  1.9616  1.3714 -1.4914
  973WAT     H2 4613   1.712   7.477   6.836  0.2411 -0.4740 -0.1815
  973WAT    EPW 4614   1.643   7.510   6.819  0.2592 -0.1961  0.2708
  974WAT      O 4615   5.207   1.223   1.930 -0.8307 -0.0769  0.8148
  974WAT     H1 4616   5.232   1.226   1.847 -1.3435  1.2804  0.6824
  974WAT     H2 4617   5.272   1.181   1.969 -0.2826 -0.1867 -0.1759
  974WAT    EPW 4618   5.220   1.217   1.924 -0.8255  0.1074  0.6489
  975WAT      O 4619   6.189   5.086   3.997 -0.5567 -0.6302 -0.3768
  975WAT     H1 4620   6.121   5.110   4.046  0.5905  1.9158  0.1547
  975WAT     H2 4621   6.185   5.139   3.928  0.1011 -1.4072 -1.0381
  975WAT    EPW 4622   6.179   5.098   3.994 -0.2900 -0.3689 -0.3960
  976WAT      O 4623   3.947   0.015   3.156 -0.0321  0.1231  0.2974
  976WAT     H1 4624   3.880   0.006   3.101  0.6709  0.0683 -0.5697
  976WAT     H2 4625   3.918   0.076   3.212  0.2978  2.4567 -1.8871
  976WAT    EPW 4626   3.933   0.023   3.156  0.1205  0.4597 -0.1534
  977WAT      O 4627   5.048   7.175   1.510 -0.1784 -0.4404 -0.0011
  977WAT     H1 4628   5.118   7.140   1.471 -1.6999 -1.3909 -2.0724
  977WAT     H2 4629   5.031   7.246   1.462 -0.5274 -0.0990  0.6111
  977WAT    EPW 4630   5.056   7.180   1.497 -0.4547 -0.5304 -0.2166
  978WAT      O 4631   3.889   3.136   7.724  0.0699  1.0030  0.2768
  978WAT     H1 4632   3.880   3.168   7.805 -1.2819  2.2931 -0.3285
  978WAT     H2 4633   3.808   3.142   7.691  0.2458 -0.9555 -0.6774
  978WAT    EPW 4634   3.876   3.142   7.731 -0.1038  0.9043  0.0464
  979WAT      O 4635   7.077   2.770   5.920  0.1763  0.4002 -0.0709
  979WAT     H1 4636   7.135   2.774   5.985 -2.6826 -1.0918  2.8795
  979WAT     H2 4637   7.123   2.738   5.853  3.3224  2.0787  1.0940
  979WAT    EPW 4638   7.093   2.766   5.920  0.2187  0.4277  0.5370
  980WAT      O 4639   5.776   7.143   4.839 -0.5080  0.1067  0.3835
  980WAT     H1 4640   5.834   7.181   4.785  0.0744  0.3039  1.1261
  980WAT     H2 4641   5.822   7.079   4.876 -0.8837  0.0150  0.6965
  980WAT    EPW 4642   5.792   7.139   4.836 -0.4775  0.1223  0.5394
  981WAT      O 4643   6.742   0.365   3.344 -0.6064 -0.1565  0.2219
  981WAT     H1 4644   6.720   0.306   3.405  0.2134  0.8878  1.5708
  981WAT     H2 4645   6.692   0.433   3.362  0.3728  0.5408  0.4176
  981WAT    EPW 4646   6.732   0.366   3.356 -0.3406  0.1007  0.4501
  982WAT      O 4647   4.530   0.575   0.481  0.2731  0.9295 -0.5680
  982WAT     H1 4648   4.519   0.646   0.530  0.4528  1.4260 -1.2323
  982WAT     H2 4649   4.449   0.554   0.457 -0.4320 -1.8667  3.3478
  982WAT    EPW 4650   4.517   0.582   0.484  0.1955  0.5898 -0.0877
  983WAT      O 4651   1.278   5.058   6.694  0.2664 -0.5464 -0.5402
  983WAT     H1 4652   1.235   5.134   6.697  0.2196 -0.5898  1.8044
  983WAT     H2 4653   1.221   5.003   6.656 -0.6462  0.0360 -0.0375
  983WAT    EPW 4654   1.263   5.061   6.689  0.1247 -0.4668 -0.1196
  984WAT      O 4655   4.892   7.467   5.910 -0.3468 -0.0241  0.0589
  984WAT     H1 4656   4.834   7.432   5.855 -0.9257  1.2654 -0.1931
  984WAT     H2 4657   4.863   7.442   5.988 -0.1210 -0.9964 -0.1614
  984WAT    EPW 4658   4.879   7.458   5.914 -0.3989  0.0228 -0.0109
  985WAT      O 4659   4.180   7.623   0.939 -0.7134  0.3374  0.4597
  985WAT     H1 4660   4.212   7.542   0.936 -2.0943 -0.2612  1.1123
  985WAT     H2 4661   4.250   7.674   0.923 -0.0583 -1.0081 -1.2642
  985WAT    EPW 4662   4.195   7.619   0.936 -0.8206  0.0502  0.3014
  986WAT      O 4663   3.755   2.909   6.627  0.1671  0.7383 -0.4895
  986WAT     H1 4664   3.716   2.842   6.668  1.7215 -0.6177 -1.1370
  986WAT     H2 4665   3.797   2.950   6.692 -1.7181  1.8648  0.1154
  986WAT    EPW 4666   3.755   2.905   6.643  0.1183  0.7044 -0.4958
  987WAT      O 4667   6.285   2.481   3.856  0.1962 -0.0508  0.1488
  987WAT     H1 4668   6.257   2.525   3.926 -0.7289  0.2269 -0.3775
  987WAT     H2 4669   6.367   2.459   3.877 -0.6199 -1.5367  2.0428
  987WAT    EPW 4670   6.293   2.484   3.870 -0.0610 -0.2293  0.3508
  988WAT      O 4671   1.797   6.431   4.701 -0.4599 -0.0163 -0.1452
  988WAT     H1 4672   1.766   6.417   4.621 -0.1714 -2.5265  0.0933
  988WAT     H2 4673   1.815   6.516   4.702 -1.0232  0.1991 -2.5246
  988WAT    EPW 4674   1.795   6.442   4.690 -0.5005 -0.3553 -0.4615
  989WAT      O 4675   2.474   0.324   6.952 -0.3704 -0.0584  0.0117
  989WAT     H1 4676   2.444   0.395   6.994 -0.6102 -0.1668  0.0273
  989WAT     H2 4677   2.559   0.324   6.970 -0.0012  1.2775 -1.5314
  989WAT    EPW 4678   2.482   0.335   6.961 -0.3513  0.1229 -0.2139
  990WAT      O 4679   5.490   0.435   6.472  0.3934 -0.2132  0.6041
  990WAT     H1 4680   5.573   0.433   6.448  0.7218  1.5836  1.4256
  990WAT     H2 4681   5.489   0.391   6.547  0.5422 -0.5194  0.4251
  990WAT    EPW 4682   5.502   0.428   6.480  0.4639  0.0070  0.6990
  991WAT      O 4683   6.309   2.224   0.009 -0.5566 -0.4899  0.5239
  991WAT     H1 4684   6.315   2.259  -0.071  0.4473 -0.2415  0.6841
  991WAT     H2 4685   6.328   2.140  -0.004 -0.7355 -0.5195  0.4527
  991WAT    EPW 4686   6.313   2.217  -0.005 -0.4347 -0.4576  0.5371
  992WAT      O 4687   1.492   0.923   7.190  0.2869  0.1506 -0.0765
  992WAT     H1 4688   1.519   1.001   7.219 -2.0310  2.2011 -2.7616
  992WAT     H2 4689   1.528   0.917   7.111  0.6818 -1.7169  0.2088
  992WAT    EPW 4690   1.501   0.934   7.183  0.0029  0.1776 -0.4310
  993WAT      O 4691   3.524   5.159   2.026  0.1466  0.1360  0.7548
  993WAT     H1 4692   3.545   5.123   1.949  1.3104  0.4912  0.8874
  993WAT     H2 4693   3.544   5.097   2.084 -2.6915 -0.9683  0.7060
  993WAT    EPW 4694   3.530   5.144   2.023 -0.1007  0.0253  0.7672
  994WAT      O 4695   6.771   0.908   4.739  0.3559 -0.2437  0.2613
  994WAT     H1 4696   6.825   0.874   4.680  1.7880  1.5936  0.4517
  994WAT     H2 4697   6.711   0.949   4.691 -0.1906 -1.1935  0.0868
  994WAT    EPW 4698   6.770   0.909   4.723  0.4867 -0.1126  0.2637
  995WAT      O 4699   2.919   2.872   1.854 -0.5037 -0.0336 -0.0596
  995WAT     H1 4700   2.885   2.934   1.804  0.3592  0.3729 -0.1685
  995WAT     H2 4701   2.922   2.909   1.933  1.0022  0.5073 -0.3211
  995WAT    EPW 4702   2.915   2.886   1.859 -0.1538  0.1064 -0.1143
  996WAT      O 4703   5.074   0.422   2.707  0.4277 -0.0847 -0.4907
  996WAT     H1 4704   5.059   0.507   2.695 -1.7725 -0.4113 -0.5027
  996WAT     H2 4705   5.132   0.420   2.772  1.2822  1.4128 -1.1397
  996WAT    EPW 4706   5.081   0.434   2.715  0.2289  0.0883 -0.5884
  997WAT      O 4707   5.970   2.587   1.296  0.3402  0.2324  0.0182
  997WAT     H1 4708   5.969   2.532   1.229  0.9522  0.4259 -0.1621
  997WAT     H2 4709   5.949   2.538   1.364 -1.4036  0.2551 -0.4523
  997WAT    EPW 4710   5.967   2.572   1.296  0.1730  0.2643 -0.0780
  998WAT      O 4711   6.320   2.813   4.516 -0.2998 -0.0810 -0.3115
  998WAT     H1 4712   6.318   2.771   4.593  0.6410 -0.2243 -0.3568
  998WAT     H2 4713   6.352   2.891   4.536 -0.4968  0.0479 -0.4926
  998WAT    EPW 4714   6.324   2.818   4.530 -0.1899 -0.0832 -0.3450
  999WAT      O 4715   2.249   4.307   5.584 -0.0052  0.2552  0.8010
  999WAT     H1 4716   2.271   4.364   5.646 -0.1827  1.6556 -0.3820
  999WAT     H2 4717   2.301   4.328   5.517 -3.6390  2.6753 -1.5906
  999WAT    EPW 4718   2.260   4.318   5.583 -0.5682  0.8196  0.2729
 1000WAT      O 4719   5.914   7.031   7.079 -0.1076  0.3282  0.5052
 1000WAT     H1 4720   5.915   6.945   7.059  0.3121  0.6433 -1.0286
 1000WAT     H2 4721   5.993   7.058   7.052  0.1180  1.0416  1.8202
 1000WAT    EPW 4722   5.926   7.022   7.072 -0.0122  0.4801  0.4728
 1001WAT      O 4723   4.769   3.016   2.432 -0.2413  0.1963 -0.2858
 1001WAT     H1 4724   4.735   2.986   2.358  0.6431  1.9672 -1.4914
 1001WAT     H2 4725   4.699   3.036   2.480 -0.8370 -0.4814 -0.8516
 1001WAT    EPW 4726   4.753   3.015   2.428 -0.1987  0.3578 -0.5475
 1002WAT      O 4727   5.853   0.649   7.358  0.1809  0.1125  0.1536
 1002WAT     H1 4728   5.838   0.613   7.437  0.7616  3.1575  1.8259
 1002WAT     H2 4729   5.775   0.680   7.335  0.2309  0.1425  0.0259
 1002WAT    EPW 4730   5.839   0.648   7.367  0.2741  0.5667  0.3818
 1003WAT      O 4731   3.942   1.913   7.390  0.1963  0.1644 -0.0721
 1003WAT     H1 4732   3.898   1.917   7.315  0.6722  0.9945 -0.3095
 1003WAT     H2 4733   3.953   1.827   7.402  0.5083  0.0392 -1.1762
 1003WAT    EPW 4734   3.937   1.901   7.381  0.3127  0.2685 -0.2702
 1004WAT      O 4735   5.694   2.731   3.950 -0.0177 -0.0023  0.8301
 1004WAT     H1 4736   5.673   2.674   4.012  1.4407  0.3685  1.7116
 1004WAT     H2 4737   5.619   2.771   3.933 -0.9018 -1.6493  0.7370
 1004WAT    EPW 4738   5.680   2.728   3.957  0.0671 -0.1908  0.9465
 1005WAT      O 4739   7.600   1.655   6.846  0.0149 -0.4120  0.0216
 1005WAT     H1 4740   7.607   1.568   6.850 -0.6325 -0.5078 -0.7720
 1005WAT     H2 4741   7.516   1.668   6.827  0.6169  0.2844 -2.4589
 1005WAT    EPW 4742   7.589   1.644   6.844  0.0082 -0.3233 -0.4621
 1006WAT      O 4743   4.286   4.508   2.597 -0.9027  0.2510  0.5670
 1006WAT     H1 4744   4.283   4.591   2.622 -0.0804  0.4901 -0.0968
 1006WAT     H2 4745   4.221   4.502   2.538  0.6451  1.1254 -1.3348
 1006WAT    EPW 4746   4.276   4.519   2.592 -0.5526  0.4155  0.1880
 1007WAT      O 4747   7.409   6.212   6.707 -0.0010  0.5397 -0.0620
 1007WAT     H1 4748   7.404   6.283   6.656 -1.4478  1.1286  0.8375
 1007WAT     H2 4749   7.399   6.146   6.652  0.8542  1.0418 -0.8455
 1007WAT    EPW 4750   7.407   6.213   6.692 -0.0884  0.7009 -0.0448
 1008WAT      O 4751   4.338   6.313   3.817  0.0644 -0.1862  0.2945
 1008WAT     H1 4752   4.421   6.286   3.812  0.3812  0.6072  1.0292
 1008WAT     H2 4753   4.300   6.273   3.750  1.5359  1.2556 -1.5056
 1008WAT    EPW 4754   4.345   6.303   3.807  0.3286  0.1440  0.1371
 1009WAT      O 4755   3.847   5.409   6.973 -0.0414  0.1623  0.5413
 1009WAT     H1 4756   3.800   5.447   6.910  1.7621  0.8097 -0.4863
 1009WAT     H2 4757   3.852   5.326   6.947 -1.1026 -0.0649  0.9958
 1009WAT    EPW 4758   3.841   5.403   6.960  0.0682  0.2244  0.4566
 1010WAT      O 4759   3.433   3.364   1.660 -0.2259 -0.3284  0.0128
 1010WAT     H1 4760   3.444   3.371   1.746  2.7917 -0.2476 -0.2871
 1010WAT     H2 4761   3.393   3.438   1.638  0.6425  0.5096  1.1436
 1010WAT    EPW 4762   3.429   3.376   1.669  0.3481 -0.1927  0.1355
 1011WAT      O 4763   2.737   4.516   0.853 -0.5427 -0.4904 -0.0079
 1011WAT     H1 4764   2.796   4.500   0.790  0.3204 -0.9995  0.8976
 1011WAT     H2 4765   2.743   4.447   0.905 -0.4556  0.4034  1.2124
 1011WAT    EPW 4766   2.747   4.504   0.852 -0.4023 -0.4336  0.3061
 1012WAT      O 4767   7.001   4.915   5.552  0.0440 -0.4988 -0.5736
 1012WAT     H1 4768   7.036   4.993   5.537 -0.0808 -0.5449 -1.1181
 1012WAT     H2 4769   7.056   4.879   5.610 -0.0007  0.0597 -0.1835
 1012WAT    EPW 4770   7.015   4.921   5.558  0.0190 -0.4231 -0.5964
 1013WAT      O 4771   5.279   3.458   3.722  0.1219  0.0716  0.4024
 1013WAT     H1 4772   5.245   3.386   3.757 -0.7063 -0.1184 -0.7395
 1013WAT     H2 4773   5.233   3.522   3.758  1.6416  0.1810  2.3386
 1013WAT    EPW 4774   5.267   3.457   3.732  0.2240  0.0597  0.5198
 1014WAT      O 4775   1.588   5.554   4.373  0.4518 -0.4929  0.4868
 1014WAT     H1 4776   1.590   5.628   4.418 -0.2963  0.0221 -0.3015
 1014WAT     H2 4777   1.577   5.493   4.434 -0.5601  0.1928  1.0218
 1014WAT    EPW 4778   1.587   5.556   4.389  0.1918 -0.3155  0.4494
 1015WAT      O 4779   2.309   5.023   0.201 -0.1349  0.3670 -0.6019
 1015WAT     H1 4780   2.392   5.001   0.187 -0.6587 -1.8287 -0.5975
 1015WAT     H2 4781   2.314   5.093   0.253  1.7083 -0.4264  0.3600
 1015WAT    EPW 4782   2.322   5.030   0.206  0.0600 -0.0746 -0.4591
 1016WAT      O 4783   4.632   5.630   4.578 -0.0470 -0.7494  0.0315
 1016WAT     H1 4784   4.560   5.625   4.627  0.1526 -0.1590  0.3959
 1016WAT     H2 4785   4.610   5.589   4.505 -0.5775 -1.0413  0.3490
 1016WAT    EPW 4786   4.618   5.623   4.575 -0.0959 -0.7053  0.1323
 1017WAT      O 4787   5.537   6.686   0.606 -0.2997 -0.2312 -0.1689
 1017WAT     H1 4788   5.473   6.637   0.641 -0.4401  0.4310  0.5248
 1017WAT     H2 4789   5.544   6.655   0.525 -0.8066 -0.9923  0.0606
 1017WAT    EPW 4790   5.529   6.674   0.599 -0.3953 -0.2458 -0.0325
 1018WAT      O 4791   3.103   6.728   3.188 -1.1800 -0.3211  0.0368
 1018WAT     H1 4792   3.171   6.673   3.196 -0.9766 -0.1355 -0.3705
 1018WAT     H2 4793   3.125   6.796   3.238 -1.5711 -0.7355  0.7871
 1018WAT    EPW 4794   3.116   6.730   3.197 -1.2077 -0.3549  0.0874
 1019WAT      O 4795   5.824   5.225   1.588 -0.1745 -0.4647  0.2160
 1019WAT     H1 4796   5.825   5.283   1.652 -0.8083  0.5499 -0.6480
 1019WAT     H2 4797   5.739   5.210   1.575 -0.0947 -0.2129 -0.7354
 1019WAT    EPW 4798   5.812   5.231   1.595 -0.2564 -0.2776 -0.0522
 1020WAT      O 4799   6.332   5.693   6.713  0.3173 -0.1333  0.2420
 1020WAT     H1 4800   6.269   5.636   6.694  1.7039 -1.5906 -0.2053
 1020WAT     H2 4801   6.362   5.665   6.790  1.3924 -0.3902 -0.2545
 1020WAT    EPW 4802   6.327   5.681   6.722  0.6809 -0.3865  0.1026
 1021WAT      O 4803   0.287   2.329   4.416 -0.0233 -0.0723 -0.5114
 1021WAT     H1 4804   0.217   2.335   4.365 -0.0794  2.3588 -0.2371
 1021WAT     H2 4805   0.261   2.277   4.482 -1.4624  0.5699 -0.5592
 1021WAT    EPW 4806   0.273   2.322   4.418 -0.2442  0.3817 -0.4780
 1022WAT      O 4807   4.355   3.158   6.371 -0.0527  0.5634  0.4896
 1022WAT     H1 4808   4.274   3.130   6.359  0.6320 -0.7334 -1.5180
 1022WAT     H2 4809   4.381   3.182   6.292  1.8815 -0.0989  0.8653
 1022WAT    EPW 4810   4.347   3.158   6.358  0.3342  0.2740  0.2485
 1023WAT      O 4811   0.182   5.769   4.097  0.5130  0.0023  0.4229
 1023WAT     H1 4812   0.170   5.740   4.178  1.2802 -1.0384  0.1898
 1023WAT     H2 4813   0.206   5.697   4.053  2.1734  0.9256 -0.2693
 1023WAT    EPW 4814   0.183   5.754   4.102  0.8716 -0.0150  0.2862
 1024WAT      O 4815   3.639   2.737   6.450 -0.0956  0.4009  0.5395
 1024WAT     H1 4816   3.683   2.805   6.483 -0.2877  0.2148  1.1919
 1024WAT     H2 4817   3.689   2.712   6.382  2.3148 -1.4329  2.7640
 1024WAT    EPW 4818   3.653   2.743   6.444  0.2320  0.1025  0.9645
 1025WAT      O 4819   6.040   5.607   0.328  0.0546  0.0336  0.0982
 1025WAT     H1 4820   6.029   5.589   0.412  0.8842 -2.4868 -0.2637
 1025WAT     H2 4821   5.969   5.574   0.290 -0.4051  1.3163 -0.2170
 1025WAT    EPW 4822   6.028   5.600   0.335  0.1093 -0.1492 -0.0018
 1026WAT      O 4823   4.249   2.777   1.617 -0.1106  0.1409 -0.4292
 1026WAT     H1 4824   4.336   2.783   1.612 -0.0837 -0.2577 -0.4651
 1026WAT     H2 4825   4.229   2.712   1.562 -0.4892  0.6248 -0.8813
 1026WAT    EPW 4826   4.259   2.769   1.608 -0.1626  0.1535 -0.5013
 1027WAT      O 4827   2.204   5.369   2.081  0.1379 -0.2660  0.2060
 1027WAT     H1 4828   2.140   5.427   2.073  0.6034  0.1235 -0.8064
 1027WAT     H2 4829   2.218   5.341   2.000  1.0229 -0.5882  0.4512
 1027WAT    EPW 4830   2.197   5.373   2.068  0.3374 -0.2560  0.0927
 1028WAT      O 4831   1.563   6.703   1.889  0.1743  0.1791 -0.1616
 1028WAT     H1 4832   1.528   6.634   1.849 -2.3313  1.7757 -0.9753
 1028WAT     H2 4833   1.560   6.681   1.973 -1.4194 -0.4156 -0.3248
 1028WAT    EPW 4834   1.557   6.689   1.895 -0.4312  0.3271 -0.3059
 1029WAT      O 4835   7.737   4.141   4.740  0.0489 -0.0617  0.2029
 1029WAT     H1 4836   7.717   4.056   4.744 -2.0826  0.4434  2.1728
 1029WAT     H2 4837   7.675   4.174   4.689 -1.3335  0.7824  2.3103
 1029WAT    EPW 4838   7.725   4.133   4.733 -0.4702  0.1376  0.8052
 1030WAT      O 4839   4.792   6.713   1.275  0.0324 -0.3390  0.3085
 1030WAT     H1 4840   4.713   6.703   1.239  0.4373  1.0637 -1.0972
 1030WAT     H2 4841   4.785   6.789   1.318  0.2040 -0.9433  1.4516
 1030WAT    EPW 4842   4.779   6.723   1.276  0.1176 -0.2211  0.2697
 1031WAT      O 4843   6.366   0.280   4.052 -0.4024  0.0247 -0.0770
 1031WAT     H1 4844   6.291   0.240   4.071  0.2113 -0.9254  0.4363
 1031WAT     H2 4845   6.413   0.270   4.125  0.7938 -0.7857 -0.9169
 1031WAT    EPW 4846   6.362   0.272   4.066 -0.1351 -0.2354 -0.1253
 1032WAT      O 4847   5.544   4.234   3.030 -0.2499 -0.2950 -0.6552
 1032WAT     H1 4848   5.494   4.188   3.084  0.3980 -0.5970 -0.3094
 1032WAT     H2 4849   5.517   4.209   2.951 -2.1954  1.1877 -0.5395
 1032WAT    EPW 4850   5.532   4.224   3.027 -0.4416 -0.1206 -0.5870
 1033WAT      O 4851   7.246   7.491   5.297 -0.1371  0.3333 -0.2283
 1033WAT     H1 4852   7.284   7.456   5.226 -2.0323 -0.3067 -0.9758
 1033WAT     H2 4853   7.304   7.475   5.360  2.4968  2.5600 -1.8477
 1033WAT    EPW 4854   7.261   7.483   5.295 -0.0280  0.5677 -0.5780
 1034WAT      O 4855   2.950   6.917   0.644  0.4392 -0.0808 -0.4178
 1034WAT     H1 4856   2.866   6.926   0.663  0.0973 -1.5014 -1.0875
 1034WAT     H2 4857   2.953   6.929   0.557  1.3219  2.2333 -0.1367
 1034WAT    EPW 4858   2.938   6.920   0.634  0.5191  0.0512 -0.4752
 1035WAT      O 4859   1.180   2.265   7.377  0.0346 -0.4706  0.1279
 1035WAT     H1 4860   1.116   2.207   7.395  0.3930 -0.9587 -0.1360
 1035WAT     H2 4861   1.212   2.284   7.456 -0.8691  0.2966  0.3252
 1035WAT    EPW 4862   1.175   2.259   7.392 -0.0459 -0.4293  0.1181
 1036WAT      O 4863   7.709   3.277   7.690  0.8648  0.4196 -0.1126
 1036WAT     H1 4864   7.739   3.346   7.647  0.0939  1.4397  0.9318
 1036WAT     H2 4865   7.639   3.308   7.732 -0.0820 -1.2269 -0.3835
 1036WAT    EPW 4866   7.703   3.292   7.690  0.6110  0.3271  0.0017
 1037WAT      O 4867   5.686   0.330   2.530 -0.1853  0.4041  0.2958
 1037WAT     H1 4868   5.606   0.331   2.565 -0.2657 -3.2240  0.6008
 1037WAT     H2 4869   5.674   0.294   2.452  1.0530  0.7915 -0.1011
 1037WAT    EPW 4870   5.672   0.325   2.524 -0.0142 -0.0746  0.2822
 1038WAT      O 4871   7.680   5.024   5.177  0.0278  0.2204 -0.2326
 1038WAT     H1 4872   7.741   4.964   5.161  1.5710  2.1253 -2.1091
 1038WAT     H2 4873   7.718   5.077   5.236  0.2935  1.4759 -1.4892
 1038WAT    EPW 4874   7.695   5.023   5.184  0.2950  0.6872 -0.6954
 1039WAT      O 4875   4.532   4.175   7.059 -0.4126  0.4892  0.0201
 1039WAT     H1 4876   4.465   4.136   7.098  0.9847 -2.2502 -0.0520
 1039WAT     H2 4877   4.496   4.214   6.990 -1.7846 -2.8731 -1.4118
 1039WAT    EPW 4878   4.517   4.175   7.055 -0.4089 -0.4122 -0.2021
 1040WAT      O 4879   6.227   1.601   5.950  0.2817  0.1709 -0.5823
 1040WAT     H1 4880   6.228   1.566   5.870 -0.9698 -0.5895 -0.2931
 1040WAT     H2 4881   6.156   1.651   5.949  0.9202  1.1038 -0.3185
 1040WAT    EPW 4882   6.217   1.603   5.938  0.1911  0.1964 -0.5006
 1041WAT      O 4883   5.882   4.402   4.962  0.5219  0.0046 -0.1478
 1041WAT     H1 4884   5.954   4.358   4.983  0.7757 -0.2816 -1.5010
 1041WAT     H2 4885   5.842   4.348   4.905 -1.6399 -0.6277  1.8177
 1041WAT    EPW 4886   5.887   4.387   4.956  0.2400 -0.1311 -0.0574
 1042WAT      O 4887   6.668   4.180   0.081 -1.1041 -0.1718  0.0475
 1042WAT     H1 4888   6.720   4.117   0.051  0.0664  0.9400 -0.3590
 1042WAT     H2 4889   6.702   4.198   0.160 -1.9192 -0.5636  0.5051
 1042WAT    EPW 4890   6.681   4.173   0.089 -1.0516 -0.0655  0.0551
 1043WAT      O 4891   0.143   6.807   6.130 -0.5673  0.3434 -0.3916
 1043WAT     H1 4892   0.126   6.888   6.106 -2.2503 -0.0671 -0.6847
 1043WAT     H2 4893   0.162   6.766   6.056 -1.0007  0.1883 -0.4228
 1043WAT    EPW 4894   0.143   6.813   6.116 -0.8799  0.2599 -0.4395
 1044WAT      O 4895   4.569   4.962   1.303 -0.6380 -0.4400  0.1301
 1044WAT     H1 4896   4.629   5.025   1.309 -1.3353  0.1531  1.2871
 1044WAT     H2 4897   4.497   4.999   1.337 -1.4747 -1.3636 -0.5634
 1044WAT    EPW 4898   4.567   4.977   1.309 -0.8646 -0.4888  0.1985
 1045WAT      O 4899   6.473   5.707   0.614 -0.3725  0.3859 -0.6892
 1045WAT     H1 4900   6.428   5.669   0.550  0.1751 -2.1463  0.2833
 1045WAT     H2 4901   6.544   5.738   0.574 -1.0496  0.7849 -1.6079
 1045WAT    EPW 4902   6.477   5.706   0.599 -0.3916  0.0708 -0.6813
 1046WAT      O 4903   6.943   0.433   0.706 -0.1868  0.9187 -0.1119
 1046WAT     H1 4904   7.014   0.423   0.657 -0.3209 -1.2532  0.0336
 1046WAT     H2 4905   6.895   0.491   0.662  1.4976  2.1730 -0.3807
 1046WAT    EPW 4906   6.947   0.440   0.692  0.0422  0.7831 -0.1301
 1047WAT      O 4907   6.229   6.561   6.744 -0.7859  0.1612 -0.0759
 1047WAT     H1 4908   6.228   6.499   6.683  0.1357 -0.2538  0.3045
 1047WAT     H2 4909   6.313   6.586   6.746 -0.8480  0.3368  0.8523
 1047WAT    EPW 4910   6.241   6.555   6.735 -0.6589  0.1258  0.1174
 1048WAT      O 4911   6.093   6.114   5.762 -0.2327 -0.1042  0.0153
 1048WAT     H1 4912   6.060   6.037   5.788  1.0338 -0.8282 -0.4039
 1048WAT     H2 4913   6.057   6.171   5.816 -1.4207 -0.9622  0.1646
 1048WAT    EPW 4914   6.083   6.111   5.774 -0.2211 -0.3379 -0.0246
 1049WAT      O 4915   6.344   0.821   3.578  0.2612  0.3841  0.0348
 1049WAT     H1 4916   6.266   0.862   3.578  0.3269  0.5500  1.5016
 1049WAT     H2 4917   6.357   0.801   3.662  0.5787 -2.0352 -0.5032
 1049WAT    EPW 4918   6.334   0.824   3.591  0.3178  0.0512  0.1720
 1050WAT      O 4919   7.495   2.820   4.976 -0.3870  0.6533 -0.0249
 1050WAT     H1 4920   7.557   2.849   5.030 -1.6309 -0.5090  2.1839
 1050WAT     H2 4921   7.538   2.772   4.918  0.7642 -1.1018  2.1355
 1050WAT    EPW 4922   7.510   2.817   4.975 -0.4007  0.2223  0.6205
 1051WAT      O 4923   6.379   5.970   6.755  0.0641  0.0768  0.4981
 1051WAT     H1 4924   6.376   5.883   6.750  1.3974  0.0284 -3.7160
 1051WAT     H2 4925   6.298   5.994   6.730  0.3404 -0.0485 -0.5841
 1051WAT    EPW 4926   6.366   5.961   6.750  0.3018  0.0511 -0.2842
 1052WAT      O 4927   0.397   5.540   5.329 -0.1196 -0.1170  0.6893
 1052WAT     H1 4928   0.431   5.460   5.319  3.2533  0.9185  2.1364
 1052WAT     H2 4929   0.325   5.527   5.376 -1.4247 -2.4553 -1.6860
 1052WAT    EPW 4930   0.392   5.527   5.334  0.1858 -0.3095  0.5522
 1053WAT      O 4931   6.560   6.523   1.613 -0.4019  0.1761  0.1248
 1053WAT     H1 4932   6.552   6.542   1.697 -0.0510  0.3264  0.1264
 1053WAT     H2 4933   6.640   6.489   1.607 -1.0039 -1.2745  0.1126
 1053WAT    EPW 4934   6.571   6.521   1.624 -0.4390 -0.0160  0.1232
 1054WAT      O 4935   5.877   6.750   0.558 -0.4126 -0.8800  0.4670
 1054WAT     H1 4936   5.832   6.675   0.549 -0.9926 -0.4928  0.0782
 1054WAT     H2 4937   5.827   6.809   0.517  0.5191 -0.4611 -0.1129
 1054WAT    EPW 4938   5.863   6.747   0.550 -0.3606 -0.7609  0.3239
 1055WAT      O 4939   3.276   1.452   4.962 -0.4669 -0.1380 -0.0878
 1055WAT     H1 4940   3.312   1.377   4.991  2.0175  1.9555  2.9326
 1055WAT     H2 4941   3.332   1.479   4.901  0.4111  0.6523  1.0171
 1055WAT    EPW 4942   3.289   1.445   4.957  0.0298  0.2880  0.5216
 1056WAT      O 4943   4.818   6.070   3.415 -0.1274 -0.1824 -0.0476
 1056WAT     H1 4944   4.758   6.017   3.380 -0.5086  0.0921  0.1813
 1056WAT     H2 4945   4.836   6.032   3.492 -1.3910  0.6996  0.7321
 1056WAT    EPW 4946   4.811   6.057   3.421 -0.3704 -0.0116  0.1014
 1057WAT      O 4947   3.150   0.956   6.339 -0.2387 -0.0686  0.2230
 1057WAT     H1 4948   3.143   1.030   6.293  2.9628  0.7606  0.7989
 1057WAT     H2 4949   3.180   0.898   6.281 -0.9906 -0.4107  0.1745
 1057WAT    EPW 4950   3.154   0.958   6.324  0.1231  0.0034  0.3009
 1058WAT      O 4951   6.289   5.759   5.710  0.3471  0.4403  0.1439
 1058WAT     H1 4952   6.250   5.695   5.665 -2.0927  2.9525 -1.6613
 1058WAT     H2 4953   6.299   5.724   5.789 -2.6015 -1.6279 -0.1967
 1058WAT    EPW 4954   6.285   5.745   5.715 -0.4489  0.5059 -0.1731
 1059WAT      O 4955   2.457   5.989   4.838 -0.0162  0.0547 -0.2940
 1059WAT     H1 4956   2.406   5.980   4.909 -0.3063  3.3286  0.0741
 1059WAT     H2 4957   2.538   5.988   4.871 -0.0362 -0.5629 -0.2473
 1059WAT    EPW 4958   2.461   5.988   4.854 -0.0620  0.4471 -0.2327
 1060WAT      O 4959   6.112   6.268   3.146  0.0005 -0.1801  0.8755
 1060WAT     H1 4960   6.032   6.244   3.119 -0.1174 -1.0379  1.9282
 1060WAT     H2 4961   6.159   6.268   3.073 -0.5438 -1.4052  0.4961
 1060WAT    EPW 4962   6.107   6.265   3.131 -0.0973 -0.4878  0.9749
 1061WAT      O 4963   3.816   4.923   3.313  0.3609  0.9044 -0.3302
 1061WAT     H1 4964   3.849   4.980   3.370 -0.0581 -0.4422  1.3438
 1061WAT     H2 4965   3.730   4.926   3.329  0.4258 -0.9901  0.6439
 1061WAT    EPW 4966   3.808   4.932   3.324  0.3086  0.4256  0.0610
 1062WAT      O 4967   6.065   4.168   3.394  0.3783 -0.0601  0.3320
 1062WAT     H1 4968   6.125   4.118   3.356  2.4541  0.0685  3.1359
 1062WAT     H2 4969   6.050   4.128   3.470 -2.1986  0.6189  0.2773
 1062WAT    EPW 4970   6.072   4.155   3.400  0.3042  0.0592  0.7381
 1063WAT      O 4971   4.864   1.833   3.521 -0.2836 -0.6710 -0.1578
 1063WAT     H1 4972   4.895   1.877   3.453 -1.3017 -1.2003 -0.9953
 1063WAT     H2 4973   4.779   1.825   3.503 -0.4886 -1.2087  0.9647
 1063WAT    EPW 4974   4.856   1.838   3.508 -0.4643 -0.8286 -0.1157
 1064WAT      O 4975   4.189   1.089   1.777 -0.3665 -0.2069  0.2466
 1064WAT     H1 4976   4.132   1.156   1.773 -0.3985 -0.2805 -1.8948
 1064WAT     H2 4977   4.141   1.020   1.753  0.0770 -0.7119  0.7870
 1064WAT    EPW 4978   4.173   1.089   1.773 -0.3057 -0.2923  0.0101
 1065WAT      O 4979   3.116   2.272   7.650  0.6196 -0.0986 -0.0771
 1065WAT     H1 4980   3.149   2.352   7.646 -2.6682  1.3507 -1.6775
 1065WAT     H2 4981   3.131   2.239   7.571 -0.1106 -0.1192 -0.2123
 1065WAT    EPW 4982   3.123   2.279   7.638  0.0261  0.1125 -0.3335
 1066WAT      O 4983   0.007   5.231   6.984  0.2148  0.1820 -0.0142
 1066WAT     H1 4984   0.011   5.297   7.041 -1.5148  0.3831 -0.0703
 1066WAT     H2 4985   0.011   5.270   6.906 -2.2234  0.4332 -0.0826
 1066WAT    EPW 4986   0.008   5.246   6.981 -0.4009  0.2488 -0.0326
 1067WAT      O 4987   3.807   5.565   7.214  0.6071  0.1462  0.3391
 1067WAT     H1 4988   3.794   5.510   7.147 -0.2837 -0.7481  1.2033
 1067WAT     H2 4989   3.880   5.534   7.251  0.4807 -0.0511  0.4281
 1067WAT    EPW 4990   3.816   5.552   7.209  0.4568 -0.0151  0.4799
 1068WAT      O 4991   2.056   4.371   3.426  0.2297  0.4902 -0.4471
 1068WAT     H1 4992   2.075   4.316   3.361 -0.4315  0.7154 -0.8446
 1068WAT     H2 4993   2.078   4.449   3.393  0.7370  0.5145 -0.0570
 1068WAT    EPW 4994   2.062   4.374   3.411  0.2070  0.5270 -0.4482
 1069WAT      O 4995   5.019   2.387   2.976  0.5056 -0.3239  0.4612
 1069WAT     H1 4996   4.954   2.339   3.009  1.2962 -0.5497  1.7724
 1069WAT     H2 4997   5.087   2.333   2.977  0.7187 -0.1201 -0.9854
 1069WAT    EPW 4998   5.019   2.372   2.981  0.6538 -0.3272  0.4412
 1070WAT      O 4999   5.972   1.113   1.116  0.2142  0.2951  0.1811
 1070WAT     H1 5000   5.898   1.114   1.161 -0.2259  2.0895 -0.5302
 1070WAT     H2 5001   6.009   1.037   1.140 -2.9553 -1.9673 -1.3356
 1070WAT    EPW 5002   5.967   1.102   1.126 -0.3190  0.2260 -0.1480
 1071WAT      O 5003   6.033   0.400   6.820 -0.4060  0.3798  0.3525
 1071WAT     H1 5004   6.010   0.350   6.752  1.5379 -0.2540  0.0904
 1071WAT     H2 5005   6.051   0.342   6.882 -0.3560  0.8691  0.7977
 1071WAT    EPW 5006   6.032   0.384   6.819 -0.1115  0.3584  0.3796
 1072WAT      O 5007   5.413   3.606   4.283 -0.2106  0.2787 -0.1107
 1072WAT     H1 5008   5.428   3.605   4.369  0.1496  0.1150 -0.1744
 1072WAT     H2 5009   5.382   3.686   4.268 -1.9612 -0.2354  0.4541
 1072WAT    EPW 5010   5.411   3.617   4.294 -0.4160  0.1786 -0.0367
 1073WAT      O 5011   4.552   2.817   1.498 -0.4929 -0.1776  0.0583
 1073WAT     H1 5012   4.611   2.873   1.527  1.4874 -1.6159 -0.9457
 1073WAT     H2 5013   4.551   2.831   1.412 -2.4345  0.5159  0.1482
 1073WAT    EPW 5014   4.561   2.827   1.489 -0.4872 -0.2876 -0.0767
 1074WAT      O 5015   2.065   3.889   6.501 -0.2341 -1.0750 -0.1184
 1074WAT     H1 5016   2.068   3.803   6.490 -3.0723 -1.3314  0.3371
 1074WAT     H2 5017   2.002   3.915   6.446 -0.6194  0.4319  0.9648
 1074WAT    EPW 5018   2.056   3.880   6.491 -0.7102 -0.8903  0.1089
 1075WAT      O 5019   2.063   7.394   1.794 -0.2668 -0.4195  0.0116
 1075WAT     H1 5020   2.137   7.436   1.815  1.2086 -0.0157 -4.7216
 1075WAT     H2 5021   2.004   7.458   1.790  0.1094 -0.0640  0.0875
 1075WAT    EPW 5022   2.065   7.410   1.796  0.0067 -0.3073 -0.6764
 1076WAT      O 5023   6.700   5.184   4.944  0.7505 -0.0043 -0.5267
 1076WAT     H1 5024   6.758   5.249   4.941  1.0123 -0.2768 -1.7527
 1076WAT     H2 5025   6.623   5.225   4.949  0.8408  0.4685 -2.2884
 1076WAT    EPW 5026   6.697   5.199   4.944  0.8025  0.0253 -0.9680
 1077WAT      O 5027   3.659   5.258   5.562  0.9198  0.4167  0.3430
 1077WAT     H1 5028   3.618   5.313   5.507  0.3013  0.5273  0.9085
 1077WAT     H2 5029   3.739   5.251   5.527  0.2409 -0.3298 -1.1458
 1077WAT    EPW 5030   3.665   5.265   5.549  0.7282  0.3228  0.2066
 1078WAT      O 5031   7.062   7.227   4.752  0.5649 -0.1532 -0.7510
 1078WAT     H1 5032   7.006   7.291   4.730 -0.5240  0.0431  2.1109
 1078WAT     H2 5033   7.017   7.154   4.737 -0.2070 -0.0193  0.7048
 1078WAT    EPW 5034   7.047   7.226   4.746  0.2900 -0.1044 -0.1132
 1079WAT      O 5035   1.212   6.755   5.196  0.7583 -0.6587 -0.1420
 1079WAT     H1 5036   1.281   6.702   5.190  3.2110  1.7020  3.3457
 1079WAT     H2 5037   1.239   6.828   5.158 -1.4330 -0.7430 -2.1354
 1079WAT    EPW 5038   1.226   6.758   5.190  0.7969 -0.3225  0.0788
 1080WAT      O 5039   5.291   3.967   5.183  0.5753  0.3337 -0.0601
 1080WAT     H1 5040   5.298   3.931   5.262 -0.0485  0.5022  0.0815
 1080WAT     H2 5041   5.316   4.050   5.196 -3.3162  1.6164  0.9734
 1080WAT    EPW 5042   5.295   3.974   5.197 -0.0917  0.5481  0.1134
 1081WAT      O 5043   5.810   5.145   6.759 -0.3319 -0.1771  0.2848
 1081WAT     H1 5044   5.869   5.163   6.821  0.2428 -0.5275 -0.1521
 1081WAT     H2 5045   5.859   5.120   6.691 -0.9717 -0.1561 -0.1911
 1081WAT    EPW 5046   5.826   5.144   6.758 -0.3415 -0.2258  0.1500
 1082WAT      O 5047   0.519   4.468   7.705 -0.4735  0.3787 -0.4208
 1082WAT     H1 5048   0.438   4.452   7.733  0.3276 -2.3202  0.7033
 1082WAT     H2 5049   0.509   4.480   7.619 -1.9183 -2.4554 -0.7975
 1082WAT    EPW 5050   0.505   4.467   7.697 -0.5686 -0.4386 -0.3104
 1083WAT      O 5051   5.222   0.769   4.323  0.2504  0.1607 -0.2885
 1083WAT     H1 5052   5.194   0.804   4.248  0.8854 -0.4886 -0.8451
 1083WAT     H2 5053   5.217   0.683   4.308  2.1258  0.0139 -0.2835
 1083WAT    EPW 5054   5.217   0.762   4.310  0.6212  0.0431 -0.3700
 1084WAT      O 5055   3.699   2.482   3.572  0.5090  0.2707 -0.2144
 1084WAT     H1 5056   3.695   2.537   3.639  0.0448 -0.7352  0.6339
 1084WAT     H2 5057   3.753   2.419   3.600  0.7651  0.1213 -1.0159
 1084WAT    EPW 5058   3.706   2.481   3.586  0.4782  0.1001 -0.2075
 1085WAT      O 5059   5.375   5.945   6.084 -0.0457 -0.9231 -0.4158
 1085WAT     H1 5060   5.300   5.959   6.126 -0.7346 -0.0933 -1.8441
 1085WAT     H2 5061   5.403   5.870   6.117 -0.2309 -0.0259  1.9335
 1085WAT    EPW 5062   5.368   5.936   6.095 -0.1748 -0.6680 -0.2798
 1086WAT      O 5063   7.457   1.319   4.654  0.1922 -0.3262  0.7066
 1086WAT     H1 5064   7.506   1.390   4.671 -1.0808  1.2710 -1.7066
 1086WAT     H2 5065   7.407   1.312   4.725  1.1590  0.4380  1.5121
 1086WAT    EPW 5066   7.457   1.328   4.667  0.1470  0.0226  0.4691
 1087WAT      O 5067   5.423   0.272   1.727 -0.2105  0.2419  0.2589
 1087WAT     H1 5068   5.394   0.337   1.778  1.8803  1.1557  0.3742
 1087WAT     H2 5069   5.506   0.264   1.749  0.4528 -0.1916 -2.1075
 1087WAT    EPW 5070   5.431   0.281   1.737  0.1964  0.3129 -0.0736
 1088WAT      O 5071   5.377   6.891   7.558  0.1643 -0.2704 -0.2958
 1088WAT     H1 5072   5.309   6.921   7.603 -0.0913 -0.7003 -0.3869
 1088WAT     H2 5073   5.344   6.875   7.478  0.4974  0.0257 -0.4966
 1088WAT    EPW 5074   5.362   6.893   7.552  0.1757 -0.2902 -0.3389
 1089WAT      O 5075   3.327   2.443   1.386 -0.1219 -0.1058 -0.5414
 1089WAT     H1 5076   3.345   2.468   1.468 -0.4623  2.1278 -1.0813
 1089WAT     H2 5077   3.348   2.358   1.386  2.2962  0.3676  1.1515
 1089WAT    EPW 5078   3.333   2.434   1.398  0.1850  0.2941 -0.3711
 1090WAT      O 5079   6.786   7.608   0.526  0.1785 -0.2474 -0.2826
 1090WAT     H1 5080   6.714   7.657   0.531  0.3209 -0.1905  1.9493
 1090WAT     H2 5081   6.847   7.665   0.500 -0.4091 -0.1639 -1.5739
 1090WAT    EPW 5082   6.785   7.624   0.523  0.1127 -0.2266 -0.1436
 1091WAT      O 5083   5.363   4.886   5.056 -0.1488 -0.9045 -0.1400
 1091WAT     H1 5084   5.426   4.849   5.103  1.1905 -0.3557 -1.4130
 1091WAT     H2 5085   5.290   4.867   5.100  1.0186 -0.3580  2.1573
 1091WAT    EPW 5086   5.362   4.878   5.069  0.2215 -0.7427  0.0113
 1092WAT      O 5087   5.669   0.221   0.084  0.4576 -0.3744  0.0077
 1092WAT     H1 5088   5.646   0.302   0.108 -0.8954 -0.4798 -0.7893
 1092WAT     H2 5089   5.718   0.193   0.150  0.6868  0.9878  0.4410
 1092WAT    EPW 5090   5.673   0.228   0.098  0.2916 -0.1888 -0.0460
 1093WAT      O 5091   0.972   6.203   4.521 -0.2926 -0.0039 -0.0987
 1093WAT     H1 5092   1.040   6.166   4.561 -1.9596 -2.7850  0.3750
 1093WAT     H2 5093   0.955   6.148   4.456 -2.4648  0.3036  0.1610
 1093WAT    EPW 5094   0.980   6.190   4.517 -0.8598 -0.3693  0.0097
 1094WAT      O 5095   1.879   3.309   6.507  0.0561  0.3777  0.5990
 1094WAT     H1 5096   1.956   3.341   6.482  0.0001 -1.2695 -2.0122
 1094WAT     H2 5097   1.828   3.380   6.510  0.4454  0.9422 -2.7977
 1094WAT    EPW 5098   1.883   3.324   6.504  0.1053  0.2178 -0.2885
 1095WAT      O 5099   3.165   0.107   5.265  0.2198  0.6378  0.3148
 1095WAT     H1 5100   3.090   0.109   5.309 -0.1948  0.3247 -0.3499
 1095WAT     H2 5101   3.144   0.063   5.192  1.1265  0.2626  0.2652
 1095WAT    EPW 5102   3.151   0.101   5.261  0.2925  0.5362  0.2093
 1096WAT      O 5103   5.940   7.686   5.403 -0.5927  0.4341 -0.2636
 1096WAT     H1 5104   5.854   7.696   5.393 -0.3383  2.2274 -1.0086
 1096WAT     H2 5105   5.959   7.734   5.473 -0.4160 -1.4240  1.0291
 1096WAT    EPW 5106   5.930   7.695   5.412 -0.5290  0.4245 -0.1827
 1097WAT      O 5107   5.937   6.340   6.669  0.3678 -0.1295  0.2186
 1097WAT     H1 5108   5.902   6.420   6.668 -2.0020 -1.0774 -1.4809
 1097WAT     H2 5109   6.013   6.350   6.628 -0.7113  0.9842 -1.6021
 1097WAT    EPW 5110   5.943   6.353   6.663 -0.1417 -0.1050 -0.3014
 1098WAT      O 5111   3.696   7.663   3.721 -0.0890 -0.8664 -0.0012
 1098WAT     H1 5112   3.686   7.737   3.676  0.2685 -0.2063  0.9872
 1098WAT     H2 5113   3.615   7.645   3.749 -0.2035 -0.9431 -0.3717
 1098WAT    EPW 5114   3.682   7.671   3.718 -0.0531 -0.7802  0.0901
 1099WAT      O 5115   4.905   6.352   3.102 -0.1192 -0.1108 -0.0386
 1099WAT     H1 5116   4.943   6.277   3.079 -0.2556  0.2938 -1.7439
 1099WAT     H2 5117   4.970   6.410   3.102 -0.3613  0.1726 -0.8626
 1099WAT    EPW 5118   4.920   6.349   3.098 -0.1751 -0.0092 -0.4123
 1100WAT      O 5119   1.377   6.648   1.300 -0.1784  0.3216  0.4216
 1100WAT     H1 5120   1.385   6.623   1.384  2.0542  0.5963  0.3449
 1100WAT     H2 5121   1.370   6.735   1.306  0.0932  0.3511  0.3322
 1100WAT    EPW 5122   1.377   6.657   1.314  0.1915  0.3665  0.3971
 1101WAT      O 5123   0.956   0.793   0.208 -0.6553  0.4926 -0.3577
 1101WAT     H1 5124   0.893   0.736   0.187  0.9297 -1.0383 -1.2148
 1101WAT     H2 5125   0.958   0.790   0.295 -1.6998  0.5415 -0.3146
 1101WAT    EPW 5126   0.947   0.784   0.218 -0.5754  0.2737 -0.4779
 1102WAT      O 5127   5.416   6.192   1.092  0.3744  0.2315 -0.0844
 1102WAT     H1 5128   5.347   6.141   1.108  0.6765  0.3386  1.7178
 1102WAT     H2 5129   5.484   6.137   1.094  0.5299  0.4285  0.0886
 1102WAT    EPW 5130   5.416   6.177   1.095  0.4420  0.2765  0.2073
 1103WAT      O 5131   1.701   2.575   0.809  0.0869 -0.3217 -0.0969
 1103WAT     H1 5132   1.683   2.610   0.887  0.2939  0.0636 -0.2225
 1103WAT     H2 5133   1.785   2.591   0.797  0.2041 -0.9230 -0.1304
 1103WAT    EPW 5134   1.711   2.582   0.819  0.1348 -0.3536 -0.1204
 1104WAT      O 5135   3.896   2.560   1.853 -0.1826 -0.3105  0.0557
 1104WAT     H1 5136   3.940   2.631   1.828 -1.2636  0.3287 -0.1294
 1104WAT     H2 5137   3.955   2.496   1.848  0.6991  0.4972 -0.2130
 1104WAT    EPW 5138   3.911   2.561   1.849 -0.2121 -0.0968 -0.0113
 1105WAT      O 5139   5.320   2.388   1.368 -0.6347 -0.8534  0.3058
 1105WAT     H1 5140   5.398   2.351   1.377 -0.5682 -0.7330  0.2253
 1105WAT     H2 5141   5.338   2.473   1.357 -0.8508 -0.5106  2.2203
 1105WAT    EPW 5142   5.334   2.395   1.367 -0.6568 -0.7849  0.5767
 1106WAT      O 5143   1.311   7.547   0.939 -0.5699  0.6201  0.1607
 1106WAT     H1 5144   1.370   7.578   0.995  0.3935 -0.7557 -0.0171
 1106WAT     H2 5145   1.272   7.483   0.984 -3.3572  2.6774  0.9562
 1106WAT    EPW 5146   1.314   7.542   0.954 -0.8393  0.7208  0.2519
 1107WAT      O 5147   7.422   6.807   3.953 -0.3886  0.3460  0.1601
 1107WAT     H1 5148   7.345   6.844   3.970 -0.3045  0.4166  0.3881
 1107WAT     H2 5149   7.463   6.867   3.904 -0.1644  0.6542  0.7171
 1107WAT    EPW 5150   7.416   6.822   3.948 -0.3430  0.4019  0.2761
 1108WAT      O 5151   6.137   5.929   2.872 -0.4849  0.8106 -0.6565
 1108WAT     H1 5152   6.059   5.921   2.911 -0.4401 -0.7196 -0.8050
 1108WAT     H2 5153   6.186   5.967   2.933 -1.2789  1.5463 -0.4598
 1108WAT    EPW 5154   6.133   5.933   2.887 -0.5956  0.6932 -0.6494
 1109WAT      O 5155   6.794   4.871   6.969 -0.0690  0.0961 -0.1952
 1109WAT     H1 5156   6.781   4.846   6.886  0.7303  0.6877 -0.5156
 1109WAT     H2 5157   6.862   4.822   6.994  0.2278  0.5157 -0.1734
 1109WAT    EPW 5158   6.802   4.860   6.960  0.0929  0.2455 -0.2393
 1110WAT      O 5159   6.726   7.381   3.532 -0.1661  0.6278 -0.3092
 1110WAT     H1 5160   6.797   7.332   3.520  0.0394  0.7792  0.2652
 1110WAT     H2 5161   6.752   7.442   3.589 -1.2186 -0.3481  1.3068
 1110WAT    EPW 5162   6.740   7.383   3.539 -0.2912  0.5060  0.0143
 1111WAT      O 5163   5.283   5.180   0.188  0.7446  0.6827 -0.5737
 1111WAT     H1 5164   5.271   5.200   0.273  2.0196  2.4279 -0.7435
 1111WAT     H2 5165   5.251   5.250   0.147 -1.2608 -0.7804 -1.6773
 1111WAT    EPW 5166   5.276   5.193   0.195  0.6367  0.7244 -0.7618
 1112WAT      O 5167   5.576   6.320   4.489 -0.1599 -0.3284 -0.1619
 1112WAT     H1 5168   5.585   6.365   4.415  0.5291  1.6842  1.0497
 1112WAT     H2 5169   5.643   6.348   4.538 -1.6746 -0.0641  1.9211
 1112WAT    EPW 5170   5.587   6.331   4.485 -0.2819  0.0079  0.3248
 1113WAT      O 5171   4.690   7.122   7.418  0.1263 -0.2073 -0.0478
 1113WAT     H1 5172   4.655   7.197   7.446  0.6659 -1.1369  3.5202
 1113WAT     H2 5173   4.757   7.148   7.369 -1.7976  1.5591 -1.9629
 1113WAT    EPW 5174   4.694   7.137   7.415 -0.0782 -0.0837  0.1964
 1114WAT      O 5175   4.739   6.295   2.228 -0.2663 -0.0226  0.0839
 1114WAT     H1 5176   4.670   6.290   2.176  0.0300  0.7566 -0.3910
 1114WAT     H2 5177   4.762   6.379   2.225 -1.1516  0.4006  2.6658
 1114WAT    EPW 5178   4.732   6.306   2.220 -0.3533  0.1551  0.3951
 1115WAT      O 5179   5.299   3.853   4.263 -0.7321 -0.2308  0.0257
 1115WAT     H1 5180   5.333   3.932   4.278 -0.4792 -0.0739 -1.2175
 1115WAT     H2 5181   5.215   3.870   4.247 -0.5572 -0.1123 -0.8481
 1115WAT    EPW 5182   5.292   3.867   4.263 -0.6689 -0.1901 -0.2870
 1116WAT      O 5183   5.317   6.483   2.447  0.0206 -0.3148  0.1671
 1116WAT     H1 5184   5.366   6.499   2.377  2.0278  1.2842  1.8070
 1116WAT     H2 5185   5.351   6.409   2.479 -1.5663 -1.6270 -1.0089
 1116WAT    EPW 5186   5.330   6.474   2.442  0.0827 -0.2724  0.2356
 1117WAT      O 5187   1.078   6.521   4.688 -0.3069  0.3769 -0.0988
 1117WAT     H1 5188   1.033   6.546   4.617  0.3953  1.2224 -0.2738
 1117WAT     H2 5189   1.149   6.572   4.685 -0.4353  0.6676  1.4102
 1117WAT    EPW 5190   1.082   6.532   4.677 -0.2222  0.5448  0.0983
 1118WAT      O 5191   4.921   0.764   4.174  0.2172  0.0505  0.2123
 1118WAT     H1 5192   4.932   0.694   4.123  0.5616  1.0180 -1.1041
 1118WAT     H2 5193   4.986   0.817   4.150  0.3094  0.5946  1.5911
 1118WAT    EPW 5194   4.932   0.762   4.163  0.2817  0.2738  0.2215
 1119WAT      O 5195   3.774   0.407   4.774  0.3270 -0.2163 -0.1005
 1119WAT     H1 5196   3.814   0.466   4.723  1.4830 -0.5991  0.3384
 1119WAT     H2 5197   3.813   0.332   4.753 -0.7144 -0.7411 -0.2155
 1119WAT    EPW 5198   3.786   0.405   4.763  0.3439 -0.3503 -0.0526
 1120WAT      O 5199   4.208   5.885   2.883 -0.1074  0.3760 -0.0418
 1120WAT     H1 5200   4.180   5.854   2.806 -1.8396  0.9775  0.3002
 1120WAT     H2 5201   4.268   5.943   2.861  0.7291 -0.7394 -0.8454
 1120WAT    EPW 5202   4.212   5.889   2.868 -0.2397  0.3001 -0.1100
 1121WAT      O 5203   4.919   2.554   2.408  0.2122  0.1658 -0.3727
 1121WAT     H1 5204   4.980   2.521   2.461  2.0034  0.0439 -2.3852
 1121WAT     H2 5205   4.928   2.640   2.417  2.1816  0.2084 -2.1493
 1121WAT    EPW 5206   4.929   2.562   2.417  0.7677  0.1541 -0.9325
 1122WAT      O 5207   4.917   4.150   2.697 -0.1763 -0.7583 -0.0738
 1122WAT     H1 5208   4.858   4.192   2.747  0.8322  0.0813  0.4714
 1122WAT     H2 5209   4.926   4.073   2.736  0.0607 -0.3796  0.6536
 1122WAT    EPW 5210   4.910   4.145   2.710  0.0077 -0.5783  0.1142
 1123WAT      O 5211   6.458   3.595   7.652  0.0177  0.0039 -0.1552
 1123WAT     H1 5212   6.413   3.645   7.597 -0.8393  0.1763  0.6740
 1123WAT     H2 5213   6.398   3.571   7.711  0.6416 -1.1440  0.0464
 1123WAT    EPW 5214   6.442   3.599   7.652 -0.0167 -0.1402 -0.0029
 1124WAT      O 5215   7.377   3.722   5.332 -0.3244 -0.3383  0.3438
 1124WAT     H1 5216   7.432   3.654   5.342 -0.3985 -0.2712  1.2518
 1124WAT     H2 5217   7.337   3.728   5.409 -0.8506  0.2837  0.0306
 1124WAT    EPW 5218   7.379   3.713   5.345 -0.4131 -0.2365  0.4316
 1125WAT      O 5219   5.230   3.638   2.032  0.3134  0.8292 -0.1514
 1125WAT     H1 5220   5.188   3.693   1.980 -0.5657 -0.0715 -0.4187
 1125WAT     H2 5221   5.186   3.643   2.108 -1.3136 -1.2016 -0.8482
 1125WAT    EPW 5222   5.217   3.647   2.036 -0.0568  0.3962 -0.2938
 1126WAT      O 5223   6.510   7.360   1.142  0.0304 -0.0117  0.4558
 1126WAT     H1 5224   6.523   7.276   1.163  0.7046 -0.5075 -1.6831
 1126WAT     H2 5225   6.453   7.356   1.076 -1.4302  1.3835  1.5494
 1126WAT    EPW 5226   6.504   7.347   1.136 -0.0858  0.1212  0.3013
 1127WAT      O 5227   3.690   5.935   7.441 -0.4368 -0.3260  0.7034
 1127WAT     H1 5228   3.759   5.913   7.490  0.3729  2.1675  0.8005
 1127WAT     H2 5229   3.624   5.891   7.478  0.9055 -2.0568  1.1597
 1127WAT    EPW 5230   3.690   5.925   7.454 -0.1189 -0.2133  0.7851
 1128WAT      O 5231   1.956   3.524   7.409 -0.2790  0.6045  0.3566
 1128WAT     H1 5232   1.962   3.563   7.331  0.6947 -0.3710 -0.0783
 1128WAT     H2 5233   1.879   3.483   7.405  0.4858 -0.8158 -0.7834
 1128WAT    EPW 5234   1.946   3.523   7.397 -0.0222  0.2506  0.1239
 1129WAT      O 5235   5.389   1.037   4.063 -0.1982 -0.2861  0.0513
 1129WAT     H1 5236   5.400   1.082   3.990 -0.2776  0.0021  0.2141
 1129WAT     H2 5237   5.470   1.020   4.090 -0.1700 -0.5131 -0.1763
 1129WAT    EPW 5238   5.403   1.041   4.056 -0.2058 -0.2771  0.0417
 1130WAT      O 5239   6.036   1.660   5.666  1.0496 -0.5554  0.1236
 1130WAT     H1 5240   6.047   1.703   5.741  1.8371 -0.7354  0.1243
 1130WAT     H2 5241   6.097   1.598   5.670  0.2745 -1.3402 -0.1170
 1130WAT    EPW 5242   6.047   1.658   5.678  1.0515 -0.6979  0.0882
 1131WAT      O 5243   5.979   0.733   2.845 -0.4306 -0.1118 -0.4628
 1131WAT     H1 5244   5.905   0.703   2.882 -1.9167  0.6090 -2.6652
 1131WAT     H2 5245   6.011   0.663   2.804 -1.3378  0.1416 -1.6551
 1131WAT    EPW 5246   5.973   0.718   2.845 -0.7842  0.0321 -0.9643
 1132WAT      O 5247   3.592   7.431   1.484  0.1350 -0.0492  0.2060
 1132WAT     H1 5248   3.514   7.409   1.450  0.0218 -0.7439  0.8792
 1132WAT     H2 5249   3.590   7.395   1.563  2.1639 -2.3801 -0.6845
 1132WAT    EPW 5250   3.580   7.422   1.491  0.4180 -0.4961  0.1739
 1133WAT      O 5251   4.926   4.722   6.669  0.1510 -0.2509 -0.2659
 1133WAT     H1 5252   5.006   4.702   6.697  0.7233  1.6298 -0.3921
 1133WAT     H2 5253   4.883   4.743   6.742  0.6323  1.3833 -0.4131
 1133WAT    EPW 5254   4.932   4.722   6.684  0.3066  0.2683 -0.3063
 1134WAT      O 5255   3.758   0.792   5.026 -0.0029 -0.1148  0.1134
 1134WAT     H1 5256   3.725   0.766   5.103 -1.3514 -1.6820 -0.9052
 1134WAT     H2 5257   3.842   0.769   5.031 -0.4560 -1.8641  0.5069
 1134WAT    EPW 5258   3.765   0.785   5.038 -0.2690 -0.6047  0.0211
 1135WAT      O 5259   2.746   0.760   5.947  0.5919  0.4448 -0.0194
 1135WAT     H1 5260   2.699   0.688   5.931 -0.2028  1.0061 -0.2918
 1135WAT     H2 5261   2.805   0.733   6.005 -1.5630  0.2476  2.2235
 1135WAT    EPW 5262   2.747   0.745   5.953  0.1562  0.4985  0.2717
 1136WAT      O 5263   0.731   7.679   0.187 -0.0067  0.5120 -0.2155
 1136WAT     H1 5264   0.651   7.710   0.205 -0.6785 -1.1457 -0.1406
 1136WAT     H2 5265   0.777   7.700   0.258 -0.8073  0.0984  0.4443
 1136WAT    EPW 5266   0.726   7.687   0.200 -0.2242  0.2060 -0.1070
 1137WAT      O 5267   5.096   5.645   7.862 -0.4032 -0.2407  0.3274
 1137WAT     H1 5268   5.083   5.582   7.803  0.3586 -0.6567  0.5971
 1137WAT     H2 5269   5.085   5.604   7.938 -3.3451  0.6826  0.5544
 1137WAT    EPW 5270   5.092   5.630   7.865 -0.7252 -0.1658  0.4008
 1138WAT      O 5271   4.524   4.228   7.394 -0.4148 -0.1475 -0.0447
 1138WAT     H1 5272   4.508   4.271   7.469 -0.5187 -0.5555  0.1737
 1138WAT     H2 5273   4.587   4.275   7.356  3.0174 -2.2905  2.4038
 1138WAT    EPW 5274   4.531   4.241   7.400  0.0769 -0.5243  0.3493
 1139WAT      O 5275   3.956   0.577   2.120  0.2895 -0.2563  0.0665
 1139WAT     H1 5276   3.961   0.527   2.191 -0.4422 -3.5917 -2.0103
 1139WAT     H2 5277   4.038   0.607   2.110  0.6792 -0.7507  1.5966
 1139WAT    EPW 5278   3.969   0.574   2.129  0.2390 -0.8220 -0.0142
 1140WAT      O 5279   6.333   4.645   0.517 -0.0736  0.2480  0.1533
 1140WAT     H1 5280   6.256   4.681   0.535 -0.1761 -0.7177  1.7898
 1140WAT     H2 5281   6.391   4.702   0.547 -0.2111 -0.2171  1.3316
 1140WAT    EPW 5282   6.331   4.659   0.524 -0.1090  0.0367  0.5691
 1141WAT      O 5283   4.026   0.268   2.833  0.7062  0.4885  0.2435
 1141WAT     H1 5284   4.107   0.284   2.806  2.0035 -0.9376  2.9055
 1141WAT     H2 5285   4.020   0.315   2.907 -1.2067  1.1412 -0.2611
 1141WAT    EPW 5286   4.037   0.278   2.840  0.6152  0.3743  0.5622
 1142WAT      O 5287   5.715   2.882   4.569 -0.1569 -0.1292 -0.3619
 1142WAT     H1 5288   5.792   2.912   4.598  0.3953 -0.9003 -0.9603
 1142WAT     H2 5289   5.657   2.929   4.613  0.6509 -0.0914  0.7290
 1142WAT    EPW 5290   5.718   2.893   4.580  0.0440 -0.2375 -0.2891
 1143WAT      O 5291   5.176   6.695   0.403 -0.0867  0.4341 -0.1907
 1143WAT     H1 5292   5.222   6.622   0.411 -0.1328  0.4897  0.7343
 1143WAT     H2 5293   5.212   6.748   0.463 -0.8866  0.7184  0.0493
 1143WAT    EPW 5294   5.188   6.692   0.413 -0.2117  0.4843 -0.0186
 1144WAT      O 5295   4.185   7.663   1.203  0.0516  0.1449 -0.4115
 1144WAT     H1 5296   4.189   7.693   1.121 -1.9877  0.4687 -0.4443
 1144WAT     H2 5297   4.180   7.735   1.251  1.6973 -0.0255  0.0959
 1144WAT    EPW 5298   4.185   7.678   1.198 -0.0066  0.1675 -0.3414
 1145WAT      O 5299   5.432   6.459   1.210 -0.2788 -0.0042  0.3018
 1145WAT     H1 5300   5.431   6.377   1.181  2.8890  0.0451 -0.2882
 1145WAT     H2 5301   5.376   6.501   1.157  0.2909 -1.2376 -1.3387
 1145WAT    EPW 5302   5.423   6.453   1.198  0.2733 -0.1791 -0.0277
 1146WAT      O 5303   5.563   0.912   0.346 -0.3484  0.1487  0.1234
 1146WAT     H1 5304   5.494   0.897   0.295  0.5379 -0.2063 -1.0039
 1146WAT     H2 5305   5.578   0.998   0.335  0.4515 -0.1121 -1.0587
 1146WAT    EPW 5306   5.555   0.923   0.337 -0.0993  0.0577 -0.2178
 1147WAT      O 5307   5.467   1.026   4.502  0.3792  0.1476  0.0952
 1147WAT     H1 5308   5.462   1.083   4.436  0.1965 -0.0990 -0.1048
 1147WAT     H2 5309   5.432   1.070   4.570 -0.9818 -0.1781 -0.3660
 1147WAT    EPW 5310   5.461   1.041   4.503  0.1512  0.0631 -0.0025
 1148WAT      O 5311   5.056   6.571   3.138 -0.5438  0.3469  0.1465
 1148WAT     H1 5312   5.121   6.569   3.079 -0.7711 -1.0419 -0.0868
 1148WAT     H2 5313   5.098   6.568   3.214 -0.2371  2.3679  0.1070
 1148WAT    EPW 5314   5.072   6.570   3.140 -0.5320  0.4403  0.1062
 1149WAT      O 5315   7.664   6.310   5.747 -0.1866  0.0567  0.5591
 1149WAT     H1 5316   7.636   6.358   5.815 -0.5893 -0.9722  1.1485
 1149WAT     H2 5317   7.646   6.360   5.678 -0.5894  0.7609  1.1570
 1149WAT    EPW 5318   7.657   6.324   5.747 -0.3056  0.0087  0.7345
 1150WAT      O 5319   6.010   3.973   3.628  0.4150  0.9369 -0.0138
 1150WAT     H1 5320   6.054   3.908   3.589 -0.0992 -0.4185  1.5515
 1150WAT     H2 5321   5.926   3.951   3.615  0.2258  0.4538  1.7214
 1150WAT    EPW 5322   6.004   3.960   3.620  0.3111  0.6653  0.4737
 1151WAT      O 5323   3.220   7.244   3.938  0.3903  0.3362  0.3615
 1151WAT     H1 5324   3.146   7.228   3.981 -1.0315  1.1986 -1.6210
 1151WAT     H2 5325   3.253   7.165   3.923 -0.3181 -0.0864  0.9494
 1151WAT    EPW 5326   3.214   7.230   3.942  0.0757  0.4012  0.1555
 1152WAT      O 5327   2.031   6.713   2.110 -0.7255  0.1641 -0.2659
 1152WAT     H1 5328   2.074   6.681   2.042 -1.6533 -0.1082 -0.7362
 1152WAT     H2 5329   1.964   6.659   2.120 -1.1469  0.7659  0.2476
 1152WAT    EPW 5330   2.028   6.701   2.101 -0.9248  0.2128 -0.2595
 1153WAT      O 5331   4.301   7.453   6.314 -0.0148  0.6041 -0.3055
 1153WAT     H1 5332   4.286   7.525   6.267 -1.8598 -0.6946 -1.8153
 1153WAT     H2 5333   4.245   7.460   6.380 -0.9929  0.0445 -1.0611
 1153WAT    EPW 5334   4.291   7.465   6.317 -0.4318  0.3296 -0.6402
 1154WAT      O 5335   5.126   4.297   6.134  0.1439 -0.4776  0.4146
 1154WAT     H1 5336   5.136   4.246   6.205 -1.4096 -0.2733  0.8152
 1154WAT     H2 5337   5.071   4.359   6.161  1.3813  0.9981 -0.3093
 1154WAT    EPW 5338   5.119   4.298   6.149  0.0972 -0.2294  0.3669
 1155WAT      O 5339   3.962   2.733   4.989  0.5456 -0.4174 -0.3535
 1155WAT     H1 5340   3.885   2.772   4.974  0.9740  0.1694 -1.0634
 1155WAT     H2 5341   3.984   2.701   4.910  1.2602 -0.1546 -0.2648
 1155WAT    EPW 5342   3.954   2.734   4.975  0.7145 -0.2919 -0.4453
 1156WAT      O 5343   5.654   5.777   4.668  0.2710  0.4198  0.2907
 1156WAT     H1 5344   5.623   5.816   4.596 -1.0678  1.1725  1.2332
 1156WAT     H2 5345   5.612   5.816   4.733  0.3328 -1.2531  1.4212
 1156WAT    EPW 5346   5.643   5.788   4.667  0.0823  0.2839  0.5969
 1157WAT      O 5347   4.188   0.781   3.361  0.7201  0.5099  0.5775
 1157WAT     H1 5348   4.261   0.759   3.402 -0.0393 -1.6070  0.9304
 1157WAT     H2 5349   4.127   0.776   3.423 -0.1916 -1.0576 -0.3923
 1157WAT    EPW 5350   4.189   0.777   3.376  0.4733 -0.0344  0.4864
 1158WAT      O 5351   5.300   4.850   3.529  0.4262 -0.2440  0.0953
 1158WAT     H1 5352   5.362   4.893   3.574  0.1504  0.5111 -0.2199
 1158WAT     H2 5353   5.292   4.775   3.572  0.8187  0.0856  0.7708
 1158WAT    EPW 5354   5.308   4.845   3.542  0.4434 -0.0838  0.1485
 1159WAT      O 5355   3.779   5.031   1.579 -0.3667 -0.1169  0.2908
 1159WAT     H1 5356   3.819   5.108   1.572 -2.3963  0.9673  0.0501
 1159WAT     H2 5357   3.740   5.021   1.501  0.4909 -1.7887  0.0265
 1159WAT    EPW 5358   3.779   5.041   1.566 -0.5398 -0.2037  0.2162
 1160WAT      O 5359   6.242   7.320   0.231  0.9691  0.3853 -0.0470
 1160WAT     H1 5360   6.236   7.396   0.189 -0.3788 -0.2598 -1.0854
 1160WAT     H2 5361   6.197   7.265   0.181  0.5280 -0.7425  1.5200
 1160WAT    EPW 5362   6.235   7.323   0.217  0.7048  0.1234  0.0311
 1161WAT      O 5363   2.509   6.661   3.503 -0.4836 -0.6100 -0.2986
 1161WAT     H1 5364   2.487   6.602   3.442 -3.0578  0.7184 -0.8228
 1161WAT     H2 5365   2.474   6.735   3.473  1.1844  0.8589  1.1439
 1161WAT    EPW 5366   2.501   6.663   3.489 -0.6174 -0.1968 -0.1630
 1162WAT      O 5367   4.612   3.557   6.982  0.0982  0.0704 -0.4374
 1162WAT     H1 5368   4.587   3.637   6.959  0.8682  0.8686  1.3149
 1162WAT     H2 5369   4.665   3.533   6.918 -0.0022  1.0290 -0.8963
 1162WAT    EPW 5370   4.616   3.565   6.969  0.1971  0.3299 -0.2464
 1163WAT      O 5371   4.142   3.394   1.176  0.9441  0.1900 -0.1460
 1163WAT     H1 5372   4.192   3.323   1.172 -0.3378 -0.7129 -2.5991
 1163WAT     H2 5373   4.156   3.433   1.099 -1.3225  0.3850 -0.5380
 1163WAT    EPW 5374   4.151   3.389   1.164  0.4199  0.0854 -0.5662
 1164WAT      O 5375   5.651   0.002   5.436  0.0517  0.7075  0.5998
 1164WAT     H1 5376   5.641   0.089   5.441  1.9983  0.9225  1.9595
 1164WAT     H2 5377   5.627  -0.026   5.515  1.5813  0.3127  0.9591
 1164WAT    EPW 5378   5.646   0.011   5.448  0.5652  0.6809  0.8537
 1165WAT      O 5379   4.904   6.106   2.671  0.0238 -0.1279  0.4787
 1165WAT     H1 5380   4.855   6.035   2.658 -1.9191  1.3122 -0.5764
 1165WAT     H2 5381   4.936   6.124   2.592 -0.8794  1.0776  0.3571
 1165WAT    EPW 5382   4.902   6.098   2.658 -0.3966  0.2629  0.3049
 1166WAT      O 5383   5.026   3.229   6.089 -0.3796  0.5278  0.3610
 1166WAT     H1 5384   5.110   3.206   6.092 -0.2905  0.3253 -1.9111
 1166WAT     H2 5385   4.983   3.153   6.097 -0.3295  0.4995  0.3575
 1166WAT    EPW 5386   5.032   3.214   6.091 -0.3590  0.4937  0.0249
 1167WAT      O 5387   6.516   3.016   3.394 -0.1825  0.4265  0.0691
 1167WAT     H1 5388   6.586   2.979   3.358 -0.0263 -0.3073  1.0860
 1167WAT     H2 5389   6.545   3.094   3.420  0.4693 -0.1436  1.1126
 1167WAT    EPW 5390   6.530   3.022   3.393 -0.0631  0.2339  0.3735
 1168WAT      O 5391   4.697   0.170   6.709 -0.0347 -0.2596 -0.5770
 1168WAT     H1 5392   4.738   0.124   6.648  1.6803 -1.1141  1.1244
 1168WAT     H2 5393   4.761   0.196   6.762 -1.3590  1.2173  0.3858
 1168WAT    EPW 5394   4.712   0.167   6.708  0.0230 -0.1677 -0.1834
 1169WAT      O 5395   2.586   7.019   0.477 -0.2959 -0.4124  0.0341
 1169WAT     H1 5396   2.645   7.021   0.541 -0.8602 -1.6901  0.6233
 1169WAT     H2 5397   2.596   6.939   0.443 -1.3204 -0.4566 -0.1961
 1169WAT    EPW 5398   2.596   7.007   0.481 -0.5306 -0.6077  0.0872
 1170WAT      O 5399   5.342   0.277   0.199  0.5547  0.3651  0.0875
 1170WAT     H1 5400   5.387   0.220   0.247  1.3522 -1.6192 -2.7239
 1170WAT     H2 5401   5.259   0.260   0.218  0.7187 -2.4942 -1.2371
 1170WAT    EPW 5402   5.336   0.266   0.209  0.6967 -0.3504 -0.5235
 1171WAT      O 5403   5.247   5.337   5.793  0.5143  0.0094  0.2030
 1171WAT     H1 5404   5.264   5.348   5.709  0.4403 -1.6943 -0.0824
 1171WAT     H2 5405   5.243   5.418   5.825  1.6079  0.6507 -1.2018
 1171WAT    EPW 5406   5.249   5.350   5.785  0.6649 -0.1475 -0.0467
 1172WAT      O 5407   6.640   2.180   3.987  0.0029  0.0919 -0.5592
 1172WAT     H1 5408   6.589   2.121   3.947 -0.5114  0.8929 -1.1110
 1172WAT     H2 5409   6.591   2.207   4.054  0.7129 -0.9669  0.4231
 1172WAT    EPW 5410   6.625   2.175   3.991  0.0318  0.0538 -0.4956
 1173WAT      O 5411   4.137   1.679   3.682 -0.4309 -0.1872  0.4358
 1173WAT     H1 5412   4.107   1.628   3.618  0.9205 -2.0174  1.1437
 1173WAT     H2 5413   4.207   1.717   3.648 -0.4492 -0.1529  0.4364
 1173WAT    EPW 5414   4.143   1.677   3.668 -0.2340 -0.4525  0.5405
 1174WAT      O 5415   4.908   3.939   3.396 -0.0218  0.2267 -0.4425
 1174WAT     H1 5416   4.913   4.023   3.417 -0.1951 -0.1157  1.0783
 1174WAT     H2 5417   4.828   3.915   3.423 -0.3354 -0.2360 -1.6817
 1174WAT    EPW 5418   4.897   3.948   3.403 -0.0937  0.1077 -0.4009
 1175WAT      O 5419   2.679   4.445   6.897 -0.0836 -0.6356 -0.1783
 1175WAT     H1 5420   2.701   4.371   6.858 -0.4375 -0.6714 -0.3111
 1175WAT     H2 5421   2.613   4.422   6.950 -1.3033 -0.1228 -1.4252
 1175WAT    EPW 5422   2.673   4.431   6.899 -0.3161 -0.5651 -0.3821
 1176WAT      O 5423   4.602   1.970   6.101 -0.0939  0.5332 -0.1549
 1176WAT     H1 5424   4.658   2.032   6.127 -1.3042  1.4433  0.3848
 1176WAT     H2 5425   4.537   2.016   6.065 -1.4143 -0.3593  0.9847
 1176WAT    EPW 5426   4.601   1.986   6.099 -0.4677  0.5358  0.0931
 1177WAT      O 5427   5.892   5.062   0.828  0.3793 -0.4768 -0.5765
 1177WAT     H1 5428   5.972   5.076   0.797  1.3126  0.0237  1.8351
 1177WAT     H2 5429   5.862   5.142   0.845  0.2898 -0.7266  0.5704
 1177WAT    EPW 5430   5.899   5.076   0.826  0.5039 -0.4398 -0.0508
 1178WAT      O 5431   2.238   3.217   6.111  0.1205 -0.0157 -0.1039
 1178WAT     H1 5432   2.199   3.204   6.034 -0.9840  0.6812  0.3126
 1178WAT     H2 5433   2.308   3.265   6.090  1.5098 -2.3152 -1.0088
 1178WAT    EPW 5434   2.243   3.222   6.097  0.1626 -0.2524 -0.1761
 1179WAT      O 5435   4.621   1.780   1.392 -0.2840  0.5569 -0.2297
 1179WAT     H1 5436   4.702   1.806   1.411  0.5453 -1.9238  0.0331
 1179WAT     H2 5437   4.596   1.834   1.328  2.3120  0.2871 -1.6066
 1179WAT    EPW 5438   4.629   1.792   1.385  0.2220  0.1506 -0.3943
 1180WAT      O 5439   3.239   4.107   6.007  0.1825 -0.3769  0.6384
 1180WAT     H1 5440   3.237   4.059   6.080  0.6822 -0.2567  0.7375
 1180WAT     H2 5441   3.312   4.080   5.967 -0.5930 -1.1552 -0.3148
 1180WAT    EPW 5442   3.250   4.096   6.012  0.1418 -0.4741  0.5123
 1181WAT      O 5443   5.721   0.495   1.350 -0.3046 -0.4387  0.2972
 1181WAT     H1 5444   5.796   0.519   1.315  0.7263 -2.1235  1.2136
 1181WAT     H2 5445   5.738   0.417   1.385 -2.0176 -0.1331  2.0011
 1181WAT    EPW 5446   5.734   0.487   1.350 -0.4054 -0.6424  0.6843
 1182WAT      O 5447   4.176   4.109   0.168 -0.2692 -0.1557  0.0693
 1182WAT     H1 5448   4.232   4.048   0.140 -0.9028 -0.6115 -0.2398
 1182WAT     H2 5449   4.147   4.145   0.094  0.6078  1.0068  0.2681
 1182WAT    EPW 5450   4.180   4.105   0.153 -0.2333 -0.0513  0.0530
 1183WAT      O 5451   3.423   4.725   2.156  0.2892 -0.0434  0.0329
 1183WAT     H1 5452   3.338   4.713   2.137  0.0350 -1.1372  1.6287
 1183WAT     H2 5453   3.440   4.660   2.211  2.3408 -0.1680 -0.6949
 1183WAT    EPW 5454   3.413   4.714   2.162  0.5547 -0.2234  0.1611
 1184WAT      O 5455   3.075   5.188   1.443 -0.2569 -0.2010  0.2230
 1184WAT     H1 5456   3.116   5.261   1.416 -1.7907  1.0124  1.0013
 1184WAT     H2 5457   3.094   5.186   1.528  2.2529 -2.4569 -0.2531
 1184WAT    EPW 5458   3.084   5.199   1.452 -0.1127 -0.3550  0.2676
 1185WAT      O 5459   5.167   4.982   3.085  0.6925  0.7184  0.4882
 1185WAT     H1 5460   5.135   4.969   3.165 -0.0860  2.7249  0.5603
 1185WAT     H2 5461   5.243   5.021   3.099  0.8718  0.4518  0.2573
 1185WAT    EPW 5462   5.173   4.986   3.099  0.6040  0.9754  0.4648
 1186WAT      O 5463   5.726   6.630   2.479 -0.0559 -0.4754  0.4335
 1186WAT     H1 5464   5.658   6.681   2.500 -0.8784 -1.5337  0.4205
 1186WAT     H2 5465   5.757   6.666   2.406 -1.2115 -0.5335 -0.1030
 1186WAT    EPW 5466   5.720   6.643   2.471 -0.3481 -0.6403  0.3523
 1187WAT      O 5467   4.344   4.522   0.829 -0.2982 -0.2277 -0.0331
 1187WAT     H1 5468   4.346   4.435   0.836  1.1492 -0.1952  0.2869
 1187WAT     H2 5469   4.412   4.539   0.777 -0.2693  0.7407  0.3119
 1187WAT    EPW 5470   4.354   4.512   0.822 -0.0802 -0.0798  0.0651
 1188WAT      O 5471   5.944   3.457   4.026 -0.3646 -0.0996  0.1602
 1188WAT     H1 5472   5.905   3.469   4.103  0.2048 -0.7660  0.5676
 1188WAT     H2 5473   6.019   3.501   4.034 -0.3610 -0.0638 -0.0608
 1188WAT    EPW 5474   5.950   3.465   4.039 -0.2799 -0.1928  0.1878
 1189WAT      O 5475   3.038   7.206   1.286 -0.4907  0.5969 -0.7557
 1189WAT     H1 5476   3.110   7.170   1.252  0.9679  0.4630  2.1817
 1189WAT     H2 5477   2.983   7.139   1.296  0.6775 -0.1705  0.9391
 1189WAT    EPW 5478   3.040   7.191   1.282 -0.1027  0.4638 -0.0714
 1190WAT      O 5479   5.845   5.567   4.363 -0.2145  0.1651 -0.3041
 1190WAT     H1 5480   5.902   5.525   4.313  1.1019  1.5937 -0.0832
 1190WAT     H2 5481   5.794   5.503   4.394 -0.6585 -0.8325 -2.8587
 1190WAT    EPW 5482   5.846   5.552   4.360 -0.0856  0.2288 -0.6488
 1191WAT      O 5483   6.796   0.917   0.307  0.2416 -0.5693 -0.4566
 1191WAT     H1 5484   6.789   1.003   0.297  0.3194 -0.2655  1.6539
 1191WAT     H2 5485   6.859   0.895   0.251  0.6588  0.8485 -0.5809
 1191WAT    EPW 5486   6.804   0.926   0.297  0.3147 -0.3150 -0.1632
 1192WAT      O 5487   1.700   4.401   6.269 -0.0170  0.1591 -0.4221
 1192WAT     H1 5488   1.659   4.476   6.290  0.7071  0.5078 -0.2212
 1192WAT     H2 5489   1.773   4.404   6.316  0.7180  0.0314 -1.5228
 1192WAT    EPW 5490   1.705   4.413   6.279  0.1985  0.1917 -0.5550
 1193WAT      O 5491   3.284   6.093   1.664 -0.2702 -0.7076 -0.0628
 1193WAT     H1 5492   3.322   6.172   1.666 -0.8569 -0.4229  0.5108
 1193WAT     H2 5493   3.295   6.067   1.582  0.5228 -0.3224 -0.0886
 1193WAT    EPW 5494   3.291   6.101   1.652 -0.2397 -0.6086  0.0181
 1194WAT      O 5495   4.256   5.388   0.804  0.3500  0.3019  0.3586
 1194WAT     H1 5496   4.249   5.338   0.875  0.2366 -0.3849 -0.1155
 1194WAT     H2 5497   4.197   5.450   0.815  0.9672  0.7369  1.2850
 1194WAT    EPW 5498   4.246   5.390   0.816  0.4245  0.2647  0.4254
 1195WAT      O 5499   4.000   7.246   6.343 -0.0623  0.1018 -0.6238
 1195WAT     H1 5500   3.961   7.300   6.286  0.7940 -0.0022 -1.3323
 1195WAT     H2 5501   4.076   7.227   6.304 -0.2804 -1.5212 -0.3355
 1195WAT    EPW 5502   4.006   7.251   6.329  0.0320 -0.1533 -0.6858
 1196WAT      O 5503   2.271   5.275   2.333 -0.2752 -0.0226  0.1291
 1196WAT     H1 5504   2.356   5.267   2.317  0.1456  1.1209  1.6026
 1196WAT     H2 5505   2.240   5.308   2.259  0.2435 -1.9023 -1.0052
 1196WAT    EPW 5506   2.279   5.279   2.320 -0.1364 -0.1314  0.1792
 1197WAT      O 5507   1.994   2.228   0.599  0.4601  0.2804 -0.4651
 1197WAT     H1 5508   2.019   2.146   0.586  0.8025  0.1942  0.6988
 1197WAT     H2 5509   1.907   2.223   0.599  0.4589 -0.4474  1.6757
 1197WAT    EPW 5510   1.985   2.215   0.597  0.5105  0.1601  0.0231
 1198WAT      O 5511   5.873   0.021   6.031  0.6609  0.0851 -0.2414
 1198WAT     H1 5512   5.867  -0.065   6.018  1.8081  0.1551 -1.4664
 1198WAT     H2 5513   5.811   0.054   5.979 -0.7224 -0.0127  1.2499
 1198WAT    EPW 5514   5.863   0.014   6.021  0.6260  0.0810 -0.2020
 1199WAT      O 5515   3.116   1.592   1.936  0.1516 -0.0067 -0.3035
 1199WAT     H1 5516   3.113   1.674   1.906  0.7485  0.9920  2.1451
 1199WAT     H2 5517   3.200   1.571   1.932 -0.2051 -1.3774 -2.8438
 1199WAT    EPW 5518   3.128   1.601   1.931  0.1871 -0.0617 -0.3170
 1200WAT      O 5519   4.859   5.768   5.207  0.3253 -0.5556  0.1488
 1200WAT     H1 5520   4.836   5.842   5.247  1.3235 -0.2649  0.2294
 1200WAT     H2 5521   4.822   5.705   5.254  1.2617 -0.2064  1.4023
 1200WAT    EPW 5522   4.850   5.770   5.220  0.6111 -0.4611  0.3459
 1201WAT      O 5523   6.157   6.279   0.539 -0.0878 -0.4852  0.1016
 1201WAT     H1 5524   6.153   6.318   0.616 -0.7127 -0.1183 -0.1100
 1201WAT     H2 5525   6.139   6.196   0.556 -0.0534 -0.4370  0.3691
 1201WAT    EPW 5526   6.154   6.273   0.553 -0.1750 -0.4239  0.1098
 1202WAT      O 5527   1.236   3.458   4.466 -0.1513  0.0710 -0.1588
 1202WAT     H1 5528   1.195   3.432   4.539  2.0709 -2.1840  0.4413
 1202WAT     H2 5529   1.196   3.533   4.446 -2.4661 -0.4246  1.9903
 1202WAT    EPW 5530   1.224   3.465   4.474 -0.1650 -0.3353  0.2473
 1203WAT      O 5531   5.107   3.872   1.593 -0.2462  0.1164  0.0079
 1203WAT     H1 5532   5.051   3.934   1.568 -0.6018 -0.4919 -0.7451
 1203WAT     H2 5533   5.163   3.914   1.645 -1.2956  0.7751  0.6443
 1203WAT    EPW 5534   5.107   3.887   1.597 -0.4538  0.1239 -0.0093
 1204WAT      O 5535   7.694   4.511   5.936 -0.5924 -0.0212 -0.1207
 1204WAT     H1 5536   7.641   4.501   6.004  0.5374  0.1114  0.8119
 1204WAT     H2 5537   7.642   4.542   5.873 -1.6745 -0.2379  0.6463
 1204WAT    EPW 5538   7.678   4.514   5.936 -0.5854 -0.0336  0.1304
 1205WAT      O 5539   2.010   2.835   6.464 -0.9395 -0.4738  0.2233
 1205WAT     H1 5540   2.036   2.822   6.382  0.0902 -1.0764  0.6242
 1205WAT     H2 5541   2.051   2.908   6.488 -1.2649 -0.2803  0.1963
 1205WAT    EPW 5542   2.020   2.844   6.455 -0.8354 -0.5342  0.2786
 1206WAT      O 5543   7.324   7.087   4.757  0.8040 -0.7128  0.6033
 1206WAT     H1 5544   7.396   7.125   4.788  0.3564 -0.3299  1.1849
 1206WAT     H2 5545   7.268   7.153   4.749  0.4351 -1.0476  0.3752
 1206WAT    EPW 5546   7.327   7.103   4.760  0.6834 -0.7057  0.6555
 1207WAT      O 5547   4.606   6.694   0.462 -0.0546 -0.3848  0.3104
 1207WAT     H1 5548   4.609   6.779   0.447 -2.0414 -0.0393  1.5499
 1207WAT     H2 5549   4.690   6.671   0.468  0.5105  1.4663 -0.0284
 1207WAT    EPW 5550   4.619   6.703   0.461 -0.2646 -0.0603  0.4434
 1208WAT      O 5551   5.110   5.111   5.175 -0.0372  0.2976 -0.5803
 1208WAT     H1 5552   5.113   5.024   5.176 -0.7922  0.2235  2.1473
 1208WAT     H2 5553   5.115   5.131   5.090 -1.4706 -2.4560 -1.4090
 1208WAT    EPW 5554   5.111   5.101   5.162 -0.3605 -0.1201 -0.2998
 1209WAT      O 5555   4.168   5.891   5.973 -0.4959  0.2916 -0.4524
 1209WAT     H1 5556   4.118   5.963   5.978  0.6684  1.0528  1.6396
 1209WAT     H2 5557   4.248   5.923   5.962 -0.0924 -0.7483 -0.5947
 1209WAT    EPW 5558   4.172   5.907   5.972 -0.2643  0.2504 -0.1644
 1210WAT      O 5559   3.437   1.553   7.068 -0.2708 -0.0765 -0.3375
 1210WAT     H1 5560   3.398   1.631   7.065 -1.2226 -0.4196  1.2755
 1210WAT     H2 5561   3.376   1.499   7.039  0.7058 -0.1715 -2.3418
 1210WAT    EPW 5562   3.422   1.557   7.063 -0.2671 -0.1412 -0.3953
 1211WAT      O 5563   5.051   0.058   2.322  0.3957  0.4972 -0.5058
 1211WAT     H1 5564   5.104   0.126   2.335 -0.5060  1.3366 -1.0761
 1211WAT     H2 5565   5.095  -0.009   2.358  1.6115  1.2361 -0.5437
 1211WAT    EPW 5566   5.065   0.058   2.329  0.4421  0.7303 -0.5956
 1212WAT      O 5567   5.257   2.197   2.283  0.2830 -0.4992  0.7503
 1212WAT     H1 5568   5.189   2.252   2.281  1.0471  0.4594  0.6769
 1212WAT     H2 5569   5.223   2.122   2.252 -0.5976  0.1230  0.1551
 1212WAT    EPW 5570   5.242   2.194   2.278  0.2658 -0.2657  0.6515
 1213WAT      O 5571   7.426   5.601   5.336  0.1884  0.2688  0.0977
 1213WAT     H1 5572   7.356   5.557   5.365  0.0844 -0.1141 -0.7048
 1213WAT     H2 5573   7.410   5.683   5.361  1.3001 -0.3749  3.3559
 1213WAT    EPW 5574   7.413   5.607   5.344  0.3372  0.1172  0.4605
 1214WAT      O 5575   1.147   0.293   7.766 -0.1036 -0.0214 -0.3392
 1214WAT     H1 5576   1.226   0.258   7.756 -0.5692 -0.8129 -1.5220
 1214WAT     H2 5577   1.095   0.242   7.718 -0.9893  1.6544 -1.2888
 1214WAT    EPW 5578   1.151   0.280   7.757 -0.3032  0.1092 -0.6542
 1215WAT      O 5579   2.342   5.270   6.905 -0.2086 -0.3066 -0.1506
 1215WAT     H1 5580   2.401   5.273   6.840  1.5978  1.4359  1.4353
 1215WAT     H2 5581   2.391   5.275   6.977 -2.3096  1.8512  1.2534
 1215WAT    EPW 5582   2.358   5.271   6.906 -0.2521  0.2696  0.2911
 1216WAT      O 5583   2.143   0.357   0.536  0.0410  0.1869  0.2854
 1216WAT     H1 5584   2.123   0.286   0.490 -0.4033  0.1514  0.5286
 1216WAT     H2 5585   2.074   0.368   0.589  0.4830  0.3041  0.8507
 1216WAT    EPW 5586   2.129   0.348   0.537  0.0407  0.1990  0.4049
 1217WAT      O 5587   4.752   2.289   6.461  0.2800  0.7838  0.1927
 1217WAT     H1 5588   4.788   2.247   6.393 -0.4092  1.3175 -0.5198
 1217WAT     H2 5589   4.667   2.273   6.452 -0.2324  3.5254 -1.0402
 1217WAT    EPW 5590   4.745   2.281   6.449  0.1025  1.2677 -0.0947
 1218WAT      O 5591   4.843   2.733   0.970 -0.1975 -0.3801  0.0101
 1218WAT     H1 5592   4.804   2.809   0.986  0.9495  0.0376  0.9516
 1218WAT     H2 5593   4.907   2.754   0.915  1.7991 -0.1336  2.2940
 1218WAT    EPW 5594   4.846   2.747   0.964  0.2669 -0.2820  0.4866
 1219WAT      O 5595   3.173   0.873   4.831  0.2404  0.0348 -0.5074
 1219WAT     H1 5596   3.230   0.848   4.892  0.4646 -1.6265 -1.3465
 1219WAT     H2 5597   3.111   0.914   4.877  1.2180  0.3357  0.6156
 1219WAT    EPW 5598   3.173   0.876   4.847  0.4179 -0.1662 -0.4654
 1220WAT      O 5599   4.122   5.190   1.856 -0.4010 -0.1119 -0.7990
 1220WAT     H1 5600   4.059   5.137   1.886 -0.2732  0.2392  0.1261
 1220WAT     H2 5601   4.171   5.137   1.807 -1.2808 -0.4387 -1.3448
 1220WAT    EPW 5602   4.120   5.174   1.853 -0.5121 -0.1083 -0.7429
 1221WAT      O 5603   3.682   6.689   4.001  0.0191  0.3780 -0.7873
 1221WAT     H1 5604   3.626   6.677   3.935 -1.4253 -0.0983  0.4831
 1221WAT     H2 5605   3.755   6.651   3.972 -0.5496  0.2228 -2.1262
 1221WAT    EPW 5606   3.685   6.682   3.987 -0.2783  0.2847 -0.7974
 1222WAT      O 5607   5.832   3.044   3.980  0.2231 -0.0111  0.1278
 1222WAT     H1 5608   5.818   2.958   3.986  0.4716  0.0347  2.1043
 1222WAT     H2 5609   5.897   3.058   4.036 -0.7874  1.6643  0.9685
 1222WAT    EPW 5610   5.839   3.033   3.989  0.1105  0.2432  0.5440
 1223WAT      O 5611   5.476   5.579   0.974  0.3090  0.1326  0.1102
 1223WAT     H1 5612   5.472   5.541   0.896 -0.6381 -0.1217  0.2661
 1223WAT     H2 5613   5.557   5.562   1.001 -0.4460 -3.1102  0.8112
 1223WAT    EPW 5614   5.487   5.571   0.967  0.0575 -0.3840  0.2368
 1224WAT      O 5615   3.281   6.166   0.462  0.8001  0.0405 -0.5685
 1224WAT     H1 5616   3.259   6.096   0.415 -1.5287  0.1824  0.2270
 1224WAT     H2 5617   3.230   6.229   0.429 -0.0103  0.4198  1.2982
 1224WAT    EPW 5618   3.270   6.165   0.450  0.3364  0.1175 -0.1752
 1225WAT      O 5619   4.885   6.282   0.946 -0.2656 -0.6570  0.4384
 1225WAT     H1 5620   4.825   6.336   0.979  0.4635  0.4172  0.0894
 1225WAT     H2 5621   4.845   6.205   0.943 -2.4911  0.4338 -2.0011
 1225WAT    EPW 5622   4.870   6.279   0.950 -0.4866 -0.3372  0.0265
 1226WAT      O 5623   5.687   2.109   2.391  0.2934  0.6787 -0.0275
 1226WAT     H1 5624   5.671   2.194   2.399 -1.3089  0.2994  1.7173
 1226WAT     H2 5625   5.733   2.090   2.463 -0.2621 -0.0910  0.1426
 1226WAT    EPW 5626   5.691   2.118   2.403 -0.0253  0.5090  0.2553
 1227WAT      O 5627   2.448   3.467   3.374 -0.1709  0.4852  0.0012
 1227WAT     H1 5628   2.470   3.542   3.336 -2.6992  1.5858  0.4945
 1227WAT     H2 5629   2.444   3.410   3.308  1.3022  0.8610 -0.4494
 1227WAT    EPW 5630   2.451   3.470   3.359 -0.3268  0.7033  0.0075
 1228WAT      O 5631   5.947   1.456   6.787 -0.2105  0.4095  0.5726
 1228WAT     H1 5632   6.011   1.399   6.803 -0.1735  0.3948  0.3766
 1228WAT     H2 5633   5.897   1.415   6.728 -0.0675  0.6630  0.2759
 1228WAT    EPW 5634   5.949   1.442   6.781 -0.1839  0.4448  0.4998
 1229WAT      O 5635   4.093   3.916   6.698  0.1482 -0.0853 -0.7985
 1229WAT     H1 5636   4.172   3.882   6.683  0.8622  0.7691  0.6382
 1229WAT     H2 5637   4.112   3.998   6.722 -0.7097 -0.8761  3.4551
 1229WAT    EPW 5638   4.108   3.923   6.700  0.1270 -0.0759  0.0421
 1230WAT      O 5639   3.781   2.799   7.149 -0.2743  0.1885 -0.1039
 1230WAT     H1 5640   3.820   2.826   7.222 -0.7457 -1.1814  0.7013
 1230WAT     H2 5641   3.819   2.846   7.087  1.3342  0.2170  0.8379
 1230WAT    EPW 5642   3.792   2.810   7.151 -0.1063 -0.0096  0.1541
 1231WAT      O 5643   4.214   0.704   2.143  0.3860 -0.1205  0.3306
 1231WAT     H1 5644   4.239   0.746   2.072 -1.5419 -2.5390 -1.9904
 1231WAT     H2 5645   4.175   0.765   2.191 -1.8428  0.9963 -2.6117
 1231WAT    EPW 5646   4.212   0.719   2.140 -0.2281 -0.3128 -0.4469
 1232WAT      O 5647   3.658   5.714   3.937 -0.1313 -0.1166 -0.3661
 1232WAT     H1 5648   3.591   5.693   3.988  0.6792 -1.5538  0.1660
 1232WAT     H2 5649   3.727   5.708   3.991  0.5025  0.6919 -1.0586
 1232WAT    EPW 5650   3.659   5.710   3.953  0.0820 -0.2095 -0.3898
 1233WAT      O 5651   6.578   3.252   3.509 -0.6773 -0.2305 -0.3705
 1233WAT     H1 5652   6.660   3.279   3.516  0.3393 -2.1639 -3.0277
 1233WAT     H2 5653   6.541   3.311   3.457 -0.6348 -0.0198 -0.1632
 1233WAT    EPW 5654   6.585   3.265   3.502 -0.5208 -0.4850 -0.7324
 1234WAT      O 5655   5.116   7.361   7.023  0.3629  0.5059  0.0699
 1234WAT     H1 5656   5.083   7.411   7.086 -0.2622  0.4407 -0.2023
 1234WAT     H2 5657   5.046   7.335   6.978  0.7884  0.4311 -0.5620
 1234WAT    EPW 5658   5.101   7.364   7.026  0.3334  0.4852 -0.0637
 1235WAT      O 5659   2.506   1.492   2.269 -0.6447 -0.1010 -0.5270
 1235WAT     H1 5660   2.498   1.475   2.183 -1.0490  0.6000 -0.6394
 1235WAT     H2 5661   2.543   1.572   2.270 -1.3486  0.2264 -0.0611
 1235WAT    EPW 5662   2.511   1.502   2.256 -0.8084  0.0509 -0.4748
 1236WAT      O 5663   4.700   0.740   3.061 -0.0299  0.0018 -0.2117
 1236WAT     H1 5664   4.613   0.735   3.063 -0.0062 -0.3315 -0.0332
 1236WAT     H2 5665   4.715   0.824   3.043 -0.3896  0.0245 -0.4145
 1236WAT    EPW 5666   4.690   0.752   3.059 -0.0795 -0.0441 -0.2153
 1237WAT      O 5667   5.599   5.282   0.089  0.1401 -0.6485  0.5557
 1237WAT     H1 5668   5.601   5.196   0.074  2.2949 -0.1903 -2.7505
 1237WAT     H2 5669   5.532   5.310   0.041  0.0131 -0.3449  0.9021
 1237WAT    EPW 5670   5.589   5.273   0.080  0.4397 -0.5360  0.1185
 1238WAT      O 5671   6.109   6.471   6.302  0.4627 -0.1744  0.1056
 1238WAT     H1 5672   6.106   6.480   6.215  0.2974 -0.3527  0.0898
 1238WAT     H2 5673   6.063   6.398   6.315 -0.7417  0.6218  0.4631
 1238WAT    EPW 5674   6.102   6.461   6.291  0.2604 -0.0831  0.1560
 1239WAT      O 5675   4.535   4.787   1.543 -0.8513 -0.0418 -0.2017
 1239WAT     H1 5676   4.550   4.816   1.462  1.2922 -2.3077 -0.7128
 1239WAT     H2 5677   4.549   4.858   1.592  2.4628  0.4001 -1.5194
 1239WAT    EPW 5678   4.539   4.802   1.538 -0.0451 -0.3113 -0.4719
 1240WAT      O 5679   5.306   6.384   5.828  0.4995  0.0876  0.0000
 1240WAT     H1 5680   5.373   6.328   5.821  0.4523 -0.1904  1.5037
 1240WAT     H2 5681   5.297   6.415   5.746  1.4963 -0.9689 -0.5428
 1240WAT    EPW 5682   5.315   6.380   5.815  0.6398 -0.1096  0.1419
 1241WAT      O 5683   0.745   6.216   5.550  0.0346 -0.5856  0.3798
 1241WAT     H1 5684   0.789   6.183   5.618  1.3903  1.6499  0.6906
 1241WAT     H2 5685   0.807   6.253   5.502 -1.3906  2.3603  0.6120
 1241WAT    EPW 5686   0.760   6.217   5.553  0.0244  0.1798  0.4600
 1242WAT      O 5687   4.570   5.872   2.516 -0.6061 -0.0123 -0.9419
 1242WAT     H1 5688   4.524   5.797   2.515  2.3647 -2.1163  1.7359
 1242WAT     H2 5689   4.605   5.875   2.436 -1.8276 -0.6879 -1.5488
 1242WAT    EPW 5690   4.568   5.861   2.504 -0.3477 -0.4229 -0.6360
 1243WAT      O 5691   5.498   5.960   2.880  0.3266  0.1216  0.7395
 1243WAT     H1 5692   5.529   5.899   2.826 -1.2398  1.7007 -2.1894
 1243WAT     H2 5693   5.489   5.917   2.955  0.3372 -2.9875 -0.8390
 1243WAT    EPW 5694   5.501   5.944   2.883  0.0967 -0.1044  0.0737
 1244WAT      O 5695   6.008   3.917   1.302 -0.3453 -0.3465  0.1968
 1244WAT     H1 5696   6.009   3.867   1.231 -3.4350 -0.0028 -0.2113
 1244WAT     H2 5697   6.032   3.996   1.272 -0.8153 -0.3878 -0.2993
 1244WAT    EPW 5698   6.011   3.921   1.287 -0.8711 -0.3018  0.0632
 1245WAT      O 5699   5.752   7.236   7.175  0.1525  0.4125 -0.5217
 1245WAT     H1 5700   5.780   7.160   7.143 -0.8196  0.3510 -1.2937
 1245WAT     H2 5701   5.799   7.295   7.132 -0.1048  0.2771 -1.0049
 1245WAT    EPW 5702   5.763   7.233   7.164 -0.0291  0.3834 -0.7071
 1246WAT      O 5703   7.656   5.257   7.427 -0.4834 -0.0419 -0.3364
 1246WAT     H1 5704   7.732   5.217   7.442 -0.7080  0.2964  2.0447
 1246WAT     H2 5705   7.597   5.195   7.441 -0.7051  0.1058 -0.6006
 1246WAT    EPW 5706   7.659   5.242   7.431 -0.5493  0.0299 -0.0237
 1247WAT      O 5707   7.073   0.202   5.286  0.4388  0.0097  0.6970
 1247WAT     H1 5708   7.005   0.180   5.334  0.7974  0.2623  1.3358
 1247WAT     H2 5709   7.136   0.217   5.344  0.3729  2.1980  0.3096
 1247WAT    EPW 5710   7.073   0.201   5.301  0.4820  0.3703  0.7341
 1248WAT      O 5711   3.589   0.540   3.585  0.1911  0.0212 -0.0751
 1248WAT     H1 5712   3.656   0.498   3.547  1.4666  0.6245  1.3808
 1248WAT     H2 5713   3.593   0.620   3.548 -0.2158 -0.1670 -0.5337
 1248WAT    EPW 5714   3.600   0.546   3.574  0.3194  0.0825  0.0722
 1249WAT      O 5715   5.384   5.532   7.839 -0.9669  0.1785 -0.9756
 1249WAT     H1 5716   5.394   5.596   7.781 -0.2340  0.4188 -0.6017
 1249WAT     H2 5717   5.335   5.568   7.902  1.2135  1.1269  0.2929
 1249WAT    EPW 5718   5.378   5.547   7.840 -0.5365  0.3541 -0.7330
 1250WAT      O 5719   4.678   6.745   4.900  0.0522 -0.0664  0.3108
 1250WAT     H1 5720   4.638   6.820   4.880  1.4947  0.3075 -1.3856
 1250WAT     H2 5721   4.673   6.742   4.987  1.0578  2.7007  0.5831
 1250WAT    EPW 5722   4.672   6.755   4.910  0.4138  0.3976  0.1004
 1251WAT      O 5723   5.253   3.762   1.345 -0.6249 -0.3097 -0.3845
 1251WAT     H1 5724   5.313   3.823   1.325  1.4241 -1.9098  0.5342
 1251WAT     H2 5725   5.226   3.786   1.425  0.0514 -0.4986 -0.0919
 1251WAT    EPW 5726   5.258   3.775   1.354 -0.2223 -0.5740 -0.2056
 1252WAT      O 5727   4.176   7.275   3.433 -0.8671  0.0453 -0.3542
 1252WAT     H1 5728   4.126   7.207   3.454 -0.4259 -0.2538 -0.2576
 1252WAT     H2 5729   4.163   7.285   3.347 -1.3382  0.1710 -0.2672
 1252WAT    EPW 5730   4.167   7.267   3.423 -0.8715  0.0197 -0.3271
 1253WAT      O 5731   5.483   5.855   0.936 -0.7247 -0.2440 -0.4431
 1253WAT     H1 5732   5.496   5.880   1.018  0.3402  0.5932 -0.8372
 1253WAT     H2 5733   5.493   5.768   0.939 -0.9638 -0.2467  0.3524
 1253WAT    EPW 5734   5.486   5.846   0.949 -0.6027 -0.1207 -0.3838
 1254WAT      O 5735   2.440   1.165   0.306 -0.1316  0.2715 -0.7366
 1254WAT     H1 5736   2.388   1.103   0.273 -1.7670  1.3951 -0.3894
 1254WAT     H2 5737   2.421   1.235   0.258  1.4843  0.6117 -0.9417
 1254WAT    EPW 5738   2.429   1.166   0.294 -0.1345  0.4878 -0.7156
 1255WAT      O 5739   7.199   5.369   0.652 -0.0337 -0.6591  0.2264
 1255WAT     H1 5740   7.151   5.436   0.626  0.8293 -0.1829 -0.1648
 1255WAT     H2 5741   7.141   5.304   0.661 -0.5648 -0.4574 -1.4950
 1255WAT    EPW 5742   7.184   5.369   0.650  0.0154 -0.5590 -0.0857
 1256WAT      O 5743   5.412   2.299   7.753  0.0205 -0.0257 -0.1198
 1256WAT     H1 5744   5.337   2.321   7.791 -0.2346 -0.7264 -0.2009
 1256WAT     H2 5745   5.421   2.215   7.774  1.5268  0.4084  1.1479
 1256WAT    EPW 5746   5.402   2.290   7.762  0.2053 -0.0651  0.0555
 1257WAT      O 5747   6.800   2.973   6.185 -0.0510  0.2275  0.1286
 1257WAT     H1 5748   6.801   3.059   6.195  1.4810  0.3432 -0.6999
 1257WAT     H2 5749   6.749   2.960   6.115 -1.4962  0.3060  1.1245
 1257WAT    EPW 5750   6.793   2.984   6.176 -0.0382  0.2562  0.1534
 1258WAT      O 5751   4.493   5.928   6.139  0.3850  0.2450  0.4450
 1258WAT     H1 5752   4.418   5.908   6.179  0.4684 -1.7878 -0.3312
 1258WAT     H2 5753   4.467   5.949   6.058  0.6726 -0.8290  0.0678
 1258WAT    EPW 5754   4.478   5.928   6.133  0.4398 -0.2140  0.2746
 1259WAT      O 5755   7.306   4.814   7.084 -0.2589  0.1160 -0.3481
 1259WAT     H1 5756   7.371   4.760   7.062  0.7927  1.5767 -0.9313
 1259WAT     H2 5757   7.333   4.892   7.057 -0.0464  1.6756  3.7280
 1259WAT    EPW 5758   7.319   4.817   7.077 -0.0722  0.5622  0.1679
 1260WAT      O 5759   4.297   1.903   4.976 -0.4967  0.0401 -0.1071
 1260WAT     H1 5760   4.251   1.926   4.906  1.2690 -1.3990 -1.8261
 1260WAT     H2 5761   4.378   1.895   4.946  0.3178 -0.6935  2.1058
 1260WAT    EPW 5762   4.302   1.905   4.962 -0.1155 -0.2809 -0.0342
 1261WAT      O 5763   5.234   6.558   2.907 -0.3501  0.2869 -0.4805
 1261WAT     H1 5764   5.240   6.609   2.836  0.1495 -1.1866 -1.5755
 1261WAT     H2 5765   5.306   6.508   2.901 -0.8185 -0.5390  0.5277
 1261WAT    EPW 5766   5.246   6.558   2.895 -0.3455 -0.0527 -0.4933
 1262WAT      O 5767   3.478   1.633   0.610  0.3528 -0.2038 -0.6171
 1262WAT     H1 5768   3.521   1.565   0.643 -0.0097 -0.1026  0.0774
 1262WAT     H2 5769   3.463   1.608   0.527  1.6324 -0.2767 -0.8513
 1262WAT    EPW 5770   3.482   1.619   0.603  0.4883 -0.1996 -0.5491
 1263WAT      O 5771   6.541   0.884   6.247  0.1702  0.2770  0.0531
 1263WAT     H1 5772   6.567   0.850   6.323  1.5544  1.2915  0.0642
 1263WAT     H2 5773   6.490   0.821   6.213  0.0277 -0.4485  1.5169
 1263WAT    EPW 5774   6.537   0.870   6.253  0.3536  0.3197  0.2710
 1264WAT      O 5775   6.650   4.463   4.681 -0.2728 -0.3752  0.4691
 1264WAT     H1 5776   6.620   4.544   4.689 -1.2602 -0.6551 -0.1262
 1264WAT     H2 5777   6.583   4.421   4.643  0.5981 -1.2282 -0.1510
 1264WAT    EPW 5778   6.635   4.469   4.677 -0.2900 -0.5425  0.2895
 1265WAT      O 5779   2.970   5.704   2.297  0.1557 -0.0670 -0.2522
 1265WAT     H1 5780   2.925   5.648   2.248 -0.1573 -0.5323  0.5481
 1265WAT     H2 5781   2.960   5.674   2.378 -0.7340  1.5979  0.3217
 1265WAT    EPW 5782   2.962   5.692   2.302 -0.0220  0.1102 -0.0492
 1266WAT      O 5783   5.823   7.356   7.579 -0.2367 -0.0320 -0.2749
 1266WAT     H1 5784   5.892   7.382   7.533  0.8997  0.2393  1.4875
 1266WAT     H2 5785   5.817   7.415   7.643 -1.8310 -0.3118 -0.1182
 1266WAT    EPW 5786   5.833   7.369   7.582 -0.3043 -0.0333  0.0086
 1267WAT      O 5787   6.499   3.876   5.714  0.5587  0.0202  0.6234
 1267WAT     H1 5788   6.480   3.792   5.731 -0.6110  0.0321 -0.5053
 1267WAT     H2 5789   6.474   3.918   5.786  0.5302 -0.5091  0.9295
 1267WAT    EPW 5790   6.493   3.870   5.727  0.3817 -0.0562  0.5019
 1268WAT      O 5791   2.134   5.501   0.493  0.7906  0.2413 -0.2024
 1268WAT     H1 5792   2.083   5.443   0.453  1.0823 -0.5119  0.4872
 1268WAT     H2 5793   2.109   5.496   0.577 -0.5198  2.5109 -0.3623
 1268WAT    EPW 5794   2.123   5.492   0.499  0.6401  0.4653 -0.1241
 1269WAT      O 5795   4.810   2.762   0.224  0.2672  0.3932  0.1648
 1269WAT     H1 5796   4.832   2.708   0.159  0.9366  0.3517  0.4150
 1269WAT     H2 5797   4.791   2.707   0.289  1.0815  0.4515  0.4613
 1269WAT    EPW 5798   4.811   2.746   0.224  0.4864  0.3956  0.2456
 1270WAT      O 5799   6.053   5.076   1.695  0.0202 -0.6231  0.2283
 1270WAT     H1 5800   6.054   5.065   1.781 -1.2011  1.2938  0.5645
 1270WAT     H2 5801   5.991   5.137   1.683 -0.3802 -1.3686 -2.0813
 1270WAT    EPW 5802   6.044   5.084   1.706 -0.2194 -0.4501 -0.0632
 1271WAT      O 5803   5.792   3.567   0.302 -0.1595  0.4669 -0.2061
 1271WAT     H1 5804   5.800   3.564   0.215  1.3588 -1.4189 -0.0957
 1271WAT     H2 5805   5.871   3.593   0.328 -0.1483 -0.3424  0.6158
 1271WAT    EPW 5806   5.805   3.570   0.293  0.0664  0.0688 -0.0684
 1272WAT      O 5807   6.699   2.178   7.360 -0.6293 -1.1887  0.2343
 1272WAT     H1 5808   6.760   2.123   7.389  0.3145 -0.8176 -0.9749
 1272WAT     H2 5809   6.699   2.166   7.274 -0.1819  0.8707 -0.1128
 1272WAT    EPW 5810   6.708   2.168   7.351 -0.4238 -0.8297  0.0044
 1273WAT      O 5811   6.060   4.426   0.904 -0.2426 -0.1425  0.2200
 1273WAT     H1 5812   5.996   4.451   0.958  1.4445 -0.0416  2.3303
 1273WAT     H2 5813   6.107   4.371   0.954 -0.0735 -2.2456 -2.0747
 1273WAT    EPW 5814   6.057   4.421   0.920  0.0316 -0.4383  0.1927
 1274WAT      O 5815   5.460   5.098   2.260 -0.1087 -0.6167 -0.5142
 1274WAT     H1 5816   5.422   5.175   2.275 -2.7095 -1.5992 -1.4979
 1274WAT     H2 5817   5.522   5.116   2.202 -2.8417  0.4252 -3.4065
 1274WAT    EPW 5818   5.464   5.112   2.254 -0.8966 -0.6079 -1.0867
 1275WAT      O 5819   5.585   3.151   6.670  0.4401  0.0090 -0.5487
 1275WAT     H1 5820   5.503   3.130   6.651  0.1476  0.7622 -0.1616
 1275WAT     H2 5821   5.614   3.190   6.598  0.4337 -0.2004 -0.6632
 1275WAT    EPW 5822   5.577   3.154   6.657  0.3959  0.0893 -0.5085
 1276WAT      O 5823   7.629   6.646   7.065 -0.0431 -0.0821  0.3633
 1276WAT     H1 5824   7.608   6.718   7.110  2.0011  0.6086  0.3062
 1276WAT     H2 5825   7.596   6.581   7.114 -3.7070  0.8547 -0.5905
 1276WAT    EPW 5826   7.621   6.647   7.079 -0.2824  0.1583  0.2140
 1277WAT      O 5827   0.814   6.126   4.013  0.2557  0.3321  0.5827
 1277WAT     H1 5828   0.748   6.093   3.966  1.1003 -1.6819  0.6850
 1277WAT     H2 5829   0.884   6.090   3.976  1.2790  2.0650  0.7628
 1277WAT    EPW 5830   0.815   6.116   4.001  0.5317  0.2906  0.6244
 1278WAT      O 5831   5.367   4.496   2.101 -0.2213 -0.2816  0.0369
 1278WAT     H1 5832   5.337   4.573   2.071 -2.0038 -0.7604  0.4538
 1278WAT     H2 5833   5.386   4.514   2.185 -1.2889 -0.4092  0.3307
 1278WAT    EPW 5834   5.365   4.510   2.109 -0.6423 -0.3712  0.1419
 1279WAT      O 5835   6.147   2.909   0.483 -0.4478 -0.2237 -0.0269
 1279WAT     H1 5836   6.152   2.878   0.564  4.1345  1.7917  0.7861
 1279WAT     H2 5837   6.142   2.996   0.495 -0.5933  0.0787 -1.9342
 1279WAT    EPW 5838   6.147   2.917   0.497  0.2076  0.1187 -0.1885
 1280WAT      O 5839   6.226   0.626   1.388 -0.3768  0.2947  0.0854
 1280WAT     H1 5840   6.159   0.581   1.355 -1.2012  0.7556  1.0602
 1280WAT     H2 5841   6.241   0.688   1.328 -0.6638  0.0402 -0.2518
 1280WAT    EPW 5842   6.218   0.629   1.374 -0.5410  0.3252  0.1796
 1281WAT      O 5843   5.182   1.941   2.206  0.6324 -0.2511  0.1829
 1281WAT     H1 5844   5.134   1.919   2.276 -2.9394  0.8205 -1.6794
 1281WAT     H2 5845   5.181   1.869   2.158 -1.2246  0.3877 -0.8444
 1281WAT    EPW 5846   5.175   1.927   2.210 -0.1695  0.0016 -0.2439
 1282WAT      O 5847   4.019   4.906   0.866 -0.3306 -0.0407 -0.2276
 1282WAT     H1 5848   3.970   4.861   0.921 -0.9180  1.1285  0.2304
 1282WAT     H2 5849   3.967   4.920   0.797  0.0105 -0.4795 -0.5802
 1282WAT    EPW 5850   4.004   4.902   0.864 -0.3669  0.0672 -0.2120
 1283WAT      O 5851   4.697   6.405   1.096  0.7445  0.6277  0.1488
 1283WAT     H1 5852   4.670   6.488   1.104  1.8086  1.2614 -1.9493
 1283WAT     H2 5853   4.636   6.359   1.139 -1.4722  2.2708 -1.0142
 1283WAT    EPW 5854   4.684   6.410   1.104  0.5742  0.9640 -0.3330
 1284WAT      O 5855   6.940   4.217   5.898  0.4757 -0.6019 -0.0024
 1284WAT     H1 5856   7.004   4.268   5.928  0.5009 -0.4724 -0.2720
 1284WAT     H2 5857   6.932   4.241   5.815 -0.5228  0.0130  0.2505
 1284WAT    EPW 5858   6.948   4.228   5.891  0.3319 -0.4919 -0.0048
 1285WAT      O 5859   7.123   1.212   5.869 -0.2140  0.5369  0.1440
 1285WAT     H1 5860   7.037   1.204   5.880 -0.1664 -0.5828 -0.1581
 1285WAT     H2 5861   7.156   1.146   5.916  0.3332 -0.4638 -1.5590
 1285WAT    EPW 5862   7.115   1.201   5.877 -0.1262  0.2237 -0.1522
 1286WAT      O 5863   5.047   5.630   0.292  0.3461  0.2188 -0.2686
 1286WAT     H1 5864   5.038   5.711   0.323  2.3653  0.9921 -1.5362
 1286WAT     H2 5865   5.014   5.580   0.355 -0.2209  1.9687  0.8879
 1286WAT    EPW 5866   5.041   5.635   0.306  0.5606  0.5915 -0.2850
 1287WAT      O 5867   7.645   6.481   6.434 -0.1895 -0.0885  0.3713
 1287WAT     H1 5868   7.655   6.500   6.519 -2.1287 -2.3894  1.2346
 1287WAT     H2 5869   7.686   6.405   6.425 -2.1851 -1.1834 -0.0316
 1287WAT    EPW 5870   7.652   6.473   6.445 -0.7708 -0.5901  0.4393
 1288WAT      O 5871   5.766   0.604   7.811 -0.3519  0.5647 -0.2874
 1288WAT     H1 5872   5.809   0.568   7.744  0.6422  0.5648  0.3308
 1288WAT     H2 5873   5.719   0.667   7.774 -1.3228 -0.6734 -1.2508
 1288WAT    EPW 5874   5.766   0.608   7.796 -0.3484  0.3818 -0.3384
 1289WAT      O 5875   7.294   2.180   5.290 -1.1282  0.4218  0.2753
 1289WAT     H1 5876   7.248   2.138   5.229 -0.1147  1.5422 -1.3561
 1289WAT     H2 5877   7.256   2.258   5.294 -0.1221  0.9499 -0.2160
 1289WAT    EPW 5878   7.282   2.185   5.282 -0.8299  0.6653 -0.0383
 1290WAT      O 5879   3.486   4.673   2.599 -0.1514 -0.8094  0.1662
 1290WAT     H1 5880   3.543   4.642   2.658  0.3576  0.0739  0.1636
 1290WAT     H2 5881   3.523   4.748   2.573 -1.3758 -0.1435  0.2533
 1290WAT    EPW 5882   3.500   4.680   2.604 -0.2571 -0.5806  0.1787
 1291WAT      O 5883   1.051   6.634   0.473 -0.3265  0.2009  0.2557
 1291WAT     H1 5884   1.014   6.606   0.399  0.8398 -0.3292 -0.1510
 1291WAT     H2 5885   0.992   6.690   0.506 -0.7582  0.6179 -1.1805
 1291WAT    EPW 5886   1.037   6.638   0.467 -0.2180  0.1842 -0.0165
 1292WAT      O 5887   4.855   0.689   2.833  0.2658 -0.1813  0.1401
 1292WAT     H1 5888   4.822   0.634   2.773  1.8256  0.0293 -0.9807
 1292WAT     H2 5889   4.788   0.704   2.886 -1.3357 -0.0677 -1.7872
 1292WAT    EPW 5890   4.840   0.683   2.832  0.2596 -0.1334 -0.3101
 1293WAT      O 5891   5.442   4.039   0.691  0.7259 -0.1951  0.8835
 1293WAT     H1 5892   5.483   4.110   0.660  1.5498 -1.3476 -0.7803
 1293WAT     H2 5893   5.398   4.070   0.760  0.2160  2.1383 -0.3770
 1293WAT    EPW 5894   5.442   4.054   0.697  0.7723 -0.0206  0.4515
 1294WAT      O 5895   5.741   1.574   0.793  0.4176  0.5198  0.1966
 1294WAT     H1 5896   5.677   1.608   0.744  0.3184  1.2123  0.7913
 1294WAT     H2 5897   5.747   1.491   0.764 -1.2826  0.2041  0.6515
 1294WAT    EPW 5898   5.732   1.567   0.781  0.1518  0.5755  0.3516
 1295WAT      O 5899   5.261   5.999   4.723  0.1681 -0.2774 -0.1028
 1295WAT     H1 5900   5.305   6.075   4.725 -1.8613  0.9737  0.4884
 1295WAT     H2 5901   5.297   5.953   4.787  1.5248  0.1022 -0.5472
 1295WAT    EPW 5902   5.273   6.004   4.733  0.0687 -0.0365 -0.0811
 1296WAT      O 5903   5.556   2.805   1.509  0.3015 -0.1203  0.3710
 1296WAT     H1 5904   5.578   2.872   1.458 -0.7492 -0.1437 -0.1370
 1296WAT     H2 5905   5.540   2.842   1.586  0.7898  0.0677  0.3818
 1296WAT    EPW 5906   5.557   2.820   1.513  0.2184 -0.0960  0.2976
 1297WAT      O 5907   6.287   0.742   0.235  0.4210  0.2875 -0.1607
 1297WAT     H1 5908   6.257   0.767   0.313  0.1043 -0.7011  0.0456
 1297WAT     H2 5909   6.362   0.787   0.227 -0.1766  1.3650  0.1390
 1297WAT    EPW 5910   6.294   0.752   0.246  0.2859  0.3006 -0.0860
 1298WAT      O 5911   5.573   1.498   4.755 -0.4697  0.1874 -0.3717
 1298WAT     H1 5912   5.556   1.584   4.755  2.5005  0.8968 -1.1857
 1298WAT     H2 5913   5.567   1.476   4.670 -1.3309 -0.4690 -0.1534
 1298WAT    EPW 5914   5.569   1.508   4.742 -0.1582  0.1953 -0.4597
 1299WAT      O 5915   0.310   6.594   4.822  0.5125 -0.3643 -0.1266
 1299WAT     H1 5916   0.379   6.615   4.872  0.4595 -1.6879  0.5448
 1299WAT     H2 5917   0.330   6.515   4.792 -0.7375 -0.8015  0.1434
 1299WAT    EPW 5918   0.323   6.585   4.825  0.3200 -0.6244  0.0124
 1300WAT      O 5919   7.410   1.343   7.491 -0.3508 -0.0279  0.7176
 1300WAT     H1 5920   7.478   1.310   7.534  0.3537  2.5549  1.8140
 1300WAT     H2 5921   7.380   1.406   7.544  0.2386  3.0450 -2.1838
 1300WAT    EPW 5922   7.415   1.348   7.505 -0.1596  0.8076  0.4510
 1301WAT      O 5923   5.388   3.181   5.467 -0.4466 -0.2010  0.5629
 1301WAT     H1 5924   5.336   3.185   5.537  0.0092  0.6242  0.8640
 1301WAT     H2 5925   5.375   3.258   5.428 -0.2652 -0.4276  0.0405
 1301WAT    EPW 5926   5.378   3.193   5.471 -0.3525 -0.1125  0.5302
 1302WAT      O 5927   2.287   3.857   0.976  0.1774  0.2714  0.0884
 1302WAT     H1 5928   2.205   3.830   0.984  0.2482  0.2886  1.0009
 1302WAT     H2 5929   2.290   3.929   1.026  1.1268 -0.6162  1.3915
 1302WAT    EPW 5930   2.276   3.864   0.985  0.3281  0.1428  0.4157
 1303WAT      O 5931   7.223   2.916   3.757  0.7186 -0.0652 -0.0309
 1303WAT     H1 5932   7.307   2.919   3.779  0.2729  1.7136  1.7665
 1303WAT     H2 5933   7.207   2.997   3.728 -0.5724 -0.0842  0.5542
 1303WAT    EPW 5934   7.233   2.929   3.756  0.4621  0.1947  0.3211
 1304WAT      O 5935   2.595   6.712   5.554  0.2843  0.3631 -0.4924
 1304WAT     H1 5936   2.615   6.629   5.537  1.4632  0.6007 -0.3597
 1304WAT     H2 5937   2.647   6.732   5.622  0.1086  1.2345 -0.5982
 1304WAT    EPW 5938   2.606   6.703   5.562  0.4325  0.5270 -0.4884
 1305WAT      O 5939   5.290   1.520   1.708 -0.6276  0.1813  0.4744
 1305WAT     H1 5940   5.210   1.499   1.736 -0.1224  0.1413  1.9838
 1305WAT     H2 5941   5.332   1.543   1.781  0.2861  1.7508 -0.4867
 1305WAT    EPW 5942   5.284   1.520   1.723 -0.4180  0.4072  0.5554
 1306WAT      O 5943   7.241   6.027   5.087  0.3108 -0.0942 -0.3736
 1306WAT     H1 5944   7.196   6.020   5.161 -0.4191 -1.8844 -0.9280
 1306WAT     H2 5945   7.325   6.022   5.113  0.2605  2.4000  0.5754
 1306WAT    EPW 5946   7.247   6.025   5.102  0.1955  0.0098 -0.3153
 1307WAT      O 5947   1.149   1.292   6.330  0.3962  0.3199 -0.3859
 1307WAT     H1 5948   1.200   1.339   6.382  0.8369 -1.0203  0.4496
 1307WAT     H2 5949   1.133   1.345   6.262 -0.3171  2.1767  1.1543
 1307WAT    EPW 5950   1.154   1.307   6.327  0.3560  0.3962 -0.0349
 1308WAT      O 5951   0.343   5.982   3.997  0.3092  0.1816 -0.0376
 1308WAT     H1 5952   0.274   6.036   4.005  1.6750  1.7349  2.9205
 1308WAT     H2 5953   0.308   5.903   4.004 -1.3009  0.8872  0.4325
 1308WAT    EPW 5954   0.327   5.979   3.999  0.2731  0.5153  0.4688
 1309WAT      O 5955   4.910   4.974   6.532  0.0520 -0.1878  0.1232
 1309WAT     H1 5956   4.845   4.986   6.590 -0.4070 -0.7933 -0.2645
 1309WAT     H2 5957   4.957   4.910   6.568  0.3631  0.1577  0.3365
 1309WAT    EPW 5958   4.907   4.967   6.546  0.0302 -0.2262  0.0974
 1310WAT      O 5959   7.052   2.860   7.177 -0.2186  0.0131 -0.3089
 1310WAT     H1 5960   6.985   2.846   7.230  0.1726  0.1483  0.2344
 1310WAT     H2 5961   7.064   2.947   7.181  0.9276 -0.1694  0.7858
 1310WAT    EPW 5962   7.044   2.871   7.185  0.0085  0.0061 -0.0669
 1311WAT      O 5963   3.923   4.776   7.413  0.1026 -0.5013  0.0263
 1311WAT     H1 5964   3.845   4.749   7.442  0.5796  0.3701  2.3421
 1311WAT     H2 5965   3.933   4.854   7.451  1.2657  0.3351 -1.8584
 1311WAT    EPW 5966   3.913   4.783   7.423  0.3449 -0.2490  0.0900
 1312WAT      O 5967   0.980   0.104   7.019  0.2445  0.6630  0.3515
 1312WAT     H1 5968   1.041   0.131   7.074  0.7082  0.1936  0.0803
 1312WAT     H2 5969   1.015   0.118   6.940  1.2966 -2.3026  0.1741
 1312WAT    EPW 5970   0.994   0.110   7.015  0.4684  0.1556  0.2852
 1313WAT      O 5971   6.116   6.893   0.861 -0.0910  0.3934 -0.9663
 1313WAT     H1 5972   6.169   6.961   0.854  2.9462 -1.5446  0.7742
 1313WAT     H2 5973   6.149   6.835   0.804 -0.8055 -0.5975 -0.4112
 1313WAT    EPW 5974   6.129   6.894   0.852  0.2521 -0.0392 -0.6272
 1314WAT      O 5975   0.516   5.753   5.458 -0.3045 -0.3508 -0.1271
 1314WAT     H1 5976   0.441   5.776   5.496 -0.9492  1.4908 -2.2831
 1314WAT     H2 5977   0.501   5.673   5.427 -0.5034 -0.9678  1.4547
 1314WAT    EPW 5978   0.503   5.745   5.459 -0.4291 -0.1699 -0.2119
 1315WAT      O 5979   7.095   4.096   6.203 -0.0451 -0.4488 -0.2911
 1315WAT     H1 5980   7.036   4.087   6.140 -0.2818 -1.2188  0.0436
 1315WAT     H2 5981   7.160   4.139   6.163 -1.1599  1.1921 -0.4349
 1315WAT    EPW 5982   7.096   4.101   6.188 -0.2447 -0.3201 -0.2629
 1316WAT      O 5983   5.625   7.457   4.160  0.6532 -0.7087  0.1615
 1316WAT     H1 5984   5.562   7.445   4.101 -0.1169 -0.9320  0.9935
 1316WAT     H2 5985   5.686   7.400   4.136  0.4922 -0.5785 -0.5910
 1316WAT    EPW 5986   5.625   7.447   4.148  0.5157 -0.7224  0.1733
 1317WAT      O 5987   5.037   3.847   1.936 -0.5492  0.1832  0.1532
 1317WAT     H1 5988   4.960   3.879   1.910 -0.4588  0.1268 -0.1876
 1317WAT     H2 5989   5.095   3.904   1.905 -0.3596 -0.5279 -0.8431
 1317WAT    EPW 5990   5.034   3.860   1.927 -0.5078  0.0698 -0.0443
 1318WAT      O 5991   0.460   3.538   3.863 -0.2765 -0.6291 -0.4144
 1318WAT     H1 5992   0.520   3.582   3.909  0.2778 -0.8413 -0.9281
 1318WAT     H2 5993   0.442   3.469   3.913 -0.4978 -0.2862 -0.0114
 1318WAT    EPW 5994   0.466   3.535   3.877 -0.2273 -0.6098 -0.4307
 1319WAT      O 5995   3.751   5.867   7.164  0.4826  0.4454 -0.0504
 1319WAT     H1 5996   3.722   5.863   7.246  0.1546 -0.0612 -0.1846
 1319WAT     H2 5997   3.776   5.785   7.148  0.5105  0.5353 -0.4691
 1319WAT    EPW 5998   3.751   5.854   7.174  0.4383  0.3839 -0.1321
 1320WAT      O 5999   6.257   2.618   4.738  0.1248  0.4382 -0.0560
 1320WAT     H1 6000   6.323   2.588   4.786  0.0879 -0.5693 -0.6021
 1320WAT     H2 6001   6.228   2.547   4.696 -0.9664  0.9594 -0.2279
 1320WAT    EPW 6002   6.263   2.603   4.739 -0.0418  0.3664 -0.1621
 1321WAT      O 6003   1.478   5.193   6.072 -0.7542 -0.6463 -0.7647
 1321WAT     H1 6004   1.512   5.119   6.103  0.8804 -0.6589 -2.4484
 1321WAT     H2 6005   1.470   5.178   5.987 -2.1618  0.4879 -0.8730
 1321WAT    EPW 6006   1.482   5.180   6.064 -0.7206 -0.4806 -1.0294
 1322WAT      O 6007   1.828   7.045   4.490  0.1107 -0.0220  0.4032
 1322WAT     H1 6008   1.799   7.020   4.411  2.2252 -0.7146 -0.2271
 1322WAT     H2 6009   1.788   7.122   4.503 -2.2113 -1.0269 -0.1658
 1322WAT    EPW 6010   1.818   7.053   4.480  0.0800 -0.2728  0.2260
 1323WAT      O 6011   4.678   4.296   5.129  0.1632 -0.6332  0.0772
 1323WAT     H1 6012   4.736   4.262   5.073  1.7427  1.7171  0.1306
 1323WAT     H2 6013   4.607   4.309   5.080 -0.6843 -4.0733  0.1242
 1323WAT    EPW 6014   4.676   4.293   5.113  0.2713 -0.7942  0.0921
 1324WAT      O 6015   7.578   2.457   6.963 -0.2674  0.2226  0.4341
 1324WAT     H1 6016   7.636   2.395   6.944  0.9771  1.7932 -1.2263
 1324WAT     H2 6017   7.616   2.501   7.028 -0.2802  0.3945  0.3228
 1324WAT    EPW 6018   7.592   2.454   6.970 -0.0854  0.4800  0.1724
 1325WAT      O 6019   7.577   6.490   4.800 -0.3745 -0.3221 -0.4310
 1325WAT     H1 6020   7.594   6.416   4.758 -1.2290 -0.5492 -0.3872
 1325WAT     H2 6021   7.490   6.493   4.803 -0.3388  0.2561  0.3281
 1325WAT    EPW 6022   7.567   6.480   4.794 -0.4954 -0.2703 -0.3124
 1326WAT      O 6023   6.555   6.423   7.320 -0.6869  0.1652  0.2214
 1326WAT     H1 6024   6.591   6.358   7.274  0.0464  1.2679 -0.8194
 1326WAT     H2 6025   6.470   6.410   7.311 -0.5467 -0.1830 -0.6832
 1326WAT    EPW 6026   6.548   6.411   7.312 -0.5579  0.2766 -0.0660
 1327WAT      O 6027   4.430   7.641   7.742  0.1536  0.2322 -0.5424
 1327WAT     H1 6028   4.376   7.688   7.792 -0.5848 -0.0070 -1.0944
 1327WAT     H2 6029   4.394   7.647   7.662  1.8243  1.3860 -1.2573
 1327WAT    EPW 6030   4.416   7.649   7.738  0.2913  0.3673 -0.7295
 1328WAT      O 6031   6.146   2.040   6.973 -0.1566  1.0955  0.2788
 1328WAT     H1 6032   6.205   2.065   7.033 -0.3102 -0.0119  0.9170
 1328WAT     H2 6033   6.070   2.041   7.017 -0.4660  1.5680 -0.2674
 1328WAT    EPW 6034   6.144   2.044   6.989 -0.2250  1.0017  0.2924
 1329WAT      O 6035   7.312   0.515   6.225  0.4055 -0.4562 -0.7210
 1329WAT     H1 6036   7.317   0.508   6.138  0.5307 -1.7194 -0.6382
 1329WAT     H2 6037   7.327   0.433   6.252  0.7089 -0.0063  0.5042
 1329WAT    EPW 6038   7.315   0.502   6.216  0.4688 -0.5763 -0.5278
 1330WAT      O 6039   5.055   4.259   5.226  0.1242 -0.5455 -0.3104
 1330WAT     H1 6040   5.080   4.342   5.213 -1.9693  0.2544  0.3341
 1330WAT     H2 6041   4.983   4.252   5.177 -2.1093 -0.6144  2.6915
 1330WAT    EPW 6042   5.048   4.270   5.217 -0.5150 -0.4375  0.2283
 1331WAT      O 6043   5.054   3.498   5.274 -0.4313  0.4280  0.3449
 1331WAT     H1 6044   5.035   3.461   5.198  0.2362  1.1463 -0.1854
 1331WAT     H2 6045   5.134   3.468   5.293  0.1453  1.6054 -0.1240
 1331WAT    EPW 6046   5.063   3.488   5.266 -0.2475  0.7080  0.1973
 1332WAT      O 6047   1.877   6.428   0.205 -0.3243  0.3852 -0.2103
 1332WAT     H1 6048   1.792   6.412   0.195 -0.0737 -1.2473  0.1075
 1332WAT     H2 6049   1.896   6.396   0.284  0.5499  0.9497 -0.1701
 1332WAT    EPW 6050   1.868   6.421   0.215 -0.1581  0.2274 -0.1574
 1333WAT      O 6051   5.336   3.492   1.391  0.0923  0.3672 -0.4586
 1333WAT     H1 6052   5.421   3.486   1.374  0.3836  0.6518  0.8277
 1333WAT     H2 6053   5.313   3.569   1.358  0.1982  0.0739 -1.2537
 1333WAT    EPW 6054   5.345   3.502   1.384  0.1510  0.3659 -0.3861
 1334WAT      O 6055   6.921   1.076   4.913 -0.1090 -0.8686  0.0214
 1334WAT     H1 6056   6.858   1.034   4.869  1.1880 -1.8653 -0.9621
 1334WAT     H2 6057   6.949   1.016   4.971 -0.5728 -0.1664  1.0066
 1334WAT    EPW 6058   6.916   1.061   4.915  0.0141 -0.9121  0.0216
 1335WAT      O 6059   6.839   3.344   3.594  0.3010 -0.2190 -0.7399
 1335WAT     H1 6060   6.908   3.325   3.644  0.2578  0.3794 -0.4398
 1335WAT     H2 6061   6.790   3.394   3.646  0.5854  0.9987 -1.6022
 1335WAT    EPW 6062   6.842   3.349   3.609  0.3366  0.0493 -0.8230
 1336WAT      O 6063   3.713   3.292   5.802 -0.3954  0.2983 -0.1016
 1336WAT     H1 6064   3.794   3.261   5.788 -0.2987 -0.1336  1.2613
 1336WAT     H2 6065   3.676   3.290   5.723  1.0202  0.7985 -0.8176
 1336WAT    EPW 6066   3.720   3.287   5.788 -0.1720  0.3084 -0.0060
 1337WAT      O 6067   3.757   4.809   6.223  0.0450  0.3684 -0.7532
 1337WAT     H1 6068   3.683   4.795   6.268 -0.9922  0.0585 -2.4600
 1337WAT     H2 6069   3.729   4.845   6.149  1.6070  0.0168 -1.5511
 1337WAT    EPW 6070   3.742   4.813   6.219  0.1225  0.2707 -1.1232
 1338WAT      O 6071   7.450   6.815   0.204 -0.5457 -0.5343 -0.3401
 1338WAT     H1 6072   7.419   6.896   0.204 -0.7214 -0.6004 -0.2628
 1338WAT     H2 6073   7.382   6.766   0.178 -0.5340 -0.6868 -0.0993
 1338WAT    EPW 6074   7.435   6.819   0.200 -0.5699 -0.5666 -0.2931
 1339WAT      O 6075   5.794   1.854   6.010 -0.3463 -0.8673  0.0232
 1339WAT     H1 6076   5.778   1.938   5.992  3.0381 -0.2661 -0.8811
 1339WAT     H2 6077   5.746   1.811   5.952  0.4726  0.6283 -1.8538
 1339WAT    EPW 6078   5.785   1.860   5.999  0.2746 -0.5576 -0.3877
 1340WAT      O 6079   6.874   5.375   6.094  0.4934  0.5246 -0.3805
 1340WAT     H1 6080   6.797   5.362   6.054  1.1591 -0.1070 -1.5082
 1340WAT     H2 6081   6.922   5.308   6.068  1.0440  0.1889  1.3830
 1340WAT    EPW 6082   6.869   5.363   6.084  0.6730  0.3817 -0.2866
 1341WAT      O 6083   5.374   5.302   7.675 -0.0797 -0.7559 -0.1118
 1341WAT     H1 6084   5.363   5.333   7.595  0.7502 -0.3818 -0.0836
 1341WAT     H2 6085   5.348   5.367   7.727 -2.1373 -1.5526 -0.0544
 1341WAT    EPW 6086   5.369   5.316   7.671 -0.2611 -0.8184 -0.0992
 1342WAT      O 6087   4.008   3.971   6.355 -0.1497 -0.3606 -0.1688
 1342WAT     H1 6088   4.020   3.962   6.269 -1.1821 -0.4425 -0.3166
 1342WAT     H2 6089   4.073   4.025   6.379 -0.1715  0.1005 -1.0945
 1342WAT    EPW 6090   4.019   3.978   6.346 -0.3054 -0.3046 -0.3274
 1343WAT      O 6091   6.439   7.056   0.190  0.7724  0.2041  0.4987
 1343WAT     H1 6092   6.403   7.037   0.267  1.8106 -1.7447  0.5710
 1343WAT     H2 6093   6.378   7.103   0.149 -0.6254 -0.5018  1.7096
 1343WAT    EPW 6094   6.425   7.060   0.195  0.7193 -0.1881  0.6883
 1344WAT      O 6095   5.524   5.009   1.771  0.2129  0.0779 -0.3437
 1344WAT     H1 6096   5.449   4.965   1.764  0.0780  0.3815 -0.8625
 1344WAT     H2 6097   5.582   4.948   1.795  0.2679 -0.6273 -2.1192
 1344WAT    EPW 6098   5.522   4.994   1.774  0.2011  0.0186 -0.6826
 1345WAT      O 6099   5.874   5.183   5.045 -0.5250 -0.6501 -0.3337
 1345WAT     H1 6100   5.844   5.103   5.031  0.2659 -1.4563  2.1280
 1345WAT     H2 6101   5.960   5.175   5.032 -0.4372 -0.2046 -0.0385
 1345WAT    EPW 6102   5.883   5.170   5.041 -0.3952 -0.7034  0.0735
 1346WAT      O 6103   4.070   3.956   5.559 -0.1724  0.0873 -0.3679
 1346WAT     H1 6104   4.079   3.894   5.498 -2.1119 -1.1191  0.4797
 1346WAT     H2 6105   3.984   3.970   5.562  0.1000  1.9851  0.3424
 1346WAT    EPW 6106   4.059   3.949   5.550 -0.4186  0.1894 -0.1378
 1347WAT      O 6107   2.748   4.142   0.564 -0.3049  0.2593  0.3636
 1347WAT     H1 6108   2.772   4.067   0.602 -0.3023 -0.4584 -0.9983
 1347WAT     H2 6109   2.806   4.153   0.500  0.0765  1.7793  0.9130
 1347WAT    EPW 6110   2.760   4.133   0.560 -0.2482  0.3778  0.2436
 1348WAT      O 6111   6.080   5.741   3.258 -0.3303 -0.0887 -0.4090
 1348WAT     H1 6112   6.096   5.809   3.205  0.9873 -1.1645 -1.4433
 1348WAT     H2 6113   6.159   5.721   3.290 -1.1939  1.3208  3.0738
 1348WAT    EPW 6114   6.094   5.748   3.255 -0.2633 -0.0394 -0.0473
 1349WAT      O 6115   2.785   1.174   6.918  0.1563 -0.3403  0.6346
 1349WAT     H1 6116   2.700   1.164   6.904  0.4009 -1.8832 -0.0367
 1349WAT     H2 6117   2.806   1.105   6.968  1.2117 -0.6818 -0.2320
 1349WAT    EPW 6118   2.776   1.162   6.923  0.3484 -0.6186  0.4075
 1350WAT      O 6119   5.419   2.602   7.258  0.1882 -0.5425 -0.6086
 1350WAT     H1 6120   5.349   2.570   7.298  0.0231  0.4498 -0.0488
 1350WAT     H2 6121   5.482   2.545   7.277 -0.6236 -1.9031 -1.8343
 1350WAT    EPW 6122   5.418   2.589   7.267  0.0439 -0.5969 -0.7070
 1351WAT      O 6123   5.659   2.408   0.603  0.1535 -0.3467 -0.7060
 1351WAT     H1 6124   5.741   2.386   0.624  0.5086 -0.1212 -1.8013
 1351WAT     H2 6125   5.612   2.339   0.627  0.9351 -1.3420 -1.9271
 1351WAT    EPW 6126   5.665   2.395   0.610  0.3214 -0.4604 -1.0482
 1352WAT      O 6127   6.438   0.638   6.167 -0.1514  0.0373 -0.1203
 1352WAT     H1 6128   6.485   0.611   6.235  0.5892 -1.9928 -1.3506
 1352WAT     H2 6129   6.482   0.607   6.098 -1.3682  1.2243 -1.4953
 1352WAT    EPW 6130   6.451   0.629   6.167 -0.2217 -0.0872 -0.5052
 1353WAT      O 6131   4.165   3.358   1.562  0.1885 -0.2346  0.2696
 1353WAT     H1 6132   4.131   3.386   1.637 -1.0467 -1.4051  0.1961
 1353WAT     H2 6133   4.249   3.379   1.568  0.3709 -1.2942  2.4996
 1353WAT    EPW 6134   4.172   3.365   1.574  0.0330 -0.5640  0.5882
 1354WAT      O 6135   6.165   2.561   7.790 -0.1141  0.2071 -0.0159
 1354WAT     H1 6136   6.135   2.626   7.739 -1.0549  0.6287  1.0369
 1354WAT     H2 6137   6.224   2.601   7.841  2.0475 -0.5280 -1.7668
 1354WAT    EPW 6138   6.170   2.577   7.790  0.0662  0.1608 -0.1190
 1355WAT      O 6139   2.083   3.936   0.446  0.4429  0.2594 -0.2979
 1355WAT     H1 6140   2.111   4.016   0.465  1.7838  0.1817 -1.7790
 1355WAT     H2 6141   2.001   3.949   0.418  0.7567  1.1673 -0.8233
 1355WAT    EPW 6142   2.075   3.950   0.444  0.6873  0.3821 -0.5943
 1356WAT      O 6143   6.678   5.073   0.228  0.0585 -0.0332 -0.6169
 1356WAT     H1 6144   6.601   5.034   0.241  0.5088 -1.9788 -3.0635
 1356WAT     H2 6145   6.657   5.150   0.195 -0.8800 -0.3662 -0.8318
 1356WAT    EPW 6146   6.664   5.078   0.225 -0.0136 -0.3698 -1.0100
 1357WAT      O 6147   2.698   0.316   1.546  0.1591  0.4568  0.1797
 1357WAT     H1 6148   2.732   0.236   1.537  0.0840  0.3876  0.4699
 1357WAT     H2 6149   2.618   0.307   1.513 -0.7085 -0.2291  2.2318
 1357WAT    EPW 6150   2.691   0.303   1.540  0.0199  0.3452  0.5257
 1358WAT      O 6151   1.053   2.919   6.104  0.3249  0.8091 -0.2080
 1358WAT     H1 6152   1.036   2.884   6.182  0.8031  2.2190  0.5484
 1358WAT     H2 6153   1.122   2.970   6.118 -0.6837  2.5202 -1.1153
 1358WAT    EPW 6154   1.061   2.921   6.117  0.2465  1.2701 -0.2303
 1359WAT      O 6155   3.556   1.364   6.454  0.1088 -0.0471  0.3624
 1359WAT     H1 6156   3.552   1.451   6.450  0.2724 -0.0551 -0.0855
 1359WAT     H2 6157   3.618   1.344   6.395 -0.2215 -0.4901  0.1602
 1359WAT    EPW 6158   3.565   1.373   6.444  0.0842 -0.1137  0.2664
 1360WAT      O 6159   7.218   6.096   6.006  0.1799 -0.3297  0.0937
 1360WAT     H1 6160   7.165   6.028   5.990 -0.8339  0.3060  0.7110
 1360WAT     H2 6161   7.194   6.123   6.085  1.0676  0.3245  0.1573
 1360WAT    EPW 6162   7.207   6.090   6.015  0.1613 -0.1391  0.1943
 1361WAT      O 6163   0.051   5.863   6.020  0.6224 -0.4700  0.1247
 1361WAT     H1 6164  -0.036   5.855   6.020  0.4477  0.9519  1.7525
 1361WAT     H2 6165   0.078   5.783   6.000 -1.0441 -1.5688  1.8405
 1361WAT    EPW 6166   0.042   5.850   6.017  0.3504 -0.4223  0.6186
 1362WAT      O 6167   4.136   3.937   0.381 -0.1709 -0.6207  0.1154
 1362WAT     H1 6168   4.138   3.995   0.316 -2.1780  0.2570  0.7651
 1362WAT     H2 6169   4.216   3.902   0.379 -0.1717 -0.7187 -2.8715
 1362WAT    EPW 6170   4.148   3.940   0.371 -0.4675 -0.5055 -0.2299
 1363WAT      O 6171   4.706   3.800   0.486  0.0270 -0.3301  0.4707
 1363WAT     H1 6172   4.676   3.793   0.567 -1.6185  0.6430 -0.0075
 1363WAT     H2 6173   4.744   3.723   0.471 -2.1075 -1.6157  1.2232
 1363WAT    EPW 6174   4.707   3.787   0.495 -0.5314 -0.3763  0.5113
 1364WAT      O 6175   6.094   1.143   4.766 -0.4175 -0.2174  0.1072
 1364WAT     H1 6176   6.127   1.194   4.703  1.1117 -1.1654  0.0978
 1364WAT     H2 6177   6.110   1.187   4.839 -0.6774  0.1112 -0.0318
 1364WAT    EPW 6178   6.101   1.157   4.767 -0.2300 -0.3089  0.0852
 1365WAT      O 6179   2.463   4.728   7.575 -0.6786  0.0347  0.4258
 1365WAT     H1 6180   2.545   4.706   7.595 -0.0859  0.1546 -1.6796
 1365WAT     H2 6181   2.472   4.793   7.518 -2.1989 -0.4664 -0.4431
 1365WAT    EPW 6182   2.476   4.734   7.570 -0.8157 -0.0216 -0.0136
 1366WAT      O 6183   0.518   5.873   7.595  0.2660  0.2357 -0.5464
 1366WAT     H1 6184   0.464   5.810   7.622  0.9828  0.9318  3.0772
 1366WAT     H2 6185   0.469   5.944   7.596  0.7879  0.6327  1.3694
 1366WAT    EPW 6186   0.503   5.874   7.599  0.4490  0.3972  0.2719
 1367WAT      O 6187   7.183   5.547   4.700  0.4250 -0.1928  0.4868
 1367WAT     H1 6188   7.195   5.615   4.647  0.6508  0.0936  0.8949
 1367WAT     H2 6189   7.206   5.579   4.779  1.7448 -1.0897  0.4962
 1367WAT    EPW 6190   7.188   5.562   4.704  0.6533 -0.2830  0.5485
 1368WAT      O 6191   7.178   3.666   3.734 -0.0876  0.0555 -0.1240
 1368WAT     H1 6192   7.210   3.656   3.653 -0.5878  1.0863 -0.4728
 1368WAT     H2 6193   7.224   3.610   3.782  1.2712  0.5135 -0.8473
 1368WAT    EPW 6194   7.189   3.657   3.729  0.0392  0.2754 -0.2824
 1369WAT      O 6195   6.427   4.860   5.058 -0.0566  0.3530 -0.1561
 1369WAT     H1 6196   6.397   4.867   4.976 -0.6910 -0.8679 -0.0475
 1369WAT     H2 6197   6.475   4.787   5.056 -0.4138  0.0919  0.6598
 1369WAT    EPW 6198   6.430   4.850   5.046 -0.2031  0.1340 -0.0196
 1370WAT      O 6199   7.552   6.578   0.344 -0.1605  0.8387  0.4273
 1370WAT     H1 6200   7.531   6.643   0.289  1.7250  0.6564 -0.5872
 1370WAT     H2 6201   7.593   6.520   0.293 -1.0829 -0.8059  1.4764
 1370WAT    EPW 6202   7.555   6.579   0.328 -0.0182  0.5689  0.4324
 1371WAT      O 6203   4.674   1.548   0.485  0.0435 -0.5698 -0.2559
 1371WAT     H1 6204   4.689   1.598   0.555  1.3111 -0.3889 -0.6271
 1371WAT     H2 6205   4.641   1.603   0.426  0.2252 -0.4459 -0.2408
 1371WAT    EPW 6206   4.671   1.563   0.487  0.2576 -0.5248 -0.3085
 1372WAT      O 6207   6.723   5.467   5.624 -0.0945  0.3202  0.0827
 1372WAT     H1 6208   6.765   5.502   5.692 -0.0379 -0.0283  0.2285
 1372WAT     H2 6209   6.647   5.441   5.658  0.4244 -1.0030  0.3149
 1372WAT    EPW 6210   6.718   5.468   5.639 -0.0095  0.0732  0.1385
 1373WAT      O 6211   2.737   3.406   2.297  0.1207  0.3348 -0.3361
 1373WAT     H1 6212   2.691   3.479   2.281  2.0456  1.7620  0.1620
 1373WAT     H2 6213   2.690   3.343   2.259 -1.4372  1.8866 -1.1495
 1373WAT    EPW 6214   2.723   3.408   2.289  0.1749  0.7748 -0.3827
 1374WAT      O 6215   4.811   7.111   4.146 -0.0259  0.2256 -0.1849
 1374WAT     H1 6216   4.812   7.074   4.067  2.8943 -1.0183  0.2904
 1374WAT     H2 6217   4.823   7.044   4.200  0.8350  1.3529  1.0880
 1374WAT    EPW 6218   4.813   7.096   4.142  0.5327  0.2084  0.0734
 1375WAT      O 6219   6.745   2.131   6.411  0.2249 -0.0575  0.1321
 1375WAT     H1 6220   6.792   2.195   6.448  1.6495 -0.2671 -1.1851
 1375WAT     H2 6221   6.761   2.062   6.463 -1.8448  0.6959  1.9438
 1375WAT    EPW 6222   6.755   2.130   6.424  0.1296  0.0228  0.2051
 1376WAT      O 6223   6.608   3.868   6.770 -0.2368  0.3936  0.0991
 1376WAT     H1 6224   6.566   3.945   6.770 -2.2453 -0.5901 -1.6209
 1376WAT     H2 6225   6.568   3.824   6.833  0.0013  0.3100  0.1914
 1376WAT    EPW 6226   6.596   3.873   6.779 -0.4983  0.2359 -0.1413
 1377WAT      O 6227   7.546   3.361   6.642 -0.4713  0.0710  0.1746
 1377WAT     H1 6228   7.543   3.355   6.729 -0.7039  3.2477  0.5187
 1377WAT     H2 6229   7.588   3.436   6.629 -2.1770  0.6858 -2.3811
 1377WAT    EPW 6230   7.551   3.371   6.653 -0.7576  0.6311 -0.1521
 1378WAT      O 6231   5.123   4.829   5.187  0.0644  0.1538 -0.3163
 1378WAT     H1 6232   5.051   4.799   5.148  0.4305  0.0449 -0.9295
 1378WAT     H2 6233   5.103   4.827   5.272 -0.2395 -0.9910 -0.3946
 1378WAT    EPW 6234   5.110   4.824   5.194  0.0736 -0.0314 -0.4185
 1379WAT      O 6235   5.038   0.860   7.212  0.3056 -0.2931 -0.3386
 1379WAT     H1 6236   5.124   0.846   7.209  0.1235 -1.8072  0.5063
 1379WAT     H2 6237   5.032   0.943   7.238  1.4953  0.1147 -1.2577
 1379WAT    EPW 6238   5.050   0.870   7.216  0.4545 -0.4566 -0.3495
 1380WAT      O 6239   1.445   2.690   6.608  0.4803 -0.8879  0.7308
 1380WAT     H1 6240   1.453   2.623   6.663 -0.4292 -1.8140 -0.2358
 1380WAT     H2 6241   1.471   2.658   6.532 -2.8530 -1.1599 -0.4379
 1380WAT    EPW 6242   1.450   2.675   6.605 -0.1464 -1.0649  0.4154
 1381WAT      O 6243   2.321   5.012   7.137 -0.1151 -0.2222  0.2497
 1381WAT     H1 6244   2.320   4.943   7.083 -0.3020 -0.0741  0.0655
 1381WAT     H2 6245   2.374   5.069   7.097 -1.9800  0.7871 -0.8950
 1381WAT    EPW 6246   2.329   5.010   7.123 -0.4182 -0.0512  0.0534
 1382WAT      O 6247   5.539   4.250   0.496  0.4983  0.0305 -0.3063
 1382WAT     H1 6248   5.601   4.254   0.435  0.8096  1.2897  0.0594
 1382WAT     H2 6249   5.465   4.246   0.450  0.8102 -1.1257 -0.7461
 1382WAT    EPW 6250   5.537   4.250   0.480  0.5904  0.0457 -0.3173
 1383WAT      O 6251   6.977   5.089   6.967 -0.5670 -0.0377  0.0924
 1383WAT     H1 6252   6.925   5.020   6.977 -0.4344  0.0042  1.2041
 1383WAT     H2 6253   6.947   5.146   7.026  0.1389  0.3459  0.0882
 1383WAT    EPW 6254   6.965   5.087   6.978 -0.4431  0.0252  0.2560
 1384WAT      O 6255   2.428   2.485   6.909 -0.5937  0.2368 -0.1109
 1384WAT     H1 6256   2.415   2.562   6.948 -1.2652 -0.0517  0.2689
 1384WAT     H2 6257   2.478   2.504   6.841 -2.4303  1.3640 -1.2436
 1384WAT    EPW 6258   2.433   2.499   6.905 -0.9642  0.3607 -0.2221
 1385WAT      O 6259   3.109   6.301   0.280  0.3718 -0.7240  0.2461
 1385WAT     H1 6260   3.049   6.240   0.260 -0.3163  0.5876 -1.9955
 1385WAT     H2 6261   3.181   6.274   0.238 -0.0737  0.1854 -1.1798
 1385WAT    EPW 6262   3.111   6.288   0.271  0.2043 -0.3959 -0.2957
 1386WAT      O 6263   6.505   1.397   3.358  0.5835 -0.0238 -0.3226
 1386WAT     H1 6264   6.557   1.333   3.331 -0.8433 -1.8159  0.9451
 1386WAT     H2 6265   6.518   1.400   3.444 -0.5744  0.2597 -0.1410
 1386WAT    EPW 6266   6.514   1.388   3.367  0.2017 -0.2467 -0.1085
 1387WAT      O 6267   3.013   3.805   0.080 -0.1507  0.3938  0.3207
 1387WAT     H1 6268   3.026   3.755   0.151  0.5409  1.0446  0.6632
 1387WAT     H2 6269   2.928   3.826   0.086 -0.0727  0.5467  1.0325
 1387WAT    EPW 6270   3.002   3.800   0.091 -0.0370  0.5125  0.4764
 1388WAT      O 6271   7.214   0.984   6.951  0.4323  0.0158 -0.1205
 1388WAT     H1 6272   7.281   1.017   6.997  0.8401  1.0979 -1.4273
 1388WAT     H2 6273   7.231   0.899   6.948  1.5226  0.2179 -0.0591
 1388WAT    EPW 6274   7.226   0.976   6.957  0.6536  0.2055 -0.3045
 1389WAT      O 6275   4.814   5.873   1.563  0.0200  1.0514 -0.0054
 1389WAT     H1 6276   4.831   5.899   1.645  0.9577  0.8091 -0.1117
 1389WAT     H2 6277   4.738   5.831   1.570  1.6525 -1.9707  1.4254
 1389WAT    EPW 6278   4.805   5.870   1.576  0.3997  0.5691  0.1903
 1390WAT      O 6279   7.187   2.210   7.093  0.8267 -0.6894 -0.4427
 1390WAT     H1 6280   7.121   2.233   7.041  0.6954  1.2789  0.5190
 1390WAT     H2 6281   7.235   2.156   7.043 -0.5010 -0.6713 -1.7892
 1390WAT    EPW 6282   7.185   2.205   7.078  0.6112 -0.3960 -0.4995
 1391WAT      O 6283   5.118   1.590   7.516 -0.0193  0.5831 -0.5187
 1391WAT     H1 6284   5.144   1.673   7.516  1.4893  0.1393  0.2841
 1391WAT     H2 6285   5.178   1.549   7.469  0.6928 -0.4336  1.1999
 1391WAT    EPW 6286   5.131   1.596   7.509  0.3088  0.3673 -0.1462
 1392WAT      O 6287   1.656   1.965   0.104  0.0587  0.3728 -0.0201
 1392WAT     H1 6288   1.672   2.028   0.162 -0.7490 -0.6937  1.4147
 1392WAT     H2 6289   1.615   1.903   0.150 -0.0575 -0.8018 -1.5865
 1392WAT    EPW 6290   1.652   1.965   0.119 -0.0778  0.0418 -0.0395
 1393WAT      O 6291   7.049   5.558   5.187  0.5560 -0.2199  0.8407
 1393WAT     H1 6292   7.045   5.536   5.271 -1.6797  1.3174  1.2210
 1393WAT     H2 6293   7.043   5.645   5.189 -0.0451 -0.1921 -0.9335
 1393WAT    EPW 6294   7.047   5.567   5.200  0.1370  0.0113  0.6348
 1394WAT      O 6295   3.016   1.606   5.003  0.3141 -0.2221 -0.5518
 1394WAT     H1 6296   3.096   1.583   5.031  1.3730  1.7195 -1.7365
 1394WAT     H2 6297   2.972   1.531   5.002  1.8807 -1.2357  0.8532
 1394WAT    EPW 6298   3.022   1.592   5.007  0.7020 -0.0850 -0.5192
 1395WAT      O 6299   7.117   6.452   7.061  0.0611  0.6242  0.2548
 1395WAT     H1 6300   7.196   6.417   7.068 -0.0059  0.7101  1.5706
 1395WAT     H2 6301   7.072   6.415   7.126 -0.9605  0.6274 -0.4318
 1395WAT    EPW 6302   7.122   6.441   7.072 -0.0997  0.6374  0.3478
 1396WAT      O 6303   1.484   3.266   6.824  0.6701 -0.0691 -0.4127
 1396WAT     H1 6304   1.568   3.243   6.820  1.0385  1.1682 -0.0328
 1396WAT     H2 6305   1.448   3.201   6.870  1.2317 -1.0559 -1.3069
 1396WAT    EPW 6306   1.491   3.253   6.830  0.8075 -0.0321 -0.4887
 1397WAT      O 6307   2.597   2.746   5.400 -0.3726  0.4866 -0.7295
 1397WAT     H1 6308   2.601   2.729   5.315  0.1984 -1.3333 -0.3787
 1397WAT     H2 6309   2.522   2.789   5.409 -1.3295 -0.8591 -1.9132
 1397WAT    EPW 6310   2.587   2.750   5.389 -0.4296  0.0190 -0.8525
 1398WAT      O 6311   5.097   2.131   7.669  0.1607 -0.4668 -0.2285
 1398WAT     H1 6312   5.055   2.091   7.734  0.2600 -1.4248 -0.7368
 1398WAT     H2 6313   5.105   2.069   7.608 -0.1518  0.4653 -1.2639
 1398WAT    EPW 6314   5.092   2.116   7.669  0.1292 -0.4706 -0.4566
 1399WAT      O 6315   7.140   5.263   7.638  0.1942  0.2053 -0.4454
 1399WAT     H1 6316   7.167   5.185   7.612 -1.3174 -0.4220 -0.2460
 1399WAT     H2 6317   7.063   5.273   7.598 -0.3854  0.8647  0.7663
 1399WAT    EPW 6318   7.133   5.253   7.629 -0.1147  0.2100 -0.2370
 1400WAT      O 6319   6.303   6.576   7.191  0.0502  0.7025  0.0222
 1400WAT     H1 6320   6.260   6.519   7.141  1.5867 -0.3456 -0.1510
 1400WAT     H2 6321   6.342   6.629   7.133 -0.4642  1.2642  0.1723
 1400WAT    EPW 6322   6.302   6.576   7.175  0.2012  0.6307  0.0188
 1401WAT      O 6323   1.986   2.147   0.103  0.9150  0.6669  0.2058
 1401WAT     H1 6324   2.058   2.194   0.117  0.5987  0.8544  1.3055
 1401WAT     H2 6325   1.927   2.185   0.154 -0.4071  1.4710 -1.8150
 1401WAT    EPW 6326   1.988   2.160   0.113  0.6730  0.8134  0.0697
 1402WAT      O 6327   6.006   0.335   0.340 -0.4589 -0.9564 -0.3036
 1402WAT     H1 6328   6.077   0.312   0.386  1.6440  1.0512 -2.2191
 1402WAT     H2 6329   5.983   0.411   0.375 -0.0820 -0.3996 -1.2178
 1402WAT    EPW 6330   6.013   0.343   0.352 -0.0925 -0.5776 -0.7216
 1403WAT      O 6331   0.723   1.425   5.914  0.1629 -0.3132  0.4540
 1403WAT     H1 6332   0.739   1.342   5.934 -1.1561 -0.7722 -0.3408
 1403WAT     H2 6333   0.698   1.423   5.831 -2.1140  0.5618  1.0476
 1403WAT    EPW 6334   0.722   1.412   5.905 -0.3683 -0.2517  0.4243
 1404WAT      O 6335   6.584   6.567   7.037 -0.2217  0.5058  0.0488
 1404WAT     H1 6336   6.567   6.513   7.103  1.5301 -2.5397 -1.7656
 1404WAT     H2 6337   6.670   6.581   7.043 -0.0626  0.3421 -1.4159
 1404WAT    EPW 6338   6.595   6.561   7.048  0.0606  0.0317 -0.4356
 1405WAT      O 6339   6.431   2.523   7.043  0.4304  0.0777  0.3629
 1405WAT     H1 6340   6.468   2.477   6.978  1.1886  2.0817 -0.7135
 1405WAT     H2 6341   6.349   2.493   7.045  0.9841 -1.5508 -0.0255
 1405WAT    EPW 6342   6.424   2.512   7.033  0.6242  0.1332  0.1465
 1406WAT      O 6343   3.567   0.948   0.733  0.3587  0.5886  0.2799
 1406WAT     H1 6344   3.589   0.995   0.803  0.0158 -0.7061  1.2981
 1406WAT     H2 6345   3.624   0.973   0.672 -0.1753  2.7184  0.5881
 1406WAT    EPW 6346   3.579   0.958   0.734  0.2292  0.7119  0.4758
 1407WAT      O 6347   4.117   2.033   4.167  0.2477  0.4841  0.3156
 1407WAT     H1 6348   4.192   1.989   4.177  0.4630  0.8139  0.1663
 1407WAT     H2 6349   4.122   2.097   4.226 -0.3351 -0.0381  0.9503
 1407WAT    EPW 6350   4.129   2.036   4.177  0.1934  0.4557  0.3873
 1408WAT      O 6351   5.290   0.812   4.622  0.7022  0.6608  0.5245
 1408WAT     H1 6352   5.286   0.806   4.535 -0.2896  2.9357  0.3445
 1408WAT     H2 6353   5.372   0.787   4.641  0.7196 -0.5557 -0.9516
 1408WAT    EPW 6354   5.301   0.807   4.612  0.5583  0.8172  0.2799
 1409WAT      O 6355   5.914   2.341   2.767 -0.4352 -0.2639  0.2751
 1409WAT     H1 6356   5.927   2.281   2.706  0.2054  1.6781 -1.6436
 1409WAT     H2 6357   5.975   2.324   2.827  0.4112 -0.9082 -0.7438
 1409WAT    EPW 6358   5.925   2.330   2.767 -0.2155 -0.0722 -0.1588
 1410WAT      O 6359   5.902   3.520   2.618  0.0080  0.0180  0.3370
 1410WAT     H1 6360   5.904   3.533   2.532 -1.8054  2.0260  0.5144
 1410WAT     H2 6361   5.956   3.581   2.649 -0.8995  0.6772  0.6794
 1410WAT    EPW 6362   5.910   3.531   2.610 -0.3939  0.4120  0.4138
 1411WAT      O 6363   6.569   0.127   0.560  0.6198 -0.0401  0.3518
 1411WAT     H1 6364   6.558   0.157   0.641 -2.2461 -0.2442  0.1523
 1411WAT     H2 6365   6.609   0.193   0.519 -1.5608  1.8320  1.0100
 1411WAT    EPW 6366   6.573   0.141   0.566 -0.1256  0.2063  0.4195
 1412WAT      O 6367   0.241   2.576   7.102 -0.5340 -0.1602  0.5309
 1412WAT     H1 6368   0.159   2.554   7.121 -1.1320  1.6574  0.1602
 1412WAT     H2 6369   0.287   2.542   7.169 -1.5497 -1.1957  0.7420
 1412WAT    EPW 6370   0.236   2.567   7.115 -0.7724 -0.0447  0.5073
 1413WAT      O 6371   0.876   1.770   7.718  0.1359 -0.3273  0.3772
 1413WAT     H1 6372   0.856   1.842   7.762  0.2191  0.0810 -0.2371
 1413WAT     H2 6373   0.950   1.742   7.757  1.8211  1.5767 -1.2141
 1413WAT    EPW 6374   0.884   1.776   7.730  0.3971  0.0143  0.0514
 1414WAT      O 6375   1.081   2.649   0.464 -0.2353 -0.0583 -0.1268
 1414WAT     H1 6376   0.996   2.644   0.483 -0.6000 -0.7541 -1.7478
 1414WAT     H2 6377   1.083   2.704   0.396  0.6758  0.2566  0.1344
 1414WAT    EPW 6378   1.069   2.656   0.457 -0.1546 -0.1146 -0.3277
 1415WAT      O 6379   3.230   0.970   5.515  0.3153  0.5701  0.2801
 1415WAT     H1 6380   3.261   0.992   5.436  0.1740 -0.9127 -0.2281
 1415WAT     H2 6381   3.207   0.886   5.505  0.3337  0.3381  1.9267
 1415WAT    EPW 6382   3.231   0.961   5.502  0.2971  0.3167  0.4483
 1416WAT      O 6383   5.541   1.717   0.653 -0.6627  0.4078 -0.3860
 1416WAT     H1 6384   5.546   1.790   0.700  0.4241 -0.7194  1.3285
 1416WAT     H2 6385   5.483   1.669   0.697 -3.1456  1.0140 -2.7275
 1416WAT    EPW 6386   5.533   1.721   0.666 -0.8690  0.3309 -0.4786
 1417WAT      O 6387   7.060   0.908   5.067  0.1363 -0.0855 -0.5157
 1417WAT     H1 6388   7.119   0.933   5.009  0.4900  1.9178  0.5976
 1417WAT     H2 6389   7.107   0.893   5.139 -0.5639  0.4711  0.0790
 1417WAT    EPW 6390   7.076   0.909   5.069  0.0851  0.2926 -0.2634
 1418WAT      O 6391   2.293   5.285   5.486 -0.3082 -0.3647 -0.6834
 1418WAT     H1 6392   2.232   5.336   5.522 -1.1233 -1.7477 -0.0403
 1418WAT     H2 6393   2.310   5.225   5.547  0.8652 -0.7015 -1.2908
 1418WAT    EPW 6394   2.287   5.283   5.500 -0.2553 -0.6187 -0.6781
 1419WAT      O 6395   7.283   6.469   6.194 -0.6001  0.4018 -0.2386
 1419WAT     H1 6396   7.229   6.405   6.216  0.2106 -0.3570 -0.3802
 1419WAT     H2 6397   7.250   6.500   6.120  0.6617 -1.9765 -1.9444
 1419WAT    EPW 6398   7.270   6.464   6.186 -0.2940 -0.0616 -0.5115
 1420WAT      O 6399   1.504   3.533   0.061  0.1607 -0.0774 -0.0168
 1420WAT     H1 6400   1.435   3.579   0.034 -0.7963 -2.1130 -1.2863
 1420WAT     H2 6401   1.470   3.460   0.092  1.7272 -1.0525 -0.4795
 1420WAT    EPW 6402   1.489   3.529   0.061  0.2507 -0.5222 -0.2727
 1421WAT      O 6403   6.175   5.242   6.238 -0.0482  0.0746 -0.1129
 1421WAT     H1 6404   6.108   5.204   6.197 -0.1582  0.7479 -0.5812
 1421WAT     H2 6405   6.245   5.206   6.199  0.0428 -2.8794  2.3513
 1421WAT    EPW 6406   6.175   5.231   6.226 -0.0510 -0.2623  0.1819
 1422WAT      O 6407   0.036   3.540   6.605  0.7502 -0.0741  0.2618
 1422WAT     H1 6408   0.030   3.618   6.566  0.7878 -0.4961 -0.6363
 1422WAT     H2 6409   0.095   3.498   6.556  0.0302 -0.9851  0.1341
 1422WAT    EPW 6410   0.044   3.545   6.592  0.6494 -0.2710  0.1103
 1423WAT      O 6411   6.123   4.504   7.809  0.2042 -0.0281 -0.2676
 1423WAT     H1 6412   6.140   4.573   7.758 -0.4163 -0.9324 -1.7913
 1423WAT     H2 6413   6.190   4.450   7.794 -0.5839 -0.8165 -1.1508
 1423WAT    EPW 6414   6.135   4.506   7.799 -0.0039 -0.2781 -0.6232
 1424WAT      O 6415   6.284   2.987   3.248  0.1320 -0.1514  0.1936
 1424WAT     H1 6416   6.367   2.988   3.274  0.8137  1.7588 -1.7365
 1424WAT     H2 6417   6.253   3.064   3.274 -0.7059 -0.3741 -0.1035
 1424WAT    EPW 6418   6.292   2.998   3.256  0.1089  0.0979 -0.1354
 1425WAT      O 6419   4.985   2.688   7.254  0.2668 -0.2237 -0.5213
 1425WAT     H1 6420   4.918   2.735   7.284 -0.2531 -1.2582 -0.0084
 1425WAT     H2 6421   5.034   2.674   7.325 -0.2173 -1.4621 -0.4083
 1425WAT    EPW 6422   4.982   2.693   7.269  0.1185 -0.5594 -0.4288
 1426WAT      O 6423   5.985   6.172   0.107  0.1452 -0.4722 -0.0278
 1426WAT     H1 6424   6.036   6.102   0.108 -0.8292 -1.2294 -0.7315
 1426WAT     H2 6425   6.018   6.221   0.043  0.2164 -0.7803 -0.2290
 1426WAT    EPW 6426   5.997   6.169   0.098  0.0118 -0.6295 -0.1615
 1427WAT      O 6427   4.714   3.095   1.061 -0.4852 -0.9699 -0.7629
 1427WAT     H1 6428   4.671   3.162   1.096 -0.0298 -0.6468 -0.8063
 1427WAT     H2 6429   4.789   3.131   1.033  0.7952 -1.8812  1.2344
 1427WAT    EPW 6430   4.719   3.110   1.062 -0.2288 -1.0568 -0.4743
 1428WAT      O 6431   2.124   7.600   6.911 -0.4894  0.2958  0.3176
 1428WAT     H1 6432   2.102   7.624   6.830 -0.5308 -0.1713  0.1868
 1428WAT     H2 6433   2.175   7.665   6.939  1.4612 -0.6010 -0.9389
 1428WAT    EPW 6434   2.128   7.613   6.903 -0.2074  0.0943  0.1127
 1429WAT      O 6435   3.004   5.202   6.995 -0.4993  0.0920  0.0233
 1429WAT     H1 6436   3.008   5.283   7.025  0.7026  0.3200 -0.6606
 1429WAT     H2 6437   3.071   5.198   6.939 -0.4240 -1.4224  0.1812
 1429WAT    EPW 6438   3.014   5.213   6.991 -0.3106 -0.0980 -0.0544
 1430WAT      O 6439   5.268   4.846   5.834  0.5065 -0.4390 -0.1882
 1430WAT     H1 6440   5.227   4.921   5.816  0.0093 -0.6509  0.0814
 1430WAT     H2 6441   5.330   4.869   5.891  0.4227 -0.2211 -0.1875
 1430WAT    EPW 6442   5.271   4.860   5.840  0.4207 -0.4381 -0.1482
 1431WAT      O 6443   3.172   0.052   4.802 -0.1525  0.1068 -0.6661
 1431WAT     H1 6444   3.258   0.043   4.793 -0.0177  1.4672 -1.0206
 1431WAT     H2 6445   3.139   0.013   4.731  0.2101  0.1360 -0.8526
 1431WAT    EPW 6446   3.180   0.045   4.790 -0.0790  0.3120 -0.7460
 1432WAT      O 6447   3.041   4.421   6.935 -0.5762 -0.4025 -0.2576
 1432WAT     H1 6448   3.057   4.470   6.865  0.0690  0.0118  0.1659
 1432WAT     H2 6449   3.113   4.430   6.983 -0.6385 -1.4170  0.0415
 1432WAT    EPW 6450   3.054   4.430   6.932 -0.4901 -0.4911 -0.1509
 1433WAT      O 6451   4.043   5.921   0.028 -0.2202  0.1317  0.2078
 1433WAT     H1 6452   4.009   5.991  -0.012 -0.1850 -0.2291 -0.4742
 1433WAT     H2 6453   4.009   5.854  -0.017 -0.1339 -0.2837  0.7578
 1433WAT    EPW 6454   4.033   5.922   0.015 -0.2023  0.0170  0.1883
 1434WAT      O 6455   4.685   0.926   7.169 -0.1553  0.7630  0.0819
 1434WAT     H1 6456   4.627   0.988   7.189 -0.3903  0.2925  0.8716
 1434WAT     H2 6457   4.752   0.971   7.136 -0.3465  1.4365  0.6021
 1434WAT    EPW 6458   4.687   0.942   7.167 -0.2182  0.7930  0.2754
 1435WAT      O 6459   4.788   0.268   2.275  0.0686  0.8719  0.6667
 1435WAT     H1 6460   4.828   0.330   2.320  1.4135  0.1824  0.4786
 1435WAT     H2 6461   4.818   0.194   2.311  0.2683  0.3217 -0.5890
 1435WAT    EPW 6462   4.798   0.266   2.287  0.2967  0.6888  0.4534
 1436WAT      O 6463   1.152   2.657   7.464 -0.4960  0.3119  0.1599
 1436WAT     H1 6464   1.228   2.632   7.498  0.1612  2.1309  0.1224
 1436WAT     H2 6465   1.093   2.626   7.521  0.3745  0.3000  1.0794
 1436WAT    EPW 6466   1.154   2.649   7.477 -0.2703  0.5788  0.2902
 1437WAT      O 6467   2.307   2.045   2.212  0.2235  0.5267  0.5907
 1437WAT     H1 6468   2.314   1.985   2.275  1.1536  0.9720  0.9138
 1437WAT     H2 6469   2.374   2.098   2.225  1.8173 -0.6179 -2.1060
 1437WAT    EPW 6470   2.318   2.044   2.223  0.5963  0.4234  0.2401
 1438WAT      O 6471   5.745   4.812   1.788 -0.6463  0.2378  0.2607
 1438WAT     H1 6472   5.752   4.725   1.784  1.5356  0.3935 -1.8005
 1438WAT     H2 6473   5.788   4.832   1.861  2.4635 -0.3228 -1.2140
 1438WAT    EPW 6474   5.752   4.802   1.798  0.1354  0.1779 -0.2616
 1439WAT      O 6475   0.492   3.322   7.461 -0.0397 -0.6676 -0.5137
 1439WAT     H1 6476   0.458   3.304   7.539  0.7836  0.2622  0.0874
 1439WAT     H2 6477   0.575   3.343   7.479 -0.5879  2.6000 -1.1894
 1439WAT    EPW 6478   0.499   3.322   7.475  0.0009 -0.0475 -0.5247
 1440WAT      O 6479   6.011   3.919   0.159  0.1402  0.9875  0.0164
 1440WAT     H1 6480   5.977   3.978   0.212 -1.5712  0.7550 -0.7694
 1440WAT     H2 6481   5.953   3.912   0.095  0.2218 -1.5660  0.0931
 1440WAT    EPW 6482   5.998   3.926   0.158 -0.1006  0.5759 -0.0884
 1441WAT      O 6483   1.826   6.293   7.728 -0.4112  0.2311  0.1291
 1441WAT     H1 6484   1.787   6.328   7.798 -0.4861  0.0454  0.1811
 1441WAT     H2 6485   1.910   6.314   7.738 -0.6021  1.3165 -0.3903
 1441WAT    EPW 6486   1.833   6.301   7.740 -0.4504  0.3640  0.0600
 1442WAT      O 6487   4.471   5.024   6.395 -0.1975  0.4939 -0.3093
 1442WAT     H1 6488   4.430   4.996   6.467  0.0101  0.8717 -0.0382
 1442WAT     H2 6489   4.428   5.096   6.374 -3.0382 -1.7257 -3.0419
 1442WAT    EPW 6490   4.459   5.030   6.403 -0.5865  0.2218 -0.6729
 1443WAT      O 6491   7.394   7.070   7.551 -0.4926 -0.0018  0.1535
 1443WAT     H1 6492   7.379   7.123   7.483 -0.3662  0.9911  0.8714
 1443WAT     H2 6493   7.475   7.042   7.538  0.3782  1.9140  0.9619
 1443WAT    EPW 6494   7.404   7.074   7.539 -0.3453  0.4279  0.3790
 1444WAT      O 6495   6.385   5.153   7.089  0.5060  0.3701  0.1302
 1444WAT     H1 6496   6.472   5.146   7.083  0.5562  0.6382  0.5290
 1444WAT     H2 6497   6.356   5.090   7.036  0.9556 -1.0994  1.5572
 1444WAT    EPW 6498   6.394   5.142   7.080  0.5798  0.1926  0.3999
 1445WAT      O 6499   1.745   4.877   4.501 -0.0036  0.2438 -0.0926
 1445WAT     H1 6500   1.676   4.867   4.554 -0.7500  0.0909 -1.0571
 1445WAT     H2 6501   1.712   4.922   4.434  0.9476  0.5145 -0.3925
 1445WAT    EPW 6502   1.730   4.882   4.499  0.0266  0.2612 -0.2794
 1446WAT      O 6503   5.920   4.912   0.440  0.0432 -0.0471 -0.2931
 1446WAT     H1 6504   5.841   4.922   0.476 -0.5090 -3.3561 -0.2509
 1446WAT     H2 6505   5.903   4.876   0.363  1.4901 -0.8933 -0.2527
 1446WAT    EPW 6506   5.906   4.908   0.434  0.1754 -0.6609 -0.2809
 1447WAT      O 6507   6.529   6.561   4.765 -0.1789 -0.5703 -0.2962
 1447WAT     H1 6508   6.579   6.619   4.808 -1.0161 -0.5282  0.6744
 1447WAT     H2 6509   6.582   6.529   4.704  1.4018 -1.3213  1.3643
 1447WAT    EPW 6510   6.545   6.565   4.763 -0.0691 -0.6750  0.0925
 1448WAT      O 6511   2.194   2.823   7.571  0.4584 -0.7749 -0.4823
 1448WAT     H1 6512   2.132   2.829   7.632  1.0782 -0.1398  0.0893
 1448WAT     H2 6513   2.154   2.851   7.499 -0.0713 -0.8548 -0.2243
 1448WAT    EPW 6514   2.179   2.828   7.569  0.4717 -0.6929 -0.3598
 1449WAT      O 6515   7.027   1.108   0.064 -0.2434  0.3810  0.4659
 1449WAT     H1 6516   7.010   1.157  -0.007  2.5092  1.5872  0.4986
 1449WAT     H2 6517   7.113   1.100   0.062 -0.3631 -2.1550  2.0807
 1449WAT    EPW 6518   7.037   1.114   0.053  0.1456  0.1846  0.7093
 1450WAT      O 6519   5.586   7.348   5.203  0.0644  0.0543  0.7927
 1450WAT     H1 6520   5.543   7.405   5.254 -0.6166  0.3665 -0.1094
 1450WAT     H2 6521   5.522   7.304   5.163  0.5626  0.5975 -0.6626
 1450WAT    EPW 6522   5.570   7.349   5.205  0.0374  0.1807  0.4444
 1451WAT      O 6523   6.576   5.352   5.953 -0.3209 -0.2218  0.1363
 1451WAT     H1 6524   6.517   5.362   5.890 -0.1772 -1.0932 -0.1487
 1451WAT     H2 6525   6.596   5.434   5.976  1.0992  0.2135 -2.3317
 1451WAT    EPW 6526   6.570   5.365   5.947 -0.0899 -0.2862 -0.2704
 1452WAT      O 6527   6.419   5.174   6.104  0.0607  0.7109 -0.2467
 1452WAT     H1 6528   6.468   5.240   6.075  1.0422  0.0963 -0.0181
 1452WAT     H2 6529   6.476   5.110   6.117 -0.8525 -0.1369 -0.2925
 1452WAT    EPW 6530   6.435   5.174   6.101  0.0708  0.4949 -0.2197
 1453WAT      O 6531   2.032   6.591   7.746 -0.1747  0.2077 -0.4094
 1453WAT     H1 6532   1.950   6.593   7.716 -0.5308 -1.1258  0.4044
 1453WAT     H2 6533   2.057   6.508   7.735  0.0235 -0.1261  1.9455
 1453WAT    EPW 6534   2.024   6.579   7.740 -0.1980 -0.0386  0.0586
 1454WAT      O 6535   4.876   4.043   1.596  0.1478  0.6982 -0.3890
 1454WAT     H1 6536   4.812   3.991   1.568  1.5003 -0.4504 -1.5094
 1454WAT     H2 6537   4.868   4.041   1.683  1.0923 -2.7438 -0.2639
 1454WAT    EPW 6538   4.865   4.035   1.605  0.4871  0.0201 -0.5360
 1455WAT      O 6539   3.387   3.075   6.855  0.2287  0.5385  0.1955
 1455WAT     H1 6540   3.387   3.094   6.770  2.0623 -0.0692  0.0180
 1455WAT     H2 6541   3.303   3.077   6.877 -0.6361 -2.1604 -2.2845
 1455WAT    EPW 6542   3.375   3.078   6.846  0.3718  0.0500 -0.1971
 1456WAT      O 6543   1.164   4.944   7.137  0.6035 -1.0384 -0.4093
 1456WAT     H1 6544   1.225   4.972   7.081  1.7159 -0.1822  1.1663
 1456WAT     H2 6545   1.208   4.932   7.211 -0.7490 -2.5585  0.2060
 1456WAT    EPW 6546   1.179   4.946   7.139  0.5680 -1.1365 -0.0857
 1457WAT      O 6547   6.774   4.774   0.530 -0.1700  0.1049 -0.1152
 1457WAT     H1 6548   6.843   4.817   0.498  0.1755  0.2856  0.8418
 1457WAT     H2 6549   6.806   4.695   0.548 -0.2205  0.1797  0.3007
 1457WAT    EPW 6550   6.789   4.769   0.528 -0.1264  0.1426  0.0876
 1458WAT      O 6551   3.030   5.448   7.150  0.4439 -0.2345  0.2014
 1458WAT     H1 6552   3.114   5.426   7.159  1.1381  1.9229 -0.4508
 1458WAT     H2 6553   3.031   5.535   7.151 -1.3872 -0.0222 -2.8451
 1458WAT    EPW 6554   3.043   5.458   7.151  0.2760  0.1156 -0.3450
 1459WAT      O 6555   3.613   6.369   1.723 -0.7389 -0.5165 -0.2390
 1459WAT     H1 6556   3.527   6.378   1.722 -0.7801 -0.9198 -0.9851
 1459WAT     H2 6557   3.624   6.286   1.751 -0.6251 -0.7544 -0.9795
 1459WAT    EPW 6558   3.602   6.358   1.727 -0.7282 -0.6112 -0.4586
 1460WAT      O 6559   5.200   2.232   0.652 -0.3495  0.2302  0.3686
 1460WAT     H1 6560   5.132   2.195   0.693 -1.2654  0.7283 -0.6631
 1460WAT     H2 6561   5.269   2.191   0.686 -1.2710 -1.9486 -0.2261
 1460WAT    EPW 6562   5.200   2.220   0.663 -0.6210 -0.0181  0.1284
 1461WAT      O 6563   1.570   4.004   0.018  0.4703  0.0738 -0.1455
 1461WAT     H1 6564   1.533   3.932  -0.015  1.2204  0.0445 -0.9518
 1461WAT     H2 6565   1.653   3.998  -0.006  0.2800  1.8891 -1.4489
 1461WAT    EPW 6566   1.577   3.992   0.010  0.5530  0.3376 -0.4571
 1462WAT      O 6567   2.695   3.468   6.657 -0.3688 -0.2475 -0.3685
 1462WAT     H1 6568   2.742   3.416   6.606  3.2577  1.2060  1.0804
 1462WAT     H2 6569   2.697   3.427   6.735 -0.3080  0.4749  0.0198
 1462WAT    EPW 6570   2.702   3.454   6.661  0.1759  0.0739 -0.0971
 1463WAT      O 6571   5.598   7.388   5.512  0.0150  0.3952 -0.1104
 1463WAT     H1 6572   5.526   7.374   5.464 -0.5669  1.2025  0.5003
 1463WAT     H2 6573   5.650   7.321   5.491 -0.7932 -0.0407 -0.7871
 1463WAT    EPW 6574   5.595   7.376   5.502 -0.1903  0.4501 -0.1202
 1464WAT      O 6575   5.442   4.129   6.145 -0.0759 -0.1331 -0.1263
 1464WAT     H1 6576   5.416   4.057   6.187  0.5261 -0.0146  0.4561
 1464WAT     H2 6577   5.453   4.187   6.209 -1.6598  0.8503 -0.6724
 1464WAT    EPW 6578   5.440   4.127   6.160 -0.2209  0.0297 -0.1209
 1465WAT      O 6579   7.158   3.873   7.421  0.3070  0.2518  0.4765
 1465WAT     H1 6580   7.133   3.810   7.476  0.1718 -0.6174 -0.5294
 1465WAT     H2 6581   7.230   3.906   7.458 -0.0413  0.0029  1.3835
 1465WAT    EPW 6582   7.165   3.868   7.434  0.2356  0.0867  0.4619
 1466WAT      O 6583   5.962   2.383   1.087  0.1058 -0.2564  0.2368
 1466WAT     H1 6584   5.893   2.332   1.071  0.2880  0.0426 -1.7248
 1466WAT     H2 6585   6.022   2.326   1.115 -0.4047 -0.7693  0.3239
 1466WAT    EPW 6586   5.961   2.367   1.088  0.0573 -0.2880 -0.0401
 1467WAT      O 6587   7.531   3.546   7.095 -0.3439 -0.3647 -0.0523
 1467WAT     H1 6588   7.537   3.513   7.176 -0.4509  0.3947  0.2725
 1467WAT     H2 6589   7.614   3.553   7.070 -0.3088 -0.5731  0.0016
 1467WAT    EPW 6590   7.544   3.542   7.104 -0.3545 -0.2833  0.0037
 1468WAT      O 6591   5.620   6.645   1.134  0.0922  0.1239  0.0602
 1468WAT     H1 6592   5.600   6.650   1.049 -0.0840  2.2052  0.1906
 1468WAT     H2 6593   5.584   6.569   1.159 -1.3342  0.3038 -1.3282
 1468WAT    EPW 6594   5.612   6.634   1.125 -0.1445  0.4579 -0.1256
 1469WAT      O 6595   5.986   2.144   7.855  0.2310 -0.2573 -0.3971
 1469WAT     H1 6596   5.935   2.212   7.873  0.3994 -0.6499  1.8468
 1469WAT     H2 6597   6.063   2.181   7.839 -0.2236  0.1987 -1.6921
 1469WAT    EPW 6598   5.990   2.160   7.855  0.1887 -0.2479 -0.2569
 1470WAT      O 6599   0.716   1.791   3.949  0.3658  0.4607  0.0145
 1470WAT     H1 6600   0.726   1.721   3.899 -1.8065  0.7781 -1.0015
 1470WAT     H2 6601   0.715   1.857   3.893 -3.1959  0.7420  0.1357
 1470WAT    EPW 6602   0.717   1.790   3.934 -0.4812  0.5491 -0.1177
 1471WAT      O 6603   5.705   3.225   6.163 -0.2503  0.6746 -0.4195
 1471WAT     H1 6604   5.712   3.311   6.150 -0.8719  1.2940  2.5439
 1471WAT     H2 6605   5.784   3.202   6.191  0.1765  0.0343 -2.0414
 1471WAT    EPW 6606   5.718   3.235   6.165 -0.2791  0.6715 -0.2213
 1472WAT      O 6607   0.944   4.642   5.395  0.9160  0.2966 -0.0499
 1472WAT     H1 6608   0.992   4.711   5.371  0.6946 -0.3935 -2.9083
 1472WAT     H2 6609   0.868   4.677   5.418  1.0391  1.0814 -0.7819
 1472WAT    EPW 6610   0.940   4.658   5.395  0.9015  0.3106 -0.5803
 1473WAT      O 6611   4.640   6.003   5.263 -0.0916 -0.3424 -0.6375
 1473WAT     H1 6612   4.710   6.053   5.277  0.4509 -1.2519  0.0773
 1473WAT     H2 6613   4.653   5.970   5.184 -0.6124  0.8596 -1.2511
 1473WAT    EPW 6614   4.652   6.006   5.254 -0.0884 -0.2992 -0.6226
 1474WAT      O 6615   7.009   2.546   6.387 -0.4315 -0.1556 -0.5476
 1474WAT     H1 6616   6.942   2.592   6.354  0.4028  0.9658 -0.7360
 1474WAT     H2 6617   7.049   2.603   6.439  0.8142 -0.5858 -1.0133
 1474WAT    EPW 6618   7.005   2.561   6.390 -0.1242 -0.0535 -0.6442
 1475WAT      O 6619   5.368   1.567   1.448  0.1532 -0.1986  0.3961
 1475WAT     H1 6620   5.345   1.563   1.532  0.3962  1.9025  0.6210
 1475WAT     H2 6621   5.343   1.647   1.424  3.0290  0.5355 -0.6003
 1475WAT    EPW 6622   5.361   1.578   1.457  0.6139  0.2202  0.2822
 1476WAT      O 6623   3.569   0.328   7.045  0.3189 -0.0067 -0.1878
 1476WAT     H1 6624   3.556   0.244   7.025  1.8654 -0.4192  0.3267
 1476WAT     H2 6625   3.644   0.326   7.091 -0.3740  1.4730  1.1118
 1476WAT    EPW 6626   3.578   0.315   7.049  0.4450  0.1509  0.0802
 1477WAT      O 6627   1.547   7.416   0.802  0.2604 -0.8245 -0.4935
 1477WAT     H1 6628   1.471   7.423   0.844  0.8429 -0.1579  0.4681
 1477WAT     H2 6629   1.556   7.330   0.791  1.2963 -1.3222  3.0725
 1477WAT    EPW 6630   1.537   7.404   0.806  0.4995 -0.7996  0.1753
 1478WAT      O 6631   5.498   2.878   3.352 -0.2907 -0.2301 -0.1607
 1478WAT     H1 6632   5.459   2.833   3.416  1.5069 -1.2155  0.3090
 1478WAT     H2 6633   5.561   2.923   3.393  0.7705 -0.7222 -1.1665
 1478WAT    EPW 6634   5.502   2.878   3.368  0.1316 -0.4483 -0.2399
 1479WAT      O 6635   4.114   4.220   2.331  0.2191  0.4212 -0.4325
 1479WAT     H1 6636   4.047   4.233   2.386 -0.8261  0.3391 -1.6419
 1479WAT     H2 6637   4.085   4.158   2.277  2.1688 -1.3503  0.4104
 1479WAT    EPW 6638   4.100   4.213   2.331  0.3527  0.1474 -0.4866
 1480WAT      O 6639   7.007   1.251   7.664  0.1402  0.0957  0.1641
 1480WAT     H1 6640   6.932   1.209   7.645  0.0244  1.1679 -2.0557
 1480WAT     H2 6641   7.063   1.221   7.604  1.2285  0.0855  1.1557
 1480WAT    EPW 6642   7.004   1.240   7.652  0.2839  0.2526 -0.0173
 1481WAT      O 6643   5.735   7.140   7.443 -0.1775 -0.0009 -0.3087
 1481WAT     H1 6644   5.774   7.204   7.489  3.0296  0.0577 -2.7658
 1481WAT     H2 6645   5.698   7.182   7.376 -3.6898 -0.2258  1.2670
 1481WAT    EPW 6646   5.736   7.155   7.440 -0.2225 -0.0255 -0.4389
 1482WAT      O 6647   5.269   2.979   0.680  0.5654 -0.2273  0.4618
 1482WAT     H1 6648   5.328   2.953   0.739  1.3291  0.0275 -0.1696
 1482WAT     H2 6649   5.249   2.906   0.637  1.9902  0.0219 -0.6806
 1482WAT    EPW 6650   5.275   2.964   0.682  0.8887 -0.1529  0.1998
 1483WAT      O 6651   4.967   4.954   0.570  0.2852 -0.5914 -0.0250
 1483WAT     H1 6652   4.942   4.912   0.643  0.0245  0.9792  0.8168
 1483WAT     H2 6653   5.050   4.975   0.586 -0.4819  2.0284  0.9811
 1483WAT    EPW 6654   4.975   4.951   0.583  0.1333  0.0276  0.2480
 1484WAT      O 6655   5.148   3.753   2.931  0.1988  0.4316  0.1943
 1484WAT     H1 6656   5.072   3.778   2.898 -1.1420 -2.9852  0.2948
 1484WAT     H2 6657   5.144   3.778   3.014 -0.6039  0.7167  0.0730
 1484WAT    EPW 6658   5.136   3.760   2.938 -0.1178 -0.0310  0.1913
 1485WAT      O 6659   6.547   4.600   6.658  0.1988 -0.2797  0.6279
 1485WAT     H1 6660   6.504   4.524   6.654  0.8464 -0.6755  0.9665
 1485WAT     H2 6661   6.484   4.658   6.674 -0.2616 -0.7953  0.7407
 1485WAT    EPW 6662   6.531   4.597   6.660  0.2264 -0.4143  0.6946
 1486WAT      O 6663   6.056   1.613   0.867 -0.1160 -0.6963 -0.0528
 1486WAT     H1 6664   5.994   1.653   0.913 -0.9582 -2.5241  0.4807
 1486WAT     H2 6665   6.049   1.529   0.891  1.2081 -1.2756 -1.5181
 1486WAT    EPW 6666   6.046   1.606   0.877 -0.0448 -1.0519 -0.1904
 1487WAT      O 6667   0.237   5.717   7.075  0.1433 -0.1448  0.5482
 1487WAT     H1 6668   0.220   5.632   7.081  0.0707 -0.3258 -1.3989
 1487WAT     H2 6669   0.315   5.720   7.037  0.6452  0.6845  1.5859
 1487WAT    EPW 6670   0.246   5.705   7.070  0.2067 -0.0490  0.4139
 1488WAT      O 6671   0.966   6.186   7.300 -0.2221 -0.1175  0.3897
 1488WAT     H1 6672   0.942   6.117   7.347  0.6675 -0.0227  1.0058
 1488WAT     H2 6673   1.039   6.213   7.338 -0.2100  0.7890 -0.2263
 1488WAT    EPW 6674   0.973   6.180   7.312 -0.0889  0.0304  0.3897
 1489WAT      O 6675   5.778   2.222   7.521 -0.8480 -0.0819  0.0569
 1489WAT     H1 6676   5.768   2.142   7.487 -0.9708  0.8851 -2.3768
 1489WAT     H2 6677   5.864   2.232   7.525 -0.8294 -0.0318 -0.4420
 1489WAT    EPW 6678   5.789   2.212   7.516 -0.8634  0.0684 -0.3763
 1490WAT      O 6679   6.262   3.599   7.845 -0.2870  0.2256 -0.0619
 1490WAT     H1 6680   6.256   3.680   7.877  1.3160  0.7953 -1.0821
 1490WAT     H2 6681   6.197   3.596   7.787 -0.4773  0.7147  0.1185
 1490WAT    EPW 6682   6.251   3.610   7.841 -0.0783  0.3820 -0.1859
 1491WAT      O 6683   7.364   5.576   7.504 -0.5787 -0.2844 -0.3401
 1491WAT     H1 6684   7.365   5.493   7.478  2.4151  0.0958 -1.9038
 1491WAT     H2 6685   7.433   5.581   7.558 -2.1957  0.6951  1.7752
 1491WAT    EPW 6686   7.374   5.565   7.509 -0.3753 -0.0836 -0.2586
 1492WAT      O 6687   6.413   5.695   6.992 -0.2215 -0.5371  0.2115
 1492WAT     H1 6688   6.494   5.723   6.979 -0.8544  0.5448 -1.7405
 1492WAT     H2 6689   6.424   5.617   7.030  1.6895 -0.1631  0.5265
 1492WAT    EPW 6690   6.427   5.688   6.996 -0.0327 -0.3220 -0.0303
 1493WAT      O 6691   6.559   3.571   0.452 -0.0941 -0.0866 -0.7679
 1493WAT     H1 6692   6.558   3.642   0.401  2.0441 -0.3954 -1.3743
 1493WAT     H2 6693   6.641   3.541   0.442 -0.3723 -1.5626  0.9513
 1493WAT    EPW 6694   6.571   3.577   0.443  0.1807 -0.3502 -0.6035
 1494WAT      O 6695   6.132   1.791   6.861 -0.3796  0.3121 -0.1650
 1494WAT     H1 6696   6.207   1.799   6.817  0.8348  1.0263  1.8374
 1494WAT     H2 6697   6.135   1.859   6.917 -2.4768  0.2743  0.0771
 1494WAT    EPW 6698   6.144   1.802   6.863 -0.5100  0.4120  0.1666
 1495WAT      O 6699   5.235   5.748   6.547 -0.5507 -0.4298  0.4614
 1495WAT     H1 6700   5.242   5.693   6.479  2.2250 -0.8330  0.9689
 1495WAT     H2 6701   5.203   5.821   6.511  0.2497 -0.8425 -1.1735
 1495WAT    EPW 6702   5.231   5.751   6.531 -0.0224 -0.5503  0.2948
 1496WAT      O 6703   7.651   4.311   7.051  0.0177 -0.1734 -0.1244
 1496WAT     H1 6704   7.655   4.304   6.964  0.5639  1.2478 -0.2337
 1496WAT     H2 6705   7.567   4.330   7.066  0.2075  1.0160 -0.4780
 1496WAT    EPW 6706   7.639   4.313   7.040  0.1264  0.2122 -0.1928
 1497WAT      O 6707   6.460   4.096   6.794 -0.0623 -0.1928 -0.0393
 1497WAT     H1 6708   6.435   4.120   6.874 -1.9450 -0.1961 -0.5782
 1497WAT     H2 6709   6.393   4.048   6.765  0.6388 -0.3165 -1.5600
 1497WAT    EPW 6710   6.446   4.093   6.802 -0.2368 -0.2116 -0.3436
 1498WAT      O 6711   4.397   6.396   7.143  0.0565 -1.0203  0.7834
 1498WAT     H1 6712   4.423   6.377   7.062 -1.0709 -1.8086  0.5703
 1498WAT     H2 6713   4.450   6.350   7.194 -0.2996 -1.8778  0.4022
 1498WAT    EPW 6714   4.409   6.386   7.138 -0.1626 -1.2634  0.6956
 1499WAT      O 6715   5.839   4.227   3.778  0.1926  0.1694 -0.3906
 1499WAT     H1 6716   5.768   4.214   3.729 -0.4187  1.2429  0.1576
 1499WAT     H2 6717   5.892   4.272   3.726  0.5219 -0.7301 -0.8383
 1499WAT    EPW 6718   5.836   4.232   3.763  0.1510  0.1951 -0.3758
 1500WAT      O 6719   6.880   6.659   6.122 -0.1374  0.1685  0.1157
 1500WAT     H1 6720   6.895   6.646   6.206 -1.4282  0.4443  0.4109
 1500WAT     H2 6721   6.814   6.716   6.121 -0.0029  0.3351 -1.0819
 1500WAT    EPW 6722   6.872   6.666   6.134 -0.3082  0.2339 -0.0176
 1501WAT      O 6723   2.762   5.263   3.006  0.1118  0.0682  0.0402
 1501WAT     H1 6724   2.778   5.349   3.010  0.5848  0.0636 -1.3031
 1501WAT     H2 6725   2.705   5.255   2.941  0.5949 -0.7005 -0.3039
 1501WAT    EPW 6726   2.756   5.274   2.997  0.2531 -0.0461 -0.2091
 1502WAT      O 6727   1.429   5.591   0.005  1.0534 -0.2470 -0.5653
 1502WAT     H1 6728   1.485   5.607  -0.060  1.7104  0.2390  0.0978
 1502WAT     H2 6729   1.479   5.551   0.065  1.0143  1.2903  0.5575
 1502WAT    EPW 6730   1.445   5.587   0.005  1.1447  0.0519 -0.3015
 1503WAT      O 6731   5.822   2.086   1.935  0.2021 -0.3372  0.1083
 1503WAT     H1 6732   5.803   2.171   1.935  1.6089  0.0058 -0.3508
 1503WAT     H2 6733   5.812   2.062   2.018 -0.6628  0.1619  0.1549
 1503WAT    EPW 6734   5.818   2.095   1.947  0.2822 -0.2128  0.0474
 1504WAT      O 6735   6.032   4.983   7.836  0.3917  0.8774 -0.5699
 1504WAT     H1 6736   6.075   5.023   7.901  0.1352 -0.6483  0.6188
 1504WAT     H2 6737   5.969   5.039   7.815 -1.0354  0.5155  2.2076
 1504WAT    EPW 6738   6.029   4.997   7.843  0.1430  0.5986  0.0160
 1505WAT      O 6739   5.964   2.489   4.023  0.6224 -0.7597 -0.5290
 1505WAT     H1 6740   5.923   2.496   4.100  2.5112  1.2033  0.4192
 1505WAT     H2 6741   6.032   2.437   4.041  1.0778 -0.2804 -0.8525
 1505WAT    EPW 6742   5.968   2.482   4.037  0.9687 -0.3989 -0.4367
 1506WAT      O 6743   7.041   6.507   3.769 -0.6762  0.2349  0.3349
 1506WAT     H1 6744   7.103   6.511   3.831 -0.4256 -0.9463  0.1862
 1506WAT     H2 6745   6.999   6.583   3.778  0.4876  0.8655  0.7534
 1506WAT    EPW 6746   7.044   6.519   3.780 -0.4673  0.1536  0.3748
 1507WAT      O 6747   6.394   0.873   7.505 -0.2300 -0.0085  0.2783
 1507WAT     H1 6748   6.432   0.914   7.438 -1.9784  1.2842  0.0058
 1507WAT     H2 6749   6.343   0.814   7.466 -2.1070  1.4844  0.3190
 1507WAT    EPW 6750   6.392   0.870   7.490 -0.7656  0.4030  0.2440
 1508WAT      O 6751   5.305   2.860   1.149  0.1428 -0.3512  0.3122
 1508WAT     H1 6752   5.261   2.807   1.095  1.5579 -0.1964 -1.0744
 1508WAT     H2 6753   5.246   2.920   1.171 -0.6407 -0.7433 -0.6255
 1508WAT    EPW 6754   5.290   2.861   1.144  0.2361 -0.3863 -0.0312
 1509WAT      O 6755   7.241   4.713   5.368  0.1643 -0.3928 -0.2069
 1509WAT     H1 6756   7.268   4.793   5.387 -2.0059  0.3788 -0.0909
 1509WAT     H2 6757   7.314   4.671   5.344  1.3158  1.6491 -0.4579
 1509WAT    EPW 6758   7.256   4.719   5.367  0.0138  0.0229 -0.2268
 1510WAT      O 6759   3.041   0.756   7.482  0.0700 -0.4167 -0.3122
 1510WAT     H1 6760   3.078   0.792   7.411  2.7209 -1.9755  0.1582
 1510WAT     H2 6761   3.077   0.799   7.548  0.9042 -1.7659  0.1559
 1510WAT    EPW 6762   3.051   0.768   7.481  0.5848 -0.8463 -0.1736
 1511WAT      O 6763   6.376   7.498   7.539 -0.1917 -0.1634 -0.5544
 1511WAT     H1 6764   6.313   7.510   7.598 -0.9625  1.5028 -1.6250
 1511WAT     H2 6765   6.442   7.545   7.570  0.4950 -1.7173  0.4476
 1511WAT    EPW 6766   6.376   7.507   7.552 -0.2041 -0.1469 -0.5645
 1512WAT      O 6767   6.252   5.467   4.524 -0.3483 -0.1133  0.7043
 1512WAT     H1 6768   6.248   5.541   4.478 -0.9111 -0.7073 -0.2629
 1512WAT     H2 6769   6.336   5.461   4.547 -0.4107  1.1085  1.3065
 1512WAT    EPW 6770   6.264   5.477   4.521 -0.4407 -0.0206  0.6504
 1513WAT      O 6771   5.675   0.024   1.616 -0.5205  0.0604 -0.2459
 1513WAT     H1 6772   5.591   0.012   1.594 -1.2058  1.5952  1.2884
 1513WAT     H2 6773   5.702  -0.057   1.636 -1.7227 -0.4317 -0.5031
 1513WAT    EPW 6774   5.666   0.010   1.616 -0.7993  0.2144 -0.0573
 1514WAT      O 6775   0.764   1.181   5.260  0.3628  0.0438  0.2749
 1514WAT     H1 6776   0.819   1.116   5.279  1.3579  0.9079  0.3874
 1514WAT     H2 6777   0.704   1.142   5.210  1.4041 -0.7964 -0.3668
 1514WAT    EPW 6778   0.763   1.165   5.255  0.6636  0.0473  0.1967
 1515WAT      O 6779   4.457   3.738   4.270  0.8223 -0.0379 -0.5144
 1515WAT     H1 6780   4.451   3.812   4.316  0.1270 -1.0006  1.0341
 1515WAT     H2 6781   4.375   3.722   4.246  0.7278 -0.9776  0.3393
 1515WAT    EPW 6782   4.444   3.747   4.273  0.7056 -0.3189 -0.1595
 1516WAT      O 6783   3.601   7.199   3.748  0.0240 -0.2340  0.3519
 1516WAT     H1 6784   3.585   7.185   3.833 -0.9274 -0.9948  0.0553
 1516WAT     H2 6785   3.689   7.202   3.745  0.3601 -4.1281  0.8326
 1516WAT    EPW 6786   3.612   7.197   3.760 -0.0669 -0.9216  0.3791
 1517WAT      O 6787   4.991   7.110   5.818 -0.6400 -0.0678 -0.1223
 1517WAT     H1 6788   5.001   7.042   5.763 -0.7817 -0.8685  0.8087
 1517WAT     H2 6789   5.070   7.146   5.821  0.1609 -1.8176  1.4086
 1517WAT    EPW 6790   5.004   7.105   5.810 -0.5426 -0.4446  0.2414
 1518WAT      O 6791   6.464   4.417   3.850  0.4565  0.3927 -0.5241
 1518WAT     H1 6792   6.507   4.483   3.813  1.4565 -0.0473 -0.1922
 1518WAT     H2 6793   6.528   4.367   3.884 -0.3759  0.4743  1.2811
 1518WAT    EPW 6794   6.480   4.419   3.850  0.4813  0.3398 -0.2084
 1519WAT      O 6795   0.072   7.546   7.243  0.2993 -0.5467  0.0979
 1519WAT     H1 6796   0.033   7.624   7.238  0.0989 -0.5766  1.0630
 1519WAT     H2 6797   0.074   7.519   7.160 -1.0632 -0.2100 -0.0652
 1519WAT    EPW 6798   0.067   7.553   7.230  0.0685 -0.5014  0.2164
 1520WAT      O 6799   0.641   5.717   5.967 -0.5308  0.2963 -0.2731
 1520WAT     H1 6800   0.591   5.707   6.038  0.1584 -0.7063  0.0901
 1520WAT     H2 6801   0.593   5.680   5.904 -0.3714 -0.4442  0.0274
 1520WAT    EPW 6802   0.626   5.710   5.968 -0.4055  0.0388 -0.1751
 1521WAT      O 6803   4.618   2.179   1.493 -0.5846  0.4198 -0.1516
 1521WAT     H1 6804   4.655   2.201   1.569 -0.9670  0.2519  0.0867
 1521WAT     H2 6805   4.582   2.101   1.510 -0.4157  0.2446 -0.5928
 1521WAT    EPW 6806   4.618   2.170   1.507 -0.6162  0.3691 -0.1816
 1522WAT      O 6807   5.805   4.257   4.743 -0.5176  0.4164 -0.0880
 1522WAT     H1 6808   5.807   4.170   4.737 -3.4408  0.2612 -0.0935
 1522WAT     H2 6809   5.879   4.282   4.702 -0.2454 -1.9932 -1.2327
 1522WAT    EPW 6810   5.816   4.248   4.736 -0.9093  0.0375 -0.2579
 1523WAT      O 6811   5.747   4.849   3.539 -0.0840  0.0534 -0.3032
 1523WAT     H1 6812   5.677   4.882   3.580  0.1129  0.7719 -0.5282
 1523WAT     H2 6813   5.758   4.771   3.576 -3.4839 -2.0032 -3.0484
 1523WAT    EPW 6814   5.739   4.842   3.551 -0.5571 -0.1443 -0.7420
 1524WAT      O 6815   0.828   6.394   5.016 -0.3842  0.2922  0.8665
 1524WAT     H1 6816   0.813   6.452   4.952  0.9143 -0.3186 -0.0216
 1524WAT     H2 6817   0.903   6.421   5.051 -1.4219  1.0301  2.6506
 1524WAT    EPW 6818   0.837   6.407   5.012 -0.3457  0.3110  0.9988
 1525WAT      O 6819   5.674   3.663   5.301 -0.1186  0.1443 -0.4932
 1525WAT     H1 6820   5.717   3.732   5.332 -0.0947  0.0342 -0.2817
 1525WAT     H2 6821   5.736   3.610   5.271 -0.0592 -0.3009  0.3888
 1525WAT    EPW 6822   5.689   3.665   5.301 -0.1063  0.0622 -0.3316
 1526WAT      O 6823   7.250   5.007   6.711  0.2538 -0.0706  0.0151
 1526WAT     H1 6824   7.223   5.086   6.685  1.8903  0.1155 -1.3072
 1526WAT     H2 6825   7.278   4.970   6.637  0.7738 -1.3768  0.8333
 1526WAT    EPW 6826   7.250   5.013   6.696  0.5724 -0.2361 -0.0594
 1527WAT      O 6827   6.575   1.013   3.657  0.3597  0.7689  0.0790
 1527WAT     H1 6828   6.656   0.984   3.641  0.3649  0.8353 -0.0159
 1527WAT     H2 6829   6.526   0.968   3.601  0.1539 -0.2540  1.0490
 1527WAT    EPW 6830   6.580   1.002   3.646  0.3301  0.6276  0.2083
 1528WAT      O 6831   7.460   4.496   5.286 -0.1300 -0.0188  0.0621
 1528WAT     H1 6832   7.415   4.440   5.236 -1.0803  0.7270  0.0546
 1528WAT     H2 6833   7.543   4.486   5.258 -0.6392  0.5398 -1.8541
 1528WAT    EPW 6834   7.466   4.486   5.274 -0.3456  0.1739 -0.2220
 1529WAT      O 6835   5.958   0.672   4.665 -0.2100  0.5906 -0.1514
 1529WAT     H1 6836   5.997   0.710   4.733  0.0428 -0.8992  0.5842
 1529WAT     H2 6837   6.005   0.599   4.652 -1.9682 -0.6536  0.0108
 1529WAT    EPW 6838   5.970   0.667   4.673 -0.4324  0.1867 -0.0188
 1530WAT      O 6839   4.806   3.004   7.070  0.3587 -0.3542  0.0113
 1530WAT     H1 6840   4.750   2.942   7.093  1.3748 -0.6498  1.9377
 1530WAT     H2 6841   4.866   2.962   7.023  0.2771 -0.5442  0.0767
 1530WAT    EPW 6842   4.806   2.989   7.067  0.4967 -0.4259  0.3056
 1531WAT      O 6843   7.322   6.611   4.833  0.2438 -0.2173  0.3104
 1531WAT     H1 6844   7.290   6.584   4.910 -2.2204  1.7918  0.1007
 1531WAT     H2 6845   7.285   6.688   4.820  2.8320  0.8828 -1.6075
 1531WAT    EPW 6846   7.312   6.618   4.842  0.2621  0.2420 -0.0039
 1532WAT      O 6847   6.550   3.524   6.702 -0.1824  0.5816  0.5961
 1532WAT     H1 6848   6.502   3.596   6.691  1.2028  1.4002 -0.4328
 1532WAT     H2 6849   6.596   3.519   6.628 -0.3939 -1.5201  0.5321
 1532WAT    EPW 6850   6.549   3.534   6.689 -0.0090  0.3921  0.4347
 1533WAT      O 6851   3.513   4.289   6.679 -0.1857 -0.3549  0.2218
 1533WAT     H1 6852   3.524   4.276   6.594  1.4156  2.1560 -0.0273
 1533WAT     H2 6853   3.429   4.266   6.692 -0.2594 -1.4760 -1.8303
 1533WAT    EPW 6854   3.502   4.284   6.669  0.0399 -0.1496 -0.1181
 1534WAT      O 6855   7.237   1.853   7.440 -0.6106 -0.2110 -0.0476
 1534WAT     H1 6856   7.204   1.852   7.521  3.1171  0.4694  1.6760
 1534WAT     H2 6857   7.250   1.937   7.424  2.1601 -0.4667  0.3599
 1534WAT    EPW 6858   7.234   1.865   7.450  0.3494 -0.1482  0.2672
 1535WAT      O 6859   1.734   5.584   0.556 -0.2007 -0.4044  0.3281
 1535WAT     H1 6860   1.702   5.645   0.610  0.0461 -0.4907  0.5730
 1535WAT     H2 6861   1.801   5.624   0.518 -0.6816 -0.1765 -0.2910
 1535WAT    EPW 6862   1.739   5.599   0.559 -0.2353 -0.3835  0.2728
 1536WAT      O 6863   1.820   0.740   5.530  0.3848  0.3411  0.4119
 1536WAT     H1 6864   1.763   0.716   5.592  0.7313  0.7771  0.9070
 1536WAT     H2 6865   1.842   0.821   5.553  0.3841  0.5740 -0.3870
 1536WAT    EPW 6866   1.815   0.749   5.543  0.4359  0.4399  0.3670
 1537WAT      O 6867   3.864   6.083   3.788 -0.7272  0.0837  0.3262
 1537WAT     H1 6868   3.861   6.091   3.875 -0.0553 -0.3701  0.3960
 1537WAT     H2 6869   3.857   6.165   3.759 -0.1631  0.3165  0.8322
 1537WAT    EPW 6870   3.862   6.096   3.797 -0.5446  0.0510  0.4112
 1538WAT      O 6871   7.045   1.368   3.954 -0.6212  0.3303  0.0821
 1538WAT     H1 6872   7.008   1.313   4.009  0.9885 -0.3306  0.5674
 1538WAT     H2 6873   7.008   1.445   3.973 -1.5119 -0.2358  0.6999
 1538WAT    EPW 6874   7.034   1.371   3.965 -0.5150  0.1490  0.2451
 1539WAT      O 6875   0.023   5.728   6.338 -0.0203 -0.2270 -0.4465
 1539WAT     H1 6876   0.045   5.719   6.422  0.6196 -1.9726 -0.7428
 1539WAT     H2 6877   0.047   5.809   6.318 -2.0934  0.9975  1.5694
 1539WAT    EPW 6878   0.029   5.738   6.348 -0.2320 -0.3040 -0.1924
 1540WAT      O 6879   4.458   5.192   7.546  0.2071  0.0405  0.2688
 1540WAT     H1 6880   4.515   5.212   7.609  0.5629  0.3745 -0.1548
 1540WAT     H2 6881   4.419   5.268   7.528 -1.3965 -0.4400  1.5356
 1540WAT    EPW 6882   4.461   5.206   7.552  0.0228  0.0189  0.3934
 1541WAT      O 6883   2.108   1.755   7.220 -0.7387 -0.0398 -0.2515
 1541WAT     H1 6884   2.098   1.714   7.296  1.1749 -0.4584 -0.1847
 1541WAT     H2 6885   2.085   1.695   7.161 -0.3065 -0.3862 -0.0712
 1541WAT    EPW 6886   2.103   1.740   7.222 -0.3922 -0.1528 -0.2150
 1542WAT      O 6887   2.087   7.269   7.860  0.7462  0.0899  0.3523
 1542WAT     H1 6888   2.062   7.207   7.916  3.7806 -1.3694  0.2726
 1542WAT     H2 6889   2.154   7.307   7.901  1.0697  1.0854 -1.0309
 1542WAT    EPW 6890   2.093   7.266   7.874  1.2422  0.0214  0.1362
 1543WAT      O 6891   6.069   6.968   4.798  0.6543 -0.7224  0.0299
 1543WAT     H1 6892   6.075   6.885   4.824  1.9895 -0.2187  1.4860
 1543WAT     H2 6893   6.140   7.006   4.832  1.8571  0.3680 -3.3315
 1543WAT    EPW 6894   6.080   6.961   4.807  1.0292 -0.4869 -0.2516
 1544WAT      O 6895   3.129   1.620   3.924  0.0438 -0.0257 -0.2706
 1544WAT     H1 6896   3.046   1.647   3.920 -0.0479 -0.3022 -0.2152
 1544WAT     H2 6897   3.162   1.663   3.992 -0.3482 -0.7374  0.3741
 1544WAT    EPW 6898   3.122   1.630   3.933 -0.0276 -0.1717 -0.1672
 1545WAT      O 6899   1.413   2.483   6.783 -0.3017  0.1333  0.4294
 1545WAT     H1 6900   1.495   2.458   6.764 -0.5915 -0.0803 -0.5605
 1545WAT     H2 6901   1.372   2.480   6.706 -1.0248  1.0846  0.7638
 1545WAT    EPW 6902   1.419   2.479   6.769 -0.4513  0.2423  0.3325
 1546WAT      O 6903   5.504   4.361   1.620  0.3114 -0.0073 -0.1292
 1546WAT     H1 6904   5.445   4.376   1.682 -0.6096 -2.5642 -0.2631
 1546WAT     H2 6905   5.549   4.293   1.650  1.1822 -0.0147 -1.3695
 1546WAT    EPW 6906   5.502   4.353   1.633  0.3040 -0.3861 -0.3322
 1547WAT      O 6907   4.553   2.292   0.844 -0.2143  0.2283 -0.0146
 1547WAT     H1 6908   4.633   2.276   0.816 -0.8532 -0.7426 -1.3809
 1547WAT     H2 6909   4.532   2.368   0.806  0.6575  1.4371  1.7688
 1547WAT    EPW 6910   4.561   2.301   0.834 -0.1799  0.2635  0.0470
 1548WAT      O 6911   7.673   5.491   4.214 -0.0852 -0.3363 -0.1591
 1548WAT     H1 6912   7.636   5.556   4.168 -0.4821 -0.1449  0.4229
 1548WAT     H2 6913   7.618   5.479   4.280 -0.5025 -1.9222 -0.7605
 1548WAT    EPW 6914   7.660   5.499   4.217 -0.2055 -0.5423 -0.1620
 1549WAT      O 6915   4.268   2.996   0.951  0.3586 -0.6087  0.2969
 1549WAT     H1 6916   4.306   3.042   0.887  1.6920 -1.4975  0.4276
 1549WAT     H2 6917   4.184   3.019   0.944  0.7153  0.5240 -0.7444
 1549WAT    EPW 6918   4.261   3.006   0.941  0.6083 -0.5727  0.1624
 1550WAT      O 6919   6.917   3.112   3.442 -0.0383  0.4934 -0.4442
 1550WAT     H1 6920   6.999   3.118   3.471 -0.7174  0.2033  1.7258
 1550WAT     H2 6921   6.885   3.192   3.456 -0.6121  0.1245  0.4751
 1550WAT    EPW 6922   6.925   3.124   3.449 -0.2234  0.3961  0.0121
 1551WAT      O 6923   3.008   1.111   3.576  0.3464 -0.6008 -0.4534
 1551WAT     H1 6924   2.945   1.081   3.524 -0.2670  1.8309 -1.2485
 1551WAT     H2 6925   3.039   1.180   3.532  1.7027 -0.1113  1.1717
 1551WAT    EPW 6926   3.004   1.117   3.561  0.4561 -0.1693 -0.3308
 1552WAT      O 6927   2.003   2.898   6.898  0.0435  0.5148 -0.1609
 1552WAT     H1 6928   1.920   2.892   6.870 -0.8378 -3.5971  2.4690
 1552WAT     H2 6929   2.047   2.847   6.843  0.0701 -0.1354  0.4411
 1552WAT    EPW 6930   1.997   2.889   6.886 -0.0827 -0.1887  0.3165
 1553WAT      O 6931   4.883   3.717   4.768  0.1681  0.1271  0.5505
 1553WAT     H1 6932   4.949   3.671   4.734 -0.0906  0.9776 -1.2033
 1553WAT     H2 6933   4.923   3.787   4.802  0.2796  0.0696  0.5385
 1553WAT    EPW 6934   4.899   3.721   4.768  0.1464  0.2443  0.2896
 1554WAT      O 6935   1.133   3.304   4.226  0.4435 -0.3697 -0.1841
 1554WAT     H1 6936   1.050   3.291   4.248  0.3298 -1.5762 -1.1810
 1554WAT     H2 6937   1.167   3.346   4.294 -0.8076 -0.5202  0.5527
 1554WAT    EPW 6938   1.126   3.308   4.239  0.2419 -0.5701 -0.2225
 1555WAT      O 6939   5.229   6.278   6.965  0.4489  0.4918  0.3483
 1555WAT     H1 6940   5.260   6.280   7.047  0.0638  0.1726  0.5078
 1555WAT     H2 6941   5.274   6.340   6.924 -0.0867  1.3825  1.0690
 1555WAT    EPW 6942   5.240   6.287   6.971  0.3129  0.5762  0.4784
 1556WAT      O 6943   3.884   5.691   3.273  0.2555  0.0576  0.1244
 1556WAT     H1 6944   3.939   5.694   3.205 -0.2660 -0.2587 -0.3161
 1556WAT     H2 6945   3.842   5.767   3.269  1.4279  0.7964  1.1288
 1556WAT    EPW 6946   3.886   5.703   3.263  0.3517  0.1200  0.2077
 1557WAT      O 6947   4.744   3.162   0.364  0.3019  0.9714 -0.5799
 1557WAT     H1 6948   4.742   3.126   0.284  1.4778  0.4782 -0.4124
 1557WAT     H2 6949   4.684   3.225   0.360 -1.2002 -0.4366 -1.1611
 1557WAT    EPW 6950   4.735   3.166   0.351  0.2537  0.6905 -0.6410
 1558WAT      O 6951   5.869   0.995   6.817 -0.2232  0.1783  0.1476
 1558WAT     H1 6952   5.800   1.023   6.862  0.4479  0.6121  0.9109
 1558WAT     H2 6953   5.915   0.950   6.876 -1.3114 -2.7503 -1.0137
 1558WAT    EPW 6954   5.866   0.992   6.832 -0.2848 -0.1903  0.0888
 1559WAT      O 6955   7.736   3.265   5.286  0.0749  0.3734  0.3237
 1559WAT     H1 6956   7.720   3.242   5.369  0.7551 -0.7065  0.1771
 1559WAT     H2 6957   7.687   3.209   5.240  0.3026  0.4552 -0.0193
 1559WAT    EPW 6958   7.727   3.253   5.291  0.2090  0.2259  0.2514
 1560WAT      O 6959   6.689   0.343   4.008 -0.3401 -0.5099  0.2566
 1560WAT     H1 6960   6.645   0.296   3.949  1.4513 -2.1349  0.1073
 1560WAT     H2 6961   6.740   0.395   3.960  1.0287 -1.7464  0.2946
 1560WAT    EPW 6962   6.690   0.344   3.992  0.1267 -0.9326  0.2401
 1561WAT      O 6963   2.269   4.028   6.639  0.2365 -0.1990 -0.0126
 1561WAT     H1 6964   2.236   4.071   6.708 -1.3414  0.7914 -1.3165
 1561WAT     H2 6965   2.198   3.992   6.602  0.5946  1.5444 -2.6319
 1561WAT    EPW 6966   2.253   4.029   6.644  0.0563  0.2049 -0.5921
 1562WAT      O 6967   7.592   7.454   7.561 -0.2298  0.0637  0.1734
 1562WAT     H1 6968   7.514   7.486   7.540 -0.6656 -0.9799  0.1776
 1562WAT     H2 6969   7.631   7.521   7.602 -1.3439  0.4094  0.6983
 1562WAT    EPW 6970   7.586   7.469   7.564 -0.4588 -0.0394  0.2515
 1563WAT      O 6971   4.402   4.400   3.765 -0.3980  0.5660  0.0145
 1563WAT     H1 6972   4.389   4.473   3.719 -1.9424  0.0267 -0.4650
 1563WAT     H2 6973   4.456   4.425   3.828  0.2431  1.7790 -0.9662
 1563WAT    EPW 6974   4.408   4.414   3.767 -0.5314  0.6655 -0.2012
 1564WAT      O 6975   4.103   2.425   5.402  0.3350  0.0953 -0.6202
 1564WAT     H1 6976   4.131   2.355   5.357 -1.5961  0.0798 -1.9235
 1564WAT     H2 6977   4.071   2.477   5.340 -0.2343  1.1805  0.5494
 1564WAT    EPW 6978   4.103   2.422   5.386 -0.0344  0.2533 -0.6400
 1565WAT      O 6979   6.516   0.347   7.200 -0.3937 -0.2775 -0.3141
 1565WAT     H1 6980   6.549   0.267   7.187 -1.9548 -0.7732 -1.5696
 1565WAT     H2 6981   6.557   0.396   7.140  0.7347 -0.0518  0.6091
 1565WAT    EPW 6982   6.527   0.342   7.189 -0.4576 -0.3174 -0.3632
 1566WAT      O 6983   4.433   7.124   3.532 -0.3807  0.6439 -0.1702
 1566WAT     H1 6984   4.349   7.117   3.513  0.0979 -2.2371 -1.7303
 1566WAT     H2 6985   4.444   7.071   3.600  0.1566  1.2621  0.2432
 1566WAT    EPW 6986   4.423   7.115   3.539 -0.2306  0.3096 -0.3396
 1567WAT      O 6987   6.913   3.491   0.063 -0.3341 -0.1538 -0.2603
 1567WAT     H1 6988   6.916   3.548   0.129  1.1713 -1.3233  0.7607
 1567WAT     H2 6989   6.840   3.446   0.078 -0.0598 -0.3440  0.5974
 1567WAT    EPW 6990   6.903   3.493   0.075 -0.0712 -0.3547  0.0172
 1568WAT      O 6991   4.460   4.997   5.343 -0.3095 -0.4797  0.5278
 1568WAT     H1 6992   4.538   4.972   5.314  0.2756  1.2104  0.5557
 1568WAT     H2 6993   4.421   5.030   5.272 -1.4424 -2.2146  0.2751
 1568WAT    EPW 6994   4.466   4.998   5.328 -0.3904 -0.4863  0.4946
 1569WAT      O 6995   0.343   6.307   6.806  0.5212  0.6223 -0.2953
 1569WAT     H1 6996   0.395   6.249   6.765 -0.1460 -2.0927  2.3082
 1569WAT     H2 6997   0.398   6.356   6.851  1.0190  0.7572 -1.0299
 1569WAT    EPW 6998   0.359   6.305   6.807  0.4962  0.2412 -0.0192
 1570WAT      O 6999   7.285   6.474   4.198 -0.0740  0.0851  0.1808
 1570WAT     H1 7000   7.249   6.403   4.234 -0.5585 -0.4841 -1.3549
 1570WAT     H2 7001   7.229   6.538   4.220  0.3205  0.0147  1.4983
 1570WAT    EPW 7002   7.271   6.473   4.207 -0.0873 -0.0094  0.1486
 1571WAT      O 7003   5.994   4.400   5.669  0.1222 -0.5915 -0.2476
 1571WAT     H1 7004   5.934   4.391   5.607 -0.0386  0.7418 -0.3131
 1571WAT     H2 7005   6.069   4.405   5.625 -0.0452  0.9576 -0.4247
 1571WAT    EPW 7006   5.997   4.400   5.653  0.0737 -0.1657 -0.2835
 1572WAT      O 7007   7.059   6.272   6.862 -0.1861  0.4535 -0.1639
 1572WAT     H1 7008   7.073   6.199   6.908 -4.8003 -0.8423 -0.2915
 1572WAT     H2 7009   7.096   6.335   6.910  0.5255 -1.5156  2.0446
 1572WAT    EPW 7010   7.067   6.271   6.876 -0.7626 -0.0288  0.1435
 1573WAT      O 7011   4.690   4.037   4.770  0.2191  0.1076 -0.0746
 1573WAT     H1 7012   4.622   3.992   4.740  0.4489  0.2168 -0.7804
 1573WAT     H2 7013   4.715   4.085   4.701  0.3297  0.8892  0.4988
 1573WAT    EPW 7014   4.684   4.037   4.755  0.2694  0.2392 -0.0941
 1574WAT      O 7015   1.761   5.482   5.976  0.0667 -0.1104 -0.0771
 1574WAT     H1 7016   1.771   5.403   5.940  0.4597 -0.2275  0.2786
 1574WAT     H2 7017   1.769   5.537   5.908  0.1276 -0.3593 -0.2713
 1574WAT    EPW 7018   1.764   5.479   5.960  0.1338 -0.1644 -0.0532
 1575WAT      O 7019   3.244   1.813   4.098  0.1180  0.2732 -0.3088
 1575WAT     H1 7020   3.261   1.852   4.021  0.3513  1.2562  0.2222
 1575WAT     H2 7021   3.303   1.848   4.152  1.1286 -1.7191 -0.0523
 1575WAT    EPW 7022   3.255   1.824   4.094  0.3018  0.1241 -0.1925
 1576WAT      O 7023   0.498   2.749   0.217  0.4054 -0.4406 -0.5338
 1576WAT     H1 7024   0.485   2.722   0.135  0.4251 -0.4894 -0.5209
 1576WAT     H2 7025   0.417   2.757   0.249  0.4200 -1.6600 -0.1573
 1576WAT    EPW 7026   0.484   2.746   0.210  0.4105 -0.6279 -0.4763
 1577WAT      O 7027   2.954   2.852   7.381  0.2491  0.1903 -0.0581
 1577WAT     H1 7028   2.880   2.894   7.361 -1.8443 -2.5122  1.3544
 1577WAT     H2 7029   2.938   2.770   7.355  3.8797 -0.0666 -2.1465
 1577WAT    EPW 7030   2.941   2.846   7.374  0.4762 -0.2468 -0.1579
 1578WAT      O 7031   2.087   6.488   1.208  0.1613 -0.1847 -0.3152
 1578WAT     H1 7032   2.023   6.452   1.162  0.3783 -0.9524 -0.0233
 1578WAT     H2 7033   2.115   6.423   1.259  1.2260  0.1153 -0.4955
 1578WAT    EPW 7034   2.082   6.473   1.209  0.3506 -0.2538 -0.2987
 1579WAT      O 7035   3.162   5.343   5.437 -0.1860 -0.4723 -0.3185
 1579WAT     H1 7036   3.125   5.265   5.452 -0.9976  0.0506  0.4118
 1579WAT     H2 7037   3.222   5.324   5.376  0.8443 -2.0080  1.0738
 1579WAT    EPW 7038   3.166   5.329   5.430 -0.1537 -0.6219 -0.0049
 1580WAT      O 7039   7.316   4.382   0.282 -0.4170  0.5831 -0.0570
 1580WAT     H1 7040   7.282   4.392   0.362 -0.9733 -1.1353 -0.0217
 1580WAT     H2 7041   7.290   4.453   0.239 -1.7365  0.6311  0.7693
 1580WAT    EPW 7042   7.307   4.394   0.288 -0.6941  0.3363  0.0702
 1581WAT      O 7043   3.697   4.116   0.330  0.3693 -0.0652  0.5513
 1581WAT     H1 7044   3.651   4.174   0.378 -2.5894 -2.1890  0.5633
 1581WAT     H2 7045   3.691   4.042   0.376  0.7876 -1.2768 -1.2390
 1581WAT    EPW 7046   3.689   4.114   0.344 -0.0060 -0.5579  0.2886
 1582WAT      O 7047   5.339   6.128   2.711 -0.2631  0.4906 -0.0100
 1582WAT     H1 7048   5.261   6.098   2.735 -1.2367  1.3183 -1.9258
 1582WAT     H2 7049   5.394   6.087   2.765 -1.9776 -0.2603  1.2801
 1582WAT    EPW 7050   5.336   6.118   2.722 -0.6602  0.5020 -0.1025
 1583WAT      O 7051   4.317   3.398   6.021  0.7790 -0.3657 -0.2507
 1583WAT     H1 7052   4.355   3.427   5.949 -1.4417  3.6270 -0.0862
 1583WAT     H2 7053   4.235   3.383   5.996  0.6489 -1.7408  0.8850
 1583WAT    EPW 7054   4.311   3.400   6.007  0.4317  0.0210 -0.0586
 1584WAT      O 7055   0.076   7.507   3.881  0.6761  0.0233  0.0744
 1584WAT     H1 7056   0.069   7.501   3.794 -1.6449  1.8426  0.0410
 1584WAT     H2 7057  -0.007   7.501   3.908  1.3925 -1.0767  2.2635
 1584WAT    EPW 7058   0.063   7.505   3.872  0.4391  0.1295  0.3928
 1585WAT      O 7059   5.742   1.348   3.561 -0.3363  0.6401  0.0922
 1585WAT     H1 7060   5.764   1.402   3.626 -0.0949 -0.3041  0.8167
 1585WAT     H2 7061   5.819   1.329   3.524 -0.1232 -0.9619  1.2670
 1585WAT    EPW 7062   5.757   1.353   3.565 -0.2692  0.2639  0.3728
 1586WAT      O 7063   5.894   0.754   2.418  0.4244 -0.0792 -0.2520
 1586WAT     H1 7064   5.944   0.825   2.428  0.7170 -0.1646 -1.0707
 1586WAT     H2 7065   5.832   0.779   2.362  0.0979 -0.2537  0.0258
 1586WAT    EPW 7066   5.892   0.768   2.411  0.4194 -0.1176 -0.3319
 1587WAT      O 7067   0.788   0.952   4.075  0.2537 -0.5388  0.2981
 1587WAT     H1 7068   0.744   0.883   4.045  0.4612 -1.4298  1.9043
 1587WAT     H2 7069   0.835   0.919   4.141  2.2374  0.6683 -0.4249
 1587WAT    EPW 7070   0.789   0.937   4.080  0.5774 -0.4921  0.4286
 1588WAT      O 7071   1.738   5.209   6.574 -0.5542  0.0193  0.7459
 1588WAT     H1 7072   1.708   5.146   6.626  1.7137  0.0542  2.2576
 1588WAT     H2 7073   1.740   5.279   6.626 -1.7321  1.0384 -0.5127
 1588WAT    EPW 7074   1.734   5.210   6.590 -0.3932  0.1750  0.7833
 1589WAT      O 7075   2.705   5.730   7.108 -0.3207  0.2341  0.0507
 1589WAT     H1 7076   2.643   5.785   7.134 -0.9145  0.0804 -0.9918
 1589WAT     H2 7077   2.669   5.651   7.117 -0.6101  0.1778 -1.3174
 1589WAT    EPW 7078   2.691   5.726   7.113 -0.4512  0.2031 -0.3054
 1590WAT      O 7079   7.130   1.019   6.687  0.1270  0.1463 -0.0949
 1590WAT     H1 7080   7.165   1.007   6.766  0.0908 -0.1984 -0.1294
 1590WAT     H2 7081   7.169   0.959   6.638 -0.6027 -0.3446 -0.1027
 1590WAT    EPW 7082   7.141   1.008   6.692  0.0138  0.0229 -0.1011
 1591WAT      O 7083   5.912   2.520   7.578  0.2453 -0.6679  0.2589
 1591WAT     H1 7084   5.834   2.544   7.546 -0.4349 -2.8832  0.1172
 1591WAT     H2 7085   5.897   2.513   7.664  0.7374  0.3936  0.4504
 1591WAT    EPW 7086   5.898   2.523   7.586  0.2175 -0.8383  0.2662
 1592WAT      O 7087   5.117   3.297   1.316 -0.2398  0.4468  0.0395
 1592WAT     H1 7088   5.172   3.362   1.301 -1.7541  1.4478 -1.5795
 1592WAT     H2 7089   5.062   3.300   1.248 -0.8948 -1.9749  0.3476
 1592WAT    EPW 7090   5.117   3.307   1.304 -0.5602  0.2369 -0.1541
 1593WAT      O 7091   7.219   4.807   4.134  0.1660  0.1900 -0.4318
 1593WAT     H1 7092   7.243   4.765   4.206  0.6852  0.9564 -0.1451
 1593WAT     H2 7093   7.243   4.754   4.069 -1.3289 -1.0395 -0.0370
 1593WAT    EPW 7094   7.226   4.793   4.135  0.0219  0.1216 -0.3312
 1594WAT      O 7095   4.159   2.889   5.146  0.1952 -0.1526  0.1731
 1594WAT     H1 7096   4.110   2.961   5.136 -1.3868 -1.1159  0.6312
 1594WAT     H2 7097   4.128   2.835   5.085  0.3062 -0.9801  0.8343
 1594WAT    EPW 7098   4.147   2.892   5.135 -0.0221 -0.4172  0.3384
 1595WAT      O 7099   1.811   1.668   4.504  0.4396 -0.2687  0.4423
 1595WAT     H1 7100   1.761   1.707   4.444 -2.4279 -1.3459  1.9576
 1595WAT     H2 7101   1.883   1.718   4.506 -1.0056  2.0585 -1.0695
 1595WAT    EPW 7102   1.815   1.681   4.495 -0.1975 -0.0840  0.4428
 1596WAT      O 7103   4.727   4.680   2.707 -0.2533  0.4048  0.2253
 1596WAT     H1 7104   4.660   4.659   2.759 -0.6277 -0.9420 -0.7423
 1596WAT     H2 7105   4.797   4.649   2.749 -0.5324 -0.5244  0.0058
 1596WAT    EPW 7106   4.727   4.673   2.721 -0.3498  0.0686  0.0500
 1597WAT      O 7107   0.400   4.428   5.606  0.0613  0.1429 -0.4238
 1597WAT     H1 7108   0.378   4.412   5.689  0.4287 -1.3017 -0.5691
 1597WAT     H2 7109   0.330   4.402   5.561 -0.3533  1.4365 -0.5536
 1597WAT    EPW 7110   0.387   4.422   5.611  0.0543  0.1206 -0.4644
 1598WAT      O 7111   7.296   7.418   0.218 -0.5954 -0.3822 -0.3756
 1598WAT     H1 7112   7.369   7.456   0.188 -0.2361 -0.2455  0.6290
 1598WAT     H2 7113   7.290   7.346   0.170 -0.3071  0.0604 -1.1023
 1598WAT    EPW 7114   7.306   7.413   0.206 -0.4997 -0.2967 -0.3345
 1599WAT      O 7115   4.139   4.352   7.248 -0.0893 -0.6838  0.3511
 1599WAT     H1 7116   4.164   4.268   7.244  1.0164 -0.3355 -0.7774
 1599WAT     H2 7117   4.202   4.390   7.294 -0.5755 -0.4547  0.8376
 1599WAT    EPW 7118   4.152   4.345   7.254  0.0022 -0.5985  0.2563
 1600WAT      O 7119   0.049   2.454   5.326  0.3707  0.0911  0.1234
 1600WAT     H1 7120   0.110   2.445   5.388  0.1130 -0.3434  0.3199
 1600WAT     H2 7121  -0.006   2.389   5.342  0.8201 -0.6497 -1.1500
 1600WAT    EPW 7122   0.050   2.443   5.338  0.3990 -0.0825 -0.0357
 1601WAT      O 7123   6.298   5.631   7.531 -0.1037  0.1968  0.5252
 1601WAT     H1 7124   6.357   5.573   7.560 -0.5360 -0.9453 -0.8169
 1601WAT     H2 7125   6.339   5.707   7.543  2.0665 -0.5911 -1.1645
 1601WAT    EPW 7126   6.313   5.634   7.537  0.1530 -0.0883  0.0774
 1602WAT      O 7127   7.010   2.279   5.406 -0.0443 -0.3853  0.9484
 1602WAT     H1 7128   7.022   2.244   5.485  0.9832 -0.1289  0.9136
 1602WAT     H2 7129   7.025   2.364   5.417  1.0355 -0.4744  0.3012
 1602WAT    EPW 7130   7.014   2.286   5.419  0.2670 -0.3605  0.8476
 1603WAT      O 7131   2.982   4.675   2.513  0.6599  0.4643  0.4917
 1603WAT     H1 7132   3.053   4.664   2.562  0.5156 -1.0729  0.4082
 1603WAT     H2 7133   2.993   4.618   2.448 -0.4148  0.5512  0.2191
 1603WAT    EPW 7134   2.994   4.665   2.511  0.4798  0.2501  0.4391
 1604WAT      O 7135   2.793   3.038   6.844  0.2024  0.1361  0.1551
 1604WAT     H1 7136   2.867   3.080   6.821  1.5571 -2.4792 -0.6806
 1604WAT     H2 7137   2.796   3.037   6.931  0.3353  1.3617  0.1837
 1604WAT    EPW 7138   2.804   3.044   6.853  0.4222 -0.0692  0.0359
 1605WAT      O 7139   6.936   4.868   4.147 -0.0846  0.3814 -0.2249
 1605WAT     H1 7140   6.880   4.814   4.107 -0.9716  1.7636 -0.9495
 1605WAT     H2 7141   7.014   4.832   4.131 -0.5775 -0.1833 -1.5194
 1605WAT    EPW 7142   6.939   4.855   4.138 -0.2884  0.5021 -0.5232
 1606WAT      O 7143   6.470   3.298   5.761 -0.1538 -0.2821 -0.4987
 1606WAT     H1 7144   6.540   3.327   5.720 -0.4868 -0.9630 -1.5835
 1606WAT     H2 7145   6.475   3.211   5.753  1.0441 -0.7145  3.0060
 1606WAT    EPW 7146   6.481   3.290   5.754 -0.0261 -0.4466 -0.1413
 1607WAT      O 7147   6.616   6.235   3.733  0.5391 -0.1925 -0.3584
 1607WAT     H1 7148   6.614   6.258   3.817  0.7351 -1.6682  0.0799
 1607WAT     H2 7149   6.533   6.243   3.707  0.2738 -0.8029  0.2856
 1607WAT    EPW 7150   6.604   6.240   3.742  0.5289 -0.5006 -0.1986
 1608WAT      O 7151   1.348   4.648   5.157 -0.1725  0.5208  0.4327
 1608WAT     H1 7152   1.341   4.734   5.150  0.5314  0.6497  1.1293
 1608WAT     H2 7153   1.282   4.618   5.109 -0.2772  1.4364 -0.0200
 1608WAT    EPW 7154   1.338   4.656   5.149 -0.0840  0.6751  0.4687
 1609WAT      O 7155   1.925   4.872   6.535  0.5345  0.2388 -0.2777
 1609WAT     H1 7156   1.980   4.938   6.552 -0.1662  0.4560  1.3332
 1609WAT     H2 7157   1.849   4.900   6.568 -0.7817  0.2100 -2.9684
 1609WAT    EPW 7158   1.922   4.886   6.542  0.2366  0.2667 -0.4372
 1610WAT      O 7159   5.624   5.614   1.739  0.2945  0.0669 -0.8333
 1610WAT     H1 7160   5.555   5.565   1.717  0.7255 -0.0840 -1.8919
 1610WAT     H2 7161   5.625   5.676   1.678 -0.2540  1.4585  0.4829
 1610WAT    EPW 7162   5.614   5.616   1.727  0.2771  0.2502 -0.7953
 1611WAT      O 7163   0.008   6.319   7.027 -0.5750 -0.1952  0.2233
 1611WAT     H1 7164   0.089   6.350   7.027  0.0063 -1.5569 -1.1518
 1611WAT     H2 7165  -0.028   6.356   7.097  1.1299  0.6742  0.7080
 1611WAT    EPW 7166   0.015   6.329   7.038 -0.2373 -0.2679  0.0917
 1612WAT      O 7167   2.425   6.527   2.267 -0.1793 -0.4634  0.1996
 1612WAT     H1 7168   2.498   6.573   2.254 -0.7757  0.2413 -0.7906
 1612WAT     H2 7169   2.410   6.490   2.189 -1.2282 -0.0711  0.2024
 1612WAT    EPW 7170   2.433   6.528   2.254 -0.4224 -0.3013  0.0537
 1613WAT      O 7171   1.545   7.234   7.073  0.2111 -0.2698  0.2151
 1613WAT     H1 7172   1.458   7.243   7.076  0.0393 -1.4360 -0.6711
 1613WAT     H2 7173   1.556   7.152   7.048  1.5812 -0.0287 -0.0328
 1613WAT    EPW 7174   1.534   7.223   7.070  0.3881 -0.4064  0.0475
 1614WAT      O 7175   7.027   5.465   6.738 -0.3939  0.1087  0.2852
 1614WAT     H1 7176   7.034   5.516   6.668  0.8594  0.6050  0.7362
 1614WAT     H2 7177   6.941   5.456   6.750 -0.7594 -2.0330 -2.7713
 1614WAT    EPW 7178   7.016   5.471   6.729 -0.2628 -0.1344 -0.0997
 1615WAT      O 7179   3.579   0.187   3.355  0.1599  0.2219  0.4772
 1615WAT     H1 7180   3.579   0.104   3.328  1.0877  0.6359 -0.8715
 1615WAT     H2 7181   3.551   0.232   3.286  1.9614  1.2482  0.3468
 1615WAT    EPW 7182   3.574   0.181   3.341  0.5631  0.4346  0.2587
 1616WAT      O 7183   5.957   0.918   7.044  0.3260 -0.4411 -0.0725
 1616WAT     H1 7184   5.982   0.997   7.072 -1.0621 -0.9975  3.0726
 1616WAT     H2 7185   6.031   0.872   7.046  1.4745  0.9145 -3.2649
 1616WAT    EPW 7186   5.972   0.923   7.048  0.2906 -0.3230 -0.0795
 1617WAT      O 7187   7.561   0.343   5.258 -0.5352 -0.6749  0.3096
 1617WAT     H1 7188   7.545   0.260   5.281 -0.9434 -0.5817  0.3772
 1617WAT     H2 7189   7.497   0.361   5.202 -1.2829  0.0375  1.3545
 1617WAT    EPW 7190   7.549   0.333   5.253 -0.7060 -0.5559  0.4739
 1618WAT      O 7191   1.536   7.358   7.628 -0.5024  0.2948  0.9315
 1618WAT     H1 7192   1.514   7.436   7.596  0.3409 -0.4564 -1.7031
 1618WAT     H2 7193   1.471   7.306   7.603  0.3322 -0.3723  0.0735
 1618WAT    EPW 7194   1.523   7.362   7.620 -0.2546  0.0853  0.4156
 1619WAT      O 7195   5.265   4.733   1.930 -0.6278 -0.3129  0.2024
 1619WAT     H1 7196   5.318   4.740   1.861  0.3045 -1.6592  0.7490
 1619WAT     H2 7197   5.186   4.744   1.895 -0.0784  1.0624 -0.7445
 1619WAT    EPW 7198   5.262   4.736   1.914 -0.4089 -0.3086  0.1432
 1620WAT      O 7199   0.703   1.652   6.180  0.2137  0.2662  0.6443
 1620WAT     H1 7200   0.788   1.656   6.202  0.3993 -1.7090  0.4135
 1620WAT     H2 7201   0.663   1.648   6.257  0.4540 -0.5676  0.7304
 1620WAT    EPW 7202   0.710   1.652   6.195  0.2766 -0.1487  0.6229
 1621WAT      O 7203   1.422   3.256   4.428  0.2846  0.0564 -0.3654
 1621WAT     H1 7204   1.399   3.182   4.468  0.5242 -0.3581 -0.9748
 1621WAT     H2 7205   1.355   3.309   4.444 -0.1402 -0.4648 -0.3686
 1621WAT    EPW 7206   1.409   3.253   4.436  0.2572 -0.0818 -0.4559
 1622WAT      O 7207   6.359   2.604   0.516  0.4431 -0.0246 -0.2663
 1622WAT     H1 7208   6.405   2.661   0.468  0.7035  0.1055  0.1295
 1622WAT     H2 7209   6.314   2.655   0.570  1.2594 -0.2065  0.6114
 1622WAT    EPW 7210   6.359   2.620   0.517  0.6022 -0.0323 -0.0782
 1623WAT      O 7211   1.187   5.348   6.754  0.6981 -0.3704 -0.2920
 1623WAT     H1 7212   1.269   5.366   6.776  1.3307 -0.9148 -2.0516
 1623WAT     H2 7213   1.140   5.388   6.817  2.2673  0.2042  0.5787
 1623WAT    EPW 7214   1.192   5.357   6.767  1.0233 -0.3659 -0.4233
 1624WAT      O 7215   3.675   4.151   0.921 -0.3626 -0.3147 -0.1642
 1624WAT     H1 7216   3.693   4.067   0.937 -0.9681 -0.5073 -0.4566
 1624WAT     H2 7217   3.637   4.149   0.843  0.6623  0.3752 -0.6962
 1624WAT    EPW 7218   3.672   4.138   0.912 -0.3007 -0.2412 -0.2860
 1625WAT      O 7219   0.037   3.589   7.027  0.0771 -0.3735 -0.0475
 1625WAT     H1 7220   0.066   3.636   6.960  0.9447 -0.0904  0.5020
 1625WAT     H2 7221   0.100   3.529   7.038 -0.6567 -1.1973 -0.2676
 1625WAT    EPW 7222   0.051   3.587   7.019  0.0969 -0.4534  0.0012
 1626WAT      O 7223   6.764   4.709   4.819 -0.1248  0.6014  0.1974
 1626WAT     H1 7224   6.730   4.686   4.896  0.2423 -2.3091 -0.3816
 1626WAT     H2 7225   6.824   4.647   4.804  0.2013  1.3828 -2.1867
 1626WAT    EPW 7226   6.768   4.696   4.828 -0.0224  0.2869 -0.2403
 1627WAT      O 7227   6.662   0.230   0.210 -0.8514 -0.0332  0.3480
 1627WAT     H1 7228   6.745   0.239   0.186 -1.7043 -0.5814 -3.4676
 1627WAT     H2 7229   6.651   0.291   0.271  2.4925 -0.5490  1.6682
 1627WAT    EPW 7230   6.673   0.240   0.215 -0.4834 -0.1904 -0.0206
 1628WAT      O 7231   6.813   0.163   0.789  0.0232 -0.8625  0.0614
 1628WAT     H1 7232   6.838   0.244   0.809  1.5403 -1.2415 -0.2063
 1628WAT     H2 7233   6.839   0.154   0.706  0.4770 -1.8490  0.3029
 1628WAT    EPW 7234   6.820   0.174   0.780  0.3143 -1.0642  0.0575
 1629WAT      O 7235   3.025   4.886   6.450  0.0940  0.0515 -0.6299
 1629WAT     H1 7236   3.090   4.930   6.410  0.6518 -1.6038 -1.6513
 1629WAT     H2 7237   3.050   4.886   6.534  1.4714 -0.5993 -1.0091
 1629WAT    EPW 7238   3.038   4.893   6.457  0.3798 -0.2891 -0.8368
 1630WAT      O 7239   0.891   2.603   5.174  0.2423  0.1373  0.6819
 1630WAT     H1 7240   0.957   2.570   5.128  0.3169  0.7998  0.3024
 1630WAT     H2 7241   0.850   2.655   5.116 -0.0979  0.4038  1.1552
 1630WAT    EPW 7242   0.894   2.606   5.158  0.2030  0.2745  0.6958
 1631WAT      O 7243   5.759   7.503   5.729  0.0773  0.3116 -0.1860
 1631WAT     H1 7244   5.829   7.468   5.690  0.8058  2.5978 -1.0910
 1631WAT     H2 7245   5.692   7.472   5.682  0.4084 -1.8272  0.6380
 1631WAT    EPW 7246   5.759   7.493   5.716  0.2338  0.3334 -0.1980
 1632WAT      O 7247   6.099   0.967   1.355 -0.5742  0.2678  0.1632
 1632WAT     H1 7248   6.148   0.990   1.423  0.6050  0.8364 -0.8388
 1632WAT     H2 7249   6.157   0.937   1.297 -1.6122 -0.7752 -0.3674
 1632WAT    EPW 7250   6.115   0.966   1.357 -0.5533  0.1977 -0.0632
 1633WAT      O 7251   0.649   5.075   4.612 -0.0999 -0.2018  0.3292
 1633WAT     H1 7252   0.687   5.109   4.542  1.2300 -1.7385  0.2410
 1633WAT     H2 7253   0.632   4.993   4.588 -0.3930 -0.5102  1.5245
 1633WAT    EPW 7254   0.652   5.068   4.598  0.0533 -0.4744  0.4927
 1634WAT      O 7255   0.235   4.400   7.655 -0.3278  0.0743 -0.3302
 1634WAT     H1 7256   0.249   4.330   7.606 -0.2777 -1.3352  1.5561
 1634WAT     H2 7257   0.211   4.366   7.732 -0.1978  2.1326  0.6930
 1634WAT    EPW 7258   0.233   4.385   7.659 -0.3012  0.1702  0.0996
 1635WAT      O 7259   6.425   4.119   5.184 -0.3600 -0.1731 -0.6570
 1635WAT     H1 7260   6.402   4.203   5.176 -2.3589 -0.5377  0.7394
 1635WAT     H2 7261   6.501   4.116   5.141 -0.2705  2.3089 -0.8649
 1635WAT    EPW 7262   6.433   4.131   5.176 -0.6420  0.1397 -0.4814
 1636WAT      O 7263   4.795   1.278   0.050 -0.5358 -1.0015  0.4863
 1636WAT     H1 7264   4.761   1.307  -0.026 -0.8418 -1.9008  0.2608
 1636WAT     H2 7265   4.803   1.350   0.098 -0.0250 -0.3624 -0.5206
 1636WAT    EPW 7266   4.791   1.293   0.046 -0.5055 -1.0399  0.3043
 1637WAT      O 7267   2.947   4.038   1.074 -0.0057 -0.0136 -0.1490
 1637WAT     H1 7268   2.944   4.096   1.010 -0.1868 -0.7312 -0.8025
 1637WAT     H2 7269   2.930   3.962   1.035 -1.0956 -0.3451  0.9085
 1637WAT    EPW 7270   2.944   4.035   1.059 -0.1934 -0.1685 -0.0893
 1638WAT      O 7271   4.841   1.224   6.240 -0.7996  0.0050 -0.3762
 1638WAT     H1 7272   4.909   1.255   6.285 -0.5151 -1.8219  0.5480
 1638WAT     H2 7273   4.844   1.269   6.164  2.2063 -0.8832 -0.9016
 1638WAT    EPW 7274   4.851   1.236   6.235 -0.3135 -0.3961 -0.3173
 1639WAT      O 7275   6.705   1.697   6.671 -0.0310 -0.1120 -0.3747
 1639WAT     H1 7276   6.662   1.677   6.745  1.2278 -1.0324  0.1581
 1639WAT     H2 7277   6.739   1.620   6.647  0.1355  0.3208 -1.5496
 1639WAT    EPW 7278   6.704   1.682   6.678  0.1795 -0.1840 -0.4695
 1640WAT      O 7279   5.192   7.500   2.390 -0.3585  0.1851 -0.2278
 1640WAT     H1 7280   5.265   7.538   2.418 -0.0017 -1.5171  1.3454
 1640WAT     H2 7281   5.221   7.441   2.333 -0.7465  0.9697 -1.2736
 1640WAT    EPW 7282   5.207   7.497   2.385 -0.3631  0.0495 -0.1499
 1641WAT      O 7283   4.591   3.646   1.608 -0.1362  0.0777 -0.5042
 1641WAT     H1 7284   4.632   3.569   1.612  0.9616  0.6804  0.2674
 1641WAT     H2 7285   4.537   3.645   1.677  1.2087  0.6993  0.6117
 1641WAT    EPW 7286   4.589   3.635   1.619  0.2246  0.2585 -0.2254
 1642WAT      O 7287   5.412   7.551   6.803 -0.7526 -0.2515 -0.2519
 1642WAT     H1 7288   5.376   7.594   6.737 -2.4639 -2.0414 -0.5631
 1642WAT     H2 7289   5.497   7.547   6.781 -1.1330 -0.0523 -1.8852
 1642WAT    EPW 7290   5.420   7.557   6.790 -1.0616 -0.4865 -0.5391
 1643WAT      O 7291   4.132   2.416   3.241 -0.7392  0.4166 -0.0586
 1643WAT     H1 7292   4.196   2.426   3.300 -1.0563  2.7777 -0.0163
 1643WAT     H2 7293   4.059   2.428   3.288 -1.2294 -1.3031 -0.2938
 1643WAT    EPW 7294   4.131   2.419   3.257 -0.8585  0.5114 -0.0871
 1644WAT      O 7295   4.787   2.238   3.033  0.2508  0.5102  0.3906
 1644WAT     H1 7296   4.705   2.238   3.064 -0.8824  0.6007 -2.3038
 1644WAT     H2 7297   4.807   2.153   3.031 -0.4478  0.3461 -0.4261
 1644WAT    EPW 7298   4.778   2.225   3.037 -0.0198  0.4993 -0.1281
 1645WAT      O 7299   5.722   0.436   4.421 -0.1585  0.3754 -0.4714
 1645WAT     H1 7300   5.653   0.487   4.405 -0.6065 -0.1849 -0.3514
 1645WAT     H2 7301   5.735   0.446   4.507  0.4186  1.1068 -0.6375
 1645WAT    EPW 7302   5.713   0.445   4.431 -0.1394  0.4007 -0.4782
 1646WAT      O 7303   6.066   1.694   6.571 -0.1125  0.3537  0.2345
 1646WAT     H1 7304   6.050   1.714   6.654 -1.0792  0.2844  0.0778
 1646WAT     H2 7305   6.146   1.659   6.573 -0.0163  0.6088  1.0879
 1646WAT    EPW 7306   6.075   1.692   6.584 -0.2411  0.3812  0.3374
 1647WAT      O 7307   7.294   3.283   5.297 -0.0712 -0.3120  0.2755
 1647WAT     H1 7308   7.305   3.237   5.371  1.2109  0.2877  0.4934
 1647WAT     H2 7309   7.210   3.304   5.298  0.0108  0.1171  1.8550
 1647WAT    EPW 7310   7.283   3.279   5.308  0.1303 -0.1600  0.5410
 1648WAT      O 7311   6.165   3.398   2.749 -0.0911  0.3024  0.2763
 1648WAT     H1 7312   6.115   3.469   2.755 -0.7432 -0.1525  0.3895
 1648WAT     H2 7313   6.119   3.345   2.697  1.7315  1.0483 -2.2856
 1648WAT    EPW 7314   6.150   3.400   2.743  0.0818  0.3454 -0.0854
 1649WAT      O 7315   4.730   0.791   4.357 -0.0286  0.1538 -0.4824
 1649WAT     H1 7316   4.783   0.776   4.290  0.1469 -0.0322 -0.3068
 1649WAT     H2 7317   4.687   0.863   4.335  0.6427  0.5834 -0.4185
 1649WAT    EPW 7318   4.732   0.799   4.344  0.0965  0.1898 -0.4471
 1650WAT      O 7319   3.908   5.328   6.196 -0.4490 -0.0543 -0.2893
 1650WAT     H1 7320   3.942   5.398   6.157  0.1588 -0.0557  0.2120
 1650WAT     H2 7321   3.833   5.357   6.229 -0.6213  0.1290 -0.8304
 1650WAT    EPW 7322   3.902   5.343   6.195 -0.3847 -0.0274 -0.2952
 1651WAT      O 7323   3.644   0.292   1.426 -0.1435 -0.4453  0.3665
 1651WAT     H1 7324   3.577   0.344   1.444 -0.4671 -1.0000  0.7958
 1651WAT     H2 7325   3.611   0.212   1.435  0.9027 -0.7539  1.9002
 1651WAT    EPW 7326   3.629   0.288   1.430 -0.0368 -0.5728  0.6565
 1652WAT      O 7327   4.540   7.386   0.244 -0.4349 -0.0361 -0.5999
 1652WAT     H1 7328   4.542   7.365   0.160  1.1529  0.0008 -0.6160
 1652WAT     H2 7329   4.624   7.378   0.269 -1.0711 -1.4275  1.3272
 1652WAT    EPW 7330   4.553   7.382   0.235 -0.2943 -0.2362 -0.3176
 1653WAT      O 7331   5.794   3.634   6.400  0.3949  0.0909 -0.0570
 1653WAT     H1 7332   5.830   3.713   6.392  2.6832 -0.7231  1.2614
 1653WAT     H2 7333   5.728   3.635   6.343  1.0276  2.5578 -0.8429
 1653WAT    EPW 7334   5.790   3.645   6.390  0.8264  0.3350  0.0216
 1654WAT      O 7335   7.135   7.008   4.515  0.3270  0.0264 -0.6181
 1654WAT     H1 7336   7.184   7.058   4.566  1.7538 -2.2672  0.4307
 1654WAT     H2 7337   7.184   6.997   4.443  0.1608 -0.0914 -0.7142
 1654WAT    EPW 7338   7.149   7.014   4.512  0.5132 -0.3298 -0.4774
 1655WAT      O 7339   4.751   4.931   5.286 -0.7386 -0.0404  0.3772
 1655WAT     H1 7340   4.814   4.920   5.346  2.2363  2.2915 -2.0301
 1655WAT     H2 7341   4.769   4.870   5.226 -2.7450 -1.3238  0.9669
 1655WAT    EPW 7342   4.763   4.920   5.286 -0.5955  0.1145  0.1087
 1656WAT      O 7343   6.349   0.054   5.014  0.0118 -0.1202  0.2439
 1656WAT     H1 7344   6.339   0.138   4.992  1.0817 -0.3102 -1.1725
 1656WAT     H2 7345   6.285   0.014   4.970  0.9184 -0.2723 -0.9945
 1656WAT    EPW 7346   6.338   0.060   5.004  0.3038 -0.1708 -0.1483
 1657WAT      O 7347   5.062   1.510   7.792  0.0256 -0.5861  0.2857
 1657WAT     H1 7348   4.980   1.530   7.815 -0.6155 -2.5369 -0.0877
 1657WAT     H2 7349   5.070   1.545   7.712 -0.2851 -0.0057  0.5046
 1657WAT    EPW 7350   5.051   1.518   7.784 -0.1150 -0.7886  0.2629
 1658WAT      O 7351   5.646   7.547   3.488  0.4011  0.1140  0.0717
 1658WAT     H1 7352   5.661   7.633   3.484  1.1749  0.0290  0.7741
 1658WAT     H2 7353   5.726   7.512   3.481  0.2870 -0.4709  1.4224
 1658WAT    EPW 7354   5.660   7.554   3.486  0.4986  0.0151  0.3750
 1659WAT      O 7355   2.627   5.760   7.466  0.0384 -0.6156 -0.1648
 1659WAT     H1 7356   2.686   5.798   7.517 -1.6316  1.0644  0.6078
 1659WAT     H2 7357   2.629   5.677   7.491 -1.2564  0.2418  3.3077
 1659WAT    EPW 7358   2.636   5.753   7.477 -0.3995 -0.2408  0.4623
 1660WAT      O 7359   0.804   5.392   0.104 -0.3489 -0.1174  0.1509
 1660WAT     H1 7360   0.779   5.377   0.022 -1.0542  1.0388  0.1453
 1660WAT     H2 7361   0.777   5.473   0.120 -1.8846 -0.9277  2.1361
 1660WAT    EPW 7362   0.797   5.401   0.094 -0.6800 -0.0663  0.4433
 1661WAT      O 7363   0.894   3.549   6.521  0.0495  0.3998  0.0576
 1661WAT     H1 7364   0.922   3.526   6.442  0.5040 -0.0343  0.3445
 1661WAT     H2 7365   0.823   3.500   6.533  0.7615 -0.5410  0.4842
 1661WAT    EPW 7366   0.888   3.539   6.511  0.2218  0.1967  0.1630
 1662WAT      O 7367   2.506   1.306   6.030  0.1515  0.2115 -0.2395
 1662WAT     H1 7368   2.471   1.330   5.954  1.4161  0.4796 -0.7572
 1662WAT     H2 7369   2.590   1.292   6.011  0.9950  2.3178  1.4960
 1662WAT    EPW 7370   2.513   1.307   6.016  0.4629  0.5623 -0.0596
 1663WAT      O 7371   6.234   4.279   3.731  0.0459 -0.1907  0.1331
 1663WAT     H1 7372   6.311   4.314   3.754  0.1191 -0.2652  0.0020
 1663WAT     H2 7373   6.240   4.197   3.761  0.5337 -0.5878 -1.0043
 1663WAT    EPW 7374   6.246   4.272   3.739  0.1288 -0.2604 -0.0543
 1664WAT      O 7375   7.312   5.814   6.165  0.0196  0.3545 -0.1724
 1664WAT     H1 7376   7.288   5.801   6.082  0.2806 -0.3261 -0.1441
 1664WAT     H2 7377   7.358   5.743   6.184  2.1921  1.6367 -0.2662
 1664WAT    EPW 7378   7.315   5.802   6.155  0.3791  0.4434 -0.1821
 1665WAT      O 7379   2.993   5.092   2.941  0.1237 -0.1872 -0.2699
 1665WAT     H1 7380   2.934   5.156   2.938 -1.0107 -1.2188 -1.1890
 1665WAT     H2 7381   2.983   5.058   3.021  1.5848  1.4998  0.6859
 1665WAT    EPW 7382   2.982   5.096   2.952  0.1719 -0.0904 -0.2645
 1666WAT      O 7383   6.139   1.297   4.513 -0.1535 -0.0291 -0.3894
 1666WAT     H1 7384   6.202   1.347   4.548  0.1099 -0.7426  0.1725
 1666WAT     H2 7385   6.181   1.226   4.486 -0.6081 -0.1793 -0.7265
 1666WAT    EPW 7386   6.154   1.294   4.514 -0.1817 -0.1567 -0.3562
 1667WAT      O 7387   3.431   1.015   3.017  0.1864 -0.2030 -0.0838
 1667WAT     H1 7388   3.484   1.081   3.039 -1.6751  0.7271  2.1120
 1667WAT     H2 7389   3.477   0.944   3.038  1.9264  0.3574 -1.7292
 1667WAT    EPW 7390   3.446   1.015   3.023  0.1685  0.0171 -0.0025
 1668WAT      O 7391   0.984   0.600   4.689  0.0122 -0.4685  0.1246
 1668WAT     H1 7392   0.939   0.589   4.762 -1.5157  1.6554 -0.3868
 1668WAT     H2 7393   1.036   0.668   4.707 -0.4458  0.1428 -0.7273
 1668WAT    EPW 7394   0.985   0.609   4.702 -0.2812 -0.0645 -0.0768
 1669WAT      O 7395   5.663   0.786   2.232 -0.5000 -0.0671  0.1298
 1669WAT     H1 7396   5.679   0.868   2.208  2.7294 -0.4311  0.4722
 1669WAT     H2 7397   5.675   0.741   2.158 -2.6178 -0.2598 -0.1396
 1669WAT    EPW 7398   5.667   0.791   2.217 -0.3358 -0.1494  0.1406
 1670WAT      O 7399   4.648   0.727   7.615 -0.2643 -0.6509 -0.0187
 1670WAT     H1 7400   4.701   0.764   7.557  0.6206  1.1374  1.8034
 1670WAT     H2 7401   4.703   0.682   7.666 -0.6309  0.1205  1.0830
 1670WAT    EPW 7402   4.664   0.725   7.614 -0.1877 -0.2728  0.4132
 1671WAT      O 7403   6.995   3.265   3.807 -0.0993  0.5291 -0.1593
 1671WAT     H1 7404   6.967   3.182   3.802  1.9812 -0.2099 -3.6294
 1671WAT     H2 7405   7.063   3.261   3.861 -1.0802  0.4180  1.1071
 1671WAT    EPW 7406   7.001   3.252   3.814  0.0631  0.4035 -0.4848
 1672WAT      O 7407   1.190   1.966   5.506  0.0271 -0.4916  0.1451
 1672WAT     H1 7408   1.244   1.921   5.558  0.7077 -2.2981 -1.9598
 1672WAT     H2 7409   1.151   1.904   5.459 -2.8158  0.8737  0.5023
 1672WAT    EPW 7410   1.193   1.950   5.507 -0.2923 -0.5567 -0.1131
 1673WAT      O 7411   7.092   5.808   6.396 -0.6187  0.1622 -0.1254
 1673WAT     H1 7412   7.160   5.791   6.344 -0.8900  1.0556 -0.7944
 1673WAT     H2 7413   7.046   5.735   6.396 -0.9622  0.3501 -1.6769
 1673WAT    EPW 7414   7.096   5.795   6.389 -0.7095  0.3219 -0.4534
 1674WAT      O 7415   7.666   7.692   5.194  0.1118 -0.8356  0.0240
 1674WAT     H1 7416   7.618   7.729   5.257  0.0610  0.2678 -0.6486
 1674WAT     H2 7417   7.621   7.708   5.121  1.4223  0.1193 -0.6051
 1674WAT    EPW 7418   7.652   7.700   5.193  0.2979 -0.5315 -0.1683
 1675WAT      O 7419   4.455   2.883   5.313 -0.3637  0.0389 -0.0698
 1675WAT     H1 7420   4.374   2.899   5.343 -0.3223  0.2465 -0.0686
 1675WAT     H2 7421   4.463   2.796   5.323  0.3363  0.2863  2.3421
 1675WAT    EPW 7422   4.444   2.872   5.319 -0.2542  0.1061  0.2866
 1676WAT      O 7423   5.187   4.058   6.877 -0.0393 -0.0450 -0.7604
 1676WAT     H1 7424   5.113   4.104   6.884  0.7983  1.4847 -1.3931
 1676WAT     H2 7425   5.173   4.007   6.808 -0.5572  0.1116 -0.7792
 1676WAT    EPW 7426   5.174   4.057   6.868  0.0079  0.2041 -0.8566
 1677WAT      O 7427   5.574   2.367   6.629  0.0668  0.6203  0.0812
 1677WAT     H1 7428   5.634   2.328   6.579 -0.5784 -0.2137 -0.0810
 1677WAT     H2 7429   5.526   2.412   6.572  0.2914  0.9588  0.1585
 1677WAT    EPW 7430   5.576   2.368   6.613  0.0047  0.5471  0.0687
 1678WAT      O 7431   1.797   1.774   0.401 -0.2309  0.0869  0.2758
 1678WAT     H1 7432   1.715   1.768   0.373 -0.4542 -2.1416  1.2034
 1678WAT     H2 7433   1.814   1.694   0.431  1.8358  0.8595  1.3306
 1678WAT    EPW 7434   1.787   1.762   0.401  0.0414 -0.1282  0.5686
 1679WAT      O 7435   4.711   3.085   4.423 -0.3280 -0.1234  0.3192
 1679WAT     H1 7436   4.641   3.097   4.373  0.2373 -0.0781 -0.4694
 1679WAT     H2 7437   4.778   3.083   4.367  0.4806  1.2678  1.1575
 1679WAT    EPW 7438   4.711   3.087   4.408 -0.1251  0.0888  0.3265
 1680WAT      O 7439   0.588   0.808   6.534  0.1025 -0.3195 -0.0726
 1680WAT     H1 7440   0.573   0.793   6.449  1.3206 -1.5344 -0.0983
 1680WAT     H2 7441   0.627   0.886   6.535  0.2153 -0.3693 -0.6341
 1680WAT    EPW 7442   0.591   0.818   6.522  0.2991 -0.5063 -0.1594
 1681WAT      O 7443   3.349   4.710   5.889  0.1384  0.2282  0.4172
 1681WAT     H1 7444   3.291   4.644   5.880 -0.1155  0.4072  0.7224
 1681WAT     H2 7445   3.399   4.702   5.818  1.1106 -1.2701  1.2063
 1681WAT    EPW 7446   3.348   4.699   5.877  0.2445  0.0333  0.5788
 1682WAT      O 7447   3.883   4.031   7.135 -0.2938  0.4660  0.6950
 1682WAT     H1 7448   3.799   4.052   7.146  0.0095  1.2626  1.6582
 1682WAT     H2 7449   3.881   3.973   7.071 -1.2896  2.8079 -1.5714
 1682WAT    EPW 7450   3.870   4.025   7.127 -0.3961  0.9296  0.5025
 1683WAT      O 7451   5.862   6.802   6.108  0.2731 -0.1701  0.0976
 1683WAT     H1 7452   5.892   6.881   6.133 -0.0302 -0.3313  1.0281
 1683WAT     H2 7453   5.876   6.801   6.022  2.3006  0.0369  0.3746
 1683WAT    EPW 7454   5.868   6.814   6.099  0.5278 -0.1634  0.2760
 1684WAT      O 7455   0.359   4.452   4.649 -0.3907 -0.5847  0.5112
 1684WAT     H1 7456   0.423   4.494   4.691 -0.0140 -2.4267  1.9016
 1684WAT     H2 7457   0.287   4.498   4.669  0.2218  0.3934  0.5262
 1684WAT    EPW 7458   0.358   4.465   4.658 -0.2445 -0.7123  0.7188
 1685WAT      O 7459   4.580   1.042   4.740 -0.2014  0.1611  0.2527
 1685WAT     H1 7460   4.590   1.110   4.793 -0.1009  0.9470 -0.7418
 1685WAT     H2 7461   4.616   0.976   4.784 -1.1627  0.5266  1.6542
 1685WAT    EPW 7462   4.587   1.042   4.754 -0.3286  0.3312  0.3128
 1686WAT      O 7463   7.128   4.902   7.286  0.0719 -0.2992  0.1302
 1686WAT     H1 7464   7.181   4.874   7.223  1.9231 -0.9054  1.8215
 1686WAT     H2 7465   7.065   4.841   7.289 -0.0935 -0.2101 -1.1532
 1686WAT    EPW 7466   7.127   4.889   7.277  0.3209 -0.3756  0.1905
 1687WAT      O 7467   4.328   1.563   6.636 -0.3553 -0.3632 -0.6703
 1687WAT     H1 7468   4.397   1.549   6.585 -0.2048  1.6661 -1.0894
 1687WAT     H2 7469   4.291   1.635   6.603 -0.8988  0.3767  1.3771
 1687WAT    EPW 7470   4.333   1.571   6.624 -0.4134  0.0459 -0.4297
 1688WAT      O 7471   4.688   6.367   7.422 -0.0249 -0.1209  0.2353
 1688WAT     H1 7472   4.746   6.344   7.482  1.2336  0.1023 -0.8279
 1688WAT     H2 7473   4.611   6.361   7.463  0.6182 -1.7831  1.2860
 1688WAT    EPW 7474   4.685   6.363   7.437  0.2560 -0.3335  0.2335
 1689WAT      O 7475   3.856   3.968   2.382 -0.1541 -0.3603  0.7223
 1689WAT     H1 7476   3.824   4.049   2.381  1.2044  0.1826  0.0712
 1689WAT     H2 7477   3.880   3.956   2.465  0.3860  0.2073  0.6518
 1689WAT    EPW 7478   3.855   3.978   2.394  0.1264 -0.1963  0.6157
 1690WAT      O 7479   5.012   7.244   3.526 -0.2134 -0.3958  0.4569
 1690WAT     H1 7480   4.974   7.269   3.451  0.4058 -1.0378 -0.0833
 1690WAT     H2 7481   5.093   7.274   3.519  0.8955 -3.2901 -0.6916
 1690WAT    EPW 7482   5.018   7.252   3.514  0.0419 -0.9182  0.2074
 1691WAT      O 7483   5.025   5.350   2.106 -0.0292  0.2717  0.3713
 1691WAT     H1 7484   5.006   5.265   2.112  0.3216  0.1768  0.1968
 1691WAT     H2 7485   4.947   5.388   2.095 -0.0784 -0.1879 -1.2201
 1691WAT    EPW 7486   5.011   5.343   2.105  0.0154  0.1898  0.1105
 1692WAT      O 7487   4.715   3.268   6.726  0.2465 -0.2037  0.0152
 1692WAT     H1 7488   4.798   3.266   6.751  0.2502  0.2676  0.0533
 1692WAT     H2 7489   4.693   3.353   6.733 -0.7651 -0.5587  1.7422
 1692WAT    EPW 7490   4.724   3.280   6.730  0.0976 -0.1865  0.2759
 1693WAT      O 7491   3.973   2.494   2.184  0.1356  0.0611  0.0433
 1693WAT     H1 7492   4.035   2.553   2.164 -1.0931  1.5766  0.5477
 1693WAT     H2 7493   3.930   2.531   2.250 -1.4253 -0.8819 -0.4057
 1693WAT    EPW 7494   3.976   2.508   2.191 -0.2765  0.1457  0.0515
 1694WAT      O 7495   5.411   5.118   3.162  0.1295  0.1205  0.3029
 1694WAT     H1 7496   5.451   5.180   3.114  0.0455  0.0060  0.0822
 1694WAT     H2 7497   5.472   5.057   3.171  0.0690  0.0335  0.1326
 1694WAT    EPW 7498   5.426   5.118   3.156  0.1082  0.0907  0.2451
 1695WAT      O 7499   0.477   7.039   5.109  0.0724  0.9634  0.5975
 1695WAT     H1 7500   0.530   7.088   5.059 -1.1015  2.5351  0.8387
 1695WAT     H2 7501   0.519   6.962   5.113  0.4829  0.9082 -2.3718
 1695WAT    EPW 7502   0.491   7.035   5.102 -0.0403  1.1875  0.1945
 1696WAT      O 7503   0.059   5.572   5.949  0.9048 -0.0162 -0.0366
 1696WAT     H1 7504   0.042   5.608   5.871 -0.0596  1.5905  0.8746
 1696WAT     H2 7505  -0.021   5.551   5.979  1.1064  0.9947  1.2563
 1696WAT    EPW 7506   0.044   5.574   5.942  0.7921  0.3705  0.2890
 1697WAT      O 7507   7.134   5.656   0.646  0.0783 -0.3046 -0.0927
 1697WAT     H1 7508   7.089   5.710   0.594 -0.6177  0.8371  1.6029
 1697WAT     H2 7509   7.081   5.644   0.714  0.5024 -2.6253 -0.0798
 1697WAT    EPW 7510   7.119   5.662   0.649  0.0381 -0.4788  0.1597
 1698WAT      O 7511   4.730   7.645   1.775 -0.0247  0.2221  0.4425
 1698WAT     H1 7512   4.708   7.584   1.717 -0.3124 -1.1020  1.8937
 1698WAT     H2 7513   4.807   7.674   1.746  0.9650 -2.0438  0.6208
 1698WAT    EPW 7514   4.738   7.641   1.762  0.0790 -0.3082  0.6832
 1699WAT      O 7515   6.591   1.171   4.835 -0.3051  0.2155  0.5573
 1699WAT     H1 7516   6.534   1.121   4.879 -0.5461 -0.3629 -0.3983
 1699WAT     H2 7517   6.614   1.232   4.894  0.1596 -1.1257  1.8188
 1699WAT    EPW 7518   6.586   1.173   4.850 -0.2721 -0.0681  0.6025
 1700WAT      O 7519   0.063   5.052   7.582  0.1323  0.1857  0.1312
 1700WAT     H1 7520   0.069   4.981   7.532  1.0554  0.9317 -0.8818
 1700WAT     H2 7521  -0.013   5.043   7.623  1.4446 -2.7686  2.2367
 1700WAT    EPW 7522   0.053   5.040   7.581  0.4625 -0.1405  0.2926
 1701WAT      O 7523   6.037   7.431   4.935  0.6193 -0.4531 -0.2100
 1701WAT     H1 7524   6.002   7.385   4.870 -0.4083 -0.3835  0.2848
 1701WAT     H2 7525   6.004   7.394   5.007 -1.1298  1.7136  0.2000
 1701WAT    EPW 7526   6.027   7.418   4.936  0.2091 -0.1227 -0.0763
 1702WAT      O 7527   3.829   1.095   3.559  0.3970  0.2398  0.1685
 1702WAT     H1 7528   3.849   1.010   3.559 -0.4709  0.0012  1.4882
 1702WAT     H2 7529   3.907   1.134   3.561  0.8070 -0.5596  0.7651
 1702WAT    EPW 7530   3.843   1.088   3.560  0.3294  0.0865  0.4516
 1703WAT      O 7531   3.551   6.201   0.926 -0.1422 -0.5426  0.3428
 1703WAT     H1 7532   3.494   6.256   0.891  0.5358  0.5654  0.9151
 1703WAT     H2 7533   3.536   6.126   0.884 -0.6506  0.2361 -0.9242
 1703WAT    EPW 7534   3.541   6.198   0.915 -0.1172 -0.2639  0.2402
 1704WAT      O 7535   5.705   5.305   5.225 -0.2454 -0.6254 -0.3212
 1704WAT     H1 7536   5.759   5.267   5.167  0.5476 -0.7437  0.4657
 1704WAT     H2 7537   5.658   5.238   5.255  1.4363 -1.1191  1.3684
 1704WAT    EPW 7538   5.706   5.290   5.221  0.1202 -0.7158  0.0446
 1705WAT      O 7539   6.913   2.204   4.233  0.9751 -0.3961  0.6815
 1705WAT     H1 7540   6.994   2.177   4.252  2.0706  1.3798 -1.0363
 1705WAT     H2 7541   6.870   2.131   4.214  2.2805 -1.3417  1.2650
 1705WAT    EPW 7542   6.919   2.190   4.233  1.3297 -0.2735  0.5139
 1706WAT      O 7543   0.294   1.507   4.622 -0.3202 -1.0713  0.5702
 1706WAT     H1 7544   0.254   1.507   4.545 -0.1479  0.3184  0.4466
 1706WAT     H2 7545   0.364   1.456   4.609  0.3404  0.0523 -0.5701
 1706WAT    EPW 7546   0.299   1.500   4.609 -0.1972 -0.7000  0.3835
 1707WAT      O 7547   4.849   6.326   7.640  0.6278  0.2112  0.3757
 1707WAT     H1 7548   4.912   6.382   7.619 -1.0200  2.1340  0.2244
 1707WAT     H2 7549   4.841   6.335   7.726 -0.3827  1.1156  0.2137
 1707WAT    EPW 7550   4.857   6.336   7.650  0.2351  0.6288  0.3294
 1708WAT      O 7551   2.897   3.080   2.067  0.7863 -0.3398  0.2963
 1708WAT     H1 7552   2.835   3.077   2.006  0.7737 -0.6161  0.3204
 1708WAT     H2 7553   2.867   3.028   2.130  1.5999 -1.4884 -0.2337
 1708WAT    EPW 7554   2.883   3.072   2.067  0.9046 -0.5503  0.2216
 1709WAT      O 7555   0.048   4.898   5.823 -0.1671  0.3334 -0.0235
 1709WAT     H1 7556   0.091   4.974   5.819  0.0391  0.1743 -1.4518
 1709WAT     H2 7557   0.106   4.841   5.791 -0.5325 -0.3256  0.4788
 1709WAT    EPW 7558   0.063   4.901   5.818 -0.1906  0.2125 -0.1603
 1710WAT      O 7559   5.985   2.910   1.499 -0.1934 -0.1285  0.5085
 1710WAT     H1 7560   6.057   2.919   1.548  0.3698  0.1393 -0.3496
 1710WAT     H2 7561   5.956   2.830   1.520  1.6272 -1.2065 -0.7717
 1710WAT    EPW 7562   5.991   2.899   1.509  0.1588 -0.2482  0.1926
 1711WAT      O 7563   5.478   1.464   3.482  0.3088 -0.1391  0.3407
 1711WAT     H1 7564   5.464   1.439   3.399  0.3389  1.3182 -0.1384
 1711WAT     H2 7565   5.564   1.476   3.486  0.1392  1.3169  0.0944
 1711WAT    EPW 7566   5.488   1.462   3.470  0.2882  0.2912  0.2335
 1712WAT      O 7567   2.226   0.004   0.878 -0.4629 -0.2822  0.1756
 1712WAT     H1 7568   2.294  -0.051   0.881 -0.0815  0.2071  2.4512
 1712WAT     H2 7569   2.247   0.060   0.816  1.2535 -0.1529  0.8320
 1712WAT    EPW 7570   2.239   0.004   0.869 -0.1530 -0.1908  0.6087
 1713WAT      O 7571   6.333   4.532   4.283 -0.2896 -0.2079 -0.0903
 1713WAT     H1 7572   6.263   4.582   4.300  0.2258  0.6389 -0.3781
 1713WAT     H2 7573   6.395   4.591   4.264  0.2822 -0.9750 -0.6331
 1713WAT    EPW 7574   6.332   4.548   4.282 -0.1290 -0.1961 -0.2130
 1714WAT      O 7575   4.410   4.380   1.207 -0.2655  0.3688  0.5778
 1714WAT     H1 7576   4.351   4.334   1.253 -1.1663  2.0668  1.2034
 1714WAT     H2 7577   4.469   4.402   1.267 -0.0360  0.3546  0.3567
 1714WAT    EPW 7578   4.410   4.376   1.223 -0.3647  0.6175  0.6376
 1715WAT      O 7579   3.838   4.383   0.105 -0.9969  0.4405  0.7025
 1715WAT     H1 7580   3.837   4.299   0.127 -1.9816  0.3360  0.3004
 1715WAT     H2 7581   3.884   4.420   0.169  1.1886 -0.6526 -0.1504
 1715WAT    EPW 7582   3.845   4.376   0.118 -0.8195  0.2636  0.5171
 1716WAT      O 7583   2.961   5.181   0.919 -0.1219 -0.2093 -0.5831
 1716WAT     H1 7584   2.901   5.118   0.930 -0.9962  0.6589 -0.2391
 1716WAT     H2 7585   2.947   5.235   0.987  0.1808  0.6845 -1.2133
 1716WAT    EPW 7586   2.950   5.180   0.931 -0.2063  0.0510 -0.6254
 1717WAT      O 7587   5.641   1.168   7.652  1.3743  0.6409  0.3753
 1717WAT     H1 7588   5.711   1.117   7.648  0.5274 -0.6703  1.3183
 1717WAT     H2 7589   5.645   1.215   7.579  1.1622 -2.1953 -1.5994
 1717WAT    EPW 7590   5.652   1.168   7.641  1.2178  0.0282  0.2229
 1718WAT      O 7591   5.361   4.192   6.700 -0.0094  0.0427 -0.7075
 1718WAT     H1 7592   5.408   4.229   6.763 -0.3171  2.2023 -1.6803
 1718WAT     H2 7593   5.297   4.151   6.744  0.6313  0.2195  0.4380
 1718WAT    EPW 7594   5.358   4.191   6.716  0.0398  0.3878 -0.6819
 1719WAT      O 7595   5.622   3.832   2.306 -0.5505 -0.6655  0.3183
 1719WAT     H1 7596   5.625   3.914   2.277 -0.7425 -0.5177  0.7082
 1719WAT     H2 7597   5.588   3.839   2.386 -1.5553 -1.2347 -0.0394
 1719WAT    EPW 7598   5.618   3.845   2.314 -0.7273 -0.7277  0.3231
 1720WAT      O 7599   5.496   4.107   4.131  0.0103 -0.5595  0.2259
 1720WAT     H1 7600   5.428   4.160   4.119 -0.7757 -1.5605  0.0862
 1720WAT     H2 7601   5.523   4.127   4.212 -1.6688 -1.4366  1.0654
 1720WAT    EPW 7602   5.490   4.118   4.141 -0.3539 -0.8369  0.3293
 1721WAT      O 7603   5.836   0.337   3.162 -0.0543 -0.5635 -0.0859
 1721WAT     H1 7604   5.823   0.262   3.120  1.2001 -0.6764 -0.3131
 1721WAT     H2 7605   5.896   0.378   3.113 -0.7858  0.6495 -0.0335
 1721WAT    EPW 7606   5.843   0.332   3.148  0.0230 -0.4010 -0.1117
 1722WAT      O 7607   5.705   2.259   6.408 -0.1355  0.1982  0.3528
 1722WAT     H1 7608   5.718   2.333   6.364 -1.4331  0.2341  0.0090
 1722WAT     H2 7609   5.785   2.225   6.416  0.1992  0.4599 -1.5584
 1722WAT    EPW 7610   5.719   2.265   6.403 -0.2777  0.2422  0.0197
 1723WAT      O 7611   6.304   6.165   1.344 -0.0322 -0.0282  0.1647
 1723WAT     H1 7612   6.323   6.230   1.400  1.1068 -0.0261 -0.2050
 1723WAT     H2 7613   6.249   6.202   1.288 -1.0759  0.0148  1.1672
 1723WAT    EPW 7614   6.299   6.180   1.344 -0.0181 -0.0216  0.2582
 1724WAT      O 7615   5.513   1.217   0.667 -0.0063  0.1899 -0.0194
 1724WAT     H1 7616   5.434   1.191   0.695  0.9922 -2.7316  0.4464
 1724WAT     H2 7617   5.533   1.157   0.606  2.4921 -0.1414  1.0372
 1724WAT    EPW 7618   5.504   1.204   0.662  0.5103 -0.2906  0.2055
 1725WAT      O 7619   7.116   2.891   7.630 -0.4695  0.2011 -0.2489
 1725WAT     H1 7620   7.187   2.901   7.580 -0.4454 -0.6628 -0.4037
 1725WAT     H2 7621   7.059   2.948   7.597 -0.2989 -0.0457 -0.9673
 1725WAT    EPW 7622   7.118   2.901   7.618 -0.4408  0.0371 -0.3779
 1726WAT      O 7623   6.138   2.082   2.851 -0.4675  0.1395 -0.2114
 1726WAT     H1 7624   6.136   2.155   2.897 -2.2663 -0.2509  0.4372
 1726WAT     H2 7625   6.171   2.023   2.906  0.7879  0.3999 -0.6648
 1726WAT    EPW 7626   6.143   2.084   2.866 -0.5477  0.1203 -0.1826
 1727WAT      O 7627   4.628   7.074   2.493  0.3831 -0.3259  0.6361
 1727WAT     H1 7628   4.589   7.073   2.415  1.1186 -0.7583  0.2577
 1727WAT     H2 7629   4.562   7.066   2.549 -0.0769 -1.2726 -0.0006
 1727WAT    EPW 7630   4.613   7.072   2.489  0.4238 -0.5296  0.4861
 1728WAT      O 7631   3.369   6.472   4.281 -0.4581  0.5878  0.0785
 1728WAT     H1 7632   3.334   6.394   4.302  0.6511  0.0682  0.0692
 1728WAT     H2 7633   3.385   6.465   4.196  1.4784  0.0429  0.4436
 1728WAT    EPW 7634   3.366   6.459   4.272 -0.0082  0.4306  0.1311
 1729WAT      O 7635   5.225   2.595   1.696  0.2041 -0.2694 -0.3300
 1729WAT     H1 7636   5.216   2.618   1.779  0.0705  0.6326 -0.5874
 1729WAT     H2 7637   5.159   2.539   1.683 -1.0949  1.2281 -0.3967
 1729WAT    EPW 7638   5.214   2.590   1.706 -0.0075  0.0850 -0.3779
 1730WAT      O 7639   4.180   4.643   0.307  0.1143 -0.0047  0.0496
 1730WAT     H1 7640   4.122   4.595   0.351  0.8775 -1.0984 -0.0784
 1730WAT     H2 7641   4.206   4.702   0.366 -0.5161 -0.0381  0.3664
 1730WAT    EPW 7642   4.175   4.644   0.322  0.1339 -0.1712  0.0775
 1731WAT      O 7643   4.441   2.913   4.768  0.6403 -0.2255  0.3323
 1731WAT     H1 7644   4.469   2.990   4.737 -0.9087  0.4645  0.5445
 1731WAT     H2 7645   4.412   2.933   4.847 -2.3410 -0.4215 -0.6172
 1731WAT    EPW 7646   4.441   2.928   4.775 -0.0290 -0.1526  0.2234
 1732WAT      O 7647   2.644   0.361   0.158 -0.0324 -0.4247  0.0812
 1732WAT     H1 7648   2.574   0.351   0.210  0.2545  0.2825  0.6155
 1732WAT     H2 7649   2.616   0.416   0.097 -0.0636 -0.4573  0.0658
 1732WAT    EPW 7650   2.629   0.367   0.157  0.0053 -0.3251  0.1578
 1733WAT      O 7651   1.548   2.409   5.435  0.2719 -0.0588 -0.7455
 1733WAT     H1 7652   1.490   2.348   5.414 -0.5664  0.3340  0.3592
 1733WAT     H2 7653   1.610   2.400   5.373 -1.0553 -0.3074 -2.0875
 1733WAT    EPW 7654   1.549   2.398   5.423 -0.0480 -0.0375 -0.7805
 1734WAT      O 7655   4.824   4.632   5.998  0.0472  0.6815 -0.3515
 1734WAT     H1 7656   4.785   4.670   5.929  2.5131 -0.9671 -2.8969
 1734WAT     H2 7657   4.779   4.558   6.008 -1.1852  1.5410  0.8373
 1734WAT    EPW 7658   4.812   4.627   5.989  0.2294  0.5650 -0.5519
 1735WAT      O 7659   0.649   4.014   5.219 -0.5354 -0.5734 -0.1333
 1735WAT     H1 7660   0.657   4.096   5.249  2.3101 -0.2526 -1.4884
 1735WAT     H2 7661   0.702   3.968   5.270 -2.6638 -1.8404  1.0939
 1735WAT    EPW 7662   0.658   4.019   5.231 -0.4295 -0.7131 -0.1522
 1736WAT      O 7663   4.790   0.358   6.355  0.2406 -0.7076 -0.4974
 1736WAT     H1 7664   4.826   0.435   6.373 -0.0058  0.0543 -2.8685
 1736WAT     H2 7665   4.859   0.306   6.341  0.4029 -0.6533  0.0860
 1736WAT    EPW 7666   4.805   0.362   6.356  0.2282 -0.5870 -0.7615
 1737WAT      O 7667   4.133   6.573   4.896  0.3944  0.0172 -0.2828
 1737WAT     H1 7668   4.191   6.545   4.956 -0.2825 -0.1986  0.2903
 1737WAT     H2 7669   4.183   6.614   4.837  1.1805 -0.5312 -0.0275
 1737WAT    EPW 7670   4.149   6.575   4.897  0.4105 -0.0957 -0.1604
 1738WAT      O 7671   3.777   7.389   4.922  0.3026  0.7371  0.2118
 1738WAT     H1 7672   3.846   7.388   4.975  1.4217 -0.8519 -1.1856
 1738WAT     H2 7673   3.792   7.323   4.868 -2.7047 -0.1632  0.3078
 1738WAT    EPW 7674   3.789   7.379   4.922  0.0237  0.3694  0.0196
 1739WAT      O 7675   7.256   2.340   6.638 -0.4686  0.0316 -0.1657
 1739WAT     H1 7676   7.184   2.292   6.646 -0.6558  0.3694  0.2292
 1739WAT     H2 7677   7.319   2.282   6.625 -0.9439 -0.2265 -1.4736
 1739WAT    EPW 7678   7.255   2.325   6.637 -0.5664  0.0434 -0.3006
 1740WAT      O 7679   7.454   2.655   3.873 -0.0203 -0.4108 -0.3210
 1740WAT     H1 7680   7.536   2.670   3.900 -0.6392 -1.0059  2.0689
 1740WAT     H2 7681   7.461   2.584   3.823  1.0479  0.1718 -1.0357
 1740WAT    EPW 7682   7.467   2.647   3.870  0.0461 -0.4126 -0.0735
 1741WAT      O 7683   4.881   5.114   4.083 -0.2117 -0.6512 -0.1392
 1741WAT     H1 7684   4.877   5.197   4.058  1.0516 -0.4891  0.1080
 1741WAT     H2 7685   4.827   5.073   4.029  0.6251  0.0466 -1.5519
 1741WAT    EPW 7686   4.873   5.120   4.071  0.0985 -0.5242 -0.3114
 1742WAT      O 7687   7.625   5.938   6.708 -0.8334 -0.3079 -0.2478
 1742WAT     H1 7688   7.642   5.994   6.771  0.4112 -1.2921  0.3316
 1742WAT     H2 7689   7.693   5.946   6.654 -1.5491  0.0356 -1.1209
 1742WAT    EPW 7690   7.637   5.947   6.709 -0.7553 -0.4026 -0.2912
 1743WAT      O 7691   4.626   1.075   1.643  0.0681 -0.9883  0.6994
 1743WAT     H1 7692   4.653   1.083   1.726  2.0177  0.2599  0.0416
 1743WAT     H2 7693   4.664   1.144   1.604 -2.1453 -0.6044 -0.9181
 1743WAT    EPW 7694   4.636   1.087   1.649  0.0291 -0.7472  0.3633
 1744WAT      O 7695   5.190   2.184   2.640 -0.1777 -1.0383 -0.3104
 1744WAT     H1 7696   5.234   2.111   2.626  1.1154 -0.6338  1.3449
 1744WAT     H2 7697   5.174   2.183   2.726 -0.0561  0.6412 -0.2260
 1744WAT    EPW 7698   5.194   2.173   2.650  0.0313 -0.7304 -0.0534
 1745WAT      O 7699   4.640   4.023   0.890 -0.1262  0.3427  0.0380
 1745WAT     H1 7700   4.701   4.075   0.923 -0.1395 -0.0062  0.6251
 1745WAT     H2 7701   4.592   4.001   0.960 -0.3298 -0.1746 -0.2584
 1745WAT    EPW 7702   4.642   4.027   0.905 -0.1583  0.2147  0.0809
 1746WAT      O 7703   5.969   2.979   6.187 -0.2508  0.1140  0.1187
 1746WAT     H1 7704   5.971   3.046   6.242  0.0237  0.6421 -0.5140
 1746WAT     H2 7705   5.903   2.931   6.215  1.0811 -0.6666  2.0838
 1746WAT    EPW 7706   5.960   2.982   6.199 -0.0135  0.0767  0.3155
 1747WAT      O 7707   6.840   1.226   5.151  0.2935  0.1965  0.1169
 1747WAT     H1 7708   6.885   1.198   5.081 -0.0007 -0.0193  0.0130
 1747WAT     H2 7709   6.901   1.232   5.213  0.3489 -0.8238  0.1802
 1747WAT    EPW 7710   6.856   1.222   5.150  0.2582  0.0139  0.1109
 1748WAT      O 7711   5.554   4.009   3.873  0.4454  0.3485  0.7726
 1748WAT     H1 7712   5.562   4.051   3.949 -1.9278  2.3885  0.0405
 1748WAT     H2 7713   5.509   4.066   3.823  0.7112 -1.4574 -1.7002
 1748WAT    EPW 7714   5.548   4.024   3.876  0.1341  0.3831  0.2992
 1749WAT      O 7715   5.794   3.343   5.793  0.3518 -0.2446 -0.1826
 1749WAT     H1 7716   5.772   3.318   5.712 -0.5173  0.8058 -0.2975
 1749WAT     H2 7717   5.796   3.268   5.838 -1.8891 -0.5834 -0.5504
 1749WAT    EPW 7718   5.791   3.328   5.787 -0.1076 -0.1395 -0.2539
 1750WAT      O 7719   4.420   2.146   5.213 -0.3768  0.4124  0.3111
 1750WAT     H1 7720   4.350   2.095   5.224 -0.2716  0.3577  0.7468
 1750WAT     H2 7721   4.424   2.157   5.126 -1.0859  0.6488  0.3037
 1750WAT    EPW 7722   4.410   2.140   5.202 -0.4660  0.4392  0.3743
 1751WAT      O 7723   3.868   2.093   7.818  0.2186  0.1631 -0.0773
 1751WAT     H1 7724   3.845   2.109   7.900  1.9702  1.2371  0.2572
 1751WAT     H2 7725   3.866   2.171   7.780  0.8758 -0.0878 -0.6526
 1751WAT    EPW 7726   3.865   2.107   7.824  0.5744  0.2847 -0.1129
 1752WAT      O 7727   0.762   6.164   6.686 -0.4682 -0.0543 -0.2135
 1752WAT     H1 7728   0.791   6.231   6.734 -0.4030  0.7481 -1.3314
 1752WAT     H2 7729   0.691   6.138   6.728 -1.5071  1.8779 -0.6674
 1752WAT    EPW 7730   0.756   6.170   6.699 -0.6120  0.3497 -0.4457
 1753WAT      O 7731   0.686   3.018   4.934  0.0334  0.4407 -0.1137
 1753WAT     H1 7732   0.767   3.024   4.964 -0.0564  1.3308 -0.0314
 1753WAT     H2 7733   0.695   3.027   4.848 -0.0096  0.8372 -0.0763
 1753WAT    EPW 7734   0.699   3.020   4.925  0.0138  0.6308 -0.0960
 1754WAT      O 7735   4.860   0.539   7.193 -0.2791  0.2450 -0.2688
 1754WAT     H1 7736   4.891   0.591   7.130 -2.2232  1.5652 -0.2284
 1754WAT     H2 7737   4.906   0.561   7.263 -0.8261  1.7080 -0.3411
 1754WAT    EPW 7738   4.872   0.550   7.194 -0.6471  0.6562 -0.2735
 1755WAT      O 7739   6.913   4.028   7.315 -0.0453 -0.4270  0.0892
 1755WAT     H1 7740   6.902   3.977   7.245 -1.1159 -0.8521  0.5466
 1755WAT     H2 7741   6.975   3.986   7.361  0.5067 -0.2599 -0.4812
 1755WAT    EPW 7742   6.921   4.014   7.312 -0.1219 -0.4651  0.0725
 1756WAT      O 7743   5.591   4.056   5.935  0.1923 -0.7368 -0.0127
 1756WAT     H1 7744   5.539   4.076   6.003  1.1282  0.1498  0.4726
 1756WAT     H2 7745   5.648   4.000   5.968  1.3746  0.5830  0.2862
 1756WAT    EPW 7746   5.592   4.051   5.950  0.5052 -0.4109  0.1032
 1757WAT      O 7747   6.739   5.565   4.937  0.2079  0.0973  0.0878
 1757WAT     H1 7748   6.746   5.595   4.855 -1.6331  0.4512 -0.0010
 1757WAT     H2 7749   6.799   5.503   4.942  0.2192 -0.0790 -1.6147
 1757WAT    EPW 7750   6.749   5.560   4.926 -0.0624  0.1235 -0.1768
 1758WAT      O 7751   2.122   4.407   5.218 -0.0465  0.7571  0.3659
 1758WAT     H1 7752   2.154   4.487   5.229 -0.6040  1.1698 -0.9069
 1758WAT     H2 7753   2.087   4.409   5.138  0.4239 -0.9243  0.0818
 1758WAT    EPW 7754   2.121   4.419   5.208 -0.0594  0.5697  0.1359
 1759WAT      O 7755   5.341   0.503   1.874 -0.1111 -0.1889  0.8455
 1759WAT     H1 7756   5.387   0.571   1.844  0.6703 -1.0753 -0.0534
 1759WAT     H2 7757   5.370   0.492   1.955 -0.3173  0.6051  1.0355
 1759WAT    EPW 7758   5.352   0.511   1.881 -0.0261 -0.2026  0.7407
 1760WAT      O 7759   5.360   3.490   6.395 -0.3786 -0.4082 -0.3955
 1760WAT     H1 7760   5.359   3.487   6.482  0.1513 -0.1234 -0.3776
 1760WAT     H2 7761   5.276   3.479   6.373 -0.7540  1.0601  0.1904
 1760WAT    EPW 7762   5.348   3.488   6.404 -0.3558 -0.1492 -0.3063
 1761WAT      O 7763   7.728   1.021   5.622 -0.0938  0.0596 -0.3227
 1761WAT     H1 7764   7.756   1.094   5.583 -2.3844  1.2152  0.0161
 1761WAT     H2 7765   7.683   1.051   5.690 -0.1925 -1.7495  0.4515
 1761WAT    EPW 7766   7.726   1.036   5.626 -0.4467 -0.0369 -0.1583
 1762WAT      O 7767   2.170   1.917   0.361  0.6596  0.1198  0.7762
 1762WAT     H1 7768   2.118   1.903   0.293  1.6255  0.2198 -0.0079
 1762WAT     H2 7769   2.182   2.004   0.361 -0.0106  0.2305  1.6058
 1762WAT    EPW 7770   2.164   1.928   0.351  0.7033  0.1509  0.7830
 1763WAT      O 7771   0.718   5.230   4.374 -0.0512  0.1865 -0.4190
 1763WAT     H1 7772   0.738   5.171   4.313 -1.2907 -1.3727  0.6154
 1763WAT     H2 7773   0.641   5.261   4.348 -0.2306  0.0626 -0.0384
 1763WAT    EPW 7774   0.710   5.226   4.361 -0.2608 -0.0621 -0.2099
 1764WAT      O 7775   1.696   4.298   3.007 -0.0465 -0.4218 -0.1670
 1764WAT     H1 7776   1.723   4.341   3.078 -2.1324  1.3335 -0.3271
 1764WAT     H2 7777   1.766   4.253   2.982  1.9119  1.8610  0.8418
 1764WAT    EPW 7778   1.710   4.298   3.013 -0.0653  0.1747 -0.0416
 1765WAT      O 7779   5.083   3.362   7.618 -0.0396  0.4815  0.0161
 1765WAT     H1 7780   5.110   3.279   7.618  1.9370  1.0585 -1.4879
 1765WAT     H2 7781   5.065   3.378   7.534  1.2787  2.0405 -0.0230
 1765WAT    EPW 7782   5.084   3.352   7.606  0.4472  0.7971 -0.2118
 1766WAT      O 7783   5.689   4.422   6.501  0.3800 -0.2470  0.2380
 1766WAT     H1 7784   5.670   4.340   6.522  0.0174 -0.6571 -1.5622
 1766WAT     H2 7785   5.646   4.469   6.561 -1.9989 -1.2902 -0.5241
 1766WAT    EPW 7786   5.680   4.417   6.513 -0.0250 -0.4617 -0.1405
 1767WAT      O 7787   3.417   5.258   1.144 -0.2400 -0.4051  0.0849
 1767WAT     H1 7788   3.347   5.295   1.180  0.5366 -0.7444  2.0930
 1767WAT     H2 7789   3.392   5.176   1.128 -0.5241 -0.3240  0.1167
 1767WAT    EPW 7790   3.403   5.251   1.147 -0.1673 -0.4432  0.3862
 1768WAT      O 7791   3.701   5.955   5.010  0.1643  0.5848 -0.3634
 1768WAT     H1 7792   3.669   5.946   5.091  1.4984 -0.1933  0.1198
 1768WAT     H2 7793   3.786   5.968   5.023  0.1644  2.1268 -1.6120
 1768WAT    EPW 7794   3.708   5.955   5.024  0.3614  0.6976 -0.4765
 1769WAT      O 7795   5.793   1.982   0.844 -0.4614 -0.1469  0.6892
 1769WAT     H1 7796   5.818   1.908   0.882 -3.5695 -1.1191  1.1326
 1769WAT     H2 7797   5.828   1.979   0.765 -0.8682 -2.3483  0.5427
 1769WAT    EPW 7798   5.801   1.971   0.838 -0.9806 -0.6157  0.7330
 1770WAT      O 7799   7.340   5.861   5.463 -0.3870 -0.3530  0.0549
 1770WAT     H1 7800   7.294   5.899   5.400 -1.1248  0.8157  1.2300
 1770WAT     H2 7801   7.379   5.928   5.503  0.3294 -1.0880  0.6262
 1770WAT    EPW 7802   7.339   5.876   5.460 -0.3902 -0.2890  0.3129
 1771WAT      O 7803   5.746   2.359   1.945  0.2499  0.5449 -0.1287
 1771WAT     H1 7804   5.682   2.418   1.938 -0.6003 -0.1264  1.4455
 1771WAT     H2 7805   5.798   2.393   2.006  1.8739  1.4269 -1.8725
 1771WAT    EPW 7806   5.744   2.373   1.953  0.3642  0.5760 -0.1537
 1772WAT      O 7807   3.610   4.927   7.258 -0.5474 -0.2397  0.0876
 1772WAT     H1 7808   3.576   4.934   7.338  0.3150 -2.6956  0.7510
 1772WAT     H2 7809   3.598   4.843   7.237  0.4953  0.0121 -1.7731
 1772WAT    EPW 7810   3.603   4.916   7.266 -0.2660 -0.5653 -0.0893
 1773WAT      O 7811   5.172   1.855   7.550  0.0312 -0.5322  0.8331
 1773WAT     H1 7812   5.249   1.856   7.592  1.3686 -2.2609 -1.3875
 1773WAT     H2 7813   5.188   1.900   7.478 -0.6136 -2.0063 -0.2761
 1773WAT    EPW 7814   5.186   1.862   7.546  0.1335 -1.0053  0.3412
 1774WAT      O 7815   7.104   4.540   5.706 -0.2146  0.2767  0.0947
 1774WAT     H1 7816   7.127   4.495   5.777 -0.1497  0.4145  0.1591
 1774WAT     H2 7817   7.164   4.602   5.700  1.4739 -1.3498 -1.6233
 1774WAT    EPW 7818   7.116   4.542   5.715  0.0444  0.0568 -0.1496
 1775WAT      O 7819   0.916   7.529   0.524 -0.7406 -0.3405 -0.5306
 1775WAT     H1 7820   0.893   7.610   0.544 -0.3574 -0.1476 -0.8648
 1775WAT     H2 7821   1.001   7.527   0.541 -0.8842 -0.8887  0.1746
 1775WAT    EPW 7822   0.925   7.540   0.529 -0.7052 -0.3930 -0.4758
 1776WAT      O 7823   5.962   7.469   3.447 -0.1770 -0.1108 -0.0924
 1776WAT     H1 7824   6.045   7.453   3.468 -0.1180  0.1480 -0.1302
 1776WAT     H2 7825   5.943   7.405   3.390 -0.3452 -0.8365  0.7593
 1776WAT    EPW 7826   5.971   7.457   3.442 -0.1932 -0.1798  0.0279
 1777WAT      O 7827   0.906   4.980   4.716  0.1338  0.5112  0.4917
 1777WAT     H1 7828   0.826   4.998   4.686 -0.1275 -0.4556  0.5583
 1777WAT     H2 7829   0.943   5.058   4.725 -0.1797  0.9060 -1.2508
 1777WAT    EPW 7830   0.900   4.994   4.713  0.0489  0.4267  0.2441
 1778WAT      O 7831   0.030   4.428   6.375  0.0204  0.7108 -0.3257
 1778WAT     H1 7832   0.016   4.436   6.461  0.9115 -0.3372 -0.0636
 1778WAT     H2 7833   0.048   4.343   6.365  0.7974  0.9875 -1.4102
 1778WAT    EPW 7834   0.031   4.417   6.386  0.2668  0.5969 -0.4472
 1779WAT      O 7835   6.528   2.397   7.279  0.2279 -0.0641  0.3197
 1779WAT     H1 7836   6.493   2.430   7.206  0.3336 -0.1442  0.2331
 1779WAT     H2 7837   6.526   2.311   7.265  1.5338 -0.0238 -0.1772
 1779WAT    EPW 7838   6.522   2.389   7.266  0.4364 -0.0700  0.2335
 1780WAT      O 7839   5.349   2.634   0.080  0.3810  0.0374  0.2154
 1780WAT     H1 7840   5.378   2.594   0.152 -0.6542 -2.4579 -0.6426
 1780WAT     H2 7841   5.410   2.616   0.021 -0.6914 -1.4722 -0.4942
 1780WAT    EPW 7842   5.362   2.625   0.082  0.0697 -0.5542 -0.0162
 1781WAT      O 7843   5.484   5.983   3.504  0.3635 -0.3382  0.3025
 1781WAT     H1 7844   5.502   6.028   3.431 -2.8004  1.1876  0.2797
 1781WAT     H2 7845   5.440   5.913   3.475  1.4008 -1.1474  0.6309
 1781WAT    EPW 7846   5.480   5.979   3.489  0.0494 -0.2323  0.3476
 1782WAT      O 7847   6.344   6.019   5.828  0.2680 -0.2693  0.0824
 1782WAT     H1 7848   6.321   5.937   5.813  2.3055 -0.7457 -0.8385
 1782WAT     H2 7849   6.276   6.065   5.799 -2.0299 -1.5726  2.8925
 1782WAT    EPW 7850   6.331   6.014   5.822  0.2295 -0.5322  0.3615
 1783WAT      O 7851   5.690   2.245   1.681  0.3177 -0.0010  0.3084
 1783WAT     H1 7852   5.706   2.324   1.715  1.4257  0.0443 -0.2661
 1783WAT     H2 7853   5.754   2.235   1.623 -0.7195 -0.6651 -0.7616
 1783WAT    EPW 7854   5.702   2.255   1.678  0.3282 -0.0924  0.0655
 1784WAT      O 7855   4.557   5.317   3.198 -0.3484 -0.2034  0.4643
 1784WAT     H1 7856   4.525   5.236   3.201 -0.3189 -0.2825 -0.6819
 1784WAT     H2 7857   4.507   5.355   3.137  0.2205  0.3627  0.3506
 1784WAT    EPW 7858   4.545   5.310   3.189 -0.2600 -0.1314  0.2782
 1785WAT      O 7859   3.954   7.297   1.834 -0.1648  0.1694 -0.2350
 1785WAT     H1 7860   4.016   7.247   1.870  1.8951  4.4205  3.1393
 1785WAT     H2 7861   3.908   7.324   1.903 -2.9156  0.8250 -2.1563
 1785WAT    EPW 7862   3.956   7.294   1.850 -0.2669  0.8942 -0.0203
 1786WAT      O 7863   6.334   7.479   3.207  0.0079  0.4083 -0.0409
 1786WAT     H1 7864   6.352   7.564   3.203  1.6051  0.1767  1.0411
 1786WAT     H2 7865   6.407   7.441   3.177 -0.2025 -0.5879  0.6471
 1786WAT    EPW 7866   6.348   7.486   3.202  0.2128  0.2269  0.2206
 1787WAT      O 7867   2.300   1.615   6.876 -0.2592  0.3962 -0.0579
 1787WAT     H1 7868   2.296   1.567   6.804  0.2169  2.0767 -1.2684
 1787WAT     H2 7869   2.340   1.564   6.933 -0.5083 -0.9219 -1.0201
 1787WAT    EPW 7870   2.305   1.601   6.874 -0.2257  0.4497 -0.3788
 1788WAT      O 7871   6.408   3.297   6.203  0.7210  0.6625  0.0414
 1788WAT     H1 7872   6.335   3.298   6.156  0.0289  0.5936  1.0758
 1788WAT     H2 7873   6.427   3.212   6.212  1.4834  0.6987 -1.0213
 1788WAT    EPW 7874   6.400   3.285   6.198  0.7314  0.6577  0.0372
 1789WAT      O 7875   3.292   2.818   5.744 -0.1763 -0.1337 -0.2108
 1789WAT     H1 7876   3.319   2.899   5.762  0.3047  0.4237 -3.0138
 1789WAT     H2 7877   3.207   2.828   5.730 -0.5033 -0.5256  1.2750
 1789WAT    EPW 7878   3.283   2.831   5.745 -0.1536 -0.1093 -0.4054
 1790WAT      O 7879   0.251   7.147   5.005 -0.2138 -0.6419  0.2402
 1790WAT     H1 7880   0.315   7.097   5.035 -0.6407 -1.4716 -0.1742
 1790WAT     H2 7881   0.210   7.174   5.077 -0.6873 -1.8620  0.4487
 1790WAT    EPW 7882   0.254   7.144   5.020 -0.3468 -0.9447  0.2098
 1791WAT      O 7883   4.778   2.256   5.547  0.8661  0.3232  0.1555
 1791WAT     H1 7884   4.694   2.267   5.526  1.3234  0.9942 -1.5242
 1791WAT     H2 7885   4.816   2.330   5.520  2.0338 -0.0882  0.6045
 1791WAT    EPW 7886   4.771   2.269   5.540  1.1061  0.3616 -0.0263
 1792WAT      O 7887   6.473   0.027   4.341  0.6007  0.3548 -0.1609
 1792WAT     H1 7888   6.490   0.112   4.337  1.0689  0.2398 -0.9307
 1792WAT     H2 7889   6.491   0.005   4.423  0.9387  0.9082 -0.0863
 1792WAT    EPW 7890   6.478   0.036   4.352  0.7198  0.4196 -0.2636
 1793WAT      O 7891   3.994   2.482   7.573 -0.7922  0.0612  0.2898
 1793WAT     H1 7892   3.970   2.561   7.601 -1.3070  0.0188 -0.0256
 1793WAT     H2 7893   3.938   2.428   7.613 -0.4572 -0.1496  0.4853
 1793WAT    EPW 7894   3.982   2.486   7.583 -0.8188  0.0238  0.2721
 1794WAT      O 7895   7.068   1.526   4.923 -0.1552 -0.1674 -0.0987
 1794WAT     H1 7896   6.984   1.529   4.899 -0.0635  0.7375 -0.3652
 1794WAT     H2 7897   7.109   1.566   4.857  0.2460  1.2357  0.9504
 1794WAT    EPW 7898   7.061   1.533   4.910 -0.0824  0.1735  0.0169
 1795WAT      O 7899   7.517   3.351   4.938  0.1674 -0.3546  0.6157
 1795WAT     H1 7900   7.519   3.426   4.894 -0.5535 -1.1464 -0.8283
 1795WAT     H2 7901   7.601   3.326   4.938  0.1347 -0.5521 -0.7318
 1795WAT    EPW 7902   7.530   3.359   4.932  0.0561 -0.5007  0.2033
 1796WAT      O 7903   4.992   6.104   3.098  0.2147 -0.5662 -0.8084
 1796WAT     H1 7904   5.040   6.071   3.164  0.3135  1.6416  0.3094
 1796WAT     H2 7905   4.950   6.034   3.066  0.7832 -1.8414  1.0687
 1796WAT    EPW 7906   4.993   6.088   3.103  0.3133 -0.4284 -0.3660
 1797WAT      O 7907   3.547   3.807   6.497 -0.1428  0.3758 -0.9520
 1797WAT     H1 7908   3.588   3.750   6.548 -0.2461  0.9242 -0.2380
 1797WAT     H2 7909   3.610   3.860   6.470  0.4432 -1.5896 -3.8051
 1797WAT    EPW 7910   3.562   3.807   6.501 -0.0715  0.1665 -1.2680
 1798WAT      O 7911   0.856   0.247   7.728  0.2592 -0.0292 -0.3714
 1798WAT     H1 7912   0.886   0.320   7.690  0.8134 -0.7859 -1.4509
 1798WAT     H2 7913   0.885   0.253   7.810 -1.5933  2.0060  0.2166
 1798WAT    EPW 7914   0.865   0.259   7.734  0.0674  0.1596 -0.4440
 1799WAT      O 7915   5.728   2.807   4.302  0.1591  0.2803 -0.0127
 1799WAT     H1 7916   5.674   2.864   4.264  0.0933 -0.3515 -0.9024
 1799WAT     H2 7917   5.705   2.810   4.387 -2.9335 -1.6289 -0.6290
 1799WAT    EPW 7918   5.716   2.816   4.309 -0.3075 -0.0951 -0.2352
 1800WAT      O 7919   4.950   7.534   1.097  0.3480  0.1311  0.4529
 1800WAT     H1 7920   4.921   7.608   1.134  0.3281  0.6307 -0.5240
 1800WAT     H2 7921   4.913   7.536   1.018  0.1133 -1.0872  0.5220
 1800WAT    EPW 7922   4.940   7.545   1.091  0.3104  0.0249  0.3188
 1801WAT      O 7923   4.618   2.123   0.461 -0.0147  0.0042  0.4473
 1801WAT     H1 7924   4.559   2.146   0.402 -1.4562  1.3346  2.2794
 1801WAT     H2 7925   4.690   2.109   0.414 -0.4786  3.0850 -1.4631
 1801WAT    EPW 7926   4.620   2.124   0.445 -0.2961  0.6558  0.4357
 1802WAT      O 7927   6.485   6.159   4.259 -0.3364 -0.7459  0.3075
 1802WAT     H1 7928   6.445   6.153   4.336 -0.4892 -0.6695  0.2355
 1802WAT     H2 7929   6.419   6.159   4.202 -0.2960  0.4382  0.2373
 1802WAT    EPW 7930   6.469   6.158   4.262 -0.3530 -0.5597  0.2865
 1803WAT      O 7931   3.508   4.747   0.700 -0.2348 -0.1352  0.2568
 1803WAT     H1 7932   3.546   4.734   0.622 -1.5865 -2.8045 -0.0715
 1803WAT     H2 7933   3.435   4.790   0.679  0.0641  0.3621  0.2298
 1803WAT    EPW 7934   3.503   4.752   0.685 -0.3903 -0.4561  0.2043
 1804WAT      O 7935   6.324   3.705   6.674  0.0063 -0.0636  0.5764
 1804WAT     H1 7936   6.299   3.780   6.711  0.9038 -0.2455  1.5754
 1804WAT     H2 7937   6.292   3.643   6.726  0.5669 -0.3435  0.5957
 1804WAT    EPW 7938   6.316   3.707   6.687  0.2217 -0.1318  0.7268
 1805WAT      O 7939   7.192   3.781   4.147  0.2761 -0.2968  0.0683
 1805WAT     H1 7940   7.222   3.713   4.193  1.1267  0.3984  0.5678
 1805WAT     H2 7941   7.109   3.760   4.131  0.4140 -1.2599  0.5862
 1805WAT    EPW 7942   7.184   3.768   4.151  0.4221 -0.3364  0.2186
 1806WAT      O 7943   5.290   1.378   2.394 -0.0667  0.3434  0.5400
 1806WAT     H1 7944   5.313   1.294   2.399 -1.8942 -0.5777 -3.2218
 1806WAT     H2 7945   5.358   1.420   2.430  3.3581 -2.5146 -1.8766
 1806WAT    EPW 7946   5.303   1.372   2.400  0.1692 -0.2148 -0.3727
 1807WAT      O 7947   5.279   2.765   4.468  0.1684  0.4606  0.0565
 1807WAT     H1 7948   5.322   2.725   4.404 -0.1814  1.3166 -0.7450
 1807WAT     H2 7949   5.249   2.700   4.518 -1.7752 -0.3970 -2.0665
 1807WAT    EPW 7950   5.281   2.750   4.466 -0.1704  0.4603 -0.3755
 1808WAT      O 7951   6.758   5.658   4.678 -0.4173 -0.0047  0.4511
 1808WAT     H1 7952   6.812   5.706   4.629  1.7459 -2.2183  0.4831
 1808WAT     H2 7953   6.680   5.669   4.639  0.3343  2.0090 -0.5993
 1808WAT    EPW 7954   6.754   5.666   4.665  0.0133 -0.0342  0.3007
 1809WAT      O 7955   5.428   5.062   0.835 -0.4639 -0.4307 -0.2486
 1809WAT     H1 7956   5.471   5.138   0.827  0.6484 -1.0142 -0.0406
 1809WAT     H2 7957   5.492   5.003   0.831 -1.1968 -1.3060  0.6868
 1809WAT    EPW 7958   5.444   5.065   0.833 -0.4078 -0.6462 -0.0797
 1810WAT      O 7959   5.476   5.284   5.946  0.0091  0.2047  0.0054
 1810WAT     H1 7960   5.467   5.303   6.030 -1.3114  0.2963 -0.1355
 1810WAT     H2 7961   5.394   5.277   5.917  0.3387 -3.1364 -0.5364
 1810WAT    EPW 7962   5.463   5.286   5.954 -0.1373 -0.2753 -0.0954
 1811WAT      O 7963   5.404   4.687   3.004  0.0892 -0.0677 -0.3054
 1811WAT     H1 7964   5.347   4.710   2.943  1.6664  0.0243 -1.8260
 1811WAT     H2 7965   5.434   4.764   3.033  0.1729 -0.1260 -0.2398
 1811WAT    EPW 7966   5.400   4.702   2.999  0.3346 -0.0627 -0.5203
 1812WAT      O 7967   5.324   5.284   5.019 -0.5126  0.1104  0.9196
 1812WAT     H1 7968   5.407   5.312   5.017 -0.5122  0.1559 -2.0763
 1812WAT     H2 7969   5.287   5.321   4.950 -2.9359 -0.3553  1.8558
 1812WAT    EPW 7970   5.331   5.294   5.009 -0.8705  0.0484  0.6153
 1813WAT      O 7971   6.829   6.443   1.160  0.3218 -0.2956  0.3109
 1813WAT     H1 7972   6.883   6.393   1.207  0.2644 -0.2469  0.4297
 1813WAT     H2 7973   6.750   6.415   1.183  0.2189  0.9717  1.6769
 1813WAT    EPW 7974   6.825   6.432   1.170  0.2981 -0.1012  0.5302
 1814WAT      O 7975   5.475   3.218   3.905 -0.7528 -0.4458  0.6538
 1814WAT     H1 7976   5.457   3.229   3.990  0.3928  0.7739  0.7794
 1814WAT     H2 7977   5.550   3.262   3.894 -1.0624 -0.2650 -1.0717
 1814WAT    EPW 7978   5.484   3.226   3.916 -0.6293 -0.2389  0.4175
 1815WAT      O 7979   4.439   1.151   1.316  0.5964 -0.2932  0.5822
 1815WAT     H1 7980   4.431   1.082   1.369  0.8099  0.3540  1.4762
 1815WAT     H2 7981   4.435   1.219   1.370 -3.2149  0.6322 -0.5653
 1815WAT    EPW 7982   4.438   1.151   1.332  0.0649 -0.0609  0.5448
 1816WAT      O 7983   6.712   2.450   6.706 -0.0627  0.0003 -0.0260
 1816WAT     H1 7984   6.655   2.405   6.753 -2.0585  2.5339  0.1924
 1816WAT     H2 7985   6.668   2.469   6.633  1.2474  0.3066 -0.7706
 1816WAT    EPW 7986   6.697   2.446   6.702 -0.1640  0.4198 -0.1037
 1817WAT      O 7987   5.839   3.439   2.336 -0.1545 -0.1200 -0.0640
 1817WAT     H1 7988   5.860   3.363   2.375 -0.0199 -0.2849 -0.4540
 1817WAT     H2 7989   5.817   3.415   2.255 -0.7288  0.1880 -0.0040
 1817WAT    EPW 7990   5.839   3.424   2.330 -0.2195 -0.0988 -0.1127
 1818WAT      O 7991   5.785   2.757   1.152 -0.2897  0.3721 -0.0500
 1818WAT     H1 7992   5.755   2.835   1.175 -1.2232 -0.5431  2.0636
 1818WAT     H2 7993   5.848   2.740   1.210 -0.1288 -0.4819 -0.4450
 1818WAT    EPW 7994   5.790   2.766   1.164 -0.4039  0.1107  0.2039
 1819WAT      O 7995   6.894   4.425   7.180  0.2528 -0.3111 -0.2424
 1819WAT     H1 7996   6.981   4.426   7.181  0.2646 -0.8944  0.0489
 1819WAT     H2 7997   6.873   4.402   7.262 -0.2557  2.3795  0.4970
 1819WAT    EPW 7998   6.904   4.422   7.192  0.1794  0.0002 -0.0902
 1820WAT      O 7999   2.812   1.567   1.954 -0.3169 -0.3315 -0.3316
 1820WAT     H1 8000   2.898   1.568   1.943 -0.2281  0.1774  0.3521
 1820WAT     H2 8001   2.793   1.649   1.976 -0.8792 -0.5926  0.1968
 1820WAT    EPW 8002   2.822   1.579   1.956 -0.3869 -0.2949 -0.1525
 1821WAT      O 8003   0.518   1.623   4.903  0.3397 -0.1398  0.0599
 1821WAT     H1 8004   0.600   1.616   4.876  1.3478  0.4315  2.6301
 1821WAT     H2 8005   0.480   1.672   4.842  1.6604 -1.0660 -1.5789
 1821WAT    EPW 8006   0.524   1.629   4.890  0.6837 -0.1923  0.1975
 1822WAT      O 8007   5.420   0.629   7.722 -0.0511  0.2499 -0.0112
 1822WAT     H1 8008   5.466   0.668   7.786 -0.3563  1.8650 -0.7089
 1822WAT     H2 8009   5.479   0.578   7.683  0.5830  0.5968  0.4698
 1822WAT    EPW 8010   5.436   0.628   7.726 -0.0025  0.5397 -0.0432
 1823WAT      O 8011   4.988   7.509   7.251  0.1448 -0.3420  0.4744
 1823WAT     H1 8012   4.967   7.594   7.249 -0.5849 -0.5359 -0.6752
 1823WAT     H2 8013   5.069   7.509   7.285 -0.2767  0.7130  1.5453
 1823WAT    EPW 8014   4.997   7.522   7.256 -0.0253 -0.2148  0.4628
 1824WAT      O 8015   5.784   5.010   2.312 -0.1346  0.2874 -0.0460
 1824WAT     H1 8016   5.741   5.086   2.323 -0.5926 -0.0056  0.2078
 1824WAT     H2 8017   5.849   5.015   2.369 -1.7915 -0.7112  2.0603
 1824WAT    EPW 8018   5.787   5.022   2.322 -0.4470  0.0966  0.3026
 1825WAT      O 8019   5.751   1.503   1.481  0.0789 -0.2011  0.5756
 1825WAT     H1 8020   5.779   1.574   1.525 -1.3491  0.5961  0.2806
 1825WAT     H2 8021   5.751   1.529   1.398  1.4998 -1.2659  0.2072
 1825WAT    EPW 8022   5.755   1.518   1.476  0.0779 -0.2406  0.4776
 1826WAT      O 8023   2.866   7.365   3.285 -0.2411  0.0371  0.6278
 1826WAT     H1 8024   2.791   7.334   3.315 -0.1820  0.4539  1.2181
 1826WAT     H2 8025   2.922   7.299   3.297 -0.4981 -0.2529  0.2371
 1826WAT    EPW 8026   2.863   7.350   3.291 -0.2704  0.0558  0.6573
 1827WAT      O 8027   0.181   4.220   7.366 -0.0637 -0.2034 -0.1228
 1827WAT     H1 8028   0.243   4.167   7.335  0.7156 -0.0066  1.0309
 1827WAT     H2 8029   0.139   4.170   7.424 -0.1256  0.0600  0.0604
 1827WAT    EPW 8030   0.184   4.205   7.370  0.0423 -0.1354  0.0747
 1828WAT      O 8031   4.844   2.833   1.822  0.0195  0.0621  0.8597
 1828WAT     H1 8032   4.848   2.752   1.790 -0.8176  0.9399 -1.6882
 1828WAT     H2 8033   4.927   2.852   1.841  0.2996 -1.1590  0.9484
 1828WAT    EPW 8034   4.857   2.824   1.820 -0.0628  0.0114  0.4964
 1829WAT      O 8035   0.506   6.363   4.499  0.3510  0.2784  0.6518
 1829WAT     H1 8036   0.442   6.336   4.552  0.5658  0.0467  0.7943
 1829WAT     H2 8037   0.503   6.306   4.433 -0.7542  1.3033 -0.2396
 1829WAT    EPW 8038   0.496   6.350   4.497  0.2195  0.3956  0.5412
 1830WAT      O 8039   2.191   5.207   6.365  0.1425  0.3640  0.0763
 1830WAT     H1 8040   2.167   5.197   6.282  1.3204  0.9227 -0.3469
 1830WAT     H2 8041   2.273   5.178   6.367 -0.1568 -0.5178  1.2654
 1830WAT    EPW 8042   2.199   5.201   6.353  0.2723  0.3162  0.1895
 1831WAT      O 8043   5.495   0.679   2.461 -0.2320 -0.0534 -0.4252
 1831WAT     H1 8044   5.562   0.714   2.417  1.0733 -1.1080  0.6081
 1831WAT     H2 8045   5.450   0.748   2.489  0.8262  0.7211 -0.5699
 1831WAT    EPW 8046   5.498   0.694   2.458  0.1172 -0.0948 -0.2939
 1832WAT      O 8047   1.982   3.313   1.639  0.1423 -0.1135  0.5009
 1832WAT     H1 8048   1.992   3.237   1.680 -0.3651  0.0685  0.9767
 1832WAT     H2 8049   2.018   3.299   1.561 -1.5535 -1.4607 -0.1203
 1832WAT    EPW 8050   1.989   3.300   1.633 -0.1832 -0.2856  0.4794
 1833WAT      O 8051   4.857   0.974   2.294  0.6187 -0.2687 -0.2349
 1833WAT     H1 8052   4.899   0.915   2.343 -0.0893 -1.9442 -1.5797
 1833WAT     H2 8053   4.792   1.001   2.346  0.1248 -1.7043 -0.0750
 1833WAT    EPW 8054   4.854   0.969   2.309  0.4412 -0.7283 -0.4099
 1834WAT      O 8055   6.131   0.782   0.879 -0.5664  0.2786 -0.0243
 1834WAT     H1 8056   6.071   0.724   0.904  0.2342 -0.2769  0.6676
 1834WAT     H2 8057   6.206   0.746   0.904  0.0661  0.9323 -0.9225
 1834WAT    EPW 8058   6.133   0.768   0.886 -0.3547  0.2931 -0.0547
 1835WAT      O 8059   1.645   5.009   4.275  0.1535  0.1924 -0.3604
 1835WAT     H1 8060   1.694   5.073   4.306 -0.2541 -0.2120  1.2451
 1835WAT     H2 8061   1.692   4.976   4.209  0.4045  2.0385 -1.1589
 1835WAT    EPW 8062   1.659   5.014   4.270  0.1304  0.4053 -0.2412
 1836WAT      O 8063   1.834   5.212   4.438  0.0841  0.0605  0.3562
 1836WAT     H1 8064   1.907   5.225   4.391 -0.5478 -0.6390 -0.8774
 1836WAT     H2 8065   1.865   5.187   4.516  1.1655  1.1985  0.3324
 1836WAT    EPW 8066   1.850   5.210   4.442  0.1505  0.1253  0.1704
 1837WAT      O 8067   3.323   6.773   7.431 -0.2401  0.4035  0.0058
 1837WAT     H1 8068   3.298   6.703   7.477  0.4525  0.2336  0.1383
 1837WAT     H2 8069   3.392   6.745   7.386  0.9766  1.3710  1.1740
 1837WAT    EPW 8070   3.330   6.759   7.431  0.0419  0.5213  0.1980
 1838WAT      O 8071   7.350   3.971   7.617  0.0510 -0.1161  0.5856
 1838WAT     H1 8072   7.311   4.025   7.673  2.0305 -0.0521  2.0147
 1838WAT     H2 8073   7.406   4.023   7.573  0.2637 -0.5919  0.2792
 1838WAT    EPW 8074   7.353   3.987   7.618  0.3748 -0.1769  0.7514
 1839WAT      O 8075   4.403   4.317   1.945  0.7407 -0.2380 -0.2666
 1839WAT     H1 8076   4.381   4.335   2.027  3.5463 -1.5933  0.8751
 1839WAT     H2 8077   4.452   4.385   1.922  0.1843  0.0059 -0.7820
 1839WAT    EPW 8078   4.407   4.330   1.953  1.0729 -0.4022 -0.1741
 1840WAT      O 8079   7.555   4.139   7.513  0.5292 -0.5833  0.3151
 1840WAT     H1 8080   7.610   4.087   7.472  2.1007  0.5429  0.9027
 1840WAT     H2 8081   7.604   4.179   7.573 -1.1195 -0.2271  1.5207
 1840WAT    EPW 8082   7.570   4.137   7.516  0.5178 -0.3643  0.5800
 1841WAT      O 8083   5.078   4.443   3.720 -0.4861 -0.0256  0.2068
 1841WAT     H1 8084   5.148   4.406   3.682  0.0104  0.9377  0.1485
 1841WAT     H2 8085   5.044   4.493   3.657 -1.2662 -0.5217  0.2245
 1841WAT    EPW 8086   5.084   4.445   3.705 -0.5280  0.0434  0.2008
 1842WAT      O 8087   5.894   5.304   1.947  0.0946  0.1803  0.2721
 1842WAT     H1 8088   5.916   5.365   1.888  0.1755  0.5519  0.6788
 1842WAT     H2 8089   5.879   5.351   2.020 -1.1070 -0.1529  0.2555
 1842WAT    EPW 8090   5.895   5.320   1.949 -0.0709  0.1860  0.3297
 1843WAT      O 8091   3.903   6.516   3.946  0.3264 -0.0181  0.1094
 1843WAT     H1 8092   3.869   6.467   4.011  1.1250  0.6618  1.0706
 1843WAT     H2 8093   3.988   6.516   3.963  0.7369 -0.9879 -1.7880
 1843WAT    EPW 8094   3.910   6.509   3.958  0.5050 -0.0609 -0.0289
 1844WAT      O 8095   5.536   1.953   0.772 -0.0923  0.2099  0.5488
 1844WAT     H1 8096   5.496   1.971   0.848  0.7241 -0.0920  1.0635
 1844WAT     H2 8097   5.619   1.974   0.787  0.5874 -2.2967  0.6221
 1844WAT    EPW 8098   5.542   1.959   0.786  0.1287 -0.2049  0.6357
 1845WAT      O 8099   5.777   2.594   2.975 -0.3639  0.1039 -0.3751
 1845WAT     H1 8100   5.754   2.647   3.040 -1.3701 -1.6670  0.7914
 1845WAT     H2 8101   5.703   2.582   2.931 -0.1162 -0.2784 -0.6971
 1845WAT    EPW 8102   5.763   2.600   2.978 -0.4760 -0.2141 -0.2504
 1846WAT      O 8103   6.079   0.932   3.583  0.2342  0.0537 -0.1909
 1846WAT     H1 8104   6.003   0.892   3.599 -0.8213  1.9448 -0.3033
 1846WAT     H2 8105   6.095   0.976   3.656  0.7062  0.4919 -0.5530
 1846WAT    EPW 8106   6.070   0.932   3.596  0.1480  0.3978 -0.2610
 1847WAT      O 8107   6.093   2.866   2.046  0.2352 -0.1334  0.1710
 1847WAT     H1 8108   6.175   2.841   2.029  1.7673  3.7696  0.7904
 1847WAT     H2 8109   6.085   2.850   2.132 -0.5386 -2.3857 -0.2431
 1847WAT    EPW 8110   6.104   2.860   2.056  0.3472  0.1104  0.2013
 1848WAT      O 8111   5.159   4.169   3.322 -0.4760 -0.1233  0.6026
 1848WAT     H1 8112   5.179   4.221   3.255  0.1069 -0.9654  0.1042
 1848WAT     H2 8113   5.235   4.133   3.344 -0.9716 -1.3392  0.4332
 1848WAT    EPW 8114   5.173   4.171   3.315 -0.4631 -0.4273  0.5040
 1849WAT      O 8115   4.820   7.527   2.998  0.3912  0.3522  0.7553
 1849WAT     H1 8116   4.894   7.501   2.959  0.1333  0.7855 -0.0542
 1849WAT     H2 8117   4.819   7.614   2.985 -1.0311  0.1733 -0.6732
 1849WAT    EPW 8118   4.831   7.536   2.990  0.1430  0.3898  0.4247
 1850WAT      O 8119   1.422   4.317   5.410 -0.0731  0.6333  0.1168
 1850WAT     H1 8120   1.451   4.266   5.475  1.6236  0.0723 -1.0101
 1850WAT     H2 8121   1.421   4.396   5.446 -0.7644  0.1306  1.2934
 1850WAT    EPW 8122   1.426   4.321   5.425  0.0754  0.4761  0.1241
 1851WAT      O 8123   5.122   4.350   2.094 -0.0183 -0.2563  0.0591
 1851WAT     H1 8124   5.196   4.396   2.087 -0.6178  0.5871 -0.9184
 1851WAT     H2 8125   5.123   4.322   2.177  1.9182 -1.1770 -0.2169
 1851WAT    EPW 8126   5.133   4.353   2.106  0.1792 -0.2678 -0.1260
 1852WAT      O 8127   0.418   2.215   6.757 -0.1883 -0.0066  0.0082
 1852WAT     H1 8128   0.344   2.260   6.770 -0.3247 -0.5832  1.3876
 1852WAT     H2 8129   0.479   2.262   6.798  0.6741  1.4983 -2.7106
 1852WAT    EPW 8130   0.416   2.229   6.765 -0.0810  0.1305 -0.1896
 1853WAT      O 8131   0.054   4.552   5.620 -0.1511  0.5058 -0.0498
 1853WAT     H1 8132   0.112   4.583   5.677 -0.6343  2.7155 -0.6596
 1853WAT     H2 8133  -0.022   4.563   5.661 -0.2901 -1.0261  0.1627
 1853WAT    EPW 8134   0.052   4.558   5.634 -0.2430  0.6059 -0.1085
 1854WAT      O 8135   4.936   4.191   3.486 -0.2478  0.8537  0.4301
 1854WAT     H1 8136   5.006   4.214   3.439 -0.5242  2.0238  0.5665
 1854WAT     H2 8137   4.889   4.264   3.489 -1.6298  0.0046  0.0952
 1854WAT    EPW 8138   4.939   4.205   3.479 -0.4927  0.9011  0.4008
 1855WAT      O 8139   1.785   1.259   4.919 -0.3241  0.0355 -0.1521
 1855WAT     H1 8140   1.727   1.246   4.855 -1.7633  3.9655  0.1117
 1855WAT     H2 8141   1.858   1.280   4.877 -0.5355  0.0443 -0.5171
 1855WAT    EPW 8142   1.787   1.260   4.904 -0.5679  0.6174 -0.1671
 1856WAT      O 8143   5.068   6.327   1.147  0.0237  0.0101  0.3255
 1856WAT     H1 8144   5.000   6.313   1.095  0.1832 -0.5623  0.2576
 1856WAT     H2 8145   5.102   6.247   1.158  0.4314  0.2281  0.7008
 1856WAT    EPW 8146   5.063   6.313   1.141  0.1075 -0.0422  0.3709
 1857WAT      O 8147   4.509   0.464   3.403 -0.6450  0.4189  0.4419
 1857WAT     H1 8148   4.527   0.383   3.427  1.1078  0.3743 -0.8466
 1857WAT     H2 8149   4.465   0.454   3.328 -0.3032  0.6578  0.2071
 1857WAT    EPW 8150   4.505   0.451   3.395 -0.3356  0.4476  0.2169
 1858WAT      O 8151   6.292   1.275   5.915 -0.1587 -0.1034  0.1281
 1858WAT     H1 8152   6.242   1.324   5.864  1.4554  1.8466  0.2862
 1858WAT     H2 8153   6.237   1.247   5.977 -2.1838 -2.6013 -2.5403
 1858WAT    EPW 8154   6.277   1.278   5.917 -0.2194 -0.1843 -0.2428
 1859WAT      O 8155   5.604   2.389   1.388  0.1445  0.3154 -0.4375
 1859WAT     H1 8156   5.599   2.431   1.312  1.4899  0.4707 -0.4666
 1859WAT     H2 8157   5.572   2.446   1.445 -0.4614  0.3668 -0.8199
 1859WAT    EPW 8158   5.598   2.403   1.385  0.2537  0.3459 -0.4983
 1860WAT      O 8159   3.381   6.589   3.136  0.6899  0.3684  0.1086
 1860WAT     H1 8160   3.421   6.539   3.195  1.7935  0.7625 -0.2792
 1860WAT     H2 8161   3.442   6.648   3.115  0.0845  0.6435 -0.9236
 1860WAT    EPW 8162   3.396   6.591   3.142  0.7635  0.4672 -0.1011
 1861WAT      O 8163   5.500   2.085   3.637 -0.1916  0.1788 -0.0434
 1861WAT     H1 8164   5.490   2.169   3.615  1.7074 -0.0286 -2.1228
 1861WAT     H2 8165   5.466   2.042   3.569 -0.1802 -0.6898  0.4963
 1861WAT    EPW 8166   5.494   2.091   3.624  0.0906  0.0198 -0.2709
 1862WAT      O 8167   6.400   7.026   3.894  0.6159 -0.2380 -0.2463
 1862WAT     H1 8168   6.348   7.006   3.827  1.3519 -1.3477 -0.5253
 1862WAT     H2 8169   6.345   7.034   3.961 -0.0494  0.0852 -0.8217
 1862WAT    EPW 8170   6.385   7.024   3.894  0.6263 -0.3542 -0.3725
 1863WAT      O 8171   3.488   5.765   7.545 -0.2262  0.6096 -0.5204
 1863WAT     H1 8172   3.484   5.680   7.527  0.6628 -0.5444  3.6488
 1863WAT     H2 8173   3.407   5.793   7.527 -1.2209 -1.6571  0.0294
 1863WAT    EPW 8174   3.475   5.757   7.540 -0.2418  0.1043  0.1767
 1864WAT      O 8175   5.205   4.676   2.324  0.2260 -0.0073  0.2681
 1864WAT     H1 8176   5.277   4.666   2.372  0.8098  0.9494 -0.3608
 1864WAT     H2 8177   5.228   4.739   2.267 -1.1653  0.4467  0.1768
 1864WAT    EPW 8178   5.219   4.684   2.322  0.1067  0.2011  0.1617
 1865WAT      O 8179   2.322   4.985   4.444 -0.1785  0.2420 -0.1182
 1865WAT     H1 8180   2.301   4.953   4.522  1.2362 -0.3444  0.0461
 1865WAT     H2 8181   2.344   4.914   4.398  0.2268  0.7048 -0.6528
 1865WAT    EPW 8182   2.322   4.970   4.448  0.0903  0.2237 -0.1729
 1866WAT      O 8183   7.423   5.216   0.010 -0.3640  0.0342  0.2728
 1866WAT     H1 8184   7.377   5.170   0.068 -1.5702 -0.2487 -0.8645
 1866WAT     H2 8185   7.362   5.249  -0.043  0.6409  1.0662 -0.2878
 1866WAT    EPW 8186   7.407   5.214   0.011 -0.3938  0.1448  0.0220
 1867WAT      O 8187   5.438   6.744   6.876 -0.2407 -0.3380 -0.1325
 1867WAT     H1 8188   5.456   6.796   6.943 -1.4960 -0.5098  0.3721
 1867WAT     H2 8189   5.355   6.764   6.856 -0.8162 -2.2071  0.1722
 1867WAT    EPW 8190   5.428   6.755   6.883 -0.5111 -0.6395 -0.0130
 1868WAT      O 8191   6.037   3.124   5.564  0.4474 -0.4059 -0.1248
 1868WAT     H1 8192   6.080   3.151   5.635  1.0072 -1.3856 -0.0797
 1868WAT     H2 8193   6.013   3.199   5.525  0.5296  0.1403  0.8463
 1868WAT    EPW 8194   6.040   3.139   5.569  0.5423 -0.4699  0.0253
 1869WAT      O 8195   0.205   5.651   7.393 -0.0200 -0.0794  0.4720
 1869WAT     H1 8196   0.159   5.588   7.431  1.6487 -0.8915  1.2733
 1869WAT     H2 8197   0.163   5.665   7.318 -1.5913 -0.6756  1.2063
 1869WAT    EPW 8198   0.192   5.644   7.387 -0.0056 -0.2874  0.6989
 1870WAT      O 8199   2.146   4.615   2.049 -0.4168  0.2242  0.1678
 1870WAT     H1 8200   2.090   4.584   2.108 -1.2688 -1.2143 -1.3219
 1870WAT     H2 8201   2.198   4.668   2.096 -1.3396 -0.4799  2.0888
 1870WAT    EPW 8202   2.145   4.618   2.065 -0.6790 -0.0923  0.2315
 1871WAT      O 8203   0.193   3.100   6.210  0.0499 -0.0419 -0.5617
 1871WAT     H1 8204   0.252   3.104   6.146 -0.9471 -0.7795 -1.5647
 1871WAT     H2 8205   0.231   3.049   6.269  0.3794 -0.6086 -1.2480
 1871WAT    EPW 8206   0.208   3.093   6.209 -0.0487 -0.2346 -0.8113
 1872WAT      O 8207   4.861   5.156   4.397 -0.2954 -0.4338  0.2869
 1872WAT     H1 8208   4.834   5.092   4.450 -2.0707 -0.2996 -0.3767
 1872WAT     H2 8209   4.786   5.188   4.365  0.5605  1.7897  0.3762
 1872WAT    EPW 8210   4.846   5.151   4.400 -0.4312 -0.0855  0.2021
 1873WAT      O 8211   5.695   0.867   1.399 -0.4346  0.5488 -0.1122
 1873WAT     H1 8212   5.690   0.953   1.387 -0.5086  0.3691 -1.4498
 1873WAT     H2 8213   5.771   0.857   1.442 -1.2876  1.4042  1.7197
 1873WAT    EPW 8214   5.706   0.878   1.404 -0.5715  0.6486 -0.0391
 1874WAT      O 8215   0.512   7.497   4.898  0.3766  0.9306 -0.1516
 1874WAT     H1 8216   0.459   7.504   4.967  0.2527  1.3691 -0.2911
 1874WAT     H2 8217   0.468   7.535   4.833  0.0239 -0.4190 -0.7515
 1874WAT    EPW 8218   0.498   7.504   4.899  0.3062  0.7960 -0.2608
 1875WAT      O 8219   4.915   2.621   6.379 -0.0541 -0.0113 -0.3586
 1875WAT     H1 8220   4.955   2.607   6.303 -0.6845 -0.7880 -0.5730
 1875WAT     H2 8221   4.926   2.706   6.394  0.1038  0.1435 -1.3090
 1875WAT    EPW 8222   4.922   2.631   6.370 -0.1239 -0.1031 -0.5306
 1876WAT      O 8223   5.925   2.973   4.727 -0.4692 -0.1167  0.6075
 1876WAT     H1 8224   5.979   3.024   4.681 -0.6139 -0.1588  0.3885
 1876WAT     H2 8225   5.974   2.905   4.749 -0.6709 -0.5865 -0.3585
 1876WAT    EPW 8226   5.940   2.970   4.723 -0.5203 -0.1923  0.4325
 1877WAT      O 8227   6.439   5.172   4.577 -0.1731 -0.1131 -0.0681
 1877WAT     H1 8228   6.509   5.222   4.590 -0.4469  0.4059 -0.5455
 1877WAT     H2 8229   6.427   5.133   4.654  0.3221  0.2030  0.1756
 1877WAT    EPW 8230   6.447   5.174   4.590 -0.1404  0.0102 -0.1026
 1878WAT      O 8231   5.367   4.225   5.225  0.3769 -0.2914 -0.0795
 1878WAT     H1 8232   5.381   4.255   5.145 -0.1896  1.9488  0.5952
 1878WAT     H2 8233   5.280   4.223   5.232  0.4165 -0.2946  0.5133
 1878WAT    EPW 8234   5.356   4.229   5.214  0.2991  0.0391  0.1077
 1879WAT      O 8235   6.368   2.962   6.163  0.4239 -0.5852 -0.2667
 1879WAT     H1 8236   6.453   2.946   6.154  0.9295  0.5646  1.7243
 1879WAT     H2 8237   6.344   2.909   6.228  0.0919  0.4004  0.4472
 1879WAT    EPW 8238   6.377   2.952   6.171  0.4495 -0.2697  0.1329
 1880WAT      O 8239   2.459   0.944   1.257 -0.5734 -0.2753 -0.2816
 1880WAT     H1 8240   2.509   0.933   1.187 -0.9530 -0.2226 -0.5595
 1880WAT     H2 8241   2.381   0.917   1.231 -1.0254  0.9893 -0.2903
 1880WAT    EPW 8242   2.455   0.938   1.243 -0.6962 -0.0807 -0.3239
 1881WAT      O 8243   5.437   4.936   1.096 -0.2726  0.3508 -0.0581
 1881WAT     H1 8244   5.451   5.004   1.044 -1.9904 -1.4520 -3.1347
 1881WAT     H2 8245   5.514   4.894   1.096 -0.3157  0.2387 -1.4239
 1881WAT    EPW 8246   5.451   4.940   1.089 -0.5327  0.0679 -0.7143
 1882WAT      O 8247   3.477   2.495   2.824 -0.3876  0.0151  0.1539
 1882WAT     H1 8248   3.507   2.576   2.810 -0.2861 -0.1654 -0.7302
 1882WAT     H2 8249   3.521   2.446   2.766 -0.5813 -0.6447  0.5532
 1882WAT    EPW 8250   3.488   2.500   2.813 -0.4012 -0.1090  0.0823
 1883WAT      O 8251   2.292   6.463   2.711 -0.2214  0.5977  0.2598
 1883WAT     H1 8252   2.246   6.521   2.758 -0.1872  0.1593  0.8552
 1883WAT     H2 8253   2.272   6.387   2.750 -1.2009  0.0505 -1.2268
 1883WAT    EPW 8254   2.282   6.460   2.724 -0.3610  0.4521  0.1281
 1884WAT      O 8255   6.544   3.891   4.836  0.2138 -0.0448  0.0393
 1884WAT     H1 8256   6.559   3.815   4.877  0.1872  0.9014  1.9447
 1884WAT     H2 8257   6.457   3.896   4.833  0.1194  0.9877  2.2596
 1884WAT    EPW 8258   6.534   3.880   4.842  0.1959  0.2475  0.6488
 1885WAT      O 8259   5.355   2.902   5.520  0.0651 -0.7964 -0.3635
 1885WAT     H1 8260   5.383   2.982   5.499  2.2472 -0.6314  2.6376
 1885WAT     H2 8261   5.290   2.917   5.576  1.4267 -1.0038  1.3552
 1885WAT    EPW 8262   5.350   2.916   5.525  0.5886 -0.8027  0.3337
 1886WAT      O 8263   4.040   5.907   4.781  0.1310  0.4322 -0.3894
 1886WAT     H1 8264   4.113   5.885   4.740 -0.2513  0.8301 -1.3060
 1886WAT     H2 8265   4.027   5.841   4.837 -0.3915 -1.1849 -2.2935
 1886WAT    EPW 8266   4.049   5.894   4.784 -0.0027  0.2521 -0.8061
 1887WAT      O 8267   5.729   4.694   4.343 -0.3882 -0.5574 -0.9317
 1887WAT     H1 8268   5.754   4.643   4.408  1.2322  2.9156  1.5011
 1887WAT     H2 8269   5.659   4.735   4.374  0.6258  1.4366 -1.0807
 1887WAT    EPW 8270   5.722   4.693   4.357  0.0009  0.2502 -0.5943
 1888WAT      O 8271   5.854   3.530   4.958  0.0341  0.0291  0.2300
 1888WAT     H1 8272   5.875   3.614   4.964  0.0193  0.1451 -1.0358
 1888WAT     H2 8273   5.784   3.530   4.906  0.3925 -0.8150 -0.2709
 1888WAT    EPW 8274   5.847   3.543   4.951  0.0848 -0.0785 -0.0310
 1889WAT      O 8275   4.608   6.278   1.954 -0.1171  0.3176  0.2436
 1889WAT     H1 8276   4.690   6.284   1.924 -0.7009  0.3941 -1.4088
 1889WAT     H2 8277   4.583   6.199   1.930 -0.4308  0.1629  1.0470
 1889WAT    EPW 8278   4.617   6.268   1.946 -0.2497  0.3061  0.1182
 1890WAT      O 8279   6.959   2.568   5.215  0.3153  0.4199  0.4470
 1890WAT     H1 8280   6.891   2.546   5.265 -0.9343 -0.2895 -1.4713
 1890WAT     H2 8281   6.970   2.653   5.232 -3.4935  1.6017 -1.8371
 1890WAT    EPW 8282   6.951   2.577   5.225 -0.4320  0.4897 -0.1738
 1891WAT      O 8283   5.491   7.027   2.717 -0.8282 -0.3509 -0.0778
 1891WAT     H1 8284   5.528   7.076   2.779 -1.1292 -0.2682  0.0377
 1891WAT     H2 8285   5.406   7.042   2.727 -0.8857 -0.4367 -0.4315
 1891WAT    EPW 8286   5.484   7.036   2.727 -0.8811 -0.3514 -0.1130
 1892WAT      O 8287   2.537   1.778   7.537  0.0882 -0.5405  0.2220
 1892WAT     H1 8288   2.620   1.751   7.539  0.4083  0.1188 -1.7688
 1892WAT     H2 8289   2.507   1.746   7.461 -1.2515 -0.1142  0.5403
 1892WAT    EPW 8290   2.544   1.769   7.526 -0.0624 -0.3802 -0.0250
 1893WAT      O 8291   5.790   3.438   5.206 -0.1164  0.0277  0.0350
 1893WAT     H1 8292   5.813   3.461   5.125  2.1505 -0.5322  0.4584
 1893WAT     H2 8293   5.728   3.378   5.194 -0.7786  0.9148 -1.2177
 1893WAT    EPW 8294   5.784   3.433   5.192  0.1207  0.0760 -0.0875
 1894WAT      O 8295   4.105   2.104   3.172  0.1832  0.4653 -0.8020
 1894WAT     H1 8296   4.111   2.190   3.162 -1.8282  0.5167 -1.9464
 1894WAT     H2 8297   4.081   2.075   3.093  0.3414 -1.0965 -0.3184
 1894WAT    EPW 8298   4.103   2.112   3.159 -0.0905  0.2422 -0.8996
 1895WAT      O 8299   6.237   7.388   1.467 -0.0635  0.3124 -0.3425
 1895WAT     H1 8300   6.235   7.327   1.405 -0.9090 -0.1658  0.1393
 1895WAT     H2 8301   6.201   7.348   1.536  1.4689  0.6152  0.6677
 1895WAT    EPW 8302   6.231   7.373   1.468  0.0380  0.2865 -0.1221
 1896WAT      O 8303   1.946   5.040   3.686 -0.6708  0.3381  0.1055
 1896WAT     H1 8304   1.982   5.083   3.753 -0.4278  1.0824 -0.4861
 1896WAT     H2 8305   1.999   4.971   3.675 -0.4285  0.4792  0.3704
 1896WAT    EPW 8306   1.960   5.036   3.694 -0.5991  0.4689  0.0573
 1897WAT      O 8307   6.084   2.464   2.390 -0.0848  0.2354 -0.7603
 1897WAT     H1 8308   6.011   2.496   2.427  0.5580  0.0422  0.7792
 1897WAT     H2 8309   6.063   2.381   2.374 -0.3191  0.2735 -0.6625
 1897WAT    EPW 8310   6.070   2.457   2.393 -0.0244  0.2125 -0.5184
 1898WAT      O 8311   6.651   2.735   3.301 -0.0365 -0.1441  0.3970
 1898WAT     H1 8312   6.726   2.762   3.337  0.1770 -0.4887  0.2108
 1898WAT     H2 8313   6.630   2.664   3.347  0.8221 -1.2602 -0.8432
 1898WAT    EPW 8314   6.659   2.729   3.313  0.1218 -0.3598  0.1863
 1899WAT      O 8315   6.527   7.390   7.813  0.4114 -0.5023 -1.1514
 1899WAT     H1 8316   6.494   7.422   7.739  2.3481  0.7403 -1.5458
 1899WAT     H2 8317   6.511   7.304   7.806 -2.2461 -0.0794 -1.4714
 1899WAT    EPW 8318   6.519   7.382   7.801  0.3049 -0.2562 -1.2570
 1900WAT      O 8319   0.346   3.117   5.445  0.0947  0.0966  0.3483
 1900WAT     H1 8320   0.383   3.174   5.499  0.4485 -0.2399  0.4734
 1900WAT     H2 8321   0.304   3.062   5.499  1.8120 -1.2143  0.4316
 1900WAT    EPW 8322   0.345   3.117   5.461  0.4007 -0.1468  0.3791
 1901WAT      O 8323   6.922   6.207   4.268  0.1050 -0.0301 -0.2713
 1901WAT     H1 8324   6.954   6.130   4.243 -1.0872 -0.5145 -0.3390
 1901WAT     H2 8325   6.989   6.244   4.311  0.3108 -1.5850  0.8147
 1901WAT    EPW 8326   6.937   6.201   4.270 -0.0407 -0.3314 -0.1209
 1902WAT      O 8327   7.418   1.048   5.398 -0.3311 -0.2619  0.0515
 1902WAT     H1 8328   7.418   0.988   5.461 -0.9726 -1.5461 -1.1118
 1902WAT     H2 8329   7.424   1.124   5.441  1.2417 -1.1564  1.5386
 1902WAT    EPW 8330   7.419   1.050   5.414 -0.1935 -0.5837  0.0994
 1903WAT      O 8331   1.090   1.484   0.149  0.7457  0.2656 -0.4807
 1903WAT     H1 8332   1.065   1.562   0.118 -0.3112 -0.4620 -1.5821
 1903WAT     H2 8333   1.086   1.432   0.078  1.8595 -0.7025  0.1276
 1903WAT    EPW 8334   1.086   1.488   0.134  0.7541  0.0151 -0.5535
 1904WAT      O 8335   4.810   4.527   3.481  0.0796 -0.5350  0.0922
 1904WAT     H1 8336   4.768   4.580   3.425  0.8089 -0.8737 -0.8115
 1904WAT     H2 8337   4.746   4.481   3.518 -0.6492  1.4495  1.4593
 1904WAT    EPW 8338   4.795   4.528   3.478  0.0797 -0.2919  0.1607
 1905WAT      O 8339   4.967   4.496   1.663 -0.7108  0.1569  0.0358
 1905WAT     H1 8340   4.898   4.549   1.659  0.1348  1.2321 -1.3488
 1905WAT     H2 8341   5.008   4.509   1.587  3.0880  2.4685  2.1765
 1905WAT    EPW 8342   4.963   4.505   1.651 -0.0247  0.6572  0.1475
 1906WAT      O 8343   4.155   2.629   2.478 -0.3951  0.5867 -0.2499
 1906WAT     H1 8344   4.208   2.673   2.532  0.8562  1.2141 -1.9014
 1906WAT     H2 8345   4.091   2.601   2.531  1.2763  0.2845  1.7299
 1906WAT    EPW 8346   4.153   2.632   2.494  0.0367  0.6348 -0.2014
 1907WAT      O 8347   3.898   3.431   0.346 -0.0772 -0.0720  0.1065
 1907WAT     H1 8348   3.920   3.499   0.296 -0.1163 -0.1478 -0.0145
 1907WAT     H2 8349   3.832   3.394   0.303 -0.8429  0.4892  0.7539
 1907WAT    EPW 8350   3.892   3.436   0.333 -0.1961 -0.0003  0.1842
 1908WAT      O 8351   2.404   5.343   7.838 -0.3970  0.2519  0.6631
 1908WAT     H1 8352   2.341   5.283   7.828 -0.9634  1.1837 -2.1413
 1908WAT     H2 8353   2.476   5.300   7.813 -1.0413  0.9974 -3.1730
 1908WAT    EPW 8354   2.405   5.328   7.833 -0.5758  0.4996 -0.3178
 1909WAT      O 8355   7.504   5.743   0.212  0.0984 -0.0470  0.0352
 1909WAT     H1 8356   7.543   5.697   0.148  1.2835  2.0475 -0.8415
 1909WAT     H2 8357   7.523   5.826   0.192 -0.1751  0.7422  2.6752
 1909WAT    EPW 8358   7.513   5.748   0.199  0.2330  0.3790  0.2957
 1910WAT      O 8359   5.239   5.790   2.129 -0.7282 -0.0934  0.3426
 1910WAT     H1 8360   5.214   5.735   2.066 -1.1727  2.1498 -1.5954
 1910WAT     H2 8361   5.165   5.829   2.152  0.0142  2.5705 -1.3632
 1910WAT    EPW 8362   5.225   5.787   2.123 -0.6842  0.6314 -0.1957
 1911WAT      O 8363   6.173   2.747   2.304  0.4670 -0.2578  0.7191
 1911WAT     H1 8364   6.133   2.791   2.367  0.2367 -0.6372  0.8356
 1911WAT     H2 8365   6.183   2.667   2.337  0.5815 -0.3872  0.3768
 1911WAT    EPW 8366   6.169   2.742   2.318  0.4499 -0.3330  0.6857
 1912WAT      O 8367   4.175   5.815   5.172 -0.3856 -0.5084  0.2021
 1912WAT     H1 8368   4.173   5.753   5.233 -2.2631 -0.8144 -0.0981
 1912WAT     H2 8369   4.234   5.785   5.114 -0.4600 -1.4786  0.6081
 1912WAT    EPW 8370   4.183   5.802   5.172 -0.6739 -0.6969  0.2178
 1913WAT      O 8371   3.945   0.909   7.181 -0.1933  0.0006  0.2151
 1913WAT     H1 8372   3.865   0.889   7.154  0.2051 -0.5337 -0.6020
 1913WAT     H2 8373   3.946   0.996   7.180 -0.0772  0.0203 -1.9060
 1913WAT    EPW 8374   3.933   0.919   7.177 -0.1173 -0.0754 -0.2189
 1914WAT      O 8375   6.395   1.315   7.175 -0.0584 -0.3075 -1.0219
 1914WAT     H1 8376   6.363   1.244   7.135 -1.7990 -0.2741  0.1901
 1914WAT     H2 8377   6.332   1.336   7.233  1.7418  0.3980  0.7999
 1914WAT    EPW 8378   6.381   1.307   7.178 -0.0496 -0.1983 -0.5738
 1915WAT      O 8379   7.689   0.565   6.847 -0.3855  0.1720 -0.2699
 1915WAT     H1 8380   7.640   0.637   6.842 -1.2740 -0.4834 -1.5567
 1915WAT     H2 8381   7.638   0.509   6.890 -0.1786 -0.0617 -0.3243
 1915WAT    EPW 8382   7.674   0.567   6.853 -0.4862  0.0406 -0.4680
 1916WAT      O 8383   4.568   4.223   6.536  0.2403 -0.0843 -0.5599
 1916WAT     H1 8384   4.554   4.267   6.462 -0.5352 -2.8739 -2.2098
 1916WAT     H2 8385   4.585   4.142   6.509 -2.1158 -1.7579  2.3409
 1916WAT    EPW 8386   4.569   4.218   6.521 -0.2223 -0.7436 -0.3751
 1917WAT      O 8387   4.226   3.587   0.974 -0.1944 -0.3130  0.0185
 1917WAT     H1 8388   4.309   3.567   0.994 -0.4349 -1.0332  0.3082
 1917WAT     H2 8389   4.219   3.564   0.890 -0.8764 -2.8869  0.7044
 1917WAT    EPW 8390   4.238   3.581   0.965 -0.3307 -0.7996  0.1626
 1918WAT      O 8391   6.202   2.724   2.643  0.1276 -0.2934 -0.2089
 1918WAT     H1 8392   6.243   2.669   2.696 -0.0052  0.0964  0.3016
 1918WAT     H2 8393   6.120   2.722   2.672  0.1473  0.2650 -0.1110
 1918WAT    EPW 8394   6.196   2.716   2.655  0.1109 -0.1534 -0.1190
 1919WAT      O 8395   4.380   4.865   0.275  0.4950 -0.7487 -0.2067
 1919WAT     H1 8396   4.461   4.866   0.308  0.6803  0.3793 -0.6537
 1919WAT     H2 8397   4.392   4.888   0.192 -0.0706 -2.6823 -0.8696
 1919WAT    EPW 8398   4.394   4.868   0.268  0.4388 -0.8677 -0.3707
 1920WAT      O 8399   6.287   1.771   7.239  0.3969 -0.3470 -0.2910
 1920WAT     H1 8400   6.260   1.708   7.186  1.4160 -0.0978 -1.1644
 1920WAT     H2 8401   6.214   1.804   7.273 -0.1355 -2.0974  0.3348
 1920WAT    EPW 8402   6.272   1.767   7.236  0.4688 -0.5687 -0.3276
 1921WAT      O 8403   4.441   3.933   1.688  0.4677 -0.1199 -0.0400
 1921WAT     H1 8404   4.453   3.888   1.614  1.6720  0.2836 -0.1279
 1921WAT     H2 8405   4.360   3.964   1.681 -0.1908 -1.8252 -0.2125
 1921WAT    EPW 8406   4.431   3.931   1.676  0.5484 -0.3122 -0.0785
 1922WAT      O 8407   6.026   7.448   6.582 -0.4496  0.0784 -0.0251
 1922WAT     H1 8408   6.079   7.417   6.644 -0.4111  0.1015 -0.0471
 1922WAT     H2 8409   6.023   7.383   6.523  0.5418  0.5728 -0.6293
 1922WAT    EPW 8410   6.033   7.433   6.582 -0.2975  0.1549 -0.1176
 1923WAT      O 8411   0.383   6.941   6.908  0.6323  0.1136 -0.2798
 1923WAT     H1 8412   0.378   7.006   6.849 -0.8311  0.9779  0.7427
 1923WAT     H2 8413   0.323   6.884   6.881  1.6114 -0.6421 -0.9263
 1923WAT    EPW 8414   0.374   6.942   6.895  0.5607  0.1296 -0.2243
 1924WAT      O 8415   5.735   4.264   0.276  0.0853  0.7975  0.6598
 1924WAT     H1 8416   5.683   4.306   0.220  0.3749  1.2089  0.6929
 1924WAT     H2 8417   5.729   4.180   0.251 -0.1569  0.9167  0.3144
 1924WAT    EPW 8418   5.727   4.257   0.264  0.0923  0.8758  0.6136
 1925WAT      O 8419   5.141   2.125   1.163 -0.1234  0.0777  0.2301
 1925WAT     H1 8420   5.089   2.056   1.175 -0.6876 -0.0969 -2.6060
 1925WAT     H2 8421   5.131   2.171   1.237 -2.6142 -1.0341  0.6881
 1925WAT    EPW 8422   5.132   2.122   1.176 -0.5747 -0.1123 -0.1212
 1926WAT      O 8423   0.367   0.748   4.983  0.6282  0.2336 -0.2417
 1926WAT     H1 8424   0.410   0.755   5.059  0.5997  0.1500 -0.2184
 1926WAT     H2 8425   0.344   0.664   4.980  1.5945 -0.0288 -0.8614
 1926WAT    EPW 8426   0.370   0.737   4.994  0.7668  0.1825 -0.3298
 1927WAT      O 8427   4.063   2.437   2.960 -0.0445  0.1915  1.1446
 1927WAT     H1 8428   4.004   2.374   2.948 -0.1564  0.5426 -0.4200
 1927WAT     H2 8429   4.077   2.436   3.046 -1.3964 -0.7345  1.3927
 1927WAT    EPW 8430   4.056   2.428   2.971 -0.2607  0.1066  0.9501
 1928WAT      O 8431   4.375   7.101   3.927  0.5151  0.1138  0.3751
 1928WAT     H1 8432   4.342   7.176   3.897  0.4846 -0.3904 -0.9209
 1928WAT     H2 8433   4.444   7.126   3.974  1.4493  0.8968 -1.3263
 1928WAT    EPW 8434   4.380   7.115   3.929  0.6486  0.1550 -0.0677
 1929WAT      O 8435   1.049   2.170   7.093  0.4012  0.3752 -0.7044
 1929WAT     H1 8436   1.117   2.225   7.097  0.6654  0.0156 -0.1272
 1929WAT     H2 8437   0.981   2.223   7.082  0.8616  0.6919 -2.2739
 1929WAT    EPW 8438   1.049   2.186   7.092  0.5082  0.3689 -0.8510
 1930WAT      O 8439   3.224   2.682   0.440 -0.0854  0.0833 -0.1648
 1930WAT     H1 8440   3.279   2.626   0.401 -0.2013  0.5889 -1.0748
 1930WAT     H2 8441   3.277   2.728   0.491  0.0649 -0.6110  0.3285
 1930WAT    EPW 8442   3.240   2.680   0.442 -0.0803  0.0554 -0.2263
 1931WAT      O 8443   4.281   2.464   7.608 -0.4770  0.1997  0.1827
 1931WAT     H1 8444   4.301   2.379   7.601  0.2886  0.1868  1.9636
 1931WAT     H2 8445   4.194   2.466   7.600 -0.4133 -0.5937 -0.9752
 1931WAT    EPW 8446   4.271   2.452   7.606 -0.3545  0.0806  0.2747
 1932WAT      O 8447   2.762   6.877   1.025 -0.6164 -0.1125  0.0855
 1932WAT     H1 8448   2.842   6.909   1.015 -0.7336 -0.0972 -0.8456
 1932WAT     H2 8449   2.764   6.801   0.982 -1.6948  0.8762 -1.8562
 1932WAT    EPW 8450   2.774   6.870   1.017 -0.7930  0.0358 -0.3388
 1933WAT      O 8451   5.144   0.889   4.089 -0.1477  0.2103  0.3238
 1933WAT     H1 8452   5.206   0.948   4.105 -0.0817  0.0972  0.4815
 1933WAT     H2 8453   5.113   0.912   4.010  0.6285 -0.1984 -0.1105
 1933WAT    EPW 8454   5.148   0.901   4.080 -0.0233  0.1332  0.2829
 1934WAT      O 8455   3.817   1.125   5.231  0.6386  0.2462 -0.1825
 1934WAT     H1 8456   3.886   1.082   5.201 -0.5935 -0.0438 -2.9180
 1934WAT     H2 8457   3.773   1.065   5.276  0.2306 -0.7606 -1.8229
 1934WAT    EPW 8458   3.820   1.110   5.233  0.3963  0.0546 -0.8289
 1935WAT      O 8459   4.652   4.023   7.735 -0.9322 -0.2455  0.0319
 1935WAT     H1 8460   4.704   4.092   7.721  0.4268 -0.0799  4.3963
 1935WAT     H2 8461   4.705   3.955   7.720  0.7248 -0.0782  4.0106
 1935WAT    EPW 8462   4.668   4.024   7.731 -0.4867 -0.1963  1.2644
 1936WAT      O 8463   2.376   5.711   0.181  0.3983  0.3310  0.2498
 1936WAT     H1 8464   2.428   5.648   0.212  0.0041  1.1124  2.7760
 1936WAT     H2 8465   2.427   5.753   0.123  1.9406 -0.1088  1.2126
 1936WAT    EPW 8466   2.391   5.708   0.177  0.5679  0.3815  0.7652
 1937WAT      O 8467   1.999   0.955   2.372  0.6089  0.1789  0.2897
 1937WAT     H1 8468   2.037   0.891   2.326 -2.8187 -2.7521  1.0777
 1937WAT     H2 8469   1.918   0.957   2.340  0.1808  3.3510  1.2389
 1937WAT    EPW 8470   1.993   0.946   2.361  0.0393  0.2145  0.5463
 1938WAT      O 8471   4.925   3.912   2.865 -0.2907  0.6372  0.2664
 1938WAT     H1 8472   4.885   3.909   2.943 -1.0550 -2.8438 -0.0859
 1938WAT     H2 8473   4.867   3.875   2.811  1.0857  0.9769 -1.5610
 1938WAT    EPW 8474   4.910   3.906   2.868 -0.2003  0.1732 -0.0556
 1939WAT      O 8475   5.506   1.430   2.548  0.3743  0.1744 -0.0413
 1939WAT     H1 8476   5.506   1.349   2.578 -0.7168 -0.7430 -2.2667
 1939WAT     H2 8477   5.579   1.435   2.501 -0.3834 -0.1271 -1.2885
 1939WAT    EPW 8478   5.517   1.419   2.545  0.1012 -0.0057 -0.5543
 1940WAT      O 8479   5.957   4.208   2.614  0.0533 -0.1545 -0.1423
 1940WAT     H1 8480   5.925   4.131   2.639  0.1576 -0.1902 -0.1183
 1940WAT     H2 8481   5.934   4.261   2.680  0.0833 -0.1899 -0.1031
 1940WAT    EPW 8482   5.949   4.204   2.628  0.0731 -0.1650 -0.1330
 1941WAT      O 8483   5.125   6.824   0.655 -0.1294 -0.1460  0.5392
 1941WAT     H1 8484   5.180   6.879   0.696 -0.3631  0.9660 -0.5712
 1941WAT     H2 8485   5.051   6.833   0.700  0.0239 -0.0628  0.7796
 1941WAT    EPW 8486   5.123   6.834   0.668 -0.1413  0.0306  0.4107
 1942WAT      O 8487   2.618   1.210   3.700 -0.0767 -0.1199  0.6858
 1942WAT     H1 8488   2.620   1.240   3.782 -0.1879  0.2708  0.5447
 1942WAT     H2 8489   2.593   1.127   3.710  1.0087 -0.4068  1.1326
 1942WAT    EPW 8490   2.614   1.202   3.714  0.0672 -0.1046  0.7310
 1943WAT      O 8491   4.888   1.374   0.989  0.0297 -0.5311  0.3427
 1943WAT     H1 8492   4.889   1.365   1.076  0.7143  0.7121  0.4824
 1943WAT     H2 8493   4.958   1.423   0.973 -0.7219  0.1994 -0.7908
 1943WAT    EPW 8494   4.898   1.380   1.000  0.0198 -0.2396  0.1959
 1944WAT      O 8495   1.438   6.896   3.252  0.3177 -0.1971 -0.1697
 1944WAT     H1 8496   1.462   6.979   3.262  1.5715 -0.3385 -1.6036
 1944WAT     H2 8497   1.351   6.900   3.252  0.3516  1.2298 -0.9066
 1944WAT    EPW 8498   1.428   6.909   3.253  0.5079 -0.0072 -0.4904
 1945WAT      O 8499   0.727   5.788   6.720 -0.3581 -0.3049  0.2130
 1945WAT     H1 8500   0.742   5.744   6.646  2.3524 -1.2960  1.2264
 1945WAT     H2 8501   0.711   5.725   6.778 -2.9500  0.4834  0.4592
 1945WAT    EPW 8502   0.727   5.772   6.718 -0.3405 -0.3349  0.3991
 1946WAT      O 8503   6.339   5.007   3.620 -0.2741 -0.7093 -0.3384
 1946WAT     H1 8504   6.288   4.937   3.629 -1.9097  0.6027  1.5469
 1946WAT     H2 8505   6.350   5.013   3.534  0.1606 -3.3813 -0.5566
 1946WAT    EPW 8506   6.333   4.997   3.609 -0.4515 -0.9102 -0.0921
 1947WAT      O 8507   4.834   3.187   7.461  0.0950 -0.1369  0.5348
 1947WAT     H1 8508   4.905   3.152   7.423 -0.6650  0.9564 -2.1269
 1947WAT     H2 8509   4.843   3.272   7.447 -1.4758  0.0635  0.6138
 1947WAT    EPW 8510   4.846   3.194   7.453 -0.2493  0.0542  0.1533
 1948WAT      O 8511   0.974   6.343   4.068 -0.3680 -0.0152 -0.6182
 1948WAT     H1 8512   0.924   6.273   4.061 -0.6231  0.2783 -1.8740
 1948WAT     H2 8513   1.044   6.324   4.020 -0.0416  0.2484 -0.2539
 1948WAT    EPW 8514   0.977   6.330   4.060 -0.3575  0.0671 -0.7499
 1949WAT      O 8515   6.763   2.829   5.238  0.1937 -0.9691 -0.4143
 1949WAT     H1 8516   6.684   2.866   5.238  0.9032  0.7244  1.3152
 1949WAT     H2 8517   6.751   2.753   5.278 -0.2453  0.2764  2.0074
 1949WAT    EPW 8518   6.750   2.823   5.244  0.2336 -0.5350  0.1989
 1950WAT      O 8519   3.166   1.561   0.055  0.6999  0.0354 -0.0041
 1950WAT     H1 8520   3.245   1.534   0.028  0.8434  1.1313 -0.7676
 1950WAT     H2 8521   3.181   1.586   0.138  0.2401 -3.4259  1.2813
 1950WAT    EPW 8522   3.180   1.561   0.063  0.6532 -0.3140  0.0730
 1951WAT      O 8523   4.772   2.279   7.606 -0.0940  0.1755  0.8307
 1951WAT     H1 8524   4.731   2.202   7.617 -2.7760  1.3458 -0.0536
 1951WAT     H2 8525   4.749   2.324   7.677  0.0514  0.7170  0.5352
 1951WAT    EPW 8526   4.763   2.274   7.619 -0.4687  0.4284  0.6564
 1952WAT      O 8527   6.652   4.291   7.045 -0.0140  0.0554 -0.1742
 1952WAT     H1 8528   6.689   4.370   7.042  0.3314  0.0807  2.2931
 1952WAT     H2 8529   6.700   4.244   6.989  0.4068  1.3418 -0.9418
 1952WAT    EPW 8530   6.665   4.296   7.037  0.0992  0.2492  0.0769
 1953WAT      O 8531   3.963   7.668   6.221 -0.4601 -0.2915 -0.0070
 1953WAT     H1 8532   3.911   7.629   6.280 -1.3507 -0.5680 -0.9473
 1953WAT     H2 8533   3.951   7.753   6.235 -0.1774 -0.3436  0.6113
 1953WAT    EPW 8534   3.954   7.675   6.232 -0.5499 -0.3400 -0.0546
 1954WAT      O 8535   5.390   7.408   1.617  0.1929  0.1211  0.3229
 1954WAT     H1 8536   5.450   7.361   1.575 -0.9715 -1.0359 -0.0836
 1954WAT     H2 8537   5.416   7.490   1.603  2.6103 -0.3512  1.5687
 1954WAT    EPW 8538   5.403   7.413   1.609  0.3780 -0.1196  0.4469
 1955WAT      O 8539   5.583   5.426   1.393  0.4485 -0.7053  0.5478
 1955WAT     H1 8540   5.575   5.377   1.465  0.5854 -1.1927  0.2356
 1955WAT     H2 8541   5.650   5.479   1.412 -0.1054 -0.2035  1.1316
 1955WAT    EPW 8542   5.592   5.427   1.406  0.3869 -0.7032  0.5879
 1956WAT      O 8543   5.773   0.837   0.756 -0.6301  0.1286 -0.5673
 1956WAT     H1 8544   5.845   0.879   0.731 -0.3198  0.4652  0.8064
 1956WAT     H2 8545   5.710   0.875   0.708 -0.1053  0.9148 -0.6534
 1956WAT    EPW 8546   5.774   0.849   0.745 -0.5067  0.2945 -0.3771
 1957WAT      O 8547   2.110   5.575   6.785  0.0699  0.0016  0.0178
 1957WAT     H1 8548   2.137   5.625   6.719 -0.1603  1.5424  1.0368
 1957WAT     H2 8549   2.177   5.575   6.840  0.5234 -1.8378 -0.4586
 1957WAT    EPW 8550   2.124   5.582   6.783  0.1029 -0.0425  0.0980
 1958WAT      O 8551   6.116   6.936   1.575  0.2046  0.1159  0.1248
 1958WAT     H1 8552   6.087   6.945   1.493  0.5896 -0.8432 -0.1229
 1958WAT     H2 8553   6.044   6.913   1.619  0.1254 -0.0038 -0.0639
 1958WAT    EPW 8554   6.101   6.934   1.569  0.2498 -0.0435  0.0603
 1959WAT      O 8555   3.161   0.387   7.041 -0.8400  0.1797 -0.2649
 1959WAT     H1 8556   3.079   0.416   7.034 -1.1213 -0.6796 -0.7431
 1959WAT     H2 8557   3.173   0.378   7.127 -2.3014 -2.4744 -0.2395
 1959WAT    EPW 8558   3.151   0.390   7.052 -1.0974 -0.3393 -0.3318
 1960WAT      O 8559   4.080   0.486   2.583 -0.5580 -0.0724 -0.1127
 1960WAT     H1 8560   4.052   0.567   2.601 -0.3214  0.3291 -1.4270
 1960WAT     H2 8561   4.099   0.490   2.498  0.0312 -1.3539 -0.0562
 1960WAT    EPW 8562   4.078   0.499   2.573 -0.4360 -0.2024 -0.2985
 1961WAT      O 8563   4.757   2.020   6.756 -0.2208 -0.0446  0.1007
 1961WAT     H1 8564   4.715   2.056   6.823 -1.8155  0.8701 -1.3293
 1961WAT     H2 8565   4.830   2.067   6.749 -0.8985  1.0291  0.0936
 1961WAT    EPW 8566   4.761   2.032   6.765 -0.5565  0.2491 -0.1116
 1962WAT      O 8567   1.597   5.676   6.572  0.6625 -0.5010  0.0650
 1962WAT     H1 8568   1.646   5.712   6.510 -0.9415  0.2337 -0.8236
 1962WAT     H2 8569   1.606   5.730   6.639 -0.9267  1.1052 -0.9350
 1962WAT    EPW 8570   1.606   5.689   6.573  0.1908 -0.1552 -0.2140
 1963WAT      O 8571   6.905   0.475   6.264  0.7179 -0.5532  0.6086
 1963WAT     H1 8572   6.970   0.505   6.314  0.4500 -0.0546  0.6658
 1963WAT     H2 8573   6.833   0.507   6.302  0.4221 -1.2418  0.6431
 1963WAT    EPW 8574   6.904   0.485   6.277  0.6346 -0.5813  0.6222
 1964WAT      O 8575   5.105   1.032   4.570 -0.7607 -0.6634 -0.3267
 1964WAT     H1 8576   5.176   0.992   4.602 -1.6605 -0.8016  1.6165
 1964WAT     H2 8577   5.055   0.965   4.543 -0.5875 -0.6141 -0.7836
 1964WAT    EPW 8578   5.108   1.016   4.570 -0.8680 -0.6765 -0.1071
 1965WAT      O 8579   6.155   6.742   0.478 -0.0519 -0.4343 -0.1171
 1965WAT     H1 8580   6.070   6.722   0.477 -0.0997 -0.2591 -1.5135
 1965WAT     H2 8581   6.177   6.734   0.563 -1.4802 -0.3215  0.2870
 1965WAT    EPW 8582   6.146   6.738   0.491 -0.2699 -0.3918 -0.2637
 1966WAT      O 8583   7.255   2.700   5.026 -0.3246 -0.2902 -0.1088
 1966WAT     H1 8584   7.250   2.664   4.947 -2.3448 -0.4242  0.0323
 1966WAT     H2 8585   7.341   2.712   5.038  0.2284 -2.4910 -1.3184
 1966WAT    EPW 8586   7.267   2.696   5.016 -0.5413 -0.6351 -0.2666
 1967WAT      O 8587   5.334   6.597   5.996  0.3325 -0.1440  0.2027
 1967WAT     H1 8588   5.312   6.536   5.938 -0.2994  1.1467 -0.9746
 1967WAT     H2 8589   5.301   6.566   6.071 -0.8256 -0.8070 -0.5340
 1967WAT    EPW 8590   5.326   6.583   5.998  0.0680 -0.0513 -0.0800
 1968WAT      O 8591   2.524   1.911   3.213  0.4176  1.0698 -0.4331
 1968WAT     H1 8592   2.539   1.882   3.294  1.7311 -0.2428 -1.1128
 1968WAT     H2 8593   2.489   1.990   3.226  0.6824  0.9206  1.4117
 1968WAT    EPW 8594   2.521   1.918   3.227  0.6507  0.8539 -0.2610
 1969WAT      O 8595   6.626   5.055   5.622  0.7321 -0.0263 -0.4847
 1969WAT     H1 8596   6.542   5.037   5.638  0.6651 -0.3229 -1.1394
 1969WAT     H2 8597   6.660   4.977   5.605  0.4112  0.3838 -3.5235
 1969WAT    EPW 8598   6.618   5.041   5.622  0.6748 -0.0096 -1.0303
 1970WAT      O 8599   2.301   4.201   2.521  0.6147  0.3452  0.1258
 1970WAT     H1 8600   2.274   4.128   2.562  1.9651 -1.0745 -1.3367
 1970WAT     H2 8601   2.273   4.265   2.573 -1.1387 -1.1790  1.2011
 1970WAT    EPW 8602   2.293   4.199   2.535  0.5552 -0.0897  0.0686
 1971WAT      O 8603   6.092   5.126   0.423  0.3576 -0.1996  0.0165
 1971WAT     H1 8604   6.037   5.061   0.437  0.0412  0.4291  1.8746
 1971WAT     H2 8605   6.126   5.107   0.344 -0.5432 -1.9764  0.0073
 1971WAT    EPW 8606   6.089   5.114   0.413  0.1778 -0.3692  0.2896
 1972WAT      O 8607   4.969   2.164   2.424  0.1127 -0.4765 -0.3968
 1972WAT     H1 8608   4.896   2.173   2.471  0.1609  0.9368 -0.5475
 1972WAT     H2 8609   5.032   2.189   2.480  0.2618  0.3079 -0.9018
 1972WAT    EPW 8610   4.968   2.169   2.439  0.1419 -0.1518 -0.4937
 1973WAT      O 8611   1.076   4.632   6.104 -0.1557  0.6087 -0.1430
 1973WAT     H1 8612   1.034   4.624   6.028 -0.3692 -1.5416  0.1634
 1973WAT     H2 8613   1.018   4.675   6.155 -1.4788 -1.0868 -0.1430
 1973WAT    EPW 8614   1.061   4.637   6.100 -0.3827  0.0406 -0.0977
 1974WAT      O 8615   3.925   4.511   0.638 -0.1003  0.6165 -0.2411
 1974WAT     H1 8616   3.992   4.555   0.673  1.2603 -0.2200 -1.6657
 1974WAT     H2 8617   3.941   4.428   0.660 -0.8228  0.4478 -0.3489
 1974WAT    EPW 8618   3.937   4.506   0.647 -0.0060  0.4680 -0.4675
 1975WAT      O 8619   4.956   2.079   7.245 -0.1609  0.2608  0.1794
 1975WAT     H1 8620   4.987   2.098   7.166  0.0398  0.0999  0.2192
 1975WAT     H2 8621   4.912   2.151   7.268 -0.2881  0.2749 -0.1117
 1975WAT    EPW 8622   4.954   2.093   7.237 -0.1500  0.2391  0.1422
 1976WAT      O 8623   4.715   4.624   1.664  0.1427  0.9923 -0.0099
 1976WAT     H1 8624   4.668   4.584   1.726 -1.3314  0.8636 -1.1660
 1976WAT     H2 8625   4.657   4.672   1.621  1.2692  1.6387 -0.8675
 1976WAT    EPW 8626   4.700   4.625   1.667  0.0914  1.0688 -0.3074
 1977WAT      O 8627   0.728   5.093   7.111  0.2724 -0.1892 -0.2683
 1977WAT     H1 8628   0.695   5.053   7.040 -2.5315  1.1653  0.1299
 1977WAT     H2 8629   0.683   5.057   7.176  0.6990  0.6663  0.5075
 1977WAT    EPW 8630   0.717   5.081   7.110 -0.0788  0.1373 -0.0948
 1978WAT      O 8631   3.592   3.203   7.015 -0.2844 -0.2049  0.0841
 1978WAT     H1 8632   3.558   3.266   7.064 -1.6352 -0.7197 -0.1540
 1978WAT     H2 8633   3.525   3.176   6.966  0.4041 -1.4107 -0.2466
 1978WAT    EPW 8634   3.577   3.208   7.015 -0.3822 -0.4591  0.0001
 1979WAT      O 8635   4.936   2.359   0.159  0.5072 -0.4330 -0.4073
 1979WAT     H1 8636   4.887   2.325   0.095  0.7846 -0.3170 -0.6841
 1979WAT     H2 8637   4.998   2.402   0.116  1.1471 -0.9942 -0.0654
 1979WAT    EPW 8638   4.938   2.360   0.143  0.6427 -0.4988 -0.3977
 1980WAT      O 8639   5.094   3.002   5.613 -0.1651  0.1442  0.4422
 1980WAT     H1 8640   5.083   2.944   5.549 -1.2837  1.0318 -0.2065
 1980WAT     H2 8641   5.012   3.015   5.642  0.1894  0.6757  1.2291
 1980WAT    EPW 8642   5.080   2.995   5.608 -0.2780  0.3538  0.4626
 1981WAT      O 8643   5.507   4.076   2.816 -0.1825  0.3639  0.4682
 1981WAT     H1 8644   5.432   4.046   2.848  0.2700 -3.4495 -1.4319
 1981WAT     H2 8645   5.482   4.126   2.749 -0.9997  0.9010  1.1563
 1981WAT    EPW 8646   5.492   4.079   2.811 -0.2363 -0.1201  0.2892
 1982WAT      O 8647   2.086   3.408   7.619 -0.2034  0.5769 -0.2289
 1982WAT     H1 8648   2.043   3.335   7.597 -1.1610  0.9297  0.4425
 1982WAT     H2 8649   2.063   3.464   7.557  2.0687 -0.1643 -1.9211
 1982WAT    EPW 8650   2.077   3.405   7.606 -0.0092  0.5195 -0.3797
 1983WAT      O 8651   0.781   4.418   6.626  0.0724  0.2403 -0.0983
 1983WAT     H1 8652   0.847   4.429   6.682  1.0991 -0.1515 -1.1970
 1983WAT     H2 8653   0.741   4.496   6.627  1.0900  0.7835 -0.0793
 1983WAT    EPW 8654   0.785   4.431   6.635  0.3744  0.2627 -0.2578
 1984WAT      O 8655   3.087   5.516   1.997 -0.8654 -0.3198 -0.0202
 1984WAT     H1 8656   3.063   5.600   1.994 -0.4278 -0.0672  2.2699
 1984WAT     H2 8657   3.175   5.521   1.997 -0.8189 -0.8647 -0.8262
 1984WAT    EPW 8658   3.097   5.529   1.996 -0.7939 -0.3630  0.1990
 1985WAT      O 8659   4.870   2.057   3.341 -0.3083 -0.3789 -0.1839
 1985WAT     H1 8660   4.878   2.023   3.261  1.9674 -0.0469 -0.1550
 1985WAT     H2 8661   4.784   2.061   3.353 -0.6927 -1.1723 -2.2944
 1985WAT    EPW 8662   4.859   2.052   3.331 -0.0289 -0.4471 -0.4914
 1986WAT      O 8663   1.983   5.233   1.092 -0.2915  0.0848 -0.6047
 1986WAT     H1 8664   1.943   5.167   1.132  1.2414 -1.0044 -0.7847
 1986WAT     H2 8665   1.953   5.304   1.133 -1.5843 -0.7429 -0.0652
 1986WAT    EPW 8666   1.973   5.234   1.104 -0.2560 -0.1984 -0.5516
 1987WAT      O 8667   3.679   2.202   0.891  0.0205  0.1914 -0.4782
 1987WAT     H1 8668   3.659   2.196   0.806  1.6705 -0.8519 -0.8351
 1987WAT     H2 8669   3.745   2.146   0.901 -1.8614 -1.8770  2.0856
 1987WAT    EPW 8670   3.686   2.193   0.880 -0.0138 -0.2683 -0.1522
 1988WAT      O 8671   5.532   3.586   3.448 -0.4767 -0.8539  0.2404
 1988WAT     H1 8672   5.539   3.532   3.517  0.7906 -0.1721  0.6897
 1988WAT     H2 8673   5.515   3.663   3.485 -0.2403 -0.5663 -0.2461
 1988WAT    EPW 8674   5.531   3.589   3.464 -0.2546 -0.7107  0.2349
 1989WAT      O 8675   4.748   4.972   1.680 -0.0936  0.3851 -0.1230
 1989WAT     H1 8676   4.815   4.980   1.734 -0.8911 -1.5783  1.2835
 1989WAT     H2 8677   4.678   4.973   1.733 -1.0612  0.5354 -1.3357
 1989WAT    EPW 8678   4.747   4.973   1.696 -0.3543  0.1173 -0.0944
 1990WAT      O 8679   5.720   1.068   5.669  0.2719 -0.1783 -0.4003
 1990WAT     H1 8680   5.782   1.070   5.731 -1.0711 -0.5216  1.0105
 1990WAT     H2 8681   5.646   1.082   5.713 -0.5381  2.3025 -2.3095
 1990WAT    EPW 8682   5.718   1.070   5.685 -0.0462  0.1374 -0.4739
 1991WAT      O 8683   5.061   6.111   7.762 -0.2784 -0.7992  0.8325
 1991WAT     H1 8684   4.984   6.113   7.803  0.7122 -1.4359  2.8627
 1991WAT     H2 8685   5.102   6.182   7.793  0.0195 -0.5475 -0.1173
 1991WAT    EPW 8686   5.055   6.122   7.773 -0.0880 -0.8561  0.9921
 1992WAT      O 8687   2.570   3.718   7.329 -0.1343 -0.2759  0.8431
 1992WAT     H1 8688   2.558   3.633   7.317 -3.0506  0.2277 -0.5942
 1992WAT     H2 8689   2.522   3.737   7.400 -0.6532  0.3756  0.3336
 1992WAT    EPW 8690   2.561   3.708   7.338 -0.6418 -0.1053  0.5555
 1993WAT      O 8691   4.861   5.203   5.856 -0.4354  0.3162 -0.0566
 1993WAT     H1 8692   4.860   5.277   5.902 -0.5545 -0.6406  1.5509
 1993WAT     H2 8693   4.801   5.154   5.896 -0.2182 -0.7132 -0.9745
 1993WAT    EPW 8694   4.852   5.207   5.869 -0.4209  0.0228  0.0453
 1994WAT      O 8695   5.429   1.067   2.034  0.2068  0.5286 -0.3451
 1994WAT     H1 8696   5.411   0.988   2.066  3.4531 -0.7246 -1.1913
 1994WAT     H2 8697   5.508   1.084   2.065  0.4737  2.5082 -1.9041
 1994WAT    EPW 8698   5.438   1.057   2.043  0.7258  0.6359 -0.7004
 1995WAT      O 8699   6.887   2.068   5.269 -0.6198  1.0297  0.0172
 1995WAT     H1 8700   6.911   2.064   5.185  0.4183 -0.2556  0.3453
 1995WAT     H2 8701   6.936   2.131   5.303  0.6698 -0.0189  0.1587
 1995WAT    EPW 8702   6.898   2.076   5.262 -0.2759  0.6850  0.0866
 1996WAT      O 8703   3.947   1.916   5.609  0.5378  0.2623 -0.1038
 1996WAT     H1 8704   4.016   1.963   5.635  0.3516 -0.4520  1.8840
 1996WAT     H2 8705   3.966   1.835   5.636 -0.3110 -0.3124 -1.1222
 1996WAT    EPW 8706   3.960   1.911   5.617  0.3849  0.0719  0.0394
 1997WAT      O 8707   2.727   7.115   7.341  0.5088  0.1371  0.0295
 1997WAT     H1 8708   2.702   7.032   7.340 -1.1223  0.5845 -0.9515
 1997WAT     H2 8709   2.653   7.159   7.325  1.4679  1.7266 -0.3231
 1997WAT    EPW 8710   2.712   7.109   7.338  0.4095  0.4380 -0.1675
 1998WAT      O 8711   6.532   4.947   3.802  0.2221  0.0606  0.3344
 1998WAT     H1 8712   6.493   4.985   3.734  0.0505  0.5002  0.6757
 1998WAT     H2 8713   6.607   4.991   3.810  1.6230 -1.8626 -1.3774
 1998WAT    EPW 8714   6.537   4.959   3.793  0.4037 -0.1585  0.1320
 1999WAT      O 8715   5.226   0.953   2.311  0.3183 -0.2211 -0.1996
 1999WAT     H1 8716   5.168   1.015   2.293  0.2485  0.1290  1.0964
 1999WAT     H2 8717   5.242   0.915   2.234 -0.2182  0.8989 -0.8753
 1999WAT    EPW 8718   5.220   0.957   2.297  0.2288 -0.0039 -0.1080
 2000WAT      O 8719   5.850   4.613   6.057 -0.4787 -0.0835 -0.6996
 2000WAT     H1 8720   5.842   4.564   6.128  0.1675 -0.6328 -0.9854
 2000WAT     H2 8721   5.886   4.558   5.999  0.7901  0.8716 -0.8628
 2000WAT    EPW 8722   5.854   4.597   6.059 -0.1958 -0.0235 -0.7659
 2001WAT      O 8723   5.171   6.843   4.825 -0.0638  0.1347  0.4005
 2001WAT     H1 8724   5.151   6.913   4.873 -0.9978 -1.7164  2.8683
 2001WAT     H2 8725   5.095   6.801   4.816  0.3559 -0.3102 -1.5774
 2001WAT    EPW 8726   5.157   6.847   4.831 -0.1397 -0.2044  0.4729
 2002WAT      O 8727   6.382   1.873   6.276 -0.2057  0.5631 -0.3307
 2002WAT     H1 8728   6.439   1.936   6.295 -1.4137  1.7359 -0.5167
 2002WAT     H2 8729   6.430   1.816   6.231  1.2782  0.5804  1.1264
 2002WAT    EPW 8730   6.397   1.874   6.273 -0.1650  0.7389 -0.1430
 2003WAT      O 8731   7.357   1.687   5.126 -0.0484 -0.0486 -0.6236
 2003WAT     H1 8732   7.280   1.706   5.163  0.3060  1.2339 -0.4881
 2003WAT     H2 8733   7.383   1.763   5.093  0.6776 -0.7056 -1.5981
 2003WAT    EPW 8734   7.350   1.701   5.127  0.1112  0.0438 -0.7475
 2004WAT      O 8735   6.183   3.454   0.240  0.3083  0.6315 -0.2713
 2004WAT     H1 8736   6.193   3.533   0.276 -2.3289  0.5853  0.7930
 2004WAT     H2 8737   6.162   3.471   0.157  0.5769  1.0167 -0.2617
 2004WAT    EPW 8738   6.181   3.468   0.233 -0.0416  0.6816 -0.1126
 2005WAT      O 8739   2.804   1.672   2.500 -0.4086  0.3022 -0.0872
 2005WAT     H1 8740   2.782   1.699   2.421 -0.5451 -0.7520 -0.4252
 2005WAT     H2 8741   2.883   1.635   2.488  0.5498  1.9872  0.6748
 2005WAT    EPW 8742   2.813   1.670   2.487 -0.2872  0.3954 -0.0246
 2006WAT      O 8743   6.140   1.036   1.661 -0.0972 -0.3266  0.1838
 2006WAT     H1 8744   6.137   0.977   1.726  0.9358 -0.7512 -0.1320
 2006WAT     H2 8745   6.159   1.111   1.701  1.3856 -0.7402  0.3119
 2006WAT    EPW 8746   6.142   1.038   1.677  0.2744 -0.4504  0.1561
 2007WAT      O 8747   5.359   3.691   0.953 -0.2224  0.1046 -0.6403
 2007WAT     H1 8748   5.313   3.673   1.024  0.2222 -0.2406 -0.4340
 2007WAT     H2 8749   5.373   3.612   0.917  4.9996 -0.7858  2.2632
 2007WAT    EPW 8750   5.355   3.677   0.958  0.6147 -0.0779 -0.1809
 2008WAT      O 8751   4.992   5.899   0.652  0.4207  0.0340  0.3257
 2008WAT     H1 8752   4.980   5.954   0.585  1.0978  0.5873  0.6437
 2008WAT     H2 8753   4.913   5.891   0.687  0.1381  0.0571 -0.2983
 2008WAT    EPW 8754   4.979   5.906   0.647  0.4790  0.1191  0.2805
 2009WAT      O 8755   4.841   1.415   1.278 -0.0425 -0.4771 -0.1992
 2009WAT     H1 8756   4.876   1.485   1.318  0.1193  0.1675 -1.4247
 2009WAT     H2 8757   4.757   1.438   1.267 -0.1600 -0.7819  0.0360
 2009WAT    EPW 8758   4.834   1.429   1.282 -0.0360 -0.4269 -0.3455
 2010WAT      O 8759   4.500   3.653   1.086 -0.0924 -0.7499 -0.4096
 2010WAT     H1 8760   4.532   3.598   1.146 -0.0131  0.6798  0.9066
 2010WAT     H2 8761   4.508   3.731   1.123  1.1249  0.3613 -2.7738
 2010WAT    EPW 8762   4.506   3.656   1.100  0.0991 -0.3745 -0.5644
 2011WAT      O 8763   5.105   1.549   1.110  0.0548 -0.4161 -0.1774
 2011WAT     H1 8764   5.122   1.627   1.073  0.0931 -0.4370 -0.2040
 2011WAT     H2 8765   5.099   1.568   1.195  0.3111 -0.4245 -0.1559
 2011WAT    EPW 8766   5.107   1.564   1.117  0.0983 -0.4204 -0.1782
 2012WAT      O 8767   0.199   3.348   5.833  0.5802  0.7788  0.6109
 2012WAT     H1 8768   0.219   3.385   5.910  0.3481  0.8735  0.6255
 2012WAT     H2 8769   0.136   3.399   5.801 -1.0889 -0.6231  1.4859
 2012WAT    EPW 8770   0.193   3.361   5.840  0.2993  0.5857  0.7423
 2013WAT      O 8771   5.302   5.191   4.501  0.5189  0.1693 -0.3598
 2013WAT     H1 8772   5.383   5.186   4.533  0.5235 -0.1700 -0.4290
 2013WAT     H2 8773   5.260   5.240   4.561  0.3948 -0.8779  0.4318
 2013WAT    EPW 8774   5.308   5.198   4.515  0.5013 -0.0355 -0.2531
 2014WAT      O 8775   4.070   2.336   1.905 -0.1619 -0.3526  0.0455
 2014WAT     H1 8776   4.130   2.346   1.967  0.7071 -0.0300 -0.8283
 2014WAT     H2 8777   4.029   2.262   1.928  0.9680 -0.9109  0.3218
 2014WAT    EPW 8778   4.073   2.327   1.918  0.1334 -0.3874 -0.0428
 2015WAT      O 8779   7.225   3.607   6.767  0.2927 -0.3098  0.0272
 2015WAT     H1 8780   7.148   3.643   6.747  0.9916  0.1569 -2.0308
 2015WAT     H2 8781   7.256   3.659   6.829 -0.0384  0.9068 -0.7893
 2015WAT    EPW 8782   7.218   3.620   6.773  0.3471 -0.0612 -0.3974
 2016WAT      O 8783   7.659   0.946   7.263  0.6183  0.1717 -0.1785
 2016WAT     H1 8784   7.732   0.899   7.270  1.2300  0.8264 -1.7588
 2016WAT     H2 8785   7.682   1.013   7.213 -0.8682  0.8496 -0.0170
 2016WAT    EPW 8786   7.673   0.949   7.257  0.4891  0.3686 -0.3881
 2017WAT      O 8787   3.754   2.560   2.594 -0.2469  0.0067 -0.0158
 2017WAT     H1 8788   3.725   2.479   2.612  1.4795 -0.5946  0.1881
 2017WAT     H2 8789   3.711   2.610   2.650 -0.4480 -0.9269  0.6880
 2017WAT    EPW 8790   3.743   2.555   2.605 -0.0216 -0.2201  0.1183
 2018WAT      O 8791   4.814   4.509   4.998 -0.3287 -0.6995  0.1070
 2018WAT     H1 8792   4.766   4.512   4.925  0.4852 -2.2377 -0.5605
 2018WAT     H2 8793   4.765   4.462   5.053 -1.3493  1.2392  0.9326
 2018WAT    EPW 8794   4.800   4.502   4.995 -0.3592 -0.6403  0.1304
 2019WAT      O 8795   4.893   6.385   4.954  0.3844  0.2417 -0.4935
 2019WAT     H1 8796   4.807   6.371   4.950  0.1211  0.3512  2.7797
 2019WAT     H2 8797   4.927   6.312   4.921 -0.9600 -0.3849 -0.5414
 2019WAT    EPW 8798   4.885   6.372   4.948  0.1469  0.1653 -0.0171
 2020WAT      O 8799   4.967   7.037   2.710 -0.4729 -0.2514  0.0390
 2020WAT     H1 8800   4.909   7.026   2.773  0.2292 -1.6477  0.4732
 2020WAT     H2 8801   5.032   7.081   2.749  0.3296 -1.8402  0.5459
 2020WAT    EPW 8802   4.968   7.042   2.725 -0.2506 -0.6924  0.1780
 2021WAT      O 8803   4.223   6.469   2.971 -0.1374 -0.3715 -0.3720
 2021WAT     H1 8804   4.208   6.545   2.931  1.1924  0.5534  0.7688
 2021WAT     H2 8805   4.309   6.459   2.964 -0.0283 -0.7835  1.1549
 2021WAT    EPW 8806   4.234   6.478   2.964  0.0752 -0.2958  0.0221
 2022WAT      O 8807   4.868   3.438   7.787 -0.4606 -0.4028 -0.1264
 2022WAT     H1 8808   4.939   3.403   7.749 -1.0654 -2.0987  0.2145
 2022WAT     H2 8809   4.820   3.465   7.720  0.0211 -0.2330 -0.4092
 2022WAT    EPW 8810   4.872   3.436   7.772 -0.4788 -0.6282 -0.1178
 2023WAT      O 8811   7.051   5.070   4.606  0.6587 -0.1477 -0.4555
 2023WAT     H1 8812   7.019   5.105   4.533 -0.8764 -0.5027  0.0256
 2023WAT     H2 8813   7.056   5.137   4.661  0.1165 -0.2057 -0.3309
 2023WAT    EPW 8814   7.047   5.085   4.603  0.3518 -0.2087 -0.3660
 2024WAT      O 8815   1.037   0.123   6.138 -0.1656  0.1539 -0.3302
 2024WAT     H1 8816   0.958   0.092   6.122  0.2439 -1.8797  1.1247
 2024WAT     H2 8817   1.024   0.208   6.152 -2.5975 -0.4983  2.4192
 2024WAT    EPW 8818   1.024   0.131   6.138 -0.4644 -0.2428  0.2908
 2025WAT      O 8819   6.005   5.666   5.916 -0.4311 -0.0494  0.9098
 2025WAT     H1 8820   6.030   5.598   5.867 -4.6321 -1.8564  0.8528
 2025WAT     H2 8821   5.995   5.631   5.995 -0.4266  1.0717  1.4125
 2025WAT    EPW 8822   6.007   5.651   5.920 -1.0510 -0.1507  0.9756
 2026WAT      O 8823   2.841   0.407   1.043  0.4005 -0.1052  0.5335
 2026WAT     H1 8824   2.856   0.331   1.083 -0.6300 -0.2152  0.7504
 2026WAT     H2 8825   2.775   0.442   1.089 -0.0291  0.2971 -0.3544
 2026WAT    EPW 8826   2.833   0.401   1.055  0.1848 -0.0620  0.4344
 2027WAT      O 8827   7.113   1.245   7.020 -0.0578  0.3911  0.5805
 2027WAT     H1 8828   7.117   1.189   6.953 -0.4175  0.8767  0.1524
 2027WAT     H2 8829   7.031   1.237   7.048  0.3214 -0.4439  1.5231
 2027WAT    EPW 8830   7.102   1.235   7.014 -0.0549  0.3395  0.6565
 2028WAT      O 8831   3.134   7.143   1.889  0.1863 -0.1995  0.4833
 2028WAT     H1 8832   3.121   7.227   1.905  0.8067  0.0939 -0.4147
 2028WAT     H2 8833   3.082   7.126   1.821  1.1123 -0.1561 -0.2577
 2028WAT    EPW 8834   3.125   7.153   1.881  0.4148 -0.1498  0.2412
 2029WAT      O 8835   4.539   4.081   1.363  0.2593  0.0456 -0.1156
 2029WAT     H1 8836   4.583   4.024   1.413 -1.0327 -0.7359  0.2086
 2029WAT     H2 8837   4.592   4.150   1.358  0.9704 -0.3459  1.3017
 2029WAT    EPW 8838   4.553   4.083   1.370  0.1735 -0.1276  0.1416
 2030WAT      O 8839   5.278   1.258   1.197  0.4782 -0.2468  0.0707
 2030WAT     H1 8840   5.203   1.258   1.243  0.5500 -0.6462  0.1919
 2030WAT     H2 8841   5.293   1.173   1.183 -0.4885 -0.0947 -2.2418
 2030WAT    EPW 8842   5.269   1.246   1.202  0.3460 -0.2833 -0.2530
 2031WAT      O 8843   5.602   6.611   5.872  0.0889 -0.0402 -0.1141
 2031WAT     H1 8844   5.532   6.642   5.913  0.6359  0.0851  0.7436
 2031WAT     H2 8845   5.646   6.682   5.849  0.0569 -0.1270 -0.4568
 2031WAT    EPW 8846   5.598   6.626   5.874  0.1650 -0.0345 -0.0380
 2032WAT      O 8847   7.528   2.800   7.146 -0.4359  0.0964  0.5186
 2032WAT     H1 8848   7.460   2.746   7.141  1.3375 -2.1725 -0.7750
 2032WAT     H2 8849   7.498   2.874   7.110 -2.2124 -0.8159  0.0251
 2032WAT    EPW 8850   7.514   2.803   7.140 -0.4363 -0.3735  0.2546
 2033WAT      O 8851   2.982   1.087   0.804  0.0327  0.1951  0.5359
 2033WAT     H1 8852   2.950   1.167   0.813  0.0731  0.4237 -1.0673
 2033WAT     H2 8853   2.965   1.066   0.721  2.7843 -0.1858 -0.0636
 2033WAT    EPW 8854   2.975   1.095   0.793  0.4452  0.1726  0.2105
 2034WAT      O 8855   5.146   3.648   3.913  0.3361  0.2901  0.5213
 2034WAT     H1 8856   5.220   3.694   3.912  0.6164 -0.0821 -1.5118
 2034WAT     H2 8857   5.163   3.581   3.965  1.8076 -0.3287 -0.7004
 2034WAT    EPW 8858   5.159   3.645   3.920  0.5949  0.1437  0.0405
 2035WAT      O 8859   5.051   5.178   7.421 -0.0848  0.3417 -0.2311
 2035WAT     H1 8860   5.026   5.125   7.357  2.6237 -2.5113  0.7929
 2035WAT     H2 8861   5.098   5.240   7.381 -2.6985  1.7453 -1.3693
 2035WAT    EPW 8862   5.054   5.180   7.406 -0.0708  0.1276 -0.2480
 2036WAT      O 8863   5.665   5.381   7.633  0.6364 -0.4169  0.5199
 2036WAT     H1 8864   5.580   5.402   7.634  1.0648  1.7594 -1.4160
 2036WAT     H2 8865   5.674   5.337   7.558  1.2790 -0.4992  0.6395
 2036WAT    EPW 8866   5.654   5.377   7.622  0.7946 -0.1076  0.2516
 2037WAT      O 8867   6.099   5.080   3.261 -0.6238  0.3143  0.3656
 2037WAT     H1 8868   6.062   5.050   3.334 -0.1181  0.6564  0.7705
 2037WAT     H2 8869   6.185   5.069   3.275 -0.5540 -0.5027 -0.5698
 2037WAT    EPW 8870   6.106   5.074   3.273 -0.5388  0.2441  0.2872
 2038WAT      O 8871   3.883   3.179   7.309 -0.3384  0.6756 -0.3051
 2038WAT     H1 8872   3.836   3.246   7.339  1.0437  2.0012 -0.9375
 2038WAT     H2 8873   3.870   3.183   7.222  1.4349  1.5275 -0.5718
 2038WAT    EPW 8874   3.874   3.189   7.300  0.1277  0.9973 -0.4379
 2039WAT      O 8875   3.186   2.736   2.627  0.0822 -0.6280 -0.3010
 2039WAT     H1 8876   3.184   2.657   2.663  0.9732 -0.5976 -0.1723
 2039WAT     H2 8877   3.268   2.763   2.640 -0.5019  0.7821  0.6668
 2039WAT    EPW 8878   3.198   2.729   2.634  0.1275 -0.4152 -0.1390
 2040WAT      O 8879   6.026   3.160   1.210 -0.1058 -0.3969 -0.1464
 2040WAT     H1 8880   6.052   3.076   1.206 -0.4546 -0.4805 -0.9914
 2040WAT     H2 8881   6.060   3.195   1.137  2.1411  0.8468  1.3809
 2040WAT    EPW 8882   6.035   3.153   1.199  0.1746 -0.2256 -0.0456
 2041WAT      O 8883   2.198   2.182   0.325  0.2525  0.2420 -0.1764
 2041WAT     H1 8884   2.258   2.203   0.265  1.4280 -1.4718  0.3334
 2041WAT     H2 8885   2.224   2.226   0.396  0.6050 -0.0869 -0.1013
 2041WAT    EPW 8886   2.211   2.192   0.327  0.4782 -0.0598 -0.0900
 2042WAT      O 8887   7.231   2.469   5.298  0.6618 -0.1510 -0.0270
 2042WAT     H1 8888   7.289   2.513   5.251 -0.3014  1.3962  0.1693
 2042WAT     H2 8889   7.160   2.519   5.296  0.2393 -0.5311  2.1662
 2042WAT    EPW 8890   7.229   2.483   5.291  0.4571  0.0214  0.3260
 2043WAT      O 8891   3.759   4.375   1.184  0.1510 -0.0602 -0.2641
 2043WAT     H1 8892   3.710   4.303   1.185  0.2674 -0.1399 -0.2016
 2043WAT     H2 8893   3.776   4.389   1.269  3.2862 -2.1457 -0.3700
 2043WAT    EPW 8894   3.754   4.367   1.197  0.6313 -0.3800 -0.2705
 2044WAT      O 8895   7.025   3.891   0.113 -0.3956 -0.3545 -0.0723
 2044WAT     H1 8896   6.970   3.848   0.166 -1.7692 -0.2984 -1.3773
 2044WAT     H2 8897   7.060   3.828   0.064  0.0478 -0.2934  0.1571
 2044WAT    EPW 8898   7.022   3.875   0.113 -0.5330 -0.3372 -0.2312
 2045WAT      O 8899   6.872   2.326   6.520  0.5781  0.1461 -0.1905
 2045WAT     H1 8900   6.823   2.371   6.576  1.1470 -0.5623  0.9025
 2045WAT     H2 8901   6.900   2.386   6.464 -1.7960  0.5477 -1.0892
 2045WAT    EPW 8902   6.869   2.341   6.520  0.3115  0.1008 -0.1618
 2046WAT      O 8903   4.099   4.878   6.741 -0.1852 -0.2010 -0.4236
 2046WAT     H1 8904   4.093   4.797   6.771 -0.4516 -0.6907 -1.7359
 2046WAT     H2 8905   4.099   4.927   6.813 -0.3894 -1.3372  0.3685
 2046WAT    EPW 8906   4.098   4.873   6.756 -0.2547 -0.4412 -0.5004
 2047WAT      O 8907   4.571   1.041   2.355  0.1194 -0.4281  0.3227
 2047WAT     H1 8908   4.556   0.970   2.403  3.0568 -1.9858 -0.8167
 2047WAT     H2 8909   4.534   1.023   2.278  1.2131 -0.9811 -0.0993
 2047WAT    EPW 8910   4.564   1.028   2.351  0.7149 -0.7399  0.0920
 2048WAT      O 8911   5.860   4.269   1.396  0.7584  0.0164  0.4073
 2048WAT     H1 8912   5.800   4.223   1.352  1.4210  0.3424 -0.9093
 2048WAT     H2 8913   5.935   4.243   1.360  1.3651  0.0871  1.5869
 2048WAT    EPW 8914   5.862   4.258   1.384  0.9459  0.0750  0.3870
 2049WAT      O 8915   6.163   3.349   4.230  1.0423 -0.3598  0.0247
 2049WAT     H1 8916   6.218   3.344   4.298  2.2125 -0.6634 -0.9152
 2049WAT     H2 8917   6.172   3.271   4.191  0.9161  0.0723 -0.8772
 2049WAT    EPW 8918   6.173   3.337   4.234  1.1965 -0.3408 -0.2474
 2050WAT      O 8919   4.892   4.795   7.476 -0.1141  0.0649  0.7798
 2050WAT     H1 8920   4.879   4.876   7.507 -0.5200 -0.3134  1.6122
 2050WAT     H2 8921   4.929   4.809   7.398 -0.6811  1.0660  0.6793
 2050WAT    EPW 8922   4.896   4.809   7.469 -0.2578  0.1569  0.8879
 2051WAT      O 8923   2.648   7.691   1.891 -0.3089 -0.2382  0.3487
 2051WAT     H1 8924   2.639   7.625   1.946 -3.0843 -0.8199 -0.6466
 2051WAT     H2 8925   2.593   7.751   1.922  2.1779  1.7876  1.2719
 2051WAT    EPW 8926   2.639   7.690   1.903 -0.3515 -0.0248  0.3380
 2052WAT      O 8927   4.347   6.315   1.030  0.3508 -0.1627 -0.2678
 2052WAT     H1 8928   4.351   6.342   0.947  0.3505  0.0705 -0.1910
 2052WAT     H2 8929   4.359   6.229   1.023 -0.2742 -0.2330 -0.5662
 2052WAT    EPW 8930   4.350   6.306   1.017  0.2584 -0.1387 -0.3005
 2053WAT      O 8931   6.788   1.731   5.040  0.4986  0.7997 -0.1022
 2053WAT     H1 8932   6.791   1.818   5.037  1.0579  0.7724 -0.3559
 2053WAT     H2 8933   6.861   1.710   5.084  0.2827  0.4656  0.1000
 2053WAT    EPW 8934   6.799   1.741   5.046  0.5493  0.7463 -0.1098
 2054WAT      O 8935   2.482   6.342   0.938 -0.0772 -0.7540  0.0319
 2054WAT     H1 8936   2.457   6.421   0.910 -0.6315 -0.6717  0.7245
 2054WAT     H2 8937   2.545   6.319   0.882 -0.7145 -0.3281 -0.8919
 2054WAT    EPW 8938   2.487   6.350   0.926 -0.2533 -0.6790 -0.0023
 2055WAT      O 8939   7.605   3.191   7.410  0.0156 -0.2545  0.1088
 2055WAT     H1 8940   7.564   3.199   7.486 -0.4969  2.0990 -0.3305
 2055WAT     H2 8941   7.687   3.171   7.432 -0.4554 -1.0790  1.1811
 2055WAT    EPW 8942   7.611   3.189   7.424 -0.1297 -0.0286  0.2023
 2056WAT      O 8943   4.518   5.249   5.124 -0.0025 -0.2745 -0.1679
 2056WAT     H1 8944   4.528   5.305   5.059  0.1070  0.9800  0.8921
 2056WAT     H2 8945   4.598   5.240   5.157 -0.3613  0.6530  1.0139
 2056WAT    EPW 8946   4.531   5.256   5.119 -0.0393  0.0478  0.1633
 2057WAT      O 8947   3.527   0.028   1.484  0.4559  0.1423 -0.5050
 2057WAT     H1 8948   3.496   0.023   1.402  2.6544 -1.4956 -1.3310
 2057WAT     H2 8949   3.556  -0.053   1.500  2.6387  1.0940  0.8116
 2057WAT    EPW 8950   3.527   0.015   1.474  1.1031  0.0409 -0.4326
 2058WAT      O 8951   6.114   4.428   7.219  0.5313  0.2958  0.0575
 2058WAT     H1 8952   6.197   4.447   7.200  0.2990  1.4046  0.0827
 2058WAT     H2 8953   6.097   4.478   7.288 -0.2619  0.3293 -0.1548
 2058WAT    EPW 8954   6.124   4.438   7.226  0.3798  0.4646  0.0298
 2059WAT      O 8955   3.588   4.626   1.099 -0.4761  0.5002  0.4394
 2059WAT     H1 8956   3.653   4.569   1.084 -1.2700 -0.4674  0.6285
 2059WAT     H2 8957   3.516   4.582   1.077 -1.1427  1.2832  0.9939
 2059WAT    EPW 8958   3.587   4.611   1.094 -0.6918  0.4729  0.5493
 2060WAT      O 8959   4.376   6.127   4.272 -0.2373  0.1230  0.4547
 2060WAT     H1 8960   4.458   6.148   4.254 -0.9959  1.9945 -1.1875
 2060WAT     H2 8961   4.348   6.195   4.319 -1.2721  0.2662 -0.3407
 2060WAT    EPW 8962   4.384   6.140   4.277 -0.5022  0.4206  0.0946
 2061WAT      O 8963   5.567   3.659   0.553  0.4917 -0.0244  0.2622
 2061WAT     H1 8964   5.482   3.651   0.538  0.5929 -1.7985  0.3924
 2061WAT     H2 8965   5.593   3.720   0.496 -0.6710 -0.2523 -0.5401
 2061WAT    EPW 8966   5.558   3.667   0.542  0.3349 -0.3201  0.1629
 2062WAT      O 8967   5.053   5.743   2.473 -0.7885 -0.7172  0.2707
 2062WAT     H1 8968   4.990   5.716   2.419 -1.6691 -1.7092  1.7073
 2062WAT     H2 8969   5.060   5.678   2.530  0.9552 -0.2301  0.6547
 2062WAT    EPW 8970   5.044   5.730   2.474 -0.6610 -0.7918  0.5397
 2063WAT      O 8971   4.255   3.568   1.363 -0.0481  0.4044 -0.3458
 2063WAT     H1 8972   4.312   3.509   1.392 -2.2128 -1.7161 -0.0818
 2063WAT     H2 8973   4.217   3.527   1.295 -1.1356  1.7855 -0.6045
 2063WAT    EPW 8974   4.258   3.553   1.357 -0.5285  0.2952 -0.3450
 2064WAT      O 8975   5.342   7.633   0.493  0.8736  0.0780 -0.2907
 2064WAT     H1 8976   5.319   7.622   0.409  2.6100 -0.2614 -0.7537
 2064WAT     H2 8977   5.391   7.705   0.491 -0.3619  0.9959  0.7288
 2064WAT    EPW 8978   5.346   7.642   0.480  0.9476  0.1634 -0.2085
 2065WAT      O 8979   5.004   3.550   0.725  0.3064 -0.0210  0.3037
 2065WAT     H1 8980   5.000   3.576   0.642 -0.2126 -0.2827  0.2447
 2065WAT     H2 8981   5.040   3.618   0.766 -0.0021  0.3462 -0.0315
 2065WAT    EPW 8982   5.009   3.564   0.719  0.1841 -0.0054  0.2454
 2066WAT      O 8983   5.433   0.722   0.748 -0.5250 -0.2206  0.5726
 2066WAT     H1 8984   5.387   0.789   0.779  0.6741  0.2098  1.4948
 2066WAT     H2 8985   5.478   0.694   0.817 -1.3744 -2.3390  0.3595
 2066WAT    EPW 8986   5.433   0.728   0.763 -0.4733 -0.4700  0.6774
 2067WAT      O 8987   3.725   4.942   1.312  0.1369  0.0159 -0.1014
 2067WAT     H1 8988   3.680   4.870   1.332 -0.8845  0.1695 -1.6274
 2067WAT     H2 8989   3.808   4.919   1.326 -0.2359 -1.1703  0.2825
 2067WAT    EPW 8990   3.730   4.928   1.317 -0.0691 -0.1367 -0.2701
 2068WAT      O 8991   4.959   4.246   1.422  0.2149 -0.6864  0.6947
 2068WAT     H1 8992   5.023   4.190   1.404  0.2094 -0.0359 -1.6579
 2068WAT     H2 8993   4.909   4.202   1.478  2.4409 -1.3699  2.3087
 2068WAT    EPW 8994   4.961   4.231   1.428  0.5429 -0.6912  0.5856
 2069WAT      O 8995   3.575   0.826   3.539 -0.2195  0.4196  0.5175
 2069WAT     H1 8996   3.660   0.839   3.522 -0.5467  3.7730  0.8515
 2069WAT     H2 8997   3.538   0.834   3.461 -0.2857 -1.1009  0.3639
 2069WAT    EPW 8998   3.582   0.829   3.525 -0.2776  0.6904  0.5441
 2070WAT      O 8999   0.609   0.618   7.758 -0.0041 -0.0978 -0.6128
 2070WAT     H1 9000   0.569   0.545   7.733  1.0969 -0.9058 -0.1037
 2070WAT     H2 9001   0.650   0.644   7.685 -0.8030  0.3147 -0.9305
 2070WAT    EPW 9002   0.609   0.611   7.743  0.0406 -0.1562 -0.5846
 2071WAT      O 9003   6.309   5.262   5.546  0.3817  0.4733  0.9734
 2071WAT     H1 9004   6.313   5.192   5.598 -0.5042  0.1390  0.6135
 2071WAT     H2 9005   6.296   5.228   5.467 -0.3741  1.0413  0.8405
 2071WAT    EPW 9006   6.307   5.247   5.542  0.1392  0.5078  0.9006
 2072WAT      O 9007   6.445   3.690   6.207  0.1139  0.0199 -0.2394
 2072WAT     H1 9008   6.482   3.736   6.272 -0.0459  1.3352 -1.0478
 2072WAT     H2 9009   6.508   3.634   6.184  0.1620 -0.5095  1.0504
 2072WAT    EPW 9010   6.460   3.689   6.213  0.0974  0.1360 -0.1683
 2073WAT      O 9011   4.214   5.868   6.244  0.2047 -0.1362 -0.6242
 2073WAT     H1 9012   4.169   5.860   6.170 -2.3981 -0.7987  0.8703
 2073WAT     H2 9013   4.214   5.786   6.277 -1.1669  0.5516  1.3111
 2073WAT    EPW 9014   4.207   5.854   6.238 -0.3824 -0.1325 -0.1175
 2074WAT      O 9015   5.867   6.518   1.886 -0.2422  0.3294 -0.5674
 2074WAT     H1 9016   5.902   6.532   1.808  2.0795  0.0549  0.3375
 2074WAT     H2 9017   5.840   6.597   1.911 -0.7391  0.4642 -1.4875
 2074WAT    EPW 9018   5.868   6.532   1.879  0.0274  0.3088 -0.5697
 2075WAT      O 9019   5.117   4.496   1.424  0.0778  0.2236 -0.2087
 2075WAT     H1 9020   5.198   4.467   1.415  0.1335  0.6707 -1.2863
 2075WAT     H2 9021   5.068   4.431   1.394  0.0782  0.2451 -0.2564
 2075WAT    EPW 9022   5.121   4.482   1.418  0.0861  0.2928 -0.3750
 2076WAT      O 9023   5.416   5.689   7.379 -0.4882 -0.7654 -0.0213
 2076WAT     H1 9024   5.409   5.707   7.294 -1.6154 -2.0330 -0.2301
 2076WAT     H2 9025   5.440   5.605   7.380 -0.8604 -0.8688  0.9059
 2076WAT    EPW 9026   5.419   5.679   7.366 -0.7097 -0.9679  0.0848
 2077WAT      O 9027   3.439   6.026   3.052 -0.3953 -0.2556 -0.5876
 2077WAT     H1 9028   3.487   6.097   3.067 -1.3333  0.1792  0.5018
 2077WAT     H2 9029   3.408   6.040   2.971 -0.7671  0.7230 -0.3023
 2077WAT    EPW 9030   3.442   6.039   3.042 -0.5888 -0.0468 -0.3845
 2078WAT      O 9031   0.127   5.151   5.785  0.0560 -0.1536  0.2561
 2078WAT     H1 9032   0.045   5.179   5.771 -0.0279 -0.8176 -0.6375
 2078WAT     H2 9033   0.155   5.128   5.706  1.3577  0.6804  0.4550
 2078WAT    EPW 9034   0.119   5.152   5.772  0.2359 -0.1285  0.1535
 2079WAT      O 9035   4.938   2.817   2.500 -0.0257  0.1947 -0.0210
 2079WAT     H1 9036   4.873   2.874   2.489 -0.7433 -0.3323  1.1951
 2079WAT     H2 9037   4.932   2.797   2.585  1.7954  0.1947  0.1386
 2079WAT    EPW 9038   4.927   2.822   2.511  0.1373  0.1168  0.1822
 2080WAT      O 9039   4.636   4.397   4.381  0.6731  0.5848 -0.2504
 2080WAT     H1 9040   4.606   4.463   4.431 -2.4081  1.9514 -3.4857
 2080WAT     H2 9041   4.711   4.429   4.349  0.3932  1.5736  0.0275
 2080WAT    EPW 9042   4.642   4.412   4.384  0.1766  0.9327 -0.6872
 2081WAT      O 9043   4.245   4.775   2.714 -0.3181  0.2087  0.2510
 2081WAT     H1 9044   4.265   4.858   2.697  3.5504 -0.1866  1.7330
 2081WAT     H2 9045   4.189   4.780   2.781 -0.4431  1.6025  0.0626
 2081WAT    EPW 9046   4.240   4.788   2.721  0.2349  0.3562  0.4421
 2082WAT      O 9047   3.433   5.074   2.449  0.0207  0.2945  0.2235
 2082WAT     H1 9048   3.350   5.073   2.475 -0.0518  0.4934  0.0029
 2082WAT     H2 9049   3.446   5.157   2.425  0.0931  0.1210 -0.3401
 2082WAT    EPW 9050   3.423   5.086   2.449  0.0207  0.2982  0.1076
 2083WAT      O 9051   5.711   7.152   0.301  0.1612  0.7165 -0.2657
 2083WAT     H1 9052   5.725   7.227   0.342  0.3203  0.7154 -0.3175
 2083WAT     H2 9053   5.631   7.162   0.266  0.0860  0.7711 -0.0782
 2083WAT    EPW 9054   5.701   7.164   0.302  0.1736  0.7244 -0.2456
 2084WAT      O 9055   0.024   5.966   5.384 -0.7452  0.0020 -0.7517
 2084WAT     H1 9056   0.031   5.890   5.342  0.4632 -0.3061 -0.0390
 2084WAT     H2 9057   0.002   5.943   5.465 -1.1752  0.4671 -0.7304
 2084WAT    EPW 9058   0.022   5.952   5.389 -0.6302  0.0252 -0.6433
 2085WAT      O 9059   3.692   7.132   1.382  0.3750 -0.1291  0.1909
 2085WAT     H1 9060   3.759   7.077   1.368 -0.6430 -1.1252 -1.0258
 2085WAT     H2 9061   3.712   7.202   1.334  1.5642  0.5192  1.5562
 2085WAT    EPW 9062   3.705   7.134   1.373  0.4003 -0.1805  0.2129
 2086WAT      O 9063   5.022   1.319   0.647 -0.4878  0.4155  0.5754
 2086WAT     H1 9064   5.026   1.314   0.560 -0.9202 -0.5758  0.5992
 2086WAT     H2 9065   4.938   1.302   0.665 -0.3868  0.5282  1.1872
 2086WAT    EPW 9066   5.010   1.315   0.637 -0.5368  0.2857  0.6693
 2087WAT      O 9067   6.443   4.221   0.602  0.1142 -0.1348  0.1279
 2087WAT     H1 9068   6.446   4.263   0.679 -0.9539  0.9310 -0.3899
 2087WAT     H2 9069   6.447   4.285   0.543 -3.2217 -0.4616 -0.6944
 2087WAT    EPW 9070   6.444   4.237   0.605 -0.5364 -0.0256 -0.0701
 2088WAT      O 9071   3.390   2.224   0.540  0.0133 -0.1353  0.4708
 2088WAT     H1 9072   3.468   2.200   0.571  0.4857 -0.7642 -1.0739
 2088WAT     H2 9073   3.364   2.153   0.496 -0.1964  0.9389 -1.2408
 2088WAT    EPW 9074   3.398   2.210   0.538  0.0521 -0.0695 -0.0102
 2089WAT      O 9075   6.818   0.561   5.367 -0.7286 -0.1619 -0.8301
 2089WAT     H1 9076   6.734   0.538   5.379 -0.8489  0.5031 -0.3702
 2089WAT     H2 9077   6.813   0.623   5.306 -0.5069 -0.5400 -1.2400
 2089WAT    EPW 9078   6.805   0.567   5.359 -0.7136 -0.1195 -0.8227
 2090WAT      O 9079   7.524   3.330   6.929  0.4374 -0.1987  0.4502
 2090WAT     H1 9080   7.604   3.297   6.942  0.6989  0.2405 -0.0260
 2090WAT     H2 9081   7.520   3.398   6.984  1.4729  1.5414 -1.4840
 2090WAT    EPW 9082   7.535   3.335   6.939  0.6290  0.1232  0.0941
 2091WAT      O 9083   4.767   0.897   0.591  0.5522 -0.0047 -0.5977
 2091WAT     H1 9084   4.834   0.904   0.646  0.2598  2.4450 -0.4501
 2091WAT     H2 9085   4.712   0.843   0.632  2.2262 -1.8648 -0.6007
 2091WAT    EPW 9086   4.769   0.890   0.605  0.7562  0.0824 -0.5764
 2092WAT      O 9087   5.940   3.196   2.128 -0.1689  0.2708 -0.5744
 2092WAT     H1 9088   5.910   3.276   2.112 -0.5385  0.0535 -0.9824
 2092WAT     H2 9089   5.900   3.174   2.202  2.6882  1.8745  1.6760
 2092WAT    EPW 9090   5.929   3.205   2.136  0.1985  0.4756 -0.3022
 2093WAT      O 9091   5.129   6.053   3.526 -0.0021  0.4443 -0.1781
 2093WAT     H1 9092   5.163   6.025   3.601  1.9972  0.5308 -0.9977
 2093WAT     H2 9093   5.071   5.990   3.506 -0.2390  0.1882  1.1771
 2093WAT    EPW 9094   5.125   6.039   3.534  0.2582  0.4192 -0.0990
 2094WAT      O 9095   3.926   1.691   4.119  0.6715  0.7932  0.3209
 2094WAT     H1 9096   3.986   1.631   4.137 -0.1672 -0.6164 -1.2482
 2094WAT     H2 9097   3.918   1.687   4.032 -0.8081  1.8134  0.3523
 2094WAT    EPW 9098   3.933   1.682   4.108  0.3291  0.7357  0.0938
 2095WAT      O 9099   5.716   4.318   5.794  0.6801 -0.0274 -0.2016
 2095WAT     H1 9100   5.638   4.355   5.801  0.7674 -0.1370  1.7398
 2095WAT     H2 9101   5.759   4.373   5.740 -0.5170  0.3429 -0.8176
 2095WAT    EPW 9102   5.711   4.332   5.787  0.5161  0.0111 -0.0058
 2096WAT      O 9103   6.511   2.792   7.079  0.4510 -0.0105 -0.1971
 2096WAT     H1 9104   6.479   2.711   7.071 -1.0663  0.5526 -0.1496
 2096WAT     H2 9105   6.497   2.811   7.163 -2.7360  1.6127 -0.9133
 2096WAT    EPW 9106   6.504   2.783   7.090 -0.2439  0.3125 -0.2959
 2097WAT      O 9107   6.602   3.349   7.686  0.0849  0.4937 -0.2072
 2097WAT     H1 9108   6.555   3.285   7.651 -0.5691  0.8223  0.0646
 2097WAT     H2 9109   6.559   3.421   7.664  0.7337  0.8412 -0.3829
 2097WAT    EPW 9110   6.589   3.350   7.678  0.0841  0.5936 -0.1930
 2098WAT      O 9111   0.118   6.880   0.202  0.0993  0.0441  0.6042
 2098WAT     H1 9112   0.081   6.830   0.263  0.6344  1.0816  1.8341
 2098WAT     H2 9113   0.080   6.958   0.214 -2.2341 -0.3740 -2.5811
 2098WAT    EPW 9114   0.107   6.884   0.213 -0.1664  0.1356  0.3153
 2099WAT      O 9115   1.479   1.809   7.388  0.2729  0.1709 -0.0208
 2099WAT     H1 9116   1.437   1.865   7.441  0.3609 -0.2890  0.5442
 2099WAT     H2 9117   1.516   1.753   7.443  1.3538  0.3648 -0.5208
 2099WAT    EPW 9118   1.479   1.809   7.404  0.4455  0.1316 -0.0112
 2100WAT      O 9119   5.363   0.528   2.153 -0.2157  0.0297 -0.3211
 2100WAT     H1 9120   5.281   0.504   2.172 -0.6384 -0.6579 -2.7112
 2100WAT     H2 9121   5.403   0.528   2.231 -2.0870 -1.1334  0.7106
 2100WAT    EPW 9122   5.357   0.524   2.167 -0.5546 -0.2437 -0.5217
 2101WAT      O 9123   2.629   4.126   0.227  0.5120  0.0861 -0.5051
 2101WAT     H1 9124   2.622   4.201   0.184 -0.4015  0.6718  0.6099
 2101WAT     H2 9125   2.548   4.112   0.256  1.2479  0.1314  1.6944
 2101WAT    EPW 9126   2.616   4.135   0.225  0.4858  0.1793 -0.0155
 2102WAT      O 9127   7.611   5.297   0.549 -0.5856 -0.4160 -0.2229
 2102WAT     H1 9128   7.605   5.265   0.630  1.1766 -4.2373 -1.3786
 2102WAT     H2 9129   7.530   5.288   0.518 -1.1687  0.6516  0.8662
 2102WAT    EPW 9130   7.598   5.291   0.557 -0.4114 -0.8227 -0.2328
 2103WAT      O 9131   3.322   3.926   6.212  0.5612  0.4908  0.5925
 2103WAT     H1 9132   3.406   3.917   6.190  0.3111 -1.1546  0.1712
 2103WAT     H2 9133   3.325   3.961   6.291  1.6378  0.8984  0.3861
 2103WAT    EPW 9134   3.335   3.930   6.220  0.6833  0.3079  0.4998
 2104WAT      O 9135   3.929   0.081   0.448  0.4825  0.0995 -0.0187
 2104WAT     H1 9136   3.880   0.063   0.518  1.3407  0.5258  0.7105
 2104WAT     H2 9137   3.872   0.077   0.382 -0.4422  0.1484  0.7481
 2104WAT    EPW 9138   3.913   0.078   0.449  0.4727  0.1697  0.2023
 2105WAT      O 9139   6.165   6.198   2.760 -0.1852  0.3066 -0.3384
 2105WAT     H1 9140   6.140   6.184   2.678  2.0816 -1.2338 -0.8711
 2105WAT     H2 9141   6.171   6.118   2.794  0.7958  0.7870  0.7030
 2105WAT    EPW 9142   6.162   6.184   2.753  0.2945  0.1500 -0.2633
 2106WAT      O 9143   6.552   0.882   0.176  0.0617  0.2611  0.3892
 2106WAT     H1 9144   6.582   0.926   0.107 -0.4556  3.9525  2.2632
 2106WAT     H2 9145   6.619   0.882   0.232 -0.0185 -1.3196  0.5368
 2106WAT    EPW 9146   6.566   0.888   0.174 -0.0266  0.5729  0.6879
 2107WAT      O 9147   6.673   6.713   4.246  0.2905 -0.2503  0.1909
 2107WAT     H1 9148   6.596   6.674   4.231  0.8142 -1.1261 -0.2521
 2107WAT     H2 9149   6.729   6.668   4.198  1.1529  0.1620  0.7838
 2107WAT    EPW 9150   6.670   6.701   4.237  0.4952 -0.3188  0.2131
 2108WAT      O 9151   5.895   1.302   1.635  0.0894 -0.1206 -0.0290
 2108WAT     H1 9152   5.868   1.380   1.603 -0.7596  0.1231  1.2096
 2108WAT     H2 9153   5.954   1.276   1.576  1.5467  2.1644  0.2653
 2108WAT    EPW 9154   5.899   1.310   1.621  0.1792  0.2530  0.1974
 2109WAT      O 9155   7.529   3.903   5.628  0.2601 -0.1287 -0.0721
 2109WAT     H1 9156   7.447   3.922   5.602  0.1348 -1.4164 -0.7017
 2109WAT     H2 9157   7.534   3.938   5.708  0.0987  2.5568 -1.1191
 2109WAT    EPW 9158   7.517   3.911   5.636  0.2178  0.0778 -0.3198
 2110WAT      O 9159   3.854   2.887   2.155 -0.0966  0.7018  0.5834
 2110WAT     H1 9160   3.890   2.922   2.084 -0.6461  0.5413  0.2201
 2110WAT     H2 9161   3.796   2.947   2.181 -2.5339 -0.7161 -1.2234
 2110WAT    EPW 9162   3.851   2.901   2.149 -0.5378  0.4687  0.2628
 2111WAT      O 9163   2.937   4.048   3.797 -0.1833  0.1931 -0.1073
 2111WAT     H1 9164   2.892   4.103   3.848  0.4820  0.9172 -0.2754
 2111WAT     H2 9165   2.903   3.970   3.815 -0.8085  0.5989  0.5139
 2111WAT    EPW 9166   2.925   4.045   3.807 -0.1774  0.3600 -0.0404
 2112WAT      O 9167   0.836   6.205   7.070 -0.1076 -0.1967  0.0110
 2112WAT     H1 9168   0.827   6.130   7.027  1.6652  0.6905 -2.0747
 2112WAT     H2 9169   0.902   6.188   7.126  2.5551  0.5679 -2.6642
 2112WAT    EPW 9170   0.845   6.191   7.072  0.5476  0.0473 -0.6923
 2113WAT      O 9171   5.854   3.177   0.184  0.3980 -0.4477 -0.3292
 2113WAT     H1 9172   5.858   3.190   0.098  1.0172 -0.7341 -0.3475
 2113WAT     H2 9173   5.928   3.134   0.202  0.1890 -0.5463  0.3179
 2113WAT    EPW 9174   5.866   3.173   0.174  0.4586 -0.5045 -0.2363
 2114WAT      O 9175   0.144   5.811   7.624  0.1361  0.3539  0.5219
 2114WAT     H1 9176   0.193   5.787   7.692  0.4912  0.1064  0.1902
 2114WAT     H2 9177   0.167   5.754   7.562 -0.0786  0.6611  0.1557
 2114WAT    EPW 9178   0.155   5.799   7.625  0.1568  0.3627  0.4188
 2115WAT      O 9179   4.782   2.317   6.932  0.0095  0.0165 -0.8186
 2115WAT     H1 9180   4.844   2.287   6.880 -0.3915  0.6643 -1.6942
 2115WAT     H2 9181   4.749   2.245   6.970 -0.1254 -0.5307 -1.9492
 2115WAT    EPW 9182   4.786   2.302   6.930 -0.0696  0.0313 -1.1149
 2116WAT      O 9183   1.234   4.752   5.687 -0.2919  0.5417 -0.1639
 2116WAT     H1 9184   1.245   4.687   5.630 -0.4241  1.6733 -1.5295
 2116WAT     H2 9185   1.196   4.814   5.640 -1.5869  1.0690  1.4983
 2116WAT    EPW 9186   1.230   4.751   5.672 -0.5028  0.7867 -0.1201
 2117WAT      O 9187   3.047   0.885   5.892  0.4781  0.3462 -0.2900
 2117WAT     H1 9188   3.134   0.889   5.903  1.2061 -1.7277 -3.5753
 2117WAT     H2 9189   3.025   0.813   5.937  0.6960  0.1992 -0.4135
 2117WAT    EPW 9190   3.057   0.875   5.900  0.6178  0.0182 -0.7935
 2118WAT      O 9191   0.198   1.821   7.473 -0.0830 -0.3405  0.3995
 2118WAT     H1 9192   0.183   1.867   7.401  0.2775 -1.8706 -0.6874
 2118WAT     H2 9193   0.249   1.873   7.520  0.2632  0.3948 -0.7514
 2118WAT    EPW 9194   0.203   1.836   7.470  0.0214 -0.4579  0.0689
 2119WAT      O 9195   7.001   1.945   5.798  0.0917 -0.1240 -0.4979
 2119WAT     H1 9196   6.928   1.957   5.844 -0.6544  0.8448 -1.8720
 2119WAT     H2 9197   6.982   1.875   5.749  0.3910 -0.3454 -0.3029
 2119WAT    EPW 9198   6.987   1.936   5.797  0.0257 -0.0136 -0.6721
 2120WAT      O 9199   4.997   4.065   5.423 -0.4596 -0.0126  0.5935
 2120WAT     H1 9200   4.965   4.121   5.481 -1.2081 -0.6539  0.8201
 2120WAT     H2 9201   5.036   4.116   5.364  1.0327  0.6263  2.0573
 2120WAT    EPW 9202   4.998   4.081   5.423 -0.3497 -0.0129  0.8432
 2121WAT      O 9203   5.394   4.078   3.198  0.1792 -0.0127 -0.5263
 2121WAT     H1 9204   5.326   4.060   3.147 -1.6773 -0.9623  2.0289
 2121WAT     H2 9205   5.406   4.003   3.243  1.3592  0.8810  0.7307
 2121WAT    EPW 9206   5.385   4.064   3.197  0.0792 -0.0210  0.0368
 2122WAT      O 9207   1.134   1.253   4.043 -0.3984 -0.2509  0.0510
 2122WAT     H1 9208   1.217   1.229   4.059 -0.5416 -0.3241  0.7165
 2122WAT     H2 9209   1.099   1.181   4.009 -0.5278 -0.6424  0.9893
 2122WAT    EPW 9210   1.141   1.238   4.041 -0.4387 -0.3196  0.2879
 2123WAT      O 9211   5.113   3.429   6.288 -0.0910  0.4014 -0.2365
 2123WAT     H1 9212   5.092   3.385   6.216 -0.6679  2.0114 -1.1074
 2123WAT     H2 9213   5.045   3.416   6.341  1.0781 -2.2156  0.8045
 2123WAT    EPW 9214   5.100   3.421   6.285 -0.0035  0.2527 -0.2114
 2124WAT      O 9215   0.319   6.357   6.307  0.2117 -0.0607 -0.0047
 2124WAT     H1 9216   0.396   6.335   6.341  0.4101  0.3363 -0.1994
 2124WAT     H2 9217   0.309   6.441   6.328 -1.4205 -0.7261  2.4092
 2124WAT    EPW 9218   0.329   6.366   6.315 -0.0001 -0.1004  0.3232
 2125WAT      O 9219   3.977   0.771   4.715  0.2495 -0.5476  0.0179
 2125WAT     H1 9220   4.049   0.785   4.668  1.5316 -2.8925  1.0574
 2125WAT     H2 9221   3.927   0.722   4.662  0.0260 -0.0702 -0.2145
 2125WAT    EPW 9222   3.980   0.766   4.700  0.4059 -0.8235  0.1372
 2126WAT      O 9223   0.884   0.466   7.542  0.3197  0.2853  0.2599
 2126WAT     H1 9224   0.831   0.530   7.517 -0.6339 -0.0994  1.2120
 2126WAT     H2 9225   0.958   0.482   7.499 -0.1873  1.5073 -0.1934
 2126WAT    EPW 9226   0.887   0.478   7.532  0.1039  0.4090  0.3336
 2127WAT      O 9227   4.355   3.135   7.761 -0.0183  0.5683 -0.0199
 2127WAT     H1 9228   4.370   3.142   7.846 -0.7245  0.4685  0.1196
 2127WAT     H2 9229   4.434   3.146   7.725  0.8174 -2.0376  0.7800
 2127WAT    EPW 9230   4.369   3.137   7.768  0.0008  0.1686  0.1189
 2128WAT      O 9231   5.371   6.729   4.035  0.3889 -0.2522 -0.4743
 2128WAT     H1 9232   5.339   6.696   4.109  0.0507 -0.9006 -0.8985
 2128WAT     H2 9233   5.380   6.814   4.052 -0.8011 -0.1815 -0.0649
 2128WAT    EPW 9234   5.367   6.737   4.048  0.1631 -0.3376 -0.4765
 2129WAT      O 9235   2.249   4.189   4.635  0.1010 -0.1150  0.3107
 2129WAT     H1 9236   2.278   4.142   4.702 -2.3657 -1.1085  0.7681
 2129WAT     H2 9237   2.292   4.265   4.642  2.4686 -1.4284  0.9050
 2129WAT    EPW 9238   2.260   4.193   4.646  0.0864 -0.4558  0.4660
 2130WAT      O 9239   6.259   1.741   5.305  0.0305 -0.1775  0.4680
 2130WAT     H1 9240   6.206   1.787   5.356  1.3501  1.7216  0.2372
 2130WAT     H2 9241   6.224   1.751   5.225  0.5521  0.8761  0.3494
 2130WAT    EPW 9242   6.246   1.749   5.300  0.3025  0.2587  0.4164
 2131WAT      O 9243   5.526   7.315   3.551  0.2232 -0.2228 -0.3051
 2131WAT     H1 9244   5.564   7.393   3.547 -1.5372  0.7514  0.6601
 2131WAT     H2 9245   5.441   7.332   3.538 -0.2753 -1.9048  0.3583
 2131WAT    EPW 9246   5.519   7.329   3.549 -0.1105 -0.3273 -0.0645
 2132WAT      O 9247   5.702   1.786   6.578 -0.3422  0.2430 -0.1155
 2132WAT     H1 9248   5.702   1.848   6.640 -1.9091  0.9336 -0.7749
 2132WAT     H2 9249   5.646   1.727   6.609  2.2047 -1.7064  1.2261
 2132WAT    EPW 9250   5.694   1.786   6.592 -0.1974  0.0571 -0.0147
 2133WAT      O 9251   0.342   5.804   7.843  0.2602 -0.4959 -0.0138
 2133WAT     H1 9252   0.282   5.767   7.894  0.0653  2.0628  1.7724
 2133WAT     H2 9253   0.330   5.889   7.854  2.5555  0.1546 -1.6209
 2133WAT    EPW 9254   0.332   5.811   7.852  0.5705 -0.0219  0.0127
 2134WAT      O 9255   3.656   2.751   1.445 -0.6946  0.4422  0.0371
 2134WAT     H1 9256   3.671   2.723   1.364 -0.4821 -2.4085  0.9264
 2134WAT     H2 9257   3.632   2.834   1.435  1.2528  0.7927 -2.7342
 2134WAT    EPW 9258   3.655   2.759   1.432 -0.3755  0.0729 -0.2409
 2135WAT      O 9259   5.887   0.643   5.432  0.4880 -0.1649  0.2939
 2135WAT     H1 9260   5.831   0.686   5.482 -0.3821 -0.4733 -0.3873
 2135WAT     H2 9261   5.907   0.572   5.479  0.7962  0.2457  0.7948
 2135WAT    EPW 9262   5.882   0.639   5.446  0.4050 -0.1498  0.2672
 2136WAT      O 9263   5.169   4.528   5.213 -0.0417  0.1577  0.2230
 2136WAT     H1 9264   5.237   4.533   5.268  0.9009 -1.6007 -0.7007
 2136WAT     H2 9265   5.201   4.557   5.138 -0.4969 -0.0954 -0.0748
 2136WAT    EPW 9266   5.184   4.533   5.210  0.0303 -0.1395  0.0426
 2137WAT      O 9267   6.282   6.026   0.918  0.0927 -0.1043  0.2433
 2137WAT     H1 9268   6.316   5.981   0.985  0.6288  1.7910  1.2982
 2137WAT     H2 9269   6.268   5.964   0.858  1.3406 -1.6041  1.3987
 2137WAT    EPW 9270   6.285   6.010   0.919  0.3562 -0.0459  0.5698
 2138WAT      O 9271   6.757   0.813   7.358 -0.2086  0.1081 -0.3513
 2138WAT     H1 9272   6.709   0.876   7.322  0.9558  2.5646  2.0576
 2138WAT     H2 9273   6.834   0.820   7.318 -0.3974 -0.5874 -0.8558
 2138WAT    EPW 9274   6.761   0.823   7.347 -0.0645  0.3682 -0.0700
 2139WAT      O 9275   4.370   3.321   4.096  0.0765 -0.5685 -0.4540
 2139WAT     H1 9276   4.411   3.393   4.067  0.1316 -0.5726 -0.3857
 2139WAT     H2 9277   4.332   3.347   4.170 -1.7516  0.0056 -1.5238
 2139WAT    EPW 9278   4.370   3.336   4.103 -0.1854 -0.4843 -0.6020
 2140WAT      O 9279   2.660   0.214   4.510 -0.1381 -0.1109  0.0262
 2140WAT     H1 9280   2.579   0.226   4.540 -0.2372  0.6434 -0.5192
 2140WAT     H2 9281   2.710   0.231   4.579 -0.3980  0.7883  0.0101
 2140WAT    EPW 9282   2.655   0.218   4.525 -0.1911  0.1333 -0.0567
 2141WAT      O 9283   5.255   2.879   6.406 -0.4096  0.2429  0.2090
 2141WAT     H1 9284   5.324   2.890   6.354  0.1858  0.2400  0.9902
 2141WAT     H2 9285   5.280   2.817   6.461 -0.3245  1.5162  1.6847
 2141WAT    EPW 9286   5.269   2.872   6.407 -0.3090  0.4305  0.5424
 2142WAT      O 9287   5.774   6.911   5.581 -0.1016 -0.1305 -0.2037
 2142WAT     H1 9288   5.813   6.875   5.512  0.7789  2.8621 -1.4272
 2142WAT     H2 9289   5.689   6.897   5.567  0.0184  0.7686 -2.1798
 2142WAT    EPW 9290   5.767   6.904   5.569  0.0462  0.4444 -0.6763
 2143WAT      O 9291   7.536   7.338   5.958 -0.2918 -0.0449 -0.8188
 2143WAT     H1 9292   7.594   7.403   5.970  0.2950 -0.6821 -0.0498
 2143WAT     H2 9293   7.558   7.280   6.020 -0.9227 -0.8950 -1.3730
 2143WAT    EPW 9294   7.548   7.339   5.969 -0.2983 -0.2646 -0.7871
 2144WAT      O 9295   5.324   3.132   6.077 -0.3966  0.0815  0.7784
 2144WAT     H1 9296   5.377   3.116   6.009 -1.3728 -0.5114  0.1241
 2144WAT     H2 9297   5.356   3.081   6.140  0.3113  0.3668  0.6580
 2144WAT    EPW 9298   5.336   3.122   6.076 -0.4362  0.0361  0.6640
 2145WAT      O 9299   1.000   6.197   7.733  0.5608 -0.4739  0.1394
 2145WAT     H1 9300   1.003   6.158   7.811 -0.9512  0.4752  0.7233
 2145WAT     H2 9301   0.947   6.146   7.687  0.8013 -0.5939 -0.0060
 2145WAT    EPW 9302   0.993   6.184   7.738  0.3730 -0.3514  0.2042
 2146WAT      O 9303   0.898   3.999   7.833 -0.7011 -0.1153  0.0161
 2146WAT     H1 9304   0.902   4.066   7.889  0.1581  0.7452 -1.0191
 2146WAT     H2 9305   0.979   3.995   7.800 -1.1526 -0.6359 -1.0985
 2146WAT    EPW 9306   0.910   4.009   7.836 -0.6409 -0.0651 -0.3015
 2147WAT      O 9307   4.511   2.961   6.760  1.2467  0.1879 -0.0252
 2147WAT     H1 9308   4.459   3.028   6.739  1.6903  0.6301  0.2368
 2147WAT     H2 9309   4.570   2.960   6.696  0.2472 -1.0703 -0.9594
 2147WAT    EPW 9310   4.512   2.971   6.747  1.1646  0.0674 -0.1245
 2148WAT      O 9311   7.364   2.022   6.957 -0.3097 -0.1002 -1.3643
 2148WAT     H1 9312   7.440   2.037   6.915  0.6083 -0.8675 -0.0685
 2148WAT     H2 9313   7.352   1.937   6.945  0.8745 -0.7254  1.2410
 2148WAT    EPW 9314   7.374   2.012   6.949  0.0009 -0.3059 -0.7880
 2149WAT      O 9315   4.503   0.520   7.096  0.0224  0.1602  0.7689
 2149WAT     H1 9316   4.543   0.583   7.142  1.3351 -0.2017  0.1733
 2149WAT     H2 9317   4.490   0.457   7.155 -0.9816  0.8235  1.2910
 2149WAT    EPW 9318   4.507   0.520   7.112  0.0680  0.2047  0.7580
 2150WAT      O 9319   6.295   0.465   6.744  0.0117  0.2974 -0.4991
 2150WAT     H1 9320   6.280   0.485   6.660 -0.4628  0.7116 -0.3211
 2150WAT     H2 9321   6.215   0.451   6.776  0.0470  1.6106  0.2509
 2150WAT    EPW 9322   6.281   0.466   6.736 -0.0532  0.5526 -0.3620
 2151WAT      O 9323   2.442   3.864   7.598 -0.0638 -0.1651  0.0025
 2151WAT     H1 9324   2.386   3.894   7.657 -0.3997  0.1518 -0.4669
 2151WAT     H2 9325   2.496   3.931   7.585 -2.7141  1.6189 -3.4494
 2151WAT    EPW 9326   2.442   3.878   7.605 -0.5049  0.1453 -0.5768
 2152WAT      O 9327   5.557   6.737   6.642 -0.3749 -0.3609 -0.1095
 2152WAT     H1 9328   5.550   6.822   6.622  0.0593 -0.2975  0.0108
 2152WAT     H2 9329   5.534   6.734   6.726  1.4928 -0.0717  0.4428
 2152WAT    EPW 9330   5.553   6.749   6.651 -0.0348 -0.3088 -0.0101
 2153WAT      O 9331   0.573   2.359   6.918 -0.1113  0.1281 -0.2166
 2153WAT     H1 9332   0.571   2.446   6.918 -3.4500  0.2107  0.9683
 2153WAT     H2 9333   0.540   2.339   6.996 -1.0411 -2.1800 -1.1344
 2153WAT    EPW 9334   0.568   2.369   6.930 -0.7418 -0.2006 -0.1771
 2154WAT      O 9335   1.826   4.694   4.148 -0.7370  0.1570 -0.6164
 2154WAT     H1 9336   1.746   4.663   4.130 -0.8236  1.4600 -2.7722
 2154WAT     H2 9337   1.878   4.648   4.096  0.4611 -2.6761  2.7173
 2154WAT    EPW 9338   1.822   4.683   4.138 -0.5728 -0.0691 -0.4424
 2155WAT      O 9339   3.116   7.636   4.039  0.2757  0.0161  0.4396
 2155WAT     H1 9340   3.126   7.577   3.975 -0.1915  1.2134 -0.7710
 2155WAT     H2 9341   3.178   7.695   4.022 -1.2226  1.4716 -0.2313
 2155WAT    EPW 9342   3.127   7.636   4.027 -0.0146  0.4080  0.1617
 2156WAT      O 9343   5.716   1.692   4.452 -0.1722 -0.1415  0.0580
 2156WAT     H1 9344   5.732   1.777   4.448 -1.1047  0.0850  0.6066
 2156WAT     H2 9345   5.742   1.661   4.375  3.0199  0.0968  0.9077
 2156WAT    EPW 9346   5.722   1.700   4.440  0.1616 -0.0728  0.2645
 2157WAT      O 9347   7.123   1.608   5.990  0.1811  0.1845 -0.4540
 2157WAT     H1 9348   7.083   1.617   5.913  1.2329  1.8584 -0.8670
 2157WAT     H2 9349   7.172   1.680   5.996  1.1325 -0.5402  1.1932
 2157WAT    EPW 9350   7.124   1.620   5.979  0.4770  0.3247 -0.2717
 2158WAT      O 9351   1.519   5.246   5.483 -0.0490 -0.7576  0.0542
 2158WAT     H1 9352   1.562   5.170   5.486  4.2191  1.3010 -0.9886
 2158WAT     H2 9353   1.474   5.242   5.409  0.5462 -2.0463 -0.2671
 2158WAT    EPW 9354   1.519   5.234   5.473  0.6694 -0.6439 -0.1473
 2159WAT      O 9355   4.573   6.700   3.618 -0.4135 -0.1533  0.4618
 2159WAT     H1 9356   4.505   6.647   3.609 -1.0059  0.8207 -1.1880
 2159WAT     H2 9357   4.537   6.775   3.643  0.1430  0.1424  0.3905
 2159WAT    EPW 9358   4.558   6.703   3.621 -0.4188  0.0343  0.2076
 2160WAT      O 9359   5.933   0.780   1.467 -0.2934 -0.3666 -0.2343
 2160WAT     H1 9360   5.995   0.828   1.429  0.6086 -1.5527 -0.2912
 2160WAT     H2 9361   5.931   0.810   1.549  1.3725 -1.2520  0.1653
 2160WAT    EPW 9362   5.942   0.792   1.473  0.0859 -0.6726 -0.1837
 2161WAT      O 9363   4.344   7.309   0.475  0.0325  0.3965 -0.1039
 2161WAT     H1 9364   4.383   7.325   0.552 -2.0653  1.7778  0.7479
 2161WAT     H2 9365   4.411   7.308   0.419  1.7234 -1.3813  1.7731
 2161WAT    EPW 9366   4.360   7.311   0.478 -0.0276  0.3379  0.2992
 2162WAT      O 9367   5.087   2.283   1.408  0.3945 -1.0963 -0.1097
 2162WAT     H1 9368   5.082   2.279   1.495 -0.9342  1.6319  0.0498
 2162WAT     H2 9369   5.155   2.336   1.394 -0.7218  0.2816 -0.5822
 2162WAT    EPW 9370   5.096   2.290   1.419  0.0333 -0.4898 -0.1560
 2163WAT      O 9371   6.593   1.132   5.996  0.1301  0.5881  0.3356
 2163WAT     H1 9372   6.527   1.145   6.052 -0.3613  0.0015 -0.0985
 2163WAT     H2 9373   6.587   1.200   5.941 -0.2340  0.4300  0.1797
 2163WAT    EPW 9374   6.582   1.144   5.996  0.0037  0.4781  0.2484
 2164WAT      O 9375   5.730   4.351   7.287 -0.2137 -0.0040  0.1627
 2164WAT     H1 9376   5.765   4.285   7.242 -0.9119 -0.3385  0.1079
 2164WAT     H2 9377   5.722   4.415   7.228  0.6145  0.1974  0.2533
 2164WAT    EPW 9378   5.734   4.351   7.271 -0.1945 -0.0237  0.1680
 2165WAT      O 9379   5.962   6.745   3.583  0.3455  0.6132  0.1511
 2165WAT     H1 9380   6.021   6.756   3.520  1.0181 -1.0094  0.4535
 2165WAT     H2 9381   5.914   6.678   3.555 -0.5676  1.1005  0.5058
 2165WAT    EPW 9382   5.963   6.737   3.570  0.3100  0.4455  0.2482
 2166WAT      O 9383   6.232   5.067   4.403  0.6044  0.0791  0.1791
 2166WAT     H1 9384   6.295   5.119   4.432 -0.4729  1.2567  0.4891
 2166WAT     H2 9385   6.171   5.122   4.374 -0.0112 -1.0350 -0.7026
 2166WAT    EPW 9386   6.232   5.082   4.403  0.3544  0.0885  0.0946
 2167WAT      O 9387   4.622   7.098   5.816 -0.2326 -0.0897 -1.0167
 2167WAT     H1 9388   4.543   7.103   5.778 -0.5048 -2.4470 -0.9098
 2167WAT     H2 9389   4.605   7.108   5.901 -0.0156  2.1008 -1.1807
 2167WAT    EPW 9390   4.608   7.100   5.823 -0.2408 -0.1144 -1.0251
 2168WAT      O 9391   5.522   3.420   7.694 -0.0080  0.4452 -0.6886
 2168WAT     H1 9392   5.532   3.341   7.730  0.8482  0.7775 -0.1824
 2168WAT     H2 9393   5.436   3.433   7.699 -0.0172  0.0976  0.4470
 2168WAT    EPW 9394   5.511   3.411   7.700  0.1172  0.4429 -0.4461
 2169WAT      O 9395   0.306   0.140   4.986  0.4884 -0.4004 -0.4033
 2169WAT     H1 9396   0.271   0.160   5.064 -1.2951  2.8408 -1.8666
 2169WAT     H2 9397   0.392   0.142   5.002  0.1894  0.5336  1.4371
 2169WAT    EPW 9398   0.313   0.143   5.000  0.1808  0.2164 -0.3476
 2170WAT      O 9399   2.854   0.561   6.582 -0.0794  0.7091 -0.3113
 2170WAT     H1 9400   2.840   0.475   6.575  0.4396  0.2744  2.7227
 2170WAT     H2 9401   2.779   0.592   6.615  0.3288  1.1282  0.2376
 2170WAT    EPW 9402   2.841   0.553   6.586  0.0575  0.7068  0.2180
 2171WAT      O 9403   5.059   2.190   5.196  0.5756 -0.7709 -0.3820
 2171WAT     H1 9404   5.050   2.256   5.139 -0.9811 -0.9511 -0.3884
 2171WAT     H2 9405   5.106   2.225   5.261  1.8467 -0.3763 -1.4657
 2171WAT    EPW 9406   5.065   2.205   5.197  0.5334 -0.7393 -0.5430
 2172WAT      O 9407   0.190   2.660   4.223  0.1793  0.3516 -0.1788
 2172WAT     H1 9408   0.212   2.592   4.273  2.4785  1.8211  0.9832
 2172WAT     H2 9409   0.233   2.645   4.148  1.6629  1.0092  0.4909
 2172WAT    EPW 9410   0.200   2.648   4.219  0.7381  0.6658  0.0918
 2173WAT      O 9411   2.077   5.476   0.770  0.0026 -0.4659 -0.4825
 2173WAT     H1 9412   2.005   5.437   0.801 -1.0279  1.1594 -0.7345
 2173WAT     H2 9413   2.109   5.519   0.839 -0.5802  0.6857 -0.9167
 2173WAT    EPW 9414   2.071   5.477   0.785 -0.2358 -0.0557 -0.5839
 2174WAT      O 9415   5.542   3.273   3.535  0.5621 -0.2020  0.0419
 2174WAT     H1 9416   5.461   3.245   3.519  0.4157  0.8538 -1.1879
 2174WAT     H2 9417   5.582   3.267   3.457  1.6019 -0.4816  0.5771
 2174WAT    EPW 9418   5.536   3.268   3.521  0.6941 -0.0873 -0.0607
 2175WAT      O 9419   1.087   0.738   6.465 -0.2419 -0.8721  0.2420
 2175WAT     H1 9420   1.123   0.808   6.500  1.1376 -1.0503 -0.7328
 2175WAT     H2 9421   1.013   0.727   6.510 -1.9047  2.7456 -1.2570
 2175WAT    EPW 9422   1.081   0.746   6.477 -0.2838 -0.3640 -0.1234
 2176WAT      O 9423   1.461   2.867   6.230 -0.1662 -0.3687 -0.6379
 2176WAT     H1 9424   1.530   2.827   6.265 -0.1713 -0.0166 -0.2191
 2176WAT     H2 9425   1.419   2.898   6.299 -0.3304  0.0828 -0.9424
 2176WAT    EPW 9426   1.465   2.865   6.245 -0.1912 -0.2500 -0.6210
 2177WAT      O 9427   4.980   6.420   6.140 -0.8787 -0.3809 -0.3855
 2177WAT     H1 9428   5.060   6.436   6.168 -0.6153 -0.2312 -1.1939
 2177WAT     H2 9429   4.993   6.370   6.069 -1.5044 -0.6050 -0.3479
 2177WAT    EPW 9430   4.993   6.415   6.133 -0.9323 -0.3919 -0.4994
 2178WAT      O 9431   7.061   2.999   5.526 -0.0765  0.4775  0.0744
 2178WAT     H1 9432   7.059   2.955   5.451  2.9642 -0.1981  0.2895
 2178WAT     H2 9433   7.031   3.078   5.503  2.1051  0.7520 -2.2489
 2178WAT    EPW 9434   7.056   3.004   5.511  0.6949  0.4183 -0.2370
 2179WAT      O 9435   5.238   1.288   7.458 -0.4727 -0.4765 -0.5293
 2179WAT     H1 9436   5.304   1.232   7.456 -2.2486 -2.7072 -1.8792
 2179WAT     H2 9437   5.239   1.324   7.378 -2.0662 -2.1492 -1.3807
 2179WAT    EPW 9438   5.248   1.285   7.446 -0.9704 -1.0531 -0.8545
 2180WAT      O 9439   1.503   3.019   5.677 -0.2243 -0.3886 -0.3857
 2180WAT     H1 9440   1.479   2.984   5.754  0.6060 -1.5853 -0.6450
 2180WAT     H2 9441   1.527   3.100   5.697  2.6755 -1.5099  1.1380
 2180WAT    EPW 9442   1.503   3.026   5.691  0.3267 -0.7310 -0.1989
 2181WAT      O 9443   5.558   4.535   0.570 -0.6437  0.3443  0.2468
 2181WAT     H1 9444   5.581   4.568   0.493 -0.1635  1.7187  0.9516
 2181WAT     H2 9445   5.561   4.449   0.557 -1.0592  0.5446 -1.3942
 2181WAT    EPW 9446   5.562   4.527   0.557 -0.6342  0.5769  0.1085
 2182WAT      O 9447   3.063   2.618   7.643 -0.1523 -0.4518  0.5040
 2182WAT     H1 9448   3.040   2.701   7.625 -0.4083 -0.3358  1.3293
 2182WAT     H2 9449   2.990   2.573   7.626  0.0093 -0.5291 -0.0178
 2182WAT    EPW 9450   3.049   2.624   7.638 -0.1663 -0.4461  0.5489
 2183WAT      O 9451   4.613   7.391   6.561  0.0150 -0.0841  0.5701
 2183WAT     H1 9452   4.555   7.454   6.576 -0.0338  0.1051 -0.3591
 2183WAT     H2 9453   4.574   7.319   6.591 -0.1317  0.2423  1.1822
 2183WAT    EPW 9454   4.599   7.390   6.568 -0.0139 -0.0079  0.5232
 2184WAT      O 9455   1.091   4.084   7.143 -0.4944  0.1656  0.1625
 2184WAT     H1 9456   1.056   4.093   7.222 -3.2573  1.2500 -1.0949
 2184WAT     H2 9457   1.144   4.153   7.136  0.5025 -0.4204  1.3187
 2184WAT    EPW 9458   1.094   4.095   7.154 -0.7553  0.2392  0.1476
 2185WAT      O 9459   2.181   6.881   2.559  0.1224 -0.8305  0.4968
 2185WAT     H1 9460   2.201   6.966   2.562  0.7895 -1.0061  1.1719
 2185WAT     H2 9461   2.238   6.848   2.503  0.6718 -1.0424  1.1702
 2185WAT    EPW 9462   2.192   6.889   2.552  0.3021 -0.8878  0.6960
 2186WAT      O 9463   5.574   0.635   0.951  0.0299 -0.1332 -0.0217
 2186WAT     H1 9464   5.573   0.562   0.999  0.8265 -0.0312  0.1595
 2186WAT     H2 9465   5.655   0.666   0.962 -0.6272  1.3942  0.7986
 2186WAT    EPW 9466   5.586   0.629   0.960  0.0505  0.1075  0.1263
 2187WAT      O 9467   5.320   0.674   1.525 -0.0079 -0.0981 -0.2694
 2187WAT     H1 9468   5.299   0.622   1.458 -0.2121 -0.6497  0.2097
 2187WAT     H2 9469   5.407   0.666   1.531 -0.1267 -1.0944  0.3517
 2187WAT    EPW 9470   5.330   0.665   1.516 -0.0556 -0.3267 -0.1069
 2188WAT      O 9471   7.459   2.540   5.895 -0.2974  0.3301 -0.1248
 2188WAT     H1 9472   7.507   2.522   5.824  1.2622 -0.4753  1.0652
 2188WAT     H2 9473   7.442   2.461   5.929 -1.5833  0.6719  0.0631
 2188WAT    EPW 9474   7.464   2.526   5.889 -0.2570  0.2616  0.0787
 2189WAT      O 9475   5.132   2.952   2.923 -0.3960  0.1627  0.1713
 2189WAT     H1 9476   5.087   2.882   2.899 -0.0406  0.4555 -1.4232
 2189WAT     H2 9477   5.155   2.990   2.848 -0.0581  1.6667  0.9796
 2189WAT    EPW 9478   5.129   2.947   2.909 -0.2936  0.4281  0.0552
 2190WAT      O 9479   5.016   3.604   1.596  0.1694 -0.2435 -0.4229
 2190WAT     H1 9480   5.095   3.568   1.596  0.1937 -0.2376 -1.7998
 2190WAT     H2 9481   5.030   3.684   1.628  0.5601 -0.5243  0.1370
 2190WAT    EPW 9482   5.030   3.611   1.601  0.2307 -0.2841 -0.5436
 2191WAT      O 9483   0.173   0.006   6.456 -0.4733  0.6481 -0.7244
 2191WAT     H1 9484   0.250  -0.034   6.453 -0.4086  0.2952  2.3262
 2191WAT     H2 9485   0.188   0.084   6.420  0.6160 -0.2625 -2.3924
 2191WAT    EPW 9486   0.186   0.011   6.450 -0.3028  0.4614 -0.5202
 2192WAT      O 9487   5.990   0.396   4.973  0.1865 -0.2121  0.0376
 2192WAT     H1 9488   5.906   0.415   4.961  0.1170 -0.3394  0.3080
 2192WAT     H2 9489   5.991   0.309   4.974  0.5992 -0.2877 -1.9086
 2192WAT    EPW 9490   5.978   0.386   4.971  0.2372 -0.2420 -0.2099
 2193WAT      O 9491   7.341   0.274   0.032  0.1710  0.7614 -0.0032
 2193WAT     H1 9492   7.307   0.320   0.099 -0.1500  1.1779 -0.4498
 2193WAT     H2 9493   7.279   0.216   0.013  0.2200  0.7124 -0.0148
 2193WAT    EPW 9494   7.327   0.272   0.039  0.1308  0.8157 -0.0709
 2194WAT      O 9495   5.572   0.818   0.018  0.2175  0.2228  0.2221
 2194WAT     H1 9496   5.499   0.861   0.040 -1.2347 -2.5551  1.3629
 2194WAT     H2 9497   5.587   0.843  -0.064 -2.2130  0.6445 -0.1579
 2194WAT    EPW 9498   5.564   0.828   0.009 -0.3561 -0.1253  0.3345
 2195WAT      O 9499   7.379   3.996   6.888 -0.0866 -0.6862 -0.0920
 2195WAT     H1 9500   7.377   3.909   6.895 -0.9188 -0.5832  1.6427
 2195WAT     H2 9501   7.366   4.023   6.970  0.3051  1.0834 -0.5729
 2195WAT    EPW 9502   7.376   3.988   6.902 -0.1517 -0.4096  0.0932
 2196WAT      O 9503   0.583   3.382   4.202 -0.0957  0.2083 -0.0065
 2196WAT     H1 9504   0.521   3.394   4.141  0.3813  1.3651 -0.2983
 2196WAT     H2 9505   0.571   3.449   4.256  1.7078  1.2351 -0.7982
 2196WAT    EPW 9506   0.572   3.394   4.201  0.2412  0.5308 -0.1666
 2197WAT      O 9507   5.055   4.974   1.288  0.3972  0.2178  0.4382
 2197WAT     H1 9508   5.106   5.043   1.275 -0.0415  0.4197 -0.2841
 2197WAT     H2 9509   5.055   4.964   1.375  1.2827  0.4874  0.4800
 2197WAT    EPW 9510   5.063   4.982   1.299  0.4632  0.2875  0.3377
 2198WAT      O 9511   6.531   2.285   6.064 -0.2480 -0.7253 -0.2818
 2198WAT     H1 9512   6.602   2.298   6.014  0.4008  1.6875  1.1119
 2198WAT     H2 9513   6.510   2.365   6.091 -1.2988 -1.7539  2.2829
 2198WAT    EPW 9514   6.538   2.299   6.061 -0.3074 -0.5208  0.3030
 2199WAT      O 9515   6.170   2.928   6.364  0.3886 -0.4657 -0.1251
 2199WAT     H1 9516   6.187   3.013   6.376  0.6435 -0.5102 -0.1627
 2199WAT     H2 9517   6.131   2.926   6.285  0.0056 -0.3381  0.0580
 2199WAT    EPW 9518   6.166   2.940   6.354  0.3697 -0.4534 -0.1036
 2200WAT      O 9519   1.336   0.302   4.857  1.0848  0.5108  0.0949
 2200WAT     H1 9520   1.374   0.367   4.902  1.4048  0.2262  0.2405
 2200WAT     H2 9521   1.342   0.234   4.911 -0.5212  0.6726  0.5562
 2200WAT    EPW 9522   1.342   0.302   4.872  0.8948  0.4927  0.1846
 2201WAT      O 9523   5.457   2.054   0.379  0.6880 -0.1761  0.8992
 2201WAT     H1 9524   5.448   1.967   0.381 -0.0134 -0.1092  1.1128
 2201WAT     H2 9525   5.376   2.083   0.395  0.7585  0.5177  0.0789
 2201WAT    EPW 9526   5.443   2.045   0.381  0.5948 -0.0637  0.8096
 2202WAT      O 9527   1.462   6.044   5.436  0.1106 -0.0958 -0.6203
 2202WAT     H1 9528   1.439   6.128   5.448  1.2311  0.2628 -0.8459
 2202WAT     H2 9529   1.435   6.028   5.355 -0.7487 -0.1936 -0.3320
 2202WAT    EPW 9530   1.454   6.054   5.426  0.1492 -0.0572 -0.6110
 2203WAT      O 9531   5.113   6.844   1.215 -0.0227  0.0221  0.1631
 2203WAT     H1 9532   5.196   6.834   1.240  0.4351  2.7391  0.0363
 2203WAT     H2 9533   5.073   6.774   1.248  2.1980 -1.0798  0.7123
 2203WAT    EPW 9534   5.119   6.832   1.223  0.3729  0.2607  0.2255
 2204WAT      O 9535   3.419   2.440   6.726 -0.3174 -0.3569  0.2666
 2204WAT     H1 9536   3.423   2.521   6.695 -0.0923 -1.3211 -2.5259
 2204WAT     H2 9537   3.336   2.416   6.711 -0.8547 -0.1541  2.6109
 2204WAT    EPW 9538   3.408   2.448   6.719 -0.3635 -0.4694  0.2004
 2205WAT      O 9539   5.756   7.212   6.089 -0.4305  0.6037 -0.0271
 2205WAT     H1 9540   5.776   7.172   6.163  1.9770  2.5075  0.4729
 2205WAT     H2 9541   5.774   7.152   6.028  1.3413  0.2552  0.7707
 2205WAT    EPW 9542   5.762   7.197   6.091  0.1869  0.8334  0.1646
 2206WAT      O 9543   0.739   3.384   7.548  0.3627 -0.8372  0.7445
 2206WAT     H1 9544   0.732   3.312   7.597  1.4011 -0.4799  1.4504
 2206WAT     H2 9545   0.822   3.409   7.559  0.6572 -0.7538 -1.2411
 2206WAT    EPW 9546   0.750   3.377   7.557  0.5596 -0.7721  0.5555
 2207WAT      O 9547   7.181   1.357   5.558 -0.1529  0.0502 -0.0801
 2207WAT     H1 9548   7.155   1.332   5.638 -0.6844 -1.8388 -0.7794
 2207WAT     H2 9549   7.118   1.327   5.506  1.5613 -1.3701 -1.4772
 2207WAT    EPW 9550   7.168   1.349   5.562  0.0218 -0.4387 -0.3897
 2208WAT      O 9551   4.890   7.167   4.928  0.5409  0.6380  0.8105
 2208WAT     H1 9552   4.822   7.121   4.957  0.5232 -0.8471 -1.3229
 2208WAT     H2 9553   4.957   7.139   4.977 -0.0586  0.8785  1.7962
 2208WAT    EPW 9554   4.890   7.157   4.939  0.4497  0.4542  0.6409
 2209WAT      O 9555   0.113   6.445   4.374 -0.1101 -0.1334  0.0819
 2209WAT     H1 9556   0.086   6.472   4.453  0.4129 -0.2041  0.2860
 2209WAT     H2 9557   0.116   6.358   4.383 -0.0086 -0.1376 -0.0043
 2209WAT    EPW 9558   0.109   6.436   4.387 -0.0179 -0.1445  0.0993
 2210WAT      O 9559   6.415   3.515   5.933  0.0874 -0.2679 -0.4465
 2210WAT     H1 9560   6.358   3.497   5.997  1.5983 -0.4039  0.9356
 2210WAT     H2 9561   6.425   3.438   5.893  1.2035 -0.9158  0.9684
 2210WAT    EPW 9562   6.408   3.501   5.937  0.4755 -0.3837 -0.0333
 2211WAT      O 9563   6.390   3.027   4.839 -0.2508  0.6881  0.4095
 2211WAT     H1 9564   6.409   2.954   4.884 -0.2031  0.0567 -0.5960
 2211WAT     H2 9565   6.434   3.089   4.882  1.4570 -0.2045  0.0848
 2211WAT    EPW 9566   6.400   3.025   4.852  0.0085  0.4630  0.2130
 2212WAT      O 9567   5.842   2.097   2.609  0.0742  0.0743 -0.0086
 2212WAT     H1 9568   5.917   2.056   2.626 -0.3697 -0.6885  0.1537
 2212WAT     H2 9569   5.787   2.066   2.669 -1.2966 -2.0559 -2.1546
 2212WAT    EPW 9570   5.845   2.086   2.620 -0.1938 -0.3531 -0.3016
 2213WAT      O 9571   6.652   1.637   6.943 -0.0097  0.4436 -0.3249
 2213WAT     H1 9572   6.622   1.662   7.021 -0.5127  0.3317 -0.4788
 2213WAT     H2 9573   6.728   1.599   6.962  0.2287  1.0752  0.0311
 2213WAT    EPW 9574   6.659   1.635   6.958 -0.0488  0.5204 -0.2951
 2214WAT      O 9575   5.526   2.091   5.441 -0.6619  0.4101 -0.0523
 2214WAT     H1 9576   5.472   2.069   5.376  1.0770  0.5511 -1.6215
 2214WAT     H2 9577   5.546   2.014   5.477 -2.0028  0.3690  0.6871
 2214WAT    EPW 9578   5.521   2.076   5.437 -0.6031  0.4248 -0.1749
 2215WAT      O 9579   7.273   4.031   0.135 -0.4419  0.4325  0.2744
 2215WAT     H1 9580   7.250   4.077   0.206 -0.9580 -1.0118  1.0774
 2215WAT     H2 9581   7.204   3.980   0.120  0.2760 -0.4027 -0.3119
 2215WAT    EPW 9582   7.260   4.030   0.143 -0.4121  0.0958  0.3064
 2216WAT      O 9583   0.956   5.989   5.315 -0.2305  0.1139  0.0471
 2216WAT     H1 9584   0.869   5.990   5.320 -0.3570  1.0773 -1.5714
 2216WAT     H2 9585   0.978   5.917   5.359 -1.9091 -0.6351 -0.2395
 2216WAT    EPW 9586   0.946   5.979   5.322 -0.4971  0.1456 -0.2343
 2217WAT      O 9587   5.535   3.498   6.764  0.2775  0.2047 -0.1984
 2217WAT     H1 9588   5.531   3.474   6.848 -0.6705 -0.2542 -0.3632
 2217WAT     H2 9589   5.604   3.454   6.734  0.2563 -0.0995  0.1862
 2217WAT    EPW 9590   5.545   3.488   6.772  0.1343  0.0920 -0.1660
 2218WAT      O 9591   0.853   0.827   6.131 -0.0246 -0.1975 -0.1743
 2218WAT     H1 9592   0.826   0.897   6.175  1.1275 -0.2226  0.6280
 2218WAT     H2 9593   0.835   0.761   6.185  0.9624 -0.2735  0.0837
 2218WAT    EPW 9594   0.846   0.828   6.145  0.2914 -0.2124 -0.0177
 2219WAT      O 9595   7.583   6.868   7.226  0.0207  0.2168  0.3667
 2219WAT     H1 9596   7.614   6.910   7.296 -0.4073 -0.4160  0.9432
 2219WAT     H2 9597   7.499   6.892   7.224 -0.4140 -1.1170  1.1162
 2219WAT    EPW 9598   7.575   6.878   7.236 -0.1068 -0.0737  0.5626
 2220WAT      O 9599   5.292   5.806   4.075 -0.1275  0.1129  0.1382
 2220WAT     H1 9600   5.306   5.751   4.142  0.6260  0.1229 -0.0025
 2220WAT     H2 9601   5.356   5.864   4.082 -1.5940  1.7161  0.9957
 2220WAT    EPW 9602   5.303   5.806   4.086 -0.2328  0.3512  0.2441
 2221WAT      O 9603   0.492   2.414   5.792  0.0904  0.3519 -0.8483
 2221WAT     H1 9604   0.517   2.464   5.860 -2.1533  1.1381 -0.5195
 2221WAT     H2 9605   0.490   2.470   5.725  0.7708 -0.0798 -1.2475
 2221WAT    EPW 9606   0.496   2.430   5.792 -0.1406  0.4043 -0.8587
 2222WAT      O 9607   1.581   7.423   4.266 -0.3857  0.0363 -0.0492
 2222WAT     H1 9608   1.574   7.505   4.296 -2.8211 -0.0506 -0.1992
 2222WAT     H2 9609   1.651   7.427   4.214  1.0344  1.3682  1.8024
 2222WAT    EPW 9610   1.591   7.436   4.263 -0.5357  0.2202  0.2022
 2223WAT      O 9611   7.058   0.603   0.088 -0.0357 -0.0686  0.0660
 2223WAT     H1 9612   7.033   0.562   0.015  0.2005  0.3970 -0.2784
 2223WAT     H2 9613   7.132   0.562   0.111  0.6273  0.6726 -0.7151
 2223WAT    EPW 9614   7.065   0.591   0.081  0.0971  0.1097 -0.1002
 2224WAT      O 9615   0.173   7.647   5.899  0.0296 -0.5245  0.5734
 2224WAT     H1 9616   0.116   7.592   5.935 -0.0289 -0.6560  0.2859
 2224WAT     H2 9617   0.158   7.639   5.813 -0.0257 -0.0109  0.5319
 2224WAT    EPW 9618   0.162   7.638   5.892  0.0128 -0.4681  0.5248
 2225WAT      O 9619   1.116   4.382   5.716  0.2094  0.2863  0.5292
 2225WAT     H1 9620   1.050   4.369   5.661  0.4534  1.6094 -0.1217
 2225WAT     H2 9621   1.094   4.455   5.758  0.6235 -0.0179  1.3005
 2225WAT    EPW 9622   1.103   4.391   5.714  0.3066  0.4368  0.5470
 2226WAT      O 9623   6.032   3.569   7.717 -0.7174  0.1071 -0.2782
 2226WAT     H1 9624   6.027   3.599   7.636 -1.6365  1.6903  0.3185
 2226WAT     H2 9625   6.026   3.483   7.708 -2.3723  0.3282 -1.7805
 2226WAT    EPW 9626   6.031   3.561   7.704 -1.0976  0.3736 -0.4119
 2227WAT      O 9627   5.420   7.287   0.003  0.3376  0.1054  0.1532
 2227WAT     H1 9628   5.471   7.219  -0.018 -0.0833 -0.5272  1.1571
 2227WAT     H2 9629   5.432   7.297   0.088 -0.2096  0.8095  0.1598
 2227WAT    EPW 9630   5.430   7.279   0.012  0.1946  0.1160  0.3025
 2228WAT      O 9631   6.019   1.324   2.249 -0.4242  0.4176  0.0864
 2228WAT     H1 9632   6.021   1.288   2.328 -2.1984  1.4815  0.6852
 2228WAT     H2 9633   6.019   1.410   2.265 -1.8351  0.6656 -0.9870
 2228WAT    EPW 9634   6.019   1.332   2.263 -0.8947  0.6114  0.0163
 2229WAT      O 9635   6.080   3.019   0.208 -0.6848  0.0141  0.3858
 2229WAT     H1 9636   6.096   2.956   0.150  2.6648  0.8430  0.2014
 2229WAT     H2 9637   6.131   2.998   0.276  1.2048  2.8013  0.0028
 2229WAT    EPW 9638   6.089   3.007   0.209  0.0891  0.5483  0.3020
 2230WAT      O 9639   4.445   0.700   4.701  0.4480 -0.1465 -0.1516
 2230WAT     H1 9640   4.493   0.659   4.641 -0.4855 -0.3392 -0.8088
 2230WAT     H2 9641   4.502   0.749   4.744  0.9633  1.2304 -2.2360
 2230WAT    EPW 9642   4.460   0.701   4.698  0.3862  0.0285 -0.5566
 2231WAT      O 9643   7.162   0.522   7.312  0.0135 -0.5049  0.5389
 2231WAT     H1 9644   7.200   0.444   7.322 -0.2627 -0.9947 -1.6840
 2231WAT     H2 9645   7.077   0.504   7.321 -0.0267 -0.3787  0.4010
 2231WAT    EPW 9646   7.155   0.507   7.315 -0.0332 -0.5586  0.1902
 2232WAT      O 9647   7.302   1.124   0.015 -0.3161  0.1230  0.1314
 2232WAT     H1 9648   7.343   1.048  -0.000  1.8880  0.8407  1.9559
 2232WAT     H2 9649   7.343   1.180  -0.037 -1.7337  0.1896 -0.9751
 2232WAT    EPW 9650   7.314   1.121   0.005 -0.1999  0.2388  0.2375
 2233WAT      O 9651   5.668   6.104   2.087  0.6753  0.2505  0.1835
 2233WAT     H1 9652   5.596   6.056   2.074 -0.6399  1.6275  1.8946
 2233WAT     H2 9653   5.642   6.166   2.142  2.2148  3.1795 -2.0861
 2233WAT    EPW 9654   5.654   6.106   2.093  0.7084  0.8866  0.1010
 2234WAT      O 9655   2.175   3.046   0.260  0.0406  1.0249  0.3409
 2234WAT     H1 9656   2.194   3.125   0.229  0.6701  0.6473 -0.2713
 2234WAT     H2 9657   2.253   3.016   0.287 -0.1488  0.5159  0.3275
 2234WAT    EPW 9658   2.190   3.053   0.260  0.1056  0.8939  0.2485
 2235WAT      O 9659   2.288   1.513   3.805  0.0188  0.0481  0.4370
 2235WAT     H1 9660   2.315   1.537   3.726 -0.3499 -0.2214  0.2278
 2235WAT     H2 9661   2.237   1.443   3.790 -2.3700  1.6160  0.5942
 2235WAT    EPW 9662   2.284   1.506   3.791 -0.3885  0.2399  0.4293
 2236WAT      O 9663   7.680   6.764   0.028 -0.1420  0.1185  0.5470
 2236WAT     H1 9664   7.608   6.773   0.077  0.4602 -0.6800  1.6335
 2236WAT     H2 9665   7.743   6.800   0.078  0.1611  1.1929 -0.5632
 2236WAT    EPW 9666   7.679   6.771   0.043 -0.0083  0.1592  0.5435
 2237WAT      O 9667   2.767   0.649   7.548  0.2868 -0.0465 -0.1010
 2237WAT     H1 9668   2.766   0.657   7.635 -0.8311 -0.5268 -0.0559
 2237WAT     H2 9669   2.851   0.658   7.528  0.3579  2.1488  0.8310
 2237WAT    EPW 9670   2.779   0.652   7.558  0.1322  0.2068  0.0434
 2238WAT      O 9671   4.979   1.674   5.521  0.2299 -0.5123  0.2012
 2238WAT     H1 9672   4.946   1.716   5.453 -0.6592 -0.0328  0.9031
 2238WAT     H2 9673   4.988   1.592   5.493  1.8312  0.0745 -1.1303
 2238WAT    EPW 9674   4.975   1.668   5.507  0.3351 -0.3548  0.1082
 2239WAT      O 9675   1.005   3.849   7.528 -0.1403  0.9040 -0.5978
 2239WAT     H1 9676   1.054   3.878   7.594 -1.1287 -0.9999  1.0921
 2239WAT     H2 9677   0.984   3.921   7.484  1.3483  2.1235  0.5915
 2239WAT    EPW 9678   1.009   3.864   7.531 -0.0664  0.8029 -0.1725
 2240WAT      O 9679   5.241   6.831   2.436  0.7922 -0.2104  0.0254
 2240WAT     H1 9680   5.216   6.810   2.355  0.7266 -0.3783  0.0894
 2240WAT     H2 9681   5.247   6.918   2.434 -2.1858  0.1328  0.6795
 2240WAT    EPW 9682   5.238   6.841   2.424  0.3426 -0.1845  0.1315
 2241WAT      O 9683   4.761   1.740   6.056 -1.0070  0.2319 -0.2805
 2241WAT     H1 9684   4.791   1.726   6.137 -0.0393  0.5453 -0.5698
 2241WAT     H2 9685   4.702   1.803   6.066  0.8939  2.0966 -0.1016
 2241WAT    EPW 9686   4.757   1.748   6.069 -0.5832  0.5536 -0.2968
 2242WAT      O 9687   4.103   1.839   1.756  0.1122 -0.1159  0.3340
 2242WAT     H1 9688   4.055   1.893   1.805  0.3991 -0.3177  0.8459
 2242WAT     H2 9689   4.180   1.879   1.752  0.3186 -0.4803  0.6956
 2242WAT    EPW 9690   4.107   1.853   1.763  0.1851 -0.1996  0.4630
 2243WAT      O 9691   1.119   0.013   6.395  0.3289  0.0330  0.3781
 2243WAT     H1 9692   1.170   0.084   6.396  1.1082 -0.5266  1.2303
 2243WAT     H2 9693   1.085   0.014   6.314  0.1135  1.5045  0.4482
 2243WAT    EPW 9694   1.121   0.024   6.383  0.4122  0.1677  0.5144
 2244WAT      O 9695   5.256   3.557   7.457  0.0068 -0.0218 -0.0989
 2244WAT     H1 9696   5.298   3.605   7.398  2.3271 -0.9891  0.6275
 2244WAT     H2 9697   5.217   3.616   7.507 -1.5006  0.8380 -2.1668
 2244WAT    EPW 9698   5.257   3.572   7.456  0.1269 -0.0377 -0.2971
 2245WAT      O 9699   1.522   6.922   2.988  0.6451 -0.2776 -0.0701
 2245WAT     H1 9700   1.504   6.918   3.073 -1.7448 -1.4811 -0.5514
 2245WAT     H2 9701   1.497   7.002   2.965  1.7343  0.2201  0.3992
 2245WAT    EPW 9702   1.516   6.933   2.997  0.4529 -0.3818 -0.0719
 2246WAT      O 9703   7.592   4.499   7.685 -0.0121 -0.2319  0.0273
 2246WAT     H1 9704   7.627   4.487   7.606 -1.0028 -0.9998 -0.3081
 2246WAT     H2 9705   7.624   4.433   7.732  1.2213  0.6780  0.5165
 2246WAT    EPW 9706   7.602   4.487   7.680  0.0238 -0.2110  0.0500
 2247WAT      O 9707   4.558   7.330   6.281  0.0384 -0.1378  0.0302
 2247WAT     H1 9708   4.579   7.373   6.355 -0.0244  1.7310 -0.9676
 2247WAT     H2 9709   4.487   7.371   6.253 -0.4094 -1.3522 -0.6845
 2247WAT    EPW 9710   4.551   7.343   6.288 -0.0370 -0.0412 -0.2228
 2248WAT      O 9711   5.758   3.992   2.673 -0.2356 -0.2448  0.0375
 2248WAT     H1 9712   5.695   4.045   2.701  0.9797  0.0912  2.3762
 2248WAT     H2 9713   5.716   3.935   2.622 -2.3337  0.2788  1.0554
 2248WAT    EPW 9714   5.743   3.992   2.669 -0.3660 -0.1178  0.5333
 2249WAT      O 9715   6.355   1.772   3.409 -0.0778 -0.6145  0.2806
 2249WAT     H1 9716   6.351   1.858   3.391  0.3780 -0.9922 -1.9275
 2249WAT     H2 9717   6.278   1.742   3.384 -0.5238 -0.7878  1.7534
 2249WAT    EPW 9718   6.343   1.781   3.403 -0.0763 -0.6959  0.1720
 2250WAT      O 9719   4.842   2.368   1.992 -0.0558 -0.0910 -0.0818
 2250WAT     H1 9720   4.762   2.351   2.023  1.0560 -2.2933  1.8490
 2250WAT     H2 9721   4.865   2.441   2.032 -0.8311  0.1903 -0.1406
 2250WAT    EPW 9722   4.834   2.376   2.002 -0.0061 -0.3747  0.1947
 2251WAT      O 9723   2.677   3.347   6.891 -0.2435  0.2074  0.8376
 2251WAT     H1 9724   2.708   3.371   6.969 -1.8743  0.4499  1.4497
 2251WAT     H2 9725   2.655   3.263   6.902 -0.9536  0.3842  0.8083
 2251WAT    EPW 9726   2.678   3.338   6.904 -0.5893  0.2694  0.9237
 2252WAT      O 9727   2.902   6.820   2.148  0.3154  0.3505  0.0450
 2252WAT     H1 9728   2.908   6.833   2.062  0.1546  0.2051  0.0110
 2252WAT     H2 9729   2.969   6.866   2.181 -0.0200  0.9471 -0.0998
 2252WAT    EPW 9730   2.913   6.829   2.140  0.2421  0.4171  0.0186
 2253WAT      O 9731   5.701   5.598   6.947  0.7253 -0.2510  0.0190
 2253WAT     H1 9732   5.751   5.621   6.879  1.5461 -1.1679  0.2776
 2253WAT     H2 9733   5.736   5.643   7.013 -1.0036  1.8002 -0.3822
 2253WAT    EPW 9734   5.714   5.608   6.947  0.5911 -0.0835 -0.0021
 2254WAT      O 9735   6.503   6.585   6.732  0.3509  0.3957 -0.7198
 2254WAT     H1 9736   6.536   6.508   6.709 -2.2728 -2.1425  2.9089
 2254WAT     H2 9737   6.520   6.590   6.818 -3.8883  1.2037  0.3251
 2254WAT    EPW 9738   6.510   6.575   6.741 -0.6629  0.1401 -0.0294
 2255WAT      O 9739   4.720   5.460   5.956  0.0871 -0.7019  0.0323
 2255WAT     H1 9740   4.782   5.517   5.976 -1.4480  0.5859  1.5273
 2255WAT     H2 9741   4.692   5.486   5.878  0.6660 -0.5832 -0.1374
 2255WAT    EPW 9742   4.725   5.472   5.948 -0.0542 -0.4942  0.2281
 2256WAT      O 9743   0.510   0.771   6.806 -0.1132  0.2092 -0.4902
 2256WAT     H1 9744   0.535   0.786   6.723 -0.2707  0.5425 -0.4759
 2256WAT     H2 9745   0.425   0.756   6.799 -0.1864  0.5534 -0.3474
 2256WAT    EPW 9746   0.501   0.771   6.792 -0.1473  0.3093 -0.4670
 2257WAT      O 9747   4.578   4.156   1.735  0.4246  0.2215  0.4040
 2257WAT     H1 9748   4.512   4.213   1.728  0.7271  0.7712  1.6986
 2257WAT     H2 9749   4.541   4.079   1.720 -0.4274  0.5711  0.6731
 2257WAT    EPW 9750   4.563   4.153   1.732  0.3434  0.3543  0.6350
 2258WAT      O 9751   7.523   4.169   6.502 -0.4410 -0.3069 -0.2076
 2258WAT     H1 9752   7.460   4.116   6.533  0.0765 -0.1401  1.2236
 2258WAT     H2 9753   7.479   4.224   6.451 -1.4320 -0.3611  0.5390
 2258WAT    EPW 9754   7.507   4.169   6.499 -0.5109 -0.2903  0.1141
 2259WAT      O 9755   2.932   0.125   1.927 -0.3570 -0.3668 -0.4639
 2259WAT     H1 9756   2.925   0.073   1.997 -2.2188  1.1852  0.6058
 2259WAT     H2 9757   2.850   0.147   1.909  0.0649 -0.6410 -3.1525
 2259WAT    EPW 9758   2.919   0.121   1.935 -0.5697 -0.1780 -0.7031
 2260WAT      O 9759   4.909   4.432   6.254  0.2431 -0.0402  0.1030
 2260WAT     H1 9760   4.905   4.421   6.341 -0.7696  1.7178  0.3361
 2260WAT     H2 9761   4.903   4.519   6.244 -2.2447 -0.2913 -1.7792
 2260WAT    EPW 9762   4.907   4.443   6.266 -0.2740  0.1824 -0.1406
 2261WAT      O 9763   5.412   1.379   3.943  0.6204 -0.3055  0.3934
 2261WAT     H1 9764   5.450   1.343   3.873  0.0122  1.8005 -1.1547
 2261WAT     H2 9765   5.327   1.377   3.923  0.6172  3.9193 -1.0434
 2261WAT    EPW 9766   5.405   1.374   3.930  0.5301  0.6297 -0.0475
 2262WAT      O 9767   2.507   0.425   2.321  0.5840 -0.2703  0.6527
 2262WAT     H1 9768   2.511   0.512   2.311 -1.5364 -0.3037 -1.1583
 2262WAT     H2 9769   2.564   0.395   2.262  0.6160 -0.1148  0.6048
 2262WAT    EPW 9770   2.516   0.433   2.311  0.2755 -0.2523  0.3781
 2263WAT      O 9771   7.254   5.603   4.964  0.0031  0.4110  0.4516
 2263WAT     H1 9772   7.327   5.568   4.998 -1.4661 -1.5274  1.7775
 2263WAT     H2 9773   7.196   5.596   5.029 -1.8301  0.3816 -1.1178
 2263WAT    EPW 9774   7.256   5.597   4.979 -0.4847  0.1203  0.4157
 2264WAT      O 9775   5.886   2.624   6.256 -0.0496  0.0781  0.2222
 2264WAT     H1 9776   5.942   2.591   6.315 -1.7494 -1.4088  1.0954
 2264WAT     H2 9777   5.933   2.626   6.182  1.1159 -1.2317  0.8829
 2264WAT    EPW 9778   5.901   2.619   6.254 -0.1285 -0.3350  0.4488
 2265WAT      O 9779   1.570   5.099   5.815 -0.2410 -0.3716  0.5483
 2265WAT     H1 9780   1.540   5.174   5.781 -1.5621 -0.7830  0.7888
 2265WAT     H2 9781   1.642   5.084   5.768 -0.5798  0.4534 -0.2779
 2265WAT    EPW 9782   1.576   5.108   5.803 -0.4862 -0.3105  0.4618
 2266WAT      O 9783   7.073   6.690   4.243 -0.2046 -0.5007 -0.1092
 2266WAT     H1 9784   6.999   6.658   4.209 -0.4991  0.0947 -0.0393
 2266WAT     H2 9785   7.051   6.707   4.326 -0.3010  0.6366 -0.3502
 2266WAT    EPW 9786   7.059   6.687   4.250 -0.2623 -0.2447 -0.1345
 2267WAT      O 9787   7.594   5.864   0.486 -0.6428 -0.3716  0.3819
 2267WAT     H1 9788   7.534   5.830   0.539 -0.7081  0.2601  0.7141
 2267WAT     H2 9789   7.594   5.809   0.418 -1.6774 -0.3094  0.3267
 2267WAT    EPW 9790   7.585   5.851   0.484 -0.8053 -0.2691  0.4228
 2268WAT      O 9791   3.149   0.422   6.269 -0.2336  0.1768  0.3472
 2268WAT     H1 9792   3.159   0.416   6.183  0.7955  0.0462  0.4663
 2268WAT     H2 9793   3.101   0.352   6.290 -2.4693  1.3881 -0.3893
 2268WAT    EPW 9794   3.144   0.411   6.259 -0.4118  0.3364  0.2560
 2269WAT      O 9795   0.632   6.876   7.031 -0.1913  0.1075 -0.2724
 2269WAT     H1 9796   0.607   6.800   7.067 -0.0934  0.3000  0.2159
 2269WAT     H2 9797   0.573   6.889   6.968 -1.0884  0.3371  0.5752
 2269WAT    EPW 9798   0.619   6.867   7.027 -0.3093  0.1699 -0.0750
 2270WAT      O 9799   5.295   3.350   6.691 -0.5084  0.2265  0.3231
 2270WAT     H1 9800   5.359   3.387   6.738  0.6280 -1.0371 -0.1350
 2270WAT     H2 9801   5.316   3.265   6.693 -0.6133  0.0893 -2.1386
 2270WAT    EPW 9802   5.308   3.343   6.698 -0.3560  0.0195 -0.1082
 2271WAT      O 9803   2.165   2.653   7.833  0.3562  0.3051  0.1851
 2271WAT     H1 9804   2.160   2.621   7.914  0.4992  0.7267  0.3617
 2271WAT     H2 9805   2.087   2.634   7.799  1.0654 -1.9406 -0.3731
 2271WAT    EPW 9806   2.153   2.646   7.840  0.4821  0.0356  0.1287
 2272WAT      O 9807   7.128   5.867   3.944  0.1845 -0.0739 -0.0322
 2272WAT     H1 9808   7.060   5.879   3.891 -0.6761 -0.1517  1.0186
 2272WAT     H2 9809   7.136   5.780   3.947 -1.5476 -0.2386  2.0745
 2272WAT    EPW 9810   7.119   5.856   3.936 -0.1985 -0.1097  0.4342
 2273WAT      O 9811   5.695   6.777   5.252  0.5141  0.0103 -0.3385
 2273WAT     H1 9812   5.770   6.753   5.289  0.0611 -1.1972 -0.1431
 2273WAT     H2 9813   5.652   6.702   5.243 -0.5244  0.6340 -0.7843
 2273WAT    EPW 9814   5.700   6.762   5.256  0.2938 -0.0759 -0.3755
 2274WAT      O 9815   3.368   1.064   6.554  0.3055 -0.8451 -0.9500
 2274WAT     H1 9816   3.449   1.038   6.575  1.5800  1.5380 -2.4932
 2274WAT     H2 9817   3.318   1.001   6.586  2.6544 -1.7577  1.2992
 2274WAT    EPW 9818   3.373   1.051   6.562  0.8408 -0.6279 -0.8457
 2275WAT      O 9819   5.048   0.870   7.594 -0.5305 -0.1443  0.2424
 2275WAT     H1 9820   5.131   0.845   7.586 -0.5613  0.0615 -0.9156
 2275WAT     H2 9821   5.024   0.838   7.672  0.9766  0.8438  1.1503
 2275WAT    EPW 9822   5.057   0.862   7.604 -0.3125  0.0320  0.2055
 2276WAT      O 9823   4.103   0.532   5.556  0.0409  0.1506  0.6127
 2276WAT     H1 9824   4.116   0.605   5.511  0.4128  1.5560  2.8544
 2276WAT     H2 9825   4.183   0.496   5.562  0.3187  0.8880  1.5862
 2276WAT    EPW 9826   4.117   0.537   5.550  0.1368  0.4671  1.0877
 2277WAT      O 9827   7.105   7.581   7.208 -0.1363 -0.1675 -0.4409
 2277WAT     H1 9828   7.141   7.502   7.205 -1.1877 -0.6529 -0.6258
 2277WAT     H2 9829   7.157   7.624   7.264  1.0733 -0.6405 -1.1520
 2277WAT    EPW 9830   7.118   7.576   7.216 -0.1129 -0.3091 -0.5733
 2278WAT      O 9831   5.114   6.528   7.226 -0.7452 -0.4267 -0.3641
 2278WAT     H1 9832   5.029   6.546   7.237 -1.0382 -1.0524 -1.4131
 2278WAT     H2 9833   5.153   6.605   7.235 -1.7013  0.3583 -2.4156
 2278WAT    EPW 9834   5.107   6.542   7.229 -0.9297 -0.4032 -0.8221
 2279WAT      O 9835   4.947   6.394   3.938  0.6947 -0.2507  0.3932
 2279WAT     H1 9836   4.924   6.313   3.964 -0.5180  0.5279  1.8834
 2279WAT     H2 9837   5.032   6.386   3.920  1.0498 -1.4661  2.2941
 2279WAT    EPW 9838   4.956   6.381   3.939  0.5680 -0.3153  0.8941
 2280WAT      O 9839   6.696   7.066   0.314 -0.1793 -0.0812 -0.2878
 2280WAT     H1 9840   6.632   7.057   0.256 -1.1352  1.0235  0.5365
 2280WAT     H2 9841   6.697   7.152   0.330  0.2442 -0.3132  1.1000
 2280WAT    EPW 9842   6.687   7.078   0.308 -0.2579  0.0477  0.0390
 2281WAT      O 9843   5.731   2.291   0.363 -0.2979  0.3721  0.2727
 2281WAT     H1 9844   5.698   2.329   0.434  0.3662  0.8833  0.3196
 2281WAT     H2 9845   5.804   2.336   0.348  1.4820 -1.9449  1.3637
 2281WAT    EPW 9846   5.737   2.303   0.371  0.0631  0.1053  0.4408
 2282WAT      O 9847   1.980   6.803   6.096 -0.3687  0.1404  0.3685
 2282WAT     H1 9848   1.936   6.870   6.061  1.3813  0.6060 -1.0701
 2282WAT     H2 9849   2.041   6.841   6.145  0.4695 -0.3866 -0.2430
 2282WAT    EPW 9850   1.982   6.819   6.098  0.0136  0.1313  0.0656
 2283WAT      O 9851   0.560   1.718   6.426 -0.5264  0.3142  0.8609
 2283WAT     H1 9852   0.477   1.704   6.401 -0.1317 -1.0909  0.2156
 2283WAT     H2 9853   0.579   1.796   6.392 -1.2170  0.1236  0.0003
 2283WAT    EPW 9854   0.550   1.727   6.417 -0.5701  0.0785  0.6384
 2284WAT      O 9855   7.285   5.099   0.210 -0.0764 -0.2798 -0.0952
 2284WAT     H1 9856   7.200   5.102   0.193 -0.7191 -2.9298  2.0027
 2284WAT     H2 9857   7.293   5.141   0.285  0.2891 -0.8268  0.1839
 2284WAT    EPW 9858   7.274   5.105   0.218 -0.1174 -0.7521  0.2559
 2285WAT      O 9859   3.753   3.660   1.083  0.2687 -0.2486  0.2538
 2285WAT     H1 9860   3.799   3.677   1.155  0.8914 -0.1034 -0.1702
 2285WAT     H2 9861   3.790   3.586   1.053 -1.4728 -1.6385  1.3051
 2285WAT    EPW 9862   3.766   3.651   1.089  0.1034 -0.4325  0.3464
 2286WAT      O 9863   1.646   2.221   4.167 -0.2945  0.4520 -0.2247
 2286WAT     H1 9864   1.668   2.272   4.101  0.5779  0.7385  0.2712
 2286WAT     H2 9865   1.690   2.147   4.151  1.0682  1.0045  0.7361
 2286WAT    EPW 9866   1.656   2.217   4.155  0.0356  0.5759 -0.0095
 2287WAT      O 9867   2.043   5.520   7.644 -0.7124 -0.0018  0.5776
 2287WAT     H1 9868   2.061   5.435   7.638  0.9344  0.2913  1.0026
 2287WAT     H2 9869   2.088   5.546   7.714  0.0597  1.5013 -0.4171
 2287WAT    EPW 9870   2.052   5.511   7.653 -0.3551  0.2635  0.4934
 2288WAT      O 9871   4.976   3.284   1.087  0.0046 -0.5917  0.2862
 2288WAT     H1 9872   5.018   3.284   1.010 -1.1972 -0.9409 -0.3906
 2288WAT     H2 9873   4.948   3.366   1.095 -2.7288 -1.2535 -1.3122
 2288WAT    EPW 9874   4.978   3.296   1.076 -0.5767 -0.7411 -0.0499
 2289WAT      O 9875   0.831   4.297   6.059 -0.0531 -0.1345  0.2674
 2289WAT     H1 9876   0.805   4.229   6.011 -0.8985  0.5791 -0.3266
 2289WAT     H2 9877   0.761   4.348   6.062  0.9545  1.3671 -0.5023
 2289WAT    EPW 9878   0.817   4.295   6.052 -0.0291  0.1928  0.0660
 2290WAT      O 9879   5.032   0.115   3.321  0.0387 -0.0352  0.0067
 2290WAT     H1 9880   5.041   0.194   3.357  0.3088  1.1921 -2.5448
 2290WAT     H2 9881   5.097   0.068   3.357 -1.0839  0.3396  2.7458
 2290WAT    EPW 9882   5.043   0.120   3.331 -0.0873  0.2014  0.0344
 2291WAT      O 9883   2.974   6.395   3.636 -0.0775  0.3548 -0.2578
 2291WAT     H1 9884   2.988   6.456   3.575 -2.0932  1.3078  0.1481
 2291WAT     H2 9885   2.887   6.391   3.641  0.0074  0.3419  2.5565
 2291WAT    EPW 9886   2.963   6.403   3.628 -0.3627  0.4937  0.2179
 2292WAT      O 9887   3.892   0.964   6.452 -0.2458  0.0446 -0.5142
 2292WAT     H1 9888   3.936   0.899   6.415 -1.1214 -0.1971 -1.1513
 2292WAT     H2 9889   3.954   1.022   6.473  0.5478 -0.9746  0.0654
 2292WAT    EPW 9890   3.908   0.963   6.450 -0.2579 -0.1417 -0.5227
 2293WAT      O 9891   3.637   6.997   1.145 -0.1821  0.1557  0.3609
 2293WAT     H1 9892   3.639   7.012   1.231  0.4177 -0.4810  0.4653
 2293WAT     H2 9893   3.566   6.948   1.135  0.3230 -0.6753  0.6641
 2293WAT    EPW 9894   3.627   6.992   1.157 -0.0188 -0.0611  0.4211
 2294WAT      O 9895   1.382   3.341   4.102  0.7997 -0.1190  0.2002
 2294WAT     H1 9896   1.313   3.330   4.154  0.2403  2.4675  0.1176
 2294WAT     H2 9897   1.438   3.279   4.129 -0.8828 -1.2067  1.3714
 2294WAT    EPW 9898   1.380   3.330   4.114  0.4686  0.1024  0.3610
 2295WAT      O 9899   7.482   5.974   4.658 -0.2046 -0.1610 -0.2552
 2295WAT     H1 9900   7.556   5.946   4.696 -1.1346 -1.6026  0.5465
 2295WAT     H2 9901   7.424   5.912   4.676 -1.5324  0.7357 -1.2434
 2295WAT    EPW 9902   7.485   5.961   4.666 -0.5381 -0.2415 -0.2828
 2296WAT      O 9903   0.033   1.730   7.209 -0.3497  0.0141  0.6543
 2296WAT     H1 9904  -0.007   1.799   7.174 -1.3199 -0.3879  0.9493
 2296WAT     H2 9905   0.112   1.732   7.171 -0.9498  0.2828 -0.6531
 2296WAT    EPW 9906   0.039   1.741   7.198 -0.5817 -0.0056  0.5048
 2297WAT      O 9907   6.162   7.535   2.778 -0.2601 -0.1709  0.6467
 2297WAT     H1 9908   6.128   7.608   2.812  0.0950 -0.0838  0.8139
 2297WAT     H2 9909   6.170   7.554   2.693  1.6916  0.7311  0.9706
 2297WAT    EPW 9910   6.158   7.549   2.771  0.0807 -0.0248  0.7192
 2298WAT      O 9911   5.267   2.159   5.830  0.1158 -0.1398 -0.0815
 2298WAT     H1 9912   5.350   2.151   5.806 -0.3157 -2.1370 -1.1262
 2298WAT     H2 9913   5.251   2.245   5.820  1.6498  0.0637 -1.1528
 2298WAT    EPW 9914   5.277   2.171   5.825  0.2786 -0.4048 -0.3941
 2299WAT      O 9915   3.176   3.927   6.690 -0.0570 -0.3842 -0.7355
 2299WAT     H1 9916   3.168   4.000   6.737  1.8026 -0.6277  0.0478
 2299WAT     H2 9917   3.099   3.919   6.651 -0.7771  1.2377  0.2613
 2299WAT    EPW 9918   3.164   3.936   6.692  0.1113 -0.1806 -0.4725
 2300WAT      O 9919   5.620   1.177   5.419 -0.0017 -0.2171  0.4793
 2300WAT     H1 9920   5.680   1.138   5.469 -1.4582 -1.7309  1.1567
 2300WAT     H2 9921   5.631   1.262   5.436  2.5676 -0.3107 -0.2063
 2300WAT    EPW 9922   5.631   1.184   5.429  0.1627 -0.4545  0.4781
 2301WAT      O 9923   2.981   3.356   1.652  0.7491 -0.1255 -0.5576
 2301WAT     H1 9924   3.027   3.428   1.670  1.0031 -0.1278 -1.1570
 2301WAT     H2 9925   2.964   3.322   1.730  2.2160 -0.3948 -0.3319
 2301WAT    EPW 9926   2.985   3.362   1.666  1.0033 -0.1657 -0.6128
 2302WAT      O 9927   1.334   2.098   4.871  0.4858 -0.2020  0.0122
 2302WAT     H1 9928   1.415   2.104   4.904  0.4410 -1.0668  0.3080
 2302WAT     H2 9929   1.336   2.024   4.825 -1.4556 -3.1866  4.0456
 2302WAT    EPW 9930   1.346   2.088   4.869  0.1924 -0.7706  0.6517
 2303WAT      O 9931   4.026   1.242   0.331 -0.3534  0.1370 -0.4999
 2303WAT     H1 9932   4.012   1.159   0.309  1.6462 -0.1456 -0.9653
 2303WAT     H2 9933   4.010   1.286   0.257  1.7646 -0.2758 -1.2872
 2303WAT    EPW 9934   4.022   1.236   0.317  0.2548  0.0343 -0.6849
 2304WAT      O 9935   0.589   6.998   4.324  0.2392 -0.1795  0.1227
 2304WAT     H1 9936   0.533   7.034   4.267  1.9346  1.9939 -0.3098
 2304WAT     H2 9937   0.663   7.040   4.309  1.3220 -1.0509  2.5176
 2304WAT    EPW 9938   0.591   7.009   4.313  0.6496  0.0128  0.4126
 2305WAT      O 9939   6.438   3.378   0.271 -0.2133 -0.1327 -0.2892
 2305WAT     H1 9940   6.478   3.449   0.303  0.3965 -0.1474 -0.9787
 2305WAT     H2 9941   6.356   3.405   0.259 -0.1281  0.2789  0.0214
 2305WAT    EPW 9942   6.432   3.393   0.274 -0.1106 -0.0740 -0.3452
 2306WAT      O 9943   4.397   4.841   6.189 -0.3552  0.3231  0.0299
 2306WAT     H1 9944   4.476   4.840   6.151 -0.4653 -2.2673 -0.2799
 2306WAT     H2 9945   4.414   4.866   6.271  0.4028  2.1885 -0.6289
 2306WAT    EPW 9946   4.411   4.845   6.195 -0.2595  0.2160 -0.1131
 2307WAT      O 9947   1.489   1.527   4.420 -0.1782  0.2596  0.0741
 2307WAT     H1 9948   1.456   1.482   4.353  0.7455  0.2586 -0.3902
 2307WAT     H2 9949   1.530   1.594   4.382  1.0135 -0.1554  0.5817
 2307WAT    EPW 9950   1.490   1.530   4.405  0.1343  0.1981  0.0805
 2308WAT      O 9951   7.111   2.144   5.078  0.2905  0.1239 -0.2669
 2308WAT     H1 9952   7.120   2.089   5.010  0.0505  0.9609 -0.9992
 2308WAT     H2 9953   7.061   2.208   5.045 -0.8243 -0.0213  1.0444
 2308WAT    EPW 9954   7.105   2.145   5.063  0.0904  0.2261 -0.1814
 2309WAT      O 9955   3.149   2.033   4.421  0.2248  0.6557 -0.4533
 2309WAT     H1 9956   3.170   2.091   4.483  0.9578  1.1005 -1.0984
 2309WAT     H2 9957   3.155   1.956   4.462 -0.5807  1.0048  0.3670
 2309WAT    EPW 9958   3.153   2.031   4.436  0.2141  0.7730 -0.4274
 2310WAT      O 9959   6.763   5.061   3.927 -0.3589 -0.4249  0.4452
 2310WAT     H1 9960   6.746   5.137   3.967 -0.2361  0.2589 -0.7350
 2310WAT     H2 9961   6.779   5.006   3.992  0.8817  0.8897  1.2987
 2310WAT    EPW 9962   6.763   5.064   3.942 -0.1575 -0.1297  0.3970
 2311WAT      O 9963   3.230   0.563   2.378 -0.8295  0.2065 -0.2830
 2311WAT     H1 9964   3.182   0.635   2.387  0.3900  1.0924 -0.6172
 2311WAT     H2 9965   3.289   0.585   2.318 -0.1762 -0.9335 -0.0892
 2311WAT    EPW 9966   3.232   0.577   2.371 -0.5529  0.1690 -0.3037
 2312WAT      O 9967   5.629   3.127   6.938  0.0644 -0.6966 -0.6094
 2312WAT     H1 9968   5.626   3.146   6.852  0.2462  0.3075 -0.4113
 2312WAT     H2 9969   5.621   3.206   6.976 -1.7225 -1.2744  0.3401
 2312WAT    EPW 9970   5.627   3.142   6.931 -0.1727 -0.6336 -0.4399
 2313WAT      O 9971   0.925   4.248   4.274 -0.1327 -0.0583 -0.7217
 2313WAT     H1 9972   0.914   4.334   4.261 -0.8687 -0.0678 -0.2338
 2313WAT     H2 9973   0.900   4.212   4.199 -0.4703  0.1243 -0.7007
 2313WAT    EPW 9974   0.920   4.255   4.261 -0.2913 -0.0327 -0.6465
 2314WAT      O 9975   5.402   1.198   6.556  0.5813 -0.4873  0.0581
 2314WAT     H1 9976   5.337   1.196   6.613 -0.1689 -1.1148 -0.7827
 2314WAT     H2 9977   5.396   1.277   6.521  0.3981 -0.4683  0.1330
 2314WAT    EPW 9978   5.391   1.209   6.559  0.4434 -0.5772 -0.0551
 2315WAT      O 9979   0.195   6.914   7.484 -0.1616 -0.3727 -0.1467
 2315WAT     H1 9980   0.219   6.843   7.529 -0.5083 -0.5075 -0.1627
 2315WAT     H2 9981   0.223   6.898   7.403 -2.8382 -1.9395 -0.9201
 2315WAT    EPW 9982   0.202   6.901   7.479 -0.6082 -0.6241 -0.2633
 2316WAT      O 9983   6.500   4.208   6.150  0.5618  0.0108  0.0122
 2316WAT     H1 9984   6.514   4.122   6.153  0.4950 -0.0604 -1.2803
 2316WAT     H2 9985   6.450   4.222   6.220  0.5236 -1.0070  0.2156
 2316WAT    EPW 9986   6.495   4.197   6.161  0.5463 -0.1501 -0.1487
 2317WAT      O 9987   1.026   2.499   4.135 -0.1701  0.2120 -0.1249
 2317WAT     H1 9988   1.079   2.553   4.179 -0.1975  0.2551 -0.1445
 2317WAT     H2 9989   1.031   2.424   4.180 -0.8347  0.4858  0.4416
 2317WAT    EPW 9990   1.034   2.496   4.148 -0.2723  0.2588 -0.0441
 2318WAT      O 9991   0.178   4.615   4.058  0.2778 -0.1796  0.2660
 2318WAT     H1 9992   0.095   4.604   4.034  0.1388  0.8324  0.2482
 2318WAT     H2 9993   0.203   4.685   4.013  1.3571 -0.8665 -0.2550
 2318WAT    EPW 9994   0.169   4.624   4.048  0.4167 -0.1316  0.1864
 2319WAT      O 9995   5.471   0.604   7.357  0.0557  0.0086 -0.0255
 2319WAT     H1 9996   5.422   0.594   7.285 -2.0496  0.6212  1.2429
 2319WAT     H2 9997   5.512   0.680   7.343 -1.8452  1.1548  0.1533
 2319WAT    EPW 9998   5.470   0.614   7.344 -0.5361  0.2684  0.1883
 2320WAT      O 9999   5.448   4.363   6.344 -0.1118 -0.4391  0.3217
 2320WAT     H110000   5.529   4.383   6.371  1.1360 -2.5674 -1.4755
 2320WAT     H210001   5.433   4.423   6.282  1.6948 -2.0094 -1.8316
 2320WAT    EPW10002   5.458   4.375   6.339  0.3394 -0.9855 -0.2619
 2321WAT      O10003   4.047   1.131   5.629 -0.8530  1.0198  0.3933
 2321WAT     H110004   3.991   1.176   5.579 -0.1956  0.6312 -0.7517
 2321WAT     H210005   4.020   1.048   5.620 -0.7354  0.9474  0.7019
 2321WAT    EPW10006   4.035   1.125   5.620 -0.7385  0.9517  0.2698
 2322WAT      O10007   1.068   2.961   3.560  0.0921 -0.1002  0.3882
 2322WAT     H110008   1.028   2.899   3.608 -0.5787 -0.1423 -0.2173
 2322WAT     H210009   1.101   3.014   3.621 -1.1788  0.1223  0.9175
 2322WAT    EPW10010   1.067   2.959   3.576 -0.1948 -0.0735  0.3769
 2323WAT      O10011   0.593   5.747   3.879 -0.0221  0.0703 -0.6582
 2323WAT     H110012   0.542   5.684   3.847 -1.6818  1.7163 -1.4242
 2323WAT     H210013   0.550   5.774   3.950 -0.0448  1.2076 -1.0812
 2323WAT    EPW10014   0.579   5.742   3.885 -0.2706  0.4814 -0.8338
 2324WAT      O10015   7.001   1.666   5.742 -0.2513 -0.0919  0.0579
 2324WAT     H110016   7.044   1.681   5.668  2.0496 -0.8506  1.1560
 2324WAT     H210017   6.955   1.594   5.724 -1.5942  1.0348 -1.3071
 2324WAT    EPW10018   7.001   1.657   5.728 -0.1098 -0.0375  0.0185
 2325WAT      O10019   7.612   5.424   6.076 -0.2244  0.2732  0.1026
 2325WAT     H110020   7.583   5.344   6.095 -0.3862  0.2018 -0.4265
 2325WAT     H210021   7.576   5.474   6.138 -1.9587  0.2735 -0.8387
 2325WAT    EPW10022   7.602   5.419   6.088 -0.5045  0.2627 -0.1146
 2326WAT      O10023   2.387   2.502   5.075  0.0607 -0.6157  0.1154
 2326WAT     H110024   2.411   2.525   5.155 -0.5994  0.2420  0.0788
 2326WAT     H210025   2.323   2.558   5.056  0.2007 -0.8123 -1.0032
 2326WAT    EPW10026   2.381   2.514   5.084 -0.0161 -0.5180 -0.0552
 2327WAT      O10027   5.208   7.173   2.460  0.1206  0.6567 -0.2763
 2327WAT     H110028   5.158   7.225   2.509  0.4565  1.7799 -1.0906
 2327WAT     H210029   5.189   7.198   2.378 -0.4264 -1.1701 -0.7612
 2327WAT    EPW10030   5.198   7.184   2.455  0.0894  0.5527 -0.4682
 2328WAT      O10031   4.547   5.440   4.922  0.4714  0.3907 -0.0931
 2328WAT     H110032   4.619   5.488   4.931  0.7132  0.1941 -0.9155
 2328WAT     H210033   4.560   5.396   4.848 -1.2997  1.8291 -1.3683
 2328WAT    EPW10034   4.559   5.441   4.912  0.2455  0.5742 -0.4029
 2329WAT      O10035   2.226   0.698   3.445  0.2093 -0.3584 -0.0841
 2329WAT     H110036   2.200   0.618   3.470 -1.3249  0.3755  0.8791
 2329WAT     H210037   2.244   0.737   3.521  0.4340  0.3814 -0.5133
 2329WAT    EPW10038   2.225   0.692   3.460  0.0158 -0.1407 -0.0052
 2330WAT      O10039   4.531   4.252   4.177  0.3034  0.3232  0.0504
 2330WAT     H110040   4.452   4.222   4.199 -0.2804  1.3383 -0.5707
 2330WAT     H210041   4.554   4.300   4.246 -0.2089  1.0723 -0.2832
 2330WAT    EPW10042   4.522   4.255   4.191  0.1415  0.5838 -0.0906
 2331WAT      O10043   1.848   6.012   6.650 -0.1111  0.0627 -0.6917
 2331WAT     H110044   1.918   6.054   6.682  1.5847 -2.1452 -1.2502
 2331WAT     H210045   1.836   6.047   6.571 -0.2081  1.0281 -0.2667
 2331WAT    EPW10046   1.856   6.023   6.643  0.1251 -0.1208 -0.7114
 2332WAT      O10047   5.212   1.549   5.964  0.1603 -0.3279 -0.6375
 2332WAT     H110048   5.184   1.495   6.027  1.6949  0.1887  0.5368
 2332WAT     H210049   5.141   1.596   5.945  0.0760  0.8666  2.1707
 2332WAT    EPW10050   5.197   1.548   5.970  0.3745 -0.0751 -0.0492
 2333WAT      O10051   0.882   1.276   6.406  0.2278 -0.3491 -0.0239
 2333WAT     H110052   0.962   1.262   6.376  0.0442 -0.4251 -0.4903
 2333WAT     H210053   0.893   1.335   6.468  0.3346  1.7666 -1.9324
 2333WAT    EPW10054   0.895   1.283   6.411  0.2164 -0.0478 -0.3747
 2334WAT      O10055   6.523   0.924   0.524 -0.0585 -0.1081 -0.2836
 2334WAT     H110056   6.493   0.999   0.490  0.2020 -0.6058 -1.6510
 2334WAT     H210057   6.609   0.931   0.514 -0.0469 -0.6632 -0.5754
 2334WAT    EPW10058   6.531   0.936   0.517 -0.0183 -0.2636 -0.5287
 2335WAT      O10059   4.025   4.969   6.502  0.5309  0.3235 -0.1014
 2335WAT     H110060   3.944   4.944   6.480  0.9070 -0.8127 -0.2672
 2335WAT     H210061   4.032   4.943   6.585  0.4627  1.1363  0.1700
 2335WAT    EPW10062   4.014   4.961   6.511  0.5764  0.2758 -0.0858
 2336WAT      O10063   6.045   0.185   7.017 -0.2687  0.2131  0.3550
 2336WAT     H110064   6.130   0.163   7.020  0.1295  1.7046  0.8988
 2336WAT     H210065   6.011   0.144   7.086  0.4751  1.3036  1.4079
 2336WAT    EPW10066   6.053   0.175   7.028 -0.1000  0.5945  0.5909
 2337WAT      O10067   7.733   6.104   7.300  0.1798 -0.6293 -0.5640
 2337WAT     H110068   7.696   6.087   7.378 -0.3671  1.6532 -0.2297
 2337WAT     H210069   7.670   6.084   7.243  0.2972 -1.5762 -0.3656
 2337WAT    EPW10070   7.718   6.099   7.303  0.1163 -0.4320 -0.4853
 2338WAT      O10071   7.072   2.719   6.598 -0.6905  0.0217  0.1513
 2338WAT     H110072   7.027   2.791   6.579  0.6818  0.6440 -0.9868
 2338WAT     H210073   7.155   2.747   6.604 -0.0777 -1.4702 -0.6263
 2338WAT    EPW10074   7.078   2.734   6.596 -0.3973 -0.1068 -0.1317
 2339WAT      O10075   2.107   0.062   5.183 -0.5478 -0.2224 -0.3944
 2339WAT     H110076   2.126   0.094   5.262 -4.0683 -1.4709  1.1796
 2339WAT     H210077   2.120   0.130   5.130 -0.3109  1.4204  1.6177
 2339WAT    EPW10078   2.111   0.077   5.187 -1.0328 -0.1642  0.1353
 2340WAT      O10079   1.833   4.812   5.128 -0.2552  0.3657  0.0997
 2340WAT     H110080   1.915   4.794   5.105 -0.1976 -1.7273  1.6867
 2340WAT     H210081   1.787   4.794   5.056  0.5479  0.3932 -0.4292
 2340WAT    EPW10082   1.838   4.806   5.114 -0.1280  0.0606  0.2560
 2341WAT      O10083   2.343   7.159   3.321  0.0086  0.6891  0.1082
 2341WAT     H110084   2.428   7.180   3.316  0.0049  0.5698 -0.6356
 2341WAT     H210085   2.305   7.234   3.343  0.3606  0.6050  1.0505
 2341WAT    EPW10086   2.350   7.173   3.323  0.0600  0.6591  0.1375
 2342WAT      O10087   5.414   7.241   6.556  0.0547 -0.5547  0.3143
 2342WAT     H110088   5.473   7.299   6.530 -0.3098 -0.2965  0.0554
 2342WAT     H210089   5.395   7.266   6.637  0.8395 -1.0790  0.6791
 2342WAT    EPW10090   5.420   7.253   6.564  0.1168 -0.5940  0.3300
 2343WAT      O10091   5.368   4.007   4.509 -0.4497  0.0289  0.2838
 2343WAT     H110092   5.348   3.922   4.505 -0.3732 -0.1348  2.3219
 2343WAT     H210093   5.440   4.009   4.558 -0.6990  1.3124  0.6343
 2343WAT    EPW10094   5.376   3.995   4.516 -0.4752  0.1943  0.6366
 2344WAT      O10095   0.847   0.817   5.140 -0.1419 -0.2666  0.1469
 2344WAT     H110096   0.880   0.878   5.087  0.1706 -0.6814 -0.1469
 2344WAT     H210097   0.881   0.836   5.218  2.2099 -1.6637 -0.4384
 2344WAT    EPW10098   0.857   0.829   5.143  0.2516 -0.5343  0.0170
 2345WAT      O10099   4.666   7.656   4.015  0.4247 -0.1219  0.4413
 2345WAT     H110100   4.721   7.590   4.001 -0.6537 -0.9456 -0.0254
 2345WAT     H210101   4.642   7.645   4.098 -1.2010 -1.4984 -0.1487
 2345WAT    EPW10102   4.671   7.645   4.025  0.0253 -0.4469  0.2852
 2346WAT      O10103   0.426   1.571   4.234 -0.0443 -0.3477 -0.1407
 2346WAT     H110104   0.457   1.490   4.226 -0.2903 -0.3692 -0.8734
 2346WAT     H210105   0.348   1.559   4.272  0.1008 -0.4211  0.1365
 2346WAT    EPW10106   0.419   1.557   4.239 -0.0592 -0.3617 -0.2080
 2347WAT      O10107   2.394   7.061   6.862 -0.0357 -0.2974  0.1146
 2347WAT     H110108   2.420   6.996   6.914 -0.3673  1.0565  2.0989
 2347WAT     H210109   2.462   7.115   6.861 -0.7676  0.6797  0.8919
 2347WAT    EPW10110   2.408   7.060   6.869 -0.1928  0.0469  0.5225
 2348WAT      O10111   6.335   5.934   6.100 -0.3582  0.6617  0.0100
 2348WAT     H110112   6.258   5.955   6.136 -0.7884  0.3447 -0.7137
 2348WAT     H210113   6.331   5.970   6.020  0.3666  0.8916  0.0674
 2348WAT    EPW10114   6.323   5.943   6.093 -0.3147  0.6488 -0.0884
 2349WAT      O10115   4.210   4.085   3.614  0.3403  0.0925 -0.6155
 2349WAT     H110116   4.285   4.103   3.655 -0.6433  2.3668  0.3589
 2349WAT     H210117   4.225   4.007   3.577  3.5102  0.9259 -1.3561
 2349WAT    EPW10118   4.223   4.076   3.615  0.6633  0.5516 -0.5810
 2350WAT      O10119   0.198   0.750   6.197  0.1972 -0.1253 -0.1124
 2350WAT     H110120   0.150   0.705   6.255 -0.9157  0.7662 -0.3102
 2350WAT     H210121   0.209   0.693   6.132 -1.5665 -0.0163 -0.5544
 2350WAT    EPW10122   0.192   0.735   6.196 -0.2277  0.0225 -0.2069
 2351WAT      O10123   5.952   0.954   3.280 -0.1106  0.0329  0.6325
 2351WAT     H110124   5.873   0.934   3.312 -0.5396  1.1180  0.3197
 2351WAT     H210125   6.001   0.962   3.352 -0.1050 -1.3150  0.7930
 2351WAT    EPW10126   5.947   0.952   3.295 -0.1732 -0.0059  0.6100
 2352WAT      O10127   3.336   6.255   0.081  0.0033 -0.8448  0.2125
 2352WAT     H110128   3.390   6.192   0.052 -0.4271  0.2582 -3.3953
 2352WAT     H210129   3.391   6.318   0.106  0.4077 -0.8740 -0.5781
 2352WAT    EPW10130   3.352   6.255   0.081 -0.0005 -0.6862 -0.4373
 2353WAT      O10131   4.146   2.029   2.764  0.2674  0.0204 -0.0371
 2353WAT     H110132   4.125   2.083   2.699 -0.0259 -0.0673 -0.0163
 2353WAT     H210133   4.183   2.082   2.823  2.1064 -0.1458 -0.9726
 2353WAT    EPW10134   4.149   2.045   2.763  0.4958 -0.0171 -0.1722
 2354WAT      O10135   7.717   2.578   7.191 -0.0034  0.3789 -0.3714
 2354WAT     H110136   7.719   2.535   7.267  0.4861  0.6142 -0.2399
 2354WAT     H210137   7.681   2.655   7.211 -0.9204  0.0156 -0.6153
 2354WAT    EPW10138   7.712   2.583   7.205 -0.0666  0.3600 -0.3880
 2355WAT      O10139   3.321   6.918   5.149 -0.4761  0.5711 -0.3224
 2355WAT     H110140   3.398   6.935   5.112  0.0009  0.9127  0.7733
 2355WAT     H210141   3.264   6.963   5.102  0.2673  1.9840  0.0881
 2355WAT    EPW10142   3.324   6.927   5.137 -0.2959  0.8303 -0.0999
 2356WAT      O10143   1.640   0.096   6.289  0.1365  0.4261 -0.1931
 2356WAT     H110144   1.627   0.051   6.363 -0.9735 -0.3696 -0.8508
 2356WAT     H210145   1.727   0.098   6.282  0.2452  0.1112  0.8866
 2356WAT    EPW10146   1.651   0.090   6.299 -0.0114  0.2620 -0.1308
 2357WAT      O10147   6.465   0.713   5.736 -0.1522 -0.8200 -0.0879
 2357WAT     H110148   6.404   0.681   5.789 -0.9257  1.0303  0.1995
 2357WAT     H210149   6.449   0.799   5.735  1.1251 -0.5523 -1.7015
 2357WAT    EPW10150   6.454   0.721   5.744 -0.0778 -0.5071 -0.2838
 2358WAT      O10151   6.323   7.335   5.015  0.0112  0.0038 -1.2872
 2358WAT     H110152   6.314   7.253   4.988  0.0051 -1.4540  2.4751
 2358WAT     H210153   6.242   7.366   5.014 -0.3803 -0.9345 -0.4850
 2358WAT    EPW10154   6.310   7.327   5.011 -0.0475 -0.3502 -0.6129
 2359WAT      O10155   1.027   5.656   0.481  0.7156 -0.3971  0.2357
 2359WAT     H110156   1.007   5.741   0.471  0.7424 -0.5941 -2.0744
 2359WAT     H210157   0.996   5.637   0.560 -1.4569  1.1729 -0.1415
 2359WAT    EPW10158   1.019   5.666   0.491  0.3987 -0.1943 -0.1613
 2360WAT      O10159   4.969   5.193   4.832 -0.1841  0.5011  0.3902
 2360WAT     H110160   4.895   5.238   4.828 -0.6189 -0.2533 -0.3036
 2360WAT     H210161   4.943   5.110   4.829  0.6929  0.2257  0.0066
 2360WAT    EPW10162   4.954   5.187   4.831 -0.1188  0.3489  0.2310
 2361WAT      O10163   5.068   4.924   6.091 -0.0680  0.2884 -0.2004
 2361WAT     H110164   5.057   4.953   6.009  0.1745  0.2430 -0.2484
 2361WAT     H210165   5.078   4.997   6.137  0.3296  0.2912 -0.2905
 2361WAT    EPW10166   5.068   4.939   6.086  0.0266  0.2821 -0.2208
 2362WAT      O10167   5.904   6.072   3.244  0.0889 -0.1891  0.0560
 2362WAT     H110168   5.845   6.008   3.240 -0.4199  0.3387 -1.8393
 2362WAT     H210169   5.856   6.144   3.252  0.6623  0.0277  2.2708
 2362WAT    EPW10170   5.888   6.073   3.244  0.0984 -0.0791  0.1032
 2363WAT      O10171   0.317   3.094   4.180 -0.3942 -0.9447 -0.2430
 2363WAT     H110172   0.401   3.072   4.193 -0.0801  0.4582  0.3845
 2363WAT     H210173   0.273   3.027   4.214  0.4879 -0.4095  2.1903
 2363WAT    EPW10174   0.323   3.081   4.187 -0.2175 -0.6584  0.2092
 2364WAT      O10175   4.607   4.839   2.403 -0.3622  0.4606  0.8769
 2364WAT     H110176   4.625   4.922   2.382 -0.7862  1.0709  2.6828
 2364WAT     H210177   4.684   4.800   2.402 -0.2136  0.7531 -0.4312
 2364WAT    EPW10178   4.621   4.846   2.400 -0.4029  0.5940  0.9505
 2365WAT      O10179   1.377   4.612   4.699 -0.1167 -0.1371 -0.6032
 2365WAT     H110180   1.386   4.545   4.754  0.0060  0.5119  0.1743
 2365WAT     H210181   1.352   4.573   4.625 -0.2097 -1.0294 -0.1231
 2365WAT    EPW10182   1.375   4.596   4.696 -0.1123 -0.1731 -0.4174
 2366WAT      O10183   5.982   2.578   5.321 -0.1238  0.7044  0.3542
 2366WAT     H110184   6.033   2.509   5.336 -0.3094  0.3375 -0.6290
 2366WAT     H210185   5.903   2.551   5.347 -0.2212  0.4833 -0.1462
 2366WAT    EPW10186   5.978   2.564   5.327 -0.1656  0.6175  0.1350
 2367WAT      O10187   7.608   2.857   4.625 -0.0839  0.1384 -0.7854
 2367WAT     H110188   7.641   2.804   4.686 -2.9323  0.0519  0.8702
 2367WAT     H210189   7.658   2.928   4.630  0.7200 -0.4850  0.5446
 2367WAT    EPW10190   7.620   2.860   4.635 -0.3859  0.0335 -0.3444
 2368WAT      O10191   0.838   2.374   0.082 -0.3010 -0.2732  0.0632
 2368WAT     H110192   0.832   2.290   0.106  0.8425  0.0203  1.5443
 2368WAT     H210193   0.767   2.411   0.118  0.4156 -0.1993  1.4587
 2368WAT    EPW10194   0.826   2.367   0.091 -0.0262 -0.2189  0.4882
 2369WAT      O10195   2.943   3.094   1.423  0.1021 -0.0491 -0.3905
 2369WAT     H110196   2.933   3.146   1.493  1.2746  2.6931 -2.1177
 2369WAT     H210197   2.930   3.014   1.456 -1.0381  1.2047  2.6085
 2369WAT    EPW10198   2.940   3.090   1.438  0.1069  0.5412 -0.2026
 2370WAT      O10199   1.086   6.875   4.158 -0.2988  0.4177  0.1259
 2370WAT     H110200   1.014   6.916   4.131 -0.4480 -0.3424 -0.6597
 2370WAT     H210201   1.065   6.790   4.150  0.6101  0.1935  0.0876
 2370WAT    EPW10202   1.072   6.868   4.153 -0.1866  0.2723  0.0042
 2371WAT      O10203   0.177   1.216   4.415 -0.3023 -0.0906 -0.1017
 2371WAT     H110204   0.224   1.160   4.367 -0.2735 -2.2886  2.2609
 2371WAT     H210205   0.095   1.198   4.393 -0.2679 -0.6820  0.2284
 2371WAT    EPW10206   0.172   1.205   4.405 -0.2930 -0.5027  0.2960
 2372WAT      O10207   3.893   7.021   0.811  0.6532  0.0716 -0.7960
 2372WAT     H110208   3.839   7.055   0.871  0.6361  1.6666 -1.6652
 2372WAT     H210209   3.901   6.938   0.836 -0.2644  0.4028  0.7482
 2372WAT    EPW10210   3.886   7.014   0.823  0.5151  0.3562 -0.6963
 2373WAT      O10211   7.505   5.104   6.031 -0.2835  0.3257  0.3050
 2373WAT     H110212   7.429   5.105   6.073  0.0045 -0.0997  0.8608
 2373WAT     H210213   7.521   5.019   6.019  0.0810  0.4104  0.1574
 2373WAT    EPW10214   7.496   5.092   6.035 -0.1871  0.2754  0.3653
 2374WAT      O10215   6.390   3.728   4.254 -0.3852 -0.3354  0.2213
 2374WAT     H110216   6.409   3.726   4.340 -1.4684  0.9869  0.5226
 2374WAT     H210217   6.354   3.650   4.239  0.7014 -0.9645  0.7282
 2374WAT    EPW10218   6.388   3.716   4.265 -0.3847 -0.2330  0.3407
 2375WAT      O10219   3.561   0.787   4.013 -0.7013  0.3510  0.5213
 2375WAT     H110220   3.568   0.711   3.971 -2.7257  0.1339  0.4674
 2375WAT     H210221   3.566   0.846   3.948  0.4135  0.2714  0.5127
 2375WAT    EPW10222   3.563   0.785   3.997 -0.8357  0.3072  0.5121
 2376WAT      O10223   3.587   5.552   6.755  0.4611 -0.1405 -0.0468
 2376WAT     H110224   3.634   5.510   6.695  0.6118 -0.7478  0.4833
 2376WAT     H210225   3.567   5.490   6.813 -0.9557  0.1168 -0.2259
 2376WAT    EPW10226   3.591   5.537   6.755  0.2741 -0.1922  0.0050
 2377WAT      O10227   5.115   3.129   3.156 -0.0659 -0.0473 -0.2270
 2377WAT     H110228   5.115   3.210   3.123 -1.3905  0.0303 -0.1176
 2377WAT     H210229   5.108   3.078   3.085 -0.0547 -0.0240 -0.2449
 2377WAT    EPW10230   5.114   3.133   3.141 -0.2599 -0.0324 -0.2135
 2378WAT      O10231   5.344   0.827   5.089  0.2945 -0.2649 -0.1235
 2378WAT     H110232   5.386   0.851   5.162 -0.4472  0.3608  0.1149
 2378WAT     H210233   5.387   0.869   5.026  0.0473  0.3656  0.1183
 2378WAT    EPW10234   5.357   0.837   5.090  0.1484 -0.0793 -0.0525
 2379WAT      O10235   7.448   4.220   5.804  0.3287 -0.2133 -0.3673
 2379WAT     H110236   7.530   4.247   5.814  0.1713  0.0980  0.0970
 2379WAT     H210237   7.423   4.258   5.729  0.0990  0.9765  0.2885
 2379WAT    EPW10238   7.456   4.229   5.794  0.2715  0.0085 -0.2019
 2380WAT      O10239   5.923   2.985   6.504 -0.1601  0.3369 -0.1297
 2380WAT     H110240   5.985   2.957   6.449  0.2796  1.1141 -0.0439
 2380WAT     H210241   5.925   2.927   6.569 -0.0539 -0.0759 -0.5009
 2380WAT    EPW10242   5.933   2.972   6.505 -0.0795  0.3908 -0.1719
 2381WAT      O10243   1.066   6.469   5.131  0.1499 -0.2540 -0.4017
 2381WAT     H110244   1.144   6.504   5.116  0.3703  0.0142  1.2101
 2381WAT     H210245   1.084   6.398   5.179 -0.6663  1.2561  2.3914
 2381WAT    EPW10246   1.080   6.463   5.136  0.0619  0.0087  0.2490
 2382WAT      O10247   4.120   1.146   2.389 -0.2120 -0.0275  0.4903
 2382WAT     H110248   4.170   1.125   2.458  0.2077  2.0802  0.9105
 2382WAT     H210249   4.061   1.200   2.423  0.3949  1.5653 -0.8796
 2382WAT    EPW10250   4.119   1.151   2.404 -0.0604  0.5191  0.3500
 2383WAT      O10251   3.142   2.391   0.932  0.2290 -0.1082  0.1741
 2383WAT     H110252   3.208   2.448   0.924  1.2328 -0.9914  1.6967
 2383WAT     H210253   3.166   2.326   0.880 -0.2107  0.2057 -0.4392
 2383WAT    EPW10254   3.155   2.390   0.923  0.3123 -0.1923  0.3085
 2384WAT      O10255   6.034   7.509   7.383  0.4043 -0.2715 -0.1148
 2384WAT     H110256   5.988   7.497   7.310  0.3296  1.9825 -0.4840
 2384WAT     H210257   6.109   7.467   7.366 -0.2114 -1.1468 -0.8051
 2384WAT    EPW10258   6.038   7.501   7.369  0.3023 -0.0678 -0.2713
 2385WAT      O10259   5.573   0.937   0.983 -0.1697 -0.1664  0.1090
 2385WAT     H110260   5.629   0.897   0.929  0.2846  1.3215 -0.5596
 2385WAT     H210261   5.582   1.021   0.964 -2.2004  0.1775  0.4138
 2385WAT    EPW10262   5.582   0.943   0.972 -0.4026  0.1042  0.0552
 2386WAT      O10263   2.699   5.974   4.944  0.1123  0.5059 -0.1055
 2386WAT     H110264   2.730   5.897   4.972  0.9255  0.9674  0.3185
 2386WAT     H210265   2.696   6.022   5.017  2.6294  1.8671 -0.7906
 2386WAT    EPW10266   2.703   5.969   4.959  0.6042  0.7751 -0.1440
 2387WAT      O10267   5.326   7.643   7.535 -0.0707 -0.6348  0.2824
 2387WAT     H110268   5.391   7.593   7.564 -0.5593 -0.1198  2.4247
 2387WAT     H210269   5.254   7.601   7.561 -0.6004 -0.6080 -1.0518
 2387WAT    EPW10270   5.325   7.630   7.543 -0.2211 -0.5547  0.4018
 2388WAT      O10271   0.087   7.477   4.800 -0.6319  0.2862 -0.7341
 2388WAT     H110272   0.040   7.470   4.727  0.8585  1.9578 -1.9419
 2388WAT     H210273   0.155   7.424   4.786 -0.7879 -0.0719 -0.1606
 2388WAT    EPW10274   0.090   7.468   4.787 -0.4348  0.4802 -0.8278
 2389WAT      O10275   7.538   4.590   5.719 -0.2013 -0.2208 -0.0720
 2389WAT     H110276   7.507   4.523   5.672 -0.5397 -0.0361 -0.1166
 2389WAT     H210277   7.474   4.649   5.714 -0.4660 -0.3973  1.0527
 2389WAT    EPW10278   7.524   4.589   5.711 -0.2904 -0.2196  0.0876
 2390WAT      O10279   6.052   4.977   4.807  0.4683  0.1521  0.0376
 2390WAT     H110280   6.011   4.969   4.730  1.3760 -0.3000 -0.4122
 2390WAT     H210281   6.104   5.046   4.795  1.5471 -0.6756 -0.2109
 2390WAT    EPW10282   6.054   4.986   4.794  0.7617 -0.0369 -0.0656
 2391WAT      O10283   0.995   3.038   4.616 -0.7906  0.1973  0.0969
 2391WAT     H110284   1.062   3.012   4.666 -0.6568  2.5614  1.2702
 2391WAT     H210285   0.934   2.978   4.632  0.8228 -1.7945 -0.6786
 2391WAT    EPW10286   0.996   3.025   4.626 -0.5325  0.2523  0.1557
 2392WAT      O10287   7.422   4.459   7.149  0.2228 -0.7187  0.1698
 2392WAT     H110288   7.414   4.406   7.218  0.4455 -2.0417 -0.7689
 2392WAT     H210289   7.339   4.478   7.128  0.0284 -2.2453 -0.5871
 2392WAT    EPW10290   7.409   4.454   7.156  0.2270 -1.1396 -0.0807
 2393WAT      O10291   1.847   0.406   4.026 -0.1225  0.0632  0.0814
 2393WAT     H110292   1.792   0.369   4.082  0.4441  0.0961  0.6654
 2393WAT     H210293   1.843   0.491   4.046  1.0248 -0.0702  0.9218
 2393WAT    EPW10294   1.838   0.413   4.037  0.1307  0.0483  0.2918
 2394WAT      O10295   0.859   6.731   6.697 -0.1543 -0.0281  0.0069
 2394WAT     H110296   0.773   6.714   6.689 -0.0944  0.1523 -1.2483
 2394WAT     H210297   0.869   6.804   6.651  0.8808 -0.7244 -0.9181
 2394WAT    EPW10298   0.848   6.739   6.689  0.0075 -0.1043 -0.3151
 2395WAT      O10299   5.986   4.996   3.475  0.2687 -0.2535  0.3015
 2395WAT     H110300   5.910   4.953   3.472  0.4992 -0.6163 -0.8569
 2395WAT     H210301   6.044   4.933   3.493  0.5858 -0.4442 -1.2293
 2395WAT    EPW10302   5.984   4.980   3.477  0.3496 -0.3353 -0.0958
 2396WAT      O10303   0.069   2.098   4.926  0.5967 -0.4789  0.4271
 2396WAT     H110304  -0.018   2.108   4.923  0.7994  1.8706 -2.4819
 2396WAT     H210305   0.098   2.178   4.944  2.1371 -0.1682 -2.7838
 2396WAT    EPW10306   0.060   2.112   4.928  0.8542 -0.0859 -0.4769
 2397WAT      O10307   6.206   0.864   0.018 -0.4701  0.1220  0.1867
 2397WAT     H110308   6.228   0.821   0.091 -3.3645  1.1733  1.8680
 2397WAT     H210309   6.156   0.807  -0.025 -2.8852  1.0462  1.5805
 2397WAT    EPW10310   6.202   0.849   0.023 -1.2544  0.4138  0.6410
 2398WAT      O10311   5.347   6.428   3.650  0.5108  0.0169  0.2333
 2398WAT     H110312   5.262   6.409   3.655  0.5098  0.2133  1.1168
 2398WAT     H210313   5.384   6.353   3.626 -0.1550  0.5211 -2.7704
 2398WAT    EPW10314   5.340   6.414   3.647  0.4123  0.1204 -0.0799
 2399WAT      O10315   5.046   4.831   4.768 -0.5229 -0.2479 -0.4205
 2399WAT     H110316   5.047   4.744   4.768  1.9955 -0.3986  2.2422
 2399WAT     H210317   5.113   4.852   4.718  0.9386 -0.0817  1.4832
 2399WAT    EPW10318   5.056   4.821   4.761  0.0650 -0.2456  0.2540
 2400WAT      O10319   1.779   7.332   4.072  0.6046 -0.2267 -0.5909
 2400WAT     H110320   1.749   7.254   4.047 -1.2162 -0.1956  1.2459
 2400WAT     H210321   1.778   7.379   3.998  0.2030 -1.4857 -1.4203
 2400WAT    EPW10322   1.774   7.327   4.057  0.2763 -0.4081 -0.4421
 2401WAT      O10323   7.318   7.657   5.639  0.9146  0.3587 -0.1776
 2401WAT     H110324   7.232   7.650   5.653  0.6863  1.6425 -0.8041
 2401WAT     H210325   7.341   7.579   5.609  0.4076 -0.7459  2.0629
 2401WAT    EPW10326   7.309   7.644   5.637  0.8060  0.3851  0.0608
 2402WAT      O10327   7.429   6.706   5.999  0.3103  0.0139  0.0563
 2402WAT     H110328   7.433   6.751   6.074 -2.2370 -0.6397  0.6843
 2402WAT     H210329   7.347   6.676   5.998  1.0872 -2.3057 -1.6715
 2402WAT    EPW10330   7.417   6.708   6.010  0.0488 -0.4253 -0.1061
 2403WAT      O10331   4.445   3.252   6.884  0.0826 -0.3195  0.1462
 2403WAT     H110332   4.425   3.237   6.801  0.7366 -0.1890 -0.0436
 2403WAT     H210333   4.530   3.232   6.888  0.6286  1.7843  0.2541
 2403WAT    EPW10334   4.455   3.247   6.872  0.2598  0.0106  0.1341
 2404WAT      O10335   0.401   2.109   4.280  0.0980 -0.0230 -0.1538
 2404WAT     H110336   0.387   2.180   4.329 -1.2095 -0.1272 -0.3527
 2404WAT     H210337   0.477   2.078   4.311 -0.2942  0.3660  1.2599
 2404WAT    EPW10338   0.410   2.115   4.292 -0.1531  0.0191  0.0256
 2405WAT      O10339   5.833   1.270   2.611  0.2594 -0.4542  0.5054
 2405WAT     H110340   5.899   1.222   2.580 -0.8961 -0.9098 -1.4128
 2405WAT     H210341   5.799   1.306   2.539 -1.0342  0.4798  1.5440
 2405WAT    EPW10342   5.838   1.268   2.596 -0.1024 -0.3835  0.3755
 2406WAT      O10343   5.273   4.435   6.562  0.1235  0.5524 -0.1466
 2406WAT     H110344   5.310   4.364   6.597  0.8240  1.6210  1.4105
 2406WAT     H210345   5.317   4.446   6.487  1.4753  0.5138  0.6036
 2406WAT    EPW10346   5.285   4.426   6.556  0.4267  0.7046  0.1942
 2407WAT      O10347   5.391   0.328   5.352  0.3405  0.2825  0.3354
 2407WAT     H110348   5.421   0.396   5.306 -0.3059  0.2160 -0.2059
 2407WAT     H210349   5.459   0.304   5.401  1.3493 -0.1713 -1.2088
 2407WAT    EPW10350   5.405   0.334   5.352  0.3941  0.2056  0.0273
 2408WAT      O10351   6.360   3.745   0.587 -0.1063 -0.5794  0.4849
 2408WAT     H110352   6.277   3.730   0.609 -0.1971  0.7318  1.0747
 2408WAT     H210353   6.390   3.665   0.567 -1.5653 -1.0365  0.0139
 2408WAT    EPW10354   6.352   3.731   0.587 -0.3353 -0.4532  0.5025
 2409WAT      O10355   4.801   1.343   1.958 -0.1187 -0.1465 -0.3062
 2409WAT     H110356   4.831   1.364   2.037  0.2570 -0.1402 -0.4464
 2409WAT     H210357   4.862   1.289   1.926 -0.2923 -0.1931 -0.5686
 2409WAT    EPW10358   4.815   1.338   1.965 -0.0889 -0.1525 -0.3657
 2410WAT      O10359   7.459   6.070   5.641 -0.8617  0.5464  0.3910
 2410WAT     H110360   7.443   6.073   5.727  0.9100 -1.4673  0.8939
 2410WAT     H210361   7.442   6.151   5.613  1.4019  2.1816  3.2227
 2410WAT    EPW10362   7.455   6.082   5.649 -0.2656  0.4905  0.8836
 2411WAT      O10363   0.159   1.150   7.785 -0.3710 -0.0525  0.3425
 2411WAT     H110364   0.125   1.090   7.838 -1.5648  0.9390  0.7344
 2411WAT     H210365   0.111   1.221   7.800 -0.2017  0.4949 -1.4551
 2411WAT    EPW10366   0.147   1.152   7.795 -0.5223  0.1748  0.1349
 2412WAT      O10367   3.168   2.245   5.765  0.4515  0.2492  0.3812
 2412WAT     H110368   3.234   2.269   5.817  0.1894 -3.1608  2.6424
 2412WAT     H210369   3.209   2.211   5.696  0.9945  0.5522  0.5441
 2412WAT    EPW10370   3.184   2.243   5.763  0.4930 -0.2098  0.7393
 2413WAT      O10371   1.265   2.295   3.934  0.6579  0.4315 -0.1209
 2413WAT     H110372   1.269   2.350   4.001  0.9540  0.2140  0.0466
 2413WAT     H210373   1.296   2.220   3.967  0.5067  0.2363 -0.4135
 2413WAT    EPW10374   1.270   2.292   3.949  0.6793  0.3705 -0.1394
 2414WAT      O10375   6.171   3.714   6.157  0.6660 -0.4937  0.1024
 2414WAT     H110376   6.251   3.704   6.190  0.0521 -1.3915  1.4530
 2414WAT     H210377   6.157   3.640   6.113  0.6568 -0.2563 -0.2937
 2414WAT    EPW10378   6.180   3.702   6.156  0.5740 -0.5912  0.2434
 2415WAT      O10379   0.351   5.811   4.434 -0.2531 -0.2863 -0.0394
 2415WAT     H110380   0.313   5.765   4.371 -1.3529 -0.9382  1.0528
 2415WAT     H210381   0.383   5.881   4.393 -2.5344  0.2373 -1.0649
 2415WAT    EPW10382   0.350   5.815   4.419 -0.7526 -0.3052 -0.0296
 2416WAT      O10383   6.133   1.207   0.321 -0.0650 -0.4130  0.0380
 2416WAT     H110384   6.081   1.161   0.268 -0.7711 -0.0710  0.4268
 2416WAT     H210385   6.211   1.170   0.309 -0.7522 -2.2910  0.9440
 2416WAT    EPW10386   6.137   1.194   0.311 -0.2708 -0.6399  0.2293
 2417WAT      O10387   3.192   6.138   0.965 -0.0101  0.3258 -0.2409
 2417WAT     H110388   3.198   6.200   1.027 -1.4896 -0.1020  0.3813
 2417WAT     H210389   3.246   6.076   0.993 -0.6593  0.1384  0.6470
 2417WAT    EPW10390   3.201   6.138   0.978 -0.3245  0.2349 -0.0178
 2418WAT      O10391   4.943   7.100   5.461  0.5056  0.2498 -0.4753
 2418WAT     H110392   4.856   7.097   5.470  0.5246  2.0804  0.9165
 2418WAT     H210393   4.969   7.027   5.501 -0.3449  0.2513  0.1294
 2418WAT    EPW10394   4.934   7.089   5.468  0.3828  0.5204 -0.1804
 2419WAT      O10395   5.270   3.164   4.634  0.0413 -0.5905  0.3661
 2419WAT     H110396   5.245   3.115   4.702 -0.5636 -1.3736 -0.4017
 2419WAT     H210397   5.304   3.105   4.578  0.0243 -0.0263 -0.2445
 2419WAT    EPW10398   5.272   3.148   4.636 -0.0505 -0.6228  0.1625
 2420WAT      O10399   1.117   3.275   6.088 -0.0902  0.0611  0.1365
 2420WAT     H110400   1.071   3.329   6.038  2.1021  3.1037  1.1355
 2420WAT     H210401   1.169   3.234   6.030  2.0846  3.1787 -0.3607
 2420WAT    EPW10402   1.118   3.277   6.072  0.5549  0.9711  0.2106
 2421WAT      O10403   7.563   6.012   0.174 -0.0123  0.2652 -0.4311
 2421WAT     H110404   7.533   6.072   0.230 -0.2810 -0.0465 -0.2379
 2421WAT     H210405   7.650   6.023   0.176  0.0288 -0.1582  0.5312
 2421WAT    EPW10406   7.572   6.022   0.183 -0.0459  0.1566 -0.2604
 2422WAT      O10407   2.095   5.288   6.795  0.2721 -0.2677 -0.7209
 2422WAT     H110408   2.170   5.267   6.833  0.1236  1.2887  0.5542
 2422WAT     H210409   2.094   5.375   6.797 -0.4338 -0.1412 -3.0484
 2422WAT    EPW10410   2.106   5.298   6.801  0.1459 -0.0191 -0.8763
 2423WAT      O10411   4.648   4.410   5.397  0.1059 -0.0445 -0.1832
 2423WAT     H110412   4.690   4.487   5.406 -0.2568  0.0575  0.8721
 2423WAT     H210413   4.608   4.417   5.320  0.4258  0.6683 -0.2939
 2423WAT    EPW10414   4.648   4.423   5.387  0.0996  0.0758 -0.0437
 2424WAT      O10415   6.817   5.369   6.356 -0.7394 -0.0256  0.7488
 2424WAT     H110416   6.846   5.371   6.274 -0.8890  1.4356  0.7057
 2424WAT     H210417   6.733   5.388   6.349 -1.5221 -2.8501  1.0135
 2424WAT    EPW10418   6.809   5.372   6.343 -0.8771 -0.2270  0.7816
 2425WAT      O10419   6.836   5.783   5.098  0.6781 -0.1602  0.1979
 2425WAT     H110420   6.763   5.830   5.104  0.9708  0.1942  1.1047
 2425WAT     H210421   6.811   5.711   5.056  0.0669  0.4898 -0.5918
 2425WAT    EPW10422   6.822   5.780   5.092  0.6310 -0.0118  0.2152
 2426WAT      O10423   1.741   4.233   2.200 -0.6803 -0.0666  0.6114
 2426WAT     H110424   1.755   4.156   2.162  1.0111  1.3188 -1.8874
 2426WAT     H210425   1.784   4.226   2.275  3.3816 -0.2888 -1.4128
 2426WAT    EPW10426   1.750   4.221   2.205  0.1696  0.1053 -0.0568
 2427WAT      O10427   0.104   6.923   4.984 -0.2036 -0.0570  0.2868
 2427WAT     H110428   0.048   6.949   5.046  0.7633  0.5651  0.9255
 2427WAT     H210429   0.164   6.987   4.982  0.3830 -0.6106 -0.5074
 2427WAT    EPW10430   0.105   6.936   4.993  0.0259 -0.0469  0.2638
 2428WAT      O10431   6.560   4.200   3.999  0.5405  0.7921  0.6844
 2428WAT     H110432   6.482   4.163   3.983  1.4354 -0.9038 -0.0557
 2428WAT     H210433   6.544   4.252   4.067 -0.6171 -2.0139  2.7853
 2428WAT    EPW10434   6.546   4.202   4.007  0.5017  0.1271  0.8854
 2429WAT      O10435   5.032   0.982   5.143 -0.0416 -0.8319 -0.0898
 2429WAT     H110436   5.090   0.918   5.134 -1.7497 -2.3273 -1.3389
 2429WAT     H210437   5.045   1.033   5.073  0.5346 -0.4612  0.2792
 2429WAT    EPW10438   5.042   0.980   5.131 -0.2088 -0.9981 -0.2198
 2430WAT      O10439   6.509   3.334   4.188 -0.3957  0.6153 -0.0356
 2430WAT     H110440   6.587   3.316   4.154  0.6229  1.5588  1.6252
 2430WAT     H210441   6.484   3.259   4.225 -0.0714  0.4077 -0.2377
 2430WAT    EPW10442   6.517   3.321   4.189 -0.1973  0.7240  0.1798
 2431WAT      O10443   5.579   4.751   5.203  0.2700  0.5985  0.5779
 2431WAT     H110444   5.636   4.699   5.161  0.2530  1.6974 -0.8889
 2431WAT     H210445   5.526   4.695   5.244  1.3528 -0.4842  0.5512
 2431WAT    EPW10446   5.580   4.735   5.203  0.4274  0.6009  0.3573
 2432WAT      O10447   6.546   0.952   3.935 -0.7463 -0.3902 -0.1533
 2432WAT     H110448   6.524   0.874   3.901 -0.4104 -0.5073 -0.1021
 2432WAT     H210449   6.566   1.000   3.864 -0.9587 -0.3486 -0.1850
 2432WAT    EPW10450   6.546   0.947   3.919 -0.7281 -0.4014 -0.1504
 2433WAT      O10451   0.320   1.705   7.137  0.0277  0.4287 -0.8124
 2433WAT     H110452   0.396   1.743   7.117 -0.0027  1.2952  0.6277
 2433WAT     H210453   0.334   1.671   7.216 -0.3197 -1.6186 -1.5667
 2433WAT    EPW10454   0.333   1.706   7.146 -0.0281  0.2543 -0.7111
 2434WAT      O10455   6.829   4.182   6.827 -0.6083 -0.1273  0.8504
 2434WAT     H110456   6.872   4.109   6.805  0.8462  0.5026  1.4730
 2434WAT     H210457   6.782   4.201   6.756 -0.5382 -1.3199  0.4621
 2434WAT    EPW10458   6.828   4.174   6.814 -0.3831 -0.2104  0.8850
 2435WAT      O10459   6.987   4.117   4.040 -0.1301 -0.7157 -0.3100
 2435WAT     H110460   6.996   4.047   3.989  0.0524 -1.2980  0.5130
 2435WAT     H210461   6.927   4.093   4.098  1.0126 -0.7469  0.9011
 2435WAT    EPW10462   6.979   4.103   4.041  0.0657 -0.8063 -0.0095
 2436WAT      O10463   4.509   5.475   5.743  1.3702 -0.3239  0.0386
 2436WAT     H110464   4.544   5.480   5.663  1.6385 -0.4039  0.1515
 2436WAT     H210465   4.430   5.442   5.728  0.9066  0.9151 -0.3386
 2436WAT    EPW10466   4.503   5.471   5.729  1.3413 -0.1527 -0.0005
 2437WAT      O10467   3.371   4.988   1.577  0.1956  0.1144 -0.4655
 2437WAT     H110468   3.422   5.021   1.640 -0.3755  0.8376 -0.3621
 2437WAT     H210469   3.315   5.053   1.560 -0.6904 -0.6515 -0.5702
 2437WAT    EPW10470   3.370   5.003   1.584 -0.0196  0.1081 -0.4657
 2438WAT      O10471   5.524   1.966   3.873  0.0466  0.2467 -0.4835
 2438WAT     H110472   5.528   2.005   3.795  1.3204  2.8375  0.7545
 2438WAT     H210473   5.449   1.993   3.907 -0.5484 -0.9454 -0.7936
 2438WAT    EPW10474   5.514   1.976   3.866  0.1469  0.4533 -0.3464
 2439WAT      O10475   6.891   3.492   3.955  0.0311  0.0324  0.1657
 2439WAT     H110476   6.939   3.428   3.921  0.6923  0.7403 -0.2738
 2439WAT     H210477   6.828   3.504   3.897  0.9316  0.9698 -0.6619
 2439WAT    EPW10478   6.889   3.484   3.942  0.2618  0.2755 -0.0215
 2440WAT      O10479   0.916   0.774   5.858 -0.1681 -0.2041  0.1542
 2440WAT     H110480   0.871   0.703   5.835 -1.7092 -0.2701  3.0363
 2440WAT     H210481   0.869   0.809   5.922  2.6053  1.2041  1.5900
 2440WAT    EPW10482   0.902   0.769   5.864  0.0140 -0.0058  0.7920
 2441WAT      O10483   7.123   5.278   4.867 -0.6048 -0.3652 -0.4445
 2441WAT     H110484   7.181   5.339   4.843 -1.4065  0.9063  0.7124
 2441WAT     H210485   7.068   5.321   4.919 -1.0263 -2.1547  0.6831
 2441WAT    EPW10486   7.124   5.293   4.871 -0.7855 -0.4417 -0.1071
 2442WAT      O10487   2.240   6.636   7.275  0.1158 -0.2689  0.2369
 2442WAT     H110488   2.201   6.706   7.311 -4.2600 -1.4627 -1.5464
 2442WAT     H210489   2.252   6.660   7.192  0.7450 -0.8929  0.1386
 2442WAT    EPW10490   2.236   6.650   7.268 -0.4376 -0.5374 -0.0411
 2443WAT      O10491   5.619   0.280   6.851 -0.5585 -0.2580  0.0671
 2443WAT     H110492   5.535   0.300   6.857 -0.7028 -0.3647 -1.3308
 2443WAT     H210493   5.643   0.266   6.934 -2.0707 -0.9056  0.4170
 2443WAT    EPW10494   5.610   0.281   6.864 -0.8032 -0.3694 -0.0877
 2444WAT      O10495   4.577   4.483   2.518 -0.2862  0.0533 -0.1448
 2444WAT     H110496   4.502   4.527   2.509 -0.0054  0.5298 -0.1341
 2444WAT     H210497   4.636   4.544   2.537  0.0770 -0.3410  0.0263
 2444WAT    EPW10498   4.575   4.498   2.519 -0.1911  0.0655 -0.1180
 2445WAT      O10499   7.238   2.094   5.539 -0.0912 -0.3748 -0.4400
 2445WAT     H110500   7.199   2.017   5.532  1.0889 -0.9418 -1.1315
 2445WAT     H210501   7.266   2.110   5.458  0.6308  0.2500 -0.0757
 2445WAT    EPW10502   7.237   2.085   5.526  0.1898 -0.3662 -0.4883
 2446WAT      O10503   2.372   3.186   7.465 -0.2377 -0.4539  0.0051
 2446WAT     H110504   2.416   3.142   7.526 -0.3277 -1.1492 -0.4188
 2446WAT     H210505   2.300   3.213   7.506  0.0141 -0.3440  0.3758
 2446WAT    EPW10506   2.368   3.184   7.480 -0.2138 -0.5404 -0.0027
 2447WAT      O10507   6.076   1.867   5.468 -0.4552 -0.1324 -0.2870
 2447WAT     H110508   6.117   1.902   5.537  1.9205 -0.0212 -1.6414
 2447WAT     H210509   6.033   1.799   5.502 -1.8010  1.6208  1.7340
 2447WAT    EPW10510   6.076   1.862   5.483 -0.3030  0.1430 -0.1885
 2448WAT      O10511   3.252   3.433   6.368  0.8571 -0.4855 -0.1774
 2448WAT     H110512   3.339   3.427   6.371  0.9949  1.1684  0.2016
 2448WAT     H210513   3.237   3.513   6.336 -0.5216 -0.6714 -0.0890
 2448WAT    EPW10514   3.262   3.444   6.364  0.6738 -0.2687 -0.1083
 2449WAT      O10515   4.935   0.526   3.040 -0.2013 -0.0106 -0.0977
 2449WAT     H110516   4.932   0.578   2.969 -0.5674  0.4085  0.2201
 2449WAT     H210517   4.993   0.566   3.092  0.5740 -0.6742 -0.4288
 2449WAT    EPW10518   4.943   0.540   3.037 -0.1409 -0.0467 -0.0997
 2450WAT      O10519   1.197   2.931   5.718 -0.1438  0.3492 -0.1550
 2450WAT     H110520   1.201   2.852   5.755  0.4500 -0.0837 -1.1002
 2450WAT     H210521   1.119   2.931   5.678  0.0311  0.0706 -0.5030
 2450WAT    EPW10522   1.186   2.919   5.717 -0.0303  0.2441 -0.3460
 2451WAT      O10523   6.600   6.264   6.059  0.5467 -0.2605 -0.2141
 2451WAT     H110524   6.672   6.307   6.085  1.3234 -1.2908 -0.5992
 2451WAT     H210525   6.537   6.323   6.067  1.5422  0.8756 -0.5036
 2451WAT    EPW10526   6.601   6.279   6.064  0.8085 -0.2449 -0.3138
 2452WAT      O10527   6.458   1.524   4.207  0.0002  1.0131  0.0852
 2452WAT     H110528   6.519   1.463   4.218 -0.1727  0.5896 -1.1850
 2452WAT     H210529   6.425   1.535   4.287 -0.8521 -1.5213  0.1698
 2452WAT    EPW10530   6.462   1.517   4.220 -0.1513  0.5761 -0.0900
 2453WAT      O10531   7.468   4.709   4.985 -0.4090  0.4363  0.3824
 2453WAT     H110532   7.428   4.742   5.055 -0.9227 -1.2709  0.9300
 2453WAT     H210533   7.429   4.749   4.918 -1.2181  0.7080  1.0028
 2453WAT    EPW10534   7.457   4.720   4.985 -0.6044  0.2243  0.5550
 2454WAT      O10535   6.114   2.081   3.322 -0.4835  0.4724  0.4836
 2454WAT     H110536   6.187   2.067   3.367 -1.4939 -0.9432  1.8110
 2454WAT     H210537   6.124   2.032   3.250  0.1427  0.8170  0.3332
 2454WAT    EPW10538   6.126   2.072   3.318 -0.5403  0.3142  0.6575
 2455WAT      O10539   4.389   0.739   6.067 -0.7264  1.2055 -0.8253
 2455WAT     H110540   4.475   0.732   6.075 -0.8978 -0.5714 -0.0672
 2455WAT     H210541   4.365   0.662   6.034 -2.2329  0.7514  1.0982
 2455WAT    EPW10542   4.398   0.727   6.063 -0.9743  0.8759 -0.4292
 2456WAT      O10543   1.434   5.063   3.881  0.5987 -0.4237  0.2191
 2456WAT     H110544   1.421   4.997   3.937  1.0286  0.4337  1.3939
 2456WAT     H210545   1.520   5.060   3.866  0.6948  0.0937  0.6115
 2456WAT    EPW10546   1.445   5.053   3.887  0.6764 -0.2206  0.4506
 2457WAT      O10547   5.510   6.597   7.822 -0.2813  0.3285 -0.6757
 2457WAT     H110548   5.526   6.682   7.831  0.0109  0.3606 -1.3863
 2457WAT     H210549   5.589   6.561   7.832 -0.2331  0.2337 -1.3597
 2457WAT    EPW10550   5.524   6.604   7.825 -0.2310  0.3192 -0.8817
 2458WAT      O10551   4.415   4.263   0.956 -0.4445 -0.0931  0.2621
 2458WAT     H110552   4.488   4.280   0.912 -1.1542 -1.3711 -1.5294
 2458WAT     H210553   4.435   4.285   1.038  0.7097  3.1077 -0.7026
 2458WAT    EPW10554   4.429   4.269   0.962 -0.3788  0.1910 -0.1450
 2459WAT      O10555   4.684   7.604   7.705  0.4901  0.5507  0.4570
 2459WAT     H110556   4.598   7.618   7.716  0.3101 -0.1560  0.0774
 2459WAT     H210557   4.709   7.571   7.781  0.2394  0.0157  0.3210
 2459WAT    EPW10558   4.675   7.601   7.718  0.4265  0.3673  0.3808
 2460WAT      O10559   5.462   0.790   1.231  0.0970 -0.2754  0.6898
 2460WAT     H110560   5.524   0.792   1.292  0.7729 -1.7575  0.0969
 2460WAT     H210561   5.506   0.790   1.156 -0.5513 -1.8369  0.2583
 2460WAT    EPW10562   5.478   0.790   1.229  0.1011 -0.7250  0.5385
 2461WAT      O10563   0.124   5.739   6.601 -0.2500 -0.0414  0.1484
 2461WAT     H110564   0.061   5.706   6.650 -0.4183 -0.2658 -0.2130
 2461WAT     H210565   0.157   5.803   6.650 -1.3214  0.6522  0.0073
 2461WAT    EPW10566   0.120   5.743   6.615 -0.4331  0.0279  0.0742
 2462WAT      O10567   5.781   2.177   5.431  0.7572  0.0087 -0.1009
 2462WAT     H110568   5.710   2.131   5.408  0.3936  1.2534 -1.6578
 2462WAT     H210569   5.787   2.163   5.517 -2.6297  1.4371  0.5545
 2462WAT    EPW10570   5.771   2.168   5.440  0.2032  0.4036 -0.2341
 2463WAT      O10571   7.223   6.118   4.025 -0.0078  0.6868 -0.0181
 2463WAT     H110572   7.148   6.152   3.998 -0.5167 -0.0035  0.5032
 2463WAT     H210573   7.216   6.033   4.004  1.0288  0.7886 -0.8521
 2463WAT    EPW10574   7.211   6.110   4.018  0.0702  0.5999 -0.0643
 2464WAT      O10575   5.730   3.677   7.464  0.8952  0.0924 -0.2771
 2464WAT     H110576   5.722   3.750   7.417  0.1775  0.3701  0.2564
 2464WAT     H210577   5.704   3.701   7.544  0.9939 -0.6540 -0.0109
 2464WAT    EPW10578   5.725   3.692   7.469  0.8038  0.0232 -0.1590
 2465WAT      O10579   4.652   0.677   2.001 -0.1919 -0.1273 -0.4000
 2465WAT     H110580   4.581   0.635   1.971  1.2981 -2.6307 -0.7396
 2465WAT     H210581   4.693   0.702   1.929 -0.3227  0.6307 -0.2183
 2465WAT    EPW10582   4.647   0.674   1.986  0.0089 -0.3851 -0.4234
 2466WAT      O10583   5.819   6.462   5.462  0.2504 -0.3976  0.3157
 2466WAT     H110584   5.745   6.506   5.475  0.4888  0.2195 -0.3829
 2466WAT     H210585   5.799   6.381   5.487 -0.2853  0.0301  1.3231
 2466WAT    EPW10586   5.806   6.456   5.468  0.2065 -0.2433  0.3613
 2467WAT      O10587   7.033   1.211   5.367 -0.1648 -0.0695  0.2213
 2467WAT     H110588   7.053   1.131   5.397  3.6667 -0.1566 -1.8446
 2467WAT     H210589   7.105   1.234   5.323 -2.2516  3.3000 -1.8428
 2467WAT    EPW10590   7.047   1.202   5.365  0.0929  0.4154 -0.3888
 2468WAT      O10591   5.113   6.051   2.833 -0.0263 -0.2705 -0.0153
 2468WAT     H110592   5.092   6.063   2.917  1.7632 -0.6789  0.5238
 2468WAT     H210593   5.045   6.086   2.790 -0.5706  0.7409  1.5771
 2468WAT    EPW10594   5.100   6.058   2.839  0.1576 -0.1815  0.2996
 2469WAT      O10595   0.133   1.166   5.405 -0.7644  0.0966  0.2568
 2469WAT     H110596   0.181   1.121   5.349  0.1877  0.3321  0.8558
 2469WAT     H210597   0.080   1.213   5.354 -1.6117 -1.4812 -0.3841
 2469WAT    EPW10598   0.132   1.167   5.390 -0.7489 -0.1017  0.2506
 2470WAT      O10599   6.976   7.504   4.236  0.1966  0.1809 -0.3878
 2470WAT     H110600   6.893   7.494   4.211 -0.9093 -1.1909  3.2028
 2470WAT     H210601   7.016   7.433   4.205  0.2076  1.0368 -2.4610
 2470WAT    EPW10602   6.970   7.492   4.228  0.0348  0.1047 -0.1636
 2471WAT      O10603   6.909   2.180   5.678 -0.6730  0.3661 -0.2123
 2471WAT     H110604   6.894   2.217   5.756  0.2571 -0.8401  0.5659
 2471WAT     H210605   6.953   2.108   5.697  0.5839  0.6056 -1.9505
 2471WAT    EPW10606   6.913   2.175   5.692 -0.3499  0.2233 -0.3541
 2472WAT      O10607   1.462   1.225   6.829  0.1671  0.3297 -0.0942
 2472WAT     H110608   1.532   1.267   6.858 -0.0241 -0.1915  1.1977
 2472WAT     H210609   1.426   1.280   6.772  2.1794  0.1817 -1.6132
 2472WAT    EPW10610   1.467   1.239   6.825  0.4361  0.2308 -0.1277
 2473WAT      O10611   4.476   4.682   6.522  0.2647 -0.2083 -0.6373
 2473WAT     H110612   4.447   4.640   6.452  1.3068 -0.5594 -0.8610
 2473WAT     H210613   4.559   4.701   6.503  0.9720 -1.4263  0.9768
 2473WAT    EPW10614   4.484   4.679   6.509  0.5231 -0.4401 -0.4319
 2474WAT      O10615   4.992   7.067   6.735 -0.1250 -0.2559 -0.2705
 2474WAT     H110616   4.991   7.153   6.753 -0.6618 -0.5408  1.1947
 2474WAT     H210617   4.954   7.062   6.656  0.2634  0.8796 -0.5519
 2474WAT    EPW10618   4.986   7.079   6.726 -0.1469 -0.1303 -0.0956
 2475WAT      O10619   4.061   2.606   4.730  0.3653 -0.2367 -0.4199
 2475WAT     H110620   4.031   2.663   4.672 -0.1235 -0.3649 -0.2936
 2475WAT     H210621   4.135   2.577   4.694 -0.1370 -0.6195 -1.1703
 2475WAT    EPW10622   4.068   2.610   4.716  0.2189 -0.3122 -0.5121
 2476WAT      O10623   1.438   1.229   5.987  0.2043  0.3621 -0.4819
 2476WAT     H110624   1.509   1.220   5.937 -0.4792 -0.6669 -1.3282
 2476WAT     H210625   1.470   1.245   6.066  1.3349  1.4494 -1.1272
 2476WAT    EPW10626   1.453   1.230   5.991  0.2704  0.3707 -0.7022
 2477WAT      O10627   6.615   2.385   4.623  0.0747  0.0483 -0.1547
 2477WAT     H110628   6.607   2.444   4.559  2.1861  1.9406  1.1557
 2477WAT     H210629   6.702   2.376   4.631 -0.1213 -0.4390  2.1097
 2477WAT    EPW10630   6.627   2.393   4.615  0.3577  0.2558  0.3734
 2478WAT      O10631   0.412   0.371   6.381  0.5462 -1.0867 -0.1861
 2478WAT     H110632   0.450   0.308   6.429  0.3728 -1.0395  0.0110
 2478WAT     H210633   0.336   0.336   6.359 -1.1975  0.3562  2.9187
 2478WAT    EPW10634   0.407   0.356   6.385  0.2630 -0.8666  0.3016
 2479WAT      O10635   7.492   1.120   5.149 -0.1016 -0.3954 -0.4166
 2479WAT     H110636   7.503   1.056   5.091 -0.0842 -0.5707 -0.2212
 2479WAT     H210637   7.476   1.078   5.223  1.2889 -0.2169  0.0182
 2479WAT    EPW10638   7.492   1.105   5.151  0.1064 -0.3949 -0.3235
 2480WAT      O10639   7.666   2.477   6.471 -0.2988  0.7840 -0.2266
 2480WAT     H110640   7.590   2.515   6.489  0.5046  1.1425  3.1030
 2480WAT     H210641   7.724   2.524   6.517  1.6895 -0.5022 -1.2690
 2480WAT    EPW10642   7.663   2.489   6.481  0.1136  0.6469  0.1113
 2481WAT      O10643   0.775   3.243   5.691  0.1206 -0.3120 -0.3320
 2481WAT     H110644   0.775   3.186   5.626  0.0671 -0.6445 -0.0420
 2481WAT     H210645   0.727   3.309   5.661 -0.4364 -0.7394 -0.3873
 2481WAT    EPW10646   0.768   3.245   5.677  0.0304 -0.4242 -0.2973
 2482WAT      O10647   4.922   5.597   7.144  0.2190 -0.3129 -0.2973
 2482WAT     H110648   4.936   5.656   7.206  0.7357 -0.6278 -0.1014
 2482WAT     H210649   4.859   5.632   7.095 -0.2813 -0.1167  0.4769
 2482WAT    EPW10650   4.915   5.611   7.146  0.2214 -0.3305 -0.1540
 2483WAT      O10651   5.779   6.194   7.703 -0.0140  0.0545  0.2164
 2483WAT     H110652   5.723   6.193   7.637 -0.9254  2.2349  0.8784
 2483WAT     H210653   5.731   6.167   7.771  0.0591  0.7622  0.5564
 2483WAT    EPW10654   5.764   6.190   7.704 -0.1378  0.4812  0.3644
 2484WAT      O10655   6.871   3.710   0.242  0.1663  0.4751 -0.1930
 2484WAT     H110656   6.790   3.698   0.212  1.4028 -0.7788 -3.5002
 2484WAT     H210657   6.874   3.659   0.313 -1.5763 -0.4978 -0.7506
 2484WAT    EPW10658   6.860   3.701   0.248  0.0915  0.1462 -0.7639
 2485WAT      O10659   5.989   5.627   0.975 -0.1863  0.5571  0.0706
 2485WAT     H110660   6.058   5.578   0.954  1.0103  1.9712  0.5371
 2485WAT     H210661   6.021   5.708   0.980 -2.1753  1.5342 -1.2085
 2485WAT    EPW10662   6.004   5.632   0.972 -0.3033  0.9103 -0.0494
 2486WAT      O10663   5.511   0.152   0.461  0.0757  0.0574  0.5482
 2486WAT     H110664   5.513   0.227   0.505  1.4101 -0.4380  1.4175
 2486WAT     H210665   5.581   0.156   0.409 -1.1645  0.3840 -1.1549
 2486WAT    EPW10666   5.522   0.163   0.460  0.0896  0.0325  0.4251
 2487WAT      O10667   0.669   5.939   5.301  0.0245  0.5413 -1.0025
 2487WAT     H110668   0.620   5.881   5.345  2.4385 -0.8003  0.1025
 2487WAT     H210669   0.615   5.969   5.240 -2.3710 -0.3044  0.5503
 2487WAT    EPW10670   0.654   5.935   5.299  0.0272  0.2182 -0.6099
 2488WAT      O10671   5.592   5.813   1.562 -0.0963  0.5629 -0.3195
 2488WAT     H110672   5.510   5.836   1.581 -0.8626 -0.0573 -2.6130
 2488WAT     H210673   5.621   5.879   1.513 -0.2860 -0.5250 -1.9823
 2488WAT    EPW10674   5.584   5.826   1.558 -0.2375  0.3106 -0.9039
 2489WAT      O10675   6.935   7.639   4.483 -0.0277 -0.5172 -0.9513
 2489WAT     H110676   6.854   7.660   4.461  0.0985 -0.3180 -1.2347
 2489WAT     H210677   6.966   7.600   4.411  0.6706  0.9013 -1.4422
 2489WAT    EPW10678   6.928   7.636   4.469  0.0941 -0.2782 -1.0656
 2490WAT      O10679   4.643   3.789   3.675  0.0441  0.3890  0.0447
 2490WAT     H110680   4.652   3.812   3.591 -1.1658 -1.6653 -0.7144
 2490WAT     H210681   4.596   3.854   3.709 -3.3729 -0.7193 -2.0463
 2490WAT    EPW10682   4.637   3.802   3.668 -0.6394 -0.0782 -0.3763
 2491WAT      O10683   4.201   6.171   6.059 -0.4464  0.4543 -0.1734
 2491WAT     H110684   4.227   6.247   6.095  1.7131 -0.6841  0.8705
 2491WAT     H210685   4.114   6.174   6.066 -0.3743  2.4563  0.6446
 2491WAT    EPW10686   4.192   6.183   6.066 -0.1168  0.5819  0.1017
 2492WAT      O10687   0.541   1.932   6.826  0.0835 -0.2130  0.1977
 2492WAT     H110688   0.512   2.014   6.815  2.4271  0.6928  0.3812
 2492WAT     H210689   0.528   1.918   6.912 -0.4187 -0.1059  0.1471
 2492WAT    EPW10690   0.535   1.942   6.837  0.3555 -0.0634  0.2173
 2493WAT      O10691   6.196   1.607   2.828  0.4779 -1.0429 -0.8275
 2493WAT     H110692   6.208   1.576   2.909 -1.0506 -0.2486 -0.2555
 2493WAT     H210693   6.248   1.678   2.826 -2.8329  1.7908  1.2681
 2493WAT    EPW10694   6.205   1.613   2.840 -0.2370 -0.5070 -0.4334
 2494WAT      O10695   5.989   7.691   0.204 -0.6850 -0.2648 -0.1515
 2494WAT     H110696   5.978   7.762   0.154  0.6853  1.6841  2.1495
 2494WAT     H210697   5.909   7.656   0.206 -1.3798  1.1060 -1.4421
 2494WAT    EPW10698   5.975   7.696   0.197 -0.5852  0.2256 -0.0022
 2495WAT      O10699   6.280   0.955   4.942 -0.1901 -0.5409  0.1038
 2495WAT     H110700   6.353   0.924   4.979 -0.0838  0.0853  0.4302
 2495WAT     H210701   6.291   1.042   4.943 -0.5090 -0.4828 -0.7442
 2495WAT    EPW10702   6.292   0.963   4.948 -0.2215 -0.4398  0.0268
 2496WAT      O10703   0.861   0.919   6.829 -0.1265 -0.4118 -0.2477
 2496WAT     H110704   0.798   0.964   6.869  0.2789 -0.2604  0.2319
 2496WAT     H210705   0.886   0.861   6.889  1.8234  1.0530  0.4771
 2496WAT    EPW10706   0.855   0.917   6.844  0.2214 -0.1731 -0.0698
 2497WAT      O10707   6.094   3.949   6.978  0.6848  0.9739 -0.3819
 2497WAT     H110708   6.047   3.889   7.021  1.4673  0.2897 -0.4605
 2497WAT     H210709   6.148   3.981   7.039  1.0462  0.7887 -0.6025
 2497WAT    EPW10710   6.095   3.945   6.994  0.8538  0.8455 -0.4261
 2498WAT      O10711   0.805   0.546   5.773  0.0674  0.4258  0.3772
 2498WAT     H110712   0.731   0.513   5.742 -1.3756  0.2167  3.6459
 2498WAT     H210713   0.865   0.487   5.750 -0.8632  0.2011 -1.6534
 2498WAT    EPW10714   0.803   0.532   5.765 -0.2832  0.3617  0.5601
 2499WAT      O10715   4.239   2.369   4.545 -0.4116 -1.0341  0.1068
 2499WAT     H110716   4.266   2.449   4.525 -0.2543 -0.9099  0.8033
 2499WAT     H210717   4.250   2.364   4.631 -2.6789 -0.9737  0.4537
 2499WAT    EPW10718   4.245   2.380   4.555 -0.7233 -1.0068  0.2609
 2500WAT      O10719   5.132   7.491   5.777  0.7558 -0.3870  0.1806
 2500WAT     H110720   5.102   7.487   5.696  1.0940 -1.7632  0.1041
 2500WAT     H210721   5.062   7.474   5.826  0.1750  1.9947  0.3067
 2500WAT    EPW10722   5.118   7.488   5.772  0.7200 -0.2384  0.1879
 2501WAT      O10723   0.300   0.793   5.380 -0.2313  0.2516  0.2859
 2501WAT     H110724   0.317   0.869   5.341 -0.2814  0.7006  1.1139
 2501WAT     H210725   0.378   0.765   5.407 -0.3428  0.5724  0.9689
 2501WAT    EPW10726   0.314   0.800   5.378 -0.2552  0.3653  0.5091
 2502WAT      O10727   4.703   0.304   0.388 -0.1314  0.5008 -0.3173
 2502WAT     H110728   4.618   0.285   0.375 -0.5730  1.4544  0.9343
 2502WAT     H210729   4.718   0.272   0.468  0.9453 -0.4100 -0.8623
 2502WAT    EPW10730   4.693   0.296   0.398 -0.0376  0.5071 -0.2130
 2503WAT      O10731   5.795   4.228   6.079 -0.1695 -0.4154  0.8275
 2503WAT     H110732   5.852   4.287   6.048 -0.6307 -0.0503  0.6562
 2503WAT     H210733   5.744   4.212   6.010 -0.8399 -0.0490  1.2312
 2503WAT    EPW10734   5.796   4.234   6.064 -0.3366 -0.3073  0.8618
 2504WAT      O10735   1.189   2.863   7.284 -0.0129 -0.1605  0.1119
 2504WAT     H110736   1.175   2.938   7.327  0.3121  0.3652 -0.6799
 2504WAT     H210737   1.164   2.802   7.341 -2.0690  0.6010  0.1188
 2504WAT    EPW10738   1.183   2.865   7.299 -0.2686  0.0296 -0.0040
 2505WAT      O10739   2.779   0.705   0.928 -0.2011  0.5475 -0.6030
 2505WAT     H110740   2.845   0.651   0.947 -1.0401 -0.9125 -1.6751
 2505WAT     H210741   2.807   0.782   0.958  1.6174 -0.1964 -0.2495
 2505WAT    EPW10742   2.793   0.708   0.935 -0.0564  0.2220 -0.7092
 2506WAT      O10743   7.370   7.358   7.036 -0.5383  0.2601  0.0419
 2506WAT     H110744   7.444   7.378   6.994  0.3398 -1.4996  0.6899
 2506WAT     H210745   7.309   7.369   6.975  0.4532 -0.0181 -1.0377
 2506WAT    EPW10746   7.372   7.363   7.021 -0.2621 -0.0409 -0.0219
 2507WAT      O10747   0.878   1.864   5.258 -0.0668 -0.7856  0.2991
 2507WAT     H110748   0.901   1.932   5.208 -0.3862 -0.3654  0.7180
 2507WAT     H210749   0.886   1.795   5.204 -0.4178 -0.3378 -0.3340
 2507WAT    EPW10750   0.883   1.864   5.243 -0.1658 -0.6574  0.2674
 2508WAT      O10751   3.636   0.681   7.343 -0.2729 -0.0288 -0.0073
 2508WAT     H110752   3.559   0.644   7.327  0.7594 -2.3508 -0.0189
 2508WAT     H210753   3.668   0.697   7.263 -0.1135 -0.5071 -0.0430
 2508WAT    EPW10754   3.630   0.678   7.329 -0.0969 -0.4424 -0.0143
 2509WAT      O10755   5.919   7.100   3.532 -0.1931  0.7460 -0.0311
 2509WAT     H110756   5.883   7.137   3.602 -0.9111  0.0406 -0.0091
 2509WAT     H210757   6.003   7.119   3.539 -0.3882  1.4185  0.5619
 2509WAT    EPW10758   5.926   7.108   3.543 -0.3280  0.7411  0.0598
 2510WAT      O10759   5.878   4.167   6.350 -0.6531  0.2135 -0.4374
 2510WAT     H110760   5.810   4.143   6.398  1.2937 -0.8366  1.9834
 2510WAT     H210761   5.841   4.193   6.275 -3.8707  1.8339  1.4652
 2510WAT    EPW10762   5.862   4.167   6.346 -0.8409  0.2977  0.2013
 2511WAT      O10763   6.112   3.118   0.849  0.4907 -0.1730  0.2983
 2511WAT     H110764   6.154   3.113   0.773 -1.2185 -2.1828 -0.6032
 2511WAT     H210765   6.032   3.145   0.827 -0.4871 -2.2067  1.1064
 2511WAT    EPW10766   6.106   3.121   0.835  0.0938 -0.7703  0.2845
 2512WAT      O10767   1.803   1.387   3.227 -0.2163  0.1087  0.5043
 2512WAT     H110768   1.839   1.309   3.242 -0.7344 -0.6162 -1.6644
 2512WAT     H210769   1.791   1.388   3.141 -1.3357  2.1181  0.6216
 2512WAT    EPW10770   1.807   1.376   3.216 -0.4582  0.2985  0.2013
 2513WAT      O10771   2.140   7.298   4.659 -0.9725  0.2149  0.1319
 2513WAT     H110772   2.190   7.319   4.591  0.7891  0.8082  1.5340
 2513WAT     H210773   2.107   7.220   4.636  1.3626 -0.6759 -0.5117
 2513WAT    EPW10774   2.142   7.289   4.646 -0.3673  0.1710  0.2440
 2514WAT      O10775   4.615   4.756   3.610 -0.0640 -0.3939  0.3543
 2514WAT     H110776   4.618   4.760   3.523 -0.6782 -0.0094  0.3454
 2514WAT     H210777   4.679   4.701   3.630 -0.1925 -0.8213 -0.3716
 2514WAT    EPW10778   4.625   4.748   3.600 -0.1737 -0.4002  0.2457
 2515WAT      O10779   3.602   1.777   6.618 -0.1408  0.3733 -0.1162
 2515WAT     H110780   3.590   1.785   6.704 -0.1082  0.9286 -0.1542
 2515WAT     H210781   3.545   1.834   6.585  3.0057  3.8282 -0.2812
 2515WAT    EPW10782   3.592   1.787   6.626  0.3289  0.9657 -0.1462
 2516WAT      O10783   3.211   0.766   1.586  0.2845  0.4020 -0.2945
 2516WAT     H110784   3.191   0.790   1.504 -1.1776  0.7921  0.1354
 2516WAT     H210785   3.183   0.684   1.591 -0.5681  0.6963  0.0794
 2516WAT    EPW10786   3.204   0.758   1.575 -0.0574  0.5031 -0.1758
 2517WAT      O10787   6.768   2.911   4.070 -0.2129 -0.1294  0.0134
 2517WAT     H110788   6.749   2.971   4.010  0.8369 -0.4609 -0.6808
 2517WAT     H210789   6.802   2.958   4.136  1.0965  0.0122 -0.7399
 2517WAT    EPW10790   6.770   2.926   4.071  0.1356 -0.1575 -0.2004
 2518WAT      O10791   1.093   0.398   6.016  0.0453  0.1572  0.0131
 2518WAT     H110792   1.112   0.482   6.006  0.3110  0.0497 -0.4532
 2518WAT     H210793   1.082   0.370   5.934 -1.8032  0.1305  0.2232
 2518WAT    EPW10794   1.094   0.406   6.002 -0.1885  0.1374 -0.0248
 2519WAT      O10795   6.080   6.924   5.183  0.0550  0.0210  0.2644
 2519WAT     H110796   6.101   6.990   5.236  0.2402  0.1095  0.0824
 2519WAT     H210797   6.048   6.963   5.112  1.3952 -0.0212 -0.3939
 2519WAT    EPW10798   6.079   6.939   5.180  0.2804  0.0278  0.1403
 2520WAT      O10799   1.568   4.466   0.049  0.2309 -0.2071 -0.5292
 2520WAT     H110800   1.562   4.469  -0.038 -1.6550 -0.8380 -0.4778
 2520WAT     H210801   1.651   4.487   0.065 -0.2239  3.9657 -2.2804
 2520WAT    EPW10802   1.579   4.469   0.039 -0.1149  0.3161 -0.7803
 2521WAT      O10803   7.567   1.540   4.751 -0.1453  0.7107  0.0830
 2521WAT     H110804   7.652   1.523   4.744 -0.2848  0.4045 -1.1107
 2521WAT     H210805   7.547   1.517   4.833  1.0888  1.6477  0.6770
 2521WAT    EPW10806   7.576   1.534   4.762  0.0164  0.8039 -0.0056
 2522WAT      O10807   3.998   6.411   5.540 -0.3628 -0.0795  0.4392
 2522WAT     H110808   3.925   6.458   5.539 -1.2026 -1.3013 -1.0195
 2522WAT     H210809   3.969   6.329   5.550  0.7500 -0.6372 -0.6714
 2522WAT    EPW10810   3.983   6.406   5.541 -0.3225 -0.3423  0.0596
 2523WAT      O10811   6.299   4.871   0.986  0.1827 -0.2079 -0.0541
 2523WAT     H110812   6.222   4.861   0.947  0.6665  2.0585 -1.8250
 2523WAT     H210813   6.324   4.789   1.004 -0.5023 -1.4388 -3.7794
 2523WAT    EPW10814   6.291   4.857   0.983  0.1530 -0.0549 -0.8660
 2524WAT      O10815   5.778   3.628   3.297 -0.0059  0.0591 -0.3471
 2524WAT     H110816   5.710   3.593   3.338  1.6471 -0.2153  2.3447
 2524WAT     H210817   5.761   3.713   3.299 -0.0444  0.0396  0.8106
 2524WAT    EPW10818   5.765   3.635   3.303  0.2326  0.0157  0.2215
 2525WAT      O10819   3.820   3.026   1.085 -0.9534 -0.2335  0.4727
 2525WAT     H110820   3.872   3.020   1.155 -2.4171 -1.9944  1.4995
 2525WAT     H210821   3.799   2.943   1.068 -3.2686  0.3897  0.0088
 2525WAT    EPW10822   3.825   3.013   1.093 -1.5116 -0.4015  0.5559
 2526WAT      O10823   1.579   3.926   6.956 -0.7051 -0.4185 -0.1149
 2526WAT     H110824   1.521   3.929   6.890  0.2814  0.4885 -0.9758
 2526WAT     H210825   1.647   3.970   6.925 -0.3951  0.4869  1.7192
 2526WAT    EPW10826   1.580   3.933   6.941 -0.5135 -0.1507  0.0289
 2527WAT      O10827   3.992   2.517   5.803 -0.6855  0.3376  0.4038
 2527WAT     H110828   4.044   2.505   5.733 -1.2268  1.0982 -0.1467
 2527WAT     H210829   4.048   2.516   5.870  0.1148  1.5652 -0.2087
 2527WAT    EPW10830   4.008   2.515   5.802 -0.6473  0.6313  0.2320
 2528WAT      O10831   4.909   1.585   2.782  0.4435  0.2756 -0.2036
 2528WAT     H110832   4.925   1.559   2.700  0.5423  0.1301 -0.1367
 2528WAT     H210833   4.824   1.567   2.792  0.3288  0.6875 -0.4214
 2528WAT    EPW10834   4.899   1.579   2.771  0.4412  0.3149 -0.2259
 2529WAT      O10835   0.854   4.783   6.280  0.0369 -0.7044 -0.1519
 2529WAT     H110836   0.822   4.864   6.292  0.4617 -0.2524 -1.7951
 2529WAT     H210837   0.934   4.788   6.315 -0.3370 -0.7524  0.7275
 2529WAT    EPW10838   0.861   4.796   6.287  0.0444 -0.6447 -0.2647
 2530WAT      O10839   7.737   2.223   7.797  0.4423 -0.3037 -0.0145
 2530WAT     H110840   7.652   2.223   7.778  0.8169  1.8027 -2.0107
 2530WAT     H210841   7.746   2.150   7.845 -2.5080 -0.4271  0.5924
 2530WAT    EPW10842   7.726   2.212   7.801  0.0618 -0.0107 -0.2197
 2531WAT      O10843   5.958   2.128   3.729  0.0942 -0.2620  0.7891
 2531WAT     H110844   5.898   2.112   3.790 -0.4116  0.3100  0.4567
 2531WAT     H210845   5.973   2.214   3.738  0.2502 -0.2384  0.3190
 2531WAT    EPW10846   5.952   2.139   3.739  0.0425 -0.1740  0.6706
 2532WAT      O10847   4.787   6.092   1.388 -0.2254  0.5496 -0.0725
 2532WAT     H110848   4.869   6.121   1.390 -0.0506  0.0555 -0.1091
 2532WAT     H210849   4.788   6.022   1.440 -0.4489  0.0800 -0.6938
 2532WAT    EPW10850   4.799   6.086   1.396 -0.2326  0.4072 -0.1697
 2533WAT      O10851   6.642   3.844   7.405 -0.4432 -0.6475  0.0795
 2533WAT     H110852   6.657   3.929   7.387 -0.2955 -0.8463 -0.7791
 2533WAT     H210853   6.649   3.805   7.327  1.8991 -1.7956  0.7533
 2533WAT    EPW10854   6.645   3.851   7.391 -0.0753 -0.8464  0.0522
 2534WAT      O10855   2.832   6.775   4.222  0.4490 -0.1385  0.2492
 2534WAT     H110856   2.819   6.699   4.261  0.4480  0.7795  2.1774
 2534WAT     H210857   2.815   6.759   4.138 -2.6124 -1.5393  1.0047
 2534WAT    EPW10858   2.828   6.762   4.215 -0.0034 -0.2098  0.6457
 2535WAT      O10859   3.225   3.813   1.986 -0.5628 -0.2251  0.0616
 2535WAT     H110860   3.296   3.854   1.958  0.1604 -2.0632 -0.9514
 2535WAT     H210861   3.173   3.812   1.916 -1.4802  0.7864  0.6901
 2535WAT    EPW10862   3.228   3.819   1.972 -0.5915 -0.3472  0.0048
 2536WAT      O10863   6.847   0.456   7.321  0.2374  0.0131 -0.4123
 2536WAT     H110864   6.862   0.375   7.349  1.4760  0.9947  1.9981
 2536WAT     H210865   6.790   0.488   7.378  0.7574  1.2503 -0.5545
 2536WAT    EPW10866   6.841   0.449   7.333  0.4972  0.3408 -0.0772
 2537WAT      O10867   6.879   5.590   4.303  0.3713 -0.5080 -0.0684
 2537WAT     H110868   6.826   5.631   4.247 -0.2278  0.3091  1.0664
 2537WAT     H210869   6.840   5.514   4.318 -0.4641  0.0602  0.7056
 2537WAT    EPW10870   6.865   5.585   4.297  0.1594 -0.3034  0.2136
 2538WAT      O10871   6.103   7.230   1.661 -0.0775 -0.4355 -0.4583
 2538WAT     H110872   6.125   7.153   1.694 -0.9463 -0.3017  0.4993
 2538WAT     H210873   6.024   7.215   1.627 -1.1751  0.4287  1.4945
 2538WAT    EPW10874   6.094   7.216   1.661 -0.3680 -0.2881 -0.0284
 2539WAT      O10875   3.084   2.022   2.627  0.3055 -0.2498  0.3292
 2539WAT     H110876   3.119   2.097   2.600 -0.6820  0.6184  1.3830
 2539WAT     H210877   3.105   2.019   2.711 -0.8812 -0.4414  0.6325
 2539WAT    EPW10878   3.092   2.032   2.635 -0.0156 -0.1499  0.5297
 2540WAT      O10879   3.800   0.489   2.767  0.1247  0.1421  0.6069
 2540WAT     H110880   3.870   0.460   2.724 -1.2224 -0.7152 -1.1214
 2540WAT     H210881   3.748   0.518   2.704 -0.8159  1.4197  1.9160
 2540WAT    EPW10882   3.803   0.489   2.752 -0.2132  0.2042  0.5450
 2541WAT      O10883   0.036   3.226   4.868  0.0460  0.0716 -0.3789
 2541WAT     H110884   0.102   3.254   4.916 -0.3125  1.1998 -0.5152
 2541WAT     H210885   0.065   3.234   4.786  0.4204 -1.2376 -0.3939
 2541WAT    EPW10886   0.050   3.231   4.863  0.0484  0.0449 -0.4013
 2542WAT      O10887   1.088   7.126   5.710 -0.1100  0.6768  0.1016
 2542WAT     H110888   1.032   7.061   5.696 -0.4855  0.6918  1.4164
 2542WAT     H210889   1.122   7.106   5.788  1.6262  0.7398 -0.6029
 2542WAT    EPW10890   1.085   7.113   5.719  0.0910  0.6883  0.1917
 2543WAT      O10891   5.484   2.099   7.129  0.9447  0.1119 -0.1384
 2543WAT     H110892   5.478   2.021   7.167  0.5777  0.3754  0.3416
 2543WAT     H210893   5.420   2.098   7.069  1.5198 -0.3003 -0.7670
 2543WAT    EPW10894   5.474   2.088   7.125  0.9754  0.0900 -0.1603
 2544WAT      O10895   2.217   0.748   4.981 -0.1217 -0.1670 -0.5674
 2544WAT     H110896   2.241   0.735   4.899  2.1249  0.7520 -0.1355
 2544WAT     H210897   2.146   0.799   4.974  0.4293  0.4425 -1.9268
 2544WAT    EPW10898   2.210   0.754   4.968  0.2916  0.0588 -0.7044
 2545WAT      O10899   6.370   3.586   5.198  0.1057  0.4775 -0.0849
 2545WAT     H110900   6.413   3.613   5.127 -0.1356 -0.7270 -0.7062
 2545WAT     H210901   6.318   3.654   5.216 -0.1183  0.6543 -1.3021
 2545WAT    EPW10902   6.368   3.600   5.190  0.0370  0.3257 -0.3565
 2546WAT      O10903   4.877   1.301   2.885 -0.3331 -0.2745  0.1252
 2546WAT     H110904   4.887   1.387   2.896 -2.7238  0.0276  0.4706
 2546WAT     H210905   4.910   1.267   2.959 -1.1452  0.5099  0.8641
 2546WAT    EPW10906   4.884   1.308   2.898 -0.8062 -0.1140  0.2854
 2547WAT      O10907   5.244   0.804   5.580 -0.3165 -0.1906  0.2679
 2547WAT     H110908   5.318   0.760   5.562 -0.2787  0.6429 -1.9329
 2547WAT     H210909   5.181   0.747   5.559 -0.3456 -0.8422  1.9875
 2547WAT    EPW10910   5.246   0.789   5.574 -0.3152 -0.1638  0.1968
 2548WAT      O10911   6.571   6.339   5.170 -0.0948 -0.3483  0.3464
 2548WAT     H110912   6.613   6.282   5.221 -0.5719  0.0274  1.1837
 2548WAT     H210913   6.523   6.288   5.117 -0.6711 -0.7443  1.2191
 2548WAT    EPW10914   6.570   6.323   5.170 -0.2504 -0.3513  0.5990
 2549WAT      O10915   5.717   0.688   4.232 -0.2114 -0.1483  0.0530
 2549WAT     H110916   5.799   0.714   4.244  0.4041 -1.6070 -0.8047
 2549WAT     H210917   5.678   0.707   4.308  1.3591 -1.0233  1.1165
 2549WAT    EPW10918   5.723   0.694   4.245  0.1115 -0.4930  0.0834
 2550WAT      O10919   4.817   6.513   7.190  1.1785 -0.6749 -0.9003
 2550WAT     H110920   4.751   6.558   7.156  1.6689  0.7109 -0.1074
 2550WAT     H210921   4.778   6.449   7.235  0.4613 -0.9575 -1.8947
 2550WAT    EPW10922   4.801   6.510   7.192  1.1450 -0.5119 -0.9301
 2551WAT      O10923   4.690   0.812   4.840  0.2684 -0.6020 -0.2403
 2551WAT     H110924   4.724   0.809   4.920  1.0132 -0.7458 -0.5549
 2551WAT     H210925   4.759   0.803   4.788 -0.0308  0.8216 -0.9254
 2551WAT    EPW10926   4.705   0.810   4.844  0.3342 -0.4129 -0.3880
 2552WAT      O10927   7.522   4.205   4.570  0.0707 -0.1090 -0.6068
 2552WAT     H110928   7.540   4.181   4.488  1.2342  2.3387 -1.1713
 2552WAT     H210929   7.470   4.275   4.561 -1.0611 -0.7252  0.8045
 2552WAT    EPW10930   7.517   4.212   4.557  0.0753  0.1616 -0.4817
 2553WAT      O10931   0.496   5.243   5.736 -0.0368  0.3114  0.5658
 2553WAT     H110932   0.446   5.277   5.674  1.7825  1.8357 -0.1789
 2553WAT     H210933   0.577   5.267   5.713  1.3098 -3.2206  0.8624
 2553WAT    EPW10934   0.501   5.251   5.724  0.4309  0.0148  0.4996
 2554WAT      O10935   6.711   4.631   6.025  0.1654  0.3024 -0.1024
 2554WAT     H110936   6.733   4.651   5.944 -1.3155  0.6049 -0.4620
 2554WAT     H210937   6.723   4.545   6.029  0.4115  0.3127 -0.5803
 2554WAT    EPW10938   6.716   4.621   6.014 -0.0170  0.3486 -0.2261
 2555WAT      O10939   1.597   0.958   0.158 -0.0058 -0.1823 -0.7153
 2555WAT     H110940   1.598   0.892   0.101  0.5564 -0.2000 -0.6877
 2555WAT     H210941   1.566   0.922   0.231 -0.9463 -0.1066 -1.0640
 2555WAT    EPW10942   1.593   0.943   0.160 -0.0617 -0.1737 -0.7628
 2556WAT      O10943   3.725   2.250   7.091 -0.5030  0.3855  0.1812
 2556WAT     H110944   3.707   2.271   7.008  0.3916  0.9209  0.1080
 2556WAT     H210945   3.724   2.327   7.133  0.6778  0.3403  0.3341
 2556WAT    EPW10946   3.723   2.264   7.085 -0.1964  0.4580  0.1930
 2557WAT      O10947   5.585   1.154   0.083  0.0391 -0.1411  0.2079
 2557WAT     H110948   5.500   1.134   0.074 -0.0674  0.4517 -0.1121
 2557WAT     H210949   5.609   1.178   0.003 -0.1183  2.0641  0.7587
 2557WAT    EPW10950   5.576   1.154   0.070  0.0001  0.2723  0.2420
 2558WAT      O10951   5.165   7.619   1.472 -0.8236 -0.1297  0.0122
 2558WAT     H110952   5.116   7.632   1.543 -2.8352  2.6425 -1.7129
 2558WAT     H210953   5.161   7.696   1.430  0.7458 -1.4719 -2.8490
 2558WAT    EPW10954   5.157   7.633   1.476 -0.8889  0.0815 -0.6653
 2559WAT      O10955   5.829   4.890   2.031  0.0609  0.2377  0.1592
 2559WAT     H110956   5.817   4.849   2.107 -0.6215  0.1834  0.0297
 2559WAT     H210957   5.901   4.937   2.044 -0.4307  0.7642  1.0626
 2559WAT    EPW10958   5.838   4.891   2.044 -0.1125  0.3075  0.2735
 2560WAT      O10959   5.808   0.897   6.548  0.0738 -0.3218 -0.2208
 2560WAT     H110960   5.862   0.925   6.611 -0.0582 -1.1680  0.2807
 2560WAT     H210961   5.730   0.926   6.574 -0.0744 -1.1777  0.3382
 2560WAT    EPW10962   5.805   0.905   6.561  0.0324 -0.5732 -0.0642
 2561WAT      O10963   4.659   4.274   2.747 -0.4238  0.0321  0.2563
 2561WAT     H110964   4.654   4.294   2.663 -0.8114 -0.8983  0.0381
 2561WAT     H210965   4.610   4.334   2.786  0.7229  1.1891 -0.0382
 2561WAT    EPW10966   4.651   4.286   2.741 -0.3117  0.0656  0.1806
 2562WAT      O10967   7.352   3.221   7.545 -0.0812  0.0147 -0.1114
 2562WAT     H110968   7.353   3.307   7.527  0.8583  0.0652  0.1339
 2562WAT     H210969   7.306   3.217   7.619  0.0468  0.3379 -0.0118
 2562WAT    EPW10970   7.345   3.233   7.553  0.0765  0.0699 -0.0605
 2563WAT      O10971   5.814   4.164   4.253 -0.1111 -0.5368  0.3111
 2563WAT     H110972   5.841   4.146   4.172 -2.1580 -0.4393 -0.4541
 2563WAT     H210973   5.728   4.151   4.250 -0.4570  0.8087  2.1004
 2563WAT    EPW10974   5.805   4.160   4.241 -0.4646 -0.3236  0.4624
 2564WAT      O10975   0.466   3.197   4.813  0.0302 -0.9713 -0.0690
 2564WAT     H110976   0.546   3.233   4.814  0.1281 -1.1749  1.0106
 2564WAT     H210977   0.481   3.113   4.798  0.0871 -1.1208  0.7645
 2564WAT    EPW10978   0.480   3.190   4.811  0.0531 -1.0234  0.2136
 2565WAT      O10979   6.043   1.963   1.789 -0.3813 -0.4516 -0.2022
 2565WAT     H110980   6.073   2.011   1.722  2.6097 -0.3791  1.0151
 2565WAT     H210981   5.969   2.003   1.811  0.0542  1.3037 -1.6292
 2565WAT    EPW10982   6.037   1.976   1.782  0.1249 -0.1816 -0.2332
 2566WAT      O10983   4.243   4.815   1.182 -0.1769  0.3189 -0.3729
 2566WAT     H110984   4.317   4.776   1.157 -0.5794  0.2622 -1.5361
 2566WAT     H210985   4.221   4.863   1.113 -0.2119  1.8810  0.6714
 2566WAT    EPW10986   4.251   4.817   1.168 -0.2415  0.5413 -0.3905
 2567WAT      O10987   4.273   6.966   6.411 -0.5252 -0.6270  0.0470
 2567WAT     H110988   4.289   6.880   6.409  1.9132 -0.2910  1.0999
 2567WAT     H210989   4.290   6.988   6.494  0.6975  1.1018 -0.5981
 2567WAT    EPW10990   4.278   6.956   6.423  0.0156 -0.3220  0.1073
 2568WAT      O10991   5.615   2.851   5.035  0.5599  0.3532  0.2166
 2568WAT     H110992   5.599   2.911   4.973 -1.5027 -0.1495  0.1879
 2568WAT     H210993   5.609   2.897   5.109  0.5404  0.4825  0.1361
 2568WAT    EPW10994   5.612   2.867   5.036  0.2523  0.2980  0.2005
 2569WAT      O10995   2.814   5.553   1.880  0.2788  0.4086  0.4980
 2569WAT     H110996   2.758   5.590   1.825 -2.4457 -3.4299  0.2573
 2569WAT     H210997   2.880   5.528   1.828 -0.2750  0.4873 -0.2572
 2569WAT    EPW10998   2.816   5.555   1.864 -0.2055 -0.1468  0.3509
 2570WAT      O10999   5.981   5.695   1.588  0.1768 -0.6879  0.0824
 2570WAT     H111000   6.055   5.737   1.568 -0.9467  0.2598 -2.4883
 2570WAT     H211001   5.937   5.754   1.636  0.4689 -0.7022  0.3747
 2570WAT    EPW11002   5.985   5.710   1.592  0.0540 -0.5500 -0.2542
 2571WAT      O11003   7.046   3.800   4.599  0.4340 -0.4570  0.5712
 2571WAT     H111004   7.133   3.801   4.595  0.3976  0.1951 -0.5030
 2571WAT     H211005   7.026   3.881   4.626  0.1336 -0.1308 -0.5672
 2571WAT    EPW11006   7.056   3.812   4.602  0.3842 -0.3125  0.2444
 2572WAT      O11007   6.152   1.282   1.771  0.5111 -0.1533 -0.6565
 2572WAT     H111008   6.205   1.344   1.740  1.1544 -0.7721 -0.8116
 2572WAT     H211009   6.077   1.296   1.728 -0.6539  2.8602  1.9746
 2572WAT    EPW11010   6.148   1.293   1.760  0.4340  0.2004 -0.2908
 2573WAT      O11011   6.012   3.341   5.391  0.3715  0.0634 -0.5367
 2573WAT     H111012   5.933   3.354   5.356 -1.0307 -2.0020  1.5329
 2573WAT     H211013   6.027   3.415   5.435 -1.9686 -0.5658  1.5964
 2573WAT    EPW11014   6.002   3.354   5.392 -0.1814 -0.3347  0.0842
 2574WAT      O11015   2.461   3.771   1.388  1.0566  0.3485  0.1164
 2574WAT     H111016   2.541   3.801   1.375  1.2513 -0.8835 -1.9216
 2574WAT     H211017   2.435   3.745   1.309 -0.1129 -2.1809  1.2034
 2574WAT    EPW11018   2.469   3.771   1.375  0.9126 -0.2072 -0.0241
 2575WAT      O11019   6.424   2.027   0.431  0.1648 -0.1516  0.2748
 2575WAT     H111020   6.480   2.094   0.440 -0.2117  0.0461  1.2143
 2575WAT     H211021   6.437   2.001   0.349 -0.3476  1.6841 -0.4419
 2575WAT    EPW11022   6.434   2.033   0.420  0.0335  0.1487  0.3077
 2576WAT      O11023   5.128   2.585   3.139  0.1528  0.2466  0.7875
 2576WAT     H111024   5.060   2.637   3.159 -0.7596 -0.5693 -0.1258
 2576WAT     H211025   5.098   2.536   3.074  1.1982 -1.0143  1.2160
 2576WAT    EPW11026   5.113   2.585   3.133  0.1725 -0.0602  0.7159
 2577WAT      O11027   5.391   2.840   1.729  0.3850 -0.0855 -0.0391
 2577WAT     H111028   5.362   2.875   1.803 -0.7788 -1.2831  0.1092
 2577WAT     H211029   5.318   2.812   1.690  0.8866  1.1913 -2.0217
 2577WAT    EPW11030   5.376   2.841   1.734  0.2872 -0.0738 -0.3101
 2578WAT      O11031   4.056   0.879   3.125 -0.4925  0.2168 -0.0524
 2578WAT     H111032   4.112   0.832   3.173  2.1712  1.3521 -1.8537
 2578WAT     H211033   4.017   0.930   3.184  1.1656  0.1354  1.2044
 2578WAT    EPW11034   4.059   0.879   3.141  0.1459  0.3725 -0.1328
 2579WAT      O11035   6.408   1.660   4.844  0.5487 -0.3080  0.0302
 2579WAT     H111036   6.488   1.645   4.875  0.3965  2.0254  1.8036
 2579WAT     H211037   6.422   1.713   4.776  0.5027  0.9055  0.9415
 2579WAT    EPW11038   6.422   1.666   4.839  0.5194  0.2160  0.4268
 2580WAT      O11039   5.519   1.155   2.591 -0.2400 -0.0748 -0.2400
 2580WAT     H111040   5.501   1.143   2.676 -3.2480 -1.6347 -0.9696
 2580WAT     H211041   5.592   1.108   2.579 -0.6098 -1.0941  1.2077
 2580WAT    EPW11042   5.527   1.146   2.602 -0.7390 -0.4558 -0.1339
 2581WAT      O11043   3.041   0.297   4.759 -0.0786  0.2719 -0.7537
 2581WAT     H111044   3.094   0.228   4.758 -0.1374  0.2176 -0.1873
 2581WAT     H211045   3.040   0.323   4.676  0.4799  0.0007 -0.8491
 2581WAT    EPW11046   3.048   0.291   4.747 -0.0048  0.2238 -0.6841
 2582WAT      O11047   5.656   0.020   6.745 -0.9515  0.1284  0.2292
 2582WAT     H111048   5.633   0.027   6.661 -0.5715  2.1791  0.2498
 2582WAT     H211049   5.651   0.102   6.774 -0.1867 -0.4127  1.9825
 2582WAT    EPW11050   5.652   0.033   6.736 -0.7824  0.3514  0.4913
 2583WAT      O11051   3.212   4.764   2.954 -0.1998  0.0842  0.6642
 2583WAT     H111052   3.210   4.765   2.867 -1.5113 -1.9217  0.6240
 2583WAT     H211053   3.266   4.698   2.973 -0.0397  0.4121  1.4030
 2583WAT    EPW11054   3.220   4.754   2.944 -0.3699 -0.1637  0.7674
 2584WAT      O11055   4.549   0.361   2.600  0.4573  0.3782  0.1287
 2584WAT     H111056   4.517   0.375   2.680 -1.7238 -0.6813 -0.4762
 2584WAT     H211057   4.571   0.277   2.601 -2.2748 -0.4816 -1.1100
 2584WAT    EPW11058   4.547   0.351   2.612 -0.2685  0.0947 -0.1436
 2585WAT      O11059   6.828   7.535   7.261 -0.2522  0.1417  0.1056
 2585WAT     H111060   6.812   7.451   7.280  1.4278 -0.1175  0.4669
 2585WAT     H211061   6.911   7.536   7.235 -0.8139  1.3942 -1.8892
 2585WAT    EPW11062   6.838   7.523   7.260 -0.0870  0.2884 -0.1357
 2586WAT      O11063   7.677   4.710   7.822  0.1395 -0.0427  0.0885
 2586WAT     H111064   7.654   4.642   7.772 -1.2029 -0.0848  0.7200
 2586WAT     H211065   7.634   4.777   7.787  1.6565  0.5844 -0.6877
 2586WAT    EPW11066   7.667   4.710   7.809  0.1653  0.0437  0.0671
 2587WAT      O11067   3.472   2.589   1.594 -0.0933 -0.0527 -0.2566
 2587WAT     H111068   3.528   2.531   1.627 -0.5098 -1.0087 -1.1859
 2587WAT     H211069   3.523   2.651   1.561  0.3523  0.5178  1.3999
 2587WAT    EPW11070   3.487   2.590   1.594 -0.0890 -0.1097 -0.1492
 2588WAT      O11071   2.074   0.788   0.158  0.4157 -0.7343 -0.0808
 2588WAT     H111072   2.030   0.749   0.222  1.4376 -3.4142 -0.8593
 2588WAT     H211073   2.023   0.776   0.088 -0.4907  1.7893  0.0579
 2588WAT    EPW11074   2.060   0.780   0.157  0.4328 -0.7574 -0.1753
 2589WAT      O11075   5.307   2.719   7.616  0.0770 -0.5937  0.0578
 2589WAT     H111076   5.379   2.681   7.648  0.8991 -0.6602 -1.7468
 2589WAT     H211077   5.339   2.780   7.562 -1.2253 -0.9519 -1.1573
 2589WAT    EPW11078   5.322   2.723   7.613  0.0060 -0.6564 -0.3883
 2590WAT      O11079   4.596   1.031   5.133  0.4825 -0.0125 -0.0912
 2590WAT     H111080   4.653   0.966   5.126  3.9672  2.6690  0.6128
 2590WAT     H211081   4.630   1.082   5.195 -0.9853  3.3954 -1.7959
 2590WAT    EPW11082   4.609   1.029   5.141  0.7804  0.8871 -0.2390
 2591WAT      O11083   1.449   0.430   5.593  0.2194 -0.2187  0.6731
 2591WAT     H111084   1.399   0.440   5.523 -0.8400  0.6127  1.5276
 2591WAT     H211085   1.527   0.460   5.568  0.3167 -1.4916 -0.6543
 2591WAT    EPW11086   1.453   0.436   5.579  0.0773 -0.2839  0.6033
 2592WAT      O11087   5.646   3.175   2.553 -0.3313 -0.6427  0.0958
 2592WAT     H111088   5.620   3.240   2.606  0.3318 -0.1672 -0.1439
 2592WAT     H211089   5.623   3.103   2.596  3.5434 -0.4988  2.9863
 2592WAT    EPW11090   5.639   3.174   2.567  0.3390 -0.5512  0.4874
 2593WAT      O11091   5.023   6.860   3.360  0.4187  0.0588 -0.0238
 2593WAT     H111092   5.061   6.930   3.396  0.6838 -0.2076  0.2153
 2593WAT     H211093   4.940   6.867   3.387  0.7050 -0.3795  1.0378
 2593WAT    EPW11094   5.016   6.872   3.369  0.5002 -0.0453  0.1683
 2594WAT      O11095   4.746   2.250   7.324 -0.1529 -0.7060  0.4563
 2594WAT     H111096   4.720   2.332   7.313 -0.0471 -0.8764 -1.2945
 2594WAT     H211097   4.766   2.246   7.409 -0.6373  0.9197  0.6779
 2594WAT    EPW11098   4.745   2.261   7.335 -0.2088 -0.4910  0.2304
 2595WAT      O11099   2.468   1.491   4.229  0.0835  0.3432 -0.1432
 2595WAT     H111100   2.494   1.523   4.306  0.3065  0.9858 -0.4730
 2595WAT     H211101   2.381   1.499   4.231 -0.0244 -0.8783  0.5653
 2595WAT    EPW11102   2.459   1.497   4.240  0.1005  0.2577 -0.0873
 2596WAT      O11103   7.129   3.287   5.856  0.8079 -0.1237  0.1411
 2596WAT     H111104   7.142   3.316   5.938  2.0795  0.8069 -0.3445
 2596WAT     H211105   7.122   3.361   5.810 -0.2157 -0.6438 -0.5558
 2596WAT    EPW11106   7.130   3.302   5.862  0.8445 -0.0630 -0.0336
 2597WAT      O11107   0.519   3.517   5.869 -0.0523 -0.2590 -0.7177
 2597WAT     H111108   0.547   3.454   5.922 -0.3468 -0.2412 -0.5358
 2597WAT     H211109   0.578   3.519   5.805  0.6309  0.1094 -0.0865
 2597WAT    EPW11110   0.532   3.508   5.868  0.0051 -0.2020 -0.5976
 2598WAT      O11111   5.395   2.673   1.325 -0.9365  1.1122  0.0738
 2598WAT     H111112   5.446   2.716   1.380  0.6221 -0.3937 -0.1281
 2598WAT     H211113   5.384   2.729   1.259  0.0592  1.6450  0.3440
 2598WAT    EPW11114   5.401   2.688   1.323 -0.5592  0.9684  0.0839
 2599WAT      O11115   4.537   7.555   6.900 -0.4016  0.6797  0.4357
 2599WAT     H111116   4.590   7.610   6.942  1.6020  0.0183 -1.0926
 2599WAT     H211117   4.498   7.606   6.841 -0.7775  0.9794  0.9285
 2599WAT    EPW11118   4.539   7.571   6.898 -0.1611  0.6262  0.2827
 2600WAT      O11119   6.106   7.047   2.930 -0.3633  0.0675 -0.2698
 2600WAT     H111120   6.100   7.130   2.955  1.9863 -0.0416  0.8975
 2600WAT     H211121   6.132   7.052   2.847 -1.1658  0.4803 -0.4978
 2600WAT    EPW11122   6.109   7.060   2.921 -0.1348  0.1123 -0.1310
 2601WAT      O11123   5.758   1.660   5.043  0.4433  0.2251  0.0891
 2601WAT     H111124   5.824   1.604   5.053 -0.8291 -1.5241 -0.8904
 2601WAT     H211125   5.696   1.628   5.095 -0.5580  0.2655 -1.0366
 2601WAT    EPW11126   5.759   1.647   5.052  0.1074 -0.0273 -0.2219
 2602WAT      O11127   6.268   3.218   6.703  0.0153 -0.8963  0.3325
 2602WAT     H111128   6.325   3.153   6.695  1.1965 -0.0529  1.4224
 2602WAT     H211129   6.259   3.228   6.790  0.6494  0.9989  0.2331
 2602WAT    EPW11130   6.275   3.210   6.715  0.2834 -0.4917  0.4788
 2603WAT      O11131   5.116   2.774   7.816 -0.2787  0.4244 -0.1650
 2603WAT     H111132   5.140   2.724   7.883 -0.0553  2.3202  1.2649
 2603WAT     H211133   5.185   2.771   7.762 -0.5638 -1.3304 -0.4879
 2603WAT    EPW11134   5.130   2.766   7.817 -0.2878  0.4452 -0.0015
 2604WAT      O11135   5.940   3.762   4.705  0.0705 -0.1458 -0.3666
 2604WAT     H111136   6.023   3.736   4.706 -0.0849 -0.6969 -1.0670
 2604WAT     H211137   5.896   3.687   4.707 -0.4410  0.1552  1.4463
 2604WAT    EPW11138   5.946   3.747   4.705 -0.0280 -0.1827 -0.2022
 2605WAT      O11139   7.632   3.589   4.528  0.2194 -0.0775 -0.6815
 2605WAT     H111140   7.660   3.512   4.497 -0.4678 -0.4067 -0.5046
 2605WAT     H211141   7.551   3.571   4.557  0.1890  0.6312 -0.3157
 2605WAT    EPW11142   7.624   3.575   4.528  0.1134 -0.0214 -0.6013
 2606WAT      O11143   5.600   0.828   7.270 -0.5037 -0.0263  0.1666
 2606WAT     H111144   5.622   0.907   7.299 -0.1755 -0.2071  0.4187
 2606WAT     H211145   5.625   0.828   7.186  1.1875 -0.4854  0.6261
 2606WAT    EPW11146   5.607   0.839   7.262 -0.2054 -0.1208  0.2717
 2607WAT      O11147   5.901   3.059   6.840 -0.6225  0.4871 -0.1477
 2607WAT     H111148   5.932   3.114   6.780  0.4733 -0.2135 -0.2724
 2607WAT     H211149   5.821   3.088   6.856  0.3019  2.8277  0.6795
 2607WAT    EPW11150   5.894   3.071   6.834 -0.3240  0.7293 -0.0439
 2608WAT      O11151   5.589   4.757   2.571  0.2497  0.2185 -0.7031
 2608WAT     H111152   5.543   4.830   2.558 -1.3059 -0.5973 -0.0785
 2608WAT     H211153   5.542   4.696   2.529 -2.1785 -1.5853  3.9328
 2608WAT    EPW11154   5.575   4.759   2.563 -0.3388 -0.1685  0.0740
 2609WAT      O11155   5.847   4.310   3.293 -0.3223 -0.3921 -0.0018
 2609WAT     H111156   5.910   4.264   3.332  1.2868 -0.0050 -1.9908
 2609WAT     H211157   5.833   4.267   3.219 -1.7500  0.0668 -0.0152
 2609WAT    EPW11158   5.854   4.297   3.288 -0.2955 -0.2672 -0.2976
 2610WAT      O11159   2.778   1.419   4.107 -0.3382 -0.0685 -0.1658
 2610WAT     H111160   2.805   1.407   4.189 -1.4645 -2.6903 -0.0754
 2610WAT     H211161   2.735   1.495   4.111 -0.0668  0.0374  1.5917
 2610WAT    EPW11162   2.775   1.428   4.120 -0.4645 -0.4401  0.1072
 2611WAT      O11163   3.510   1.309   2.727 -0.0060 -0.0150 -0.0071
 2611WAT     H111164   3.596   1.320   2.737  0.1373 -0.1769 -0.9449
 2611WAT     H211165   3.484   1.387   2.697 -0.0810 -0.1636 -0.3265
 2611WAT    EPW11166   3.519   1.322   2.724  0.0041 -0.0609 -0.1928
 2612WAT      O11167   4.019   0.903   6.775 -0.6830 -0.1348  0.3027
 2612WAT     H111168   3.941   0.895   6.815 -0.4700  0.4281  0.8519
 2612WAT     H211169   4.023   0.833   6.724 -2.6025  1.0299 -1.5941
 2612WAT    EPW11170   4.008   0.891   6.774 -0.9351  0.1204  0.1036
 2613WAT      O11171   5.483   5.395   3.931 -0.4283  0.3149  0.1422
 2613WAT     H111172   5.429   5.463   3.925  0.8169  1.3154 -0.4091
 2613WAT     H211173   5.502   5.390   4.016 -0.0902  1.0496  0.1196
 2613WAT    EPW11174   5.478   5.404   3.943 -0.1944  0.5712  0.0574
 2614WAT      O11175   3.862   6.669   4.670  0.1403 -0.4026 -0.3877
 2614WAT     H111176   3.820   6.604   4.628  3.4299 -3.4542  0.5682
 2614WAT     H211177   3.931   6.685   4.619  0.8781  0.3131  0.7976
 2614WAT    EPW11178   3.866   6.662   4.656  0.7353 -0.7476 -0.0714
 2615WAT      O11179   6.258   0.831   1.172  0.0387 -0.0292  0.0920
 2615WAT     H111180   6.328   0.795   1.135  0.1551 -0.0265  0.3090
 2615WAT     H211181   6.194   0.816   1.114  0.9076  3.2660 -1.9893
 2615WAT    EPW11182   6.259   0.824   1.158  0.1842  0.4580 -0.1834
 2616WAT      O11183   6.017   0.122   5.067  0.6818  0.1073  0.2209
 2616WAT     H111184   6.056   0.087   4.998  0.4105  0.8455 -0.3116
 2616WAT     H211185   5.933   0.100   5.057  0.4779  1.0654 -0.2189
 2616WAT    EPW11186   6.010   0.114   5.056  0.6116  0.3578  0.0773
 2617WAT      O11187   4.301   1.823   2.970  0.2332  0.0282 -0.7256
 2617WAT     H111188   4.322   1.772   2.902 -1.1718 -1.2062 -0.2963
 2617WAT     H211189   4.364   1.807   3.028  1.5706  1.2594 -1.7673
 2617WAT    EPW11190   4.314   1.813   2.969  0.2232  0.0277 -0.8161
 2618WAT      O11191   5.066   2.404   7.616  0.0054 -0.7265  0.1948
 2618WAT     H111192   4.983   2.429   7.621  0.3416  0.4410  0.1398
 2618WAT     H211193   5.061   2.317   7.626 -1.0137 -0.4794  2.5084
 2618WAT    EPW11194   5.053   2.395   7.618 -0.0955 -0.5175  0.5284
 2619WAT      O11195   4.805   1.701   7.832 -0.2656 -0.1647 -0.0968
 2619WAT     H111196   4.764   1.745   7.895 -0.4540 -0.2738 -0.1403
 2619WAT     H211197   4.828   1.763   7.775  1.1334  0.1024  0.7356
 2619WAT    EPW11198   4.802   1.716   7.833 -0.0867 -0.1413  0.0197
 2620WAT      O11199   0.225   1.268   4.896 -0.0521 -0.0085 -0.2026
 2620WAT     H111200   0.293   1.314   4.925  0.1847 -0.0971 -0.6082
 2620WAT     H211201   0.251   1.241   4.817 -0.8860  0.6412 -0.7067
 2620WAT    EPW11202   0.239   1.271   4.889 -0.1403  0.0744 -0.3370
 2621WAT      O11203   4.435   3.395   1.514  0.6719 -0.0179 -0.1144
 2621WAT     H111204   4.419   3.310   1.503  1.4378 -0.2474  0.4590
 2621WAT     H211205   4.456   3.401   1.599  0.0903  0.8362 -0.0108
 2621WAT    EPW11206   4.435   3.384   1.525  0.6991  0.0744 -0.0144
 2622WAT      O11207   4.884   5.100   2.190 -0.7138 -0.0023  0.0285
 2622WAT     H111208   4.945   5.055   2.232 -1.0810 -0.5903 -0.0547
 2622WAT     H211209   4.819   5.105   2.248 -0.4608  0.9165  0.2421
 2622WAT    EPW11210   4.883   5.094   2.205 -0.7307  0.0466  0.0478
 2623WAT      O11211   5.846   6.998   2.992 -0.3000  0.5231 -0.3857
 2623WAT     H111212   5.929   7.020   2.973  0.1880 -0.7279  0.1445
 2623WAT     H211213   5.855   6.943   3.060 -1.4932 -0.4174 -0.9491
 2623WAT    EPW11214   5.860   6.993   2.999 -0.4042  0.1994 -0.3906
 2624WAT      O11215   6.264   1.826   3.848  0.4845 -0.4988 -0.1610
 2624WAT     H111216   6.270   1.762   3.906  1.3005  1.9050  2.6449
 2624WAT     H211217   6.335   1.816   3.799  1.1565 -1.1405  0.9069
 2624WAT    EPW11218   6.276   1.815   3.849  0.7043 -0.2385  0.4112
 2625WAT      O11219   5.420   1.893   2.938  0.2999  0.2575 -0.2356
 2625WAT     H111220   5.426   1.943   3.009  1.3080 -1.0835  0.6731
 2625WAT     H211221   5.385   1.818   2.968 -0.7076  0.1898 -1.4611
 2625WAT    EPW11222   5.415   1.889   2.953  0.3000  0.0494 -0.2824
 2626WAT      O11223   0.757   0.280   7.056 -0.1902 -0.6712 -0.1617
 2626WAT     H111224   0.773   0.291   6.971 -0.3423 -1.0348 -0.2406
 2626WAT     H211225   0.825   0.232   7.083  0.3044  0.1511  0.1097
 2626WAT    EPW11226   0.769   0.274   7.048 -0.1396 -0.6034 -0.1333
 2627WAT      O11227   5.150   3.454   2.851  0.0828  0.4307  0.6603
 2627WAT     H111228   5.091   3.437   2.789  0.6638  0.2178  0.1505
 2627WAT     H211229   5.154   3.541   2.853  0.5443  0.4358 -0.0829
 2627WAT    EPW11230   5.142   3.464   2.842  0.2368  0.4000  0.4752
 2628WAT      O11231   5.093   0.762   3.596 -0.1518 -0.0991 -0.6393
 2628WAT     H111232   5.137   0.687   3.587 -0.4979 -0.3554 -0.1916
 2628WAT     H211233   5.010   0.737   3.604 -0.5197  0.4306 -2.4258
 2628WAT    EPW11234   5.087   0.748   3.596 -0.2573 -0.0587 -0.8370
 2629WAT      O11235   6.624   3.361   5.224  0.0154  0.1112 -0.3445
 2629WAT     H111236   6.613   3.416   5.292 -1.1200 -0.3408 -0.1301
 2629WAT     H211237   6.700   3.322   5.241 -0.4466 -0.2952  0.9095
 2629WAT    EPW11238   6.633   3.363   5.237 -0.2206 -0.0156 -0.1276
 2630WAT      O11239   2.899   1.096   2.419  0.0549  0.0601  0.6779
 2630WAT     H111240   2.941   1.118   2.346  1.7930  0.5179  1.7588
 2630WAT     H211241   2.896   1.009   2.416 -0.1113  0.0823 -0.0240
 2630WAT    EPW11242   2.904   1.086   2.408  0.2871  0.1310  0.7339
 2631WAT      O11243   0.211   2.542   5.548  0.2926 -0.3860  0.9124
 2631WAT     H111244   0.286   2.579   5.573  1.4211 -1.2009 -1.0186
 2631WAT     H211245   0.192   2.487   5.612  2.3682 -1.5147  0.6383
 2631WAT    EPW11246   0.219   2.540   5.561  0.7659 -0.6731  0.5867
 2632WAT      O11247   5.478   3.872   2.551 -0.2715  0.2647  0.2454
 2632WAT     H111248   5.399   3.908   2.556  0.9278  3.0017  1.9053
 2632WAT     H211249   5.480   3.817   2.618 -0.4610  0.8487  0.7302
 2632WAT    EPW11250   5.467   3.869   2.561 -0.1224  0.7553  0.5622
 2633WAT      O11251   3.432   1.236   7.201 -0.0604 -0.1669  0.2171
 2633WAT     H111252   3.513   1.265   7.185  0.3250 -1.8736 -1.2937
 2633WAT     H211253   3.381   1.287   7.153  0.4267 -0.8620 -1.0683
 2633WAT    EPW11254   3.436   1.248   7.192  0.0685 -0.5217 -0.1960
 2634WAT      O11255   3.799   1.389   2.737 -0.1524  0.2337  0.3530
 2634WAT     H111256   3.775   1.468   2.766  1.0263  0.2996  1.2658
 2634WAT     H211257   3.800   1.340   2.810  1.6516  0.0644  0.2678
 2634WAT    EPW11258   3.795   1.393   2.752  0.2882  0.2184  0.4753
 2635WAT      O11259   4.514   5.011   1.789 -0.6252  0.1513 -0.4497
 2635WAT     H111260   4.486   4.942   1.834  0.3409 -0.1855 -0.3542
 2635WAT     H211261   4.486   5.079   1.837 -1.4288 -0.1576 -0.4585
 2635WAT    EPW11262   4.506   5.011   1.803 -0.6012  0.0559 -0.4369
 2636WAT      O11263   5.015   2.263   3.246  0.0828 -0.0120 -0.4101
 2636WAT     H111264   4.968   2.204   3.289 -0.4535 -0.2217 -1.2487
 2636WAT     H211265   4.956   2.324   3.225 -0.2885 -1.0945 -2.9709
 2636WAT    EPW11266   4.999   2.263   3.249 -0.0513 -0.2029 -0.9123
 2637WAT      O11267   3.656   7.650   6.664 -0.0062  0.2398  0.1800
 2637WAT     H111268   3.612   7.659   6.739 -1.6415 -1.6643 -0.4550
 2637WAT     H211269   3.594   7.657   6.603  0.7233 -1.4430 -0.8136
 2637WAT    EPW11270   3.640   7.652   6.666 -0.1400 -0.2900 -0.0605
 2638WAT      O11271   3.662   0.801   5.307  0.3270  0.1213  0.4508
 2638WAT     H111272   3.663   0.885   5.327 -0.2612  0.7324 -1.7875
 2638WAT     H211273   3.578   0.784   5.292  0.5196 -0.6967  0.2473
 2638WAT    EPW11274   3.650   0.811   5.308  0.2685  0.0908  0.0901
 2639WAT      O11275   7.211   1.390   4.262  0.0801  0.0440  0.1693
 2639WAT     H111276   7.226   1.475   4.247  0.4454  0.0326  0.4734
 2639WAT     H211277   7.207   1.385   4.348  0.9189 -0.3919  0.1935
 2639WAT    EPW11278   7.213   1.402   4.272  0.2580 -0.0221  0.2178
 2640WAT      O11279   5.529   2.937   3.832  0.0235 -0.1549  0.0104
 2640WAT     H111280   5.530   3.022   3.851 -0.4536 -0.1167 -0.1390
 2640WAT     H211281   5.446   2.914   3.841  0.0539 -0.4836 -0.4864
 2640WAT    EPW11282   5.517   2.946   3.836 -0.0425 -0.1978 -0.0850
 2641WAT      O11283   5.419   5.023   1.402 -0.5150 -0.1679  0.1305
 2641WAT     H111284   5.415   5.039   1.317  0.1918 -0.1276  0.0983
 2641WAT     H211285   5.475   4.956   1.408 -1.1833 -0.7139  0.4991
 2641WAT    EPW11286   5.427   5.015   1.390 -0.5093 -0.2426  0.1802
 2642WAT      O11287   6.241   3.331   5.152  0.3467 -0.1254  0.1027
 2642WAT     H111288   6.207   3.301   5.227  0.1349  0.0691  0.0877
 2642WAT     H211289   6.285   3.402   5.177 -0.6148  0.5663 -0.0905
 2642WAT    EPW11290   6.242   3.337   5.167  0.1734  0.0055  0.0719
 2643WAT      O11291   3.563   6.896   6.198 -0.0233  0.3444 -0.0190
 2643WAT     H111292   3.540   6.907   6.115  1.1805 -2.1777 -0.7831
 2643WAT     H211293   3.641   6.934   6.204  0.1651 -0.0016 -0.2341
 2643WAT    EPW11294   3.571   6.903   6.187  0.1824 -0.0793 -0.1636
 2644WAT      O11295   7.197   1.921   4.885 -0.2897 -0.1183  0.2959
 2644WAT     H111296   7.261   1.873   4.850  0.2731  1.0503 -0.3252
 2644WAT     H211297   7.126   1.894   4.843  0.3800  1.3088 -1.9038
 2644WAT    EPW11298   7.196   1.910   4.874 -0.1076  0.2651 -0.1208
 2645WAT      O11299   4.686   2.410   6.224  0.2059  0.3196 -0.1974
 2645WAT     H111300   4.620   2.352   6.222 -0.7883  1.4127  0.1788
 2645WAT     H211301   4.731   2.387   6.295  0.2361 -0.4225 -0.4426
 2645WAT    EPW11302   4.683   2.398   6.234  0.0635  0.3714 -0.1781
 2646WAT      O11303   4.110   1.140   2.088 -0.2547 -0.0541 -0.0376
 2646WAT     H111304   4.105   1.138   2.176  0.3223  0.1189  0.0018
 2646WAT     H211305   4.196   1.140   2.073 -0.2929  1.8648 -0.5477
 2646WAT    EPW11306   4.122   1.140   2.099 -0.1751  0.2549 -0.1071
 2647WAT      O11307   5.665   3.817   0.777 -0.3499  0.7069  0.6576
 2647WAT     H111308   5.626   3.873   0.831 -1.2263  1.5193 -0.7481
 2647WAT     H211309   5.599   3.788   0.727  0.5900  0.9382 -0.7754
 2647WAT    EPW11310   5.649   3.821   0.777 -0.3405  0.8611  0.2382
 2648WAT      O11311   4.437   5.023   0.058  0.2872 -0.4289  0.6402
 2648WAT     H111312   4.394   5.018  -0.017 -1.1673  1.5227  1.2509
 2648WAT     H211313   4.520   5.019   0.035 -0.0402  1.7562 -1.3364
 2648WAT    EPW11314   4.443   5.022   0.044  0.0240  0.1822  0.4385
 2649WAT      O11315   6.185   5.402   0.226  0.5168  0.3308 -0.3973
 2649WAT     H111316   6.166   5.477   0.267 -1.0995  0.3566 -1.1228
 2649WAT     H211317   6.247   5.367   0.277  0.1063  1.3624  0.8910
 2649WAT    EPW11318   6.191   5.408   0.240  0.2174  0.4870 -0.3142
 2650WAT      O11319   6.184   2.385   4.596 -0.0588 -0.2989 -0.5766
 2650WAT     H111320   6.214   2.345   4.524 -0.7506 -2.0889  0.0835
 2650WAT     H211321   6.112   2.341   4.616 -0.9848  1.4312  0.1158
 2650WAT    EPW11322   6.178   2.373   4.588 -0.2978 -0.3077 -0.3768
 2651WAT      O11323   4.823   0.714   0.826  0.0689 -0.2649  0.3137
 2651WAT     H111324   4.844   0.633   0.852 -2.1691 -1.5386 -1.4688
 2651WAT     H211325   4.898   0.744   0.792  0.2372 -3.0579 -2.2686
 2651WAT    EPW11326   4.837   0.706   0.824 -0.2369 -0.8657 -0.3311
 2652WAT      O11327   5.978   4.804   4.094 -0.1424  0.4297  0.0580
 2652WAT     H111328   5.906   4.852   4.101  1.2180  2.6792 -0.4554
 2652WAT     H211329   5.960   4.749   4.028 -1.7820  0.0757  0.7481
 2652WAT    EPW11330   5.965   4.803   4.085 -0.1836  0.7097  0.0841
 2653WAT      O11331   6.957   6.473   7.826 -0.1692  0.5677 -0.5000
 2653WAT     H111332   6.991   6.420   7.765 -1.0147 -0.0748 -0.4461
 2653WAT     H211333   6.992   6.551   7.808 -0.3291  0.3784 -1.7656
 2653WAT    EPW11334   6.967   6.476   7.814 -0.3177  0.4449 -0.6790
 2654WAT      O11335   4.314   1.877   3.562  0.1768  0.0001  0.0964
 2654WAT     H111336   4.306   1.962   3.580 -1.3016 -0.2884  0.9123
 2654WAT     H211337   4.307   1.874   3.475  1.8831  0.8519 -0.1144
 2654WAT    EPW11338   4.312   1.889   3.552  0.2105  0.0833  0.1858
 2655WAT      O11339   5.857   4.632   2.907  0.3233  0.2282  0.1366
 2655WAT     H111340   5.786   4.678   2.884 -0.8829 -0.8209  1.5256
 2655WAT     H211341   5.852   4.630   2.994 -0.4133 -3.4995  0.1479
 2655WAT    EPW11342   5.846   4.639   2.917  0.0363 -0.4774  0.3435
 2656WAT      O11343   7.022   7.393   5.575  0.1340 -0.3340 -0.5943
 2656WAT     H111344   7.078   7.338   5.613  0.1140 -0.2999 -0.5141
 2656WAT     H211345   7.019   7.366   5.492  0.3981 -0.2292 -0.6387
 2656WAT    EPW11346   7.030   7.381   5.568  0.1700 -0.3135 -0.5890
 2657WAT      O11347   2.447   6.412   5.730 -0.5621  0.1764 -0.4804
 2657WAT     H111348   2.486   6.418   5.652  0.4444  0.5233  0.0298
 2657WAT     H211349   2.511   6.430   5.787 -1.3087  0.0759  0.4268
 2657WAT    EPW11350   2.462   6.415   5.727 -0.5237  0.2128 -0.2711
 2658WAT      O11351   1.858   2.368   3.001  0.0881  0.0814  0.6496
 2658WAT     H111352   1.941   2.353   2.980  0.3460  2.0398  0.0999
 2658WAT     H211353   1.822   2.288   3.000  2.0698 -0.8740  1.5142
 2658WAT    EPW11354   1.865   2.354   2.997  0.4189  0.2295  0.6961
 2659WAT      O11355   7.126   6.346   4.391 -0.4833  0.2788 -0.5363
 2659WAT     H111356   7.184   6.282   4.405 -2.0333 -1.1576 -0.4023
 2659WAT     H211357   7.140   6.401   4.458 -1.4453 -1.7247  1.4317
 2659WAT    EPW11358   7.137   6.345   4.403 -0.8544 -0.2294 -0.2258
 2660WAT      O11359   7.119   7.146   0.600  0.6752  0.3941  0.3156
 2660WAT     H111360   7.085   7.140   0.520  0.6607 -0.9453  0.3992
 2660WAT     H211361   7.064   7.199   0.642  0.1468  0.3378 -0.2976
 2660WAT    EPW11362   7.106   7.153   0.595  0.5950  0.1879  0.2374
 2661WAT      O11363   5.175   2.037   3.100 -0.3826 -0.1371 -0.4301
 2661WAT     H111364   5.133   2.106   3.131  0.4697  1.0021 -1.6968
 2661WAT     H211365   5.239   2.023   3.158 -1.2941 -0.6830  0.4822
 2661WAT    EPW11366   5.178   2.045   3.113 -0.3913 -0.0495 -0.4824
 2662WAT      O11367   4.845   0.803   0.060 -0.3481  0.9566 -0.1444
 2662WAT     H111368   4.771   0.826   0.020 -2.0177 -1.1059  1.5189
 2662WAT     H211369   4.818   0.753   0.126  2.5819 -0.6175  0.0296
 2662WAT    EPW11370   4.830   0.799   0.064 -0.1619  0.4194  0.1270
 2663WAT      O11371   5.031   4.932   4.299 -0.2279 -0.7925  0.1679
 2663WAT     H111372   4.969   4.987   4.272  0.7117  0.8299  1.1251
 2663WAT     H211373   4.998   4.897   4.372  0.1072  0.4486  0.9582
 2663WAT    EPW11374   5.017   4.935   4.306 -0.0396 -0.3695  0.4261
 2664WAT      O11375   0.507   4.639   5.460 -0.0580 -0.2308  0.0728
 2664WAT     H111376   0.473   4.570   5.501 -1.0459 -0.7915 -1.6235
 2664WAT     H211377   0.526   4.610   5.381 -2.4568  1.8801 -1.4316
 2664WAT    EPW11378   0.505   4.625   5.455 -0.5583 -0.0018 -0.4000
 2665WAT      O11379   6.909   5.165   6.489 -0.0927  0.3232 -0.1189
 2665WAT     H111380   6.844   5.116   6.520 -0.6167  0.6745 -0.6371
 2665WAT     H211381   6.869   5.238   6.461  0.6208  0.8892  0.2836
 2665WAT    EPW11382   6.894   5.169   6.489 -0.0647  0.4587 -0.1360
 2666WAT      O11383   0.309   5.486   4.664  0.3093  0.3989  0.4385
 2666WAT     H111384   0.370   5.532   4.621 -1.0563  1.6991 -0.2097
 2666WAT     H211385   0.340   5.405   4.663  2.3024  1.1108  0.6589
 2666WAT    EPW11386   0.323   5.481   4.658  0.4020  0.6962  0.3753
 2667WAT      O11387   5.585   3.532   5.809  0.2050 -0.0538 -0.0027
 2667WAT     H111388   5.531   3.478   5.851  2.0015 -0.4632  1.9577
 2667WAT     H211389   5.640   3.479   5.767  0.4851  0.2922 -0.0879
 2667WAT    EPW11390   5.585   3.516   5.809  0.5117 -0.0632  0.2743
 2668WAT      O11391   5.181   1.456   4.218 -0.0513  0.4535 -0.1367
 2668WAT     H111392   5.119   1.400   4.195 -0.5601  0.5818  0.8551
 2668WAT     H211393   5.229   1.465   4.146  0.3894 -1.6932 -0.1839
 2668WAT    EPW11394   5.179   1.449   4.204 -0.0614  0.1554  0.0028
 2669WAT      O11395   6.285   0.480   7.233 -0.0945 -0.1658  0.0412
 2669WAT     H111396   6.370   0.462   7.225 -0.2102 -0.6093 -0.2284
 2669WAT     H211397   6.253   0.408   7.272  0.3720  1.6631  4.3378
 2669WAT    EPW11398   6.293   0.466   7.238 -0.0427  0.0388  0.6360
 2670WAT      O11399   1.579   4.200   3.414 -0.5389 -0.2326  0.3647
 2670WAT     H111400   1.515   4.201   3.473 -0.9199 -0.6232 -0.0393
 2670WAT     H211401   1.651   4.213   3.462 -0.9921  1.1921  0.7122
 2670WAT    EPW11402   1.580   4.202   3.430 -0.6621 -0.0798  0.3563
 2671WAT      O11403   1.124   5.717   4.680  0.2100  0.1913  0.6151
 2671WAT     H111404   1.042   5.735   4.706 -0.6437 -0.3629 -1.4535
 2671WAT     H211405   1.113   5.651   4.623  1.9796  0.6933 -0.3908
 2671WAT    EPW11406   1.110   5.710   4.675  0.3453  0.1836  0.1609
 2672WAT      O11407   6.165   3.913   3.254  0.0030  0.0062  0.0019
 2672WAT     H111408   6.248   3.915   3.279 -0.1307 -0.7792  0.5541
 2672WAT     H211409   6.141   3.830   3.268 -0.9994  0.3276  0.3138
 2672WAT    EPW11410   6.173   3.901   3.260 -0.1648 -0.0623  0.1296
 2673WAT      O11411   7.748   4.149   5.810  0.1597  0.2707 -0.5395
 2673WAT     H111412   7.734   4.144   5.724  0.0936 -0.9407 -0.4796
 2673WAT     H211413   7.707   4.078   5.841 -1.4700  1.6926  0.7347
 2673WAT    EPW11414   7.740   4.137   5.802 -0.0908  0.3018 -0.3424
 2674WAT      O11415   2.900   2.779   1.421  0.1751 -0.2923  0.4348
 2674WAT     H111416   2.819   2.810   1.433  0.2257  0.0528 -0.0622
 2674WAT     H211417   2.887   2.706   1.374  0.1377 -0.3667  0.5599
 2674WAT    EPW11418   2.886   2.773   1.416  0.1771 -0.2523  0.3799
 2675WAT      O11419   6.522   6.961   5.746 -0.2615  0.0788  0.1616
 2675WAT     H111420   6.455   6.991   5.792 -0.6507  0.7714 -0.8117
 2675WAT     H211421   6.592   6.991   5.789 -0.6221  0.9051  0.1903
 2675WAT    EPW11422   6.523   6.970   5.759 -0.3723  0.3032  0.0220
 2676WAT      O11423   5.994   6.863   2.468 -0.3563  0.0895 -0.5101
 2676WAT     H111424   5.978   6.935   2.514 -1.3204 -0.4885  0.1023
 2676WAT     H211425   6.019   6.805   2.528 -1.7809 -0.7252 -0.6475
 2676WAT    EPW11426   5.996   6.865   2.484 -0.7091 -0.1162 -0.4399
 2677WAT      O11427   3.892   6.692   0.925  0.0036 -0.1142 -0.1361
 2677WAT     H111428   3.842   6.620   0.930 -1.9785  1.2583  1.1845
 2677WAT     H211429   3.926   6.699   1.005  1.3120 -0.2865 -0.6503
 2677WAT    EPW11430   3.889   6.682   0.937 -0.0959  0.0631 -0.0170
 2678WAT      O11431   1.836   6.720   0.901 -0.2187  0.5044  0.4270
 2678WAT     H111432   1.869   6.739   0.980 -1.2775 -1.1784  1.3216
 2678WAT     H211433   1.907   6.701   0.854  0.3323  0.0744  1.3987
 2678WAT    EPW11434   1.852   6.720   0.906 -0.2937  0.1923  0.7027
 2679WAT      O11435   4.179   2.016   4.752  0.2404  0.3316  0.1698
 2679WAT     H111436   4.093   2.008   4.741 -0.3424  3.8708  1.0040
 2679WAT     H211437   4.208   2.040   4.674  0.2171  0.7224  0.2822
 2679WAT    EPW11438   4.171   2.018   4.739  0.1509  0.9121  0.3096
 2680WAT      O11439   4.427   5.387   1.335  0.4581 -0.6774 -0.5364
 2680WAT     H111440   4.388   5.329   1.283  2.6828 -3.9177  1.1002
 2680WAT     H211441   4.487   5.341   1.377  0.1463  2.0465  3.5564
 2680WAT    EPW11442   4.430   5.372   1.334  0.7407 -0.7537  0.3099
 2681WAT      O11443   5.084   7.105   1.157  0.5690  0.1701  0.2509
 2681WAT     H111444   5.103   7.029   1.196  1.8373  1.1327  1.6219
 2681WAT     H211445   5.152   7.155   1.176  0.0198  1.5022 -1.1150
 2681WAT    EPW11446   5.097   7.101   1.166  0.6752  0.5091  0.2517
 2682WAT      O11447   5.086   2.324   6.255  0.4299 -0.4695 -0.0379
 2682WAT     H111448   5.062   2.399   6.217  1.6080  0.3862  0.8023
 2682WAT     H211449   5.036   2.264   6.217  0.2004  0.6020 -1.5021
 2682WAT    EPW11450   5.075   2.326   6.244  0.5700 -0.1848 -0.1301
 2683WAT      O11451   5.352   4.306   4.959  0.5612  0.2453 -0.0084
 2683WAT     H111452   5.292   4.273   4.905 -0.2048 -0.1219  1.0389
 2683WAT     H211453   5.360   4.389   4.933 -0.3973  0.2970 -0.1557
 2683WAT    EPW11454   5.344   4.313   4.947  0.3065  0.1987  0.1246
 2684WAT      O11455   6.543   5.491   4.378  0.2635  0.5042  0.6151
 2684WAT     H111456   6.502   5.485   4.301  0.0315  2.4197  0.5496
 2684WAT     H211457   6.621   5.456   4.363  0.9925  2.7059 -1.1235
 2684WAT    EPW11458   6.548   5.485   4.365  0.3370  1.1124  0.3486
 2685WAT      O11459   5.650   3.261   3.261 -0.1375 -0.5966 -0.5189
 2685WAT     H111460   5.651   3.186   3.217  0.6883 -0.4659 -0.7438
 2685WAT     H211461   5.588   3.307   3.221  1.0641 -0.2088 -2.0381
 2685WAT    EPW11462   5.641   3.257   3.249  0.1620 -0.5200 -0.7766
 2686WAT      O11463   2.298   1.624   5.866 -0.0999 -0.1690  0.8567
 2686WAT     H111464   2.272   1.626   5.950 -2.0972  2.4627  0.3206
 2686WAT     H211465   2.377   1.661   5.869 -1.0348  1.9678  1.4577
 2686WAT    EPW11466   2.306   1.630   5.879 -0.5331  0.5354  0.8663
 2687WAT      O11467   2.396   5.797   6.192 -0.2509 -0.0476 -0.1036
 2687WAT     H111468   2.326   5.752   6.164  0.5678 -1.6359  0.3120
 2687WAT     H211469   2.449   5.797   6.122  0.5103 -1.3538  0.4449
 2687WAT    EPW11470   2.393   5.790   6.177 -0.0175 -0.4752  0.0388
 2688WAT      O11471   6.697   6.590   5.129 -0.1031 -0.1878 -0.3492
 2688WAT     H111472   6.655   6.514   5.139 -0.7782  0.1330 -0.7081
 2688WAT     H211473   6.776   6.566   5.101  0.0043 -0.8019  0.4531
 2688WAT    EPW11474   6.703   6.575   5.126 -0.1870 -0.2311 -0.2837
 2689WAT      O11475   5.485   3.045   3.129  0.2199 -0.0607 -0.1750
 2689WAT     H111476   5.464   3.001   3.201 -1.6304 -0.0472 -0.6489
 2689WAT     H211477   5.449   2.998   3.065  0.6521  0.6429 -0.9551
 2689WAT    EPW11478   5.476   3.032   3.130  0.0104  0.0452 -0.3602
 2690WAT      O11479   4.327   2.503   7.307  0.0829  0.0180 -0.7156
 2690WAT     H111480   4.308   2.583   7.277  3.1824  0.7565 -1.1457
 2690WAT     H211481   4.409   2.512   7.335  0.4392 -2.9800 -0.5215
 2690WAT    EPW11482   4.337   2.516   7.307  0.5934 -0.3157 -0.7505
 2691WAT      O11483   5.326   1.432   4.840  0.1647 -0.3133  0.4536
 2691WAT     H111484   5.411   1.436   4.823  0.2107 -0.1051  0.7205
 2691WAT     H211485   5.303   1.515   4.850 -0.9147  0.0538 -3.5300
 2691WAT    EPW11486   5.335   1.445   4.839  0.0120 -0.2283 -0.0954
 2692WAT      O11487   0.196   5.433   7.154 -0.1317 -0.4018 -0.0531
 2692WAT     H111488   0.206   5.393   7.231  1.2360 -0.7035 -0.3664
 2692WAT     H211489   0.256   5.395   7.104 -1.8087 -1.1056 -1.6576
 2692WAT    EPW11490   0.206   5.421   7.158 -0.1774 -0.5503 -0.3364
 2693WAT      O11491   5.481   0.023   5.026  0.5608 -0.0262 -0.2551
 2693WAT     H111492   5.475   0.055   4.945  0.2566  1.9164  0.4654
 2693WAT     H211493   5.416   0.063   5.068 -0.7120 -2.6524  0.4902
 2693WAT    EPW11494   5.470   0.034   5.020  0.3279 -0.1272 -0.0386
 2694WAT      O11495   0.628   6.666   0.604  0.0046 -0.2670 -0.9311
 2694WAT     H111496   0.599   6.655   0.686  3.0898 -1.1716  0.1898
 2694WAT     H211497   0.555   6.667   0.556 -1.8682 -0.8598  1.7007
 2694WAT    EPW11498   0.613   6.664   0.609  0.1837 -0.4882 -0.3767
 2695WAT      O11499   5.072   4.548   4.777 -0.6295 -0.0071 -0.1623
 2695WAT     H111500   5.131   4.557   4.841 -1.2276 -0.9371  0.5577
 2695WAT     H211501   5.031   4.473   4.798 -1.8211  0.4386 -0.8196
 2695WAT    EPW11502   5.074   4.538   4.790 -0.8939 -0.0787 -0.1530
 2696WAT      O11503   3.934   0.865   1.427 -0.4192  0.4483  0.4359
 2696WAT     H111504   3.941   0.911   1.352  0.3300  0.5204  0.5400
 2696WAT     H211505   3.852   0.878   1.451 -1.3654 -1.3920 -1.5308
 2696WAT    EPW11506   3.923   0.874   1.419 -0.4483  0.1871  0.1607
 2697WAT      O11507   6.966   4.671   5.379  0.1906 -0.0598  0.5610
 2697WAT     H111508   7.047   4.682   5.349 -0.0509  0.9462  0.2397
 2697WAT     H211509   6.953   4.741   5.428  0.2279 -1.2071  2.3047
 2697WAT    EPW11510   6.976   4.683   5.382  0.1605 -0.0807  0.7711
 2698WAT      O11511   4.956   3.172   3.981 -0.1958  0.1921 -0.2199
 2698WAT     H111512   4.901   3.205   3.922  0.2288 -0.6663 -1.1215
 2698WAT     H211513   5.034   3.199   3.955 -0.1387  1.3519  1.0235
 2698WAT    EPW11514   4.959   3.180   3.969 -0.1246  0.2366 -0.1694
 2699WAT      O11515   0.030   3.068   4.529  0.2730 -0.3293  0.6445
 2699WAT     H111516   0.097   3.101   4.575 -0.6624  1.6364  0.6919
 2699WAT     H211517   0.070   3.023   4.466  1.7060  1.4422  0.1879
 2699WAT    EPW11518   0.046   3.067   4.527  0.3465  0.2228  0.5840
 2700WAT      O11519   2.367   0.956   1.811  0.0691  0.3150 -0.2073
 2700WAT     H111520   2.399   1.037   1.810  0.4104  0.2320 -3.0409
 2700WAT     H211521   2.381   0.926   1.730 -2.6743 -1.5337 -0.1699
 2700WAT    EPW11522   2.373   0.963   1.799 -0.2858  0.0297 -0.6203
 2701WAT      O11523   0.944   5.976   6.216  0.1520  0.1018  0.5680
 2701WAT     H111524   0.934   6.026   6.287  0.1537  1.3113 -0.2470
 2701WAT     H211525   0.869   5.989   6.172 -0.8219 -2.3665  1.3486
 2701WAT    EPW11526   0.931   5.985   6.220  0.0084 -0.0841  0.5629
 2702WAT      O11527   1.121   7.584   0.290 -0.4447 -0.0262  0.1484
 2702WAT     H111528   1.121   7.505   0.253 -1.6317  0.1559 -0.2785
 2702WAT     H211529   1.142   7.637   0.225 -0.4539  0.0937  0.2441
 2702WAT    EPW11530   1.124   7.580   0.275 -0.6214  0.0184  0.0995
 2703WAT      O11531   6.571   7.077   1.181  0.1486 -0.6538  0.1850
 2703WAT     H111532   6.502   7.028   1.203 -2.9923  2.4973 -1.6410
 2703WAT     H211533   6.589   7.050   1.100 -1.1682  0.6057 -0.5762
 2703WAT    EPW11534   6.563   7.066   1.173 -0.5099 -0.0023 -0.1972
 2704WAT      O11535   4.035   1.238   3.016 -0.3116  0.7933 -0.3312
 2704WAT     H111536   3.950   1.229   2.998 -1.0670  0.8563  2.6031
 2704WAT     H211537   4.072   1.168   2.981 -1.1587  1.7284 -3.3936
 2704WAT    EPW11538   4.028   1.226   3.008 -0.5483  0.9408 -0.3502
 2705WAT      O11539   5.257   0.940   3.108 -0.2962  0.5792 -0.3538
 2705WAT     H111540   5.228   0.896   3.178 -1.1741  0.8224 -0.5519
 2705WAT     H211541   5.337   0.966   3.132  0.6802 -1.9275 -0.5879
 2705WAT    EPW11542   5.265   0.937   3.122 -0.2817  0.2449 -0.4176
 2706WAT      O11543   6.193   3.227   3.363  0.7019 -0.3840  0.2536
 2706WAT     H111544   6.114   3.256   3.341  1.9644  2.6669 -0.7814
 2706WAT     H211545   6.180   3.189   3.440 -1.8553 -0.5895 -0.1855
 2706WAT    EPW11546   6.179   3.226   3.371  0.5106  0.0363  0.0359
 2707WAT      O11547   7.182   6.545   4.597 -0.2888 -0.7053  0.0900
 2707WAT     H111548   7.244   6.566   4.539  0.4054 -1.2804  0.6090
 2707WAT     H211549   7.225   6.545   4.673 -1.4298  1.3020  0.8175
 2707WAT    EPW11550   7.197   6.548   4.600 -0.3548 -0.4937  0.2741
 2708WAT      O11551   4.989   1.121   3.331  0.1719  0.1205 -0.2195
 2708WAT     H111552   4.992   1.168   3.404 -0.8174  0.8091 -0.5980
 2708WAT     H211553   4.998   1.181   3.268 -1.0116 -0.1843 -0.7060
 2708WAT    EPW11554   4.991   1.137   3.332 -0.1490  0.1772 -0.3473
 2709WAT      O11555   2.912   6.574   4.433  0.3521  0.2319  0.3769
 2709WAT     H111556   2.987   6.607   4.403  0.1859  1.2440  1.0371
 2709WAT     H211557   2.900   6.503   4.384  1.2185  0.6245 -0.4294
 2709WAT    EPW11558   2.922   6.568   4.421  0.4555  0.4394  0.3553
 2710WAT      O11559   1.102   4.410   7.035  0.3499 -0.6759  0.5576
 2710WAT     H111560   1.093   4.455   7.109  0.6120  0.6213 -0.1677
 2710WAT     H211561   1.179   4.369   7.045  1.1501  0.7340  0.3934
 2710WAT    EPW11562   1.112   4.410   7.047  0.5068 -0.2760  0.4262
 2711WAT      O11563   4.909   6.193   6.274  0.8702 -0.1301 -0.0574
 2711WAT     H111564   4.937   6.273   6.251  0.4014 -0.6974 -2.9805
 2711WAT     H211565   4.823   6.204   6.284  0.8386 -0.2145 -0.2335
 2711WAT    EPW11566   4.901   6.207   6.272  0.7963 -0.2263 -0.5152
 2712WAT      O11567   5.045   4.044   0.884  0.4552 -0.1030  0.5054
 2712WAT     H111568   5.043   3.959   0.864  0.2411  0.2350 -1.0611
 2712WAT     H211569   5.049   4.084   0.806  2.0340  1.3059  1.2370
 2712WAT    EPW11570   5.045   4.038   0.869  0.6568  0.1551  0.3821
 2713WAT      O11571   4.949   1.102   1.416  0.7992  0.2041 -0.8822
 2713WAT     H111572   4.964   1.035   1.469 -0.6965  0.7572  0.3183
 2713WAT     H211573   4.919   1.064   1.343 -1.4544 -0.4597  0.2881
 2713WAT    EPW11574   4.947   1.087   1.413  0.2453  0.1877 -0.5320
 2714WAT      O11575   4.232   0.833   4.584 -0.0663 -0.0083 -0.1533
 2714WAT     H111576   4.248   0.815   4.500  0.1100  0.0936 -0.1424
 2714WAT     H211577   4.293   0.789   4.627 -0.9037 -1.0475  0.0028
 2714WAT    EPW11578   4.243   0.824   4.578 -0.1640 -0.1467 -0.1286
 2715WAT      O11579   1.368   2.601   6.196 -0.0900  0.3231  0.1648
 2715WAT     H111580   1.424   2.550   6.238  0.0539  0.0891 -0.3081
 2715WAT     H211581   1.401   2.681   6.209 -1.0339  0.4698  2.0295
 2715WAT    EPW11582   1.381   2.606   6.204 -0.2081  0.3102  0.3704
 2716WAT      O11583   5.085   1.316   0.357  0.7366 -0.2407  0.6223
 2716WAT     H111584   5.151   1.371   0.343  1.2019 -0.6873  0.9938
 2716WAT     H211585   5.017   1.355   0.320  1.1631  0.3410  0.4388
 2716WAT    EPW11586   5.085   1.330   0.349  0.8684 -0.2207  0.6501
 2717WAT      O11587   2.536   6.096   5.603 -0.1822 -0.3812 -0.7079
 2717WAT     H111588   2.611   6.137   5.588 -0.3048 -0.1446 -0.6977
 2717WAT     H211589   2.513   6.125   5.682 -1.5084  1.5096 -1.6930
 2717WAT    EPW11590   2.543   6.107   5.613 -0.3962 -0.0669 -0.8519
 2718WAT      O11591   1.644   3.148   0.143  0.0508 -0.2929 -0.3057
 2718WAT     H111592   1.608   3.131   0.221 -1.6903  2.0847 -0.4847
 2718WAT     H211593   1.591   3.106   0.088 -1.9229  2.1673 -0.4716
 2718WAT    EPW11594   1.631   3.139   0.147 -0.4979  0.4217 -0.3567
 2719WAT      O11595   7.536   0.106   5.392  0.3259  0.1981 -0.3141
 2719WAT     H111596   7.458   0.140   5.414 -0.4233 -0.7883 -1.3299
 2719WAT     H211597   7.587   0.128   5.459 -0.9825  0.3323  0.6882
 2719WAT    EPW11598   7.532   0.115   5.405  0.0219  0.0722 -0.3161
 2720WAT      O11599   5.733   5.633   2.247  0.0233  0.4121 -0.2786
 2720WAT     H111600   5.693   5.660   2.174  1.2047 -0.7718 -1.4230
 2720WAT     H211601   5.668   5.623   2.304 -1.3771 -1.3724 -2.0311
 2720WAT    EPW11602   5.718   5.636   2.244 -0.0090 -0.0264 -0.7065
 2721WAT      O11603   6.168   1.928   6.454  0.0938  0.4019  0.2337
 2721WAT     H111604   6.126   1.857   6.483 -1.7342  0.9485 -0.8649
 2721WAT     H211605   6.236   1.895   6.410 -0.5833 -0.6758 -0.0419
 2721WAT    EPW11606   6.172   1.913   6.452 -0.2763  0.3235  0.0307
 2722WAT      O11607   3.579   0.574   2.598  0.1194 -0.2718  0.8236
 2722WAT     H111608   3.524   0.538   2.541  1.5564  1.2582 -1.7150
 2722WAT     H211609   3.545   0.653   2.613  0.7497  0.0657  0.5239
 2722WAT    EPW11610   3.566   0.580   2.592  0.4248  0.0041  0.4043
 2723WAT      O11611   0.249   2.601   3.958  0.2254  0.2047  0.2100
 2723WAT     H111612   0.283   2.522   3.972  1.0184  0.6155  0.6798
 2723WAT     H211613   0.318   2.654   3.966  0.3132  0.7394 -2.8784
 2723WAT    EPW11614   0.264   2.597   3.961  0.3555  0.3444 -0.1768
 2724WAT      O11615   7.638   3.645   5.659 -0.4180  0.2954 -0.0447
 2724WAT     H111616   7.588   3.591   5.612 -0.8140  0.7611 -0.1683
 2724WAT     H211617   7.599   3.723   5.649  0.5804  0.7510 -0.4914
 2724WAT    EPW11618   7.625   3.648   5.651 -0.3290  0.4315 -0.1289
 2725WAT      O11619   4.024   1.161   7.706 -0.5959  0.0711 -0.0705
 2725WAT     H111620   4.090   1.106   7.721  0.1897  1.0298  0.0483
 2725WAT     H211621   3.955   1.120   7.742  0.3743  0.1670  2.0438
 2725WAT    EPW11622   4.024   1.147   7.713 -0.3365  0.2269  0.2594
 2726WAT      O11623   0.281   7.443   5.482  0.6391  0.3887 -0.0614
 2726WAT     H111624   0.283   7.376   5.538 -0.3408  0.7731  0.4521
 2726WAT     H211625   0.214   7.424   5.430 -0.0212  1.2430  0.4506
 2726WAT    EPW11626   0.271   7.430   5.483  0.3968  0.5717  0.0901
 2727WAT      O11627   4.627   3.643   2.919  0.0995  0.0927 -0.5515
 2727WAT     H111628   4.561   3.608   2.875  0.3953  2.3056 -3.0113
 2727WAT     H211629   4.588   3.701   2.971 -0.0159  0.2081 -0.7635
 2727WAT    EPW11630   4.612   3.647   2.920  0.1261  0.4367 -0.9462
 2728WAT      O11631   4.610   0.430   0.799 -0.3571  0.1516 -0.5076
 2728WAT     H111632   4.584   0.457   0.878 -0.1426  0.4161 -0.5240
 2728WAT     H211633   4.588   0.497   0.747  1.1775  0.7900 -0.3801
 2728WAT    EPW11634   4.603   0.444   0.803 -0.0987  0.2850 -0.4912
 2729WAT      O11635   3.470   6.686   2.410  0.3371 -0.0138 -0.3688
 2729WAT     H111636   3.481   6.612   2.365  1.6417  0.2376 -0.5163
 2729WAT     H211637   3.512   6.670   2.485 -1.2788 -0.2031  0.5328
 2729WAT    EPW11638   3.478   6.673   2.414  0.2911 -0.0046 -0.2574
 2730WAT      O11639   5.324   1.614   0.803 -0.3267 -0.3902 -0.8270
 2730WAT     H111640   5.333   1.562   0.873 -0.1177  0.7645  0.0415
 2730WAT     H211641   5.242   1.599   0.777 -0.7573 -0.1169  0.2967
 2730WAT    EPW11642   5.313   1.604   0.810 -0.3595 -0.1793 -0.5327
 2731WAT      O11643   6.499   5.423   6.659 -0.3668 -0.0083  0.0934
 2731WAT     H111644   6.418   5.432   6.689 -1.1981 -3.2079 -0.7690
 2731WAT     H211645   6.492   5.443   6.574 -0.3396 -0.5312 -0.0374
 2731WAT    EPW11646   6.486   5.428   6.651 -0.4856 -0.5582 -0.0533
 2732WAT      O11647   1.912   4.443   6.974  0.0001  0.6371 -0.2869
 2732WAT     H111648   1.847   4.501   6.978 -1.3908 -0.8630 -0.5016
 2732WAT     H211649   1.934   4.430   7.057  0.0579  1.1629 -0.2162
 2732WAT    EPW11650   1.906   4.450   6.987 -0.1968  0.4932 -0.3082
 2733WAT      O11651   5.333   0.299   6.651 -0.7543  0.4711 -0.1576
 2733WAT     H111652   5.286   0.355   6.603 -0.7066 -0.4081 -1.2657
 2733WAT     H211653   5.292   0.223   6.641  0.6142 -0.2260 -0.7659
 2733WAT    EPW11654   5.320   0.296   6.643 -0.5451  0.2382 -0.4111
 2734WAT      O11655   0.241   3.903   6.619 -0.3439 -0.3864 -0.2216
 2734WAT     H111656   0.204   3.977   6.648 -0.0984  0.9940 -2.9908
 2734WAT     H211657   0.227   3.846   6.683 -2.7736  1.3966  1.0168
 2734WAT    EPW11658   0.233   3.906   6.633 -0.6665  0.0809 -0.4477
 2735WAT      O11659   6.129   4.113   7.820 -0.2021  0.0593 -0.6510
 2735WAT     H111660   6.180   4.140   7.885  0.7251 -1.7478 -0.5845
 2735WAT     H211661   6.050   4.144   7.843  0.6278  2.1420 -0.3165
 2735WAT    EPW11662   6.125   4.122   7.833  0.0575  0.1001 -0.5918
 2736WAT      O11663   7.743   4.633   4.978 -0.4533  0.1100  0.0308
 2736WAT     H111664   7.663   4.668   4.975 -0.1000  1.1648  1.5245
 2736WAT     H211665   7.754   4.599   4.899 -1.3904  2.1619 -1.0504
 2736WAT    EPW11666   7.733   4.633   4.966 -0.5395  0.5689  0.0917
 2737WAT      O11667   7.121   0.690   6.112  0.4925  0.1267 -0.1105
 2737WAT     H111668   7.118   0.640   6.040  1.8323 -1.4629  0.8608
 2737WAT     H211669   7.155   0.637   6.172  0.0229  1.6182  1.5434
 2737WAT    EPW11670   7.126   0.675   6.110  0.6211  0.1122  0.2773
 2738WAT      O11671   5.422   1.726   4.190  0.1897  0.3297 -0.2159
 2738WAT     H111672   5.337   1.747   4.194 -0.5207 -1.9556 -1.4955
 2738WAT     H211673   5.422   1.639   4.193  2.4193  0.2211 -1.2637
 2738WAT    EPW11674   5.409   1.716   4.191  0.4141 -0.0239 -0.5597
 2739WAT      O11675   2.763   3.124   7.619  0.0823  1.0889  0.2223
 2739WAT     H111676   2.836   3.160   7.587  0.0146  1.3353  0.3418
 2739WAT     H211677   2.706   3.189   7.617  0.0309  1.0619  0.6932
 2739WAT    EPW11678   2.766   3.139   7.614  0.0647  1.1213  0.3095
 2740WAT      O11679   4.930   2.266   6.694 -0.3671  0.0425  0.0536
 2740WAT     H111680   5.009   2.301   6.686  0.1960 -0.6752  1.8976
 2740WAT     H211681   4.884   2.302   6.629  1.1089  1.4772 -0.2424
 2740WAT    EPW11682   4.935   2.277   6.684 -0.0659  0.1484  0.2822
 2741WAT      O11683   4.958   7.625   3.608 -0.0656 -0.5191  0.3467
 2741WAT     H111684   5.027   7.573   3.617 -0.2046 -0.4767  1.8771
 2741WAT     H211685   4.896   7.585   3.653 -0.5027  0.3838  0.5701
 2741WAT    EPW11686   4.959   7.611   3.616 -0.1507 -0.3794  0.6058
 2742WAT      O11687   4.199   1.068   0.131  0.7175 -0.1017  0.8734
 2742WAT     H111688   4.279   1.059   0.167  1.4760  0.9259 -0.4510
 2742WAT     H211689   4.208   1.138   0.080 -0.3000 -1.4465 -1.2978
 2742WAT    EPW11690   4.212   1.077   0.129  0.6793 -0.1486  0.3570
 2743WAT      O11691   0.176   4.642   4.726 -0.4579 -0.1572 -0.0750
 2743WAT     H111692   0.222   4.675   4.792  0.7582  0.0932 -1.0160
 2743WAT     H211693   0.111   4.699   4.716  0.1197  0.5328  0.0302
 2743WAT    EPW11694   0.173   4.655   4.734 -0.1929 -0.0183 -0.1984
 2744WAT      O11695   6.687   5.859   5.873 -0.5009  0.6104  0.4271
 2744WAT     H111696   6.685   5.915   5.940  0.5217  1.3579 -0.1420
 2744WAT     H211697   6.701   5.911   5.804  0.1807 -0.3124 -0.1444
 2744WAT    EPW11698   6.689   5.875   5.873 -0.2491  0.5845  0.2586
 2745WAT      O11699   0.573   5.860   0.110 -0.4298  0.1474 -0.4825
 2745WAT     H111700   0.515   5.825   0.054 -1.0277  1.3553 -0.6614
 2745WAT     H211701   0.523   5.903   0.167  0.0841 -2.1108  1.8310
 2745WAT    EPW11702   0.557   5.861   0.110 -0.4422 -0.0078 -0.1671
 2746WAT      O11703   1.444   1.495   0.532 -0.6601 -0.1874  0.0456
 2746WAT     H111704   1.497   1.520   0.596 -0.2760  0.2583 -0.4455
 2746WAT     H211705   1.459   1.409   0.525  1.9388  0.3099 -1.8152
 2746WAT    EPW11706   1.454   1.486   0.540 -0.2194 -0.0481 -0.3018
 2747WAT      O11707   6.435   1.583   6.124 -0.0649  0.6180 -0.1929
 2747WAT     H111708   6.370   1.601   6.070 -0.5404  0.3655  0.2899
 2747WAT     H211709   6.501   1.563   6.070 -0.2851  1.1980 -0.6817
 2747WAT    EPW11710   6.435   1.582   6.108 -0.1677  0.6663 -0.1938
 2748WAT      O11711   5.845   2.008   2.193 -0.0448 -0.5000 -0.0130
 2748WAT     H111712   5.776   2.037   2.238 -1.2133 -0.7383 -1.5489
 2748WAT     H211713   5.905   2.070   2.205 -0.8853  0.2285  0.5447
 2748WAT    EPW11714   5.844   2.022   2.201 -0.3415 -0.4276 -0.1575
 2749WAT      O11715   6.904   5.903   0.654 -0.3843  0.2894 -0.4159
 2749WAT     H111716   6.922   5.823   0.682  3.0518  0.6200 -1.1728
 2749WAT     H211717   6.921   5.954   0.723 -2.2109  0.4929 -0.0472
 2749WAT    EPW11718   6.909   5.899   0.668 -0.1465  0.3683 -0.4732
 2750WAT      O11719   3.912   1.960   4.694 -0.7992  0.0993  0.1049
 2750WAT     H111720   3.878   1.948   4.614 -1.0486 -1.7718  0.4344
 2750WAT     H211721   3.865   2.025   4.727 -1.5154  0.0929 -0.8507
 2750WAT    EPW11722   3.900   1.968   4.687 -0.9418 -0.1780  0.0124
 2751WAT      O11723   5.968   2.108   5.952  0.0841  0.2379  0.3458
 2751WAT     H111724   5.890   2.117   5.991 -0.1926 -0.0830 -0.1252
 2751WAT     H211725   6.019   2.078   6.016 -0.0159  1.0383  0.8260
 2751WAT    EPW11726   5.964   2.105   5.967  0.0284  0.3088  0.3472
 2752WAT      O11727   3.162   6.711   0.947 -0.4748 -0.4724 -0.2461
 2752WAT     H111728   3.246   6.688   0.957 -0.7597 -2.1173 -1.3792
 2752WAT     H211729   3.148   6.700   0.862 -1.5749  0.8522 -0.2701
 2752WAT    EPW11730   3.173   6.706   0.936 -0.6794 -0.5197 -0.4170
 2753WAT      O11731   1.801   2.057   3.717 -0.0887 -0.1295  0.1134
 2753WAT     H111732   1.832   2.120   3.769 -0.2711  0.3373 -0.3356
 2753WAT     H211733   1.749   2.100   3.662  2.1722 -0.1639 -2.2362
 2753WAT    EPW11734   1.798   2.072   3.716  0.2183 -0.0656 -0.3000
 2754WAT      O11735   5.358   2.089   4.992  0.0622 -0.3529 -0.5152
 2754WAT     H111736   5.276   2.077   4.966 -0.1119 -0.3166  0.0188
 2754WAT     H211737   5.405   2.069   4.921 -0.3235 -1.8070 -0.3821
 2754WAT    EPW11738   5.353   2.084   4.978 -0.0205 -0.5624 -0.4167
 2755WAT      O11739   6.147   3.922   7.631 -0.1944  0.2829 -0.0305
 2755WAT     H111740   6.161   3.971   7.702 -1.9237 -0.3018  0.7788
 2755WAT     H211741   6.223   3.881   7.619 -0.2553 -0.7249  2.4187
 2755WAT    EPW11742   6.161   3.923   7.639 -0.4588  0.0476  0.4508
 2756WAT      O11743   4.042   0.862   0.831  0.4580 -0.3804  0.1738
 2756WAT     H111744   4.002   0.940   0.831  2.5305  0.7746 -0.8190
 2756WAT     H211745   4.107   0.872   0.888 -0.1711 -1.9705  1.2307
 2756WAT    EPW11746   4.046   0.875   0.839  0.6712 -0.4447  0.1833
 2757WAT      O11747   3.752   2.891   0.788 -0.3438  0.3946  0.2023
 2757WAT     H111748   3.785   2.817   0.755 -1.7628 -0.6734  1.0578
 2757WAT     H211749   3.732   2.938   0.717 -1.0191 -0.7900 -0.4166
 2757WAT    EPW11750   3.754   2.887   0.772 -0.6531  0.0618  0.2372
 2758WAT      O11751   4.111   0.390   2.311 -0.0385  0.2343 -0.0093
 2758WAT     H111752   4.166   0.436   2.262 -0.5443  2.0844  1.0285
 2758WAT     H211753   4.097   0.317   2.265  1.8315  0.5224 -1.1289
 2758WAT    EPW11754   4.117   0.386   2.297  0.1630  0.5502 -0.0214
 2759WAT      O11755   6.368   2.024   4.169 -0.1274 -0.2871  0.2625
 2759WAT     H111756   6.408   2.095   4.201  0.3240 -0.7981  0.8781
 2759WAT     H211757   6.434   1.967   4.160 -0.5754 -0.8279  0.3707
 2759WAT    EPW11758   6.384   2.026   4.173 -0.1269 -0.4425  0.3695
 2760WAT      O11759   6.528   2.447   3.083 -0.0874  0.5603  0.4226
 2760WAT     H111760   6.500   2.515   3.130  0.2174  2.2748 -1.6873
 2760WAT     H211761   6.612   2.465   3.067  0.0768 -0.4441  0.0333
 2760WAT    EPW11762   6.536   2.460   3.087 -0.0181  0.6652  0.0534
 2761WAT      O11763   5.569   3.467   1.917  0.0536  0.2893 -0.6467
 2761WAT     H111764   5.502   3.411   1.921  0.9193 -0.7697 -0.6138
 2761WAT     H211765   5.530   3.545   1.922 -1.2442 -0.2684 -1.5457
 2761WAT    EPW11766   5.553   3.470   1.919 -0.0103  0.0505 -0.7746
 2762WAT      O11767   6.143   3.994   6.182 -0.2962 -0.3311 -0.2299
 2762WAT     H111768   6.206   4.033   6.229 -0.7811 -1.0052  1.0411
 2762WAT     H211769   6.165   3.910   6.186 -1.2181 -0.5653  0.1653
 2762WAT    EPW11770   6.156   3.988   6.190 -0.5040 -0.4652  0.0162
 2763WAT      O11771   2.070   0.656   5.845  0.5780  0.1229 -0.1130
 2763WAT     H111772   2.065   0.639   5.760 -2.7033 -0.7174  0.1129
 2763WAT     H211773   2.011   0.719   5.857 -0.9597 -1.5534  1.8330
 2763WAT    EPW11774   2.061   0.662   5.834 -0.1339 -0.2488  0.2078
 2764WAT      O11775   6.246   3.096   2.994  0.1040 -0.8659  0.4249
 2764WAT     H111776   6.211   3.171   3.023  2.1139  0.1524  0.4209
 2764WAT     H211777   6.273   3.056   3.067  0.1683 -0.9620  0.3494
 2764WAT    EPW11778   6.245   3.101   3.009  0.4104 -0.7297  0.4131
 2765WAT      O11779   4.410   1.281   1.775  0.2826 -0.5080 -0.1567
 2765WAT     H111780   4.477   1.241   1.813 -0.2511 -0.3626  1.0000
 2765WAT     H211781   4.351   1.218   1.766  0.4762 -0.5805 -0.9266
 2765WAT    EPW11782   4.411   1.266   1.780  0.2324 -0.4972 -0.0995
 2766WAT      O11783   6.763   0.558   0.209  0.6718 -0.0371  0.3685
 2766WAT     H111784   6.800   0.637   0.211  0.8306 -0.1145  0.5346
 2766WAT     H211785   6.822   0.508   0.168 -0.1959  0.3130 -1.4365
 2766WAT    EPW11786   6.777   0.562   0.203  0.5671  0.0032  0.1264
 2767WAT      O11787   6.923   6.026   4.965  0.0060  0.2863 -0.4810
 2767WAT     H111788   6.897   5.946   4.986 -0.7480  0.2828 -1.3467
 2767WAT     H211789   6.999   6.013   4.924 -0.4919 -0.0740 -1.3135
 2767WAT    EPW11790   6.931   6.012   4.962 -0.1789  0.2326 -0.7318
 2768WAT      O11791   6.174   0.264   7.379  0.2174  0.4496 -0.3115
 2768WAT     H111792   6.194   0.296   7.458  0.2705  0.3381 -0.2797
 2768WAT     H211793   6.194   0.179   7.386 -2.8786 -0.3130  0.6455
 2768WAT    EPW11794   6.180   0.256   7.392 -0.2321  0.3205 -0.1654
 2769WAT      O11795   5.462   6.248   2.304 -0.4263 -0.4283 -0.0920
 2769WAT     H111796   5.401   6.193   2.334  0.2254 -0.8713  0.4618
 2769WAT     H211797   5.520   6.251   2.370  0.2765 -0.2199 -0.7127
 2769WAT    EPW11798   5.461   6.241   2.318 -0.2262 -0.4630 -0.1019
 2770WAT      O11799   4.846   2.653   7.817  0.0997  0.2305  0.1775
 2770WAT     H111800   4.796   2.630   7.749  0.1304  1.0082 -0.1251
 2770WAT     H211801   4.900   2.713   7.783  1.0214 -0.3516  0.5783
 2770WAT    EPW11802   4.846   2.658   7.802  0.2404  0.2594  0.1920
 2771WAT      O11803   0.898   3.655   4.256 -0.1939  0.6210  0.6779
 2771WAT     H111804   0.972   3.653   4.303 -1.0907  0.7965  2.1505
 2771WAT     H211805   0.908   3.590   4.199  1.3991  1.1008  0.3574
 2771WAT    EPW11806   0.911   3.645   4.255 -0.0910  0.7178  0.8481
 2772WAT      O11807   5.424   1.733   5.742 -0.3487 -0.4264  0.2346
 2772WAT     H111808   5.361   1.750   5.685 -0.1600 -2.2148 -0.5783
 2772WAT     H211809   5.393   1.764   5.817 -0.8629  1.4253 -0.6812
 2772WAT    EPW11810   5.410   1.740   5.745 -0.3968 -0.4170 -0.0207
 2773WAT      O11811   6.124   7.644   2.499  0.4935  0.1040 -0.5790
 2773WAT     H111812   6.075   7.610   2.435 -2.3524  0.4047  1.2811
 2773WAT     H211813   6.094   7.725   2.507  1.3091  0.3138  0.6452
 2773WAT    EPW11814   6.112   7.651   2.491  0.1936  0.1794 -0.1234
 2774WAT      O11815   2.833   2.975   2.494  0.1975  0.1007 -0.2819
 2774WAT     H111816   2.908   2.931   2.487  1.2446  1.9363 -1.5950
 2774WAT     H211817   2.858   3.057   2.506 -1.5032  1.0822 -2.5581
 2774WAT    EPW11818   2.848   2.980   2.495  0.1009  0.5168 -0.8121
 2775WAT      O11819   4.737   4.249   2.021  0.6116 -0.2947 -0.2348
 2775WAT     H111820   4.676   4.223   1.965 -0.7652  0.2324  0.9616
 2775WAT     H211821   4.805   4.267   1.970 -0.0362 -1.4162 -1.5508
 2775WAT    EPW11822   4.738   4.248   2.005  0.3126 -0.3825 -0.2525
 2776WAT      O11823   0.069   7.153   5.247  0.4533  0.0237  0.4408
 2776WAT     H111824  -0.006   7.122   5.214 -0.6735  1.0866  1.9094
 2776WAT     H211825   0.098   7.088   5.297  0.9304 -0.6595 -0.6600
 2776WAT    EPW11826   0.062   7.139   5.249  0.3573  0.0798  0.4951
 2777WAT      O11827   4.139   3.107   1.742 -0.7486  0.0182 -0.5700
 2777WAT     H111828   4.164   3.175   1.695 -0.8440 -1.8352 -3.5508
 2777WAT     H211829   4.091   3.142   1.806 -0.7530  2.6945 -1.9338
 2777WAT    EPW11830   4.136   3.122   1.745 -0.7633  0.1398 -1.2118
 2778WAT      O11831   5.658   0.406   6.087 -0.0787 -0.8032 -0.2665
 2778WAT     H111832   5.701   0.450   6.025 -1.3689  1.0168  0.0334
 2778WAT     H211833   5.620   0.341   6.044  0.1733 -0.3965 -1.1244
 2778WAT    EPW11834   5.659   0.403   6.072 -0.2321 -0.4743 -0.3490
 2779WAT      O11835   6.769   5.517   7.609 -0.3471  0.7534  0.1066
 2779WAT     H111836   6.782   5.603   7.596  0.0044  0.4321 -1.8991
 2779WAT     H211837   6.683   5.508   7.594 -0.4302  0.7800  0.5531
 2779WAT    EPW11838   6.758   5.529   7.605 -0.3074  0.7099 -0.1237
 2780WAT      O11839   5.877   0.831   1.771  0.3428  0.0702 -0.3339
 2780WAT     H111840   5.863   0.761   1.821  0.6971 -0.6936 -1.2724
 2780WAT     H211841   5.952   0.864   1.802  1.0724 -0.9516 -0.9392
 2780WAT    EPW11842   5.886   0.826   1.783  0.5029 -0.1936 -0.5620
 2781WAT      O11843   5.014   3.697   2.179 -0.3041  0.6153  0.1908
 2781WAT     H111844   5.022   3.748   2.108 -0.1848 -0.4960 -0.6096
 2781WAT     H211845   4.961   3.743   2.231 -1.7909  0.7151 -1.3205
 2781WAT    EPW11846   5.008   3.712   2.176 -0.5061  0.4659 -0.1506
 2782WAT      O11847   4.143   2.352   6.601  0.0132 -0.0009  0.0985
 2782WAT     H111848   4.161   2.398   6.673  0.5805 -1.6318  1.0541
 2782WAT     H211849   4.178   2.274   6.617 -1.4429 -0.9824 -1.1900
 2782WAT    EPW11850   4.151   2.348   6.614 -0.1181 -0.3868  0.0494
 2783WAT      O11851   3.311   0.951   1.795  0.0920 -0.0961 -0.1638
 2783WAT     H111852   3.309   0.885   1.739  0.1406 -0.2896  0.0595
 2783WAT     H211853   3.334   0.913   1.870  2.5201  0.5221 -0.5187
 2783WAT    EPW11854   3.314   0.935   1.798  0.4578 -0.0334 -0.1832
 2784WAT      O11855   4.403   6.647   6.740 -0.0247 -0.5696  0.0886
 2784WAT     H111856   4.414   6.565   6.768 -0.4589 -0.3728  0.8526
 2784WAT     H211857   4.349   6.638   6.672 -0.4643 -0.8827  0.4688
 2784WAT    EPW11858   4.396   6.633   6.734 -0.1538 -0.5868  0.2576
 2785WAT      O11859   5.872   2.057   7.155  0.1970  0.3452 -0.2570
 2785WAT     H111860   5.796   2.094   7.175  1.1336  1.2787  1.8642
 2785WAT     H211861   5.850   1.974   7.138 -1.3945  0.8295 -0.7262
 2785WAT    EPW11862   5.857   2.050   7.156  0.1003  0.5546 -0.0130
 2786WAT      O11863   5.339   6.946   5.373  0.3865 -0.0615  0.2372
 2786WAT     H111864   5.266   6.905   5.348 -0.6910  1.0269  1.4825
 2786WAT     H211865   5.369   6.981   5.299 -0.4469 -0.3552 -0.2573
 2786WAT    EPW11866   5.333   6.945   5.358  0.1042  0.0559  0.3481
 2787WAT      O11867   1.299   1.258   4.999 -0.1389 -0.0391  0.4259
 2787WAT     H111868   1.370   1.293   5.035  0.3026 -1.2510  0.7689
 2787WAT     H211869   1.305   1.281   4.915 -0.1318  1.1141  0.7226
 2787WAT    EPW11870   1.310   1.267   4.992 -0.0727 -0.0477  0.5204
 2788WAT      O11871   4.600   0.368   6.558  0.1101 -0.2873  0.8214
 2788WAT     H111872   4.642   0.322   6.618  1.7475 -0.3759 -0.3326
 2788WAT     H211873   4.649   0.359   6.487 -1.1545  0.7506 -0.2379
 2788WAT    EPW11874   4.613   0.360   6.557  0.1652 -0.1471  0.4944
 2789WAT      O11875   5.898   3.230   3.372  0.1970 -0.1041 -0.2364
 2789WAT     H111876   5.894   3.274   3.447 -0.3493 -0.8893  0.2205
 2789WAT     H211877   5.820   3.244   3.336  0.5037  0.3776 -0.7370
 2789WAT    EPW11878   5.886   3.238   3.378  0.1616 -0.1489 -0.2428
 2790WAT      O11879   6.221   0.707   5.122 -0.1286  0.0208  0.3619
 2790WAT     H111880   6.160   0.722   5.062  1.1177 -0.0122 -0.9833
 2790WAT     H211881   6.282   0.662   5.078  1.3781  1.0267  1.3232
 2790WAT    EPW11882   6.221   0.703   5.107  0.2781  0.1645  0.3052
 2791WAT      O11883   4.034   1.682   7.860 -0.0709 -0.3236  0.0842
 2791WAT     H111884   3.960   1.726   7.848  0.8490  0.8844 -1.5853
 2791WAT     H211885   4.061   1.665   7.779  0.2988 -2.8744  0.6523
 2791WAT    EPW11886   4.027   1.686   7.846  0.1196 -0.5219 -0.0785
 2792WAT      O11887   1.608   2.719   0.060 -0.2145 -0.3378  0.0733
 2792WAT     H111888   1.668   2.766   0.102 -0.6160 -0.8687  1.2889
 2792WAT     H211889   1.649   2.644   0.042  0.0451 -0.0088 -0.7765
 2792WAT    EPW11890   1.623   2.715   0.063 -0.2354 -0.3676  0.1274
 2793WAT      O11891   6.759   0.164   7.788  0.0195  0.7457  0.5074
 2793WAT     H111892   6.770   0.100   7.846  1.0132 -0.3431 -0.8163
 2793WAT     H211893   6.686   0.204   7.814  0.4984  0.3793  2.5472
 2793WAT    EPW11894   6.750   0.161   7.800  0.2370  0.5307  0.6132
 2794WAT      O11895   7.299   3.654   5.581 -0.5008 -0.5862 -0.3757
 2794WAT     H111896   7.225   3.650   5.626 -0.0893  2.0243  0.7176
 2794WAT     H211897   7.340   3.581   5.601 -1.1692 -0.3687  2.0312
 2794WAT    EPW11898   7.294   3.643   5.590 -0.5388 -0.1684  0.1414
 2795WAT      O11899   6.308   1.575   0.117 -0.2715  0.0799  0.0422
 2795WAT     H111900   6.240   1.522   0.127 -0.9557  0.6406 -1.3559
 2795WAT     H211901   6.345   1.547   0.043  2.5952 -1.8431  1.9898
 2795WAT    EPW11902   6.304   1.563   0.107  0.0509 -0.1214  0.1233
 2796WAT      O11903   6.716   2.780   5.644  0.0245  0.1660  0.5784
 2796WAT     H111904   6.647   2.752   5.689 -0.4058 -0.1501 -0.2486
 2796WAT     H211905   6.767   2.818   5.704 -1.3565  1.3463  1.0605
 2796WAT    EPW11906   6.713   2.782   5.659 -0.2431  0.2937  0.5275
 2797WAT      O11907   0.128   4.802   5.149  0.1869  0.4111 -0.0575
 2797WAT     H111908   0.115   4.771   5.229  0.6191  0.6709  0.1189
 2797WAT     H211909   0.088   4.744   5.097  0.8833 -0.3684  0.2665
 2797WAT    EPW11910   0.120   4.789   5.153  0.3536  0.3344  0.0164
 2798WAT      O11911   7.093   2.026   6.486 -0.8123 -0.0425 -0.2725
 2798WAT     H111912   7.018   1.981   6.490 -0.0998 -1.1981  0.8078
 2798WAT     H211913   7.112   2.026   6.401 -2.3146  0.7829 -0.6487
 2798WAT    EPW11914   7.085   2.019   6.474 -0.9290 -0.0913 -0.1685
 2799WAT      O11915   0.679   1.424   7.093  0.2048  0.4512  0.1342
 2799WAT     H111916   0.642   1.426   7.172 -0.3068 -1.4874 -0.0194
 2799WAT     H211917   0.748   1.477   7.102  0.6425 -0.3663  2.1387
 2799WAT    EPW11918   0.684   1.432   7.106  0.1939  0.0441  0.4076
 2800WAT      O11919   5.786   2.016   3.936  0.2134 -0.4716 -0.3203
 2800WAT     H111920   5.715   1.965   3.930  0.3712 -1.0058  1.5898
 2800WAT     H211921   5.843   1.966   3.979  1.2087  0.5041 -0.4720
 2800WAT    EPW11922   5.784   2.001   3.941  0.3837 -0.4064 -0.0605
 2801WAT      O11923   4.959   1.078   7.416  0.7054 -0.4528 -0.3768
 2801WAT     H111924   4.971   1.017   7.478 -1.2537 -0.3095  0.2082
 2801WAT     H211925   4.925   1.145   7.460  0.6778  0.2208 -1.3925
 2801WAT    EPW11926   4.956   1.078   7.432  0.4119 -0.3321 -0.4404
 2802WAT      O11927   4.994   0.054   7.417 -0.5754 -0.2402 -0.9085
 2802WAT     H111928   4.988   0.067   7.331 -0.7822  0.8493 -0.7423
 2802WAT     H211929   4.967   0.130   7.451  1.7541  0.2133  0.0812
 2802WAT    EPW11930   4.989   0.067   7.409 -0.2618 -0.0122 -0.7378
 2803WAT      O11931   5.457   5.432   7.417  0.0450 -0.9085 -0.0713
 2803WAT     H111932   5.395   5.406   7.361 -2.0943 -1.0642  2.1614
 2803WAT     H211933   5.518   5.370   7.410 -1.4308 -2.4119 -0.3405
 2803WAT    EPW11934   5.457   5.419   7.408 -0.4890 -1.1536  0.2188
 2804WAT      O11935   4.788   1.242   2.640  0.5070  0.5814  0.0575
 2804WAT     H111936   4.793   1.253   2.726  0.8980  0.0625  0.1066
 2804WAT     H211937   4.762   1.159   2.632  1.0919  0.4283 -0.3271
 2804WAT    EPW11938   4.785   1.231   2.651  0.6511  0.4821  0.0079
 2805WAT      O11939   2.486   0.406   2.808 -0.5368  0.4917 -0.0364
 2805WAT     H111940   2.533   0.378   2.741  0.0117 -0.0852  0.5776
 2805WAT     H211941   2.543   0.451   2.856 -1.1500  1.7626 -0.4464
 2805WAT    EPW11942   2.501   0.409   2.805 -0.5463  0.5942 -0.0062
 2806WAT      O11943   5.443   3.053   7.804  0.5138 -0.1230 -0.6801
 2806WAT     H111944   5.365   3.069   7.837  0.6844  1.1622 -0.8587
 2806WAT     H211945   5.494   3.044   7.874  0.2984 -0.5393 -0.5724
 2806WAT    EPW11946   5.439   3.054   7.819  0.5072  0.0054 -0.6905
 2807WAT      O11947   3.730   1.328   0.191  0.0686 -0.0149  0.3323
 2807WAT     H111948   3.647   1.354   0.192  0.0420 -0.0438 -0.5400
 2807WAT     H211949   3.726   1.245   0.215 -0.1534 -0.0048  0.3316
 2807WAT    EPW11950   3.717   1.320   0.195  0.0319 -0.0177  0.2033
 2808WAT      O11951   6.830   7.576   7.597  0.0348 -0.4405  0.3365
 2808WAT     H111952   6.879   7.577   7.669  1.4674  1.3315 -0.6051
 2808WAT     H211953   6.855   7.647   7.554 -0.0543 -1.9750 -2.4218
 2808WAT    EPW11954   6.841   7.587   7.602  0.2333 -0.4054 -0.2101
 2809WAT      O11955   5.687   2.823   6.281 -0.2111  0.1949 -0.2877
 2809WAT     H111956   5.753   2.770   6.263 -2.0591 -2.5566  0.4986
 2809WAT     H211957   5.693   2.835   6.368  0.9278  2.5030 -0.5863
 2809WAT    EPW11958   5.698   2.817   6.291 -0.3158  0.1294 -0.2156
 2810WAT      O11959   0.197   4.668   7.852 -0.2568  0.1422  0.0187
 2810WAT     H111960   0.111   4.671   7.838 -0.0748  2.5938 -1.0588
 2810WAT     H211961   0.231   4.709   7.783  1.8158 -0.7815  0.3968
 2810WAT    EPW11962   0.190   4.675   7.839  0.0763  0.3679 -0.0846
 2811WAT      O11963   0.924   5.606   6.549  0.1286 -0.1507  0.3103
 2811WAT     H111964   0.959   5.533   6.516 -0.4602 -1.2054  1.8510
 2811WAT     H211965   0.845   5.579   6.575  0.1916  0.8482  1.5948
 2811WAT    EPW11966   0.917   5.591   6.548  0.0509 -0.1589  0.7276
 2812WAT      O11967   3.547   1.579   0.333 -0.2817 -0.1606 -0.1146
 2812WAT     H111968   3.611   1.523   0.353  0.5385  0.9621  0.5165
 2812WAT     H211969   3.574   1.615   0.259 -0.5014 -0.1423 -0.1861
 2812WAT    EPW11970   3.560   1.576   0.325 -0.1930  0.0080 -0.0320
 2813WAT      O11971   6.098   3.301   7.696  0.2220 -0.4746  0.1987
 2813WAT     H111972   6.072   3.291   7.613 -2.2320 -0.8522  0.9204
 2813WAT     H211973   6.141   3.227   7.713 -0.4108 -0.9873 -0.3700
 2813WAT    EPW11974   6.100   3.289   7.687 -0.2340 -0.6061  0.2213
 2814WAT      O11975   5.276   3.161   3.418 -0.9148 -0.3721  0.3822
 2814WAT     H111976   5.283   3.075   3.402 -0.5296 -0.5384  1.3303
 2814WAT     H211977   5.231   3.191   3.350 -0.4304 -1.2050 -0.3316
 2814WAT    EPW11978   5.270   3.153   3.406 -0.7864 -0.5197  0.4168
 2815WAT      O11979   5.300   4.414   2.890 -0.0581  0.6957 -0.1358
 2815WAT     H111980   5.275   4.387   2.810 -0.7859  1.4575 -0.1853
 2815WAT     H211981   5.247   4.370   2.944  1.0578 -0.5366  0.0209
 2815WAT    EPW11982   5.288   4.403   2.886 -0.0008  0.6262 -0.1200
 2816WAT      O11983   4.424   2.628   4.072  0.3426 -0.0743  0.0446
 2816WAT     H111984   4.499   2.615   4.029  0.6762  2.9295 -0.5079
 2816WAT     H211985   4.363   2.596   4.018  1.0425 -0.0346 -0.7974
 2816WAT    EPW11986   4.426   2.622   4.058  0.4953  0.3753 -0.1614
 2817WAT      O11987   3.997   2.447   2.662 -0.2713 -0.1710  0.0150
 2817WAT     H111988   4.001   2.452   2.749 -1.1460  2.6088 -0.0254
 2817WAT     H211989   3.919   2.481   2.643  1.7335  3.9543 -2.0136
 2817WAT    EPW11990   3.986   2.453   2.672 -0.1044  0.8490 -0.2907
 2818WAT      O11991   1.809   7.397   3.792 -0.5777  0.3037 -0.4261
 2818WAT     H111992   1.857   7.353   3.733 -0.9962  0.9685 -1.2879
 2818WAT     H211993   1.841   7.478   3.786 -0.1355  0.2356  0.8015
 2818WAT    EPW11994   1.821   7.402   3.782 -0.5742  0.3918 -0.3721
 2819WAT      O11995   5.469   6.982   0.889  0.1450 -0.1110 -0.2524
 2819WAT     H111996   5.527   6.916   0.894  1.4390  1.0582  1.2862
 2819WAT     H211997   5.395   6.946   0.918  0.2986 -1.3841 -1.3389
 2819WAT    EPW11998   5.467   6.967   0.894  0.3588 -0.1263 -0.1856
 2820WAT      O11999   6.326   6.879   7.795 -0.0196  0.1287  0.8159
 2820WAT     H112000   6.300   6.942   7.850 -0.5761 -0.0236  0.7379
 2820WAT     H212001   6.261   6.876   7.736  0.8245  0.6841 -0.1843
 2820WAT    EPW12002   6.312   6.888   7.794  0.0229  0.1883  0.6567
 2821WAT      O12003   5.190   6.862   6.759  0.1155  0.2734  0.2353
 2821WAT     H112004   5.141   6.871   6.687  1.0625  0.6694 -0.3947
 2821WAT     H212005   5.167   6.930   6.809  0.3817  0.7645 -0.2915
 2821WAT    EPW12006   5.179   6.874   6.756  0.2947  0.4045  0.0644
 2822WAT      O12007   2.994   5.078   4.667 -0.2097 -0.2856  0.2258
 2822WAT     H112008   3.045   5.075   4.596 -1.0650  0.3040 -0.4231
 2822WAT     H212009   2.917   5.049   4.637 -0.9629  1.3156  0.5671
 2822WAT    EPW12010   2.990   5.073   4.652 -0.4473  0.0380  0.1804
 2823WAT      O12011   1.151   7.663   7.454 -0.0713  0.0730  0.7678
 2823WAT     H112012   1.180   7.739   7.421 -1.1703  2.1912  4.1668
 2823WAT     H212013   1.166   7.606   7.389  2.2102  2.8421 -1.4382
 2823WAT    EPW12014   1.157   7.666   7.439  0.1033  0.7949  0.9441
 2824WAT      O12015   4.575   4.533   1.871 -0.2520 -0.3372 -0.0714
 2824WAT     H112016   4.533   4.609   1.877  0.1140 -0.1844  0.7021
 2824WAT     H212017   4.607   4.521   1.952 -1.3896 -1.9564  0.1824
 2824WAT    EPW12018   4.574   4.543   1.884 -0.3660 -0.5538  0.0803
 2825WAT      O12019   2.287   1.390   0.224  0.3834 -0.9112  0.2975
 2825WAT     H112020   2.214   1.372   0.269 -1.5929  0.1529 -2.2620
 2825WAT     H212021   2.333   1.440   0.280 -1.4594 -0.4831  1.5208
 2825WAT    EPW12022   2.283   1.395   0.239 -0.1808 -0.6908  0.1001
 2826WAT      O12023   0.186   5.510   0.324 -0.2783 -0.3004  0.3763
 2826WAT     H112024   0.138   5.437   0.329 -1.4338  0.3199 -0.8000
 2826WAT     H212025   0.267   5.481   0.311 -0.2930 -1.3890  2.3847
 2826WAT    EPW12026   0.191   5.495   0.323 -0.4512 -0.3696  0.4992
 2827WAT      O12027   5.138   7.041   7.431 -0.4305 -0.1843  0.1804
 2827WAT     H112028   5.111   7.016   7.352  0.9621 -0.2657 -0.2959
 2827WAT     H212029   5.102   7.119   7.442  1.1417  0.8620 -1.5340
 2827WAT    EPW12030   5.129   7.049   7.421  0.0074 -0.0417 -0.1432
 2828WAT      O12031   6.985   2.326   6.962  0.1114 -0.2896 -0.0368
 2828WAT     H112032   6.970   2.282   6.888 -1.5481 -0.6549  0.4748
 2828WAT     H212033   6.929   2.393   6.957 -1.6381 -1.5109  1.8200
 2828WAT    EPW12034   6.975   2.329   6.950 -0.3922 -0.5240  0.3130
 2829WAT      O12035   6.766   7.515   0.784  0.1253  0.2153  0.2108
 2829WAT     H112036   6.755   7.571   0.850  1.9154  1.4923 -0.5071
 2829WAT     H212037   6.791   7.565   0.718 -1.6821 -1.0262 -1.5125
 2829WAT    EPW12038   6.768   7.530   0.784  0.1227  0.2205 -0.1498
 2830WAT      O12039   5.707   6.499   7.359 -0.0743 -0.1405  0.2734
 2830WAT     H112040   5.771   6.556   7.344  0.7492 -1.7746 -3.6610
 2830WAT     H212041   5.635   6.548   7.353  0.6522  0.9839  0.3349
 2830WAT    EPW12042   5.706   6.515   7.356  0.1546 -0.2158 -0.2987
 2831WAT      O12043   2.443   1.399   5.511 -0.5672 -0.1746 -0.3853
 2831WAT     H112044   2.526   1.384   5.531  0.2944  0.1231 -3.2779
 2831WAT     H212045   2.447   1.433   5.431 -3.3810  1.5720  0.0766
 2831WAT    EPW12046   2.456   1.402   5.502 -0.8556  0.1274 -0.7444
 2832WAT      O12047   1.771   3.110   7.196 -0.4239  0.1307 -0.0063
 2832WAT     H112048   1.756   3.028   7.171 -1.0822  0.6366 -1.3705
 2832WAT     H212049   1.858   3.118   7.187 -0.6000  0.2589 -2.2389
 2832WAT    EPW12050   1.782   3.099   7.191 -0.5472  0.2244 -0.5376
 2833WAT      O12051   5.402   1.807   1.013 -0.1801  0.1326  0.3437
 2833WAT     H112052   5.438   1.761   1.077 -1.1229  1.2558  1.7524
 2833WAT     H212053   5.361   1.747   0.965 -0.2519 -0.6374  1.3474
 2833WAT    EPW12054   5.401   1.792   1.015 -0.3300  0.1848  0.7000
 2834WAT      O12055   5.348   6.681   2.689  0.1942 -0.3319  0.1784
 2834WAT     H112056   5.305   6.754   2.671  0.1510 -0.0169  1.4693
 2834WAT     H212057   5.320   6.625   2.627 -0.6387  0.4081 -0.1372
 2834WAT    EPW12058   5.337   6.683   2.678  0.0647 -0.1760  0.3224
 2835WAT      O12059   4.262   3.872   0.750  0.8020  0.0057  0.5115
 2835WAT     H112060   4.310   3.935   0.713  0.5705 -0.3926 -0.4929
 2835WAT     H212061   4.272   3.887   0.836  0.8351  1.3456  0.3086
 2835WAT    EPW12062   4.270   3.884   0.757  0.7727  0.1448  0.3331
 2836WAT      O12063   3.989   0.929   1.941 -0.3653 -0.0328  0.0184
 2836WAT     H112064   3.942   0.879   1.994  4.1045 -2.1666  2.5599
 2836WAT     H212065   4.032   0.982   1.996  0.1557  1.9174 -2.0891
 2836WAT    EPW12066   3.989   0.930   1.957  0.3720 -0.0599  0.0825
 2837WAT      O12067   5.861   0.359   3.588 -0.3748 -0.0202  0.4837
 2837WAT     H112068   5.840   0.389   3.667  0.3226  0.7740  0.3785
 2837WAT     H212069   5.912   0.290   3.605 -3.1857 -2.2240  0.7573
 2837WAT    EPW12070   5.865   0.353   3.602 -0.6870 -0.2284  0.5086
 2838WAT      O12071   2.289   5.816   2.751  0.4118  0.5937 -0.0172
 2838WAT     H112072   2.265   5.809   2.835  1.0758 -0.5464  0.0962
 2838WAT     H212073   2.376   5.812   2.755  0.4235  0.0447 -0.8100
 2838WAT    EPW12074   2.298   5.815   2.764  0.5116  0.3442 -0.1176
 2839WAT      O12075   4.878   1.869   7.618 -0.1844 -0.3265  0.2543
 2839WAT     H112076   4.858   1.860   7.533 -1.6025  0.7824  0.4417
 2839WAT     H212077   4.965   1.860   7.619 -0.1216 -0.1921 -1.3392
 2839WAT    EPW12078   4.888   1.866   7.605 -0.3846 -0.1428  0.0466
 2840WAT      O12079   3.327   6.345   3.018  0.2150 -0.2047  0.5011
 2840WAT     H112080   3.311   6.424   3.049 -0.1017 -0.4333  0.9299
 2840WAT     H212081   3.315   6.354   2.932  2.8176  0.8545  0.1604
 2840WAT    EPW12082   3.323   6.358   3.010  0.5527 -0.0820  0.5141
 2841WAT      O12083   5.234   5.849   0.443 -0.4738  0.0852 -0.2968
 2841WAT     H112084   5.264   5.810   0.371 -0.7401  0.4821 -0.6280
 2841WAT     H212085   5.255   5.793   0.507 -2.0871 -1.2721 -0.8877
 2841WAT    EPW12086   5.242   5.835   0.442 -0.7515 -0.0567 -0.4330
 2842WAT      O12087   4.240   5.830   5.527  0.1337  0.1261  0.1183
 2842WAT     H112088   4.201   5.834   5.605 -2.0472  1.1070 -0.9381
 2842WAT     H212089   4.226   5.748   5.502 -0.4854  0.2074  0.1645
 2842WAT    EPW12090   4.232   5.818   5.535 -0.2799  0.2830 -0.0310
 2843WAT      O12091   4.303   7.530   0.221  0.1303 -0.1554  0.1933
 2843WAT     H112092   4.354   7.597   0.196  1.0812 -0.7552  0.4518
 2843WAT     H212093   4.360   7.465   0.232 -0.6450 -0.7126  1.0165
 2843WAT    EPW12094   4.319   7.531   0.219  0.1562 -0.3263  0.3531
 2844WAT      O12095   4.352   0.283   7.578 -0.1579 -0.1363  0.1431
 2844WAT     H112096   4.354   0.324   7.501 -0.0897 -1.8622 -0.8188
 2844WAT     H212097   4.333   0.201   7.557 -0.6714 -0.5491  2.0340
 2844WAT    EPW12098   4.350   0.277   7.564 -0.2237 -0.4522  0.2803
 2845WAT      O12099   5.925   4.984   5.266  0.1966  0.6526  0.0302
 2845WAT     H112100   5.910   4.987   5.180 -0.7043  0.1695  0.1519
 2845WAT     H212101   5.851   5.015   5.301  0.3025  0.2402  0.6383
 2845WAT    EPW12102   5.912   4.989   5.259  0.0791  0.5203  0.1380
 2846WAT      O12103   2.747   2.983   6.025 -0.1633  0.8876 -0.1122
 2846WAT     H112104   2.663   2.997   6.005 -0.4364  1.3474  1.2670
 2846WAT     H212105   2.771   2.918   5.971 -1.9245 -0.5217  0.7133
 2846WAT    EPW12106   2.738   2.975   6.014 -0.4638  0.7473  0.2135
 2847WAT      O12107   4.216   4.622   2.057  0.0654 -0.0286 -0.4999
 2847WAT     H112108   4.242   4.658   2.132 -1.9238  1.3973 -0.4209
 2847WAT     H212109   4.220   4.536   2.072  0.0052  0.2321  1.1188
 2847WAT    EPW12110   4.221   4.614   2.070 -0.2373  0.2206 -0.2491
 2848WAT      O12111   4.242   1.878   3.266 -0.4362 -0.1716 -0.1382
 2848WAT     H112112   4.312   1.883   3.214 -1.2256 -2.8389 -1.6137
 2848WAT     H212113   4.194   1.948   3.242  1.0709  0.9750  0.0177
 2848WAT    EPW12114   4.245   1.889   3.254 -0.3302 -0.3962 -0.3331
 2849WAT      O12115   6.937   1.546   6.938 -1.0394 -0.0715  0.2002
 2849WAT     H112116   7.017   1.523   6.963 -0.8913 -0.5142 -0.6345
 2849WAT     H212117   6.924   1.500   6.865 -2.2169 -0.3203  0.5453
 2849WAT    EPW12118   6.947   1.536   6.931 -1.1914 -0.1736  0.1279
 2850WAT      O12119   4.761   5.256   1.665  0.1486  0.4885  0.5927
 2850WAT     H112120   4.706   5.294   1.721 -2.4788 -0.2230 -1.2980
 2850WAT     H212121   4.737   5.172   1.667  0.4387  0.3369 -1.0412
 2850WAT    EPW12122   4.749   5.249   1.674 -0.1967  0.3610  0.0721
 2851WAT      O12123   7.175   7.554   4.660 -0.0774  0.0486 -0.2719
 2851WAT     H112124   7.117   7.548   4.725  0.0206 -1.9902 -0.3074
 2851WAT     H212125   7.133   7.599   4.599 -1.3091 -0.5894  0.0705
 2851WAT    EPW12126   7.160   7.560   4.661 -0.2449 -0.3468 -0.2266
 2852WAT      O12127   4.164   6.217   7.059 -0.0708  0.2268  0.1766
 2852WAT     H112128   4.113   6.158   7.099 -0.0070  0.9740  1.4193
 2852WAT     H212129   4.213   6.249   7.124  2.5201 -0.9381 -1.0643
 2852WAT    EPW12130   4.164   6.213   7.074  0.3214  0.1651  0.1769
 2853WAT      O12131   5.033   2.150   4.193 -0.7557 -0.2762 -0.9025
 2853WAT     H112132   4.954   2.157   4.229 -1.3982  0.5820 -2.3785
 2853WAT     H212133   5.037   2.218   4.139  1.0844 -0.1831 -0.7382
 2853WAT    EPW12134   5.022   2.161   4.191 -0.5788 -0.1357 -1.0962
 2854WAT      O12135   5.382   1.323   3.255  0.3074 -0.1155  0.1468
 2854WAT     H112136   5.397   1.325   3.169  0.3734  1.2440  0.1675
 2854WAT     H212137   5.387   1.238   3.274 -0.6257 -0.5597 -1.3499
 2854WAT    EPW12138   5.385   1.311   3.245  0.1793  0.0197 -0.0713
 2855WAT      O12139   6.244   0.449   3.682 -0.3080  0.3360  0.5746
 2855WAT     H112140   6.210   0.526   3.658  1.1677  0.9299  0.2394
 2855WAT     H212141   6.179   0.409   3.724 -2.1078  0.4668 -1.8800
 2855WAT    EPW12142   6.230   0.454   3.684 -0.3559  0.4430  0.1625
 2856WAT      O12143   6.032   3.139   4.531  0.6015  0.4499 -0.5336
 2856WAT     H112144   5.965   3.146   4.476 -0.1922 -0.5019  0.2717
 2856WAT     H212145   6.084   3.205   4.508 -0.9196  1.6411 -0.7596
 2856WAT    EPW12146   6.030   3.150   4.520  0.2595  0.4852 -0.4480
 2857WAT      O12147   4.423   3.853   5.948 -0.0190  0.3821  0.2696
 2857WAT     H112148   4.443   3.770   5.931  1.7574  0.7789  0.2439
 2857WAT     H212149   4.388   3.882   5.874  0.7170  0.0536 -0.2122
 2857WAT    EPW12150   4.421   3.845   5.935  0.3521  0.3922  0.1946
 2858WAT      O12151   2.863   1.410   3.686 -0.3432 -0.7721 -0.3097
 2858WAT     H112152   2.794   1.362   3.660 -0.9393  0.4020 -0.9661
 2858WAT     H212153   2.830   1.461   3.748 -0.2972  0.3759 -1.1896
 2858WAT    EPW12154   2.848   1.410   3.691 -0.4245 -0.4291 -0.5366
 2859WAT      O12155   3.400   6.721   1.643 -0.6554  0.0729  0.0225
 2859WAT     H112156   3.365   6.667   1.584  0.7174  1.7468 -2.5166
 2859WAT     H212157   3.342   6.786   1.649 -0.6188  0.0884  0.2414
 2859WAT    EPW12158   3.386   6.723   1.635 -0.4472  0.3224 -0.3202
 2860WAT      O12159   2.294   2.791   0.658  0.2453  0.1754 -0.8916
 2860WAT     H112160   2.278   2.760   0.738  0.4737  0.7342 -0.6227
 2860WAT     H212161   2.220   2.833   0.638 -0.3141 -1.0796 -1.5275
 2860WAT    EPW12162   2.281   2.793   0.667  0.1964  0.0725 -0.9458
 2861WAT      O12163   6.230   5.924   7.667 -0.0407 -0.0073 -0.4215
 2861WAT     H112164   6.174   5.898   7.730  0.3432  2.8369  1.2628
 2861WAT     H212165   6.185   5.985   7.624  1.4308  1.9347  0.6195
 2861WAT    EPW12166   6.215   5.929   7.670  0.2334  0.6998 -0.0189
 2862WAT      O12167   5.219   5.761   0.706  0.6088  0.2294  0.2482
 2862WAT     H112168   5.273   5.824   0.734  0.8550  0.2164 -0.1862
 2862WAT     H212169   5.145   5.804   0.689  1.2302  0.6896 -1.5002
 2862WAT    EPW12170   5.216   5.777   0.708  0.7370  0.2955 -0.0743
 2863WAT      O12171   2.502   6.985   1.079  0.4385  0.6234 -0.4373
 2863WAT     H112172   2.584   6.961   1.059  0.0564  0.2413 -1.6028
 2863WAT     H212173   2.454   6.941   1.022 -0.5724  1.0830  0.0459
 2863WAT    EPW12174   2.507   6.975   1.068  0.2327  0.6349 -0.5381
 2864WAT      O12175   5.632   6.858   2.215 -0.1322  0.1732 -0.2149
 2864WAT     H112176   5.707   6.813   2.222 -2.0431 -3.4405 -0.4917
 2864WAT     H212177   5.621   6.890   2.296  0.6764 -1.1820  0.4869
 2864WAT    EPW12178   5.641   6.856   2.228 -0.2950 -0.5608 -0.1521
 2865WAT      O12179   5.951   4.520   0.680 -0.2004 -0.2466  0.1719
 2865WAT     H112180   5.998   4.467   0.731  0.8231 -1.6888 -2.1116
 2865WAT     H212181   6.004   4.588   0.666 -0.7398  0.4892  1.4566
 2865WAT    EPW12182   5.965   4.522   0.686 -0.1289 -0.3510  0.0243
 2866WAT      O12183   5.503   7.473   3.262 -0.1413 -0.4379 -0.0558
 2866WAT     H112184   5.526   7.389   3.268  1.3716 -0.0353  0.2081
 2866WAT     H212185   5.556   7.513   3.318  0.1112  0.8683 -1.1577
 2866WAT    EPW12186   5.514   7.466   3.271  0.1195 -0.1855 -0.1796
 2867WAT      O12187   4.500   2.363   4.232 -0.1108  0.3419  0.2550
 2867WAT     H112188   4.515   2.279   4.213  1.4229  0.7694 -0.6141
 2867WAT     H212189   4.442   2.387   4.172 -2.3194 -0.6157  1.8839
 2867WAT    EPW12190   4.494   2.354   4.220 -0.2105  0.2636  0.3673
 2868WAT      O12191   4.304   0.484   6.388 -0.2719 -0.2014 -0.0170
 2868WAT     H112192   4.320   0.569   6.376 -2.1824  0.5100  1.9383
 2868WAT     H212193   4.301   0.475   6.474 -2.1898 -1.8081 -0.1645
 2868WAT    EPW12194   4.306   0.495   6.399 -0.8374 -0.3336  0.2500
 2869WAT      O12195   7.429   0.813   7.278 -0.7467  0.2318  0.5651
 2869WAT     H112196   7.503   0.859   7.286 -1.3546  1.0365  1.9568
 2869WAT     H212197   7.455   0.730   7.279  0.1903  0.5138  0.2373
 2869WAT    EPW12198   7.444   0.808   7.279 -0.6981  0.3923  0.7223
 2870WAT      O12199   4.635   3.416   6.175 -0.0895  0.0342 -0.3466
 2870WAT     H112200   4.565   3.463   6.154 -0.9267 -1.5818 -1.4016
 2870WAT     H212201   4.642   3.426   6.261 -1.8907 -0.0958 -0.1563
 2870WAT    EPW12202   4.626   3.425   6.184 -0.4792 -0.2238 -0.4743
 2871WAT      O12203   4.427   1.266   2.418  0.8981 -0.0134  0.0352
 2871WAT     H112204   4.494   1.215   2.396  1.1683  0.1606  0.4570
 2871WAT     H212205   4.385   1.278   2.342  0.5083 -1.3201  0.0233
 2871WAT    EPW12206   4.431   1.260   2.404  0.8804 -0.1808  0.0957
 2872WAT      O12207   2.426   7.151   0.075  0.0531 -0.6541  0.5129
 2872WAT     H112208   2.378   7.223   0.068  0.2436 -0.5784 -0.1136
 2872WAT     H212209   2.466   7.146  -0.003 -1.2360 -2.3617 -0.0904
 2872WAT    EPW12210   2.425   7.161   0.062 -0.1092 -0.8952  0.3312
 2873WAT      O12211   4.941   3.227   1.553 -0.3329  0.3447 -0.4889
 2873WAT     H112212   4.894   3.155   1.538  0.6337 -0.3976 -0.0577
 2873WAT     H212213   4.993   3.232   1.483 -0.0242  0.3261 -0.2581
 2873WAT    EPW12214   4.942   3.217   1.540 -0.1445  0.2323 -0.3911
 2874WAT      O12215   5.847   5.591   7.552 -0.4979  0.4757  0.3178
 2874WAT     H112216   5.777   5.539   7.563 -0.5593  0.2300 -0.9786
 2874WAT     H212217   5.817   5.670   7.572 -1.4136  0.4933 -0.9394
 2874WAT    EPW12218   5.832   5.595   7.556 -0.6422  0.4420 -0.0594
 2875WAT      O12219   4.933   3.111   4.254  0.2200  0.7163 -0.0818
 2875WAT     H112220   4.989   3.056   4.293  0.5148  1.2164  0.2139
 2875WAT     H212221   4.930   3.081   4.172 -0.1412 -0.1391  0.2298
 2875WAT    EPW12222   4.941   3.098   4.248  0.2102  0.6638  0.0079
 2876WAT      O12223   5.066   4.454   5.802 -0.3976  0.6601 -0.1232
 2876WAT     H112224   5.030   4.388   5.847 -0.9854  0.5003 -0.8063
 2876WAT     H212225   5.104   4.503   5.864  0.8745 -0.8024  0.3228
 2876WAT    EPW12226   5.066   4.451   5.818 -0.2965  0.4205 -0.1582
 2877WAT      O12227   5.492   6.045   7.031  0.1242 -0.5124 -0.2041
 2877WAT     H112228   5.436   6.108   7.053  0.6624  0.2274 -0.8963
 2877WAT     H212229   5.514   6.065   6.949  3.4610  0.8815  0.8153
 2877WAT    EPW12230   5.487   6.058   7.022  0.6966 -0.1972 -0.1558
 2878WAT      O12231   6.441   0.699   3.855 -0.5334 -0.0893 -0.5696
 2878WAT     H112232   6.399   0.662   3.922 -1.4374  0.8543 -0.6100
 2878WAT     H212233   6.496   0.636   3.828 -1.2346 -0.9938  0.0871
 2878WAT    EPW12234   6.443   0.684   3.861 -0.7705 -0.0835 -0.4786
 2879WAT      O12235   0.326   4.600   6.732  0.1754 -0.2658 -1.2815
 2879WAT     H112236   0.300   4.517   6.740  2.0672 -0.8490 -0.4683
 2879WAT     H212237   0.308   4.635   6.809  0.7219 -0.3595 -1.1054
 2879WAT    EPW12238   0.320   4.593   6.744  0.5356 -0.3658 -1.1354
 2880WAT      O12239   6.726   0.394   0.422 -0.1586 -0.4093  0.6608
 2880WAT     H112240   6.721   0.452   0.358 -1.7607 -0.1988  0.9315
 2880WAT     H212241   6.670   0.425   0.482 -1.3929 -2.3859  0.6328
 2880WAT    EPW12242   6.717   0.407   0.421 -0.5776 -0.6702  0.6966
 2881WAT      O12243   5.823   1.054   4.386 -0.3780  0.2077 -0.1065
 2881WAT     H112244   5.827   1.077   4.470 -1.3539 -0.0432  0.0199
 2881WAT     H212245   5.884   0.992   4.378  0.4750  0.9863  0.1527
 2881WAT    EPW12246   5.833   1.049   4.397 -0.3961  0.2856 -0.0496
 2882WAT      O12247   5.653   6.429   2.707  0.0086  0.3085  0.2385
 2882WAT     H112248   5.669   6.504   2.667 -1.5045  0.6867  0.2864
 2882WAT     H212249   5.728   6.411   2.749 -0.1829  2.7606  1.7974
 2882WAT    EPW12250   5.667   6.437   2.707 -0.2432  0.7266  0.4759
 2883WAT      O12251   4.320   1.694   0.992 -0.3411 -0.1545  0.0930
 2883WAT     H112252   4.272   1.693   1.065 -1.4234 -1.9515 -0.5757
 2883WAT     H212253   4.377   1.629   1.003  1.5741  1.5167  0.5782
 2883WAT    EPW12254   4.321   1.684   1.004 -0.2180 -0.1731  0.0659
 2884WAT      O12255   5.267   3.767   7.798 -0.5637 -0.2539  0.0093
 2884WAT     H112256   5.281   3.683   7.812  0.2040  0.1470  1.9632
 2884WAT     H212257   5.214   3.768   7.728  1.0666 -2.2241 -1.3458
 2884WAT    EPW12258   5.261   3.755   7.790 -0.2094 -0.4857  0.0978
 2885WAT      O12259   6.444   6.690   5.717 -0.3813  0.5650  0.2608
 2885WAT     H112260   6.476   6.771   5.717  0.8497  0.1462 -1.4649
 2885WAT     H212261   6.496   6.648   5.773  0.4432  0.4812 -0.5512
 2885WAT    EPW12262   6.456   6.696   5.726 -0.0776  0.4908 -0.1141
 2886WAT      O12263   5.953   1.460   0.479 -0.0518 -0.2280 -0.7741
 2886WAT     H112264   6.032   1.497   0.488  0.7375 -2.0181  0.2789
 2886WAT     H212265   5.967   1.378   0.505 -2.7349 -0.0680  1.5553
 2886WAT    EPW12266   5.967   1.454   0.484 -0.3316 -0.4688 -0.2745
 2887WAT      O12267   5.235   0.082   3.873 -0.0079 -0.8066 -0.2045
 2887WAT     H112268   5.228   0.158   3.832  1.7534 -0.4285  0.1040
 2887WAT     H212269   5.290   0.099   3.939  1.0043 -2.4774 -0.5561
 2887WAT    EPW12270   5.242   0.096   3.877  0.4018 -0.9976 -0.2109
 2888WAT      O12271   5.416   1.343   2.932  0.5415  0.4959 -0.2651
 2888WAT     H112272   5.479   1.402   2.945  0.1928  0.7926  0.0789
 2888WAT     H212273   5.370   1.377   2.867  0.8517  0.1781 -0.6592
 2888WAT    EPW12274   5.419   1.357   2.924  0.5358  0.4928 -0.2725
 2889WAT      O12275   5.028   4.492   0.961  0.7380  0.1749 -0.2620
 2889WAT     H112276   4.948   4.466   0.984  0.7292 -1.4196 -1.8774
 2889WAT     H212277   5.039   4.566   1.006 -0.5180 -0.9798  2.1158
 2889WAT    EPW12278   5.018   4.499   0.971  0.5512 -0.2312 -0.1494
 2890WAT      O12279   6.477   6.037   7.728  0.0675 -0.0921 -0.4441
 2890WAT     H112280   6.405   5.988   7.725  0.4867 -0.6769 -2.4294
 2890WAT     H212281   6.464   6.096   7.665 -0.0940  1.9659  1.4034
 2890WAT    EPW12282   6.465   6.039   7.718  0.1056  0.1255 -0.4644
 2891WAT      O12283   5.365   3.653   2.736 -0.1344  0.1415 -0.3571
 2891WAT     H112284   5.446   3.670   2.766 -0.2631 -1.1179  0.8411
 2891WAT     H212285   5.313   3.689   2.797 -0.4279 -0.8531 -0.0033
 2891WAT    EPW12286   5.369   3.661   2.750 -0.1968 -0.1915 -0.1279
 2892WAT      O12287   4.230   2.100   0.483 -0.2186 -0.1561 -0.6545
 2892WAT     H112288   4.164   2.043   0.490 -2.6715  2.3387 -1.5659
 2892WAT     H212289   4.275   2.071   0.414 -1.3468 -1.0218 -1.0458
 2892WAT    EPW12290   4.227   2.087   0.474 -0.7476  0.0846 -0.8469
 2893WAT      O12291   4.751   4.740   1.332 -0.0511  0.2205 -0.4234
 2893WAT     H112292   4.814   4.755   1.391 -0.6656  0.5419  0.1665
 2893WAT     H212293   4.720   4.820   1.316  0.0055  0.1150 -1.0706
 2893WAT    EPW12294   4.756   4.754   1.338 -0.1335  0.2524 -0.4318
 2894WAT      O12295   0.989   2.074   0.148 -0.0114 -0.5959  0.3421
 2894WAT     H112296   1.001   2.112   0.225 -1.8975 -0.2487  0.5173
 2894WAT     H212297   1.029   1.997   0.156 -0.2851 -0.6131  1.7281
 2894WAT    EPW12298   0.997   2.068   0.160 -0.3305 -0.5471  0.5727
 2895WAT      O12299   2.413   4.558   2.554 -0.1716  0.4231  0.3711
 2895WAT     H112300   2.405   4.534   2.471  2.2588  1.0979 -0.1458
 2895WAT     H212301   2.396   4.644   2.552 -0.5846  0.3465  0.6510
 2895WAT    EPW12302   2.409   4.567   2.542  0.1264  0.5115  0.3361
 2896WAT      O12303   4.331   3.146   6.653  0.1051 -0.1182 -0.1010
 2896WAT     H112304   4.336   3.134   6.567 -1.3378  1.3099 -0.4325
 2896WAT     H212305   4.250   3.121   6.673  0.4492 -0.5177  0.8763
 2896WAT    EPW12306   4.320   3.141   6.644 -0.0572  0.0337 -0.0056
 2897WAT      O12307   4.417   0.189   6.834  0.0611  0.6451  0.5505
 2897WAT     H112308   4.415   0.187   6.747  1.1268  5.0304  0.1711
 2897WAT     H212309   4.497   0.162   6.854 -0.7844 -2.2321  0.4854
 2897WAT    EPW12310   4.428   0.185   6.824  0.0936  0.8679  0.4848
 2898WAT      O12311   2.583   7.226   4.763 -0.3783  0.5196 -1.2982
 2898WAT     H112312   2.610   7.205   4.683 -2.0088 -0.1200 -1.7075
 2898WAT     H212313   2.502   7.195   4.767  0.2401 -1.0413  1.2326
 2898WAT    EPW12314   2.575   7.218   4.752 -0.5278  0.1945 -0.9848
 2899WAT      O12315   3.762   5.880   1.297  0.3364  0.1899 -1.0083
 2899WAT     H112316   3.829   5.899   1.351  0.2251  0.6804 -1.0359
 2899WAT     H212317   3.800   5.835   1.233  0.6797  0.6239 -1.1194
 2899WAT    EPW12318   3.778   5.876   1.296  0.3707  0.3265 -1.0288
 2900WAT      O12319   4.454   2.211   1.114 -0.0632  0.0857 -0.4528
 2900WAT     H112320   4.472   2.254   1.040 -0.1452 -0.4666 -0.7965
 2900WAT     H212321   4.465   2.272   1.175 -0.9115  0.8092 -0.9886
 2900WAT    EPW12322   4.459   2.227   1.112 -0.2006  0.1110 -0.5827
 2901WAT      O12323   6.166   6.390   7.051  0.1633 -0.1647  0.4741
 2901WAT     H112324   6.089   6.350   7.058 -0.9815  1.9434  0.8063
 2901WAT     H212325   6.163   6.426   6.972  1.2734 -0.9360  0.0699
 2901WAT    EPW12326   6.154   6.389   7.041  0.1581  0.0327  0.4635
 2902WAT      O12327   2.597   3.268   0.944 -0.2129 -0.9903 -0.0417
 2902WAT     H112328   2.651   3.332   0.968 -0.0646 -1.3746  0.6627
 2902WAT     H212329   2.519   3.296   0.971 -0.0793 -1.3169  0.7180
 2902WAT    EPW12330   2.594   3.282   0.952 -0.1713 -1.0953  0.1746
 2903WAT      O12331   6.322   2.042   4.502  0.1334 -0.2689  0.3201
 2903WAT     H112332   6.353   1.974   4.456  1.0881  0.5315 -0.2603
 2903WAT     H212333   6.282   2.090   4.441  0.4830  0.2714  0.5164
 2903WAT    EPW12334   6.320   2.039   4.486  0.3261 -0.0708  0.2634
 2904WAT      O12335   1.881   3.775   4.034  0.2884 -0.0520 -0.1298
 2904WAT     H112336   1.907   3.821   3.965 -0.3473 -0.5673 -0.7179
 2904WAT     H212337   1.917   3.697   4.021  0.6002  0.0002  0.3939
 2904WAT    EPW12338   1.890   3.770   4.022  0.2405 -0.1204 -0.1393
 2905WAT      O12339   6.621   3.488   6.174 -0.0690  0.0077 -0.0748
 2905WAT     H112340   6.691   3.436   6.179  0.2848  0.4575 -0.2655
 2905WAT     H212341   6.555   3.433   6.167  0.0358 -0.5244  2.2486
 2905WAT    EPW12342   6.622   3.473   6.174 -0.0013 -0.0044  0.2402
 2906WAT      O12343   0.402   3.576   6.672  0.1071  0.4121  0.3153
 2906WAT     H112344   0.415   3.506   6.722 -0.5155  1.0522  1.3914
 2906WAT     H212345   0.364   3.543   6.601  1.0871 -0.5170  0.1930
 2906WAT    EPW12346   0.398   3.561   6.669  0.1599  0.3694  0.4562
 2907WAT      O12347   3.127   1.264   7.638  0.2136  0.3014 -0.4051
 2907WAT     H112348   3.050   1.265   7.680  0.4107  0.1502 -0.0405
 2907WAT     H212349   3.110   1.309   7.565 -0.4577 -0.4427 -0.7285
 2907WAT    EPW12350   3.113   1.271   7.633  0.1435  0.1691 -0.3990
 2908WAT      O12351   4.981   1.030   3.902 -0.0010 -0.1468  0.5554
 2908WAT     H112352   4.956   1.106   3.937 -0.8550 -0.1515 -0.0118
 2908WAT     H212353   4.908   0.999   3.866  0.7606 -0.2941 -0.9574
 2908WAT    EPW12354   4.966   1.037   3.902 -0.0147 -0.1693  0.2482
 2909WAT      O12355   6.832   6.534   5.793 -0.2097 -0.0807  0.7322
 2909WAT     H112356   6.759   6.556   5.836 -0.0935  1.1112  0.3455
 2909WAT     H212357   6.807   6.528   5.710  0.2060  0.8306  0.5216
 2909WAT    EPW12358   6.818   6.537   5.787 -0.1311  0.2300  0.6440
 2910WAT      O12359   3.226   6.550   2.051 -0.1035 -0.2506  0.0935
 2910WAT     H112360   3.239   6.636   2.050  1.7186 -0.4412 -2.5247
 2910WAT     H212361   3.141   6.542   2.072 -0.4439  2.1956 -0.0968
 2910WAT    EPW12362   3.215   6.561   2.054  0.1154  0.0826 -0.3213
 2911WAT      O12363   4.917   1.427   2.198 -0.5172 -0.3084  0.1891
 2911WAT     H112364   4.887   1.486   2.255 -0.8267  0.0336 -0.3164
 2911WAT     H212365   4.989   1.466   2.165 -0.8416 -0.1126 -0.3014
 2911WAT    EPW12366   4.923   1.442   2.201 -0.6108 -0.2290  0.0420
 2912WAT      O12367   6.040   5.077   1.994 -0.5149 -0.1159  0.5857
 2912WAT     H112368   6.118   5.106   2.022  0.7264 -0.1089 -2.5258
 2912WAT     H212369   5.987   5.145   2.008  0.1719  0.1768  1.9898
 2912WAT    EPW12370   6.044   5.091   2.000 -0.2300 -0.0716  0.3335
 2913WAT      O12371   2.773   3.037   1.683 -0.0599 -0.0729 -0.3403
 2913WAT     H112372   2.732   2.996   1.618 -1.7434 -1.4569  1.4388
 2913WAT     H212373   2.712   3.090   1.715  0.0125 -0.9025  1.3044
 2913WAT    EPW12374   2.758   3.039   1.678 -0.2979 -0.3999  0.1655
 2914WAT      O12375   4.401   6.753   0.090 -0.2510  0.3089 -0.3963
 2914WAT     H112376   4.412   6.839   0.093 -1.5193  0.4624  1.3076
 2914WAT     H212377   4.317   6.744   0.068 -0.3242 -0.4573  0.1564
 2914WAT    EPW12378   4.390   6.764   0.088 -0.4492  0.2184 -0.0629
 2915WAT      O12379   3.071   1.876   6.756  0.5835 -0.4530  0.2152
 2915WAT     H112380   3.101   1.951   6.723  2.4038 -1.2413 -0.1065
 2915WAT     H212381   3.005   1.855   6.702 -1.3094  1.8232  1.4930
 2915WAT    EPW12382   3.066   1.884   6.743  0.5728 -0.2332  0.3565
 2916WAT      O12383   7.699   2.678   4.005 -0.0696  0.7294 -0.2898
 2916WAT     H112384   7.700   2.743   4.063 -1.0001  1.6343 -1.2350
 2916WAT     H212385   7.783   2.660   3.993  0.2854  2.5883 -0.8697
 2916WAT    EPW12386   7.711   2.685   4.012 -0.1546  1.1377 -0.5151
 2917WAT      O12387   7.001   3.288   7.707  0.2546  0.1663  0.0913
 2917WAT     H112388   6.954   3.227   7.667  0.6615  0.2312 -0.5009
 2917WAT     H212389   6.953   3.308   7.777  1.0063 -2.2089  1.3945
 2917WAT    EPW12390   6.987   3.282   7.711  0.4258 -0.1750  0.1963
 2918WAT      O12391   2.836   0.690   3.432  0.1646  0.1454 -0.5020
 2918WAT     H112392   2.895   0.726   3.378 -0.0393 -0.5451 -1.2084
 2918WAT     H212393   2.882   0.676   3.505  0.3129  1.5613 -0.3027
 2918WAT    EPW12394   2.852   0.693   3.435  0.1563  0.2526 -0.5769
 2919WAT      O12395   7.509   0.889   4.963  0.1685  0.1594  0.4987
 2919WAT     H112396   7.591   0.870   4.989  0.5099  0.7996 -0.0771
 2919WAT     H212397   7.463   0.820   4.989  0.7265  0.1911  1.6412
 2919WAT    EPW12398   7.514   0.876   4.971  0.3014  0.2587  0.5824
 2920WAT      O12399   5.348   7.457   2.006 -0.1315  0.0905  0.7114
 2920WAT     H112400   5.309   7.417   2.072  0.5569 -0.3388  0.8706
 2920WAT     H212401   5.410   7.400   1.982  1.1408  1.2353  1.2067
 2920WAT    EPW12402   5.352   7.442   2.012  0.1581  0.1962  0.8081
 2921WAT      O12403   6.377   2.649   5.369  0.3653 -0.2530  0.1945
 2921WAT     H112404   6.303   2.687   5.395  0.1468 -1.0751  0.8276
 2921WAT     H212405   6.426   2.716   5.341  0.2785  0.6023  1.9290
 2921WAT    EPW12406   6.374   2.665   5.369  0.3202 -0.2481  0.5443
 2922WAT      O12407   6.270   5.788   4.139  0.3286 -0.3613 -0.2828
 2922WAT     H112408   6.248   5.755   4.216  2.7435  0.9210  1.0634
 2922WAT     H212409   6.228   5.865   4.137  0.4043 -0.3192 -0.1980
 2922WAT    EPW12410   6.260   5.795   4.150  0.6965 -0.1657 -0.0714
 2923WAT      O12411   2.731   1.988   2.338 -0.3259  0.2769 -0.1088
 2923WAT     H112412   2.771   1.989   2.415 -0.6884 -0.0972  0.0863
 2923WAT     H212413   2.792   2.017   2.283  0.1614 -0.1379  0.2022
 2923WAT    EPW12414   2.746   1.993   2.341 -0.3075  0.1604 -0.0340
 2924WAT      O12415   7.015   6.947   0.085  0.3630  0.0691  0.4141
 2924WAT     H112416   7.067   6.901   0.032  2.2082  1.7607  0.6609
 2924WAT     H212417   6.959   6.986   0.030 -0.9675 -1.9747  0.1693
 2924WAT    EPW12418   7.014   6.946   0.069  0.4390  0.0171  0.4144
 2925WAT      O12419   1.026   3.672   6.265 -0.1279  0.9084  0.2904
 2925WAT     H112420   1.018   3.695   6.182 -1.6397 -0.9911 -0.1808
 2925WAT     H212421   1.108   3.642   6.270 -0.4829 -0.3856 -0.9589
 2925WAT    EPW12422   1.037   3.671   6.254 -0.4037  0.4366  0.0362
 2926WAT      O12423   6.871   7.045   7.715  0.0481  0.5705  0.1740
 2926WAT     H112424   6.843   7.123   7.687  0.2288  1.0415  1.2438
 2926WAT     H212425   6.808   6.991   7.690 -0.1118  1.0619 -0.5337
 2926WAT    EPW12426   6.858   7.049   7.707  0.0512  0.7127  0.2275
 2927WAT      O12427   1.464   3.831   4.644 -0.0495  0.2759 -0.2266
 2927WAT     H112428   1.460   3.917   4.656 -0.8292  0.0161  1.7596
 2927WAT     H212429   1.507   3.823   4.569 -1.8542  2.4459 -1.6107
 2927WAT    EPW12430   1.470   3.843   4.635 -0.4312  0.5581 -0.1376
 2928WAT      O12431   5.385   7.274   7.345  0.1952  0.2479  0.3768
 2928WAT     H112432   5.326   7.335   7.327 -1.3080 -1.4913 -1.0420
 2928WAT     H212433   5.363   7.246   7.425  0.7504  1.3623  0.9338
 2928WAT    EPW12434   5.373   7.279   7.354  0.0552  0.1556  0.2495
 2929WAT      O12435   6.371   1.863   6.722  0.0159  0.1454  0.0400
 2929WAT     H112436   6.380   1.805   6.657  2.7816  1.7865 -1.1915
 2929WAT     H212437   6.369   1.940   6.681 -1.7954  1.0922  1.7380
 2929WAT    EPW12438   6.372   1.866   6.706  0.1569  0.5277  0.1089
 2930WAT      O12439   3.009   0.243   7.330  0.1615 -0.6825 -0.5873
 2930WAT     H112440   3.050   0.180   7.286  2.5868  0.8237 -0.6640
 2930WAT     H212441   3.013   0.216   7.413  0.4928 -0.9958 -0.7020
 2930WAT    EPW12442   3.016   0.229   7.336  0.5687 -0.5063 -0.6156
 2931WAT      O12443   7.340   1.047   4.000  0.2880 -0.9567 -0.3852
 2931WAT     H112444   7.264   1.005   4.009  0.5632 -1.7694 -1.5699
 2931WAT     H212445   7.399   0.982   3.999  0.9185 -0.3909 -0.2612
 2931WAT    EPW12446   7.338   1.031   4.001  0.4218 -0.9932 -0.5419
 2932WAT      O12447   3.871   4.085   1.160 -0.3424  0.2849 -0.3462
 2932WAT     H112448   3.837   4.028   1.104 -1.0940 -0.8379  1.1833
 2932WAT     H212449   3.824   4.073   1.233  1.5633  0.6285  1.0111
 2932WAT    EPW12450   3.859   4.075   1.163 -0.1719  0.1698  0.0802
 2933WAT      O12451   2.472   3.011   5.935  0.2140  0.3434 -0.0230
 2933WAT     H112452   2.475   3.001   5.848  1.5026 -0.8006  0.1215
 2933WAT     H212453   2.448   3.094   5.945 -0.4099  0.3713 -1.4629
 2933WAT    EPW12454   2.469   3.022   5.924  0.3122  0.1785 -0.2144
 2934WAT      O12455   1.085   4.855   6.648 -0.3472  0.2400 -0.0363
 2934WAT     H112456   1.105   4.796   6.709 -1.5802  0.4861  0.6538
 2934WAT     H212457   1.002   4.835   6.628  0.5793 -1.1479 -3.1686
 2934WAT    EPW12458   1.076   4.843   6.654 -0.3925  0.0714 -0.3971
 2935WAT      O12459   4.620   6.574   0.043 -0.4853  0.2736 -0.4030
 2935WAT     H112460   4.564   6.528  -0.007 -1.2564 -2.6688  2.7734
 2935WAT     H212461   4.569   6.635   0.079 -0.6648  0.3413 -0.7678
 2935WAT    EPW12462   4.604   6.576   0.041 -0.6257 -0.1510  0.0124
 2936WAT      O12463   6.201   6.433   2.887  0.5619  0.3802  0.0934
 2936WAT     H112464   6.235   6.505   2.851 -3.7997  2.5970 -0.3049
 2936WAT     H212465   6.210   6.372   2.825  0.2387  1.9456 -1.5712
 2936WAT    EPW12466   6.207   6.435   2.873 -0.1302  0.9389 -0.2113
 2937WAT      O12467   7.090   5.867   5.933  0.3560 -0.0055 -0.1214
 2937WAT     H112468   7.102   5.861   5.846  1.7010 -1.1277  0.1111
 2937WAT     H212469   7.064   5.786   5.955  0.3629  0.1826  0.5779
 2937WAT    EPW12470   7.088   5.854   5.923  0.5557 -0.1435  0.0163
 2938WAT      O12471   2.155   6.891   3.705  0.3061 -0.3875 -0.1949
 2938WAT     H112472   2.239   6.881   3.725  0.6146  0.4061 -1.0651
 2938WAT     H212473   2.153   6.886   3.618 -0.5503 -0.3953 -0.1843
 2938WAT    EPW12474   2.167   6.889   3.695  0.2251 -0.2714 -0.3219
 2939WAT      O12475   5.650   1.659   5.880  0.0647 -0.0952  0.0919
 2939WAT     H112476   5.581   1.669   5.827 -0.0611 -1.8133 -0.1360
 2939WAT     H212477   5.619   1.608   5.944  1.2430 -1.4385 -0.3553
 2939WAT    EPW12478   5.635   1.653   5.881  0.2202 -0.5474 -0.0078
 2940WAT      O12479   5.977   5.898   0.987  0.7660  0.1711 -1.1536
 2940WAT     H112480   6.030   5.967   0.992 -0.4750  1.1274 -0.5291
 2940WAT     H212481   5.959   5.880   1.071 -1.4834  1.2184 -1.3205
 2940WAT    EPW12482   5.982   5.906   1.000  0.2504  0.4671 -1.0860
 2941WAT      O12483   3.064   1.374   6.727  0.5585  0.0719  0.4681
 2941WAT     H112484   3.040   1.438   6.673  0.3141 -0.0348  0.4462
 2941WAT     H212485   3.147   1.358   6.704  0.5492  0.2264  0.3221
 2941WAT    EPW12486   3.073   1.381   6.716  0.5210  0.0790  0.4433
 2942WAT      O12487   4.368   1.502   7.524  0.2896  0.5450  0.6288
 2942WAT     H112488   4.379   1.416   7.533  0.3250  0.5915  1.0731
 2942WAT     H212489   4.384   1.533   7.605  1.2731  1.0654  0.2531
 2942WAT    EPW12490   4.372   1.494   7.538  0.4401  0.6288  0.6390
 2943WAT      O12491   5.588   1.299   6.764  0.2366 -0.3107  0.1247
 2943WAT     H112492   5.568   1.364   6.709 -2.5572  1.6427  3.0527
 2943WAT     H212493   5.544   1.231   6.732 -0.3775  0.4448 -0.6840
 2943WAT    EPW12494   5.578   1.299   6.751 -0.2668  0.0895  0.4377
 2944WAT      O12495   0.645   2.554   6.513  0.1337 -0.1057 -0.7048
 2944WAT     H112496   0.725   2.542   6.544 -0.8267 -1.6966  1.3893
 2944WAT     H212497   0.608   2.476   6.520 -1.0595  0.0890 -3.4890
 2944WAT    EPW12498   0.651   2.541   6.518 -0.1844 -0.3119 -0.8068
 2945WAT      O12499   4.932   0.094   5.888  0.3757  0.0876  0.7690
 2945WAT     H112500   4.893   0.172   5.882 -1.1519 -0.6656  0.5112
 2945WAT     H212501   4.886   0.044   5.834 -0.2157 -1.5945  2.7304
 2945WAT    EPW12502   4.920   0.098   5.879  0.0627 -0.2721  1.0207
 2946WAT      O12503   4.976   7.528   6.357  0.0715 -0.6591  0.4551
 2946WAT     H112504   5.050   7.513   6.312 -0.8739 -0.4438 -1.2788
 2946WAT     H212505   4.954   7.448   6.385  0.6176 -0.8268  0.4350
 2946WAT    EPW12506   4.984   7.514   6.354  0.0125 -0.6520  0.1960
 2947WAT      O12507   1.843   6.623   5.760  0.5265 -0.1101 -0.3741
 2947WAT     H112508   1.906   6.601   5.816 -1.0968  3.1221  3.1415
 2947WAT     H212509   1.867   6.702   5.731 -0.7073  0.0774 -0.9474
 2947WAT    EPW12510   1.856   6.631   5.764  0.1045  0.3950  0.0606
 2948WAT      O12511   3.816   0.524   7.624 -0.2383 -0.2850 -0.2161
 2948WAT     H112512   3.860   0.562   7.559  0.7287  1.2025  1.2263
 2948WAT     H212513   3.865   0.456   7.646  0.9030  0.8005  0.7309
 2948WAT    EPW12514   3.829   0.520   7.617  0.0731  0.0951  0.1369
 2949WAT      O12515   3.408   1.574   5.967  0.3430 -0.1664  0.2397
 2949WAT     H112516   3.412   1.621   5.894  1.1143  0.3948  0.6252
 2949WAT     H212517   3.400   1.634   6.030  0.3588 -0.6019  0.6674
 2949WAT    EPW12518   3.408   1.589   5.965  0.4593 -0.1478  0.3598
 2950WAT      O12519   0.147   7.622   4.545 -0.9053 -0.3153  0.2044
 2950WAT     H112520   0.066   7.590   4.548 -0.8934 -0.3972 -0.2402
 2950WAT     H212521   0.137   7.706   4.567 -1.1832 -0.2049 -0.3271
 2950WAT    EPW12522   0.134   7.630   4.549 -0.9446 -0.3111  0.0602
 2951WAT      O12523   5.097   0.743   0.042  0.1148 -0.0614  0.1105
 2951WAT     H112524   5.020   0.775   0.066  0.0946  1.6988 -1.9580
 2951WAT     H212525   5.083   0.657   0.037 -2.5140  0.3648 -2.5544
 2951WAT    EPW12526   5.084   0.735   0.045 -0.2765  0.2616 -0.5887
 2952WAT      O12527   1.687   5.247   0.452  0.4191 -0.2178  0.4299
 2952WAT     H112528   1.642   5.215   0.384  1.5528 -0.7203 -0.0964
 2952WAT     H212529   1.633   5.307   0.485 -1.9111 -2.7311  1.5894
 2952WAT    EPW12530   1.672   5.251   0.447  0.2423 -0.6633  0.5235
 2953WAT      O12531   3.934   0.712   7.791  0.1193 -0.3871 -0.0597
 2953WAT     H112532   3.896   0.661   7.731  0.7151  0.2349 -0.9912
 2953WAT     H212533   4.003   0.745   7.749 -0.2490  1.1913  0.5177
 2953WAT    EPW12534   3.938   0.710   7.776  0.1529 -0.0621 -0.1120
 2954WAT      O12535   5.942   6.459   0.987 -0.3852 -0.4746  0.0429
 2954WAT     H112536   5.935   6.515   1.053  1.8938  1.4028 -1.1558
 2954WAT     H212537   5.867   6.468   0.944 -1.1129 -0.3237  1.2933
 2954WAT    EPW12538   5.930   6.469   0.990 -0.1560 -0.1749  0.0506
 2955WAT      O12539   3.564   0.770   5.652 -0.0210 -0.2356  0.1800
 2955WAT     H112540   3.639   0.736   5.681 -0.9792 -1.4138  1.4544
 2955WAT     H212541   3.519   0.700   5.627 -1.7888  0.0774  2.1837
 2955WAT    EPW12542   3.568   0.755   5.653 -0.4237 -0.3634  0.6643
 2956WAT      O12543   5.713   1.246   5.977 -0.7054 -0.4840  0.1318
 2956WAT     H112544   5.792   1.273   5.951 -1.3782  0.0620 -1.4503
 2956WAT     H212545   5.728   1.165   6.006  0.2838 -0.7950 -1.1423
 2956WAT    EPW12546   5.727   1.238   5.978 -0.6587 -0.4493 -0.2901
 2957WAT      O12547   6.381   2.563   2.876  0.2658 -0.5485 -0.7315
 2957WAT     H112548   6.341   2.630   2.917 -1.1099 -2.1709  0.7328
 2957WAT     H212549   6.431   2.528   2.938  1.4011 -0.5718 -1.6399
 2957WAT    EPW12550   6.382   2.568   2.891  0.2303 -0.7916 -0.6494
 2958WAT      O12551   5.992   5.426   7.107  0.1267  0.6698 -0.2296
 2958WAT     H112552   6.018   5.508   7.095  1.9379  0.1994  0.0804
 2958WAT     H212553   5.978   5.421   7.193 -0.4835  0.7867 -0.3223
 2958WAT    EPW12554   5.994   5.437   7.118  0.3041  0.6176 -0.1975
 2959WAT      O12555   7.263   6.378   0.265 -0.4165 -0.7310 -0.0704
 2959WAT     H112556   7.219   6.435   0.314  0.7769 -0.4367  0.6960
 2959WAT     H212557   7.326   6.349   0.318  0.0892 -1.4141 -1.0055
 2959WAT    EPW12558   7.266   6.382   0.280 -0.1655 -0.7885 -0.0953
 2960WAT      O12559   2.609   0.564   3.803 -0.1606 -0.0853  0.2728
 2960WAT     H112560   2.687   0.592   3.777 -0.4630  0.0732 -0.4929
 2960WAT     H212561   2.610   0.478   3.784 -0.0721 -0.1403  0.5220
 2960WAT    EPW12562   2.621   0.555   3.797 -0.1922 -0.0700  0.1965
 2961WAT      O12563   7.571   1.423   5.952 -0.0070  0.6387 -1.1142
 2961WAT     H112564   7.485   1.413   5.941 -0.1083  0.3036 -0.0613
 2961WAT     H212565   7.593   1.479   5.889 -0.7531 -0.3333 -2.2919
 2961WAT    EPW12566   7.562   1.429   5.941 -0.1322  0.4456 -1.1326
 2962WAT      O12567   0.641   6.735   7.514 -0.7296  0.3280 -0.6257
 2962WAT     H112568   0.610   6.783   7.580  2.8492 -0.7551  2.2211
 2962WAT     H212569   0.695   6.790   7.473  0.8189 -0.1703  0.5914
 2962WAT    EPW12570   0.645   6.750   7.518  0.0278  0.0944 -0.0254
 2963WAT      O12571   2.558   2.652   6.186  0.3783  0.1670  0.1224
 2963WAT     H112572   2.498   2.593   6.206  1.7622 -1.0385  0.9649
 2963WAT     H212573   2.516   2.728   6.190 -1.6860 -0.7687 -1.8600
 2963WAT    EPW12574   2.543   2.655   6.189  0.2778 -0.1493 -0.0460
 2964WAT      O12575   5.417   6.668   3.443  0.6561  0.3153 -0.2905
 2964WAT     H112576   5.461   6.723   3.494  2.0483  1.2900 -2.3977
 2964WAT     H212577   5.454   6.678   3.365 -0.2404 -2.3069 -1.1831
 2964WAT    EPW12578   5.429   6.677   3.439  0.7293  0.0719 -0.7336
 2965WAT      O12579   1.983   3.783   6.981 -0.2572 -0.5297  0.1793
 2965WAT     H112580   1.971   3.781   7.068  1.1045 -0.7166  0.3878
 2965WAT     H212581   2.053   3.834   6.972 -2.0608  1.8650 -1.0491
 2965WAT    EPW12582   1.992   3.790   6.993 -0.3225 -0.2036  0.0286
 2966WAT      O12583   1.130   3.132   6.769  0.1821  0.0537  0.1711
 2966WAT     H112584   1.057   3.137   6.817 -0.3664  0.8648 -0.7139
 2966WAT     H212585   1.120   3.195   6.710  1.6564  0.2403  0.0881
 2966WAT    EPW12586   1.117   3.142   6.767  0.3189  0.2011  0.0281
 2967WAT      O12587   5.508   4.266   7.402 -0.4390  0.2531  1.1323
 2967WAT     H112588   5.446   4.287   7.344  0.5270 -1.6853 -0.7442
 2967WAT     H212589   5.580   4.301   7.367 -0.1680  1.1009  2.4579
 2967WAT    EPW12590   5.510   4.274   7.388 -0.2562  0.0920  1.0509
 2968WAT      O12591   3.392   2.675   5.252  0.0690 -0.2486 -0.4275
 2968WAT     H112592   3.307   2.678   5.231  0.2846  2.9134 -1.4148
 2968WAT     H212593   3.432   2.690   5.176  1.5903 -2.0548 -0.0449
 2968WAT    EPW12594   3.385   2.677   5.238  0.3256 -0.0483 -0.5168
 2969WAT      O12595   6.178   3.172   7.254  0.5017  0.0182  0.1539
 2969WAT     H112596   6.200   3.224   7.187 -0.9048  1.3411  0.6452
 2969WAT     H212597   6.136   3.106   7.216 -0.5073  0.8849 -0.2893
 2969WAT    EPW12598   6.175   3.170   7.238  0.1449  0.3416  0.1610
 2970WAT      O12599   0.715   1.460   5.590 -0.6832 -0.5958 -0.1749
 2970WAT     H112600   0.795   1.430   5.572  0.2467  0.9535  1.0506
 2970WAT     H212601   0.695   1.510   5.522 -0.7974 -1.3175 -0.6763
 2970WAT    EPW12602   0.724   1.463   5.577 -0.5627 -0.4736 -0.0680
 2971WAT      O12603   6.010   5.356   3.602 -0.4925 -0.5188 -0.0981
 2971WAT     H112604   5.959   5.423   3.622  0.6100  0.8299 -1.5615
 2971WAT     H212605   6.017   5.360   3.515  1.4459 -1.0877 -0.0208
 2971WAT    EPW12606   6.004   5.366   3.592 -0.0433 -0.4036 -0.3028
 2972WAT      O12607   0.163   7.640   6.743  0.3272 -0.4176 -0.5495
 2972WAT     H112608   0.171   7.647   6.656 -1.8928 -0.1614 -0.7742
 2972WAT     H212609   0.210   7.708   6.772  1.0114 -0.4359 -1.5471
 2972WAT    EPW12610   0.171   7.651   6.734  0.1003 -0.3824 -0.7300
 2973WAT      O12611   5.203   3.364   0.201  0.3035  0.1380  0.1257
 2973WAT     H112612   5.269   3.364   0.258 -1.1302  1.0052  1.8887
 2973WAT     H212613   5.177   3.281   0.200  0.8559 -0.0410  0.0621
 2973WAT    EPW12614   5.209   3.352   0.209  0.1734  0.2396  0.3768
 2974WAT      O12615   4.288   0.631   0.142 -0.3852 -0.4713 -0.2798
 2974WAT     H112616   4.316   0.567   0.193  0.2486 -0.8468 -1.0628
 2974WAT     H212617   4.325   0.613   0.064 -3.1880 -1.2851 -1.5388
 2974WAT    EPW12618   4.298   0.619   0.138 -0.7056 -0.6470 -0.5814
 2975WAT      O12619   5.036   5.558   5.592 -0.0101 -0.2794 -0.3685
 2975WAT     H112620   5.084   5.626   5.565  3.2969 -2.2303  0.1172
 2975WAT     H212621   4.986   5.593   5.655  1.2678  1.7643 -0.3906
 2975WAT    EPW12622   5.035   5.573   5.598  0.6672 -0.2656 -0.3001
 2976WAT      O12623   2.331   0.691   7.809  0.3544 -0.2501 -0.2238
 2976WAT     H112624   2.355   0.775   7.798 -1.1037  0.1564 -0.4766
 2976WAT     H212625   2.260   0.683   7.759 -0.5173 -1.1770  1.0990
 2976WAT    EPW12626   2.324   0.703   7.800  0.0102 -0.3270 -0.0657
 2977WAT      O12627   0.908   6.318   6.297  0.4764 -0.2984 -0.2274
 2977WAT     H112628   0.984   6.334   6.259  1.2171 -1.0361  0.8839
 2977WAT     H212629   0.926   6.255   6.355 -0.8067  0.0264  0.5906
 2977WAT    EPW12630   0.922   6.311   6.300  0.3963 -0.3594  0.0576
 2978WAT      O12631   3.639   0.505   5.986 -0.0688  0.2881  0.4012
 2978WAT     H112632   3.627   0.450   5.920  0.2466  0.7818 -0.0803
 2978WAT     H212633   3.584   0.571   5.968  1.8453  1.6653 -0.8047
 2978WAT    EPW12634   3.629   0.507   5.974  0.2605  0.5644  0.1519
 2979WAT      O12635   1.287   7.648   6.889 -0.1602 -0.4135 -0.2772
 2979WAT     H112636   1.324   7.635   6.812  0.8000 -0.1081  0.1152
 2979WAT     H212637   1.238   7.720   6.877  1.3160  0.6518 -0.1801
 2979WAT    EPW12638   1.285   7.657   6.876  0.1997 -0.2110 -0.2049
 2980WAT      O12639   7.194   1.427   6.214 -0.6551  0.2290  0.5925
 2980WAT     H112640   7.271   1.457   6.241 -1.0299  1.2664  0.5855
 2980WAT     H212641   7.175   1.480   6.147 -0.2251 -1.6033 -1.0690
 2980WAT    EPW12642   7.203   1.439   6.208 -0.6469  0.1116  0.3460
 2981WAT      O12643   3.234   0.039   0.593  0.0537  0.0980 -0.0370
 2981WAT     H112644   3.154   0.065   0.614 -0.6118 -1.7076 -0.1693
 2981WAT     H212645   3.266   0.106   0.547 -1.1573  1.0730  0.5005
 2981WAT    EPW12646   3.227   0.053   0.589 -0.2235 -0.0247  0.0228
 2982WAT      O12647   5.060   2.312   0.987  0.1266 -0.1651  0.1339
 2982WAT     H112648   5.036   2.262   0.919  0.7833 -1.0123  0.5028
 2982WAT     H212649   5.072   2.254   1.051 -1.5205  0.7101  1.3016
 2982WAT    EPW12650   5.058   2.296   0.986 -0.0197 -0.1610  0.3609
 2983WAT      O12651   5.808   6.606   6.630 -0.1584 -0.2618 -0.2412
 2983WAT     H112652   5.828   6.616   6.545 -0.4566  1.2139 -0.1627
 2983WAT     H212653   5.734   6.652   6.639  0.5922  0.7409  1.0988
 2983WAT    EPW12654   5.800   6.614   6.619 -0.0916  0.1043 -0.0317
 2984WAT      O12655   6.704   2.570   7.683  0.3800  0.2789 -0.6185
 2984WAT     H112656   6.711   2.555   7.769  1.4088 -1.6445 -0.9763
 2984WAT     H212657   6.780   2.607   7.663 -0.2479  1.6340 -0.5617
 2984WAT    EPW12658   6.716   2.573   7.693  0.4392  0.1950 -0.6629
 2985WAT      O12659   5.129   2.301   5.445  0.1887 -0.7917 -0.0768
 2985WAT     H112660   5.158   2.377   5.412  1.5358 -0.7858  1.0476
 2985WAT     H212661   5.116   2.319   5.529 -3.3977 -0.7513 -0.4958
 2985WAT    EPW12662   5.131   2.315   5.453 -0.1421 -0.7849  0.0274
 2986WAT      O12663   7.734   1.041   4.308  0.0690  0.2077 -0.4034
 2986WAT     H112664   7.808   0.995   4.310  0.6820  1.0567 -1.4557
 2986WAT     H212665   7.674   0.984   4.281  0.4652 -0.3501 -0.1183
 2986WAT    EPW12666   7.736   1.026   4.304  0.2180  0.2507 -0.5167
 2987WAT      O12667   6.740   2.616   5.406  0.0225  0.6336  0.2076
 2987WAT     H112668   6.741   2.652   5.485 -0.1800  1.1801 -0.0310
 2987WAT     H212669   6.696   2.542   5.417  1.6868 -0.2691  1.0078
 2987WAT    EPW12670   6.734   2.611   5.419  0.2384  0.5810  0.2906
 2988WAT      O12671   7.166   7.015   5.303  0.5386 -0.4493 -0.4295
 2988WAT     H112672   7.134   6.949   5.255  1.0836 -0.7934 -0.3344
 2988WAT     H212673   7.121   7.009   5.378 -0.0767 -0.1195 -0.7647
 2988WAT    EPW12674   7.154   7.004   5.307  0.5282 -0.4514 -0.4650
 2989WAT      O12675   4.986   4.688   0.452 -0.1291 -0.0841 -0.1874
 2989WAT     H112676   4.988   4.773   0.469 -1.2677 -0.2282  0.7632
 2989WAT     H212677   4.997   4.684   0.366  1.4106  0.9299 -0.0789
 2989WAT    EPW12678   4.988   4.700   0.442 -0.0699  0.0444 -0.0310
 2990WAT      O12679   4.752   2.255   0.674  0.3196 -0.4850 -0.0777
 2990WAT     H112680   4.760   2.338   0.649 -2.3797  0.3217  1.3841
 2990WAT     H212681   4.696   2.221   0.617 -1.4219 -0.2023  1.3695
 2990WAT    EPW12682   4.745   2.262   0.662 -0.3364 -0.3241  0.3520
 2991WAT      O12683   4.936   5.347   5.435  0.2175  0.1014 -0.0215
 2991WAT     H112684   4.960   5.411   5.490 -2.2024  1.0272  0.0854
 2991WAT     H212685   4.899   5.288   5.488  0.7209 -0.5185 -0.3444
 2991WAT    EPW12686   4.934   5.348   5.451 -0.0656  0.1466 -0.0534
 2992WAT      O12687   5.882   3.890   5.304  0.5788  0.1820 -0.2469
 2992WAT     H112688   5.922   3.861   5.232  1.6536  0.8251  0.0725
 2992WAT     H212689   5.826   3.950   5.274  1.0888  0.5134 -0.5528
 2992WAT    EPW12690   5.879   3.895   5.289  0.8129  0.3260 -0.2449
 2993WAT      O12691   4.554   7.134   6.997  0.1338  0.1352  0.2448
 2993WAT     H112692   4.516   7.192   7.050 -1.6077 -0.1328 -0.6531
 2993WAT     H212693   4.532   7.162   6.917  1.0807 -0.5705 -0.2825
 2993WAT    EPW12694   4.545   7.147   6.993  0.0164 -0.0086  0.0343
 2994WAT      O12695   3.749   4.934   0.376 -0.3195  0.1393  0.1449
 2994WAT     H112696   3.792   4.919   0.451 -0.6515  0.7172  0.4598
 2994WAT     H212697   3.670   4.960   0.404 -1.0610 -1.3819 -0.4118
 2994WAT    EPW12698   3.744   4.936   0.391 -0.4781 -0.0000  0.1092
 2995WAT      O12699   5.152   1.475   3.328  0.4308  0.0006 -0.3372
 2995WAT     H112700   5.189   1.549   3.358  0.4390 -0.5597  1.1243
 2995WAT     H212701   5.220   1.427   3.303  0.4751  0.1621 -0.5359
 2995WAT    EPW12702   5.168   1.479   3.329  0.4386 -0.0583 -0.1507
 2996WAT      O12703   1.279   2.111   0.584 -0.5160  0.1144 -0.0666
 2996WAT     H112704   1.249   2.122   0.665 -0.4804  0.5744 -0.1144
 2996WAT     H212705   1.329   2.181   0.570  1.6346 -1.2162  0.4516
 2996WAT    EPW12706   1.282   2.123   0.594 -0.1930 -0.0142  0.0029
 2997WAT      O12707   3.860   1.527   1.235  0.0454  0.6407 -0.6020
 2997WAT     H112708   3.892   1.497   1.159  1.3753 -1.5836  0.7169
 2997WAT     H212709   3.775   1.509   1.229  0.3820 -1.0550 -0.9641
 2997WAT    EPW12710   3.852   1.520   1.223  0.2916  0.0617 -0.4607
 2998WAT      O12711   7.327   5.320   7.435 -0.1956 -0.3985 -0.1254
 2998WAT     H112712   7.298   5.298   7.355 -0.3068  1.4059 -0.6271
 2998WAT     H212713   7.257   5.307   7.486 -0.9798  0.9295 -0.8022
 2998WAT    EPW12714   7.312   5.315   7.430 -0.3278  0.0643 -0.2995
 2999WAT      O12715   4.005   1.941   1.497 -0.3643 -0.0997 -0.0278
 2999WAT     H112716   3.968   1.865   1.477  0.5467 -0.4018 -0.6203
 2999WAT     H212717   4.042   1.926   1.575 -0.2947 -0.2171 -0.0836
 2999WAT    EPW12718   4.005   1.928   1.506 -0.2195 -0.1617 -0.1236
 3000WAT      O12719   2.863   5.205   6.117  0.1421 -0.7092  0.0875
 3000WAT     H112720   2.857   5.292   6.107 -2.8649 -0.8725 -0.4477
 3000WAT     H212721   2.875   5.176   6.035  0.4795 -0.8424  0.1834
 3000WAT    EPW12722   2.863   5.214   6.103 -0.2522 -0.7530  0.0226
 3001WAT      O12723   4.696   2.873   5.990 -0.9482 -0.1018  1.0743
 3001WAT     H112724   4.648   2.832   6.051 -2.1827 -0.3106 -0.0039
 3001WAT     H212725   4.669   2.956   5.995 -3.0784 -0.5873 -0.9788
 3001WAT    EPW12726   4.685   2.879   6.000 -1.4452 -0.2044  0.6117
 3002WAT      O12727   4.307   0.280   2.770  0.2567  0.1434 -0.2911
 3002WAT     H112728   4.300   0.242   2.692 -1.7433 -1.0500  0.4034
 3002WAT     H212729   4.354   0.224   2.817  3.4851  1.8829 -1.1300
 3002WAT    EPW12730   4.313   0.266   2.765  0.4382  0.2241 -0.3124
 3003WAT      O12731   5.602   1.512   6.547 -0.6537 -0.0867  0.1883
 3003WAT     H112732   5.686   1.513   6.523 -0.3988 -2.4024  0.7936
 3003WAT     H212733   5.560   1.507   6.471 -0.0893 -1.7662 -0.0519
 3003WAT    EPW12734   5.608   1.511   6.532 -0.5326 -0.6769  0.2422
 3004WAT      O12735   5.731   2.081   0.165 -0.2536  0.0645 -0.0551
 3004WAT     H112736   5.730   2.118   0.086 -0.9677  2.3556  0.9378
 3004WAT     H212737   5.701   2.144   0.217 -0.0348 -1.4566  2.0265
 3004WAT    EPW12738   5.726   2.096   0.161 -0.3267  0.1782  0.3990
 3005WAT      O12739   4.549   1.885   4.875 -0.7378  0.1264 -0.2214
 3005WAT     H112740   4.618   1.881   4.823  0.7267  0.9942  1.5457
 3005WAT     H212741   4.541   1.802   4.904 -1.4425 -0.3143 -1.5972
 3005WAT    EPW12742   4.558   1.872   4.872 -0.6255  0.1895 -0.1636
 3006WAT      O12743   5.565   3.034   0.195  1.0679 -0.4357 -0.0730
 3006WAT     H112744   5.624   3.093   0.220  1.1802 -0.5852  0.0117
 3006WAT     H212745   5.542   2.995   0.270 -0.2873  0.6769  0.1381
 3006WAT    EPW12746   5.570   3.037   0.210  0.8843 -0.2935 -0.0293
 3007WAT      O12747   6.212   5.931   5.493  0.3367  0.4513 -0.0485
 3007WAT     H112748   6.236   5.899   5.571 -0.6993 -0.1462  0.0325
 3007WAT     H212749   6.288   5.944   5.452  0.8593  0.0234  0.7610
 3007WAT    EPW12750   6.227   5.928   5.499  0.2609  0.2998  0.0831
 3008WAT      O12751   5.647   3.891   7.301  0.0367 -0.0843  0.5576
 3008WAT     H112752   5.600   3.941   7.355 -0.0409 -1.0906  1.4332
 3008WAT     H212753   5.587   3.857   7.247 -0.0994 -0.4569  0.9441
 3008WAT    EPW12754   5.631   3.894   7.301  0.0051 -0.2880  0.7440
 3009WAT      O12755   6.336   4.710   7.670  0.0945  0.3835  0.2513
 3009WAT     H112756   6.355   4.626   7.657  0.2612  0.6602 -1.5420
 3009WAT     H212757   6.363   4.725   7.752 -0.2616 -1.3817  0.7327
 3009WAT    EPW12758   6.343   4.700   7.680  0.0665  0.1636  0.0575
 3010WAT      O12759   3.993   0.498   4.080  0.6992  0.1829 -0.0425
 3010WAT     H112760   4.072   0.483   4.047  0.4696 -0.7593 -0.1928
 3010WAT     H212761   3.952   0.542   4.017  0.7704 -0.2354 -0.3816
 3010WAT    EPW12762   3.998   0.503   4.066  0.6758 -0.0180 -0.1148
 3011WAT      O12763   7.452   1.069   7.059 -0.0332 -0.6916 -1.1729
 3011WAT     H112764   7.538   1.068   7.071 -0.2816 -0.2624  1.0076
 3011WAT     H212765   7.424   1.134   7.110 -1.8582 -2.3175  0.0412
 3011WAT    EPW12766   7.461   1.078   7.068 -0.3395 -0.8684 -0.6715
 3012WAT      O12767   5.281   0.793   6.964 -0.0621  0.8682 -0.4341
 3012WAT     H112768   5.366   0.808   6.950  0.0091  0.9688  0.0656
 3012WAT     H212769   5.274   0.706   6.957 -0.1042  0.9453 -1.4236
 3012WAT    EPW12770   5.293   0.782   6.961 -0.0578  0.8944 -0.5064
 3013WAT      O12771   2.479   6.897   2.826  0.0441 -0.7477 -0.1713
 3013WAT     H112772   2.561   6.925   2.827  0.1999 -1.1461  1.0636
 3013WAT     H212773   2.486   6.812   2.807 -0.2177 -0.4711 -1.5424
 3013WAT    EPW12774   2.492   6.888   2.824  0.0285 -0.7657 -0.1914
 3014WAT      O12775   3.326   5.787   5.491 -0.1900 -0.4183  0.6597
 3014WAT     H112776   3.278   5.755   5.426  2.1320 -0.6179 -1.0638
 3014WAT     H212777   3.372   5.718   5.519  1.1504  0.3243  0.3376
 3014WAT    EPW12778   3.325   5.772   5.486  0.3510 -0.3381  0.3575
 3015WAT      O12779   1.493   5.904   1.658 -0.4289 -0.1583  0.0539
 3015WAT     H112780   1.458   5.903   1.738 -0.0944 -0.0113  0.2012
 3015WAT     H212781   1.488   5.820   1.633  0.8788 -0.5058  0.8515
 3015WAT    EPW12782   1.487   5.891   1.666 -0.1863 -0.1880  0.1935
 3016WAT      O12783   4.379   1.080   3.127 -0.1853  0.5931  0.5948
 3016WAT     H112784   4.413   1.000   3.133  0.5652  0.8676  0.2036
 3016WAT     H212785   4.327   1.086   3.197 -1.3915 -0.7432 -0.1460
 3016WAT    EPW12786   4.377   1.069   3.138 -0.2526  0.4362  0.4276
 3017WAT      O12787   2.960   5.478   6.128  0.4384 -0.3600  0.0270
 3017WAT     H112788   2.995   5.421   6.184 -0.6604 -0.6146  0.4796
 3017WAT     H212789   2.950   5.550   6.176  1.1274  0.0016 -0.3438
 3017WAT    EPW12790   2.964   5.480   6.143  0.3779 -0.3442  0.0391
 3018WAT      O12791   5.762   0.398   6.352 -0.3998 -0.7434  0.3161
 3018WAT     H112792   5.726   0.411   6.274  1.9146  0.2345 -0.6612
 3018WAT     H212793   5.781   0.478   6.380  0.4853 -1.1805  1.0252
 3018WAT    EPW12794   5.759   0.412   6.345  0.0728 -0.6635  0.2765
 3019WAT      O12795   6.658   0.175   3.524 -0.0512  0.6372 -0.1490
 3019WAT     H112796   6.596   0.123   3.491 -0.1870  1.6298 -1.5555
 3019WAT     H212797   6.612   0.231   3.574 -0.1319  0.5302 -0.1039
 3019WAT    EPW12798   6.642   0.176   3.526 -0.0832  0.7680 -0.3501
 3020WAT      O12799   4.851   0.584   7.689  0.0235  0.3717 -0.0708
 3020WAT     H112800   4.896   0.551   7.756 -0.6767  0.3295  0.3883
 3020WAT     H212801   4.892   0.552   7.619  0.5272  0.1012  0.3410
 3020WAT    EPW12802   4.863   0.575   7.688 -0.0055  0.3255  0.0579
 3021WAT      O12803   1.050   3.953   6.389  0.4037  0.0969  0.1610
 3021WAT     H112804   1.061   3.868   6.405 -1.8994 -0.6323 -1.5956
 3021WAT     H212805   1.082   3.964   6.309  1.7552  1.2200  0.8010
 3021WAT    EPW12806   1.056   3.942   6.380  0.2631  0.1551 -0.0039
 3022WAT      O12807   4.901   1.108   0.922 -0.1582 -0.9978 -0.1740
 3022WAT     H112808   4.874   1.121   0.840 -1.0812  0.0514  0.2627
 3022WAT     H212809   4.898   1.188   0.956 -2.1694 -1.7333  1.5791
 3022WAT    EPW12810   4.897   1.122   0.915 -0.5916 -0.9515  0.1494
 3023WAT      O12811   0.081   6.632   5.465 -0.2510  0.5822  0.2259
 3023WAT     H112812   0.152   6.629   5.516 -0.8348  1.0664  1.0939
 3023WAT     H212813   0.109   6.597   5.390  0.7225  0.1523  0.7586
 3023WAT    EPW12814   0.096   6.626   5.462 -0.1934  0.5902  0.4328
 3024WAT      O12815   5.395   7.332   2.831  0.1585 -0.4517  0.0294
 3024WAT     H112816   5.461   7.292   2.871 -0.1493 -0.1827  0.8338
 3024WAT     H212817   5.411   7.319   2.746  0.9246 -0.8832  0.2308
 3024WAT    EPW12818   5.407   7.324   2.824  0.2262 -0.4757  0.1780
 3025WAT      O12819   0.863   6.468   7.870  0.0744  0.1900  0.1413
 3025WAT     H112820   0.913   6.400   7.850  2.9811  2.0410  0.5344
 3025WAT     H212821   0.832   6.494   7.793 -0.6676 -1.2294 -0.0665
 3025WAT    EPW12822   0.866   6.462   7.856  0.3942  0.2538  0.1687
 3026WAT      O12823   5.591   6.225   5.416 -0.5641  0.1464 -0.1783
 3026WAT     H112824   5.673   6.198   5.430 -0.6806  0.5785  1.4241
 3026WAT     H212825   5.553   6.154   5.382  0.2565 -0.3244 -0.1506
 3026WAT    EPW12826   5.598   6.210   5.413 -0.4601  0.1407  0.0625
 3027WAT      O12827   2.677   0.965   4.888 -0.5592  0.1194  0.3014
 3027WAT     H112828   2.679   1.042   4.846 -1.1756 -1.2757 -2.5335
 3027WAT     H212829   2.611   0.975   4.944 -0.4698  1.7201  0.1869
 3027WAT    EPW12830   2.668   0.978   4.890 -0.6370  0.1498 -0.1343
 3028WAT      O12831   7.522   2.104   4.869 -0.1644 -0.5937  0.1121
 3028WAT     H112832   7.501   2.038   4.816  0.6724 -1.0394  0.3137
 3028WAT     H212833   7.509   2.070   4.949 -1.9956  0.2607  0.2307
 3028WAT    EPW12834   7.517   2.089   4.873 -0.3113 -0.5333  0.1594
 3029WAT      O12835   6.420   4.299   0.867  0.4536 -0.1110 -0.0187
 3029WAT     H112836   6.342   4.259   0.869  0.2813  0.2224  0.0683
 3029WAT     H212837   6.461   4.268   0.937  0.5658 -0.6153 -0.3060
 3029WAT    EPW12838   6.414   4.289   0.878  0.4447 -0.1362 -0.0483
 3030WAT      O12839   2.919   6.955   0.348 -0.4051  0.2052  0.2066
 3030WAT     H112840   2.995   6.956   0.306 -1.1298 -1.6667 -1.3245
 3030WAT     H212841   2.883   7.032   0.326  0.5514  0.6008 -0.0172
 3030WAT    EPW12842   2.925   6.967   0.338 -0.3708 -0.0129 -0.0526
 3031WAT      O12843   6.648   3.553   4.424 -0.0507  0.1450  0.5772
 3031WAT     H112844   6.639   3.544   4.338  2.4808 -0.6229  0.3315
 3031WAT     H212845   6.731   3.578   4.435 -0.1260 -0.3349  2.8301
 3031WAT    EPW12846   6.659   3.556   4.413  0.3121 -0.0393  0.8737
 3032WAT      O12847   0.377   7.038   6.499  0.1178  0.6204  0.0207
 3032WAT     H112848   0.410   7.074   6.572  0.5799  0.3249 -0.0364
 3032WAT     H212849   0.332   7.104   6.463  0.6333  1.0377  0.1146
 3032WAT    EPW12850   0.375   7.053   6.504  0.2622  0.6384  0.0261
 3033WAT      O12851   7.293   0.211   5.478  0.1336  0.1974  0.0187
 3033WAT     H112852   7.287   0.134   5.517  2.0563  0.6096  1.2683
 3033WAT     H212853   7.287   0.268   5.544 -0.4642  1.0900 -0.7844
 3033WAT    EPW12854   7.292   0.208   5.493  0.3293  0.3902  0.0846
 3034WAT      O12855   4.662   4.643   0.304  0.2741  0.3349 -0.0754
 3034WAT     H112856   4.583   4.610   0.318  1.1553 -1.2046  1.6390
 3034WAT     H212857   4.658   4.722   0.341 -0.8960  0.9628 -1.4405
 3034WAT    EPW12858   4.650   4.650   0.312  0.2314  0.2002 -0.0238
 3035WAT      O12859   4.544   1.946   1.150  0.8795  0.7573  0.0247
 3035WAT     H112860   4.535   2.030   1.127  1.3937  0.2994 -2.1322
 3035WAT     H212861   4.473   1.908   1.117  0.0199  0.4780  2.0559
 3035WAT    EPW12862   4.532   1.953   1.141  0.8285  0.6484  0.0061
 3036WAT      O12863   4.804   3.599   3.148  0.0549  0.3297  0.4250
 3036WAT     H112864   4.782   3.607   3.064 -0.7711  0.0615  0.6051
 3036WAT     H212865   4.747   3.540   3.178 -0.2748  1.1128  1.3907
 3036WAT    EPW12866   4.792   3.591   3.140 -0.1158  0.4058  0.5943
 3037WAT      O12867   6.891   7.180   3.676 -0.2812 -0.0810 -0.0422
 3037WAT     H112868   6.872   7.112   3.625 -1.7695 -0.5272  1.0465
 3037WAT     H212869   6.813   7.207   3.704  0.2645  2.1249 -0.4681
 3037WAT    EPW12870   6.877   7.174   3.673 -0.4205  0.1790  0.0557
 3038WAT      O12871   5.721   5.392   3.275  0.3485  0.2809  0.6296
 3038WAT     H112872   5.668   5.345   3.326 -0.0384  0.4678  0.4039
 3038WAT     H212873   5.800   5.361   3.293 -0.0342 -1.7948 -0.9027
 3038WAT    EPW12874   5.725   5.381   3.285  0.2348  0.0019  0.3699
 3039WAT      O12875   7.176   2.890   0.034  0.2571  0.5817 -0.1776
 3039WAT     H112876   7.168   2.872  -0.051  0.9176  0.3998 -0.2112
 3039WAT     H212877   7.204   2.815   0.069 -1.1562  0.2904  0.4152
 3039WAT    EPW12878   7.179   2.876   0.027  0.1459  0.5118 -0.0950
 3040WAT      O12879   1.344   2.149   6.782  0.0441  0.2892  0.1109
 3040WAT     H112880   1.263   2.134   6.812 -0.1091  0.7122 -0.0750
 3040WAT     H212881   1.392   2.159   6.854 -0.4075  1.7572  0.2541
 3040WAT    EPW12882   1.339   2.148   6.797 -0.0452  0.5686  0.1046
 3041WAT      O12883   3.118   2.686   5.172 -0.7181  0.5282 -0.3438
 3041WAT     H112884   3.075   2.706   5.245  1.0348 -0.1649  0.9721
 3041WAT     H212885   3.105   2.600   5.162  0.2447  0.3218  0.0365
 3041WAT    EPW12886   3.110   2.676   5.181 -0.3169  0.3953 -0.0932
 3042WAT      O12887   6.634   6.007   5.136 -0.3964 -0.2679 -0.3122
 3042WAT     H112888   6.562   5.963   5.161 -1.2475  0.7785 -0.8299
 3042WAT     H212889   6.656   6.053   5.207 -1.5634  1.0817 -0.7748
 3042WAT    EPW12890   6.626   6.007   5.150 -0.6945  0.0860 -0.4570
 3043WAT      O12891   0.486   2.753   4.449  0.2379 -0.1290  0.3786
 3043WAT     H112892   0.415   2.704   4.435 -1.1490  1.8415  0.2705
 3043WAT     H212893   0.551   2.698   4.429 -1.1374 -2.3779  1.5529
 3043WAT    EPW12894   0.485   2.737   4.444 -0.1702 -0.1701  0.5361
 3044WAT      O12895   5.155   1.573   2.531 -0.2379  0.0426 -0.0295
 3044WAT     H112896   5.204   1.644   2.516  0.1220  0.2323  1.7844
 3044WAT     H212897   5.193   1.511   2.482  0.0856  0.8307 -0.8123
 3044WAT    EPW12898   5.168   1.574   2.521 -0.1370  0.1870  0.1228
 3045WAT      O12899   7.231   1.865   5.934  1.1414 -0.1345 -0.0562
 3045WAT     H112900   7.162   1.900   5.892  0.3618 -0.7111  0.7083
 3045WAT     H212901   7.299   1.904   5.897  0.3485  1.5858  0.1972
 3045WAT    EPW12902   7.231   1.876   5.922  0.9091  0.0345  0.0942
 3046WAT      O12903   4.852   1.293   4.384 -0.1340  0.5314 -0.0029
 3046WAT     H112904   4.809   1.287   4.309 -1.6225  0.5329  0.8195
 3046WAT     H212905   4.828   1.371   4.415  0.5739  0.5932  0.4194
 3046WAT    EPW12906   4.842   1.304   4.378 -0.2493  0.5408  0.1809
 3047WAT      O12907   6.150   2.068   5.049  0.0485  0.0582 -0.4358
 3047WAT     H112908   6.070   2.042   5.024  0.2427 -1.6625  0.5938
 3047WAT     H212909   6.134   2.115   5.121 -0.1855  1.7141 -1.5169
 3047WAT    EPW12910   6.136   2.071   5.056  0.0426  0.0486 -0.4434
 3048WAT      O12911   2.373   1.374   7.352  0.0905  0.4125 -0.3126
 3048WAT     H112912   2.421   1.386   7.424  0.4020 -0.3088 -0.3901
 3048WAT     H212913   2.294   1.354   7.384 -0.3504  2.1936 -0.1863
 3048WAT    EPW12914   2.368   1.373   7.368  0.0714  0.5691 -0.3054
 3049WAT      O12915   6.452   6.544   4.196  0.0078  0.2496  0.0658
 3049WAT     H112916   6.418   6.489   4.255  0.4663  0.0340  0.1366
 3049WAT     H212917   6.487   6.491   4.137  3.8903  0.2862  2.0314
 3049WAT    EPW12918   6.452   6.528   4.196  0.6490  0.2231  0.3666
 3050WAT      O12919   6.966   4.926   5.942  0.1766 -0.6343 -0.5023
 3050WAT     H112920   7.041   4.914   5.898  1.8654 -0.3051  2.0664
 3050WAT     H212921   6.965   5.012   5.957 -0.1992 -0.7701  0.3027
 3050WAT    EPW12922   6.977   4.937   5.938  0.3706 -0.6058 -0.0039
 3051WAT      O12923   1.505   6.152   1.960 -0.2248 -0.0243  0.1157
 3051WAT     H112924   1.490   6.178   2.042  1.9612 -2.1629  1.3241
 3051WAT     H212925   1.487   6.066   1.963  0.2910 -0.2094 -1.5439
 3051WAT    EPW12926   1.500   6.143   1.973  0.1743 -0.3676  0.0490
 3052WAT      O12927   5.935   6.647   7.289 -0.3959 -0.1218  0.0072
 3052WAT     H112928   5.947   6.722   7.332  2.0640  0.1202 -0.9270
 3052WAT     H212929   5.930   6.672   7.205  0.5833 -0.9796 -0.3253
 3052WAT    EPW12930   5.936   6.662   7.283  0.1121 -0.2128 -0.1799
 3053WAT      O12931   1.805   3.570   4.508  0.4889  0.2042 -0.2995
 3053WAT     H112932   1.861   3.505   4.489  1.4051  0.7567  0.4042
 3053WAT     H212933   1.727   3.532   4.502  0.7959 -0.2085 -2.9390
 3053WAT    EPW12934   1.802   3.555   4.504  0.6696  0.2249 -0.5855
 3054WAT      O12935   5.683   4.770   4.782 -0.2101 -0.0302  0.4226
 3054WAT     H112936   5.755   4.721   4.788 -0.3675 -0.2496  0.5611
 3054WAT     H212937   5.707   4.846   4.817  1.1339  1.2919 -2.9172
 3054WAT    EPW12938   5.697   4.774   4.788 -0.0348  0.1327 -0.0503
 3055WAT      O12939   2.809   2.824   4.165 -0.4511 -0.1405  0.1052
 3055WAT     H112940   2.877   2.851   4.213  0.4730  0.8063 -1.6305
 3055WAT     H212941   2.754   2.791   4.224  0.5524  1.0767  1.8174
 3055WAT    EPW12942   2.811   2.823   4.181 -0.1663  0.1792  0.1017
 3056WAT      O12943   7.169   2.958   5.083  0.0920 -0.1673 -0.3191
 3056WAT     H112944   7.201   2.883   5.052 -0.0444 -0.4689  0.2512
 3056WAT     H212945   7.240   3.002   5.108  0.1632 -0.1579 -0.5321
 3056WAT    EPW12946   7.184   2.953   5.082  0.0824 -0.2105 -0.2663
 3057WAT      O12947   5.385   3.328   4.363 -0.0141  0.4853  0.3579
 3057WAT     H112948   5.375   3.412   4.342  2.3528  1.1289  1.4213
 3057WAT     H212949   5.442   3.330   4.429 -1.2980 -1.8839  1.6519
 3057WAT    EPW12950   5.392   3.341   4.370  0.1459  0.2304  0.7061
 3058WAT      O12951   7.271   2.681   4.060 -0.4247  0.0531 -0.1845
 3058WAT     H112952   7.343   2.656   4.018 -1.7244 -2.4866 -1.1447
 3058WAT     H212953   7.285   2.657   4.142 -0.3100 -0.8232 -0.4529
 3058WAT    EPW12954   7.283   2.674   4.066 -0.5998 -0.4515 -0.3660
 3059WAT      O12955   5.175   5.897   5.908 -0.2345 -0.2735 -0.2653
 3059WAT     H112956   5.248   5.920   5.949 -0.3043  1.9237 -1.2448
 3059WAT     H212957   5.112   5.921   5.963 -0.2978  1.8323 -1.1742
 3059WAT    EPW12958   5.176   5.904   5.922 -0.2542  0.3622 -0.5443
 3060WAT      O12959   6.217   0.004   4.568  0.0944 -0.3656 -0.0741
 3060WAT     H112960   6.226  -0.049   4.499  0.0036  0.2289 -0.5432
 3060WAT     H212961   6.203   0.082   4.533  0.9164  0.1114  0.6073
 3060WAT    EPW12962   6.216   0.008   4.553  0.2024 -0.2073 -0.0427
 3061WAT      O12963   0.340   3.350   6.817 -0.2121 -0.0214 -0.0202
 3061WAT     H112964   0.288   3.371   6.885 -1.5956  0.7601 -1.2672
 3061WAT     H212965   0.285   3.316   6.759  0.5242  1.4509 -1.6605
 3061WAT    EPW12966   0.324   3.348   6.819 -0.3077  0.3115 -0.4467
 3062WAT      O12967   5.282   5.254   4.244 -0.0239 -0.3068  0.0426
 3062WAT     H112968   5.364   5.241   4.218  0.0890  0.2873  0.1067
 3062WAT     H212969   5.283   5.232   4.329 -0.1748 -1.3080 -0.1987
 3062WAT    EPW12970   5.294   5.249   4.253 -0.0295 -0.3669  0.0164
 3063WAT      O12971   1.750   6.626   7.690  0.4080 -0.1428 -0.8677
 3063WAT     H112972   1.681   6.574   7.683 -0.8748  1.6050 -1.6373
 3063WAT     H212973   1.717   6.701   7.719  2.1929  0.3416  0.0996
 3063WAT    EPW12974   1.735   6.629   7.693  0.4822  0.1869 -0.8385
 3064WAT      O12975   1.838   1.183   7.507 -0.0663 -0.8198 -0.4302
 3064WAT     H112976   1.851   1.108   7.550 -0.3293  0.4033  1.9557
 3064WAT     H212977   1.919   1.212   7.491  0.1639 -0.0072  1.7962
 3064WAT    EPW12978   1.852   1.176   7.511 -0.0712 -0.5191  0.2512
 3065WAT      O12979   5.413   7.536   4.631 -0.3086 -0.3372 -0.3395
 3065WAT     H112980   5.479   7.505   4.583 -0.4950 -2.5229  0.7034
 3065WAT     H212981   5.342   7.515   4.584 -0.3786 -0.2675 -0.2638
 3065WAT    EPW12982   5.412   7.528   4.617 -0.3465 -0.6498 -0.1743
 3066WAT      O12983   5.188   3.212   3.817  0.2078 -0.0210  0.2222
 3066WAT     H112984   5.193   3.170   3.741 -0.6581 -0.0791  0.1824
 3066WAT     H212985   5.269   3.208   3.848  0.2050 -1.5781  0.1388
 3066WAT    EPW12986   5.200   3.205   3.810  0.0794 -0.2596  0.2040
 3067WAT      O12987   6.465   1.249   5.414  0.7626  0.4084 -0.1835
 3067WAT     H112988   6.524   1.282   5.469  1.1391 -1.6566  0.7647
 3067WAT     H212989   6.514   1.207   5.354  0.2974  0.2306 -0.4433
 3067WAT    EPW12990   6.481   1.248   5.413  0.7495  0.0771 -0.0818
 3068WAT      O12991   6.160   1.995   5.683 -0.0533 -0.0251 -0.1963
 3068WAT     H112992   6.128   1.958   5.755 -1.0548  0.3059 -0.4668
 3068WAT     H212993   6.212   2.058   5.714  0.7099 -0.8549  0.2466
 3068WAT    EPW12994   6.163   1.999   5.698 -0.0885 -0.0988 -0.1708
 3069WAT      O12995   0.144   4.671   4.339 -0.4060  0.0434 -0.0218
 3069WAT     H112996   0.218   4.634   4.366  0.2046  0.8687 -0.5037
 3069WAT     H212997   0.132   4.637   4.259 -0.2114  0.3821 -0.1939
 3069WAT    EPW12998   0.153   4.660   4.331 -0.2870  0.2153 -0.1184
 3070WAT      O12999   6.993   0.720   6.715 -0.1306  0.0030  0.3093
 3070WAT     H113000   6.943   0.750   6.781  1.5593  1.7845  0.8747
 3070WAT     H213001   7.070   0.705   6.753  1.2103  2.0712 -1.3794
 3070WAT    EPW13002   6.997   0.722   6.730  0.3171  0.5717  0.1434
 3071WAT      O13003   0.745   5.382   5.723  0.5533 -0.0153  0.4159
 3071WAT     H113004   0.752   5.368   5.809  0.2602  1.1625  0.6550
 3071WAT     H213005   0.719   5.466   5.718  1.6968  0.2916 -0.8622
 3071WAT    EPW13006   0.742   5.392   5.735  0.6789  0.2040  0.2624
 3072WAT      O13007   5.984   4.405   3.613  0.3413 -0.1726 -0.3479
 3072WAT     H113008   6.050   4.434   3.662  0.1459 -0.8928  0.3564
 3072WAT     H213009   6.014   4.330   3.580 -0.0266 -0.3790 -0.2226
 3072WAT    EPW13010   5.998   4.398   3.615  0.2581 -0.3095 -0.2253
 3073WAT      O13011   2.443   6.368   2.030  0.1398  0.1634 -0.9038
 3073WAT     H113012   2.361   6.364   2.001  0.0344 -0.9947 -0.5254
 3073WAT     H213013   2.491   6.377   1.958 -0.3484  1.7476 -1.0615
 3073WAT    EPW13014   2.438   6.368   2.015  0.0521  0.2263 -0.8712
 3074WAT      O13015   7.280   5.699   4.485  0.7158 -1.3603 -0.2469
 3074WAT     H113016   7.256   5.643   4.423  0.7197 -0.0294 -1.5086
 3074WAT     H213017   7.232   5.770   4.468  0.6049 -1.0166  1.3865
 3074WAT    EPW13018   7.270   5.701   4.473  0.7000 -1.1129 -0.1920
 3075WAT      O13019   5.694   7.452   2.100 -0.0436 -0.0029 -0.6474
 3075WAT     H113020   5.751   7.501   2.056 -0.0303 -0.6125 -1.3274
 3075WAT     H213021   5.618   7.468   2.059 -0.7502  2.1664  1.3384
 3075WAT    EPW13022   5.691   7.462   2.087 -0.1460  0.2275 -0.4545
 3076WAT      O13023   0.296   5.046   5.083 -0.1550 -0.5738 -0.4270
 3076WAT     H113024   0.238   4.981   5.077 -1.2728 -0.3165  3.8175
 3076WAT     H213025   0.350   5.020   5.147  0.9165  1.5532 -0.3630
 3076WAT    EPW13026   0.295   5.033   5.092 -0.1618 -0.2216  0.2094
 3077WAT      O13027   5.165   0.791   5.850 -0.2158 -0.1148  0.6571
 3077WAT     H113028   5.079   0.795   5.840 -0.1392 -2.2073 -2.2878
 3077WAT     H213029   5.196   0.830   5.778  1.2808  0.3757  1.5364
 3077WAT    EPW13030   5.157   0.797   5.838  0.0166 -0.3514  0.3519
 3078WAT      O13031   4.523   6.895   6.213 -0.2095  0.4574 -0.2831
 3078WAT     H113032   4.483   6.913   6.288  1.4664  0.7977  0.5841
 3078WAT     H213033   4.561   6.971   6.192 -1.0597  0.5027 -1.7579
 3078WAT    EPW13034   4.523   6.909   6.221 -0.0876  0.5143 -0.3728
 3079WAT      O13035   4.913   6.534   6.593 -0.0219  0.1224 -0.8954
 3079WAT     H113036   4.971   6.581   6.547  1.2968 -0.8225 -0.2773
 3079WAT     H213037   4.872   6.594   6.642  0.9854  0.7349 -0.7756
 3079WAT    EPW13038   4.916   6.550   6.593  0.3217  0.0733 -0.7864
 3080WAT      O13039   5.909   1.397   2.850  0.2325 -0.2352  0.0273
 3080WAT     H113040   5.868   1.375   2.776 -0.9840 -1.2934  0.9746
 3080WAT     H213041   5.887   1.480   2.862  1.6234  0.4139 -1.5203
 3080WAT    EPW13042   5.900   1.406   2.841  0.2583 -0.2956 -0.0614
 3081WAT      O13043   2.899   3.993   6.260  0.2009  0.3097  0.1405
 3081WAT     H113044   2.812   3.992   6.273  0.2838 -0.7559  0.7085
 3081WAT     H213045   2.907   4.031   6.182 -0.6162  2.5802  1.0505
 3081WAT    EPW13046   2.887   3.999   6.251  0.0924  0.4877  0.3589
 3082WAT      O13047   0.583   6.614   6.651 -0.2260  0.1530  0.3402
 3082WAT     H113048   0.607   6.581   6.574  3.2105 -0.4595  1.5129
 3082WAT     H213049   0.524   6.675   6.629  0.7261  0.1424 -2.7891
 3082WAT    EPW13050   0.577   6.618   6.636  0.4223  0.0610  0.0512
 3083WAT      O13051   5.155   0.330   2.450  0.4588 -0.5807 -0.0759
 3083WAT     H113052   5.138   0.404   2.407  1.0398 -0.7294 -0.5845
 3083WAT     H213053   5.124   0.345   2.530 -0.8659 -0.3895 -0.6024
 3083WAT    EPW13054   5.148   0.343   2.456  0.3489 -0.5745 -0.2288
 3084WAT      O13055   5.912   2.076   4.509  0.2133  0.1288 -0.2445
 3084WAT     H113056   5.929   2.157   4.539 -1.1332  0.0082  0.9262
 3084WAT     H213057   5.979   2.029   4.540 -1.0393  0.0340  2.6287
 3084WAT    EPW13058   5.925   2.081   4.518 -0.1706  0.0970  0.3529
 3085WAT      O13059   3.993   0.647   4.319 -0.4991 -0.0362 -0.0146
 3085WAT     H113060   3.931   0.699   4.288  0.6779  1.5849  0.2650
 3085WAT     H213061   3.998   0.584   4.259 -0.6520  1.1773 -1.3568
 3085WAT    EPW13062   3.984   0.645   4.306 -0.3478  0.3826 -0.1716
 3086WAT      O13063   4.651   0.676   7.275  0.1164  0.0022  0.3969
 3086WAT     H113064   4.713   0.627   7.238 -0.6010  0.9803 -2.4071
 3086WAT     H213065   4.660   0.754   7.235 -2.0028  0.5681  0.8907
 3086WAT    EPW13066   4.661   0.680   7.263 -0.3026  0.2303  0.0556
 3087WAT      O13067   4.466   0.045   0.162  0.1637 -0.7902 -0.5013
 3087WAT     H113068   4.397   0.075   0.117  0.8449  0.5593 -0.7067
 3087WAT     H213069   4.533   0.085   0.123  1.2471 -3.2076 -1.2845
 3087WAT    EPW13070   4.465   0.056   0.150  0.4244 -0.9479 -0.6473
 3088WAT      O13071   1.330   2.071   3.498 -0.0345 -0.0266  0.2907
 3088WAT     H113072   1.338   2.001   3.447  1.3346  0.8146 -0.7510
 3088WAT     H213073   1.258   2.110   3.468  1.0975  0.8000 -1.5448
 3088WAT    EPW13074   1.321   2.067   3.486  0.3350  0.2197 -0.1344
 3089WAT      O13075   5.936   6.873   0.142 -0.3521 -0.3105 -0.6625
 3089WAT     H113076   5.974   6.794   0.137  1.4108  0.4427  0.0696
 3089WAT     H213077   5.865   6.858   0.190  1.9002 -0.8865  2.8462
 3089WAT    EPW13078   5.931   6.859   0.148  0.2410 -0.2843 -0.0361
 3090WAT      O13079   5.510   3.116   5.888 -0.2276 -0.3805 -0.1117
 3090WAT     H113080   5.545   3.051   5.842 -0.1224 -0.8821  0.6507
 3090WAT     H213081   5.575   3.138   5.943 -0.9664 -1.0675  1.0658
 3090WAT    EPW13082   5.525   3.110   5.890 -0.3212 -0.5561  0.1749
 3091WAT      O13083   2.081   4.638   6.329  0.3439  0.0934  0.3949
 3091WAT     H113084   2.168   4.627   6.327 -0.0172 -4.0911 -0.1002
 3091WAT     H213085   2.056   4.593   6.399 -1.6169 -1.4444 -1.1779
 3091WAT    EPW13086   2.090   4.630   6.339  0.0009 -0.7519  0.0894
 3092WAT      O13087   6.075   6.168   1.035 -0.2390 -0.4300 -0.1184
 3092WAT     H113088   6.156   6.162   1.003  0.7161 -0.7199  2.1511
 3092WAT     H213089   6.043   6.240   0.998  0.8119 -0.6591 -1.5327
 3092WAT    EPW13090   6.082   6.178   1.025  0.0574 -0.5067  0.0080
 3093WAT      O13091   2.683   5.241   5.392 -0.4703  0.3114  0.4277
 3093WAT     H113092   2.630   5.177   5.366  0.1750  0.0532 -0.2891
 3093WAT     H213093   2.759   5.221   5.356  0.1664  0.6087  1.5455
 3093WAT    EPW13094   2.686   5.229   5.383 -0.2809  0.3172  0.4869
 3094WAT      O13095   6.628   1.563   3.997 -0.5367 -0.4047 -0.0647
 3094WAT     H113096   6.570   1.561   4.061  0.7603  1.6432  1.3099
 3094WAT     H213097   6.581   1.546   3.925 -2.3608 -1.0331  1.2202
 3094WAT    EPW13098   6.613   1.560   3.996 -0.6145 -0.1950  0.3282
 3095WAT      O13099   5.870   1.026   6.279  0.5201  0.3348 -0.1101
 3095WAT     H113100   5.835   1.104   6.297  0.0089  0.2516 -0.7186
 3095WAT     H213101   5.875   0.987   6.357  1.1683  1.1266  0.2602
 3095WAT    EPW13102   5.866   1.032   6.293  0.5404  0.4395 -0.1453
 3096WAT      O13103   5.460   7.059   6.174 -0.0949  0.2466 -0.0020
 3096WAT     H113104   5.380   7.081   6.203 -1.6960 -2.0518 -2.2421
 3096WAT     H213105   5.466   7.100   6.097  0.8521  0.2754  0.0775
 3096WAT    EPW13106   5.449   7.068   6.167 -0.1916 -0.0887 -0.3211
 3097WAT      O13107   4.537   2.432   4.487 -0.2756 -0.3313  0.0006
 3097WAT     H113108   4.509   2.514   4.496  1.9655  0.6581 -1.1002
 3097WAT     H213109   4.528   2.417   4.401  0.6629 -0.6729 -0.0493
 3097WAT    EPW13110   4.532   2.442   4.475  0.1941 -0.2356 -0.1694
 3098WAT      O13111   1.462   2.046   3.753 -0.2471  0.0712  0.4776
 3098WAT     H113112   1.431   2.091   3.821  0.5286  2.8754 -0.8627
 3098WAT     H213113   1.421   2.082   3.684  1.8995  0.1584 -0.8436
 3098WAT    EPW13114   1.451   2.058   3.753  0.1846  0.4983  0.0844
 3099WAT      O13115   2.614   0.293   5.601 -0.0537  0.1703  0.1265
 3099WAT     H113116   2.560   0.259   5.660  0.6610 -0.5666  0.3697
 3099WAT     H213117   2.569   0.287   5.526 -0.1897 -0.7191  0.2719
 3099WAT    EPW13118   2.599   0.287   5.599  0.0318 -0.0700  0.1839
 3100WAT      O13119   1.595   6.477   2.983  0.0822  0.3690  0.6379
 3100WAT     H113120   1.554   6.440   3.051  0.9811 -0.9987  0.4863
 3100WAT     H213121   1.678   6.482   3.010  0.4010  0.0704 -0.2381
 3100WAT    EPW13122   1.602   6.472   2.997  0.2621  0.1229  0.4861
 3101WAT      O13123   4.416   7.297   1.633  0.0232 -0.4641 -0.0096
 3101WAT     H113124   4.420   7.232   1.576  1.6011 -1.7175  1.4248
 3101WAT     H213125   4.370   7.359   1.591 -0.2851 -1.9273 -1.9526
 3101WAT    EPW13126   4.410   7.297   1.618  0.2108 -0.8654 -0.0847
 3102WAT      O13127   0.350   2.049   7.214 -0.4317 -0.1444 -0.3286
 3102WAT     H113128   0.275   2.057   7.169 -0.7679 -0.4612  0.1667
 3102WAT     H213129   0.324   2.053   7.297 -0.1724 -2.3829 -0.0851
 3102WAT    EPW13130   0.335   2.051   7.219 -0.4430 -0.5219 -0.2194
 3103WAT      O13131   4.958   5.042   6.957  0.0013  0.0129 -0.4942
 3103WAT     H113132   4.978   5.037   7.042  0.3155 -2.5985 -0.6278
 3103WAT     H213133   5.033   5.069   6.920  0.2273  0.0002 -0.0566
 3103WAT    EPW13134   4.972   5.045   6.965  0.0811 -0.3747 -0.4493
 3104WAT      O13135   1.800   5.450   5.461  0.6595  0.5290  0.3016
 3104WAT     H113136   1.773   5.369   5.445 -1.3982  1.3109 -0.6257
 3104WAT     H213137   1.835   5.476   5.386 -0.5839  1.1469 -0.0929
 3104WAT    EPW13138   1.801   5.442   5.448  0.1718  0.7358  0.1063
 3105WAT      O13139   1.225   0.772   7.529  0.0638  0.3029 -0.7266
 3105WAT     H113140   1.237   0.795   7.612  1.9505  0.4954 -1.0125
 3105WAT     H213141   1.151   0.812   7.506 -1.0022 -0.4890  1.0961
 3105WAT    EPW13142   1.216   0.781   7.538  0.1850  0.2144 -0.4996
 3106WAT      O13143   6.242   0.783   4.688  0.5115  0.1967 -0.2775
 3106WAT     H113144   6.243   0.709   4.734  0.4436  0.1919 -0.2837
 3106WAT     H213145   6.215   0.843   4.745  2.2441  0.5488  0.2161
 3106WAT    EPW13146   6.238   0.781   4.703  0.7574  0.2480 -0.2055
 3107WAT      O13147   7.540   0.374   7.028 -0.5537 -0.0758 -0.2434
 3107WAT     H113148   7.529   0.414   7.104 -0.7098 -2.5038  1.1002
 3107WAT     H213149   7.470   0.321   7.021  0.6668 -1.7111 -0.8239
 3107WAT    EPW13150   7.528   0.372   7.038 -0.3964 -0.6760 -0.1307
 3108WAT      O13151   7.710   0.227   6.477  0.9839 -0.3215 -0.3071
 3108WAT     H113152   7.653   0.206   6.414  0.4769  1.3272 -0.4288
 3108WAT     H213153   7.696   0.165   6.538  0.6852 -1.2665 -1.3056
 3108WAT    EPW13154   7.699   0.214   6.477  0.8649 -0.2175 -0.4726
 3109WAT      O13155   0.038   2.973   6.578  0.5171 -0.0187  0.3121
 3109WAT     H113156   0.050   2.931   6.654  1.4403  2.1408  1.4735
 3109WAT     H213157  -0.046   2.997   6.581  0.3500 -0.5975  0.2890
 3109WAT    EPW13158   0.027   2.971   6.590  0.6288  0.2148  0.4803
 3110WAT      O13159   5.651   0.822   4.472 -0.0851  0.2411  0.3121
 3110WAT     H113160   5.575   0.865   4.470 -0.1323  0.3517  2.3896
 3110WAT     H213161   5.707   0.880   4.505  0.7921 -0.0430 -0.6025
 3110WAT    EPW13162   5.648   0.837   4.477  0.0375  0.2155  0.4839
 3111WAT      O13163   0.217   0.876   5.650  0.6311  0.4197 -0.6453
 3111WAT     H113164   0.148   0.929   5.648  0.9128  0.8802  0.8556
 3111WAT     H213165   0.235   0.864   5.565 -0.8321  0.8620 -1.0553
 3111WAT    EPW13166   0.210   0.882   5.637  0.4566  0.5530 -0.4841
 3112WAT      O13167   7.684   0.150   5.626  0.3827  0.4296  0.5005
 3112WAT     H113168   7.727   0.074   5.627 -0.0080  0.1787 -0.4514
 3112WAT     H213169   7.744   0.209   5.648  0.4865 -0.2367  2.1482
 3112WAT    EPW13170   7.699   0.148   5.629  0.3403  0.2941  0.6033
 3113WAT      O13171   0.053   4.241   4.980 -0.1708 -0.3421  0.3004
 3113WAT     H113172   0.040   4.213   4.898  1.4275 -0.8376  0.1844
 3113WAT     H213173   0.072   4.168   5.024 -0.1868  0.0295  0.9370
 3113WAT    EPW13174   0.054   4.226   4.974  0.0629 -0.3604  0.3773
 3114WAT      O13175   1.445   5.956   6.601  0.0735 -0.2762  0.0055
 3114WAT     H113176   1.385   5.937   6.662  0.3814  0.7775  0.6468
 3114WAT     H213177   1.519   5.928   6.636  0.4994  1.7274  0.8571
 3114WAT    EPW13178   1.447   5.949   6.615  0.1819  0.1754  0.2260
 3115WAT      O13179   2.063   7.054   0.976 -0.2931 -0.6464 -0.2754
 3115WAT     H113180   2.082   7.137   0.959  1.7206 -0.9170  0.4085
 3115WAT     H213181   2.135   7.011   0.953 -1.3601 -2.2450 -0.7877
 3115WAT    EPW13182   2.076   7.060   0.970 -0.1533 -0.9225 -0.2500
 3116WAT      O13183   6.116   6.604   2.219  0.0607 -0.5149  0.1397
 3116WAT     H113184   6.122   6.532   2.170 -0.1436 -0.2212 -0.3233
 3116WAT     H213185   6.112   6.573   2.301 -0.9458 -1.0767 -0.0988
 3116WAT    EPW13186   6.116   6.589   2.224 -0.1182 -0.5545  0.0361
 3117WAT      O13187   1.875   6.536   5.486  0.1503 -0.2777 -0.4048
 3117WAT     H113188   1.959   6.547   5.463  0.2665 -1.2217 -0.4827
 3117WAT     H213189   1.880   6.524   5.572  0.2776 -1.8473 -0.6049
 3117WAT    EPW13190   1.888   6.536   5.495  0.1863 -0.6490 -0.4459
 3118WAT      O13191   4.272   3.405   6.478  0.1441  0.2175 -0.5611
 3118WAT     H113192   4.204   3.380   6.526  0.1792  0.4533 -0.3852
 3118WAT     H213193   4.309   3.330   6.454 -0.7287  0.0536 -1.4748
 3118WAT    EPW13194   4.268   3.390   6.481  0.0203  0.2281 -0.6701
 3119WAT      O13195   2.362   0.537   0.319 -0.3072  0.5220 -0.0536
 3119WAT     H113196   2.366   0.451   0.331 -2.2198  0.5825  1.6410
 3119WAT     H213197   2.290   0.548   0.271 -0.7706  1.2131  0.7665
 3119WAT    EPW13198   2.352   0.526   0.314 -0.6582  0.6330  0.3179
 3120WAT      O13199   5.763   1.078   1.732  0.2339 -0.8073  0.7378
 3120WAT     H113200   5.808   1.003   1.729  0.7005 -0.5037 -0.3256
 3120WAT     H213201   5.825   1.139   1.726 -0.2945 -0.3792 -0.6848
 3120WAT    EPW13202   5.779   1.076   1.731  0.2247 -0.6992  0.3705
 3121WAT      O13203   5.669   3.656   2.648  0.0985 -0.0353  0.1006
 3121WAT     H113204   5.750   3.627   2.659  0.3657 -0.0380 -1.5345
 3121WAT     H213205   5.629   3.590   2.608 -0.5151  0.2124  0.2984
 3121WAT    EPW13206   5.675   3.642   2.644  0.0473  0.0009 -0.1117
 3122WAT      O13207   6.067   7.030   7.579 -0.2417  0.3173  0.1393
 3122WAT     H113208   6.097   6.949   7.589  2.9936  1.5677  2.0992
 3122WAT     H213209   6.011   7.040   7.645 -0.3854 -0.1934  0.0964
 3122WAT    EPW13210   6.063   7.020   7.590  0.2150  0.4266  0.4225
 3123WAT      O13211   2.567   3.698   5.732  0.0087 -0.4174  0.0928
 3123WAT     H113212   2.601   3.640   5.787 -1.4433 -0.9130  0.5146
 3123WAT     H213213   2.584   3.774   5.769 -0.3923 -0.7172  0.9345
 3123WAT    EPW13214   2.574   3.700   5.745 -0.2650 -0.5349  0.2795
 3124WAT      O13215   1.690   1.066   2.732  0.2468  0.6246  0.5882
 3124WAT     H113216   1.773   1.039   2.729 -0.2990 -1.2480  0.9863
 3124WAT     H213217   1.678   1.089   2.815 -0.2834 -1.5241  1.1641
 3124WAT    EPW13218   1.700   1.066   2.744  0.0879  0.0306  0.7321
 3125WAT      O13219   7.245   7.078   6.186 -0.3645 -0.3102 -0.2170
 3125WAT     H113220   7.309   7.020   6.195 -0.6845 -0.7188 -0.5276
 3125WAT     H213221   7.273   7.131   6.122  0.0261  0.0184  0.2214
 3125WAT    EPW13222   7.258   7.077   6.178 -0.3540 -0.3220 -0.1981
 3126WAT      O13223   5.777   7.239   3.737  0.1979  0.0591 -0.1407
 3126WAT     H113224   5.704   7.269   3.699  0.4847  0.0765 -0.6922
 3126WAT     H213225   5.806   7.307   3.783  0.3366  0.3332 -0.6252
 3126WAT    EPW13226   5.770   7.253   3.738  0.2608  0.1021 -0.2937
 3127WAT      O13227   2.863   3.343   1.921  0.0179 -0.5012  1.1560
 3127WAT     H113228   2.852   3.279   1.979 -2.5178  0.9290  2.4439
 3127WAT     H213229   2.783   3.355   1.889  0.4414  1.8453  0.8192
 3127WAT    EPW13230   2.850   3.335   1.925 -0.2941  0.0567  1.2965
 3128WAT      O13231   6.646   5.395   3.808 -0.0104 -0.0992 -0.0783
 3128WAT     H113232   6.638   5.337   3.873  1.4212 -1.9781 -1.5051
 3128WAT     H213233   6.732   5.406   3.801 -0.2337  2.1278  0.0213
 3128WAT    EPW13234   6.657   5.388   3.817  0.1681 -0.0478 -0.2743
 3129WAT      O13235   6.131   6.823   3.386 -0.7080 -0.0437  0.9796
 3129WAT     H113236   6.070   6.803   3.327 -0.8312  0.0569  1.0724
 3129WAT     H213237   6.117   6.907   3.402  0.8209  0.5629 -0.5992
 3129WAT    EPW13238   6.120   6.832   3.379 -0.5003  0.0608  0.7601
 3130WAT      O13239   5.054   1.265   2.564  0.4786  0.5571  0.0017
 3130WAT     H113240   5.054   1.230   2.484  1.1659  0.5870 -0.0189
 3130WAT     H213241   4.973   1.249   2.593  1.4991 -3.5986  1.0896
 3130WAT    EPW13242   5.042   1.258   2.556  0.7308 -0.0524  0.1593
 3131WAT      O13243   6.112   6.329   3.416  0.7363 -0.1967  0.4830
 3131WAT     H113244   6.115   6.305   3.332 -0.6606  0.3053  0.2606
 3131WAT     H213245   6.125   6.254   3.459 -3.5302 -1.6005 -0.1815
 3131WAT    EPW13246   6.114   6.315   3.410 -0.1003 -0.3299  0.3520
 3132WAT      O13247   6.532   0.863   5.006  0.0009  0.1427  0.1603
 3132WAT     H113248   6.588   0.889   4.944 -3.2698  3.0742 -1.9041
 3132WAT     H213249   6.549   0.916   5.072  0.2832  0.3519 -0.0766
 3132WAT    EPW13250   6.543   0.875   5.006 -0.4405  0.6066 -0.1797
 3133WAT      O13251   1.286   0.442   6.974 -0.0488  0.1866 -0.1422
 3133WAT     H113252   1.263   0.415   6.894  0.0090 -0.9763  0.2227
 3133WAT     H213253   1.210   0.468   7.009 -0.1070  0.5034 -0.4929
 3133WAT    EPW13254   1.271   0.442   6.967 -0.0488  0.0616 -0.1401
 3134WAT      O13255   6.713   2.355   3.606  0.1430 -0.0454 -0.8656
 3134WAT     H113256   6.721   2.270   3.624  1.1533 -0.2807 -2.3076
 3134WAT     H213257   6.789   2.388   3.631  0.6252  0.0311 -2.3780
 3134WAT    EPW13258   6.725   2.347   3.613  0.3635 -0.0689 -1.3020
 3135WAT      O13259   4.573   6.741   3.962 -0.3374 -0.9386 -0.0098
 3135WAT     H113260   4.618   6.811   3.936 -1.1432 -0.6125 -0.5650
 3135WAT     H213261   4.621   6.674   3.934  0.7797 -0.6305  1.1048
 3135WAT    EPW13262   4.586   6.741   3.954 -0.2914 -0.8449  0.0728
 3136WAT      O13263   7.091   3.517   5.717  0.3177  0.0226 -0.5401
 3136WAT     H113264   7.073   3.590   5.762  1.4836  1.7249 -2.6234
 3136WAT     H213265   7.019   3.505   5.669  0.2305 -0.0413 -0.3940
 3136WAT    EPW13266   7.077   3.526   5.717  0.4770  0.2646 -0.8262
 3137WAT      O13267   6.426   1.786   2.916 -0.2746 -0.2828  0.4373
 3137WAT     H113268   6.478   1.745   2.973 -1.4785 -1.6746  0.6001
 3137WAT     H213269   6.383   1.844   2.965 -0.5426 -0.7412  0.7502
 3137WAT    EPW13270   6.427   1.788   2.931 -0.4920 -0.5561  0.5076
 3138WAT      O13271   7.025   1.617   5.173 -0.1005  0.1210  0.2865
 3138WAT     H113272   7.050   1.576   5.100  1.0887  0.5741  0.4216
 3138WAT     H213273   7.079   1.685   5.178 -0.7261  0.5726  1.1428
 3138WAT    EPW13274   7.037   1.621   5.163 -0.0172  0.2547  0.4329
 3139WAT      O13275   6.428   5.717   3.688  0.2287  0.2707  0.3585
 3139WAT     H113276   6.395   5.689   3.764  0.8149 -1.0515  0.1444
 3139WAT     H213277   6.514   5.703   3.696  0.4518  1.2648 -0.0970
 3139WAT    EPW13278   6.436   5.711   3.701  0.3482  0.2222  0.2596
 3140WAT      O13279   5.909   4.476   6.301 -0.0532 -0.1373 -0.2899
 3140WAT     H113280   5.877   4.404   6.340 -1.2007  0.7138  0.3981
 3140WAT     H213281   5.886   4.540   6.356  0.0072  0.8769 -1.4243
 3140WAT    EPW13282   5.901   4.475   6.315 -0.2138  0.1383 -0.3558
 3141WAT      O13283   3.019   1.371   1.790 -0.5386 -0.4758  0.2686
 3141WAT     H113284   2.995   1.306   1.843  0.2740 -1.7524 -0.8735
 3141WAT     H213285   3.047   1.433   1.845 -1.0872 -1.1758  1.3696
 3141WAT    EPW13286   3.020   1.371   1.806 -0.4996 -0.7678  0.2625
 3142WAT      O13287   5.460   7.183   4.464 -0.4450  0.6320  0.9801
 3142WAT     H113288   5.418   7.177   4.541 -1.7026 -0.0144  0.2637
 3142WAT     H213289   5.401   7.157   4.406  0.4140  1.3377 -0.2524
 3142WAT    EPW13290   5.445   7.178   4.467 -0.5039  0.6408  0.6922
 3143WAT      O13291   2.895   5.664   5.465 -0.0185 -0.5764  0.3332
 3143WAT     H113292   2.963   5.709   5.496  0.4237 -1.5564  0.8565
 3143WAT     H213293   2.832   5.723   5.456  0.9092  0.3633 -0.1816
 3143WAT    EPW13294   2.896   5.679   5.468  0.1838 -0.5823  0.3345
 3144WAT      O13295   0.415   1.094   5.978  0.6971 -0.3572  0.5689
 3144WAT     H113296   0.341   1.052   5.957 -0.8040  2.5740 -0.7223
 3144WAT     H213297   0.398   1.126   6.058 -0.0584  1.3828 -0.2371
 3144WAT    EPW13298   0.401   1.093   5.987  0.3637  0.3328  0.2591
 3145WAT      O13299   6.439   0.714   4.531 -0.3051  0.3565 -0.6674
 3145WAT     H113300   6.371   0.736   4.581 -2.0039 -1.8671 -1.8061
 3145WAT     H213301   6.490   0.667   4.583 -2.0902 -2.0001 -0.8766
 3145WAT    EPW13302   6.436   0.711   4.546 -0.8197 -0.3201 -0.8665
 3146WAT      O13303   6.478   1.468   3.777  0.2577  0.3758 -0.1913
 3146WAT     H113304   6.520   1.407   3.731  1.4753  1.2099 -0.2464
 3146WAT     H213305   6.394   1.444   3.771  0.5787 -0.5977 -1.2398
 3146WAT    EPW13306   6.472   1.456   3.769  0.4850  0.3552 -0.3543
 3147WAT      O13307   5.244   6.695   3.789  0.0976 -0.1781  0.1528
 3147WAT     H113308   5.299   6.741   3.839 -0.6728  1.4814 -0.4611
 3147WAT     H213309   5.298   6.654   3.734  0.7763  1.0826 -0.1692
 3147WAT    EPW13310   5.260   6.696   3.788  0.0841  0.2533  0.0146
 3148WAT      O13311   7.531   5.967   6.248 -0.1708  0.0957  0.1000
 3148WAT     H113312   7.541   6.048   6.218  0.6244  0.0601  0.2482
 3148WAT     H213313   7.452   5.944   6.219 -0.7481  1.2103  0.7327
 3148WAT    EPW13314   7.521   5.975   6.239 -0.1386  0.2551  0.2154
 3149WAT      O13315   0.202   4.633   6.094 -0.4498 -0.6381  0.0427
 3149WAT     H113316   0.117   4.629   6.113 -0.4337  1.2778  0.6877
 3149WAT     H213317   0.238   4.667   6.166  0.1689  3.0132 -1.7832
 3149WAT    EPW13318   0.195   4.638   6.107 -0.3560  0.1843 -0.1318
 3150WAT      O13319   4.361   4.667   3.698 -0.2842 -0.2722 -0.2950
 3150WAT     H113320   4.430   4.695   3.652 -0.2883 -0.4178 -0.3893
 3150WAT     H213321   4.298   4.658   3.637 -0.4157 -0.0482 -0.1957
 3150WAT    EPW13322   4.362   4.670   3.682 -0.3042 -0.2606 -0.2943
 3151WAT      O13323   6.974   7.225   4.386  0.3076  0.2696  0.6989
 3151WAT     H113324   7.013   7.152   4.414  1.2506  0.9509  1.2207
 3151WAT     H213325   6.998   7.230   4.302 -0.1651 -0.2607  0.5215
 3151WAT    EPW13326   6.983   7.215   4.377  0.3771  0.2919  0.7498
 3152WAT      O13327   4.057   5.168   0.604  0.0616  0.0457 -0.4287
 3152WAT     H113328   4.049   5.189   0.519 -0.7946  1.5507 -0.0194
 3152WAT     H213329   4.142   5.150   0.612  0.7098  2.3787 -1.1338
 3152WAT    EPW13330   4.068   5.169   0.593  0.0309  0.6127 -0.4724
 3153WAT      O13331   4.614   0.223   3.432  0.6788 -0.0961 -0.3236
 3153WAT     H113332   4.648   0.204   3.354  1.4448 -0.2844  0.0362
 3153WAT     H213333   4.678   0.202   3.487 -0.1483 -0.7392  0.4182
 3153WAT    EPW13334   4.629   0.217   3.429  0.6698 -0.2189 -0.1609
 3154WAT      O13335   4.418   3.954   0.093 -0.1059  0.0316  0.5077
 3154WAT     H113336   4.429   3.880   0.049  0.4898 -0.6849  1.8307
 3154WAT     H213337   4.474   4.009   0.055  1.1659 -0.8775  1.0047
 3154WAT    EPW13338   4.428   3.951   0.081  0.1700 -0.2085  0.7766
 3155WAT      O13339   3.015   1.469   2.595  0.4801  0.0389  0.0870
 3155WAT     H113340   3.061   1.493   2.666 -0.4266  1.5990  0.1794
 3155WAT     H213341   3.076   1.466   2.532  1.1397 -0.4776  0.7233
 3155WAT    EPW13342   3.031   1.472   2.596  0.4436  0.1931  0.1946
 3156WAT      O13343   4.591   2.061   3.402 -0.8995 -0.2124 -0.4459
 3156WAT     H113344   4.542   2.126   3.371 -0.0136  0.4881 -0.4414
 3156WAT     H213345   4.582   1.997   3.344  0.9309  1.1441 -2.3892
 3156WAT    EPW13346   4.583   2.062   3.389 -0.4983  0.0914 -0.7323
 3157WAT      O13347   4.079   0.258   0.676  0.3817  0.2784 -0.2431
 3157WAT     H113348   4.073   0.280   0.592 -1.7464 -0.5167 -0.3430
 3157WAT     H213349   4.006   0.214   0.692  0.8746  0.1195  1.9590
 3157WAT    EPW13350   4.067   0.255   0.666  0.1401  0.1374  0.0674
 3158WAT      O13351   3.338   0.619   1.847  0.3288  0.3307  0.3018
 3158WAT     H113352   3.255   0.642   1.864 -0.0350 -0.3259 -0.5226
 3158WAT     H213353   3.331   0.565   1.779  1.3053 -0.8525  1.0902
 3158WAT    EPW13354   3.324   0.615   1.840  0.4193  0.0589  0.2965
 3159WAT      O13355   3.662   6.822   1.627 -0.1459  0.0744  0.3747
 3159WAT     H113356   3.725   6.763   1.615 -0.4895 -0.5495  1.5290
 3159WAT     H213357   3.590   6.779   1.604 -0.0023  1.9639 -5.0498
 3159WAT    EPW13358   3.661   6.807   1.622 -0.1754  0.2614 -0.2561
 3160WAT      O13359   5.452   7.069   1.390  0.6412 -0.0685 -0.3635
 3160WAT     H113360   5.398   7.039   1.451  1.0844 -1.9699 -0.8236
 3160WAT     H213361   5.417   7.146   1.368 -0.6755 -0.2780  0.8199
 3160WAT    EPW13362   5.439   7.076   1.395  0.5122 -0.3803 -0.2567
 3161WAT      O13363   3.060   2.832   2.398  0.2907  0.4293  0.0997
 3161WAT     H113364   3.098   2.809   2.473  1.5752 -1.8337 -1.1322
 3161WAT     H213365   3.114   2.891   2.364  0.9189 -0.2283 -0.0616
 3161WAT    EPW13366   3.073   2.837   2.404  0.5732 -0.0021 -0.1061
 3162WAT      O13367   7.462   7.105   0.293  0.0162  0.3098  0.0107
 3162WAT     H113368   7.394   7.111   0.239 -0.2767 -1.5481  0.1132
 3162WAT     H213369   7.435   7.147   0.365 -0.6893  0.3171 -0.2485
 3162WAT    EPW13370   7.448   7.113   0.295 -0.1313  0.0364 -0.0125
 3163WAT      O13371   0.881   2.027   5.012  0.2936 -0.2027 -0.3189
 3163WAT     H113372   0.870   2.109   5.038  0.0920  0.1126 -1.3595
 3163WAT     H213373   0.967   2.014   5.020  0.2020 -0.2325  0.7830
 3163WAT    EPW13374   0.892   2.037   5.017  0.2503 -0.1605 -0.3099
 3164WAT      O13375   7.204   6.734   5.473  0.3855 -0.5631 -0.3558
 3164WAT     H113376   7.127   6.740   5.431  0.3228  0.4706 -0.1381
 3164WAT     H213377   7.209   6.651   5.497  0.0432 -0.9924 -1.7073
 3164WAT    EPW13378   7.193   6.723   5.470  0.3257 -0.4738 -0.5233
 3165WAT      O13379   5.596   1.153   5.145  0.0470 -0.2258  0.0048
 3165WAT     H113380   5.608   1.167   5.230  1.0352  0.2661 -0.1974
 3165WAT     H213381   5.555   1.225   5.118  0.6086  0.0605 -0.1043
 3165WAT    EPW13382   5.591   1.166   5.153  0.2759 -0.1108 -0.0412
 3166WAT      O13383   6.889   5.817   4.506  0.6190  0.2013  0.0274
 3166WAT     H113384   6.824   5.876   4.507  1.9968  1.8898 -1.5709
 3166WAT     H213385   6.862   5.757   4.449  0.0175  0.3146  0.1858
 3166WAT    EPW13386   6.876   5.817   4.498  0.7336  0.4675 -0.1853
 3167WAT      O13387   4.778   5.981   5.642  0.2364 -0.4490  0.3037
 3167WAT     H113388   4.858   5.987   5.610  0.6204 -2.0489  0.8954
 3167WAT     H213389   4.757   5.897   5.631 -2.2279  0.3111 -1.8068
 3167WAT    EPW13390   4.787   5.970   5.635 -0.0709 -0.5731  0.0793
 3168WAT      O13391   5.027   6.574   1.304 -0.5876  0.1444 -0.1352
 3168WAT     H113392   4.942   6.581   1.284 -0.1637 -2.3495 -3.6977
 3168WAT     H213393   5.057   6.517   1.245  2.7765 -2.2704  3.4260
 3168WAT    EPW13394   5.019   6.566   1.292 -0.0281 -0.5807 -0.1354
 3169WAT      O13395   4.477   4.795   5.118 -0.0023 -0.1392 -0.0355
 3169WAT     H113396   4.503   4.846   5.052  0.3935 -1.2226 -0.7365
 3169WAT     H213397   4.392   4.814   5.126  0.2729  1.1007  0.1684
 3169WAT    EPW13398   4.468   4.805   5.109  0.0968 -0.1161 -0.1089
 3170WAT      O13399   2.746   3.909   0.709  0.4069  0.4206  0.4823
 3170WAT     H113400   2.674   3.884   0.753 -0.0131 -1.2969 -1.0354
 3170WAT     H213401   2.741   3.863   0.635  2.3378  1.3787 -0.3047
 3170WAT    EPW13402   2.735   3.898   0.704  0.6301  0.3085  0.1418
 3171WAT      O13403   4.091   6.911   2.459 -0.6469  0.0368 -0.6123
 3171WAT     H113404   4.060   6.908   2.378  0.1548  0.6680 -0.9554
 3171WAT     H213405   4.020   6.902   2.509 -1.7616  3.3944 -1.3204
 3171WAT    EPW13406   4.076   6.909   2.454 -0.6931  0.6260 -0.7676
 3172WAT      O13407   3.635   1.994   5.937  0.0509  0.2360  0.8693
 3172WAT     H113408   3.673   1.917   5.924 -0.7933 -0.2539  1.2534
 3172WAT     H213409   3.638   2.032   5.858  1.3957  0.2600  0.9075
 3172WAT    EPW13410   3.641   1.988   5.923  0.1248  0.1672  0.9317
 3173WAT      O13411   0.756   4.958   3.713  0.0204  0.2480  0.2630
 3173WAT     H113412   0.771   5.004   3.785  1.2668 -0.3080  0.3863
 3173WAT     H213413   0.807   4.995   3.653  1.4350 -1.2034  0.4851
 3173WAT    EPW13414   0.766   4.970   3.714  0.4135 -0.0485  0.3140
 3174WAT      O13415   3.831   6.499   1.888 -0.3282  0.2290  0.0321
 3174WAT     H113416   3.882   6.435   1.921  0.8675 -0.0189 -2.0947
 3174WAT     H213417   3.754   6.460   1.878 -0.4308  0.0043  1.4309
 3174WAT    EPW13418   3.827   6.484   1.892 -0.1667  0.1592 -0.0755
 3175WAT      O13419   6.814   2.459   3.975  0.3747  0.3188  0.7004
 3175WAT     H113420   6.873   2.395   3.982  0.8466  0.8255  1.5157
 3175WAT     H213421   6.863   2.531   3.972 -0.0723  0.6142 -1.5950
 3175WAT    EPW13422   6.830   2.460   3.975  0.3783  0.4373  0.4818
 3176WAT      O13423   7.354   3.260   4.243  0.1719 -0.2546 -0.0144
 3176WAT     H113424   7.322   3.339   4.264 -0.7123 -0.7541  0.6307
 3176WAT     H213425   7.321   3.208   4.305  0.1812 -1.2433 -0.8080
 3176WAT    EPW13426   7.344   3.264   4.255  0.0426 -0.4745 -0.0364
 3177WAT      O13427   1.958   5.101   1.695 -0.0771  0.5650  0.6927
 3177WAT     H113428   1.977   5.016   1.699 -0.8906  0.3116 -0.1882
 3177WAT     H213429   1.907   5.114   1.765  1.4560  0.7450  1.8036
 3177WAT    EPW13430   1.953   5.090   1.706  0.0292  0.5542  0.7267
 3178WAT      O13431   7.510   0.087   7.424 -0.6077 -0.3548 -0.2393
 3178WAT     H113432   7.565   0.076   7.358  0.0355 -0.3858  0.2920
 3178WAT     H213433   7.559   0.074   7.495 -1.9052 -3.2782  0.2433
 3178WAT    EPW13434   7.525   0.084   7.425 -0.7044 -0.7912 -0.0895
 3179WAT      O13435   5.838   0.744   3.705 -0.1222 -0.2775  0.6423
 3179WAT     H113436   5.804   0.810   3.751  1.7825  0.8825  0.4911
 3179WAT     H213437   5.797   0.749   3.628 -0.4248  0.3577  0.8368
 3179WAT    EPW13438   5.827   0.755   3.700  0.1145 -0.0123  0.6487
 3180WAT      O13439   5.318   1.111   7.015 -0.3232  0.5405  0.1138
 3180WAT     H113440   5.317   1.026   6.997  0.3974  0.5357  0.0622
 3180WAT     H213441   5.249   1.122   7.068  0.6153 -0.4226  1.6252
 3180WAT    EPW13442   5.307   1.100   7.021 -0.0781  0.3975  0.3294
 3181WAT      O13443   3.374   5.351   3.106 -0.0105  0.6714 -0.1543
 3181WAT     H113444   3.380   5.412   3.168 -0.2445  0.6493 -0.1099
 3181WAT     H213445   3.357   5.396   3.034 -0.7361  0.6135 -0.0225
 3181WAT    EPW13446   3.372   5.367   3.104 -0.1522  0.6596 -0.1282
 3182WAT      O13447   7.141   4.705   6.724  0.1941 -0.7120  0.1423
 3182WAT     H113448   7.150   4.780   6.680 -2.4088 -0.5621 -0.3126
 3182WAT     H213449   7.093   4.656   6.670 -0.2224 -1.7937  1.4531
 3182WAT    EPW13450   7.135   4.709   6.710 -0.2519 -0.8497  0.2687
 3183WAT      O13451   5.083   6.346   4.285  0.2335  0.2376  0.0846
 3183WAT     H113452   5.147   6.402   4.267 -0.0267 -0.0931 -2.1773
 3183WAT     H213453   5.014   6.378   4.242 -0.1259 -1.3797 -0.6411
 3183WAT    EPW13454   5.082   6.359   4.276  0.1420 -0.0502 -0.3567
 3184WAT      O13455   4.303   0.434   0.379  0.0983  0.7139 -0.4444
 3184WAT     H113456   4.343   0.359   0.398 -1.2506  0.3302  1.0396
 3184WAT     H213457   4.219   0.412   0.371 -0.3785  2.1076  0.4149
 3184WAT    EPW13458   4.297   0.420   0.381 -0.1714  0.8631 -0.0983
 3185WAT      O13459   5.992   1.372   0.990  0.1867 -0.5857  0.3555
 3185WAT     H113460   6.004   1.304   1.044  0.5890 -0.9972 -0.2493
 3185WAT     H213461   5.955   1.336   0.920 -2.2600  0.2345  1.1175
 3185WAT    EPW13462   5.988   1.357   0.988 -0.1153 -0.5253  0.3787
 3186WAT      O13463   3.962   4.913   0.579  0.0021  0.2354  0.1988
 3186WAT     H113464   3.996   4.993   0.588 -0.7342  0.6884 -0.7954
 3186WAT     H213465   4.030   4.865   0.552  0.1075  0.9264 -0.8607
 3186WAT    EPW13466   3.977   4.918   0.576 -0.0911  0.4044 -0.1046
 3187WAT      O13467   3.548   1.301   5.964  0.4075 -0.5197  0.3453
 3187WAT     H113468   3.519   1.247   6.027 -0.3416 -0.7203 -0.1629
 3187WAT     H213469   3.480   1.352   5.948  0.2972 -1.0402 -0.9228
 3187WAT    EPW13470   3.534   1.301   5.971  0.2805 -0.6262  0.0829
 3188WAT      O13471   6.114   3.710   3.577  0.1602 -0.4370 -0.6653
 3188WAT     H113472   6.069   3.664   3.636 -1.0814  0.8938 -0.5099
 3188WAT     H213473   6.196   3.686   3.591 -0.0937 -0.2122  1.6059
 3188WAT    EPW13474   6.119   3.700   3.588 -0.0607 -0.2072 -0.3068
 3189WAT      O13475   6.540   3.827   6.441  0.0633  0.1101  0.6069
 3189WAT     H113476   6.616   3.791   6.464 -0.3396 -0.4378  1.0807
 3189WAT     H213477   6.501   3.844   6.517 -2.2544 -3.7298  0.5637
 3189WAT    EPW13478   6.546   3.824   6.455 -0.3386 -0.5381  0.6705
 3190WAT      O13479   4.809   0.365   4.274  0.7602 -0.1072  0.2018
 3190WAT     H113480   4.847   0.432   4.233  0.4680 -0.2522 -0.3207
 3190WAT     H213481   4.750   0.337   4.217 -1.8698  1.5997  1.8746
 3190WAT    EPW13482   4.806   0.371   4.260  0.3286  0.1235  0.3717
 3191WAT      O13483   5.851   1.484   5.742 -0.5915 -0.5575  0.0061
 3191WAT     H113484   5.904   1.546   5.711 -1.4989 -0.0298 -0.5154
 3191WAT     H213485   5.783   1.528   5.775 -1.2217 -1.2637 -0.3038
 3191WAT    EPW13486   5.849   1.499   5.742 -0.8186 -0.5839 -0.1167
 3192WAT      O13487   6.045   5.691   7.086  0.6731  0.1397  0.5681
 3192WAT     H113488   5.977   5.724   7.129 -0.8571  0.4917 -1.9185
 3192WAT     H213489   6.111   5.699   7.143 -1.0037  1.3089  2.4887
 3192WAT    EPW13490   6.045   5.697   7.101  0.1993  0.3644  0.4845
 3193WAT      O13491   3.478   6.455   7.552  0.0299  0.3849  0.4965
 3193WAT     H113492   3.407   6.471   7.504  0.9374  0.9049 -0.7175
 3193WAT     H213493   3.516   6.388   7.510  0.6713  0.6461  0.6424
 3193WAT    EPW13494   3.473   6.447   7.538  0.2587  0.5003  0.3387
 3194WAT      O13495   7.547   3.847   7.805 -0.3903 -0.1398 -0.3658
 3194WAT     H113496   7.479   3.884   7.764 -0.9452 -0.7369  0.0033
 3194WAT     H213497   7.597   3.915   7.827  0.3535  0.1824 -2.7115
 3194WAT    EPW13498   7.545   3.863   7.802 -0.3624 -0.1804 -0.6578
 3195WAT      O13499   7.600   4.255   6.782 -0.1207 -0.3134 -0.0095
 3195WAT     H113500   7.618   4.316   6.722  1.0076 -2.0429 -1.5090
 3195WAT     H213501   7.532   4.213   6.748  0.1527 -0.9429  0.2191
 3195WAT    EPW13502   7.593   4.258   6.768  0.0864 -0.6619 -0.1972
 3196WAT      O13503   4.891   6.426   0.714  0.0819  0.0053  0.1724
 3196WAT     H113504   4.900   6.395   0.795 -2.3025 -0.7712  0.2123
 3196WAT     H213505   4.819   6.386   0.685  0.2182  1.1650 -1.9081
 3196WAT    EPW13506   4.881   6.415   0.722 -0.2502  0.0619 -0.1290
 3197WAT      O13507   4.681   6.279   1.607 -0.2149  0.0574 -0.1442
 3197WAT     H113508   4.713   6.242   1.534  2.1571 -0.2803  0.9904
 3197WAT     H213509   4.687   6.364   1.591 -0.1940 -0.0125 -0.5271
 3197WAT    EPW13510   4.687   6.286   1.594  0.1386 -0.0028 -0.0332
 3198WAT      O13511   4.533   1.221   4.940 -0.1790 -0.5407  0.1358
 3198WAT     H113512   4.603   1.274   4.946  1.3422 -2.1880 -1.6212
 3198WAT     H213513   4.543   1.167   5.007 -0.2050 -0.2622  0.3631
 3198WAT    EPW13514   4.545   1.221   4.950  0.0419 -0.7429 -0.0902
 3199WAT      O13515   2.477   7.259   5.916 -0.3977 -0.5786 -0.0145
 3199WAT     H113516   2.463   7.267   5.830  0.0315 -1.5581 -0.1879
 3199WAT     H213517   2.447   7.334   5.948  0.8691  0.5088 -1.1915
 3199WAT    EPW13518   2.471   7.271   5.908 -0.1471 -0.5627 -0.2140
 3200WAT      O13519   1.251   3.783   0.312  0.8811 -0.1140 -1.1061
 3200WAT     H113520   1.191   3.845   0.326 -1.4026 -1.1708 -4.7322
 3200WAT     H213521   1.326   3.824   0.325 -0.5329  2.1032  0.9654
 3200WAT    EPW13522   1.253   3.799   0.316  0.3349  0.0574 -1.3357
 3201WAT      O13523   5.656   1.049   4.150 -0.5752 -0.6859 -0.6192
 3201WAT     H113524   5.705   1.111   4.111 -1.3231  0.3520  0.0245
 3201WAT     H213525   5.696   1.038   4.227 -2.0378  1.1559  0.4808
 3201WAT    EPW13526   5.669   1.057   4.156 -0.9017 -0.2605 -0.3616
 3202WAT      O13527   0.419   0.718   5.733  0.2807 -0.1092 -0.5087
 3202WAT     H113528   0.360   0.779   5.713 -0.6261  0.0014  2.0530
 3202WAT     H213529   0.460   0.752   5.802  1.5438 -1.3375 -0.6181
 3202WAT    EPW13530   0.416   0.732   5.740  0.3334 -0.2743 -0.1464
 3203WAT      O13531   3.817   6.570   2.269  0.4483  0.3647 -0.4150
 3203WAT     H113532   3.807   6.608   2.191 -3.8551  2.0144  0.6527
 3203WAT     H213533   3.773   6.495   2.261 -1.4546  1.2977  0.7745
 3203WAT    EPW13534   3.809   6.565   2.256 -0.4685  0.7462 -0.0816
 3204WAT      O13535   4.245   6.166   3.588  0.4930  0.3357  0.0120
 3204WAT     H113536   4.288   6.202   3.521  1.7468 -0.9265  0.0913
 3204WAT     H213537   4.297   6.100   3.613 -0.3157  0.2982  1.7430
 3204WAT    EPW13538   4.259   6.161   3.582  0.5588  0.1437  0.2794
 3205WAT      O13539   1.335   0.349   6.160  0.1898 -0.6818  0.5536
 3205WAT     H113540   1.272   0.357   6.100  0.7031  1.6130  0.2133
 3205WAT     H213541   1.392   0.294   6.123  1.0308  1.4761 -1.6759
 3205WAT    EPW13542   1.334   0.342   6.145  0.3899 -0.0240  0.1740
 3206WAT      O13543   4.501   0.521   1.038 -0.0949  0.0935  0.6096
 3206WAT     H113544   4.555   0.577   1.079 -1.7139  1.3962  1.0694
 3206WAT     H213545   4.494   0.455   1.095  1.0633 -0.1389  0.5011
 3206WAT    EPW13546   4.508   0.520   1.053 -0.1630  0.2516  0.6615
 3207WAT      O13547   7.187   6.226   0.562 -0.1587  0.1283  0.0982
 3207WAT     H113548   7.161   6.186   0.488  1.1246  1.1148 -0.9408
 3207WAT     H213549   7.238   6.291   0.533  0.7737  0.2564  1.8952
 3207WAT    EPW13550   7.191   6.229   0.546  0.1686  0.2930  0.2102
 3208WAT      O13551   0.543   6.002   6.762  0.6407  0.0186  0.4381
 3208WAT     H113552   0.462   5.979   6.741  0.5172 -1.1893  2.0451
 3208WAT     H213553   0.592   5.937   6.731  1.2230  1.4501 -1.8369
 3208WAT    EPW13554   0.538   5.989   6.755  0.7085  0.0516  0.3394
 3209WAT      O13555   6.122   1.745   4.478 -0.1633 -0.0313 -0.1250
 3209WAT     H113556   6.117   1.782   4.399  1.7896 -1.5645 -1.0479
 3209WAT     H213557   6.120   1.814   4.532  0.4086  1.2100 -1.5975
 3209WAT    EPW13558   6.121   1.761   4.474  0.2096 -0.0744 -0.4788
 3210WAT      O13559   4.455   0.199   0.438  1.0488  0.2468 -0.1672
 3210WAT     H113560   4.433   0.159   0.512  0.0779 -0.0521 -0.5905
 3210WAT     H213561   4.450   0.136   0.378 -1.0376  1.0334 -0.9427
 3210WAT    EPW13562   4.451   0.184   0.440  0.5972  0.3188 -0.3443
 3211WAT      O13563   7.108   3.176   6.284 -0.6632 -0.2079  0.7317
 3211WAT     H113564   7.155   3.107   6.260 -0.4513  0.0471  0.3927
 3211WAT     H213565   7.122   3.182   6.370  0.0580 -0.0417  0.6137
 3211WAT    EPW13566   7.117   3.167   6.293 -0.5254 -0.1457  0.6642
 3212WAT      O13567   5.692   5.268   2.389  0.4100 -0.3732 -0.0724
 3212WAT     H113568   5.611   5.299   2.396  1.0928  1.1430  2.0626
 3212WAT     H213569   5.724   5.311   2.320  0.4774  1.8095  1.2272
 3212WAT    EPW13570   5.685   5.279   2.379  0.5208  0.1732  0.4350
 3213WAT      O13571   5.834   3.111   4.970  0.5176 -0.5988 -0.7959
 3213WAT     H113572   5.865   3.080   4.894  1.2040  1.7382 -1.5504
 3213WAT     H213573   5.876   3.064   5.030  0.6390 -1.8813 -1.8430
 3213WAT    EPW13574   5.845   3.100   4.967  0.6369 -0.4430 -1.0620
 3214WAT      O13575   6.338   2.597   5.113  0.5854 -0.4970  0.6881
 3214WAT     H113576   6.274   2.544   5.087 -0.0050  0.2156  0.6822
 3214WAT     H213577   6.338   2.589   5.200 -0.3059  0.4072  0.7775
 3214WAT    EPW13578   6.329   2.588   5.122  0.3665 -0.2582  0.7004
 3215WAT      O13579   5.422   2.591   0.774  0.7352 -0.5312 -0.3503
 3215WAT     H113580   5.488   2.536   0.786  0.6430 -0.8198 -1.1417
 3215WAT     H213581   5.461   2.665   0.750  1.0779  0.6338  3.2496
 3215WAT    EPW13582   5.437   2.594   0.772  0.7722 -0.4018  0.0646
 3216WAT      O13583   7.305   0.945   5.641  0.2207 -0.5707 -0.1378
 3216WAT     H113584   7.359   0.885   5.608  0.0929  0.3518 -2.2291
 3216WAT     H213585   7.358   0.999   5.684  0.6101 -1.1123  0.0634
 3216WAT    EPW13586   7.321   0.944   5.642  0.2594 -0.5144 -0.4170
 3217WAT      O13587   3.244   6.838   2.043 -0.0728  0.3008  0.1459
 3217WAT     H113588   3.210   6.910   2.080  2.5550  1.0556  1.3388
 3217WAT     H213589   3.202   6.832   1.967 -1.0014  2.6033  0.3900
 3217WAT    EPW13590   3.233   6.848   2.038  0.1782  0.7524  0.3582
 3218WAT      O13591   7.377   4.188   6.082  0.2412 -0.6043  0.1766
 3218WAT     H113592   7.420   4.257   6.111 -0.1956  0.2532 -1.1025
 3218WAT     H213593   7.412   4.173   6.003  1.1090 -2.5761  0.8725
 3218WAT    EPW13594   7.388   4.196   6.074  0.3048 -0.7689  0.0905
 3219WAT      O13595   4.016   2.960   1.521 -0.5095  0.3602 -0.1434
 3219WAT     H113596   4.089   2.952   1.568  0.0141  1.2148 -0.7749
 3219WAT     H213597   3.969   3.020   1.564 -0.6417  0.1384  0.0223
 3219WAT    EPW13598   4.020   2.968   1.534 -0.4517  0.4537 -0.2122
 3220WAT      O13599   4.012   1.590   2.997 -0.0877  0.3587  0.6760
 3220WAT     H113600   3.971   1.654   2.954 -1.0618 -0.3078  0.5574
 3220WAT     H213601   4.061   1.553   2.936 -0.3910  0.2939  0.4675
 3220WAT    EPW13602   4.013   1.594   2.982 -0.2764  0.2506  0.6277
 3221WAT      O13603   0.126   1.838   4.833  0.1093 -0.4662  0.2174
 3221WAT     H113604   0.122   1.925   4.833  2.4691 -0.2887 -0.7637
 3221WAT     H213605   0.089   1.816   4.757  3.1986  0.0454 -1.5727
 3221WAT    EPW13606   0.120   1.848   4.821  0.9142 -0.3644 -0.1920
 3222WAT      O13607   1.504   0.101   6.059  0.0685  0.2035  0.1365
 3222WAT     H113608   1.554   0.070   6.124  0.8023  0.0289 -0.4893
 3222WAT     H213609   1.448   0.036   6.044 -0.8537  0.6833  1.3295
 3222WAT    EPW13610   1.503   0.087   6.067  0.0407  0.2486  0.2203
 3223WAT      O13611   5.103   1.764   1.598  0.0129  0.5174  0.2346
 3223WAT     H113612   5.146   1.711   1.653  0.5060  1.1969  0.5044
 3223WAT     H213613   5.124   1.844   1.626 -0.2026  0.8619 -0.5835
 3223WAT    EPW13614   5.113   1.768   1.610  0.0539  0.6687  0.1536
 3224WAT      O13615   1.061   5.769   5.502  0.1560  0.2054 -0.2380
 3224WAT     H113616   1.026   5.801   5.575 -0.6112  1.1066 -0.9788
 3224WAT     H213617   1.056   5.683   5.514 -0.1698  0.3341  0.6645
 3224WAT    EPW13618   1.055   5.761   5.515 -0.0055  0.3575 -0.2141
 3225WAT      O13619   3.659   0.915   1.040 -0.2175  0.2299 -0.2282
 3225WAT     H113620   3.613   0.878   1.104 -1.7605  0.5208 -1.1193
 3225WAT     H213621   3.718   0.854   1.019 -1.3097 -0.8729 -0.2159
 3225WAT    EPW13622   3.661   0.901   1.046 -0.6068  0.1100 -0.3580
 3226WAT      O13623   3.692   5.668   0.663 -0.3644  0.5349 -0.0470
 3226WAT     H113624   3.737   5.723   0.612 -1.1584  1.6243  0.3634
 3226WAT     H213625   3.716   5.589   0.636 -0.3907  1.0809 -1.7652
 3226WAT    EPW13626   3.702   5.665   0.651 -0.4855  0.7765 -0.2402
 3227WAT      O13627   4.449   2.392   1.546 -0.0970  0.9049 -0.4428
 3227WAT     H113628   4.471   2.455   1.602  1.6852 -0.1230  0.0727
 3227WAT     H213629   4.523   2.348   1.533 -1.4725 -1.9401  0.3125
 3227WAT    EPW13630   4.463   2.395   1.553 -0.0369  0.3328 -0.2551
 3228WAT      O13631   2.202   5.722   1.233  0.6340 -0.6860 -0.1458
 3228WAT     H113632   2.212   5.803   1.202  2.0374 -0.2187  1.3753
 3228WAT     H213633   2.220   5.671   1.165  0.7679  0.2809 -0.8524
 3228WAT    EPW13634   2.206   5.726   1.218  0.8611 -0.4741 -0.0255
 3229WAT      O13635   3.864   1.690   6.976 -0.0100  0.2020  0.2139
 3229WAT     H113636   3.905   1.694   6.899 -1.0953  1.3784 -0.3371
 3229WAT     H213637   3.801   1.631   6.962  0.6604 -0.6578  0.6743
 3229WAT    EPW13638   3.861   1.682   6.962 -0.0713  0.2488  0.2005
 3230WAT      O13639   5.659   3.338   0.357  0.2208  0.2164  0.0223
 3230WAT     H113640   5.696   3.309   0.283  1.1833 -1.4366  1.0648
 3230WAT     H213641   5.714   3.400   0.384 -0.1031  0.7854 -0.6170
 3230WAT    EPW13642   5.673   3.343   0.350  0.3151  0.0563  0.0819
 3231WAT      O13643   4.514   2.543   2.655  0.0586 -0.1413  0.6460
 3231WAT     H113644   4.460   2.578   2.715  1.0258 -0.7209  1.9119
 3231WAT     H213645   4.523   2.460   2.681 -0.7768 -0.8976 -1.2821
 3231WAT    EPW13646   4.507   2.536   2.668  0.0780 -0.3387  0.5482
 3232WAT      O13647   2.865   3.593   0.847 -0.5215  0.3011 -0.3626
 3232WAT     H113648   2.854   3.531   0.906 -1.2669  1.1725  0.4496
 3232WAT     H213649   2.791   3.592   0.801 -1.0793  1.3736  0.4523
 3232WAT    EPW13650   2.853   3.584   0.849 -0.7140  0.5882 -0.1222
 3233WAT      O13651   5.784   3.534   7.042 -0.2459  0.1921  0.3945
 3233WAT     H113652   5.798   3.499   7.120 -1.0172 -0.7768  0.1187
 3233WAT     H213653   5.772   3.619   7.059  1.0759  0.2526  1.1395
 3233WAT    EPW13654   5.784   3.541   7.056 -0.1645  0.0579  0.4638
 3234WAT      O13655   5.773   3.999   0.594  0.2724  0.2851 -0.3517
 3234WAT     H113656   5.708   4.007   0.537 -0.1811 -1.4244 -0.1284
 3234WAT     H213657   5.745   3.936   0.648  2.2034 -0.7135 -0.4256
 3234WAT    EPW13658   5.759   3.991   0.594  0.4907 -0.1149 -0.3296
 3235WAT      O13659   6.190   7.504   5.270 -0.8586 -0.3662  0.3499
 3235WAT     H113660   6.163   7.582   5.243 -0.6932 -0.4552 -0.0880
 3235WAT     H213661   6.119   7.454   5.263 -1.0753 -0.1597  1.0377
 3235WAT    EPW13662   6.176   7.508   5.265 -0.8662 -0.3488  0.3868
 3236WAT      O13663   4.411   2.645   5.952  0.1422 -0.7864  0.3187
 3236WAT     H113664   4.471   2.666   6.012  1.2786 -0.5790 -0.8386
 3236WAT     H213665   4.360   2.716   5.949  0.2617 -0.6719  0.8124
 3236WAT    EPW13666   4.413   2.659   5.961  0.3277 -0.7388  0.2207
 3237WAT      O13667   5.178   0.509   3.556  0.0586 -0.1450 -0.6972
 3237WAT     H113668   5.114   0.472   3.508  0.9481 -1.1170 -1.1876
 3237WAT     H213669   5.250   0.494   3.509  0.5561  1.7923 -0.6418
 3237WAT    EPW13670   5.179   0.501   3.542  0.2635 -0.0024 -0.7615
 3238WAT      O13671   4.455   0.306   4.195  0.0933 -0.8191  0.3763
 3238WAT     H113672   4.386   0.263   4.228 -1.7502 -0.2308 -2.3896
 3238WAT     H213673   4.455   0.381   4.239 -0.4908 -1.1538  0.9768
 3238WAT    EPW13674   4.445   0.311   4.207 -0.2653 -0.7816  0.0565
 3239WAT      O13675   4.015   6.718   1.190  0.0336  0.1597 -0.1430
 3239WAT     H113676   4.058   6.643   1.197 -0.3942 -0.0817 -0.0650
 3239WAT     H213677   3.936   6.700   1.224 -0.2610  0.4796 -0.6437
 3239WAT    EPW13678   4.009   6.704   1.196 -0.0731  0.1713 -0.2054
 3240WAT      O13679   3.952   7.524   7.612 -0.4765  0.8432 -0.8042
 3240WAT     H113680   3.992   7.519   7.534 -0.3286 -0.4585 -0.6747
 3240WAT     H213681   3.868   7.539   7.591 -0.5394 -0.0648 -1.2663
 3240WAT    EPW13682   3.945   7.525   7.597 -0.4640  0.5168 -0.8533
 3241WAT      O13683   5.100   1.220   7.200 -0.0610 -0.2167 -0.1450
 3241WAT     H113684   5.103   1.185   7.279  0.0487 -1.0950 -0.5309
 3241WAT     H213685   5.023   1.193   7.168  0.3242 -0.6634 -0.7012
 3241WAT    EPW13686   5.089   1.211   7.207  0.0121 -0.4124 -0.2842
 3242WAT      O13687   2.406   7.593   7.157 -0.5998  0.6508  0.0387
 3242WAT     H113688   2.441   7.631   7.227  1.5287  0.3118 -0.7608
 3242WAT     H213689   2.392   7.660   7.103 -0.2300  0.6899 -0.0122
 3242WAT    EPW13690   2.409   7.609   7.159 -0.2308  0.6065 -0.0869
 3243WAT      O13691   5.344   1.755   2.491 -0.6575 -0.2119 -0.3109
 3243WAT     H113692   5.360   1.839   2.472 -1.5739 -0.1614 -0.8925
 3243WAT     H213693   5.348   1.715   2.414  0.7478 -0.8924  0.0750
 3243WAT    EPW13694   5.347   1.762   2.477 -0.5853 -0.3050 -0.3398
 3244WAT      O13695   3.912   2.676   6.807 -0.1148 -0.5112  0.1021
 3244WAT     H113696   3.921   2.746   6.858 -1.1679 -0.7457  0.6337
 3244WAT     H213697   3.987   2.632   6.820  0.1350  0.0268  0.5186
 3244WAT    EPW13698   3.925   2.680   6.817 -0.2334 -0.4664  0.2421
 3245WAT      O13699   7.650   7.402   6.615  0.2122  0.3226 -0.0321
 3245WAT     H113700   7.704   7.336   6.596 -1.8894 -0.9178 -2.4129
 3245WAT     H213701   7.608   7.374   6.686 -1.0232 -1.2616 -1.3114
 3245WAT    EPW13702   7.652   7.388   6.623 -0.2808 -0.0947 -0.5728
 3246WAT      O13703   6.342   6.257   3.666 -0.4433 -0.2669 -0.4542
 3246WAT     H113704   6.273   6.244   3.717 -1.7498  1.2763 -1.7396
 3246WAT     H213705   6.321   6.217   3.592  0.0383  0.2224 -0.8655
 3246WAT    EPW13706   6.329   6.249   3.663 -0.5652  0.0333 -0.7048
 3247WAT      O13707   5.327   5.250   3.418  0.0725  0.0673 -0.4564
 3247WAT     H113708   5.349   5.208   3.344 -1.6637 -1.6046 -0.1005
 3247WAT     H213709   5.403   5.254   3.461  0.6623 -1.0778 -1.3162
 3247WAT    EPW13710   5.342   5.244   3.413 -0.0968 -0.3489 -0.5308
 3248WAT      O13711   5.257   6.421   6.571 -0.6106  0.1217 -0.0938
 3248WAT     H113712   5.180   6.461   6.570 -0.5220  0.2916 -0.2504
 3248WAT     H213713   5.237   6.337   6.564 -0.8051  0.1297  0.3920
 3248WAT    EPW13714   5.243   6.415   6.569 -0.6262  0.1480 -0.0452
 3249WAT      O13715   5.398   7.538   6.192  0.5597 -1.1088  0.1397
 3249WAT     H113716   5.319   7.550   6.157  2.2341  2.1292 -3.1946
 3249WAT     H213717   5.402   7.599   6.254  0.3874 -1.4452  0.4863
 3249WAT    EPW13718   5.387   7.549   6.196  0.7816 -0.6802 -0.3017
 3250WAT      O13719   4.606   3.025   7.339 -0.2992 -0.0772 -0.3112
 3250WAT     H113720   4.555   3.063   7.280  0.8476  0.6154 -0.8891
 3250WAT     H213721   4.652   3.091   7.373 -2.1082 -0.1676  2.6425
 3250WAT    EPW13722   4.605   3.041   7.335 -0.3970  0.0117  0.0397
 3251WAT      O13723   5.080   7.427   1.901  0.1359 -0.2466 -0.7509
 3251WAT     H113724   5.048   7.502   1.933 -0.6361 -1.2143  0.8812
 3251WAT     H213725   5.166   7.438   1.904  0.0734 -0.0130  1.0481
 3251WAT    EPW13726   5.088   7.440   1.906  0.0126 -0.3550 -0.2440
 3252WAT      O13727   2.713   0.468   3.295  0.1667  0.0044  0.6214
 3252WAT     H113728   2.759   0.534   3.329  2.2535 -0.5920 -0.8263
 3252WAT     H213729   2.631   0.483   3.322  0.4967  3.2892  0.1767
 3252WAT    EPW13730   2.708   0.480   3.304  0.5237  0.4015  0.3418
 3253WAT      O13731   1.713   4.497   2.102  0.5027  0.0775  0.2721
 3253WAT     H113732   1.697   4.430   2.155 -0.5321  1.4413  1.8190
 3253WAT     H213733   1.775   4.542   2.145 -0.4096  1.2542  0.3992
 3253WAT    EPW13734   1.720   4.494   2.116  0.2151  0.4528  0.5194
 3254WAT      O13735   0.658   3.819   6.489 -0.3640 -0.2148  0.2659
 3254WAT     H113736   0.708   3.890   6.501 -1.2709  0.2698  1.2503
 3254WAT     H213737   0.583   3.852   6.459 -0.1435 -0.9374 -1.1710
 3254WAT    EPW13738   0.655   3.835   6.486 -0.4654 -0.2500  0.1990
 3255WAT      O13739   4.255   4.160   1.325 -0.4564 -0.2450  0.6153
 3255WAT     H113740   4.329   4.118   1.345 -0.2048  0.1426  0.5035
 3255WAT     H213741   4.195   4.096   1.323 -0.3456 -0.4035  1.8283
 3255WAT    EPW13742   4.257   4.144   1.327 -0.4028 -0.2112  0.7780
 3256WAT      O13743   5.860   4.895   5.967 -1.0233 -0.5197 -0.0886
 3256WAT     H113744   5.869   4.833   6.028 -2.2679  0.3008  0.9869
 3256WAT     H213745   5.863   4.970   6.013 -1.0515  0.1567 -1.1512
 3256WAT    EPW13746   5.862   4.897   5.983 -1.2113 -0.2986 -0.0867
 3257WAT      O13747   6.952   1.495   7.811  0.1953  0.6518 -0.7715
 3257WAT     H113748   7.017   1.463   7.763  0.7524  1.0889 -0.3289
 3257WAT     H213749   6.951   1.444   7.882 -0.4237  0.2001 -1.0938
 3257WAT    EPW13750   6.961   1.483   7.814  0.1861  0.6497 -0.7537
 3258WAT      O13751   5.838   0.215   1.801  0.2067  0.2102 -0.2545
 3258WAT     H113752   5.797   0.139   1.788 -0.0153  0.5005 -1.3120
 3258WAT     H213753   5.790   0.273   1.757  1.9465  0.4890 -1.9222
 3258WAT    EPW13754   5.825   0.212   1.793  0.4309  0.2942 -0.6571
 3259WAT      O13755   4.510   1.402   3.581 -0.4507  0.0626  0.0298
 3259WAT     H113756   4.429   1.403   3.548 -0.0051 -0.9584 -1.1816
 3259WAT     H213757   4.502   1.445   3.656 -1.8688  1.0198 -0.6208
 3259WAT    EPW13758   4.497   1.408   3.587 -0.5943  0.0532 -0.2452
 3260WAT      O13759   5.508   2.561   7.744 -0.7674  0.1012 -0.0578
 3260WAT     H113760   5.489   2.476   7.745 -1.0975  0.1224 -1.4920
 3260WAT     H213761   5.594   2.563   7.761 -0.8800 -0.4561  0.6374
 3260WAT    EPW13762   5.518   2.549   7.746 -0.8328  0.0220 -0.1670
 3261WAT      O13763   4.627   2.314   2.175 -0.0854 -0.5784 -0.7415
 3261WAT     H113764   4.595   2.235   2.157 -0.8239 -1.0752  2.3381
 3261WAT     H213765   4.593   2.333   2.253  0.9737  2.3154 -0.8759
 3261WAT    EPW13766   4.617   2.305   2.184 -0.0380 -0.2243 -0.3064
 3262WAT      O13767   3.969   5.930   1.503 -0.3740  0.4555 -0.2976
 3262WAT     H113768   3.961   6.013   1.529 -1.6575  0.2236  0.1311
 3262WAT     H213769   3.905   5.889   1.546 -0.4356 -0.5598 -1.3088
 3262WAT    EPW13770   3.958   5.936   1.513 -0.5727  0.2713 -0.3837
 3263WAT      O13771   3.518   4.221   0.705  0.6302 -0.3071  0.1331
 3263WAT     H113772   3.506   4.301   0.737 -2.9593 -0.7934  0.4568
 3263WAT     H213773   3.563   4.235   0.632 -1.5458  2.3098 -0.8765
 3263WAT    EPW13774   3.523   4.235   0.699 -0.2215  0.0077  0.0318
 3264WAT      O13775   0.380   1.601   6.228  0.1475 -0.3072  0.1622
 3264WAT     H113776   0.296   1.577   6.226  0.1859 -0.3894 -0.4803
 3264WAT     H213777   0.411   1.576   6.151  0.2468  1.6387 -0.4802
 3264WAT    EPW13778   0.372   1.594   6.217  0.1679 -0.0319 -0.0276
 3265WAT      O13779   1.502   0.827   5.207 -0.0345 -0.1958  0.0117
 3265WAT     H113780   1.517   0.876   5.137 -1.1031 -0.2572 -0.2818
 3265WAT     H213781   1.574   0.779   5.215  0.0326 -0.3077 -1.1339
 3265WAT    EPW13782   1.515   0.827   5.198 -0.1824 -0.2214 -0.2009
 3266WAT      O13783   2.433   2.980   5.657 -0.5008 -0.3778 -0.1185
 3266WAT     H113784   2.519   2.969   5.645 -0.5594 -0.9704 -0.0298
 3266WAT     H213785   2.414   3.046   5.604  0.0955  0.0821  0.2180
 3266WAT    EPW13786   2.443   2.988   5.647 -0.4214 -0.3974 -0.0557
 3267WAT      O13787   7.484   3.322   7.847 -0.3240 -0.2506 -0.5057
 3267WAT     H113788   7.406   3.285   7.837 -0.2429 -0.5540 -0.0313
 3267WAT     H213789   7.470   3.406   7.827 -0.4530 -0.5637 -1.8326
 3267WAT    EPW13790   7.470   3.329   7.843 -0.3311 -0.3417 -0.6316
 3268WAT      O13791   5.878   1.862   3.054 -0.4009  0.2049  0.3334
 3268WAT     H113792   5.847   1.804   3.111 -0.1299 -0.0997  0.1771
 3268WAT     H213793   5.868   1.938   3.095  1.4810 -0.1387  1.6181
 3268WAT    EPW13794   5.872   1.864   3.069 -0.0829  0.1092  0.5001
 3269WAT      O13795   5.659   7.378   6.789 -0.3850 -0.1150 -0.1618
 3269WAT     H113796   5.688   7.299   6.814 -0.2130 -0.2845 -0.8777
 3269WAT     H213797   5.711   7.433   6.833 -0.8266 -0.3861  0.7283
 3269WAT    EPW13798   5.671   7.374   6.800 -0.4248 -0.1801 -0.1361
 3270WAT      O13799   4.858   6.758   2.282  0.4652 -0.4583  0.0347
 3270WAT     H113800   4.845   6.831   2.328  1.8640  0.0093 -0.2573
 3270WAT     H213801   4.927   6.777   2.232  0.9209 -2.0057  0.0147
 3270WAT    EPW13802   4.867   6.772   2.281  0.7392 -0.6178 -0.0114
 3271WAT      O13803   4.696   6.087   0.937  0.2650  0.4239  0.2900
 3271WAT     H113804   4.708   6.060   1.019  0.9242 -1.3240 -0.3361
 3271WAT     H213805   4.698   6.013   0.890  0.6933  1.4417 -1.3956
 3271WAT    EPW13806   4.698   6.072   0.942  0.4257  0.3160 -0.0515
 3272WAT      O13807   3.725   2.515   7.138 -0.0611 -0.1952  0.0774
 3272WAT     H113808   3.702   2.513   7.222  0.0394 -0.4082  0.0984
 3272WAT     H213809   3.766   2.591   7.130 -0.7660  0.1976  0.0439
 3272WAT    EPW13810   3.727   2.526   7.149 -0.1504 -0.1687  0.0755
 3273WAT      O13811   1.106   6.841   7.706  0.1803 -0.8523  0.3516
 3273WAT     H113812   1.133   6.763   7.677  0.3636 -0.2463 -1.2157
 3273WAT     H213813   1.162   6.860   7.770 -0.1820 -2.2167  1.1113
 3273WAT    EPW13814   1.118   6.832   7.711  0.1538 -0.9643  0.2323
 3274WAT      O13815   6.515   2.411   5.448  0.5318  0.1621  0.7628
 3274WAT     H113816   6.507   2.347   5.389  1.4177  0.3840  0.3737
 3274WAT     H213817   6.473   2.478   5.412  2.1742  0.6888 -0.2531
 3274WAT    EPW13818   6.508   2.411   5.434  0.9053  0.2727  0.5552
 3275WAT      O13819   5.791   2.082   3.191 -0.0620  0.8009 -0.0664
 3275WAT     H113820   5.818   2.080   3.274 -1.6039  0.9711  0.4609
 3275WAT     H213821   5.811   2.163   3.165 -1.0473  1.2984  0.6756
 3275WAT    EPW13822   5.798   2.094   3.199 -0.4353  0.8996  0.1211
 3276WAT      O13823   5.915   6.647   6.370  0.0835  0.5694  0.3328
 3276WAT     H113824   5.967   6.581   6.346 -2.1864 -2.0613  2.0560
 3276WAT     H213825   5.890   6.682   6.293  1.2945 -0.6235 -0.6493
 3276WAT    EPW13826   5.919   6.642   6.355 -0.0729  0.0046  0.4423
 3277WAT      O13827   5.804   0.246   1.460  0.0067 -0.2364  0.3030
 3277WAT     H113828   5.875   0.251   1.511 -0.0418 -1.1935  0.5008
 3277WAT     H213829   5.770   0.168   1.482 -0.3984 -0.3549 -0.6994
 3277WAT    EPW13830   5.810   0.235   1.471 -0.0603 -0.3953  0.1841
 3278WAT      O13831   1.873   3.971   2.622  0.4667  0.3579  0.0265
 3278WAT     H113832   1.960   3.970   2.622  0.6937  3.8064  1.9671
 3278WAT     H213833   1.853   3.969   2.707 -1.1579  1.9152 -0.2627
 3278WAT    EPW13834   1.883   3.970   2.635  0.2602  1.0973  0.2705
 3279WAT      O13835   7.163   6.644   5.989 -0.2409 -0.2368  0.0952
 3279WAT     H113836   7.155   6.697   5.920 -1.1838 -1.9839 -1.2189
 3279WAT     H213837   7.090   6.659   6.035 -1.3993 -1.5820 -1.2062
 3279WAT    EPW13838   7.151   6.654   5.986 -0.5513 -0.6936 -0.2912
 3280WAT      O13839   6.063   0.473   2.740 -0.1963  0.2470  0.7810
 3280WAT     H113840   6.061   0.483   2.653 -1.4671 -0.0236  0.7641
 3280WAT     H213841   5.984   0.443   2.759 -0.2529  1.1625  2.1465
 3280WAT    EPW13842   6.051   0.470   2.730 -0.3924  0.3423  0.9802
 3281WAT      O13843   6.493   0.698   6.765 -0.3741  0.3630 -0.1388
 3281WAT     H113844   6.525   0.637   6.819  0.4111  1.1532  0.3282
 3281WAT     H213845   6.409   0.678   6.759 -0.4055  0.0495  1.1137
 3281WAT    EPW13846   6.486   0.686   6.772 -0.2628  0.4334  0.1152
 3282WAT      O13847   5.290   5.995   7.465  0.6768  0.0029 -0.2387
 3282WAT     H113848   5.347   5.991   7.530 -0.5782  0.5454  0.9385
 3282WAT     H213849   5.245   5.921   7.474  0.8561 -0.1864 -0.8534
 3282WAT    EPW13850   5.292   5.983   7.476  0.5179  0.0550 -0.1556
 3283WAT      O13851   4.316   0.917   1.971  0.1403 -0.1280 -0.4993
 3283WAT     H113852   4.387   0.886   1.931  1.5378  0.3375  1.4528
 3283WAT     H213853   4.276   0.963   1.909  3.2084  2.1814 -1.0320
 3283WAT    EPW13854   4.320   0.919   1.956  0.8000  0.2820 -0.2897
 3284WAT      O13855   4.555   6.997   0.103  0.4642  0.1569 -0.6263
 3284WAT     H113856   4.589   6.956   0.034 -0.8067  0.3885 -1.4160
 3284WAT     H213857   4.533   7.075   0.073  0.0480  0.3262  0.0832
 3284WAT    EPW13858   4.556   7.002   0.089  0.2150  0.2161 -0.6381
 3285WAT      O13859   6.315   2.362   0.236  0.1139 -0.4834 -0.5086
 3285WAT     H113860   6.299   2.438   0.196 -0.0979 -0.3571 -0.1853
 3285WAT     H213861   6.318   2.305   0.170  0.9621 -0.0955 -0.8202
 3285WAT    EPW13862   6.313   2.365   0.220  0.2079 -0.4075 -0.5068
 3286WAT      O13863   2.724   4.804   2.150  0.4507 -0.5393  0.3340
 3286WAT     H113864   2.688   4.861   2.094  2.7521  0.9770  0.2660
 3286WAT     H213865   2.700   4.835   2.228  0.8148 -0.0752  0.2674
 3286WAT    EPW13866   2.715   4.817   2.154  0.8445 -0.2467  0.3141
 3287WAT      O13867   4.152   3.432   7.039  0.5308  0.4011  0.2917
 3287WAT     H113868   4.221   3.447   7.091 -1.6253  1.1635  3.2091
 3287WAT     H213869   4.147   3.345   7.036  1.0779  0.3407  0.8466
 3287WAT    EPW13870   4.162   3.421   7.046  0.2931  0.5048  0.8046
 3288WAT      O13871   2.324   2.129   1.337  0.7411 -0.0666  0.0450
 3288WAT     H113872   2.298   2.045   1.333 -0.3167  0.1583  1.4211
 3288WAT     H213873   2.254   2.174   1.313  1.0911  0.4436 -0.0383
 3288WAT    EPW13874   2.310   2.123   1.333  0.6365  0.0420  0.2360
 3289WAT      O13875   3.628   7.364   0.411 -0.0942  0.4673 -0.2080
 3289WAT     H113876   3.638   7.328   0.490  0.0743  1.3169  0.1641
 3289WAT     H213877   3.685   7.321   0.362  2.4754  2.3280  0.9179
 3289WAT    EPW13878   3.638   7.352   0.416  0.3102  0.8677  0.0133
 3290WAT      O13879   4.891   0.436   0.844 -0.6615 -0.1464  0.1704
 3290WAT     H113880   4.817   0.398   0.819 -0.5083 -0.1846 -0.2277
 3290WAT     H213881   4.940   0.436   0.772  0.5294 -1.9909  0.9065
 3290WAT    EPW13882   4.887   0.430   0.830 -0.4630 -0.4245  0.2203
 3291WAT      O13883   5.408   4.598   3.616 -0.3990  0.2238 -0.1505
 3291WAT     H113884   5.460   4.645   3.564 -1.1563  0.0366 -1.1135
 3291WAT     H213885   5.440   4.611   3.696 -0.7479  2.5830 -0.3458
 3291WAT    EPW13886   5.421   4.607   3.620 -0.5624  0.5447 -0.3216
 3292WAT      O13887   3.026   4.840   0.558  0.8584 -0.4399  0.4619
 3292WAT     H113888   2.987   4.823   0.635  1.1160  0.2549  0.7534
 3292WAT     H213889   3.008   4.924   0.545 -4.6185 -1.7136 -3.3068
 3292WAT    EPW13890   3.017   4.850   0.568  0.0874 -0.5254 -0.0517
 3293WAT      O13891   4.864   6.148   5.228 -0.4563 -0.5064  0.2358
 3293WAT     H113892   4.914   6.183   5.290  0.3805 -2.4491  0.7305
 3293WAT     H213893   4.920   6.136   5.162 -0.9939  0.1320 -0.3445
 3293WAT    EPW13894   4.880   6.151   5.227 -0.4121 -0.6990  0.2231
 3294WAT      O13895   1.741   7.421   2.544 -0.5924 -0.2677 -0.7532
 3294WAT     H113896   1.719   7.480   2.484  2.4950  1.3258 -0.5353
 3294WAT     H213897   1.732   7.345   2.503  3.3882  0.7854 -4.2760
 3294WAT    EPW13898   1.737   7.419   2.529  0.4517  0.1233 -1.2414
 3295WAT      O13899   4.841   1.343   6.011 -0.1979  0.4362 -0.0375
 3295WAT     H113900   4.772   1.395   5.999 -0.2899  0.3256  0.0096
 3295WAT     H213901   4.868   1.325   5.930 -2.2530 -2.2431 -0.2727
 3295WAT    EPW13902   4.835   1.348   5.998 -0.5150  0.0241 -0.0653
 3296WAT      O13903   2.480   7.282   1.206 -0.8800 -0.6152  0.4742
 3296WAT     H113904   2.446   7.319   1.277  1.3665  0.0045  1.3062
 3296WAT     H213905   2.490   7.199   1.229 -1.1940 -0.6560  0.4674
 3296WAT    EPW13906   2.476   7.275   1.220 -0.5945 -0.5297  0.5961
 3297WAT      O13907   4.884   6.998   2.445  0.1720 -0.4764 -0.4102
 3297WAT     H113908   4.808   7.031   2.474  0.2374  0.5548 -1.3404
 3297WAT     H213909   4.937   7.003   2.514 -0.3553 -0.3780 -0.0089
 3297WAT    EPW13910   4.881   7.004   2.459  0.1038 -0.3095 -0.4883
 3298WAT      O13911   5.634   1.992   2.784 -0.5909 -0.0344  0.0700
 3298WAT     H113912   5.581   1.937   2.827  0.0885  0.7461  2.0597
 3298WAT     H213913   5.628   2.065   2.831  1.2631  0.4549 -0.3887
 3298WAT    EPW13914   5.625   1.995   2.798 -0.2166  0.1532  0.2962
 3299WAT      O13915   6.906   0.794   6.282 -0.0104  0.0641 -0.2728
 3299WAT     H113916   6.866   0.867   6.256  2.2125  0.5258 -2.8004
 3299WAT     H213917   6.976   0.789   6.231  1.7736 -2.0917  2.0966
 3299WAT    EPW13918   6.910   0.804   6.271  0.5815 -0.1861 -0.2961
 3300WAT      O13919   6.957   4.526   6.578 -0.1920 -0.4775  0.3498
 3300WAT     H113920   6.911   4.598   6.594  1.9170  0.9765  0.2637
 3300WAT     H213921   6.943   4.511   6.493  0.6781  0.8532 -0.0506
 3300WAT    EPW13922   6.948   4.534   6.568  0.2481 -0.0661  0.2779
 3301WAT      O13923   3.449   4.531   2.354 -0.1841 -0.0150  0.2564
 3301WAT     H113924   3.475   4.578   2.422  0.3123  0.1069 -0.0126
 3301WAT     H213925   3.365   4.515   2.370 -0.1294  0.2231  0.7725
 3301WAT    EPW13926   3.440   4.536   2.366 -0.1027  0.0382  0.2929
 3302WAT      O13927   5.111   0.488   1.040  0.2135 -0.5424  0.0675
 3302WAT     H113928   5.108   0.575   1.034 -1.4711 -0.4640  1.3301
 3302WAT     H213929   5.064   0.461   0.972  2.1440 -0.5888 -1.3378
 3302WAT    EPW13930   5.104   0.497   1.029  0.2498 -0.5377  0.0464
 3303WAT      O13931   4.736   7.488   4.849 -0.4794 -0.0144  0.6916
 3303WAT     H113932   4.663   7.493   4.801 -0.0100  3.7616  0.1101
 3303WAT     H213933   4.708   7.455   4.925 -2.5799  0.2850  0.1175
 3303WAT    EPW13934   4.721   7.484   4.853 -0.7204  0.5876  0.5209
 3304WAT      O13935   5.321   1.490   0.331 -0.2467  0.3310  0.1047
 3304WAT     H113936   5.308   1.576   0.344 -1.4863  0.0641  0.7997
 3304WAT     H213937   5.350   1.486   0.249  1.2494  1.5270  0.5240
 3304WAT    EPW13938   5.323   1.502   0.321 -0.2088  0.4682  0.2693
 3305WAT      O13939   0.411   3.272   5.677 -0.2663  0.1119  0.0496
 3305WAT     H113940   0.474   3.233   5.724  0.1005 -0.4910 -0.9137
 3305WAT     H213941   0.355   3.299   5.738 -0.4050 -1.7024  0.7971
 3305WAT    EPW13942   0.412   3.270   5.693 -0.2326 -0.2452  0.0177
 3306WAT      O13943   7.616   5.414   7.202  0.5124 -0.1646  0.1956
 3306WAT     H113944   7.654   5.364   7.262  0.3773 -0.5771 -0.0606
 3306WAT     H213945   7.626   5.495   7.234  0.4548 -0.3737  0.7645
 3306WAT    EPW13946   7.623   5.419   7.216  0.4840 -0.2564  0.2418
 3307WAT      O13947   5.318   0.537   1.278  0.2032  0.4139  0.3957
 3307WAT     H113948   5.260   0.552   1.214 -1.1216  0.8612  1.6349
 3307WAT     H213949   5.391   0.575   1.251  0.2960 -1.0975 -1.7299
 3307WAT    EPW13950   5.320   0.545   1.265  0.0212  0.2567  0.2648
 3308WAT      O13951   4.390   4.617   5.910 -0.2389  0.2839 -0.6756
 3308WAT     H113952   4.472   4.588   5.913  0.0042  1.0094 -0.0920
 3308WAT     H213953   4.344   4.556   5.953  0.2706  0.7485  0.5760
 3308WAT    EPW13954   4.395   4.604   5.917 -0.1277  0.4597 -0.4045
 3309WAT      O13955   5.182   0.139   1.872 -0.9481 -0.1028  0.0457
 3309WAT     H113956   5.163   0.224   1.878 -2.0206 -0.2179 -1.1322
 3309WAT     H213957   5.269   0.138   1.864 -0.7800  0.7678  1.4717
 3309WAT    EPW13958   5.192   0.151   1.872 -1.0817  0.0088  0.0824
 3310WAT      O13959   0.584   5.685   6.252 -0.5329  0.2338 -0.6147
 3310WAT     H113960   0.561   5.605   6.226  1.3053  0.0105 -1.7438
 3310WAT     H213961   0.671   5.684   6.246 -0.4370  2.1218 -0.0489
 3310WAT    EPW13962   0.593   5.673   6.247 -0.2472  0.4798 -0.6979
 3311WAT      O13963   3.830   0.414   1.950  0.4064  0.0610 -0.0255
 3311WAT     H113964   3.749   0.432   1.978  0.5435  0.7153 -0.0325
 3311WAT     H213965   3.881   0.462   2.003  0.6248  2.4539 -2.2279
 3311WAT    EPW13966   3.826   0.423   1.962  0.4589  0.5112 -0.3518
 3312WAT      O13967   6.477   3.019   5.746 -0.2700  0.0175 -0.4411
 3312WAT     H113968   6.403   2.984   5.715 -0.7292  0.5516  0.0257
 3312WAT     H213969   6.530   3.019   5.677 -1.5091  1.8592 -1.4738
 3312WAT    EPW13970   6.474   3.014   5.731 -0.5209  0.3685 -0.5247
 3313WAT      O13971   7.687   1.590   4.412 -0.2592 -0.1949 -0.0245
 3313WAT     H113972   7.665   1.508   4.391 -0.5284 -0.2139  0.3246
 3313WAT     H213973   7.681   1.632   4.335 -0.7165 -0.3778 -0.0929
 3313WAT    EPW13974   7.683   1.584   4.397 -0.3666 -0.2247  0.0170
 3314WAT      O13975   1.226   2.275   5.869 -0.0589  0.2345 -0.1547
 3314WAT     H113976   1.249   2.359   5.867 -0.1673  0.2537 -0.7749
 3314WAT     H213977   1.198   2.264   5.951  0.7463  0.5838  0.1871
 3314WAT    EPW13978   1.226   2.286   5.881  0.0440  0.2889 -0.1959
 3315WAT      O13979   5.087   6.824   0.177  0.1871  0.7903 -0.1663
 3315WAT     H113980   5.051   6.747   0.156  0.2787  0.7186 -0.0649
 3315WAT     H213981   5.140   6.804   0.244  0.9230  0.7630 -0.7406
 3315WAT    EPW13982   5.089   6.809   0.184  0.3093  0.7757 -0.2362
 3316WAT      O13983   5.821   5.385   4.844  0.0910  0.1212 -0.0164
 3316WAT     H113984   5.845   5.320   4.897 -0.7125 -0.2754 -0.1308
 3316WAT     H213985   5.749   5.417   4.882 -0.2071  0.1572 -0.6049
 3316WAT    EPW13986   5.814   5.380   4.857 -0.0718  0.0679 -0.1202
 3317WAT      O13987   6.770   5.331   7.831  0.1758 -0.2822 -0.4495
 3317WAT     H113988   6.746   5.378   7.900  0.2873  0.2362 -0.7635
 3317WAT     H213989   6.765   5.387   7.764  1.3317 -0.4064 -0.6673
 3317WAT    EPW13990   6.766   5.346   7.831  0.3630 -0.2240 -0.5280
 3318WAT      O13991   5.524   0.921   6.607 -0.0530 -0.4700  0.2574
 3318WAT     H113992   5.533   0.920   6.694  1.4038  0.3895  0.1614
 3318WAT     H213993   5.476   0.993   6.593 -0.3364 -0.6399  0.3579
 3318WAT    EPW13994   5.518   0.932   6.618  0.1204 -0.3682  0.2581
 3319WAT      O13995   1.984   7.592   0.977 -0.1275  0.1618 -0.5857
 3319WAT     H113996   1.941   7.644   1.032 -0.4949  2.4285 -2.8568
 3319WAT     H213997   2.055   7.638   0.956 -0.7804  0.1523 -3.1759
 3319WAT    EPW13998   1.988   7.607   0.982 -0.2782  0.4953 -1.3038
 3320WAT      O13999   4.759   0.132   0.603 -0.3348  0.0971 -0.0917
 3320WAT     H114000   4.809   0.140   0.674  0.1591  0.1180 -0.4312
 3320WAT     H214001   4.686   0.095   0.632  1.1620 -3.2363 -0.0803
 3320WAT    EPW14002   4.756   0.128   0.617 -0.0407 -0.3922 -0.1402
 3321WAT      O14003   3.426   5.748   1.019  0.1147  0.3469 -0.0109
 3321WAT     H114004   3.446   5.710   1.095 -0.9748  1.3086  0.7940
 3321WAT     H214005   3.343   5.725   1.005 -0.3040  1.6845  0.0704
 3321WAT    EPW14006   3.417   5.739   1.028 -0.1081  0.6866  0.1200
 3322WAT      O14007   3.073   6.873   7.352  0.0149 -0.0223 -0.3450
 3322WAT     H114008   3.154   6.848   7.370 -0.7025 -2.3952 -0.0558
 3322WAT     H214009   3.074   6.959   7.366  2.5589  0.0849 -0.7919
 3322WAT    EPW14010   3.085   6.882   7.357  0.2847 -0.3570 -0.3683
 3323WAT      O14011   1.803   5.426   2.986  0.6777 -0.1049  0.7491
 3323WAT     H114012   1.868   5.403   3.041 -0.5777 -1.4484  1.7439
 3323WAT     H214013   1.837   5.409   2.907  2.0503  0.6102  1.1499
 3323WAT    EPW14014   1.818   5.420   2.982  0.6950 -0.1978  0.9553
 3324WAT      O14015   2.197   1.105   6.163 -0.1076 -0.3058 -0.0061
 3324WAT     H114016   2.176   1.021   6.153  0.6659 -0.4760 -0.3176
 3324WAT     H214017   2.254   1.104   6.229 -0.6029  0.0592  0.4300
 3324WAT    EPW14018   2.202   1.093   6.171 -0.0665 -0.2770  0.0123
 3325WAT      O14019   6.930   5.355   5.045 -0.1177  0.3007  0.0511
 3325WAT     H114020   6.943   5.415   5.107  1.9819  1.5685 -1.5023
 3325WAT     H214021   6.955   5.281   5.083  1.1595  1.0591  0.7595
 3325WAT    EPW14022   6.936   5.353   5.060  0.3811  0.6000 -0.0737
 3326WAT      O14023   1.453   3.253   6.534  0.0409  0.5108  0.1649
 3326WAT     H114024   1.500   3.324   6.516  2.0820 -0.8801 -0.3880
 3326WAT     H214025   1.436   3.260   6.619  0.6695  1.4067  0.2321
 3326WAT    EPW14026   1.457   3.264   6.544  0.4352  0.4377  0.0932
 3327WAT      O14027   4.912   4.512   4.329  0.1282 -0.0577 -0.4783
 3327WAT     H114028   4.993   4.505   4.299 -0.0381  1.0732 -1.2151
 3327WAT     H214029   4.881   4.584   4.292 -1.0349 -0.1543  0.2287
 3327WAT    EPW14030   4.919   4.522   4.319 -0.0682  0.0951 -0.4827
 3328WAT      O14031   5.218   7.108   2.808 -0.3889  0.1025 -0.1639
 3328WAT     H114032   5.224   7.069   2.886  1.7626  0.3992 -0.1316
 3328WAT     H214033   5.256   7.185   2.820 -1.5488  0.8500 -1.1049
 3328WAT    EPW14034   5.225   7.113   2.821 -0.2424  0.2568 -0.2981
 3329WAT      O14035   6.716   5.987   7.512 -0.4254  0.1221  0.3714
 3329WAT     H114036   6.709   6.073   7.522 -0.0116  0.7022 -3.0656
 3329WAT     H214037   6.633   5.960   7.504 -0.4800  0.6387 -1.0049
 3329WAT    EPW14038   6.703   5.996   7.512 -0.3723  0.2841 -0.3396
 3330WAT      O14039   1.447   4.096   6.180 -0.6540 -0.7975 -0.4754
 3330WAT     H114040   1.506   4.034   6.163 -1.7558 -1.6856 -1.2417
 3330WAT     H214041   1.476   4.132   6.254  0.9740 -1.0101 -0.9526
 3330WAT    EPW14042   1.460   4.092   6.188 -0.5763 -0.9601 -0.6591
 3331WAT      O14043   6.899   0.553   7.035  0.1475 -0.2743  0.4652
 3331WAT     H114044   6.892   0.548   7.122  0.3756  0.0983  0.5063
 3331WAT     H214045   6.907   0.639   7.020 -2.3280 -0.0708 -0.1139
 3331WAT    EPW14046   6.899   0.565   7.045 -0.1845 -0.1892  0.3857
 3332WAT      O14047   5.754   3.298   3.903  0.1106  0.1742 -0.5011
 3332WAT     H114048   5.771   3.216   3.929  1.9698  0.5415 -0.4197
 3332WAT     H214049   5.813   3.346   3.947 -0.4081  1.4566 -1.1592
 3332WAT    EPW14050   5.765   3.293   3.914  0.3086  0.4179 -0.5863
 3333WAT      O14051   7.117   0.789   6.486  0.0272 -0.5551 -0.3153
 3333WAT     H114052   7.083   0.773   6.565  0.8719 -0.7964  0.0198
 3333WAT     H214053   7.052   0.828   6.443 -0.5810 -0.7840  0.3675
 3333WAT    EPW14054   7.103   0.792   6.491  0.0622 -0.6246 -0.1649
 3334WAT      O14055   1.445   0.132   1.275 -0.7683 -0.3936 -0.1758
 3334WAT     H114056   1.468   0.214   1.297  1.5632 -0.2633 -2.5933
 3334WAT     H214057   1.472   0.085   1.344  0.0474  0.6462  0.2624
 3334WAT    EPW14058   1.453   0.137   1.288 -0.3034 -0.2208 -0.4682
 3335WAT      O14059   1.242   5.801   6.296  0.2153 -0.7587  0.2468
 3335WAT     H114060   1.300   5.866   6.296  1.0723 -1.4510  1.7453
 3335WAT     H214061   1.292   5.730   6.310 -0.5781 -1.8843 -2.1610
 3335WAT    EPW14062   1.258   5.800   6.298  0.2247 -1.0272  0.1125
 3336WAT      O14063   1.367   6.955   4.128 -0.1774 -0.4150  0.0762
 3336WAT     H114064   1.395   7.035   4.104 -1.5100 -0.6711 -2.7104
 3336WAT     H214065   1.281   6.959   4.114 -0.3108 -2.2363  0.2381
 3336WAT    EPW14066   1.359   6.968   4.122 -0.3939 -0.7219 -0.3115
 3337WAT      O14067   3.919   0.007   1.987  0.1858 -0.5019 -0.4666
 3337WAT     H114068   3.870   0.061   1.938  0.7709  0.2123 -0.2870
 3337WAT     H214069   3.956  -0.046   1.928 -0.4336 -0.7584 -0.6428
 3337WAT    EPW14070   3.917   0.007   1.971  0.1807 -0.4343 -0.4661
 3338WAT      O14071   6.865   1.994   4.967  0.4522  0.5206 -0.1284
 3338WAT     H114072   6.887   1.954   4.892  1.4353 -1.0634  0.9376
 3338WAT     H214073   6.805   2.053   4.942  1.7565  1.0394 -2.3555
 3338WAT    EPW14074   6.859   1.997   4.952  0.7901  0.3632 -0.3000
 3339WAT      O14075   2.334   4.623   6.749 -0.2223  0.3108 -0.9405
 3339WAT     H114076   2.333   4.536   6.754  1.2449  0.3173 -0.2487
 3339WAT     H214077   2.376   4.639   6.675  0.4206  0.4335 -0.5527
 3339WAT    EPW14078   2.340   4.613   6.739  0.0894  0.3299 -0.7810
 3340WAT      O14079   3.862   4.212   0.670  0.1158 -0.1970  0.7193
 3340WAT     H114080   3.935   4.179   0.636 -0.0233 -0.9252  1.1057
 3340WAT     H214081   3.801   4.154   0.648 -0.2665  0.1651  0.8044
 3340WAT    EPW14082   3.864   4.199   0.662  0.0388 -0.2511  0.7890
 3341WAT      O14083   2.667   0.497   1.245  0.2605 -0.1165 -0.3319
 3341WAT     H114084   2.600   0.538   1.284 -0.6950  0.1083 -2.1201
 3341WAT     H214085   2.737   0.527   1.288 -0.7349 -0.1961  1.4506
 3341WAT    EPW14086   2.667   0.507   1.257 -0.0277 -0.0951 -0.3327
 3342WAT      O14087   3.993   7.556   4.612 -0.4608 -0.0733 -0.3298
 3342WAT     H114088   3.998   7.604   4.540 -0.4902  0.6232  0.1257
 3342WAT     H214089   3.915   7.518   4.605 -2.1498  2.7983  1.0194
 3342WAT    EPW14090   3.982   7.557   4.600 -0.7146  0.4538 -0.0632
 3343WAT      O14091   2.132   0.641   0.523  0.3018 -0.2172  0.1610
 3343WAT     H114092   2.134   0.557   0.502 -0.8458 -0.0297 -0.8657
 3343WAT     H214093   2.077   0.675   0.463  0.3756  1.1627  0.8422
 3343WAT    EPW14094   2.124   0.634   0.511  0.1432  0.0143  0.1100
 3344WAT      O14095   3.034   7.217   2.667 -0.2776 -0.0028 -0.2776
 3344WAT     H114096   3.112   7.212   2.706 -0.6824  1.4411  0.8114
 3344WAT     H214097   3.043   7.285   2.613 -1.3621  1.5103  1.3639
 3344WAT    EPW14098   3.047   7.226   2.665 -0.4976  0.4340  0.1258
 3345WAT      O14099   5.858   6.438   5.189  0.0976  0.2792 -0.6024
 3345WAT     H114100   5.847   6.471   5.269 -0.3532  1.4727 -1.1353
 3345WAT     H214101   5.940   6.462   5.168  0.3977 -0.4576 -0.3275
 3345WAT    EPW14102   5.869   6.446   5.198  0.0753  0.3467 -0.6405
 3346WAT      O14103   5.883   1.521   6.463 -0.0086  0.3768  0.2547
 3346WAT     H114104   5.874   1.587   6.407 -0.1495 -0.7718 -1.1432
 3346WAT     H214105   5.946   1.549   6.517  0.9495  1.1145 -1.1629
 3346WAT    EPW14106   5.891   1.535   6.462  0.1121  0.3161 -0.1612
 3347WAT      O14107   6.543   0.516   0.035  0.5717  0.3841  0.7177
 3347WAT     H114108   6.625   0.525   0.064  1.2664  3.1678 -1.6293
 3347WAT     H214109   6.495   0.518   0.108  2.4973 -0.0995  2.0749
 3347WAT    EPW14110   6.548   0.518   0.050  0.9587  0.7239  0.5715
 3348WAT      O14111   6.131   6.363   1.777 -0.2181  0.4122  0.1224
 3348WAT     H114112   6.086   6.435   1.756 -0.1688  0.8615  1.4835
 3348WAT     H214113   6.104   6.345   1.858 -0.1280 -1.0350 -0.1466
 3348WAT    EPW14114   6.121   6.371   1.786 -0.1975  0.2648  0.2837
 3349WAT      O14115   6.586   1.094   5.195 -0.1522 -0.4423 -0.0765
 3349WAT     H114116   6.661   1.127   5.166  0.2150 -2.1731 -1.2933
 3349WAT     H214117   6.612   1.031   5.250 -0.6914 -1.0896 -0.5440
 3349WAT    EPW14118   6.601   1.089   5.199 -0.1776 -0.7936 -0.3253
 3350WAT      O14119   4.699   6.100   6.937 -0.4425  0.0159 -0.5740
 3350WAT     H114120   4.621   6.064   6.919 -0.5254 -0.9438  1.5251
 3350WAT     H214121   4.678   6.182   6.959 -1.0050 -0.4781  0.8367
 3350WAT    EPW14122   4.684   6.107   6.937 -0.5378 -0.1989 -0.0556
 3351WAT      O14123   0.011   6.258   5.367  0.0270 -0.2756 -0.0267
 3351WAT     H114124   0.050   6.256   5.289 -0.3846  0.8986 -0.2852
 3351WAT     H214125   0.010   6.174   5.392  0.5904 -0.6053 -1.0620
 3351WAT    EPW14126   0.017   6.245   5.359  0.0494 -0.1508 -0.2178
 3352WAT      O14127   6.538   7.009   4.464  0.6874  0.6965 -0.0886
 3352WAT     H114128   6.593   7.054   4.414  0.4786 -0.7873 -1.7932
 3352WAT     H214129   6.538   7.052   4.539  2.9692  1.6211 -0.5336
 3352WAT    EPW14130   6.546   7.022   4.467  0.9936  0.6139 -0.4061
 3353WAT      O14131   5.611   4.162   6.552 -0.2111 -0.2385 -0.2984
 3353WAT     H114132   5.637   4.079   6.554  0.0447 -0.1658 -0.5011
 3353WAT     H214133   5.528   4.159   6.578  0.1065 -0.4256  0.7357
 3353WAT    EPW14134   5.603   4.150   6.556 -0.1264 -0.2554 -0.1756
 3354WAT      O14135   4.230   1.566   6.068 -0.5680 -0.5244  0.5194
 3354WAT     H114136   4.151   1.554   6.104 -1.7336 -1.2273 -2.0536
 3354WAT     H214137   4.282   1.515   6.116 -1.5353  0.2299  2.5232
 3354WAT    EPW14138   4.226   1.557   6.081 -0.8831 -0.5168  0.4353
 3355WAT      O14139   3.446   6.663   0.930  0.4133 -0.0561 -0.3207
 3355WAT     H114140   3.507   6.656   0.991 -0.0780  1.2149  0.3719
 3355WAT     H214141   3.480   6.719   0.873  0.3862 -0.2975 -0.5770
 3355WAT    EPW14142   3.460   6.671   0.930  0.3367  0.0960 -0.2563
 3356WAT      O14143   4.189   5.889   0.443  0.5557 -0.0900  0.2021
 3356WAT     H114144   4.153   5.833   0.499 -1.0569  0.3673 -0.3172
 3356WAT     H214145   4.172   5.853   0.365 -0.8796  1.2848 -0.1596
 3356WAT    EPW14146   4.181   5.875   0.440  0.1055  0.1806  0.0719
 3357WAT      O14147   4.593   2.038   0.092  0.3964 -0.4395 -0.1447
 3357WAT     H114148   4.672   2.002   0.105  0.7514  0.1321 -0.6325
 3357WAT     H214149   4.543   1.971   0.068  0.2420 -1.1722  1.9350
 3357WAT    EPW14150   4.598   2.023   0.091  0.4261 -0.4633  0.0904
 3358WAT      O14151   6.775   7.398   6.954 -0.2608 -0.2452  0.9664
 3358WAT     H114152   6.752   7.422   7.035 -1.5502  1.0279  0.2533
 3358WAT     H214153   6.700   7.380   6.915  0.2954 -0.1904 -0.1707
 3358WAT    EPW14154   6.761   7.399   6.960 -0.3691 -0.0490  0.6931
 3359WAT      O14155   1.021   1.975   7.566 -0.5336  0.4529  0.5417
 3359WAT     H114156   1.040   2.039   7.622  0.1010 -0.9935  2.0634
 3359WAT     H214157   0.990   1.912   7.616  1.4458 -1.4799 -0.4796
 3359WAT    EPW14158   1.020   1.976   7.581 -0.1475 -0.0463  0.6156
 3360WAT      O14159   3.782   1.248   6.949  0.0324 -0.4049 -0.3097
 3360WAT     H114160   3.838   1.228   7.013  0.6707  0.6216 -0.5216
 3360WAT     H214161   3.815   1.206   6.879  0.6385  0.3083 -0.4656
 3360WAT    EPW14162   3.795   1.238   6.948  0.2162 -0.1479 -0.3640
 3361WAT      O14163   5.280   1.255   1.661  0.2479 -0.4689  0.3660
 3361WAT     H114164   5.337   1.206   1.616 -1.1452 -1.6139 -0.2072
 3361WAT     H214165   5.319   1.333   1.664  1.9106 -1.2322  0.1199
 3361WAT    EPW14166   5.294   1.259   1.655  0.2877 -0.7508  0.2450
 3362WAT      O14167   5.225   6.342   7.428  0.0883 -0.3239  0.2927
 3362WAT     H114168   5.169   6.276   7.430  0.7008 -1.0578 -2.5811
 3362WAT     H214169   5.182   6.405   7.385  0.1594  0.5556  1.4355
 3362WAT    EPW14170   5.211   6.342   7.422  0.1893 -0.3024  0.0370
 3363WAT      O14171   3.239   1.886   5.530 -0.2649  1.0096  0.0698
 3363WAT     H114172   3.276   1.856   5.457  0.8333  1.1295  0.5632
 3363WAT     H214173   3.155   1.865   5.520  0.3044 -1.5377  0.0175
 3363WAT    EPW14174   3.232   1.878   5.518 -0.0186  0.6510  0.1350
 3364WAT      O14175   4.247   0.805   4.302 -0.2951  0.2555  0.2346
 3364WAT     H114176   4.240   0.891   4.289  0.9416  0.0211 -2.5474
 3364WAT     H214177   4.170   0.774   4.275  0.2306  0.2973 -1.3978
 3364WAT    EPW14178   4.234   0.813   4.296 -0.0348  0.2270 -0.4175
 3365WAT      O14179   2.517   1.587   4.765 -0.1759  0.2313 -0.1451
 3365WAT     H114180   2.542   1.593   4.681  0.1958 -0.8674 -0.1361
 3365WAT     H214181   2.518   1.669   4.793 -3.0515  1.0798 -1.9810
 3365WAT    EPW14182   2.521   1.600   4.757 -0.5458  0.1944 -0.4150
 3366WAT      O14183   2.621   1.722   6.366  0.7241  0.5015 -0.1663
 3366WAT     H114184   2.658   1.799   6.381 -0.8314  1.5017 -1.1648
 3366WAT     H214185   2.670   1.687   6.304  1.5376  0.5935  0.4085
 3366WAT    EPW14186   2.633   1.728   6.359  0.6145  0.6628 -0.2289
 3367WAT      O14187   4.957   6.494   5.624 -0.3091  0.2088  0.5057
 3367WAT     H114188   4.981   6.558   5.570  0.2981 -0.4998 -0.0801
 3367WAT     H214189   4.890   6.529   5.668 -0.1353  1.1626  0.0390
 3367WAT    EPW14190   4.950   6.508   5.623 -0.1937  0.2450  0.3502
 3368WAT      O14191   6.831   2.558   6.924  0.2394  0.0721  0.0917
 3368WAT     H114192   6.889   2.624   6.919  0.3857 -0.1270 -1.6253
 3368WAT     H214193   6.812   2.542   6.840 -3.9706  1.5452  0.5769
 3368WAT    EPW14194   6.837   2.565   6.911 -0.3609  0.2603 -0.0903
 3369WAT      O14195   2.470   0.009   6.438 -0.0442 -0.0707 -0.4165
 3369WAT     H114196   2.492  -0.072   6.462  1.7466  1.0777  2.2618
 3369WAT     H214197   2.502   0.016   6.358 -1.5955 -2.4470 -1.3493
 3369WAT    EPW14198   2.478  -0.002   6.430 -0.0088 -0.2521 -0.1586
 3370WAT      O14199   4.384   3.308   5.736  0.3878 -0.4064 -0.4027
 3370WAT     H114200   4.384   3.225   5.711 -0.6862 -0.1862 -1.1816
 3370WAT     H214201   4.468   3.324   5.753  0.5494 -1.7713  0.2218
 3370WAT    EPW14202   4.397   3.298   5.735  0.2530 -0.5755 -0.4255
 3371WAT      O14203   1.643   6.520   0.417 -0.1347  0.0450  0.1890
 3371WAT     H114204   1.679   6.450   0.454  4.9381  1.6338 -1.0546
 3371WAT     H214205   1.630   6.495   0.334  0.2586  0.1180  0.1039
 3371WAT    EPW14206   1.646   6.506   0.410  0.6728  0.2905 -0.0073
 3372WAT      O14207   3.834   6.240   6.850  0.0158  0.1304 -0.1919
 3372WAT     H114208   3.798   6.171   6.889 -1.6036  0.0847 -1.6285
 3372WAT     H214209   3.907   6.207   6.815 -0.4153 -0.7170 -0.3275
 3372WAT    EPW14210   3.840   6.225   6.850 -0.2871 -0.0015 -0.4241
 3373WAT      O14211   3.529   7.579   4.268  0.2470 -0.2490  0.2683
 3373WAT     H114212   3.587   7.542   4.214  0.8978  0.1589  0.6712
 3373WAT     H214213   3.579   7.615   4.330 -0.4789 -0.5257  1.0306
 3373WAT    EPW14214   3.545   7.579   4.269  0.2359 -0.2296  0.4404
 3374WAT      O14215   4.123   6.437   7.727  0.3406 -0.5092  0.1459
 3374WAT     H114216   4.085   6.430   7.649 -0.4823  0.3905  0.4538
 3374WAT     H214217   4.203   6.404   7.714 -0.6499 -2.8439 -0.4075
 3374WAT    EPW14218   4.129   6.431   7.714  0.0727 -0.7212  0.1096
 3375WAT      O14219   1.849   1.718   7.661 -0.0996  0.2601  0.0613
 3375WAT     H114220   1.816   1.689   7.737 -0.7978  0.7190 -0.0546
 3375WAT     H214221   1.806   1.793   7.648  0.1117  0.2497 -0.7243
 3375WAT    EPW14222   1.837   1.725   7.670 -0.1715  0.3263 -0.0719
 3376WAT      O14223   2.247   3.976   4.420 -0.2555  0.0406 -0.0324
 3376WAT     H114224   2.334   3.983   4.419 -0.1499 -0.9279 -1.3093
 3376WAT     H214225   2.221   4.039   4.474  1.1450  1.5478 -1.0255
 3376WAT    EPW14226   2.256   3.986   4.428 -0.0330  0.1202 -0.3677
 3377WAT      O14227   5.645   4.718   5.540  0.2058  0.3188  0.6609
 3377WAT     H114228   5.595   4.770   5.490 -2.3897 -1.4229  1.2313
 3377WAT     H214229   5.691   4.775   5.588 -0.6926  2.0624 -0.4153
 3377WAT    EPW14230   5.644   4.734   5.540 -0.3103  0.3191  0.5862
 3378WAT      O14231   1.117   1.468   6.134 -0.2463 -0.2822 -0.4278
 3378WAT     H114232   1.066   1.532   6.164  1.3243  1.7470 -1.8377
 3378WAT     H214233   1.082   1.448   6.057  0.2029  0.0388 -0.7172
 3378WAT    EPW14234   1.105   1.475   6.127  0.0521  0.0650 -0.6788
 3379WAT      O14235   7.270   6.109   4.346 -0.0238  0.0706 -0.2387
 3379WAT     H114236   7.246   6.049   4.404 -0.7739  0.4492 -0.1419
 3379WAT     H214237   7.222   6.091   4.276 -1.8811  1.8004  0.4848
 3379WAT    EPW14238   7.259   6.098   4.344 -0.4090  0.3821 -0.1175
 3380WAT      O14239   0.221   6.314   0.296  0.0208 -0.0995  0.0635
 3380WAT     H114240   0.186   6.239   0.268 -1.0044  0.9012 -1.5013
 3380WAT     H214241   0.300   6.315   0.258  0.1154 -0.4625  0.2456
 3380WAT    EPW14242   0.228   6.303   0.286 -0.1167 -0.0053 -0.1407
 3381WAT      O14243   6.040   5.553   0.618  0.1506  0.1471 -0.2709
 3381WAT     H114244   5.986   5.617   0.643  1.2814  0.7979  0.6354
 3381WAT     H214245   6.058   5.512   0.692  0.9932  0.0295 -0.5295
 3381WAT    EPW14246   6.035   5.556   0.633  0.4421  0.2259 -0.1752
 3382WAT      O14247   3.809   0.811   2.148 -0.2792  0.2587  0.1566
 3382WAT     H114248   3.764   0.810   2.222 -1.8953  0.4595 -0.7768
 3382WAT     H214249   3.846   0.732   2.146 -0.5465  0.1017  0.9679
 3382WAT    EPW14250   3.808   0.799   2.159 -0.5574  0.2652  0.1385
 3383WAT      O14251   3.175   6.406   7.774 -0.6273 -0.3822 -0.3363
 3383WAT     H114252   3.217   6.346   7.821 -0.2471 -0.0203 -0.2142
 3383WAT     H214253   3.091   6.381   7.780 -0.7364  0.2713  1.4603
 3383WAT    EPW14254   3.169   6.393   7.781 -0.5872 -0.2322 -0.0528
 3384WAT      O14255   6.853   1.499   6.116  0.2009 -0.0974 -0.6383
 3384WAT     H114256   6.924   1.547   6.104 -0.3596  0.3401 -2.6261
 3384WAT     H214257   6.825   1.523   6.195  0.6585  1.8870 -1.0273
 3384WAT    EPW14258   6.859   1.510   6.126  0.1857  0.2604 -0.9894
 3385WAT      O14259   5.963   7.034   6.639  0.6172 -0.1701 -0.2542
 3385WAT     H114260   6.042   7.028   6.675  0.4148 -2.3469  0.0048
 3385WAT     H214261   5.965   6.974   6.575 -1.0752 -0.9290  0.3410
 3385WAT    EPW14262   5.975   7.024   6.635  0.3373 -0.6038 -0.1280
 3386WAT      O14263   2.965   0.385   5.799 -0.2227  0.1453  0.5226
 3386WAT     H114264   2.919   0.380   5.872  0.7751  1.2194  1.2696
 3386WAT     H214265   2.955   0.468   5.774 -3.0240 -0.8527 -2.2997
 3386WAT    EPW14266   2.957   0.397   5.806 -0.4891  0.1566  0.2160
 3387WAT      O14267   4.106   0.853   4.947 -0.1242  0.5807 -0.3788
 3387WAT     H114268   4.049   0.837   4.883  0.1705 -1.6754 -0.1757
 3387WAT     H214269   4.161   0.912   4.913 -1.0553  0.8313 -1.4971
 3387WAT    EPW14270   4.106   0.859   4.933 -0.2182  0.2845 -0.5140
 3388WAT      O14271   4.441   3.413   0.678 -0.3921 -0.2005  0.0739
 3388WAT     H114272   4.414   3.338   0.713 -1.8747 -0.5287 -1.6416
 3388WAT     H214273   4.368   3.447   0.644  0.3974  1.6462  0.1241
 3388WAT    EPW14274   4.426   3.407   0.678 -0.4945  0.0238 -0.1721
 3389WAT      O14275   1.812   5.920   2.208 -0.6447 -0.4300  0.3202
 3389WAT     H114276   1.893   5.925   2.174 -0.6716 -1.6993  0.0202
 3389WAT     H214277   1.822   5.950   2.289 -0.2380  1.0952 -0.2658
 3389WAT    EPW14278   1.826   5.925   2.215 -0.5886 -0.3922  0.1893
 3390WAT      O14279   7.011   5.781   0.414  0.2142 -0.8381 -0.0898
 3390WAT     H114280   6.962   5.852   0.425 -0.8107 -1.3441 -1.2884
 3390WAT     H214281   7.065   5.803   0.349  0.8318 -0.6882  0.4616
 3390WAT    EPW14282   7.012   5.795   0.406  0.1540 -0.8907 -0.1854
 3391WAT      O14283   4.872   5.928   0.221 -0.2808  1.1214  0.4074
 3391WAT     H114284   4.885   5.984   0.287 -0.4367  0.6708  0.8363
 3391WAT     H214285   4.863   5.979   0.151  0.2288  1.6004  0.6774
 3391WAT    EPW14286   4.873   5.943   0.221 -0.2286  1.1256  0.5106
 3392WAT      O14287   2.150   7.273   0.426  0.1560 -0.3004 -0.0991
 3392WAT     H114288   2.235   7.259   0.407  0.7488  2.8853 -0.3837
 3392WAT     H214289   2.150   7.285   0.512 -0.2564 -1.5802  0.0898
 3392WAT    EPW14290   2.163   7.273   0.436  0.1827 -0.0189 -0.1133
 3393WAT      O14291   2.367   2.256   0.121 -0.2480  0.0104 -0.1772
 3393WAT     H114292   2.442   2.290   0.151  1.4858 -2.9897 -0.6884
 3393WAT     H214293   2.359   2.292   0.042 -0.2286  1.4698  0.4372
 3393WAT    EPW14294   2.377   2.266   0.114  0.0110 -0.2172 -0.1619
 3394WAT      O14295   4.960   7.014   6.461  0.0533 -0.5263 -0.5065
 3394WAT     H114296   4.877   6.987   6.457 -0.4174  0.7763 -0.1495
 3394WAT     H214297   4.954   7.100   6.443  1.1792 -0.1865  0.6064
 3394WAT    EPW14298   4.947   7.023   6.458  0.1501 -0.2837 -0.2894
 3395WAT      O14299   5.001   6.869   5.665 -0.6224 -0.1810 -0.4086
 3395WAT     H114300   4.922   6.864   5.701 -0.4776  0.5740  0.0274
 3395WAT     H214301   5.055   6.847   5.730 -0.2848  2.2343  0.2215
 3395WAT    EPW14302   4.998   6.865   5.680 -0.5511  0.2873 -0.2511
 3396WAT      O14303   4.793   6.951   3.898  0.1436  0.4114  0.0068
 3396WAT     H114304   4.827   7.009   3.843  1.3273  1.2659  1.5621
 3396WAT     H214305   4.858   6.894   3.910 -0.3823 -0.2173 -0.0886
 3396WAT    EPW14306   4.808   6.951   3.892  0.2408  0.4448  0.2224
 3397WAT      O14307   2.582   1.848   4.828  0.0522 -0.4314 -0.1860
 3397WAT     H114308   2.642   1.886   4.879  0.3362 -0.0603 -0.7966
 3397WAT     H214309   2.598   1.880   4.749 -2.2023  1.2556 -0.0661
 3397WAT    EPW14310   2.593   1.859   4.824 -0.2389 -0.1274 -0.2585
 3398WAT      O14311   2.417   5.151   3.002 -0.3174 -0.7603 -0.3864
 3398WAT     H114312   2.374   5.188   2.936 -2.0777 -1.5284  0.2763
 3398WAT     H214313   2.427   5.068   2.977 -2.4492 -1.4856  0.8896
 3398WAT    EPW14314   2.412   5.144   2.989 -0.8923 -0.9809 -0.1000
 3399WAT      O14315   3.544   2.849   5.985 -0.1299  0.0894 -0.4941
 3399WAT     H114316   3.551   2.925   6.026 -0.4215  0.9456 -1.9743
 3399WAT     H214317   3.471   2.814   6.020 -0.5648  0.9503 -0.5146
 3399WAT    EPW14318   3.534   2.855   5.996 -0.2372  0.3430 -0.7158
 3400WAT      O14319   7.715   7.541   6.362  0.1162 -0.0357  0.2853
 3400WAT     H114320   7.701   7.497   6.436  1.1208 -3.0554 -1.1031
 3400WAT     H214321   7.773   7.602   6.385  0.6128 -1.0602  1.9533
 3400WAT    EPW14322   7.722   7.543   6.376  0.3379 -0.6331  0.3266
 3401WAT      O14323   1.078   5.849   6.525  0.1748 -0.3748 -0.8729
 3401WAT     H114324   1.023   5.781   6.518  0.7120 -0.8119 -0.9162
 3401WAT     H214325   1.127   5.842   6.453  1.4319 -1.0166  0.0291
 3401WAT    EPW14326   1.077   5.838   6.513  0.4399 -0.5342 -0.7461
 3402WAT      O14327   4.045   3.386   5.983  0.0418  0.7032 -0.1677
 3402WAT     H114328   4.011   3.393   5.902 -2.0191 -0.8224  0.4790
 3402WAT     H214329   4.012   3.455   6.025  0.9507  1.3828 -0.5258
 3402WAT    EPW14330   4.035   3.398   5.977 -0.1284  0.5782 -0.1251
 3403WAT      O14331   2.545   0.967   0.989 -0.4685  0.2250  0.8401
 3403WAT     H114332   2.534   0.916   0.920 -2.6887  0.1877  1.1684
 3403WAT     H214333   2.631   0.984   0.988 -0.4102  0.2249 -1.8779
 3403WAT    EPW14334   2.556   0.962   0.979 -0.7878  0.2195  0.4871
 3404WAT      O14335   1.741   4.212   1.665  0.3746  0.3034  0.0344
 3404WAT     H114336   1.769   4.136   1.633  1.0421  0.0838  1.1046
 3404WAT     H214337   1.715   4.256   1.594  1.2911 -0.3852 -0.7466
 3404WAT    EPW14338   1.741   4.207   1.650  0.6086  0.1693  0.0771
 3405WAT      O14339   5.173   6.073   5.686  0.4092 -0.4315 -0.4932
 3405WAT     H114340   5.130   6.139   5.723  1.3150 -0.2189  0.2365
 3405WAT     H214341   5.188   6.018   5.752  1.0662 -0.5945 -0.7606
 3405WAT    EPW14342   5.169   6.075   5.701  0.6401 -0.4241 -0.4249
 3406WAT      O14343   0.175   5.977   6.998 -0.5701 -0.3703 -0.5237
 3406WAT     H114344   0.159   5.895   7.022  1.0511 -0.4885  0.2457
 3406WAT     H214345   0.234   6.005   7.056 -0.9950  1.3078 -0.8438
 3406WAT    EPW14346   0.181   5.969   7.010 -0.3934 -0.1399 -0.4573
 3407WAT      O14347   5.325   4.652   6.713  0.0351  0.0992  0.2921
 3407WAT     H114348   5.302   4.577   6.674  1.4565 -0.2151 -0.0089
 3407WAT     H214349   5.326   4.710   6.648  1.1307 -0.1391  0.0737
 3407WAT    EPW14350   5.321   4.650   6.698  0.4069  0.0176  0.2154
 3408WAT      O14351   1.328   6.037   4.873  0.5592  0.0788 -0.1294
 3408WAT     H114352   1.306   6.112   4.835 -0.1309 -0.2382 -0.3765
 3408WAT     H214353   1.251   6.005   4.900  0.9101 -0.2602  0.4882
 3408WAT    EPW14354   1.313   6.044   4.872  0.5091 -0.0181 -0.0747
 3409WAT      O14355   3.776   6.367   2.648 -0.5361 -0.1953  0.3253
 3409WAT     H114356   3.854   6.340   2.678 -0.1691 -1.1225 -1.3570
 3409WAT     H214357   3.721   6.305   2.675 -0.7089  0.4174  1.4435
 3409WAT    EPW14358   3.780   6.354   2.656 -0.5075 -0.2418  0.2420
 3410WAT      O14359   5.152   2.483   6.864  0.0167 -0.6145 -0.0381
 3410WAT     H114360   5.111   2.522   6.797  1.3142 -2.4919 -2.0876
 3410WAT     H214361   5.165   2.548   6.920 -2.2446  0.8160 -1.0264
 3410WAT    EPW14362   5.148   2.498   6.862 -0.1257 -0.6805 -0.4868
 3411WAT      O14363   3.683   2.621   5.983  0.2773  0.2228 -0.3262
 3411WAT     H114364   3.699   2.606   5.899  1.9817 -1.4141  0.2131
 3411WAT     H214365   3.634   2.694   5.982  1.0385  0.8008 -2.6556
 3411WAT    EPW14366   3.678   2.630   5.970  0.6416  0.0664 -0.5906
 3412WAT      O14367   2.333   0.025   4.098 -0.3484  0.3305  0.5121
 3412WAT     H114368   2.386   0.049   4.033 -1.2788 -0.0031 -0.3995
 3412WAT     H214369   2.288   0.097   4.116 -0.3583  0.3195  0.5311
 3412WAT    EPW14370   2.334   0.039   4.091 -0.4873  0.2796  0.3803
 3413WAT      O14371   2.146   4.217   0.482 -0.7554 -0.3055 -0.5474
 3413WAT     H114372   2.223   4.248   0.454  0.1155 -0.9580  0.9979
 3413WAT     H214373   2.126   4.269   0.549 -0.8885 -1.0868  0.0234
 3413WAT    EPW14374   2.154   4.229   0.488 -0.6464 -0.5173 -0.2348
 3414WAT      O14375   5.766   1.948   4.710  0.0625  0.5905  0.3632
 3414WAT     H114376   5.809   1.989   4.646  3.1966 -1.8385  0.6904
 3414WAT     H214377   5.784   1.995   4.781 -1.6056  2.0532 -0.1219
 3414WAT    EPW14378   5.775   1.961   4.711  0.2791  0.4477  0.3399
 3415WAT      O14379   4.975   6.290   0.299  0.1426 -0.1773  0.1267
 3415WAT     H114380   5.053   6.254   0.286 -0.5177 -1.4660 -0.4417
 3415WAT     H214381   4.992   6.358   0.351  1.7880  0.2697 -0.9302
 3415WAT    EPW14382   4.989   6.295   0.305  0.2881 -0.3016 -0.1134
 3416WAT      O14383   7.058   7.632   6.561 -0.7544  0.0298 -0.1073
 3416WAT     H114384   6.978   7.605   6.583 -0.8604  0.7816  0.4712
 3416WAT     H214385   7.109   7.562   6.578 -1.3458 -0.6306 -0.9743
 3416WAT    EPW14386   7.054   7.617   6.567 -0.8574  0.0433 -0.1499
 3417WAT      O14387   0.593   5.967   4.570 -0.6376  0.5783  0.1717
 3417WAT     H114388   0.639   6.040   4.583  2.3791 -1.1221 -0.0857
 3417WAT     H214389   0.592   5.958   4.484  1.7842 -1.1664  0.2286
 3417WAT    EPW14390   0.600   5.976   4.559  0.1658  0.0694  0.1421
 3418WAT      O14391   0.918   5.122   6.709  0.3941  0.1742 -0.7988
 3418WAT     H114392   0.980   5.069   6.739  0.4590 -0.1503 -1.4778
 3418WAT     H214393   0.852   5.067   6.691 -0.6218  0.6457  1.1553
 3418WAT    EPW14394   0.918   5.106   6.711  0.2536  0.1959 -0.6104
 3419WAT      O14395   4.057   1.684   5.707 -0.1365  0.8012  0.2509
 3419WAT     H114396   4.127   1.655   5.749 -0.4098 -1.4966 -0.7301
 3419WAT     H214397   3.999   1.619   5.717 -1.1964  1.4768 -1.1493
 3419WAT    EPW14398   4.059   1.670   5.715 -0.3335  0.5616 -0.1009
 3420WAT      O14399   0.015   5.676   5.696 -0.0306 -0.2639  0.0912
 3420WAT     H114400  -0.036   5.634   5.640 -1.0449  0.6873  0.2597
 3420WAT     H214401   0.001   5.760   5.678  0.8901  0.0395  0.6694
 3420WAT    EPW14402   0.006   5.682   5.685 -0.0445 -0.0786  0.2015
 3421WAT      O14403   1.975   6.576   2.823 -0.0937 -0.1313  0.3008
 3421WAT     H114404   1.933   6.604   2.752  0.3573 -0.5723 -0.1562
 3421WAT     H214405   2.047   6.625   2.825  0.7464 -1.2540 -0.5558
 3421WAT    EPW14406   1.980   6.587   2.813  0.0970 -0.3623  0.1068
 3422WAT      O14407   2.621   5.004   2.004 -0.5005  0.6529  0.8127
 3422WAT     H114408   2.646   5.087   2.014 -0.8191  0.7763  0.5987
 3422WAT     H214409   2.538   5.011   1.978  0.4377  0.4235 -2.8927
 3422WAT    EPW14410   2.612   5.017   2.001 -0.4090  0.6373  0.2337
 3423WAT      O14411   5.807   5.663   3.323  0.1619  0.5598  0.1880
 3423WAT     H114412   5.891   5.674   3.302  0.2614  1.4625  0.9699
 3423WAT     H214413   5.784   5.591   3.280  1.6579 -0.3830  0.9123
 3423WAT    EPW14414   5.816   5.654   3.313  0.3976  0.5539  0.4105
 3424WAT      O14415   4.262   2.208   2.937  0.3506 -0.0170  0.1288
 3424WAT     H114416   4.290   2.207   3.020  2.2601 -1.3536 -0.4575
 3424WAT     H214417   4.261   2.293   2.918  1.6817  0.2322  1.0032
 3424WAT    EPW14418   4.266   2.221   2.947  0.8293 -0.1776  0.1714
 3425WAT      O14419   2.432   7.403   1.439 -0.1603 -0.2876 -0.0320
 3425WAT     H114420   2.425   7.332   1.489 -2.8548  1.0110  1.6673
 3425WAT     H214421   2.515   7.427   1.449  0.3573 -2.1857  0.7522
 3425WAT    EPW14422   2.443   7.396   1.448 -0.4818 -0.3762  0.3349
 3426WAT      O14423   3.407   7.187   6.141 -0.0391  0.3666  0.6381
 3426WAT     H114424   3.334   7.193   6.189 -0.2648  0.3092  0.3051
 3426WAT     H214425   3.468   7.165   6.199 -0.3339  0.1813  0.8792
 3426WAT    EPW14426   3.405   7.185   6.156 -0.1160  0.3307  0.6245
 3427WAT      O14427   1.777   7.613   2.334  0.1916  0.8450  0.5989
 3427WAT     H114428   1.779   7.586   2.251 -1.7100  1.6651  0.2421
 3427WAT     H214429   1.786   7.699   2.328 -2.1207  1.1860  1.0029
 3427WAT    EPW14430   1.779   7.622   2.321 -0.4309  1.0165  0.6059
 3428WAT      O14431   5.244   6.763   7.332 -0.1782 -0.0982 -0.3662
 3428WAT     H114432   5.200   6.808   7.271  0.0854  0.1580 -0.3677
 3428WAT     H214433   5.182   6.746   7.392 -0.7552 -1.5083 -1.3056
 3428WAT    EPW14434   5.228   6.767   7.332 -0.2245 -0.2687 -0.5052
 3429WAT      O14435   2.918   5.046   1.894  0.3047  0.1496  0.0086
 3429WAT     H114436   2.865   5.115   1.903  0.0735 -0.2486  2.1872
 3429WAT     H214437   2.863   4.980   1.875  0.4163  0.3245 -1.0030
 3429WAT    EPW14438   2.902   5.046   1.892  0.2871  0.1166  0.1810
 3430WAT      O14439   4.556   0.592   4.200 -0.0306  0.2707 -0.5643
 3430WAT     H114440   4.621   0.648   4.214  0.1270  0.2158 -1.0465
 3430WAT     H214441   4.506   0.633   4.142 -0.2326  0.1593 -0.4697
 3430WAT    EPW14442   4.558   0.606   4.193 -0.0372  0.2461 -0.6216
 3431WAT      O14443   6.627   7.337   5.491  1.2030  0.2837 -0.5860
 3431WAT     H114444   6.555   7.289   5.502  0.9741  0.3873 -1.6070
 3431WAT     H214445   6.628   7.388   5.562  0.3688  0.1629 -0.4763
 3431WAT    EPW14446   6.617   7.337   5.503  1.0459  0.2812 -0.7206
 3432WAT      O14447   5.848   5.964   6.108 -0.3465  0.9880 -0.5118
 3432WAT     H114448   5.796   6.030   6.083 -0.2706  0.5756 -1.8749
 3432WAT     H214449   5.877   5.932   6.032 -0.7721 -0.9265  0.0977
 3432WAT    EPW14450   5.845   5.969   6.093 -0.3982  0.6442 -0.6231
 3433WAT      O14451   2.897   5.323   3.330  0.0465  0.6036  0.3138
 3433WAT     H114452   2.899   5.236   3.322 -0.9856  0.6298 -0.3609
 3433WAT     H214453   2.927   5.336   3.411  0.9060 -0.3237  0.1665
 3433WAT    EPW14454   2.902   5.312   3.341  0.0210  0.4705  0.1924
 3434WAT      O14455   1.470   4.142   3.140  0.4139 -0.2784 -0.3088
 3434WAT     H114456   1.509   4.172   3.212  0.6961 -0.5736 -0.3363
 3434WAT     H214457   1.504   4.192   3.077 -0.5484  0.6372 -0.1389
 3434WAT    EPW14458   1.481   4.154   3.142  0.3134 -0.1868 -0.2878
 3435WAT      O14459   5.670   3.974   5.090 -0.0482 -0.0036 -0.0229
 3435WAT     H114460   5.637   4.018   5.022  0.7787 -2.8159 -2.4812
 3435WAT     H214461   5.612   3.910   5.103  0.4357 -0.2363  1.0985
 3435WAT    EPW14462   5.656   3.971   5.082  0.1454 -0.4534 -0.2204
 3436WAT      O14463   6.744   1.984   5.924  0.0869  0.6123 -0.2158
 3436WAT     H114464   6.767   2.046   5.982  1.0427 -1.9880  2.4240
 3436WAT     H214465   6.703   1.925   5.973  1.2133 -1.9097 -2.1269
 3436WAT    EPW14466   6.742   1.985   5.940  0.3945 -0.1444 -0.1082
 3437WAT      O14467   6.824   4.498   5.219  0.0107 -0.1115 -0.2132
 3437WAT     H114468   6.861   4.548   5.281 -0.4274 -0.0424  0.0001
 3437WAT     H214469   6.888   4.445   5.195  0.2467 -0.0040  0.1592
 3437WAT    EPW14470   6.839   4.498   5.225 -0.0191 -0.0854 -0.1267
 3438WAT      O14471   5.715   2.685   6.812  0.6062  0.2098  0.1495
 3438WAT     H114472   5.726   2.599   6.822  0.9071 -0.1360 -2.4659
 3438WAT     H214473   5.663   2.707   6.879  1.9782 -1.6147  1.9555
 3438WAT    EPW14474   5.709   2.676   6.823  0.8534 -0.1108  0.0299
 3439WAT      O14475   2.947   1.003   1.242 -0.1545  0.7489  0.0141
 3439WAT     H114476   3.006   0.939   1.242 -0.6094  0.2915 -1.1845
 3439WAT     H214477   2.965   1.049   1.314  0.8325 -0.1273  0.3411
 3439WAT    EPW14478   2.958   1.000   1.253 -0.0759  0.5519 -0.1146
 3440WAT      O14479   6.090   3.335   3.037  0.1812 -0.2236 -0.0195
 3440WAT     H114480   6.099   3.376   2.961 -0.3880  0.6303  0.3572
 3440WAT     H214481   6.005   3.317   3.041  0.4370 -1.5880 -0.2328
 3440WAT    EPW14482   6.078   3.339   3.027  0.1349 -0.2990  0.0046
 3441WAT      O14483   6.061   7.259   4.251  0.3666 -0.0276  0.2090
 3441WAT     H114484   6.114   7.211   4.201 -1.1311 -0.4751 -0.9904
 3441WAT     H214485   5.990   7.269   4.202  0.1717  2.4414  0.9081
 3441WAT    EPW14486   6.059   7.253   4.237  0.1166  0.2710  0.1351
 3442WAT      O14487   4.287   6.884   1.858 -0.5655 -0.3197 -0.7229
 3442WAT     H114488   4.363   6.849   1.885 -0.5717  0.2879  0.1252
 3442WAT     H214489   4.229   6.822   1.878 -0.2722 -0.8997 -1.6227
 3442WAT    EPW14490   4.290   6.869   1.865 -0.5231 -0.3156 -0.7305
 3443WAT      O14491   3.143   6.838   6.916 -0.1282 -0.0159 -0.2290
 3443WAT     H114492   3.170   6.911   6.956 -0.2070  1.2169 -2.2598
 3443WAT     H214493   3.206   6.780   6.932 -0.1806  0.4056  1.6322
 3443WAT    EPW14494   3.156   6.840   6.924 -0.1475  0.2284 -0.2540
 3444WAT      O14495   3.639   0.907   1.970  0.8759  0.2191  0.6320
 3444WAT     H114496   3.689   0.881   2.036  3.5668  1.0073 -0.9065
 3444WAT     H214497   3.655   0.848   1.907 -1.0701 -0.1285  0.3913
 3444WAT    EPW14498   3.649   0.895   1.970  0.9859  0.2842  0.3692
 3445WAT      O14499   4.724   6.871   7.534 -0.8926  0.1423  0.2688
 3445WAT     H114500   4.686   6.816   7.477  0.1283 -1.0355  0.6624
 3445WAT     H214501   4.713   6.949   7.498 -2.4330 -0.3117 -0.3061
 3445WAT    EPW14502   4.717   6.874   7.520 -0.9693 -0.0987  0.2420
 3446WAT      O14503   3.013   0.517   7.280 -0.2522  0.2493  0.1476
 3446WAT     H114504   3.034   0.533   7.363 -0.2179  0.9345  0.0159
 3446WAT     H214505   3.015   0.430   7.274  1.1103  0.2277  0.5213
 3446WAT    EPW14506   3.017   0.506   7.291 -0.0459  0.3473  0.1834
 3447WAT      O14507   2.484   7.061   7.600 -0.3566  0.2219 -0.4162
 3447WAT     H114508   2.543   7.032   7.543 -0.5181  0.8149 -0.8913
 3447WAT     H214509   2.519   7.136   7.629 -1.1505  0.8909 -1.1566
 3447WAT    EPW14510   2.498   7.067   7.596 -0.4977  0.4083 -0.5958
 3448WAT      O14511   2.089   5.921   4.658  0.5086 -0.2867  0.1222
 3448WAT     H114512   2.032   5.986   4.668 -1.3368 -1.6168 -0.9434
 3448WAT     H214513   2.150   5.955   4.606 -0.8338  0.4187 -1.0817
 3448WAT    EPW14514   2.089   5.936   4.652  0.0377 -0.3790 -0.2131
 3449WAT      O14515   6.883   3.667   5.181  0.0617 -0.3068  0.2780
 3449WAT     H114516   6.887   3.735   5.127  0.8740 -1.9652 -1.8636
 3449WAT     H214517   6.966   3.644   5.192 -0.2829 -2.8194 -1.6256
 3449WAT    EPW14518   6.896   3.674   5.175  0.1308 -0.9230 -0.3196
 3450WAT      O14519   4.592   2.046   3.681 -1.1195  0.0054  0.1099
 3450WAT     H114520   4.613   2.066   3.598  0.0920  0.5116  0.5116
 3450WAT     H214521   4.549   2.117   3.709  1.3682  1.3455  0.8896
 3450WAT    EPW14522   4.589   2.060   3.673 -0.5731  0.2782  0.2844
 3451WAT      O14523   5.041   3.117   2.154 -0.2871 -0.0131 -0.1294
 3451WAT     H114524   5.122   3.135   2.129 -0.8888  0.3781 -1.9243
 3451WAT     H214525   5.018   3.186   2.202  0.4671 -0.2204  0.5751
 3451WAT    EPW14526   5.050   3.130   2.158 -0.2645  0.0141 -0.2905
 3452WAT      O14527   1.579   0.707   6.248  0.2579  0.1026  0.4382
 3452WAT     H114528   1.630   0.730   6.315 -2.2583  0.6785  2.2970
 3452WAT     H214529   1.498   0.709   6.282 -1.1326  0.1612 -2.5610
 3452WAT    EPW14530   1.574   0.711   6.263 -0.3192  0.1963  0.2698
 3453WAT      O14531   4.901   3.677   0.068 -0.3388  0.0025  0.2014
 3453WAT     H114532   4.868   3.600   0.043 -0.6899 -0.4664  1.9932
 3453WAT     H214533   4.977   3.655   0.105 -0.2918  0.5697  0.4446
 3453WAT    EPW14534   4.907   3.662   0.069 -0.3837  0.0170  0.5020
 3454WAT      O14535   2.440   6.238   4.038 -0.5277  0.6669  0.0120
 3454WAT     H114536   2.513   6.193   4.022 -0.9323  0.3218 -0.8999
 3454WAT     H214537   2.437   6.296   3.974 -2.3253 -0.9305 -1.4674
 3454WAT    EPW14538   2.450   6.240   4.026 -0.8530  0.3800 -0.3413
 3455WAT      O14539   1.721   0.210   4.953 -0.1132 -0.4946 -0.0745
 3455WAT     H114540   1.735   0.129   4.922 -0.7615  0.0919 -2.0533
 3455WAT     H214541   1.721   0.199   5.040 -1.1278 -2.8016 -0.2777
 3455WAT    EPW14542   1.723   0.196   4.961 -0.3589 -0.7488 -0.3968
 3456WAT      O14543   1.477   3.109   3.770  0.0214  0.0052  0.2301
 3456WAT     H114544   1.476   3.185   3.727  0.0015 -0.1527 -0.0504
 3456WAT     H214545   1.540   3.120   3.830  0.9227 -0.2187 -0.6533
 3456WAT    EPW14546   1.486   3.122   3.773  0.1516 -0.0512  0.0582
 3457WAT      O14547   5.446   6.277   0.786 -0.3750  0.6705 -0.2505
 3457WAT     H114548   5.503   6.221   0.751  1.2376  1.2227  1.3801
 3457WAT     H214549   5.428   6.243   0.864 -0.8139  1.4774  0.0137
 3457WAT    EPW14550   5.452   6.264   0.792 -0.2016  0.8712  0.0294
 3458WAT      O14551   4.217   4.921   3.315  0.0607 -0.0737  0.0934
 3458WAT     H114552   4.284   4.955   3.359 -0.1835  0.1901  0.2600
 3458WAT     H214553   4.152   4.976   3.330 -0.5849 -1.0918  1.1202
 3458WAT    EPW14554   4.218   4.934   3.323 -0.0707 -0.1851  0.2697
 3459WAT      O14555   6.289   3.647   2.912  0.4084  0.3342  0.4549
 3459WAT     H114556   6.256   3.605   2.981  1.1952 -2.2165 -0.5786
 3459WAT     H214557   6.355   3.595   2.886 -0.6680  0.4079 -2.9931
 3459WAT    EPW14558   6.294   3.633   2.918  0.3656 -0.0317 -0.2071
 3460WAT      O14559   2.303   2.553   3.583  0.7730  0.0260  0.2600
 3460WAT     H114560   2.234   2.555   3.529 -0.7768 -0.1235  2.1324
 3460WAT     H214561   2.348   2.484   3.557  0.0147 -0.1007 -0.7705
 3460WAT    EPW14562   2.299   2.543   3.571  0.4321 -0.0148  0.3843
 3461WAT      O14563   2.922   0.038   3.894 -0.0538 -1.2499 -0.2872
 3461WAT     H114564   2.986   0.007   3.945 -0.1408 -0.0587  0.5747
 3461WAT     H214565   2.961   0.097   3.844 -0.4696 -0.5237  0.2348
 3461WAT    EPW14566   2.937   0.042   3.894 -0.1281 -0.9666 -0.0828
 3462WAT      O14567   4.128   1.461   5.245 -0.3793  0.3939 -0.3012
 3462WAT     H114568   4.203   1.417   5.238 -1.0141 -1.0331  1.1119
 3462WAT     H214569   4.101   1.470   5.163  0.1082 -1.3319 -0.6881
 3462WAT    EPW14570   4.135   1.455   5.232 -0.4011 -0.0718 -0.1496
 3463WAT      O14571   3.139   5.385   0.204  0.3065  0.1504 -0.1182
 3463WAT     H114572   3.201   5.354   0.258 -0.7026  0.0252  1.0158
 3463WAT     H214573   3.117   5.315   0.156  1.1866  0.2536 -0.7019
 3463WAT    EPW14574   3.145   5.370   0.205  0.2874  0.1472 -0.0369
 3464WAT      O14575   3.593   5.648   5.266  0.0001 -0.3681 -0.0667
 3464WAT     H114576   3.551   5.648   5.189  0.4607 -0.4927 -0.3188
 3464WAT     H214577   3.617   5.731   5.276  1.4158 -0.6491 -0.8755
 3464WAT    EPW14578   3.590   5.661   5.256  0.2773 -0.4280 -0.2234
 3465WAT      O14579   3.731   5.724   4.833 -0.1729  0.1381  0.4015
 3465WAT     H114580   3.793   5.663   4.841 -0.4331 -0.2826 -0.6620
 3465WAT     H214581   3.751   5.781   4.896  2.1727  0.7622 -0.8142
 3465WAT    EPW14582   3.743   5.723   4.844  0.1351  0.1681  0.0648
 3466WAT      O14583   2.594   4.363   5.922  0.1986  0.0323  0.4923
 3466WAT     H114584   2.573   4.333   5.843  0.6851 -0.7409  0.6487
 3466WAT     H214585   2.644   4.432   5.905 -1.5747  1.2798  0.1240
 3466WAT    EPW14586   2.598   4.369   5.908  0.0085  0.1024  0.4610
 3467WAT      O14587   6.732   2.050   5.523 -0.1707 -0.2584 -0.1344
 3467WAT     H114588   6.787   2.105   5.563  0.6726 -1.1785 -0.0085
 3467WAT     H214589   6.763   2.046   5.442 -1.0454  0.4995 -0.5230
 3467WAT    EPW14590   6.744   2.058   5.517 -0.1753 -0.2824 -0.1732
 3468WAT      O14591   5.637   3.010   3.573 -0.4167  0.3944  0.0420
 3468WAT     H114592   5.598   3.088   3.565 -1.6680 -0.3606 -2.4676
 3468WAT     H214593   5.602   2.977   3.646 -1.6194  1.2950 -0.0856
 3468WAT    EPW14594   5.626   3.017   3.582 -0.7792  0.4159 -0.3475
 3469WAT      O14595   1.611   6.412   0.157  0.0515 -0.1469  0.1981
 3469WAT     H114596   1.547   6.447   0.110 -0.9562 -0.0105  1.5864
 3469WAT     H214597   1.586   6.328   0.165  1.6884 -0.9213 -1.8605
 3469WAT    EPW14598   1.598   6.404   0.151  0.1444 -0.2411  0.0991
 3470WAT      O14599   7.262   2.693   4.361  0.0722 -0.1261 -0.3481
 3470WAT     H114600   7.207   2.761   4.351 -0.5292 -0.5166  0.1634
 3470WAT     H214601   7.211   2.632   4.397  1.5486  0.5914  3.3716
 3470WAT    EPW14602   7.246   2.694   4.365  0.2015 -0.0778  0.2770
 3471WAT      O14603   0.484   2.860   7.693  0.5374  0.1060  0.1149
 3471WAT     H114604   0.492   2.912   7.623 -1.1154 -1.5534 -1.4085
 3471WAT     H214605   0.538   2.794   7.676  2.3092  0.9999  1.8426
 3471WAT    EPW14606   0.493   2.858   7.680  0.5550 -0.0071  0.1451
 3472WAT      O14607   4.128   6.535   0.443 -0.3190 -0.3049 -0.0056
 3472WAT     H114608   4.210   6.563   0.437 -0.8472  1.2459 -0.5499
 3472WAT     H214609   4.097   6.577   0.514 -1.4051  1.3263 -1.3752
 3472WAT    EPW14610   4.135   6.546   0.453 -0.5574  0.1651 -0.2884
 3473WAT      O14611   6.639   5.773   7.270 -0.0517  0.3559 -0.4264
 3473WAT     H114612   6.583   5.793   7.334 -0.1154  0.7901 -0.6149
 3473WAT     H214613   6.688   5.710   7.305 -0.8678 -0.2634 -0.3751
 3473WAT    EPW14614   6.638   5.767   7.284 -0.1816  0.3286 -0.4467
 3474WAT      O14615   7.261   1.309   5.204  0.2131 -0.0571 -0.6423
 3474WAT     H114616   7.336   1.266   5.192  0.3540  0.0773 -0.2459
 3474WAT     H214617   7.254   1.358   5.131 -0.7666 -1.9123 -1.8664
 3474WAT    EPW14618   7.271   1.310   5.191  0.0892 -0.3113 -0.7646
 3475WAT      O14619   0.141   2.773   6.747  0.0959  0.1231 -0.1507
 3475WAT     H114620   0.221   2.787   6.779 -0.4360  1.5417  0.6592
 3475WAT     H214621   0.094   2.751   6.818 -0.4240  0.2078 -0.4619
 3475WAT    EPW14622   0.145   2.771   6.763 -0.0595  0.3452 -0.0771
 3476WAT      O14623   2.112   2.627   0.230 -0.1844  0.0377 -0.8800
 3476WAT     H114624   2.068   2.558   0.261  0.2583 -0.3577 -1.1080
 3476WAT     H214625   2.178   2.635   0.287 -0.6342  0.7397 -0.4346
 3476WAT    EPW14626   2.115   2.618   0.243 -0.1855  0.0830 -0.8479
 3477WAT      O14627   7.144   4.509   7.079  0.1094  0.2656  0.5266
 3477WAT     H114628   7.085   4.474   7.025  0.7716  0.5579 -0.4182
 3477WAT     H214629   7.131   4.595   7.070  1.1735  0.3612 -0.2981
 3477WAT    EPW14630   7.133   4.516   7.070  0.3644  0.3229  0.2652
 3478WAT      O14631   4.443   3.091   4.330 -0.0160 -0.4252  0.1712
 3478WAT     H114632   4.396   3.162   4.350  1.1520  0.4695 -0.1668
 3478WAT     H214633   4.391   3.025   4.354 -1.5806  0.5070 -0.4731
 3478WAT    EPW14634   4.428   3.092   4.337 -0.0746 -0.1554  0.0261
 3479WAT      O14635   5.067   2.379   5.691  0.5394 -0.2150 -0.5929
 3479WAT     H114636   4.989   2.373   5.730 -0.3405  1.7437 -1.9170
 3479WAT     H214637   5.120   2.404   5.756 -0.6750  1.8921 -0.3189
 3479WAT    EPW14638   5.064   2.382   5.706  0.2300  0.3856 -0.7480
 3480WAT      O14639   3.988   4.485   7.480  0.2572  0.0415 -0.0815
 3480WAT     H114640   3.970   4.562   7.443  0.0319 -0.3085 -0.7271
 3480WAT     H214641   4.056   4.456   7.433 -0.2267 -0.5464 -0.4308
 3480WAT    EPW14642   3.996   4.492   7.468  0.1524 -0.0970 -0.2285
 3481WAT      O14643   4.702   0.378   3.013 -0.2325 -0.3518  0.4379
 3481WAT     H114644   4.741   0.311   2.974  0.3447  0.9850 -1.4012
 3481WAT     H214645   4.768   0.428   3.040 -0.6532 -0.4954  1.8111
 3481WAT    EPW14646   4.717   0.376   3.011 -0.2094 -0.1756  0.3691
 3482WAT      O14647   6.422   4.123   4.473 -0.0358 -0.1129 -0.2697
 3482WAT     H114648   6.405   4.070   4.406  0.9337 -0.7469 -0.0413
 3482WAT     H214649   6.504   4.149   4.459  0.3908 -0.7058  0.9315
 3482WAT    EPW14650   6.432   4.119   4.461  0.1705 -0.2941 -0.0585
 3483WAT      O14651   4.018   6.007   3.573 -0.4206 -0.3128  0.0071
 3483WAT     H114652   4.087   6.059   3.590  0.2130 -1.0506 -0.2378
 3483WAT     H214653   3.965   6.020   3.641 -0.6623  1.2826 -0.4574
 3483WAT    EPW14654   4.021   6.017   3.585 -0.3627 -0.1861 -0.0977
 3484WAT      O14655   4.710   4.947   7.810  0.7600 -0.4137  0.1847
 3484WAT     H114656   4.762   4.982   7.750 -0.3703 -1.5939 -1.5825
 3484WAT     H214657   4.762   4.890   7.852  1.4908  0.2190  0.1449
 3484WAT    EPW14658   4.726   4.944   7.808  0.7010 -0.4946 -0.0822
 3485WAT      O14659   1.183   0.787   3.479  0.0394  0.2863  0.2576
 3485WAT     H114660   1.121   0.815   3.533 -2.4639 -1.0128 -1.7364
 3485WAT     H214661   1.200   0.856   3.429 -2.4181 -0.2080 -1.3960
 3485WAT    EPW14662   1.176   0.801   3.480 -0.6934  0.0214 -0.2812
 3486WAT      O14663   2.465   6.141   5.350 -0.0626  0.2312 -0.2496
 3486WAT     H114664   2.530   6.090   5.323 -1.5567 -1.2992 -1.1854
 3486WAT     H214665   2.454   6.118   5.433 -0.8588 -1.2111 -0.7184
 3486WAT    EPW14666   2.473   6.130   5.358 -0.4009 -0.2079 -0.4571
 3487WAT      O14667   5.826   0.162   2.252 -0.1553 -0.4626  0.0504
 3487WAT     H114668   5.812   0.247   2.269 -0.6605 -0.5034 -0.1568
 3487WAT     H214669   5.894   0.143   2.303  0.5271  0.2943 -0.5494
 3487WAT    EPW14670   5.834   0.172   2.262 -0.1291 -0.3568 -0.0688
 3488WAT      O14671   5.764   5.989   5.195  0.1545 -0.3558 -0.3851
 3488WAT     H114672   5.818   5.922   5.181  0.3810 -0.1661 -0.4273
 3488WAT     H214673   5.807   6.057   5.161  0.0403 -0.1448 -0.1127
 3488WAT    EPW14674   5.779   5.989   5.188  0.1711 -0.2966 -0.3511
 3489WAT      O14675   4.226   4.839   0.533 -0.4065 -0.6857 -0.2264
 3489WAT     H114676   4.266   4.800   0.600  0.9385  0.0340 -0.5810
 3489WAT     H214677   4.292   4.866   0.483 -1.3631  0.1120 -1.0877
 3489WAT    EPW14678   4.242   4.837   0.536 -0.3491 -0.4615 -0.4060
 3490WAT      O14679   0.561   7.503   7.023  0.4223 -0.1522  0.1686
 3490WAT     H114680   0.531   7.583   7.040 -0.8748 -0.4356 -0.6585
 3490WAT     H214681   0.616   7.516   6.955 -1.5133 -0.1999 -1.4968
 3490WAT    EPW14682   0.565   7.517   7.015 -0.0553 -0.2011 -0.1996
 3491WAT      O14683   4.877   1.867   1.462 -0.4728 -0.1542 -0.2841
 3491WAT     H114684   4.951   1.823   1.475 -1.1006 -1.0797  0.3015
 3491WAT     H214685   4.866   1.913   1.535 -0.8010 -0.5275 -0.0926
 3491WAT    EPW14686   4.886   1.867   1.474 -0.6140 -0.3461 -0.1693
 3492WAT      O14687   3.621   1.260   5.117 -0.0143 -0.5732 -0.6624
 3492WAT     H114688   3.655   1.337   5.092 -1.5985  1.1571  1.9963
 3492WAT     H214689   3.690   1.213   5.139  1.0481 -0.2389 -2.9668
 3492WAT    EPW14690   3.636   1.264   5.116 -0.0914 -0.2682 -0.6100
 3493WAT      O14691   5.278   3.597   0.523  0.3921  0.2287  0.0033
 3493WAT     H114692   5.259   3.543   0.589  1.5879  0.1402  0.2962
 3493WAT     H214693   5.323   3.546   0.468  0.4578  0.6181 -0.3047
 3493WAT    EPW14694   5.281   3.582   0.525  0.5785  0.2732  0.0011
 3494WAT      O14695   4.360   5.438   7.442 -0.3403 -0.2310  0.4593
 3494WAT     H114696   4.405   5.503   7.480  0.3275 -0.0889 -0.5413
 3494WAT     H214697   4.278   5.469   7.440 -0.4518 -0.3757  2.0380
 3494WAT    EPW14698   4.354   5.452   7.447 -0.2581 -0.2314  0.5447
 3495WAT      O14699   7.612   7.360   6.906 -0.5711  0.1276 -0.1929
 3495WAT     H114700   7.623   7.273   6.914 -0.3481  0.1754  0.0635
 3495WAT     H214701   7.679   7.393   6.951 -0.3889  0.4361 -0.6839
 3495WAT    EPW14702   7.623   7.352   6.914 -0.5113  0.1803 -0.2275
 3496WAT      O14703   2.673   6.330   6.458  0.2278  0.0466  0.9319
 3496WAT     H114704   2.591   6.347   6.484 -0.1677 -1.0970  0.5074
 3496WAT     H214705   2.718   6.330   6.532  0.0544  1.6395  1.0839
 3496WAT    EPW14706   2.667   6.333   6.473  0.1437  0.1130  0.8917
 3497WAT      O14707   5.024   0.809   2.431  0.3377 -0.9255 -0.2529
 3497WAT     H114708   5.104   0.837   2.410  0.4889 -0.2238  1.1544
 3497WAT     H214709   5.030   0.793   2.516 -1.3772  0.4107  0.1739
 3497WAT    EPW14710   5.036   0.810   2.440  0.1067 -0.6245  0.0180
 3498WAT      O14711   1.461   0.514   7.787  0.2611 -0.2743  0.2767
 3498WAT     H114712   1.435   0.542   7.709 -0.2873  1.3626  0.9789
 3498WAT     H214713   1.501   0.439   7.771  1.2693  0.6225 -1.7251
 3498WAT    EPW14714   1.463   0.507   7.773  0.3290  0.1000  0.0847
 3499WAT      O14715   7.574   6.451   7.543  0.2003 -0.1518 -0.4338
 3499WAT     H114716   7.655   6.465   7.573  0.4312 -1.7870 -0.2459
 3499WAT     H214717   7.560   6.521   7.492  1.4513  0.5067  0.0571
 3499WAT    EPW14718   7.584   6.464   7.540  0.4192 -0.2961 -0.3335
 3500WAT      O14719   4.291   0.511   5.974 -0.2375  0.7948  0.0293
 3500WAT     H114720   4.287   0.455   5.907  1.9711  0.4816  0.0654
 3500WAT     H214721   4.296   0.459   6.044 -0.0061  1.0552  0.2105
 3500WAT    EPW14722   4.291   0.495   5.975  0.1229  0.7870  0.0614
 3501WAT      O14723   5.373   7.267   5.420  0.5757 -0.3448 -0.1903
 3501WAT     H114724   5.316   7.301   5.363 -0.1214 -0.1781  0.5901
 3501WAT     H214725   5.404   7.197   5.378  1.2949  0.6693 -1.4113
 3501WAT    EPW14726   5.369   7.262   5.405  0.5789 -0.1704 -0.2554
 3502WAT      O14727   6.627   5.723   0.107 -0.6579 -0.4397  0.1589
 3502WAT     H114728   6.634   5.788   0.050 -1.5012  0.9220  1.5386
 3502WAT     H214729   6.710   5.700   0.122 -0.2281  1.3697  0.7779
 3502WAT    EPW14730   6.640   5.729   0.101 -0.7190  0.0288  0.4542
 3503WAT      O14731   1.662   5.858   6.767  0.4404 -0.2830  0.0722
 3503WAT     H114732   1.731   5.812   6.794 -0.0161 -0.3482  1.1622
 3503WAT     H214733   1.697   5.935   6.747  1.0578 -0.7744 -0.8379
 3503WAT    EPW14734   1.678   5.862   6.768  0.4642 -0.3652  0.0988
 3504WAT      O14735   0.356   0.223   5.941 -0.4433  0.4298 -0.5764
 3504WAT     H114736   0.271   0.225   5.920 -1.1367 -0.8826  1.6983
 3504WAT     H214737   0.368   0.140   5.964  1.5706  0.5338 -1.1205
 3504WAT    EPW14738   0.345   0.211   5.941 -0.2482  0.2513 -0.3208
 3505WAT      O14739   2.801   6.840   2.633 -0.0098  0.4395  0.2553
 3505WAT     H114740   2.741   6.878   2.584 -1.0897 -3.4082 -1.7390
 3505WAT     H214741   2.773   6.855   2.715 -3.5898 -0.8010 -0.5560
 3505WAT    EPW14742   2.788   6.848   2.638 -0.6982 -0.3121 -0.1592
 3506WAT      O14743   5.837   2.659   4.945  0.8092  0.0191 -0.0501
 3506WAT     H114744   5.792   2.724   4.982  0.6073  0.8172 -1.6339
 3506WAT     H214745   5.916   2.693   4.932  1.1764 -0.5811  0.5045
 3506WAT    EPW14746   5.842   2.673   4.949  0.8336  0.0483 -0.2022
 3507WAT      O14747   0.059   1.323   6.132 -0.2357 -0.0230 -0.1646
 3507WAT     H114748   0.124   1.283   6.175  0.4246  0.2629 -0.8782
 3507WAT     H214749  -0.013   1.283   6.161  0.3595 -1.2366 -0.3351
 3507WAT    EPW14750   0.058   1.312   6.143 -0.0502 -0.1600 -0.2952
 3508WAT      O14751   0.415   2.887   4.806 -0.0018  0.1700  0.4758
 3508WAT     H114752   0.418   2.800   4.806 -0.4681  0.1534  0.2430
 3508WAT     H214753   0.413   2.907   4.722 -3.7093  0.2546  0.4213
 3508WAT    EPW14754   0.415   2.877   4.794 -0.6184  0.1800  0.4334
 3509WAT      O14755   2.863   5.187   2.491 -0.0262 -0.5303 -0.6099
 3509WAT     H114756   2.898   5.110   2.470 -2.3763 -1.5943 -0.8712
 3509WAT     H214757   2.859   5.229   2.414  2.3260  0.4093 -0.3021
 3509WAT    EPW14758   2.868   5.182   2.477 -0.0259 -0.5487 -0.6030
 3510WAT      O14759   5.580   7.522   0.615 -0.5642  0.0227  0.0002
 3510WAT     H114760   5.582   7.435   0.619 -2.6850 -0.1928 -1.4813
 3510WAT     H214761   5.510   7.538   0.565  0.2384  2.5665 -0.4514
 3510WAT    EPW14762   5.570   7.512   0.608 -0.7590  0.3666 -0.2854
 3511WAT      O14763   4.252   6.026   5.309 -0.1919  0.1366 -0.5007
 3511WAT     H114764   4.249   5.959   5.253 -0.6436 -1.3643  1.2092
 3511WAT     H214765   4.223   5.991   5.383 -2.8660  2.8425 -0.0734
 3511WAT    EPW14766   4.247   6.011   5.311 -0.6536  0.3146 -0.1850
 3512WAT      O14767   3.465   5.389   2.459 -0.2015  0.3982 -0.5556
 3512WAT     H114768   3.421   5.460   2.435 -1.4375 -0.4644 -0.9701
 3512WAT     H214769   3.536   5.390   2.408  0.1733  1.6872 -0.0440
 3512WAT    EPW14770   3.469   5.400   2.448 -0.3287  0.4612 -0.5413
 3513WAT      O14771   3.366   6.771   0.570  0.0754  0.4733  1.0319
 3513WAT     H114772   3.333   6.770   0.490  0.8358 -0.4744  0.7161
 3513WAT     H214773   3.299   6.747   0.620 -0.0523 -0.2303  0.5333
 3513WAT    EPW14774   3.351   6.767   0.566  0.1688  0.2294  0.9116
 3514WAT      O14775   4.644   5.268   4.741  0.3953 -0.2608  0.0249
 3514WAT     H114776   4.673   5.314   4.672  1.1873 -1.1058 -0.2318
 3514WAT     H214777   4.588   5.211   4.705 -0.1030  0.0852  0.2509
 3514WAT    EPW14778   4.640   5.266   4.725  0.4387 -0.3345  0.0204
 3515WAT      O14779   3.395   7.226   2.122 -0.1450  0.1453 -0.0349
 3515WAT     H114780   3.419   7.275   2.053 -1.6164  0.7855 -0.1160
 3515WAT     H214781   3.471   7.201   2.156  0.6312 -0.1024 -1.8341
 3515WAT    EPW14782   3.410   7.229   2.117 -0.2477  0.2033 -0.3127
 3516WAT      O14783   5.026   4.123   6.560 -0.0095  0.2751 -0.6379
 3516WAT     H114784   5.090   4.133   6.503 -0.3746 -0.5530 -1.2101
 3516WAT     H214785   5.034   4.040   6.585  0.4668  0.7552  0.9227
 3516WAT    EPW14786   5.037   4.112   6.556  0.0069  0.2237 -0.4919
 3517WAT      O14787   2.282   6.249   2.939 -0.0668 -0.1293 -0.1200
 3517WAT     H114788   2.318   6.179   2.902 -0.6637 -0.3786 -0.2382
 3517WAT     H214789   2.350   6.288   2.978  0.1980 -1.0544  0.4007
 3517WAT    EPW14790   2.298   6.244   2.939 -0.1159 -0.3028 -0.0605
 3518WAT      O14791   7.232   7.139   0.130  0.1815  0.0427 -0.7933
 3518WAT     H114792   7.145   7.135   0.132  0.1028  1.2331 -0.7719
 3518WAT     H214793   7.254   7.093   0.059 -0.4008 -0.9163 -0.3660
 3518WAT    EPW14794   7.222   7.132   0.120  0.0839  0.0769 -0.7270
 3519WAT      O14795   6.417   2.814   7.704 -0.3736  0.1923 -0.1244
 3519WAT     H114796   6.494   2.851   7.724 -0.3598  0.8339 -1.2682
 3519WAT     H214797   6.433   2.771   7.630 -0.5753 -1.5823  0.8134
 3519WAT    EPW14798   6.431   2.813   7.696 -0.4014  0.0249 -0.1548
 3520WAT      O14799   5.298   0.749   2.909  0.1705  0.6781 -0.2909
 3520WAT     H114800   5.371   0.756   2.861 -0.9746  1.1930 -2.0204
 3520WAT     H214801   5.305   0.815   2.966  0.6807  1.2222 -0.9610
 3520WAT    EPW14802   5.310   0.760   2.910  0.0767  0.8345 -0.6454
 3521WAT      O14803   4.019   0.754   2.603  0.0863  0.4223 -0.3784
 3521WAT     H114804   4.020   0.764   2.516 -2.6669 -0.2178 -0.5772
 3521WAT     H214805   3.968   0.820   2.631 -0.0576 -0.0880  0.6138
 3521WAT    EPW14806   4.012   0.765   2.594 -0.3417  0.2524 -0.2612
 3522WAT      O14807   7.045   0.539   4.212  0.1119  0.4082 -0.1471
 3522WAT     H114808   6.959   0.524   4.221  0.0851  0.9005  0.5980
 3522WAT     H214809   7.081   0.462   4.232 -0.0869  0.7602  1.8367
 3522WAT    EPW14810   7.037   0.526   4.217  0.0785  0.5329  0.2560
 3523WAT      O14811   6.496   5.451   7.607  0.2848  0.3528  0.2969
 3523WAT     H114812   6.455   5.399   7.550 -2.0271  1.5931  0.6792
 3523WAT     H214813   6.470   5.419   7.684  0.4693  0.8426  0.5626
 3523WAT    EPW14814   6.486   5.438   7.610 -0.0295  0.6084  0.3927
 3524WAT      O14815   5.838   7.115   5.842 -0.0578 -0.0047  0.7675
 3524WAT     H114816   5.792   7.078   5.777  0.7303  1.9154 -0.9967
 3524WAT     H214817   5.921   7.106   5.816  0.3629 -0.2812  2.1430
 3524WAT    EPW14818   5.843   7.108   5.829  0.1208  0.2381  0.7101
 3525WAT      O14819   5.148   3.577   1.138  0.5643 -0.4378  0.3677
 3525WAT     H114820   5.063   3.559   1.140  0.2471  0.6314 -1.3881
 3525WAT     H214821   5.157   3.641   1.196 -0.2498  0.8858 -0.9171
 3525WAT    EPW14822   5.137   3.584   1.147  0.3972 -0.0843 -0.0814
 3526WAT      O14823   6.009   7.216   2.243  0.5205  0.9608 -0.8594
 3526WAT     H114824   6.034   7.158   2.303  0.9276  0.4743 -1.4798
 3526WAT     H214825   5.922   7.216   2.250  0.5967  1.7779  0.5013
 3526WAT    EPW14826   6.000   7.207   2.253  0.5919  1.0096 -0.7500
 3527WAT      O14827   5.516   1.433   4.485  0.9684  0.0322  0.1146
 3527WAT     H114828   5.561   1.474   4.422 -0.1538  0.5639 -0.3680
 3527WAT     H214829   5.482   1.364   4.444 -0.1892  0.6574 -0.0280
 3527WAT    EPW14830   5.518   1.429   4.469  0.6316  0.2031  0.0222
 3528WAT      O14831   0.332   7.640   4.767  0.2044 -0.0326  0.1697
 3528WAT     H114832   0.248   7.623   4.752 -0.0370 -1.3133  2.4082
 3528WAT     H214833   0.330   7.719   4.806  0.2914  0.8452 -1.5353
 3528WAT    EPW14834   0.319   7.649   4.771  0.1816 -0.0921  0.2485
 3529WAT      O14835   1.553   2.013   6.074 -0.3164  0.3593  0.1595
 3529WAT     H114836   1.618   1.961   6.046 -0.5531 -0.3604  0.8930
 3529WAT     H214837   1.594   2.088   6.092  0.0275  0.4532 -0.9633
 3529WAT    EPW14838   1.569   2.016   6.073 -0.3005  0.2669  0.1020
 3530WAT      O14839   1.784   6.657   2.617  0.1905  0.1352  0.1005
 3530WAT     H114840   1.752   6.631   2.540 -0.2303  0.8119  0.0308
 3530WAT     H214841   1.713   6.663   2.668  0.7007 -2.5831  1.2890
 3530WAT    EPW14842   1.768   6.654   2.613  0.2037 -0.1664  0.2657
 3531WAT      O14843   4.326   5.953   3.227  0.1954  0.0898 -0.4307
 3531WAT     H114844   4.349   5.890   3.171  0.4867  0.9122 -1.2457
 3531WAT     H214845   4.365   6.024   3.196 -0.2698  0.7172  0.3831
 3531WAT    EPW14846   4.335   5.954   3.214  0.1697  0.3040 -0.4309
 3532WAT      O14847   5.831   1.321   3.932 -0.3253  0.1962  0.3197
 3532WAT     H114848   5.895   1.333   3.990  1.6853 -2.2258 -1.2272
 3532WAT     H214849   5.834   1.393   3.883  2.0821 -0.3077 -0.4072
 3532WAT    EPW14850   5.841   1.334   3.933  0.3273 -0.2360 -0.0162
 3533WAT      O14851   6.020   2.019   0.230 -0.2035  0.1722 -0.3223
 3533WAT     H114852   6.004   2.053   0.151 -0.1133  0.7173 -0.1141
 3533WAT     H214853   5.946   2.032   0.273 -0.2625 -0.1535 -0.3275
 3533WAT    EPW14854   6.007   2.026   0.224 -0.1989  0.2046 -0.2923
 3534WAT      O14855   5.211   4.429   3.248 -0.1058 -0.9083 -0.0827
 3534WAT     H114856   5.293   4.440   3.222 -0.6241  3.0760 -0.6464
 3534WAT     H214857   5.218   4.410   3.333  1.3724 -0.7202 -0.1432
 3534WAT    EPW14858   5.224   4.428   3.257  0.0360 -0.2919 -0.1749
 3535WAT      O14859   7.520   7.292   7.759 -0.5435  0.4988  0.0950
 3535WAT     H114860   7.557   7.214   7.745 -0.9422  0.3003  0.1360
 3535WAT     H214861   7.548   7.340   7.692  1.5231  1.0008  1.2339
 3535WAT    EPW14862   7.530   7.287   7.747 -0.2971  0.5436  0.2693
 3536WAT      O14863   4.210   4.386   6.049  0.8511 -0.6660  0.5546
 3536WAT     H114864   4.146   4.347   6.004  1.3001 -0.5622 -0.1977
 3536WAT     H214865   4.183   4.382   6.131 -1.0860  1.0727  0.1125
 3536WAT    EPW14866   4.197   4.380   6.054  0.6313 -0.3938  0.3781
 3537WAT      O14867   5.285   2.581   2.253 -0.2884 -0.4315 -0.6706
 3537WAT     H114868   5.364   2.605   2.280 -0.0200 -0.1436 -1.6765
 3537WAT     H214869   5.235   2.650   2.272 -0.1994 -0.4204 -0.4762
 3537WAT    EPW14870   5.289   2.595   2.260 -0.2356 -0.3873 -0.7905
 3538WAT      O14871   1.671   1.540   4.775 -0.1670  0.1955  0.5081
 3538WAT     H114872   1.631   1.563   4.849 -0.0820 -0.7233  0.8463
 3538WAT     H214873   1.652   1.455   4.767 -2.3395  0.7661 -1.8463
 3538WAT    EPW14874   1.662   1.531   4.784 -0.4753  0.1440  0.2102
 3539WAT      O14875   0.243   6.719   4.580 -0.4231  0.1257  0.0505
 3539WAT     H114876   0.264   6.686   4.658 -0.2966  0.5704  0.2037
 3539WAT     H214877   0.165   6.682   4.563  0.3841 -1.4328 -0.4704
 3539WAT    EPW14878   0.234   6.708   4.589 -0.2852 -0.0388 -0.0038
 3540WAT      O14879   4.393   0.199   3.056 -0.6647  0.3265 -0.4835
 3540WAT     H114880   4.353   0.122   3.057  0.4062 -0.2569  1.2061
 3540WAT     H214881   4.475   0.180   3.078 -0.2927  1.9090 -0.3833
 3540WAT    EPW14882   4.400   0.185   3.060 -0.4515  0.4741 -0.2191
 3541WAT      O14883   3.673   0.282   2.902 -0.3903 -0.0705  0.2783
 3541WAT     H114884   3.639   0.236   2.835 -0.7911 -0.5516  0.7951
 3541WAT     H214885   3.719   0.345   2.863 -0.4715 -0.4501 -0.4516
 3541WAT    EPW14886   3.675   0.284   2.886 -0.4615 -0.1977  0.2468
 3542WAT      O14887   7.152   1.660   6.604  0.2333  0.8609 -0.5634
 3542WAT     H114888   7.186   1.599   6.656 -1.9642  1.1927  1.4507
 3542WAT     H214889   7.102   1.615   6.549 -0.7403  0.7332  0.3905
 3542WAT    EPW14890   7.149   1.644   6.604 -0.2351  0.8911 -0.1250
 3543WAT      O14891   3.186   6.900   1.586  0.4562  0.5311 -0.0065
 3543WAT     H114892   3.157   6.872   1.508  1.3781  0.9945 -0.5410
 3543WAT     H214893   3.161   6.984   1.588 -0.6931  0.1854  0.7793
 3543WAT    EPW14894   3.178   6.908   1.575  0.4226  0.5485  0.0306
 3544WAT      O14895   6.432   0.602   5.016 -0.3492  0.0842  0.7885
 3544WAT     H114896   6.468   0.565   5.086  0.7804  0.2214  0.3049
 3544WAT     H214897   6.479   0.675   5.005 -0.6877  0.2004  0.0494
 3544WAT    EPW14898   6.444   0.607   5.025 -0.2324  0.1216  0.6078
 3545WAT      O14899   4.063   6.465   3.599 -0.2234 -0.5131  0.4095
 3545WAT     H114900   4.050   6.500   3.521 -0.0401 -0.3422  0.4535
 3545WAT     H214901   4.150   6.465   3.607 -0.1870  2.9636  2.1460
 3545WAT    EPW14902   4.074   6.470   3.589 -0.1910  0.0257  0.6726
 3546WAT      O14903   3.018   7.172   0.769 -0.5559 -0.2451  0.1554
 3546WAT     H114904   2.989   7.141   0.693  0.5395  0.9479 -0.8150
 3546WAT     H214905   3.077   7.233   0.745 -0.0077  0.0075  1.9599
 3546WAT    EPW14906   3.022   7.177   0.754 -0.3131 -0.0315  0.2786
 3547WAT      O14907   6.193   6.552   1.459 -0.3176 -0.6846 -0.4940
 3547WAT     H114908   6.230   6.474   1.471 -1.1621 -1.1093 -0.6371
 3547WAT     H214909   6.262   6.606   1.453  0.2896 -1.4857 -0.9324
 3547WAT    EPW14910   6.209   6.549   1.460 -0.3526 -0.8657 -0.5799
 3548WAT      O14911   4.063   1.265   4.175  0.2151  0.8407 -0.2203
 3548WAT     H114912   4.029   1.221   4.107 -0.3966 -0.1449  0.6901
 3548WAT     H214913   4.085   1.342   4.140 -1.4546  0.9194 -1.2209
 3548WAT    EPW14914   4.061   1.270   4.159 -0.1219  0.7067 -0.2336
 3549WAT      O14915   3.255   7.605   0.281  0.0438 -0.0139 -0.2367
 3549WAT     H114916   3.223   7.677   0.244  2.9716  1.7247  0.3178
 3549WAT     H214917   3.265   7.551   0.214 -1.4317  0.3592 -0.7974
 3549WAT    EPW14918   3.251   7.608   0.266  0.2584  0.2980 -0.2376
 3550WAT      O14919   4.714   6.391   6.888 -0.4421 -0.0912  0.2001
 3550WAT     H114920   4.685   6.465   6.925  0.0291 -0.3744  1.1698
 3550WAT     H214921   4.792   6.380   6.925 -0.8655 -1.5208  0.7184
 3550WAT    EPW14922   4.721   6.400   6.899 -0.4350 -0.3442  0.4199
 3551WAT      O14923   2.214   1.086   1.439  0.3022 -0.2934 -0.2239
 3551WAT     H114924   2.256   1.162   1.429 -1.5351  0.7372 -0.5530
 3551WAT     H214925   2.218   1.050   1.360  2.2423 -1.1660  0.2279
 3551WAT    EPW14926   2.221   1.092   1.426  0.3174 -0.2701 -0.2057
 3552WAT      O14927   3.101   5.547   0.859 -0.0799  0.4515  0.7995
 3552WAT     H114928   3.063   5.513   0.930  1.4320 -0.5636  1.1521
 3552WAT     H214929   3.053   5.514   0.793 -0.4186 -0.0214  1.2680
 3552WAT    EPW14930   3.088   5.537   0.860  0.0934  0.2317  0.9208
 3553WAT      O14931   4.902   0.112   1.155  0.9366  0.1580  0.7112
 3553WAT     H114932   4.973   0.117   1.205  1.2557 -1.2834  0.4515
 3553WAT     H214933   4.837   0.106   1.214  1.2668 -1.0227  0.9942
 3553WAT    EPW14934   4.903   0.112   1.171  1.0325 -0.2294  0.7146
 3554WAT      O14935   4.593   6.263   1.307 -0.3292 -0.7056  0.2873
 3554WAT     H114936   4.667   6.220   1.324 -0.0662 -0.6746 -0.7146
 3554WAT     H214937   4.533   6.201   1.302 -0.2641 -0.7889  0.5327
 3554WAT    EPW14938   4.595   6.248   1.309 -0.2808 -0.7133  0.1756
 3555WAT      O14939   5.950   2.765   3.562  0.8376 -0.0927  0.1978
 3555WAT     H114940   6.019   2.749   3.510  1.3516 -0.5849  1.0011
 3555WAT     H214941   5.962   2.847   3.587  0.5035  0.1990 -0.5724
 3555WAT    EPW14942   5.962   2.775   3.558  0.8642 -0.1223  0.2027
 3556WAT      O14943   4.231   7.311   6.803  0.2295  0.3394  0.3004
 3556WAT     H114944   4.243   7.361   6.874  0.0413 -0.2363  0.7459
 3556WAT     H214945   4.167   7.257   6.827  0.2724  0.0361 -0.2576
 3556WAT    EPW14946   4.224   7.310   6.817  0.2080  0.2096  0.2838
 3557WAT      O14947   1.419   2.071   4.054  0.7170 -0.0977 -0.0516
 3557WAT     H114948   1.478   2.105   4.108  0.5813 -0.5348  0.3768
 3557WAT     H214949   1.350   2.057   4.105  1.0659 -1.8270 -0.0087
 3557WAT    EPW14950   1.418   2.074   4.069  0.7485 -0.4177  0.0180
 3558WAT      O14951   3.055   1.571   7.165 -0.4311  0.0618  0.2581
 3558WAT     H114952   3.011   1.521   7.109  0.4226 -0.9418  0.4651
 3558WAT     H214953   3.067   1.645   7.120  0.6031 -0.8661 -1.0684
 3558WAT    EPW14954   3.050   1.575   7.150 -0.1522 -0.2235  0.0927
 3559WAT      O14955   5.170   7.606   2.903 -0.4414 -0.2661  0.4619
 3559WAT     H114956   5.255   7.589   2.913  0.1201  1.0955 -1.3779
 3559WAT     H214957   5.152   7.657   2.971  0.5329  0.3402  0.3004
 3559WAT    EPW14958   5.180   7.611   2.914 -0.2145  0.0246  0.1663
 3560WAT      O14959   2.979   6.498   2.142  0.3299 -0.4991  0.2418
 3560WAT     H114960   2.913   6.550   2.121  0.6259  0.1102  0.7752
 3560WAT     H214961   2.943   6.418   2.145  0.0448 -0.4533 -1.3448
 3560WAT    EPW14962   2.964   6.494   2.140  0.3315 -0.4023  0.0862
 3561WAT      O14963   5.986   6.517   2.490  0.3881 -0.0815 -0.7071
 3561WAT     H114964   5.986   6.432   2.507  0.9795 -0.0943 -0.7483
 3561WAT     H214965   5.910   6.530   2.449  0.9240 -0.8634 -1.9996
 3561WAT    EPW14966   5.975   6.506   2.486  0.5546 -0.1989 -0.9041
 3562WAT      O14967   6.572   7.459   3.921 -0.1016 -0.1155  0.1301
 3562WAT     H114968   6.595   7.386   3.880  1.2266 -0.1430  0.8350
 3562WAT     H214969   6.526   7.431   3.989 -1.2478 -0.1513 -0.6474
 3562WAT    EPW14970   6.569   7.444   3.925 -0.0747 -0.1248  0.1194
 3563WAT      O14971   2.494   1.906   3.945  0.3094  0.1071 -0.3276
 3563WAT     H114972   2.481   1.820   3.939  0.2818  0.1944 -2.1198
 3563WAT     H214973   2.414   1.938   3.960 -0.0113 -0.0590 -1.5999
 3563WAT    EPW14974   2.480   1.898   3.946  0.2580  0.0955 -0.7803
 3564WAT      O14975   5.033   0.147   5.022 -0.0651  0.3893  0.1670
 3564WAT     H114976   5.014   0.189   4.948 -1.4082 -0.3285  0.0759
 3564WAT     H214977   5.054   0.067   4.995 -0.6079  0.1074  0.5535
 3564WAT    EPW14978   5.033   0.141   5.007 -0.3437  0.2416  0.2106
 3565WAT      O14979   6.228   5.226   3.753  0.0540  0.3180 -0.4326
 3565WAT     H114980   6.161   5.242   3.699 -1.0907  0.4006  0.9509
 3565WAT     H214981   6.277   5.170   3.708 -0.4850  0.9184 -1.8354
 3565WAT    EPW14982   6.225   5.220   3.738 -0.1947  0.4189 -0.4355
 3566WAT      O14983   5.672   6.832   7.542 -0.2215  0.4064 -0.4534
 3566WAT     H114984   5.691   6.904   7.496  0.5717  0.5769  0.1187
 3566WAT     H214985   5.601   6.855   7.588 -0.0439  0.7927 -0.3646
 3566WAT    EPW14986   5.665   6.846   7.542 -0.0781  0.4886 -0.3558
 3567WAT      O14987   5.541   1.102   3.803  0.3816  0.2225 -0.1921
 3567WAT     H114988   5.535   1.124   3.719  1.0404 -2.3059 -0.9887
 3567WAT     H214989   5.627   1.094   3.816  0.2438 -2.8983 -0.4049
 3567WAT    EPW14990   5.553   1.104   3.793  0.4586 -0.6120 -0.3412
 3568WAT      O14991   4.648   7.342   7.561 -0.3980 -0.3250 -0.1490
 3568WAT     H114992   4.673   7.423   7.541 -2.2838  0.0237 -1.3258
 3568WAT     H214993   4.699   7.322   7.629  2.4239  0.5626 -1.7943
 3568WAT    EPW14994   4.659   7.351   7.568 -0.2597 -0.1424 -0.5659
 3569WAT      O14995   1.936   1.931   5.513 -0.1187 -0.4203 -0.6050
 3569WAT     H114996   1.928   1.991   5.450 -1.2015  3.7396  3.0045
 3569WAT     H214997   2.014   1.947   5.549 -0.6701 -0.7053  0.8140
 3569WAT    EPW14998   1.946   1.942   5.509 -0.3601  0.1521  0.1378
 3570WAT      O14999   3.035   6.126   2.768 -0.1561 -0.3527 -0.6025
 3570WAT     H115000   2.996   6.203   2.776 -0.1460  0.0722 -3.4021
 3570WAT     H215001   2.995   6.076   2.827 -0.3225  1.6797  1.1115
 3570WAT    EPW15002   3.023   6.130   2.778 -0.1792  0.0103 -0.7629
 3571WAT      O15003   6.342   6.671   7.446  0.6899 -0.0291 -0.0677
 3571WAT     H115004   6.336   6.652   7.361  1.3613  0.4694 -0.2315
 3571WAT     H215005   6.414   6.720   7.451  0.1056  0.7851  0.6422
 3571WAT    EPW15006   6.351   6.675   7.434  0.7028  0.1648  0.0130
 3572WAT      O15007   5.827   4.254   1.039  0.2687  0.3899  0.0202
 3572WAT     H115008   5.817   4.178   1.082 -3.7287  1.1870  0.9030
 3572WAT     H215009   5.857   4.229   0.961 -1.3225 -2.2610  0.1211
 3572WAT    EPW15010   5.830   4.239   1.033 -0.5568  0.1161  0.1655
 3573WAT      O15011   7.695   2.896   4.182  0.3038  0.8019 -0.0314
 3573WAT     H115012   7.656   2.966   4.149 -4.3507 -2.1552 -1.9164
 3573WAT     H215013   7.640   2.870   4.245  2.2395 -0.7991  1.1280
 3573WAT    EPW15014   7.681   2.902   4.187 -0.0978  0.1286 -0.1386
 3574WAT      O15015   6.258   5.833   0.715 -0.3488 -0.3782 -0.2520
 3574WAT     H115016   6.209   5.865   0.651  1.6662  2.0870 -0.7128
 3574WAT     H215017   6.325   5.795   0.673 -0.3383 -1.0749  0.3742
 3574WAT    EPW15018   6.261   5.832   0.699 -0.0496 -0.1170 -0.2276
 3575WAT      O15019   6.013   2.882   5.853  0.1377 -0.0401  0.2053
 3575WAT     H115020   6.084   2.898   5.805  0.2919 -0.4404  0.2890
 3575WAT     H215021   5.973   2.818   5.809  0.6877 -0.9616  0.9846
 3575WAT    EPW15022   6.018   2.875   5.840  0.2417 -0.2353  0.3328
 3576WAT      O15023   6.847   0.480   4.523  0.1369 -0.1660  0.0143
 3576WAT     H115024   6.822   0.472   4.440 -0.9353  2.5613 -0.0284
 3576WAT     H215025   6.778   0.516   4.563  0.5934 -1.4455  2.1488
 3576WAT    EPW15026   6.833   0.484   4.517  0.0459  0.0479  0.3233
 3577WAT      O15027   2.442   0.921   4.602  0.1291 -0.3891 -0.1588
 3577WAT     H115028   2.468   0.874   4.670  0.7153  0.3502  0.1484
 3577WAT     H215029   2.420   0.998   4.637 -1.0259 -0.4936 -0.6195
 3577WAT    EPW15030   2.443   0.925   4.617  0.0451 -0.2953 -0.1815
 3578WAT      O15031   3.651   1.192   3.767 -0.3355  0.3270 -0.0059
 3578WAT     H115032   3.724   1.171   3.723 -0.0505 -1.8998  1.3729
 3578WAT     H215033   3.681   1.217   3.845 -0.9623  1.9549 -0.2551
 3578WAT    EPW15034   3.666   1.193   3.772 -0.3860  0.2385  0.1610
 3579WAT      O15035   6.008   6.312   4.130 -0.5409 -0.5653  0.0799
 3579WAT     H115036   6.008   6.356   4.205  0.0269  1.2023 -0.8929
 3579WAT     H215037   5.924   6.297   4.115 -0.6881 -0.5107  0.8145
 3579WAT    EPW15038   5.996   6.316   4.139 -0.4788 -0.2961  0.0447
 3580WAT      O15039   2.101   1.806   5.801 -0.3591  0.0702 -0.4551
 3580WAT     H115040   2.032   1.753   5.799 -0.2661 -0.2481  1.9797
 3580WAT     H215041   2.168   1.753   5.818  0.1583  0.6371 -0.6773
 3580WAT    EPW15042   2.101   1.790   5.803 -0.2689  0.1069 -0.1283
 3581WAT      O15043   4.639   1.379   4.581 -0.0462  0.3515 -0.3421
 3581WAT     H115044   4.644   1.296   4.553 -1.4276  0.6243 -1.5252
 3581WAT     H215045   4.673   1.375   4.661 -0.9274 -1.5480  0.0104
 3581WAT    EPW15046   4.645   1.366   4.588 -0.3804  0.1112 -0.4648
 3582WAT      O15047   1.737   3.129   6.915 -0.3099  0.2287  0.1319
 3582WAT     H115048   1.723   3.043   6.907 -0.9504  0.2894  0.5073
 3582WAT     H215049   1.728   3.142   7.001 -2.9035  1.1002 -0.1972
 3582WAT    EPW15050   1.734   3.118   6.927 -0.7876  0.3664  0.1387
 3583WAT      O15051   2.584   1.009   5.544  0.0355 -0.1811  0.1661
 3583WAT     H115052   2.640   1.075   5.553  0.2948 -0.0741 -1.9363
 3583WAT     H215053   2.561   1.012   5.460 -2.9265 -0.3958  0.8528
 3583WAT    EPW15054   2.589   1.019   5.533 -0.3637 -0.1970 -0.0430
 3584WAT      O15055   6.507   1.865   5.355 -0.4745 -0.0967  0.1691
 3584WAT     H115056   6.433   1.832   5.323 -0.8769  0.0931  0.8974
 3584WAT     H215057   6.493   1.869   5.441 -0.5261  2.1193  0.1232
 3584WAT    EPW15058   6.494   1.861   5.363 -0.5415  0.2587  0.2699
 3585WAT      O15059   4.324   6.628   3.840  0.4078  0.3697  0.2975
 3585WAT     H115060   4.396   6.668   3.868  0.4212 -0.8626  2.2309
 3585WAT     H215061   4.354   6.566   3.787  0.6194  0.8894 -0.2035
 3585WAT    EPW15062   4.339   6.625   3.837  0.4411  0.2644  0.5091
 3586WAT      O15063   3.630   2.210   3.796  0.4215 -0.5432  0.2612
 3586WAT     H115064   3.559   2.251   3.826  0.4144 -1.0221  0.9340
 3586WAT     H215065   3.610   2.125   3.806  1.0387 -0.6813  0.3326
 3586WAT    EPW15066   3.617   2.203   3.802  0.5116 -0.6343  0.3711
 3587WAT      O15067   4.420   7.338   3.274  0.0309  0.0636 -0.4420
 3587WAT     H115068   4.379   7.362   3.347  1.0689  0.2819  0.0822
 3587WAT     H215069   4.378   7.265   3.250 -2.3071  1.5823 -1.3359
 3587WAT    EPW15070   4.408   7.331   3.281 -0.1612  0.3202 -0.4966
 3588WAT      O15071   4.555   6.702   2.493  0.8315  0.8405 -0.6776
 3588WAT     H115072   4.535   6.745   2.420  1.4754  0.7192 -0.9292
 3588WAT     H215073   4.486   6.651   2.506  1.1749  0.0418 -1.8252
 3588WAT    EPW15074   4.542   6.701   2.484  0.9773  0.7046 -0.8843
 3589WAT      O15075   3.350   1.157   5.707 -0.2007  0.3082  0.6716
 3589WAT     H115076   3.436   1.145   5.701 -0.2300 -0.0331  0.9337
 3589WAT     H215077   3.317   1.095   5.655 -0.2858  0.4939  0.5037
 3589WAT    EPW15078   3.358   1.146   5.698 -0.2176  0.2852  0.6855
 3590WAT      O15079   2.339   4.826   1.685 -0.2172  0.1248 -0.2787
 3590WAT     H115080   2.351   4.756   1.636 -0.7645  0.6813 -1.2435
 3590WAT     H215081   2.360   4.892   1.632  2.4196  0.6600  1.2475
 3590WAT    EPW15082   2.344   4.826   1.670  0.0915  0.2861 -0.1958
 3591WAT      O15083   3.110   0.409   5.410  0.7171 -0.1567  0.0244
 3591WAT     H115084   3.037   0.367   5.389  1.0343  0.0425 -1.5531
 3591WAT     H215085   3.125   0.384   5.492 -1.0516 -0.2740  0.3407
 3591WAT    EPW15086   3.102   0.399   5.419  0.5027 -0.1446 -0.1619
 3592WAT      O15087   4.377   1.867   2.654  0.0922  1.0739 -0.4277
 3592WAT     H115088   4.353   1.783   2.648  0.5565  0.8914  0.1452
 3592WAT     H215089   4.306   1.907   2.685  0.0602  0.7912 -0.1311
 3592WAT    EPW15090   4.363   1.861   2.658  0.1560  1.0052 -0.2993
 3593WAT      O15091   5.848   0.772   5.178  0.2552 -0.1160  0.2666
 3593WAT     H115092   5.833   0.726   5.106  1.1951 -0.2176  0.1227
 3593WAT     H215093   5.821   0.719   5.242  0.8372 -0.6628  0.0698
 3593WAT    EPW15094   5.842   0.757   5.177  0.4800 -0.2118  0.2162
 3594WAT      O15095   1.908   6.287   5.878 -0.2551 -0.1985 -0.1543
 3594WAT     H115096   1.990   6.279   5.852 -0.4670 -1.0166 -0.5970
 3594WAT     H215097   1.862   6.256   5.811 -0.9169  0.0763  0.1642
 3594WAT    EPW15098   1.913   6.281   5.864 -0.3842 -0.2788 -0.1727
 3595WAT      O15099   5.373   4.646   5.643  0.2006 -0.4752 -0.2753
 3595WAT     H115100   5.453   4.681   5.639  0.1471 -0.2843  0.2884
 3595WAT     H215101   5.323   4.713   5.669 -0.2871 -0.3707 -1.4402
 3595WAT    EPW15102   5.378   4.661   5.646  0.1207 -0.4316 -0.3641
 3596WAT      O15103   7.630   6.442   7.234 -0.3219 -0.2142 -0.2847
 3596WAT     H115104   7.686   6.420   7.298  0.4849 -2.2737 -1.5741
 3596WAT     H215105   7.555   6.404   7.259  0.3748 -2.3423 -1.1883
 3596WAT    EPW15106   7.627   6.433   7.247 -0.0998 -0.8328 -0.6086
 3597WAT      O15107   6.537   2.136   5.288 -0.1459  0.1745  0.1059
 3597WAT     H115108   6.618   2.140   5.256 -0.2114 -0.8640 -0.2427
 3597WAT     H215109   6.530   2.053   5.314 -0.8650  0.4322  0.7579
 3597WAT    EPW15110   6.548   2.124   5.287 -0.2618  0.0592  0.1507
 3598WAT      O15111   6.405   0.135   3.395  0.4153 -0.2039 -0.1756
 3598WAT     H115112   6.364   0.210   3.383 -1.0650 -0.8720  0.5235
 3598WAT     H215113   6.403   0.098   3.315 -0.2607 -0.1799 -0.1747
 3598WAT    EPW15114   6.399   0.140   3.381  0.0968 -0.2990 -0.0722
 3599WAT      O15115   6.333   6.053   3.438 -0.1952  0.6919 -0.0399
 3599WAT     H115116   6.306   5.997   3.499 -0.9006  0.4140 -0.5956
 3599WAT     H215117   6.420   6.045   3.439 -0.3095 -1.2431 -0.8605
 3599WAT    EPW15118   6.342   6.043   3.447 -0.3163  0.3650 -0.2432
 3600WAT      O15119   3.390   7.540   3.145 -0.1283 -0.6113 -0.3221
 3600WAT     H115120   3.335   7.538   3.213 -1.2467 -1.7565 -1.2269
 3600WAT     H215121   3.467   7.562   3.182 -1.3412  2.1632  0.8327
 3600WAT    EPW15122   3.394   7.543   3.161 -0.4727 -0.3706 -0.2852
 3601WAT      O15123   6.392   0.709   0.958 -0.1566  0.4137  0.7310
 3601WAT     H115124   6.393   0.623   0.972 -2.4929  0.2789  0.5467
 3601WAT     H215125   6.430   0.718   0.881  0.5637 -0.3985  0.9778
 3601WAT    EPW15126   6.398   0.697   0.949 -0.3953  0.2738  0.7402
 3602WAT      O15127   3.447   7.113   7.117  0.4285  0.1552 -0.1931
 3602WAT     H115128   3.366   7.096   7.089  0.2082 -0.2017  0.6399
 3602WAT     H215129   3.491   7.040   7.099  0.5091  0.2556 -0.4127
 3602WAT    EPW15130   3.442   7.100   7.110  0.4079  0.1173 -0.1025
 3603WAT      O15131   0.944   5.614   7.566  0.2696  0.1619  0.0551
 3603WAT     H115132   0.877   5.597   7.512  0.3444 -0.8432  0.2502
 3603WAT     H215133   0.984   5.537   7.573  1.5893  0.7989 -0.2339
 3603WAT    EPW15134   0.940   5.600   7.559  0.4756  0.1076  0.0412
 3604WAT      O15135   5.831   5.620   2.855 -0.0669  0.4724  0.4444
 3604WAT     H115136   5.797   5.556   2.904  0.4977 -0.2181 -0.0555
 3604WAT     H215137   5.898   5.582   2.814  0.2892  1.3897  0.1496
 3604WAT    EPW15138   5.836   5.605   2.856  0.0691  0.5059  0.3270
 3605WAT      O15139   2.103   6.024   7.575  0.2044 -0.2846  0.1267
 3605WAT     H115140   2.058   6.063   7.512 -1.2749  0.4389  1.5671
 3605WAT     H215141   2.106   5.940   7.550 -1.6383 -0.2825 -0.1843
 3605WAT    EPW15142   2.097   6.017   7.562 -0.2863 -0.1774  0.2935
 3606WAT      O15143   4.081   0.855   5.666 -0.2596  0.0023 -0.2718
 3606WAT     H115144   4.101   0.860   5.751  1.7080 -1.0176 -0.6131
 3606WAT     H215145   4.018   0.795   5.664 -0.1655 -0.1340  0.4318
 3606WAT    EPW15146   4.074   0.847   5.678  0.0449 -0.1685 -0.2183
 3607WAT      O15147   5.616   6.765   4.845  0.1208  0.1709  0.8278
 3607WAT     H115148   5.563   6.705   4.878  0.1499  0.5966  1.6923
 3607WAT     H215149   5.593   6.770   4.761 -1.2406  0.3912  1.2012
 3607WAT    EPW15150   5.605   6.757   4.837 -0.0760  0.2663  1.0106
 3608WAT      O15151   4.792   7.198   1.761  0.3383 -0.4481  0.4944
 3608WAT     H115152   4.876   7.184   1.779  0.5874 -2.4197 -1.6989
 3608WAT     H215153   4.794   7.242   1.686 -0.6482  0.9516  1.2302
 3608WAT    EPW15154   4.805   7.202   1.753  0.2294 -0.5326  0.2791
 3609WAT      O15155   4.514   5.697   6.874  0.0101 -0.0728 -0.1956
 3609WAT     H115156   4.531   5.675   6.792 -0.1248 -0.6094 -0.0843
 3609WAT     H215157   4.592   5.691   6.914 -0.1062 -0.7651 -0.0739
 3609WAT    EPW15158   4.528   5.693   6.868 -0.0270 -0.2544 -0.1612
 3610WAT      O15159   6.079   0.069   2.943 -0.2306 -0.1520  0.1772
 3610WAT     H115160   6.088   0.125   3.010  0.8569  0.6050 -0.5656
 3610WAT     H215161   6.009   0.098   2.901  0.7135  1.1060 -0.5881
 3610WAT    EPW15162   6.070   0.082   2.947  0.0695  0.1457 -0.0456
 3611WAT      O15163   3.462   0.038   4.700  0.5061  0.2266  0.1361
 3611WAT     H115164   3.446  -0.041   4.665 -1.2717  0.5116  0.1822
 3611WAT     H215165   3.512   0.020   4.768 -0.4042 -0.9871  0.5302
 3611WAT    EPW15166   3.467   0.023   4.705  0.1090  0.0894  0.2011
 3612WAT      O15167   0.382   2.737   6.931  1.0133 -0.1579 -0.0238
 3612WAT     H115168   0.354   2.681   6.992  0.2405  0.9236  0.6449
 3612WAT     H215169   0.468   2.725   6.930  0.8925 -1.1074  0.3515
 3612WAT    EPW15170   0.390   2.727   6.940  0.8813 -0.1384  0.1304
 3613WAT      O15171   6.496   1.685   3.189 -0.1689  0.8759 -0.1371
 3613WAT     H115172   6.477   1.719   3.268 -1.2636 -1.2375  0.5736
 3613WAT     H215173   6.509   1.601   3.206 -0.1027  0.4392 -2.1872
 3613WAT    EPW15174   6.495   1.678   3.203 -0.3208  0.4992 -0.3349
 3614WAT      O15175   0.336   5.272   6.022  0.0595 -0.4211 -0.1523
 3614WAT     H115176   0.310   5.320   5.954  2.0123 -0.2476 -0.8237
 3614WAT     H215177   0.322   5.190   5.995 -2.1588 -0.3354  0.5365
 3614WAT    EPW15178   0.330   5.267   6.008  0.0203 -0.3828 -0.1497
 3615WAT      O15179   4.169   2.709   2.139  0.2505 -0.3611  0.1037
 3615WAT     H115180   4.254   2.690   2.138  0.5457  0.8781 -0.2779
 3615WAT     H215181   4.151   2.724   2.055  0.1179  1.2094  0.3763
 3615WAT    EPW15182   4.179   2.709   2.126  0.2745  0.0540  0.0876
 3616WAT      O15183   3.612   0.234   3.664  0.0519  0.1029 -0.1875
 3616WAT     H115184   3.681   0.286   3.653 -1.5570  2.2990 -0.6640
 3616WAT     H215185   3.583   0.221   3.583  0.1422 -1.1974 -0.0314
 3616WAT    EPW15186   3.618   0.240   3.650 -0.1725  0.2353 -0.2348
 3617WAT      O15187   1.676   4.428   1.464 -0.3037 -0.2107 -0.6529
 3617WAT     H115188   1.624   4.457   1.400 -0.1824  1.7063  0.0502
 3617WAT     H215189   1.756   4.439   1.431 -0.2267  1.1740 -0.0489
 3617WAT    EPW15190   1.680   4.434   1.450 -0.2744  0.2770 -0.4598
 3618WAT      O15191   4.676   7.105   6.103 -0.0408 -0.6979 -0.1110
 3618WAT     H115192   4.761   7.084   6.101  0.3255  0.3082  1.8321
 3618WAT     H215193   4.677   7.186   6.138 -1.7904 -0.6799 -0.0404
 3618WAT    EPW15194   4.689   7.114   6.108 -0.2451 -0.5466  0.1865
 3619WAT      O15195   5.451   2.476   5.401 -0.0845 -0.1183 -0.0159
 3619WAT     H115196   5.437   2.558   5.373 -1.7965  0.3665  2.0074
 3619WAT     H215197   5.417   2.427   5.337 -1.3474  0.8456 -0.1299
 3619WAT    EPW15198   5.444   2.481   5.387 -0.5240  0.0957  0.2661
 3620WAT      O15199   5.027   1.586   1.394  0.0854  1.4384 -0.0084
 3620WAT     H115200   5.054   1.502   1.393 -1.7034  0.8335 -0.8076
 3620WAT     H215201   5.089   1.626   1.441 -0.2394 -0.7916  2.6037
 3620WAT    EPW15202   5.040   1.579   1.401 -0.2268  1.0196  0.2594
 3621WAT      O15203   0.060   3.777   6.418  0.1026 -0.2601  0.0541
 3621WAT     H115204  -0.007   3.809   6.373 -0.3892 -1.0787  0.1854
 3621WAT     H215205   0.082   3.842   6.472 -0.6768 -0.0319  0.1071
 3621WAT    EPW15206   0.053   3.792   6.420 -0.0852 -0.3473  0.0813
 3622WAT      O15207   2.686   1.193   4.774  0.3976 -0.2535  0.1747
 3622WAT     H115208   2.608   1.228   4.758 -0.3504 -1.6092  0.6286
 3622WAT     H215209   2.721   1.183   4.695 -2.0569 -4.2474 -0.6727
 3622WAT    EPW15210   2.680   1.197   4.760 -0.0755 -1.0437  0.1166
 3623WAT      O15211   7.468   6.705   7.445  0.4772 -0.0152  0.4802
 3623WAT     H115212   7.455   6.739   7.524 -0.1877  0.1955  0.2837
 3623WAT     H215213   7.488   6.774   7.396 -0.0050 -0.0212  0.2719
 3623WAT    EPW15214   7.469   6.720   7.450  0.3078  0.0151  0.4204
 3624WAT      O15215   5.740   0.690   0.371 -0.4110 -0.0173  0.0439
 3624WAT     H115216   5.704   0.769   0.367  2.4271  1.3738 -0.5574
 3624WAT     H215217   5.751   0.677   0.457 -1.4403 -0.0711  0.1806
 3624WAT    EPW15218   5.737   0.700   0.383 -0.1438  0.1802 -0.0247
 3625WAT      O15219   2.670   1.671   0.100  0.2659 -0.1954  0.2889
 3625WAT     H115220   2.605   1.658   0.043  0.0443  2.2144 -0.1058
 3625WAT     H215221   2.740   1.636   0.060 -0.2026 -0.0393 -0.6918
 3625WAT    EPW15222   2.671   1.664   0.086  0.1640  0.1836  0.0857
 3626WAT      O15223   6.655   5.929   0.543  0.2278  0.3831  0.4655
 3626WAT     H115224   6.619   5.984   0.600  1.1538  2.9621 -1.2762
 3626WAT     H215225   6.731   5.908   0.581  0.1374  0.7847  0.8815
 3626WAT    EPW15226   6.661   5.934   0.557  0.3512  0.8234  0.2696
 3627WAT      O15227   5.530   4.282   5.474  0.4275 -0.3317  0.9476
 3627WAT     H115228   5.499   4.237   5.543 -1.3527  0.0515  0.4497
 3627WAT     H215229   5.498   4.239   5.406  4.3103 -2.3194  0.0938
 3627WAT    EPW15230   5.521   4.269   5.474  0.7381 -0.5687  0.7479
 3628WAT      O15231   2.272   0.083   6.638 -0.2759  0.3891 -0.3199
 3628WAT     H115232   2.218   0.137   6.595  0.1012  1.1206  0.0940
 3628WAT     H215233   2.324   0.052   6.575 -0.8414  0.0819 -0.6412
 3628WAT    EPW15234   2.272   0.087   6.622 -0.3038  0.4518 -0.3063
 3629WAT      O15235   5.283   0.332   7.170 -0.3207  0.0662  0.6135
 3629WAT     H115236   5.352   0.296   7.210  1.0581  1.9662  0.1268
 3629WAT     H215237   5.303   0.325   7.085 -1.7690 -1.2030  0.3332
 3629WAT    EPW15238   5.296   0.326   7.163 -0.3310  0.1594  0.5002
 3630WAT      O15239   3.136   6.838   3.755 -0.0703 -0.0337 -0.0951
 3630WAT     H115240   3.207   6.832   3.705 -0.9327 -2.5496 -1.2181
 3630WAT     H215241   3.096   6.910   3.725  1.3778  0.7370 -0.2685
 3630WAT    EPW15242   3.141   6.848   3.743  0.0162 -0.2915 -0.2866
 3631WAT      O15243   3.622   7.163   5.887 -0.5822  0.2876  0.2869
 3631WAT     H115244   3.553   7.120   5.920 -0.1181  0.2061  1.2058
 3631WAT     H215245   3.596   7.246   5.886 -0.7666  0.2331  0.4392
 3631WAT    EPW15246   3.608   7.169   5.892 -0.5409  0.2675  0.4452
 3632WAT      O15247   4.903   7.511   0.817  0.4805 -0.2762 -0.2232
 3632WAT     H115248   4.871   7.590   0.837 -0.7365 -0.8254  0.0462
 3632WAT     H215249   4.978   7.530   0.777 -0.0445  1.0406 -0.6519
 3632WAT    EPW15250   4.909   7.525   0.814  0.2232 -0.1628 -0.2467
 3633WAT      O15251   1.841   4.370   1.874 -0.7761  0.3523  0.1889
 3633WAT     H115252   1.788   4.395   1.939 -0.7249 -0.4413  0.5581
 3633WAT     H215253   1.787   4.333   1.816 -0.6956 -0.0369  0.3527
 3633WAT    EPW15254   1.825   4.368   1.875 -0.7566  0.1776  0.2677
 3634WAT      O15255   0.153   7.671   5.610  0.0259  0.7680  0.3474
 3634WAT     H115256   0.172   7.738   5.557  0.6319  1.1656  1.0635
 3634WAT     H215257   0.181   7.602   5.566  0.8337  1.1259  0.2917
 3634WAT    EPW15258   0.160   7.671   5.596  0.2347  0.8796  0.4450
 3635WAT      O15259   4.575   5.451   5.479 -0.8110 -0.4165  0.1126
 3635WAT     H115260   4.620   5.386   5.517 -1.5977 -1.1898 -0.2420
 3635WAT     H215261   4.509   5.410   5.440 -1.5921  0.6593  0.2648
 3635WAT    EPW15262   4.572   5.435   5.478 -1.0426 -0.3718  0.0827
 3636WAT      O15263   6.666   7.136   6.783 -0.0434 -0.2716 -0.0176
 3636WAT     H115264   6.691   7.053   6.777 -0.5673 -0.3682 -1.0118
 3636WAT     H215265   6.712   7.177   6.721 -0.5412 -0.0128 -0.2243
 3636WAT    EPW15266   6.676   7.130   6.773 -0.1943 -0.2476 -0.1950
 3637WAT      O15267   0.391   6.877   5.852  0.1610  0.0668 -0.3655
 3637WAT     H115268   0.404   6.893   5.767  1.0982  1.3994 -0.0044
 3637WAT     H215269   0.312   6.910   5.867  0.2209  0.3208 -0.6008
 3637WAT    EPW15270   0.382   6.884   5.841  0.3083  0.3012 -0.3470
 3638WAT      O15271   4.437   2.210   0.271 -0.1458  0.4494  0.0960
 3638WAT     H115272   4.470   2.197   0.191 -0.1190 -0.9897  0.3143
 3638WAT     H215273   4.354   2.232   0.255 -0.2248 -0.1489 -0.3190
 3638WAT    EPW15274   4.429   2.212   0.257 -0.1535  0.1485  0.0669
 3639WAT      O15275   5.728   5.316   7.007 -0.0371 -0.2957 -0.7400
 3639WAT     H115276   5.692   5.390   6.978 -0.9525 -1.6255 -3.3259
 3639WAT     H215277   5.794   5.344   7.057 -1.3589  2.2342 -0.2576
 3639WAT    EPW15278   5.733   5.331   7.010 -0.3676 -0.1184 -1.0507
 3640WAT      O15279   2.228   7.319   5.186 -0.5930 -0.4990  0.6595
 3640WAT     H115280   2.203   7.239   5.210  0.8508 -0.8390  1.1823
 3640WAT     H215281   2.308   7.306   5.152 -0.3347  0.7121  0.7476
 3640WAT    EPW15282   2.236   7.306   5.184 -0.3415 -0.3703  0.7498
 3641WAT      O15283   4.610   7.589   1.469  0.0934  0.1131 -0.2190
 3641WAT     H115284   4.655   7.514   1.474 -0.1345 -0.0024  0.2167
 3641WAT     H215285   4.542   7.569   1.418  0.0415  0.0245 -0.1165
 3641WAT    EPW15286   4.606   7.575   1.462  0.0521  0.0830 -0.1395
 3642WAT      O15287   1.609   5.677   1.174  0.5472  0.1154  0.6206
 3642WAT     H115288   1.568   5.733   1.122 -0.2868  0.1330  1.2743
 3642WAT     H215289   1.639   5.616   1.120 -2.0394 -0.9464  0.2895
 3642WAT    EPW15290   1.608   5.676   1.158  0.0419 -0.0388  0.6682
 3643WAT      O15291   3.772   1.325   1.764  0.0648 -0.4252  0.2374
 3643WAT     H115292   3.706   1.283   1.802 -0.4232  0.7707  0.7398
 3643WAT     H215293   3.739   1.351   1.688 -0.9091  2.3302  1.5038
 3643WAT    EPW15294   3.758   1.322   1.758 -0.1512  0.1585  0.4987
 3644WAT      O15295   4.468   0.036   1.726  0.2024  0.3397 -0.3519
 3644WAT     H115296   4.554   0.021   1.732  0.6399  0.5984 -3.6846
 3644WAT     H215297   4.460   0.077   1.649 -2.7038  2.4885  0.9129
 3644WAT    EPW15298   4.480   0.040   1.715 -0.1623  0.6953 -0.6574
 3645WAT      O15299   4.377   1.145   2.116  0.0005 -0.4599  0.0559
 3645WAT     H115300   4.436   1.193   2.073  0.4903 -1.1458 -0.0500
 3645WAT     H215301   4.386   1.066   2.081  0.1968 -0.9666  1.2186
 3645WAT    EPW15302   4.387   1.141   2.104  0.1018 -0.6361  0.2120
 3646WAT      O15303   3.689   3.989   0.625  0.0268 -0.2805  0.4361
 3646WAT     H115304   3.621   3.943   0.657 -0.4265 -0.1313 -0.2785
 3646WAT     H215305   3.744   3.927   0.598 -0.8348 -0.4695 -1.0559
 3646WAT    EPW15306   3.687   3.973   0.626 -0.1674 -0.2864  0.1101
 3647WAT      O15307   6.961   3.331   6.693  0.0307  0.2754  0.2292
 3647WAT     H115308   7.047   3.318   6.690  0.1819  1.2683 -0.2030
 3647WAT     H215309   6.954   3.416   6.712 -0.8526  0.3554 -0.4123
 3647WAT    EPW15310   6.973   3.342   6.696 -0.0775  0.4339  0.0706
 3648WAT      O15311   6.431   6.998   5.482 -0.3034 -0.5976 -0.5140
 3648WAT     H115312   6.372   6.935   5.470 -0.7753 -0.3557  0.4007
 3648WAT     H215313   6.432   7.008   5.569  1.5448 -1.0254 -0.4445
 3648WAT    EPW15314   6.422   6.990   5.493 -0.1001 -0.6251 -0.3686
 3649WAT      O15315   2.651   1.658   6.736  0.2768  0.3127  0.1434
 3649WAT     H115316   2.582   1.688   6.692  0.6484 -0.3531 -0.9261
 3649WAT     H215317   2.667   1.722   6.794 -0.8504  0.7475  0.0137
 3649WAT    EPW15318   2.643   1.672   6.738  0.1652  0.2786 -0.0337
 3650WAT      O15319   1.985   6.158   7.358  0.4856 -0.1877 -0.2166
 3650WAT     H115320   1.930   6.215   7.394  0.8841 -0.1491  0.3422
 3650WAT     H215321   2.051   6.208   7.331 -0.0732 -0.1246 -1.6010
 3650WAT    EPW15322   1.987   6.174   7.359  0.4619 -0.1726 -0.3385
 3651WAT      O15323   4.502   6.184   0.734 -0.0851 -0.7337  0.4977
 3651WAT     H115324   4.508   6.131   0.803 -0.9880 -2.1065 -0.4140
 3651WAT     H215325   4.418   6.203   0.730  0.0104 -0.3982 -0.0234
 3651WAT    EPW15326   4.491   6.179   0.743 -0.2044 -0.8869  0.2860
 3652WAT      O15327   4.950   2.904   0.588  0.1594  0.3842  0.2248
 3652WAT     H115328   4.864   2.896   0.575  0.4489 -1.5697 -0.8652
 3652WAT     H215329   4.956   2.946   0.664 -1.7392  1.2437 -0.0604
 3652WAT    EPW15330   4.938   2.909   0.597 -0.0783  0.2226  0.0216
 3653WAT      O15331   3.022   1.446   4.623  0.2728  0.3676 -0.2345
 3653WAT     H115332   3.006   1.516   4.672  0.6406  0.6827 -0.5621
 3653WAT     H215333   3.045   1.385   4.681 -4.5907 -1.0019  0.6684
 3653WAT    EPW15334   3.023   1.447   4.639 -0.3913  0.2118 -0.1495
 3654WAT      O15335   5.215   4.044   2.937 -0.5019 -0.1693 -0.2957
 3654WAT     H115336   5.163   4.112   2.956 -1.0620 -0.3657 -1.0573
 3654WAT     H215337   5.195   3.985   2.998 -0.3299  0.1806  0.1052
 3654WAT    EPW15338   5.204   4.046   2.949 -0.5592 -0.1466 -0.3490
 3655WAT      O15339   5.621   4.778   2.851 -0.0643 -0.4237  0.7243
 3655WAT     H115340   5.544   4.740   2.864 -0.5982  0.1615 -0.5417
 3655WAT     H215341   5.625   4.789   2.764  0.0270  2.3415  0.9665
 3655WAT    EPW15342   5.610   4.774   2.840 -0.1297  0.0712  0.5731
 3656WAT      O15343   5.664   3.224   5.570  0.0188  0.3279  0.3056
 3656WAT     H115344   5.705   3.171   5.514 -1.0730  1.0957 -1.2648
 3656WAT     H215345   5.586   3.237   5.534 -0.1394  2.1662  1.1823
 3656WAT    EPW15346   5.659   3.218   5.556 -0.1658  0.7129  0.2031
 3657WAT      O15347   4.670   1.083   7.449  0.2856 -0.2676 -0.3330
 3657WAT     H115348   4.746   1.074   7.408  0.8202  0.4676  0.4757
 3657WAT     H215349   4.692   1.096   7.532 -0.7035  0.3065 -0.1406
 3657WAT    EPW15350   4.684   1.084   7.455  0.2184 -0.0742 -0.1851
 3658WAT      O15351   4.460   5.833   0.695  0.8702 -1.0699  0.4574
 3658WAT     H115352   4.419   5.867   0.763 -0.2980 -1.6174  0.0532
 3658WAT     H215353   4.466   5.900   0.639  1.4915 -0.7188  0.9372
 3658WAT    EPW15354   4.455   5.848   0.697  0.7894 -1.0989  0.4685
 3659WAT      O15355   3.988   3.547   0.582  0.5726 -0.1043  0.5594
 3659WAT     H115356   3.956   3.488   0.638  2.1642 -0.2413  1.3721
 3659WAT     H215357   3.968   3.515   0.504 -0.8301 -0.4117  1.0167
 3659WAT    EPW15358   3.980   3.534   0.579  0.6005 -0.1699  0.7470
 3660WAT      O15359   2.653   6.285   6.950  0.3689  0.3505  1.0684
 3660WAT     H115360   2.592   6.310   7.007 -0.7291  1.9638 -0.6928
 3660WAT     H215361   2.684   6.210   6.984 -2.2680 -0.3088  2.2322
 3660WAT    EPW15362   2.649   6.278   6.964 -0.1828  0.4914  0.9802
 3661WAT      O15363   4.318   1.045   5.282  0.5615 -0.5824 -0.6678
 3661WAT     H115364   4.317   1.114   5.335  0.1177  1.3479 -2.9984
 3661WAT     H215365   4.387   1.059   5.231  1.0746 -2.4483 -0.5529
 3661WAT    EPW15366   4.328   1.057   5.282  0.5717 -0.5729 -0.9951
 3662WAT      O15367   7.733   7.116   6.810  0.1396  0.4451  0.0441
 3662WAT     H115368   7.733   7.063   6.741  1.4704  1.5642 -0.8585
 3662WAT     H215369   7.738   7.061   6.878  2.7677 -0.6424 -0.8887
 3662WAT    EPW15370   7.734   7.100   6.810  0.7244  0.4497 -0.2270
 3663WAT      O15371   4.528   1.413   2.152  0.1110 -0.1325 -0.5710
 3663WAT     H115372   4.463   1.465   2.178 -0.0605  1.1615 -3.2607
 3663WAT     H215373   4.598   1.464   2.155  0.8638 -1.1558  1.0613
 3663WAT    EPW15374   4.529   1.428   2.156  0.1968 -0.0925 -0.7272
 3664WAT      O15375   1.696   0.789   1.294  0.3896  0.4839 -0.1955
 3664WAT     H115376   1.680   0.817   1.212  2.8373  0.0370 -0.9076
 3664WAT     H215377   1.733   0.858   1.332  0.0757  0.4015  0.2659
 3664WAT    EPW15378   1.699   0.803   1.287  0.7048  0.4057 -0.2325
 3665WAT      O15379   0.414   6.740   4.207 -0.3803 -0.7786  0.2743
 3665WAT     H115380   0.458   6.745   4.282  1.9417 -0.0542 -1.0634
 3665WAT     H215381   0.382   6.658   4.208  0.4831 -1.1311  1.5815
 3665WAT    EPW15382   0.415   6.728   4.218  0.0902 -0.7236  0.2698
 3666WAT      O15383   4.460   5.169   5.592  0.3119  0.2045 -0.0141
 3666WAT     H115384   4.449   5.134   5.512 -2.3667 -2.3357  1.3013
 3666WAT     H215385   4.386   5.211   5.607  0.3305 -0.2637  1.5339
 3666WAT    EPW15386   4.448   5.170   5.582 -0.0810 -0.2399  0.4089
 3667WAT      O15387   7.628   4.990   7.817  0.4340 -0.3197 -0.1528
 3667WAT     H115388   7.562   5.045   7.835 -0.2900 -0.7034 -1.4714
 3667WAT     H215389   7.687   5.008   7.879 -0.2035  1.2165  0.0611
 3667WAT    EPW15390   7.627   5.001   7.829  0.2329 -0.1494 -0.3160
 3668WAT      O15391   0.008   1.241   5.829  0.0161 -0.0240  0.2705
 3668WAT     H115392  -0.006   1.280   5.906  0.3628  1.0284 -0.1789
 3668WAT     H215393   0.060   1.173   5.850 -1.3175 -0.8061  1.1835
 3668WAT    EPW15394   0.014   1.237   5.844 -0.1297  0.0159  0.3390
 3669WAT      O15395   1.698   4.947   6.665 -0.1880 -0.5078  0.5689
 3669WAT     H115396   1.717   4.945   6.750 -0.0482 -3.6164  0.5941
 3669WAT     H215397   1.628   4.895   6.658  0.6783 -1.5490 -1.3322
 3669WAT    EPW15398   1.690   4.939   6.676 -0.0393 -1.1208  0.2918
 3670WAT      O15399   3.459   7.292   0.012  0.1138  0.1413 -0.3663
 3670WAT     H115400   3.452   7.209   0.037  0.7512  0.8222  2.5298
 3670WAT     H215401   3.545   7.303   0.003  0.0856  0.6310 -0.0778
 3670WAT    EPW15402   3.471   7.281   0.015  0.2038  0.3142  0.1041
 3671WAT      O15403   4.444   3.746   2.374  0.2712  0.0196  0.1357
 3671WAT     H115404   4.401   3.713   2.442  0.9697  0.5259  0.8433
 3671WAT     H215405   4.405   3.823   2.360 -1.4824 -1.1052 -1.6337
 3671WAT    EPW15406   4.432   3.753   2.382  0.1153 -0.0717 -0.0212
 3672WAT      O15407   4.851   0.287   5.206 -0.2344  1.0114 -0.7073
 3672WAT     H115408   4.842   0.369   5.234  2.2760  0.5102  2.0566
 3672WAT     H215409   4.930   0.286   5.168  0.0788 -0.2405 -0.0943
 3672WAT    EPW15410   4.861   0.299   5.204  0.1827  0.7524 -0.2085
 3673WAT      O15411   1.712   1.374   0.271 -0.0656  0.6196  0.0430
 3673WAT     H115412   1.686   1.428   0.333 -0.6160  1.3439 -0.7909
 3673WAT     H215413   1.793   1.401   0.253 -0.3526  1.2112 -0.3984
 3673WAT    EPW15414   1.720   1.386   0.277 -0.1893  0.8140 -0.1454
 3674WAT      O15415   4.160   5.864   2.158  0.2905 -0.0642  0.1956
 3674WAT     H115416   4.180   5.780   2.151 -0.3059 -0.0891 -1.9629
 3674WAT     H215417   4.184   5.884   2.239  0.5544 -2.2689  0.7286
 3674WAT    EPW15418   4.166   5.855   2.169  0.2414 -0.3936 -0.0445
 3675WAT      O15419   2.941   0.414   0.321  0.0208  0.1905  0.1989
 3675WAT     H115420   2.903   0.389   0.246 -0.0317 -0.9020  0.5739
 3675WAT     H215421   2.876   0.413   0.379  0.0995  0.8629  0.3080
 3675WAT    EPW15422   2.926   0.410   0.318  0.0247  0.1284  0.2704
 3676WAT      O15423   5.113   5.421   4.104  0.5056  0.1044 -0.5009
 3676WAT     H115424   5.166   5.358   4.134 -0.2128 -0.2481  0.0730
 3676WAT     H215425   5.039   5.378   4.087  0.2906  0.6515 -0.9684
 3676WAT    EPW15426   5.110   5.405   4.106  0.3677  0.1331 -0.4852
 3677WAT      O15427   4.399   3.649   7.862 -0.3488  0.0154  0.0895
 3677WAT     H115428   4.312   3.659   7.862 -0.6420 -1.9504  1.3580
 3677WAT     H215429   4.416   3.615   7.784 -0.2388  3.0369 -1.3653
 3677WAT    EPW15430   4.389   3.646   7.851 -0.3759  0.1713  0.0620
 3678WAT      O15431   1.201   6.279   3.930  0.0545  0.2146  0.0425
 3678WAT     H115432   1.268   6.252   3.978 -0.2154 -0.4603  0.0519
 3678WAT     H215433   1.219   6.363   3.915  0.7906  0.0954  0.2197
 3678WAT    EPW15434   1.214   6.288   3.935  0.1233  0.0973  0.0700
 3679WAT      O15435   3.139   0.295   4.187 -0.2148  0.0841 -0.2883
 3679WAT     H115436   3.169   0.365   4.144 -0.8052  1.0037  0.7591
 3679WAT     H215437   3.212   0.248   4.201  0.2786  0.7664 -0.4889
 3679WAT    EPW15438   3.154   0.299   4.183 -0.2291  0.3207 -0.1632
 3680WAT      O15439   6.646   1.412   7.176 -0.4160  0.1667  0.3127
 3680WAT     H115440   6.663   1.491   7.211 -0.1424  0.6427 -0.8470
 3680WAT     H215441   6.559   1.408   7.179 -0.5646  1.3100 -1.2172
 3680WAT    EPW15442   6.636   1.423   7.182 -0.3975  0.4059 -0.0846
 3681WAT      O15443   2.895   6.674   6.346 -0.2019 -0.2937  0.6248
 3681WAT     H115444   2.824   6.685   6.297  0.8925  2.3104 -0.5492
 3681WAT     H215445   2.909   6.588   6.342 -0.9293 -0.4015 -2.5992
 3681WAT    EPW15446   2.887   6.663   6.338 -0.1477  0.0751 -0.0249
 3682WAT      O15447   1.926   4.947   1.168 -0.2201 -0.6279  0.1303
 3682WAT     H115448   2.010   4.946   1.192 -0.3938 -1.3302  0.7334
 3682WAT     H215449   1.921   4.881   1.110 -0.3740 -0.6528  0.1727
 3682WAT    EPW15450   1.938   4.937   1.163 -0.2685 -0.7353  0.2256
 3683WAT      O15451   4.819   2.975   1.570  0.7413  0.2683  0.2066
 3683WAT     H115452   4.828   2.938   1.648  1.5315  2.5453  1.2614
 3683WAT     H215453   4.859   2.919   1.516  2.2143 -0.2313  1.7594
 3683WAT    EPW15454   4.826   2.961   1.573  1.0756  0.5309  0.5918
 3684WAT      O15455   6.041   1.097   7.826  0.2232  0.5027  0.0457
 3684WAT     H115456   6.093   1.167   7.829  1.0208 -0.0938  0.8691
 3684WAT     H215457   6.094   1.031   7.847 -0.9646 -0.0583  1.5092
 3684WAT    EPW15458   6.057   1.097   7.830  0.1655  0.3317  0.3835
 3685WAT      O15459   1.897   3.164   0.053 -0.1481 -0.1129 -0.2375
 3685WAT     H115460   1.908   3.087   0.013 -3.2136 -0.0489 -1.5026
 3685WAT     H215461   1.811   3.166   0.070  0.0722  2.4653  0.9981
 3685WAT    EPW15462   1.886   3.153   0.049 -0.5684  0.2774 -0.2419
 3686WAT      O15463   2.555   6.613   4.061  0.0816 -0.5094  0.0920
 3686WAT     H115464   2.510   6.659   4.120 -2.3783 -3.3827  0.7169
 3686WAT     H215465   2.534   6.651   3.985  0.6580  1.2324  0.7524
 3686WAT    EPW15466   2.545   6.625   4.059 -0.1967 -0.6766  0.2819
 3687WAT      O15467   2.733   5.088   7.076 -0.7392  0.0969  0.2346
 3687WAT     H115468   2.800   5.144   7.077 -1.2757  0.8798  3.2067
 3687WAT     H215469   2.767   5.016   7.040  0.6000  1.5775 -1.6684
 3687WAT    EPW15470   2.748   5.085   7.071 -0.6206  0.4313  0.3925
 3688WAT      O15471   3.139   4.427   2.711 -0.0762  0.2169 -0.0706
 3688WAT     H115472   3.143   4.369   2.647  0.3930  0.2844 -0.1021
 3688WAT     H215473   3.109   4.380   2.779 -0.5684  0.1465 -0.3352
 3688WAT    EPW15474   3.135   4.411   2.712 -0.0796  0.2165 -0.1144
 3689WAT      O15475   5.782   6.495   0.445 -0.4224 -0.8958  0.3139
 3689WAT     H115476   5.717   6.494   0.386 -0.1496 -0.1645 -0.0119
 3689WAT     H215477   5.838   6.436   0.415 -0.7964 -1.3127  0.4318
 3689WAT    EPW15478   5.780   6.486   0.431 -0.4373 -0.8493  0.2832
 3690WAT      O15479   5.206   6.971   3.045  0.4078  0.2117 -0.0470
 3690WAT     H115480   5.129   6.929   3.037  1.9108 -2.3798 -3.8627
 3690WAT     H215481   5.263   6.906   3.059  2.4537  1.2950 -2.6120
 3690WAT    EPW15482   5.203   6.955   3.046  0.9321 -0.0111 -0.9896
 3691WAT      O15483   4.531   7.258   0.005  0.7088 -0.2147  0.6532
 3691WAT     H115484   4.608   7.249  -0.034  0.1875  0.0638 -0.4657
 3691WAT     H215485   4.489   7.317  -0.044  0.0850  0.2595  1.7164
 3691WAT    EPW15486   4.536   7.266  -0.008  0.5397 -0.1035  0.6450
 3692WAT      O15487   2.746   4.317   4.408 -0.5891  0.5827  0.3795
 3692WAT     H115488   2.800   4.370   4.453  0.5386  0.8874 -1.2272
 3692WAT     H215489   2.761   4.238   4.443 -1.0263  1.0489  1.6653
 3692WAT    EPW15490   2.756   4.313   4.420 -0.4871  0.6966  0.3321
 3693WAT      O15491   5.434   1.937   3.414 -0.1197 -0.1801  0.2096
 3693WAT     H115492   5.378   1.871   3.420 -2.8508  2.0146  1.2522
 3693WAT     H215493   5.420   1.969   3.334 -1.3324  1.0889  0.8900
 3693WAT    EPW15494   5.424   1.932   3.403 -0.7023  0.3316  0.4641
 3694WAT      O15495   1.145   5.662   0.024  0.2862 -0.3045  0.1279
 3694WAT     H115496   1.177   5.613   0.089  0.0418  0.2717  0.6906
 3694WAT     H215497   1.212   5.667  -0.032  1.8502  2.2098  1.9998
 3694WAT    EPW15498   1.160   5.656   0.026  0.4811  0.1521  0.4876
 3695WAT      O15499   5.085   5.182   6.231 -0.1998 -0.0261  0.2114
 3695WAT     H115500   5.043   5.246   6.189 -1.0941 -0.6770  0.0999
 3695WAT     H215501   5.058   5.190   6.313  0.3170  0.2380  0.3625
 3695WAT    EPW15502   5.075   5.193   6.237 -0.2555 -0.0833  0.2173
 3696WAT      O15503   5.940   0.588   1.216 -0.0868  0.5392  0.2734
 3696WAT     H115504   5.942   0.668   1.251  0.8094 -0.3407  2.4470
 3696WAT     H215505   5.919   0.602   1.133  1.6291  3.1868  0.1764
 3696WAT    EPW15506   5.937   0.602   1.209  0.2990  0.8003  0.5802
 3697WAT      O15507   4.105   4.218   5.628  0.2570  0.4290  0.8604
 3697WAT     H115508   4.041   4.265   5.593  2.6331  1.6294 -2.3037
 3697WAT     H215509   4.106   4.146   5.580  1.2039  0.3682  0.9640
 3697WAT    EPW15510   4.095   4.214   5.616  0.7479  0.5973  0.4083
 3698WAT      O15511   4.902   0.384   1.219  0.6400 -0.1270  0.0236
 3698WAT     H115512   4.979   0.392   1.178 -0.1052  0.5675 -1.3388
 3698WAT     H215513   4.878   0.302   1.201  1.2647 -0.5016  0.8568
 3698WAT    EPW15514   4.910   0.373   1.210  0.6222 -0.0798 -0.0546
 3699WAT      O15515   5.887   3.172   2.427 -0.0333  0.2737  0.0195
 3699WAT     H115516   5.816   3.138   2.464 -0.0601  0.5258  0.2049
 3699WAT     H215517   5.945   3.107   2.430  0.9569  1.1586  3.2603
 3699WAT    EPW15518   5.885   3.157   2.433  0.1090  0.4416  0.5256
 3700WAT      O15519   0.751   5.081   6.044 -0.3365  0.3488  0.3199
 3700WAT     H115520   0.688   5.070   5.983  0.4999  1.9801 -0.9081
 3700WAT     H215521   0.808   5.017   6.025 -1.4575 -1.0142  1.3097
 3700WAT    EPW15522   0.750   5.070   6.032 -0.3786  0.3884  0.2847
 3701WAT      O15523   5.528   3.839   7.678  0.1950  0.5739 -0.1669
 3701WAT     H115524   5.469   3.816   7.737  1.1739  2.2381  1.5866
 3701WAT     H215525   5.482   3.883   7.618 -0.9198 -1.7364 -1.1084
 3701WAT    EPW15526   5.513   3.842   7.678  0.1749  0.4785 -0.0470
 3702WAT      O15527   6.134   2.789   5.447  0.1365  0.1501 -0.0225
 3702WAT     H115528   6.133   2.853   5.387 -0.8950 -0.4993 -0.7266
 3702WAT     H215529   6.075   2.732   5.418 -1.4620  0.4608  2.3251
 3702WAT    EPW15530   6.126   2.790   5.434 -0.2520  0.1001  0.2203
 3703WAT      O15531   5.871   5.337   5.990  0.0510 -0.1741 -0.5390
 3703WAT     H115532   5.917   5.280   5.943 -1.3352 -1.5775 -0.2512
 3703WAT     H215533   5.856   5.296   6.065  3.0335  2.3610  1.7408
 3703WAT    EPW15534   5.876   5.323   5.994  0.2868 -0.0069 -0.1597
 3704WAT      O15535   5.486   0.102   4.760 -0.3410 -0.1894 -0.2189
 3704WAT     H115536   5.563   0.099   4.718 -0.8024  0.8928 -1.2163
 3704WAT     H215537   5.438   0.042   4.720 -0.9509  1.2030 -1.6815
 3704WAT    EPW15538   5.490   0.093   4.748 -0.4992  0.1761 -0.5823
 3705WAT      O15539   2.601   5.654   1.086  0.1517  0.1328  0.0103
 3705WAT     H115540   2.666   5.687   1.038  0.1581 -1.3079 -1.0422
 3705WAT     H215541   2.530   5.691   1.053  0.3605  1.2780  0.7867
 3705WAT    EPW15542   2.600   5.664   1.074  0.1835  0.0891 -0.0305
 3706WAT      O15543   2.361   3.373   1.072 -0.0041 -0.4439  0.2168
 3706WAT     H115544   2.333   3.324   1.138 -0.9291  0.5983  0.6152
 3706WAT     H215545   2.357   3.454   1.102 -0.8436  0.1025 -1.2283
 3706WAT    EPW15546   2.356   3.378   1.086 -0.2648 -0.2093  0.0622
 3707WAT      O15547   5.477   7.441   7.636 -0.3749  0.4662 -0.4517
 3707WAT     H115548   5.479   7.399   7.712 -2.3102 -0.5311 -0.8987
 3707WAT     H215549   5.540   7.402   7.589  1.4780  1.6920  0.8460
 3707WAT    EPW15550   5.487   7.429   7.640 -0.3870  0.5000 -0.3260
 3708WAT      O15551   4.446   5.969   6.913  0.0779 -0.0046  0.0518
 3708WAT     H115552   4.452   5.885   6.889 -1.5552  0.1060 -0.8609
 3708WAT     H215553   4.435   5.965   6.999  0.9535 -0.6687  0.1467
 3708WAT    EPW15554   4.445   5.956   6.922 -0.0340 -0.0864 -0.0690
 3709WAT      O15555   5.195   5.630   0.966 -0.1906 -0.3221 -0.2147
 3709WAT     H115556   5.277   5.602   0.970 -0.4468 -0.9674  3.1700
 3709WAT     H215557   5.192   5.671   0.889  3.3504  0.0139 -0.3565
 3709WAT    EPW15558   5.207   5.632   0.955  0.2946 -0.3678  0.2643
 3710WAT      O15559   5.165   2.643   2.000  0.4708 -0.1345 -0.3943
 3710WAT     H115560   5.199   2.721   1.985 -2.6110  1.3862 -0.2793
 3710WAT     H215561   5.224   2.604   2.051  2.6037  1.6487 -1.3451
 3710WAT    EPW15562   5.178   2.649   2.005  0.3306  0.3536 -0.5177
 3711WAT      O15563   4.768   4.713   6.450  0.1088 -0.9246 -0.6543
 3711WAT     H115564   4.825   4.721   6.384  0.4847 -1.5514 -0.4133
 3711WAT     H215565   4.819   4.700   6.519 -0.3387 -1.8563 -0.4885
 3711WAT    EPW15566   4.784   4.712   6.450  0.0982 -1.1548 -0.5942
 3712WAT      O15567   4.711   0.786   1.065 -0.0275  0.8436  0.1853
 3712WAT     H115568   4.748   0.759   0.991 -2.4601 -0.3808 -0.7024
 3712WAT     H215569   4.737   0.728   1.124 -0.2096  0.2315 -0.3316
 3712WAT    EPW15570   4.720   0.774   1.063 -0.4137  0.5723 -0.0222
 3713WAT      O15571   6.784   5.192   5.823 -0.1754  0.5370  0.0796
 3713WAT     H115572   6.760   5.142   5.755  0.7307  1.9766 -1.3624
 3713WAT     H215573   6.709   5.229   5.848 -0.4634  0.2633 -0.3557
 3713WAT    EPW15574   6.770   5.190   5.816 -0.0841  0.7092 -0.1977
 3714WAT      O15575   6.188   6.654   5.824 -0.5097  0.0813 -0.3784
 3714WAT     H115576   6.256   6.664   5.771  0.1264 -1.1563  0.1629
 3714WAT     H215577   6.154   6.734   5.830  0.1686  0.4812 -1.6067
 3714WAT    EPW15578   6.193   6.667   5.817 -0.3155 -0.0425 -0.4799
 3715WAT      O15579   2.586   4.431   2.732  0.1275  0.1093  0.0804
 3715WAT     H115580   2.530   4.462   2.673  0.3892 -0.9291 -0.7525
 3715WAT     H215581   2.564   4.347   2.739 -0.1212  0.2865  1.7412
 3715WAT    EPW15582   2.575   4.423   2.724  0.1294 -0.0179  0.2027
 3716WAT      O15583   2.415   3.421   4.822  0.2293  0.0294 -0.3547
 3716WAT     H115584   2.385   3.350   4.780 -1.8140  1.4550 -1.4965
 3716WAT     H215585   2.440   3.474   4.757 -2.0932  1.9161  0.1703
 3716WAT    EPW15586   2.415   3.419   4.806 -0.4156  0.5187 -0.4458
 3717WAT      O15587   3.927   6.959   1.347  0.7848 -0.0113  0.0679
 3717WAT     H115588   3.961   6.968   1.267 -0.1185 -1.7565 -0.5763
 3717WAT     H215589   3.989   6.915   1.390  1.3690  1.1273  0.4397
 3717WAT    EPW15590   3.941   6.954   1.341  0.7377 -0.1009  0.0276
 3718WAT      O15591   7.651   4.542   4.084  0.6500 -0.2606 -0.2731
 3718WAT     H115592   7.589   4.551   4.024  1.7382 -0.5473 -1.4838
 3718WAT     H215593   7.642   4.460   4.111  0.1289 -0.1169  0.0021
 3718WAT    EPW15594   7.641   4.531   4.079  0.7338 -0.2817 -0.4113
 3719WAT      O15595   6.963   6.297   7.248 -0.4456 -0.0567  0.5173
 3719WAT     H115596   7.005   6.231   7.286 -0.7735 -1.8484 -1.9995
 3719WAT     H215597   6.896   6.258   7.208 -1.3550  1.9801 -0.0601
 3719WAT    EPW15598   6.959   6.281   7.248 -0.6284 -0.0205  0.0602
 3720WAT      O15599   0.444   5.492   0.188  0.0330  0.1697  0.4228
 3720WAT     H115600   0.435   5.455   0.109 -1.2475  0.4914  0.4047
 3720WAT     H215601   0.502   5.557   0.173 -0.4724  0.4598 -0.3383
 3720WAT    EPW15602   0.452   5.496   0.174 -0.2308  0.2601  0.3077
 3721WAT      O15603   7.066   5.407   7.025 -0.1873 -0.3121 -0.2859
 3721WAT     H115604   6.986   5.375   7.040 -0.5988  0.0819 -1.4545
 3721WAT     H215605   7.068   5.416   6.938  0.9660  0.1089 -0.2346
 3721WAT    EPW15606   7.054   5.404   7.014 -0.0777 -0.1917 -0.4510
 3722WAT      O15607   3.012   3.003   5.373  0.6254 -0.0177  0.0692
 3722WAT     H115608   3.093   2.972   5.374  1.3821  1.7744  1.5430
 3722WAT     H215609   3.020   3.080   5.332  0.1608  1.1582  2.0312
 3722WAT    EPW15610   3.025   3.010   5.367  0.6685  0.4207  0.5767
 3723WAT      O15611   0.823   5.160   7.541  0.1528 -0.1371 -0.0780
 3723WAT     H115612   0.798   5.206   7.471 -0.8105  0.0505  0.3824
 3723WAT     H215613   0.883   5.212   7.578 -0.9683  0.8294  0.4753
 3723WAT    EPW15614   0.828   5.175   7.536 -0.1551  0.0334  0.0717
 3724WAT      O15615   2.071   2.721   7.150  0.3022  0.3111 -0.0779
 3724WAT     H115616   2.054   2.638   7.133  0.6776  0.5803 -1.9626
 3724WAT     H215617   2.156   2.730   7.130  0.1795  1.2227 -0.2571
 3724WAT    EPW15618   2.081   2.710   7.145  0.3395  0.4856 -0.3828
 3725WAT      O15619   5.007   0.237   6.226 -0.2118  0.1379  0.3109
 3725WAT     H115620   4.972   0.201   6.155 -0.8882  0.8033  0.2951
 3725WAT     H215621   5.061   0.175   6.256  0.3337 -0.0302 -0.9525
 3725WAT    EPW15622   5.010   0.222   6.220 -0.2311  0.2114  0.1219
 3726WAT      O15623   3.602   3.820   7.284  0.1995 -0.2850 -0.2310
 3726WAT     H115624   3.585   3.734   7.278  0.5472 -0.4414  0.7766
 3726WAT     H215625   3.557   3.855   7.218  0.5527 -1.3077 -1.0363
 3726WAT    EPW15626   3.593   3.812   7.274  0.3031 -0.4592 -0.2011
 3727WAT      O15627   5.053   5.553   2.685  0.2283 -0.6825 -0.5257
 3727WAT     H115628   5.069   5.626   2.729 -0.7689 -0.7005 -0.0993
 3727WAT     H215629   5.010   5.503   2.742 -0.8297 -0.8219 -1.3868
 3727WAT    EPW15630   5.049   5.556   2.700 -0.0753 -0.7058 -0.5899
 3728WAT      O15631   6.220   4.493   6.880 -0.0606 -0.2377  0.3177
 3728WAT     H115632   6.267   4.421   6.898 -1.4202 -1.0613  0.7657
 3728WAT     H215633   6.140   4.473   6.912 -0.5412  1.3582  0.1815
 3728WAT    EPW15634   6.215   4.479   6.888 -0.3324 -0.1236  0.3637
 3729WAT      O15635   7.330   4.414   4.553 -0.3711 -0.2345  0.1289
 3729WAT     H115636   7.283   4.362   4.501 -1.5654 -0.0144  0.9473
 3729WAT     H215637   7.292   4.405   4.631  1.7833 -1.0708  1.1405
 3729WAT    EPW15638   7.317   4.405   4.557 -0.2293 -0.3255  0.3992
 3730WAT      O15639   3.715   3.459   6.223 -0.7245  0.1365  0.0260
 3730WAT     H115640   3.667   3.476   6.152 -0.2509  1.7200  0.0558
 3730WAT     H215641   3.656   3.462   6.288 -0.6275  2.1736  0.0771
 3730WAT    EPW15642   3.699   3.462   6.222 -0.6402  0.6713  0.0379
 3731WAT      O15643   7.616   5.853   7.086  0.0006  0.3100  0.4580
 3731WAT     H115644   7.628   5.923   7.036 -0.1782  0.0326  0.0190
 3731WAT     H215645   7.536   5.826   7.064  0.3100 -0.3908  0.1633
 3731WAT    EPW15646   7.605   5.859   7.075  0.0199  0.1655  0.3496
 3732WAT      O15647   6.849   5.207   0.859  0.6220 -0.0767  0.0760
 3732WAT     H115648   6.910   5.215   0.921 -0.2384  0.4891  0.8714
 3732WAT     H215649   6.894   5.180   0.789  1.3875 -2.4055  1.3603
 3732WAT    EPW15650   6.865   5.204   0.858  0.6080 -0.3371  0.3832
 3733WAT      O15651   1.091   0.537   7.178  0.0030 -0.2648  0.2435
 3733WAT     H115652   1.006   0.535   7.156 -0.3003 -2.6968  1.3351
 3733WAT     H215653   1.090   0.528   7.265  1.3992  0.5652  0.3766
 3733WAT    EPW15654   1.078   0.536   7.188  0.1644 -0.5014  0.4244
 3734WAT      O15655   5.267   4.188   0.367  0.3055 -0.7982 -0.5416
 3734WAT     H115656   5.185   4.157   0.359 -0.1248  0.4653 -1.4176
 3734WAT     H215657   5.316   4.121   0.341 -0.4551 -1.5242 -0.1778
 3734WAT    EPW15658   5.262   4.173   0.362  0.1296 -0.7188 -0.6173
 3735WAT      O15659   5.250   7.255   5.688 -0.2864  0.2524 -0.5019
 3735WAT     H115660   5.298   7.287   5.623 -0.8563 -0.1628 -1.1416
 3735WAT     H215661   5.224   7.326   5.733  0.3046  0.5215 -0.5832
 3735WAT    EPW15662   5.253   7.270   5.685 -0.2833  0.2308 -0.6084
 3736WAT      O15663   4.614   1.234   3.095 -0.1052 -0.1121 -0.1469
 3736WAT     H115664   4.646   1.191   3.164 -0.7403 -1.5886 -0.7179
 3736WAT     H215665   4.533   1.202   3.087 -0.3057  0.5939 -1.1215
 3736WAT    EPW15666   4.606   1.223   3.104 -0.2286 -0.2259 -0.3752
 3737WAT      O15667   5.742   4.698   2.269 -0.2121  0.5509  0.0414
 3737WAT     H115668   5.807   4.692   2.327  1.3828 -1.2068 -1.8084
 3737WAT     H215669   5.710   4.778   2.284  2.1818  1.4006  1.2415
 3737WAT    EPW15670   5.747   4.709   2.280  0.3771  0.4168 -0.0545
 3738WAT      O15671   7.573   7.498   3.958 -0.1273 -0.0662 -0.1690
 3738WAT     H115672   7.575   7.433   4.016 -0.6758 -0.0356 -0.1057
 3738WAT     H215673   7.596   7.568   4.005 -0.1924 -0.1060 -0.0771
 3738WAT    EPW15674   7.576   7.499   3.974 -0.2179 -0.0676 -0.1461
 3739WAT      O15675   2.920   5.045   0.211  0.2017  0.2080 -0.4106
 3739WAT     H115676   2.866   4.983   0.241  0.5957  0.0244 -0.0611
 3739WAT     H215677   2.927   5.028   0.126  2.0104 -1.5777  0.0394
 3739WAT    EPW15678   2.913   5.034   0.203  0.5271 -0.0829 -0.2925
 3740WAT      O15679   6.786   5.321   4.323  0.1008  0.2695  0.2010
 3740WAT     H115680   6.870   5.296   4.322  0.2319  0.6537  0.8905
 3740WAT     H215681   6.759   5.297   4.403 -0.9398 -1.4193 -0.5901
 3740WAT    EPW15682   6.795   5.314   4.335 -0.0335  0.0768  0.1860
 3741WAT      O15683   4.583   2.032   7.635  0.5392  0.7124 -0.1224
 3741WAT     H115684   4.570   2.025   7.549  1.6917  0.2082 -0.2804
 3741WAT     H215685   4.601   1.951   7.659 -0.2580  0.7689  0.7030
 3741WAT    EPW15686   4.584   2.019   7.626  0.5917  0.6463 -0.0238
 3742WAT      O15687   4.233   2.089   6.647  0.1627  0.5186 -0.3520
 3742WAT     H115688   4.298   2.046   6.609  0.3696 -1.2738  1.7753
 3742WAT     H215689   4.268   2.119   6.721 -1.1085  0.5500  0.2813
 3742WAT    EPW15690   4.247   2.087   6.653  0.0055  0.2584  0.0558
 3743WAT      O15691   4.713   4.349   1.575 -0.5481 -0.3371 -0.4149
 3743WAT     H115692   4.716   4.279   1.627  1.1940  0.3389  0.4901
 3743WAT     H215693   4.768   4.405   1.614 -1.8225  1.5145 -1.1415
 3743WAT    EPW15694   4.722   4.347   1.589 -0.4790  0.0363 -0.3885
 3744WAT      O15695   6.801   4.132   6.394  0.0113 -0.0751 -0.1744
 3744WAT     H115696   6.747   4.184   6.439  0.6219 -0.7477  1.4118
 3744WAT     H215697   6.833   4.078   6.455 -0.1062 -1.9096 -1.6484
 3744WAT    EPW15698   6.798   4.132   6.410  0.0842 -0.4455 -0.1578
 3745WAT      O15699   7.426   1.211   4.201  0.2967 -0.8781 -0.0984
 3745WAT     H115700   7.354   1.253   4.227  0.7494 -0.0839 -0.1037
 3745WAT     H215701   7.398   1.159   4.138  0.0685  1.0523 -1.6956
 3745WAT    EPW15702   7.411   1.210   4.196  0.3299 -0.4756 -0.3352
 3746WAT      O15703   4.791   0.326   7.027 -0.4260  0.4105  0.1376
 3746WAT     H115704   4.814   0.367   7.100 -1.8205 -0.8648  1.3537
 3746WAT     H215705   4.756   0.389   6.977  0.0906  1.1966  0.7560
 3746WAT    EPW15706   4.789   0.341   7.030 -0.5557  0.3382  0.4086
 3747WAT      O15707   5.225   1.314   6.133  0.4606 -0.4499 -0.1160
 3747WAT     H115708   5.171   1.343   6.196  0.3083 -1.9976  0.5247
 3747WAT     H215709   5.304   1.327   6.166  0.4200  0.1052 -0.2408
 3747WAT    EPW15710   5.229   1.320   6.147  0.4321 -0.5965 -0.0398
 3748WAT      O15711   3.693   6.232   7.463  0.7300  0.1833  0.8467
 3748WAT     H115712   3.738   6.255   7.391 -0.2631  1.0302  0.4755
 3748WAT     H215713   3.675   6.148   7.450  1.0940  0.1692  0.3996
 3748WAT    EPW15714   3.697   6.223   7.451  0.6371  0.3063  0.7258
 3749WAT      O15715   0.128   2.236   7.538 -0.0589 -0.8644 -0.1830
 3749WAT     H115716   0.093   2.180   7.482 -1.1742  0.6306 -1.0470
 3749WAT     H215717   0.080   2.225   7.611  2.0853 -3.5962  1.0142
 3749WAT    EPW15718   0.116   2.226   7.541  0.0931 -1.0471 -0.1338
 3750WAT      O15719   4.198   5.084   0.291  0.3176  0.1395  0.3472
 3750WAT     H115720   4.261   5.144   0.301 -0.3141  0.6632  1.3729
 3750WAT     H215721   4.240   5.008   0.299  0.7868  0.4860  1.2194
 3750WAT    EPW15722   4.214   5.082   0.293  0.2936  0.2681  0.6276
 3751WAT      O15723   0.586   0.821   5.974  0.0155 -0.5063 -0.2269
 3751WAT     H115724   0.647   0.804   6.034 -1.4220 -0.1712  1.3886
 3751WAT     H215725   0.576   0.907   5.978 -0.9321 -0.6103 -0.0724
 3751WAT    EPW15726   0.593   0.831   5.983 -0.3368 -0.4722  0.0346
 3752WAT      O15727   4.157   0.563   1.787  0.1705 -0.4064  0.1767
 3752WAT     H115728   4.129   0.643   1.768  0.4379  0.1348  1.8654
 3752WAT     H215729   4.237   0.576   1.818  0.4924 -1.4093 -0.1927
 3752WAT    EPW15730   4.165   0.577   1.789  0.2576 -0.4746  0.3716
 3753WAT      O15731   5.566   0.465   7.551  0.1026  0.6516 -0.1212
 3753WAT     H115732   5.530   0.501   7.480  0.6030  1.6046  0.0946
 3753WAT     H215733   5.535   0.383   7.550 -1.3366  1.1668 -0.4269
 3753WAT    EPW15734   5.556   0.458   7.540 -0.0361  0.8685 -0.1345
 3754WAT      O15735   5.691   2.679   0.569  0.4212 -0.5178  0.0817
 3754WAT     H115736   5.683   2.596   0.594 -0.1220 -0.2604  0.7656
 3754WAT     H215737   5.677   2.724   0.641 -2.2319  0.2906 -0.8468
 3754WAT    EPW15738   5.688   2.673   0.583 -0.0510 -0.3603  0.0456
 3755WAT      O15739   5.083   7.538   4.902  0.8859 -0.4697  0.3818
 3755WAT     H115740   5.043   7.500   4.969  1.7512 -0.2034  1.0594
 3755WAT     H215741   5.168   7.526   4.918  1.2167  1.7532  0.6666
 3755WAT    EPW15742   5.089   7.531   4.914  1.0626 -0.1020  0.5240
 3756WAT      O15743   6.219   5.422   6.734 -0.2425 -0.1625 -0.2279
 3756WAT     H115744   6.197   5.348   6.694  0.9122  0.2154 -1.6407
 3756WAT     H215745   6.229   5.398   6.818  0.3485 -1.6738 -0.7027
 3756WAT    EPW15746   6.217   5.408   6.741  0.0153 -0.3299 -0.5067
 3757WAT      O15747   2.914   4.094   1.450  0.1102  0.2284 -0.4301
 3757WAT     H115748   2.902   4.143   1.522 -1.7002  0.2998 -0.7319
 3757WAT     H215749   2.877   4.142   1.387 -0.4511 -0.8906 -0.9779
 3757WAT    EPW15750   2.907   4.108   1.452 -0.2401  0.0737 -0.5556
 3758WAT      O15751   4.661   6.146   0.214 -0.1876  0.1472 -0.2616
 3758WAT     H115752   4.613   6.206   0.255 -0.0277 -0.3034  0.6049
 3758WAT     H215753   4.602   6.094   0.178 -0.3306  1.1063 -1.4756
 3758WAT    EPW15754   4.645   6.147   0.215 -0.1851  0.2223 -0.3130
 3759WAT      O15755   7.085   2.424   4.332  0.3855  0.3214 -0.0078
 3759WAT     H115756   7.101   2.388   4.410  0.7296  2.7845  1.1630
 3759WAT     H215757   7.025   2.371   4.296 -0.3113 -0.5038  2.2190
 3759WAT    EPW15758   7.079   2.411   4.338  0.3334  0.5633  0.4941
 3760WAT      O15759   2.019   7.265   3.640  0.5960 -0.2775  0.2540
 3760WAT     H115760   2.015   7.179   3.630  0.9853 -0.2879  0.1723
 3760WAT     H215761   2.097   7.279   3.677  0.4006  0.0126  0.5646
 3760WAT    EPW15762   2.030   7.255   3.644  0.6247 -0.2362  0.2878
 3761WAT      O15763   5.112   0.589   3.233  0.5083  0.0232 -0.0189
 3761WAT     H115764   5.103   0.664   3.277 -0.2850 -0.3225  0.4289
 3761WAT     H215765   5.197   0.571   3.239  0.8478  1.2661 -0.7640
 3761WAT    EPW15766   5.123   0.598   3.240  0.4413  0.1557 -0.0628
 3762WAT      O15767   4.742   0.035   2.123  0.5129  0.2034 -0.1505
 3762WAT     H115768   4.811   0.021   2.072  0.5322 -0.4118  0.0349
 3762WAT     H215769   4.740   0.121   2.132  0.8292  0.2774 -0.7513
 3762WAT    EPW15770   4.752   0.045   2.117  0.5625  0.1235 -0.2119
 3763WAT      O15771   5.843   6.146   6.828 -0.3351  0.1550 -0.9680
 3763WAT     H115772   5.872   6.213   6.780 -0.0016 -0.4646 -1.6534
 3763WAT     H215773   5.876   6.076   6.788 -0.6865 -0.4283 -0.2714
 3763WAT    EPW15774   5.852   6.146   6.815 -0.3378 -0.0227 -0.9663
 3764WAT      O15775   4.471   7.188   1.868 -0.5475  0.5206 -0.4188
 3764WAT     H115776   4.542   7.220   1.908 -0.4522  0.6273 -0.6757
 3764WAT     H215777   4.466   7.234   1.795 -1.1721  0.8622 -0.1717
 3764WAT    EPW15778   4.481   7.200   1.863 -0.6257  0.5868 -0.4203
 3765WAT      O15779   4.614   6.285   4.870  0.1223  0.0639 -0.3323
 3765WAT     H115780   4.648   6.213   4.834 -1.1858  0.1853 -1.9148
 3765WAT     H215781   4.590   6.333   4.802  0.9991  2.0781  0.6870
 3765WAT    EPW15782   4.616   6.281   4.855  0.0586  0.3794 -0.4155
 3766WAT      O15783   0.725   7.103   7.200 -0.4927  0.4375  0.3125
 3766WAT     H115784   0.760   7.053   7.263 -0.4794  1.4639  1.1418
 3766WAT     H215785   0.693   7.045   7.144  1.0038 -0.5352  0.3962
 3766WAT    EPW15786   0.726   7.087   7.201 -0.2696  0.4455  0.4473
 3767WAT      O15787   2.950   6.358   6.230  0.5760 -0.1525 -0.2992
 3767WAT     H115788   2.864   6.358   6.245  0.5551  2.5649  0.1600
 3767WAT     H215789   2.955   6.363   6.143  0.1723  0.9953 -0.2851
 3767WAT    EPW15790   2.938   6.359   6.219  0.5133  0.4184 -0.2293
 3768WAT      O15791   6.661   3.452   7.190 -0.4083 -0.2139  0.2017
 3768WAT     H115792   6.584   3.466   7.229 -0.0185  0.8646  0.6190
 3768WAT     H215793   6.652   3.372   7.156 -1.4099 -0.4447  0.9529
 3768WAT    EPW15794   6.648   3.443   7.191 -0.4987 -0.0887  0.3743
 3769WAT      O15795   1.120   5.760   6.963 -0.1143  0.4388 -0.1126
 3769WAT     H115796   1.151   5.792   6.888  0.6078 -0.8675 -0.4121
 3769WAT     H215797   1.163   5.805   7.024 -0.7433  1.5454 -0.4586
 3769WAT    EPW15798   1.131   5.771   6.961 -0.1005  0.4093 -0.2080
 3770WAT      O15799   4.841   6.868   6.890 -0.3051  0.0532  0.2697
 3770WAT     H115800   4.881   6.936   6.853 -0.8516 -0.3028 -1.0232
 3770WAT     H215801   4.907   6.815   6.911  0.1288  0.9268  1.2677
 3770WAT    EPW15802   4.857   6.871   6.888 -0.3217  0.1297  0.2262
 3771WAT      O15803   2.936   2.344   5.603 -0.2137 -0.5815 -0.4132
 3771WAT     H115804   2.865   2.373   5.643 -0.0591 -0.9259  0.1069
 3771WAT     H215805   2.981   2.304   5.666  0.5635 -0.1424 -0.6759
 3771WAT    EPW15806   2.932   2.343   5.618 -0.0760 -0.5675 -0.3751
 3772WAT      O15807   3.062   6.924   2.622 -0.1400  0.3281 -0.1124
 3772WAT     H115808   3.046   7.009   2.617 -0.8337  0.1306 -1.5273
 3772WAT     H215809   2.983   6.888   2.628  0.0331 -0.3276 -1.5358
 3772WAT    EPW15810   3.048   6.931   2.622 -0.2169  0.2021 -0.5317
 3773WAT      O15811   4.602   6.139   3.766 -0.7224 -0.1552  0.3793
 3773WAT     H115812   4.649   6.198   3.722 -1.3491 -0.0080 -0.1020
 3773WAT     H215813   4.655   6.114   3.830  0.5724 -1.0426 -0.9635
 3773WAT    EPW15814   4.617   6.144   3.769 -0.6237 -0.2645  0.1099
 3774WAT      O15815   5.838   6.180   1.271 -0.1472 -0.0674  0.1459
 3774WAT     H115816   5.783   6.177   1.204 -0.6750 -1.4027  0.6031
 3774WAT     H215817   5.901   6.234   1.244 -1.4374  1.1373 -0.5679
 3774WAT    EPW15818   5.839   6.187   1.257 -0.4158 -0.0867  0.1080
 3775WAT      O15819   5.175   2.573   7.411  0.1036 -0.3068 -0.5211
 3775WAT     H115820   5.208   2.628   7.471  1.7276 -0.2139 -1.4524
 3775WAT     H215821   5.138   2.510   7.459  1.3958 -0.2548  0.5991
 3775WAT    EPW15822   5.175   2.572   7.427  0.5344 -0.2854 -0.4932
 3776WAT      O15823   5.413   2.245   7.468 -0.0535 -0.2443  0.3887
 3776WAT     H115824   5.433   2.271   7.549 -1.2089  2.3690 -0.0476
 3776WAT     H215825   5.459   2.299   7.417 -0.9306 -0.4425 -0.6565
 3776WAT    EPW15826   5.422   2.257   7.473 -0.3538  0.1125  0.1699
 3777WAT      O15827   2.285   0.202   7.396  0.5914  0.2080  0.0270
 3777WAT     H115828   2.269   0.286   7.381  0.7789  0.4388  1.0483
 3777WAT     H215829   2.250   0.161   7.327  0.3568  1.1052 -0.3926
 3777WAT    EPW15830   2.278   0.208   7.383  0.5845  0.3746  0.1159
 3778WAT      O15831   2.583   0.675   5.059 -0.0094  0.3290  0.3905
 3778WAT     H115832   2.588   0.707   4.978 -0.3687  1.6196  0.8558
 3778WAT     H215833   2.660   0.696   5.095  0.3664 -0.7213  0.2334
 3778WAT    EPW15834   2.595   0.683   5.052 -0.0069  0.3645  0.4360
 3779WAT      O15835   6.155   5.232   6.512 -0.5175 -0.0086  0.3676
 3779WAT     H115836   6.076   5.197   6.527 -0.2198 -1.5666 -1.3021
 3779WAT     H215837   6.156   5.242   6.425  1.0053  0.2882  0.3984
 3779WAT    EPW15838   6.143   5.228   6.501 -0.2486 -0.1949  0.1255
 3780WAT      O15839   6.074   6.200   4.636  0.1030  0.3461 -0.4226
 3780WAT     H115840   6.029   6.273   4.653 -1.6654 -0.8377  0.2357
 3780WAT     H215841   6.048   6.177   4.556  0.8759  0.5754 -0.7476
 3780WAT    EPW15842   6.064   6.207   4.627 -0.0441  0.2051 -0.3734
 3781WAT      O15843   5.654   1.349   7.032 -0.6008 -0.2637  0.0711
 3781WAT     H115844   5.727   1.396   7.037 -0.1102 -0.9928 -0.0534
 3781WAT     H215845   5.631   1.355   6.948 -1.2166  0.7278  0.2930
 3781WAT    EPW15846   5.661   1.356   7.020 -0.6193 -0.2250  0.0855
 3782WAT      O15847   6.358   5.275   0.379  0.0335  0.2381  0.2444
 3782WAT     H115848   6.380   5.191   0.367 -1.2051  0.0664 -1.1019
 3782WAT     H215849   6.378   5.289   0.462  3.4991 -0.3688 -0.3185
 3782WAT    EPW15850   6.365   5.264   0.389  0.3625  0.1231 -0.0376
 3783WAT      O15851   6.074   5.790   4.923  0.3182 -1.1554 -0.0285
 3783WAT     H115852   6.074   5.878   4.926 -0.5828 -1.1795  1.2930
 3783WAT     H215853   6.041   5.772   4.844 -1.5378 -0.2995  0.5123
 3783WAT    EPW15854   6.069   5.801   4.912 -0.0890 -1.0325  0.2466
 3784WAT      O15855   6.654   7.591   1.023 -0.3968 -0.4619  0.0828
 3784WAT     H115856   6.707   7.628   1.081 -0.9374  1.6765 -0.7011
 3784WAT     H215857   6.639   7.511   1.057  1.1826 -0.1566  1.6285
 3784WAT    EPW15858   6.659   7.585   1.037 -0.2434 -0.1009  0.1954
 3785WAT      O15859   4.554   0.052   7.282  0.1249  0.2440  0.8259
 3785WAT     H115860   4.617   0.010   7.326  1.1498  1.3787  0.4746
 3785WAT     H215861   4.496  -0.011   7.266  1.8417 -1.1935 -0.1095
 3785WAT    EPW15862   4.555   0.036   7.286  0.5299  0.1993  0.6358
 3786WAT      O15863   6.019   4.801   6.795 -0.3227 -0.8227 -0.7956
 3786WAT     H115864   6.053   4.790   6.874  0.6938 -2.1915 -1.3937
 3786WAT     H215865   5.980   4.725   6.778 -1.7606 -0.0726 -1.0772
 3786WAT    EPW15866   6.018   4.788   6.804 -0.3849 -0.9141 -0.9255
 3787WAT      O15867   6.006   0.051   7.705  0.1350  0.2384  0.4914
 3787WAT     H115868   5.932   0.008   7.719  0.3642 -0.1255  0.5827
 3787WAT     H215869   6.004   0.115   7.765 -1.1115  1.5553 -0.8459
 3787WAT    EPW15870   5.995   0.054   7.716 -0.0153  0.3791  0.3073
 3788WAT      O15871   3.872   4.369   5.536 -0.0689  0.1262 -0.6947
 3788WAT     H115872   3.787   4.376   5.553  0.0130 -0.2030 -0.1054
 3788WAT     H215873   3.897   4.451   5.518 -0.0808  0.6253  1.2950
 3788WAT    EPW15874   3.863   4.382   5.536 -0.0585  0.1513 -0.3137
 3789WAT      O15875   5.444   7.013   4.112 -0.1926 -0.1069 -0.3086
 3789WAT     H115876   5.478   7.054   4.044  0.7648  0.4784  0.4873
 3789WAT     H215877   5.377   7.063   4.136  0.2244  0.3622 -0.0899
 3789WAT    EPW15878   5.439   7.026   4.106  0.0104  0.0489 -0.1587
 3790WAT      O15879   4.397   6.440   1.384 -0.6928 -0.2098 -0.3455
 3790WAT     H115880   4.433   6.487   1.448 -2.2595  1.5882 -0.6869
 3790WAT     H215881   4.463   6.391   1.354  0.7729  1.0255  0.7170
 3790WAT    EPW15882   4.412   6.440   1.389 -0.7077  0.2383 -0.2390
 3791WAT      O15883   1.778   6.329   7.455 -0.4704 -0.1089  0.3056
 3791WAT     H115884   1.807   6.411   7.459  0.9454 -0.5734  0.0127
 3791WAT     H215885   1.797   6.296   7.534  3.1769 -1.4325 -0.9008
 3791WAT    EPW15886   1.785   6.336   7.468  0.2775 -0.3730  0.0841
 3792WAT      O15887   5.163   5.385   2.333  0.9969 -0.2152 -0.3112
 3792WAT     H115888   5.133   5.335   2.398  2.0634 -1.8315 -1.0100
 3792WAT     H215889   5.111   5.365   2.266  1.9141 -1.0196 -0.8054
 3792WAT    EPW15890   5.151   5.375   2.332  1.2900 -0.5728 -0.4874
 3793WAT      O15891   5.889   7.668   0.525 -0.4357  0.2921  0.2073
 3793WAT     H115892   5.813   7.626   0.532 -0.4973  0.1844 -0.8825
 3793WAT     H215893   5.947   7.604   0.515 -0.5310  0.4230 -1.4715
 3793WAT    EPW15894   5.886   7.652   0.525 -0.4589  0.2955 -0.2017
 3794WAT      O15895   3.552   2.396   1.997 -0.0546  1.0443 -0.2482
 3794WAT     H115896   3.595   2.398   1.921 -0.3484  0.7822 -0.4263
 3794WAT     H215897   3.484   2.450   1.983  0.3099  1.6016  0.0926
 3794WAT    EPW15898   3.548   2.404   1.984 -0.0441  1.0879 -0.2241
 3795WAT      O15899   5.202   0.030   4.765  0.3510  0.1399 -0.3788
 3795WAT     H115900   5.144  -0.028   4.793  1.6427 -1.3333 -0.6603
 3795WAT     H215901   5.159   0.106   4.770 -1.4348 -0.8412 -0.1668
 3795WAT    EPW15902   5.187   0.033   4.770  0.2780 -0.2226 -0.3891
 3796WAT      O15903   1.391   6.308   5.446  0.0936 -0.6782  0.6337
 3796WAT     H115904   1.370   6.339   5.524 -0.1103  0.7710  0.0320
 3796WAT     H215905   1.458   6.359   5.421  0.8035 -1.7464  0.2594
 3796WAT    EPW15906   1.398   6.320   5.453  0.1684 -0.6219  0.4895
 3797WAT      O15907   6.816   3.274   6.203 -0.6295  0.0246 -0.0971
 3797WAT     H115908   6.853   3.272   6.124  0.0474 -0.4145  0.2272
 3797WAT     H215909   6.880   3.248   6.257 -1.2275 -0.1535  0.5413
 3797WAT    EPW15910   6.831   3.270   6.199 -0.6178 -0.0666  0.0452
 3798WAT      O15911   5.426   5.420   1.721  0.2224  0.0169 -0.6051
 3798WAT     H115912   5.388   5.371   1.783  1.4908 -1.4587 -0.9297
 3798WAT     H215913   5.465   5.361   1.670  1.0294  1.3388 -1.5542
 3798WAT    EPW15914   5.426   5.404   1.723  0.5290 -0.0058 -0.7933
 3799WAT      O15915   6.136   5.124   0.711  0.3246  0.0418  0.3043
 3799WAT     H115916   6.137   5.136   0.624 -0.9919 -1.9800 -0.0625
 3799WAT     H215917   6.220   5.108   0.730  0.7094  1.0071 -0.4888
 3799WAT    EPW15918   6.149   5.123   0.701  0.1870 -0.1143  0.1329
 3800WAT      O15919   0.153   4.413   5.393  0.0660 -0.2957  0.4719
 3800WAT     H115920   0.105   4.439   5.461  0.2290  0.5844  0.2587
 3800WAT     H215921   0.097   4.416   5.326  0.2935  0.2898  0.3046
 3800WAT    EPW15922   0.138   4.417   5.393  0.1237 -0.0792  0.4157
 3801WAT      O15923   3.895   2.543   0.077 -0.3020 -0.1239 -0.3240
 3801WAT     H115924   3.928   2.597   0.138 -0.4452 -1.9812  1.4875
 3801WAT     H215925   3.965   2.499   0.049 -0.4850 -0.4503 -0.2674
 3801WAT    EPW15926   3.911   2.545   0.082 -0.3502 -0.4465 -0.0481
 3802WAT      O15927   2.320   4.522   7.422 -0.0559  0.4540  0.2925
 3802WAT     H115928   2.372   4.586   7.449 -0.0705  1.4167 -1.7884
 3802WAT     H215929   2.288   4.551   7.346  1.2195 -2.6390 -1.6529
 3802WAT    EPW15930   2.323   4.536   7.415  0.1303  0.1393 -0.3023
 3803WAT      O15931   2.984   1.841   5.439 -0.3818  0.2528 -0.5881
 3803WAT     H115932   3.001   1.839   5.354  1.3447  0.7775 -0.3111
 3803WAT     H215933   2.924   1.903   5.447 -0.5126  0.2407 -1.4216
 3803WAT    EPW15934   2.978   1.850   5.428 -0.1461  0.3285 -0.6703
 3804WAT      O15935   7.360   7.274   7.358 -0.2362  0.4321  0.3207
 3804WAT     H115936   7.290   7.272   7.307 -0.9083 -0.4274  1.2333
 3804WAT     H215937   7.422   7.306   7.307 -0.7844 -0.7485 -1.1688
 3804WAT    EPW15938   7.359   7.278   7.343 -0.4165  0.1308  0.2355
 3805WAT      O15939   7.226   6.629   6.418 -0.0509 -0.4735  0.1673
 3805WAT     H115940   7.143   6.608   6.434 -0.0837 -0.0696  0.5335
 3805WAT     H215941   7.240   6.598   6.338  0.5109 -3.7474  1.3825
 3805WAT    EPW15942   7.216   6.621   6.408  0.0272 -0.8975  0.4009
 3806WAT      O15943   4.738   5.715   5.580 -0.3937  0.3611  0.2338
 3806WAT     H115944   4.771   5.677   5.509  0.1661 -1.5852  1.4467
 3806WAT     H215945   4.654   5.728   5.560 -0.4392 -0.9351 -0.5004
 3806WAT    EPW15946   4.730   5.711   5.567 -0.3177 -0.1179  0.3045
 3807WAT      O15947   5.809   5.282   4.065  0.1104 -0.1456 -0.6273
 3807WAT     H115948   5.874   5.338   4.084  0.5044 -1.1804  1.3375
 3807WAT     H215949   5.739   5.319   4.102  0.1353 -0.3956 -0.3350
 3807WAT    EPW15950   5.808   5.296   4.073  0.1723 -0.3354 -0.2938
 3808WAT      O15951   3.074   5.833   1.964 -0.0053 -0.0800 -0.4657
 3808WAT     H115952   3.099   5.914   1.983 -0.7250 -0.1999  1.1320
 3808WAT     H215953   3.013   5.844   1.902 -0.0198  0.5928 -0.3385
 3808WAT    EPW15954   3.068   5.846   1.957 -0.1138  0.0017 -0.2109
 3809WAT      O15955   6.083   6.061   4.878  0.0812 -0.8090  0.4628
 3809WAT     H115956   6.072   6.095   4.799  1.0061 -2.6058 -0.4897
 3809WAT     H215957   6.038   6.116   4.930 -1.3155 -0.0871 -1.3850
 3809WAT    EPW15958   6.075   6.074   4.874  0.0115 -0.9678  0.0491
 3810WAT      O15959   0.531   6.127   7.227 -0.1067 -0.0813  0.4198
 3810WAT     H115960   0.565   6.207   7.235  0.4364 -0.1139 -1.1869
 3810WAT     H215961   0.445   6.140   7.237 -0.0584  0.7778 -0.1911
 3810WAT    EPW15962   0.523   6.141   7.229 -0.0194  0.0408  0.0922
 3811WAT      O15963   2.192   6.892   4.138 -0.0244  0.2623 -0.1476
 3811WAT     H115964   2.169   6.954   4.082 -0.1181  1.4596  1.1443
 3811WAT     H215965   2.167   6.924   4.215  1.8568 -0.4191  0.8081
 3811WAT    EPW15966   2.185   6.906   4.141  0.2397  0.3385  0.1844
 3812WAT      O15967   4.102   0.093   6.753 -0.7468 -0.0143 -0.3440
 3812WAT     H115968   4.068   0.013   6.742 -1.5562 -0.1514  2.2294
 3812WAT     H215969   4.119   0.095   6.839  2.2363  1.4974 -0.8550
 3812WAT    EPW15970   4.099   0.081   6.764 -0.4257  0.1888 -0.0394
 3813WAT      O15971   1.473   2.479   7.185 -0.1092  0.3829 -0.1090
 3813WAT     H115972   1.422   2.423   7.141  0.9464  0.2185 -1.1836
 3813WAT     H215973   1.549   2.475   7.142  0.3540  1.7485  0.5235
 3813WAT    EPW15974   1.476   2.470   7.172  0.1152  0.5603 -0.1743
 3814WAT      O15975   7.495   6.891   4.619 -0.2422  0.1311 -0.5014
 3814WAT     H115976   7.439   6.934   4.671 -0.0791 -1.7270  1.3605
 3814WAT     H215977   7.570   6.894   4.663  0.2939 -0.2262 -1.3751
 3814WAT    EPW15978   7.498   6.898   4.633 -0.1389 -0.1962 -0.3554
 3815WAT      O15979   6.384   5.025   3.335  0.1039 -0.0344  0.8285
 3815WAT     H115980   6.430   5.016   3.261 -1.3747 -2.2276  0.0904
 3815WAT     H215981   6.379   5.112   3.344  0.3660  0.3369 -1.6449
 3815WAT    EPW15982   6.390   5.037   3.325 -0.0758 -0.3035  0.3541
 3816WAT      O15983   3.468   6.409   1.309 -0.4445  0.4071  0.3413
 3816WAT     H115984   3.494   6.457   1.241 -1.4588  2.5990  1.4047
 3816WAT     H215985   3.543   6.386   1.348  0.1095 -0.1401 -1.0057
 3816WAT    EPW15986   3.483   6.412   1.305 -0.5125  0.6501  0.2994
 3817WAT      O15987   2.082   5.443   5.587 -0.1194 -0.2698 -0.5022
 3817WAT     H115988   2.004   5.448   5.546  0.4897  2.2966 -1.5845
 3817WAT     H215989   2.072   5.377   5.643 -2.4044 -1.3036 -1.9765
 3817WAT    EPW15990   2.069   5.434   5.589 -0.3670 -0.0434 -0.8799
 3818WAT      O15991   0.341   4.899   3.676 -1.0158 -0.0567 -0.1562
 3818WAT     H115992   0.342   4.855   3.600  1.6255  0.7974 -0.7121
 3818WAT     H215993   0.405   4.863   3.722 -2.6771 -0.6767  1.8449
 3818WAT    EPW15994   0.350   4.887   3.671 -0.8710 -0.0221  0.0573
 3819WAT      O15995   4.900   6.991   0.035  0.1556 -0.1583  0.0426
 3819WAT     H115996   4.837   6.940   0.004 -0.8380 -0.1322  1.8600
 3819WAT     H215997   4.959   6.934   0.066  0.2466 -0.1945 -0.1996
 3819WAT    EPW15998   4.900   6.975   0.035  0.0223 -0.1598  0.2753
 3820WAT      O15999   6.127   4.182   1.324 -0.1293 -0.2734  0.0990
 3820WAT     H116000   6.169   4.243   1.278 -0.3597 -1.3512 -1.6240
 3820WAT     H216001   6.190   4.147   1.373  0.7586 -0.9905 -1.4922
 3820WAT    EPW16002   6.143   4.186   1.324 -0.0322 -0.5385 -0.3905
 3821WAT      O16003   6.751   5.495   6.766 -0.8817  0.5556  0.0491
 3821WAT     H116004   6.675   5.460   6.740 -0.8355  0.1513  0.4431
 3821WAT     H216005   6.727   5.556   6.823 -0.8750 -0.8710  1.6954
 3821WAT    EPW16006   6.736   5.499   6.771 -0.8739  0.2851  0.3505
 3822WAT      O16007   2.955   6.708   5.698 -0.5757  0.2102  0.3838
 3822WAT     H116008   2.957   6.757   5.770 -0.2520 -0.9151  1.1651
 3822WAT     H216009   3.031   6.664   5.701 -1.6317 -1.6877  0.6917
 3822WAT    EPW16010   2.967   6.709   5.709 -0.6839 -0.2364  0.5447
 3823WAT      O16011   7.336   4.144   5.417 -0.0964  0.3100 -0.0001
 3823WAT     H116012   7.334   4.225   5.448  0.1974 -0.0601  1.0270
 3823WAT     H216013   7.321   4.094   5.487 -0.2156 -0.5322 -0.5987
 3823WAT    EPW16014   7.333   4.148   5.432 -0.0706  0.1309  0.0632
 3824WAT      O16015   6.340   6.222   7.214  0.4253  0.4677  0.3233
 3824WAT     H116016   6.288   6.281   7.177  1.7817  1.6446  0.1890
 3824WAT     H216017   6.358   6.166   7.150 -1.3458 -0.5028  0.6021
 3824WAT    EPW16018   6.335   6.222   7.199  0.3640  0.4981  0.3447
 3825WAT      O16019   2.923   7.361   5.793 -0.0108 -0.2076  0.5413
 3825WAT     H116020   2.970   7.434   5.800 -0.5007  0.0264  1.6684
 3825WAT     H216021   2.933   7.322   5.871  0.7163 -1.6482 -0.2465
 3825WAT    EPW16022   2.931   7.366   5.806  0.0242 -0.3858  0.5914
 3826WAT      O16023   1.690   4.341   5.301 -0.0604  0.2298 -0.1514
 3826WAT     H116024   1.722   4.392   5.365  0.1027 -0.8482  0.6499
 3826WAT     H216025   1.614   4.314   5.332  0.0608 -0.3764 -0.3641
 3826WAT    EPW16026   1.684   4.345   5.315 -0.0184 -0.0190 -0.0645
 3827WAT      O16027   4.839   0.463   3.639  0.3978 -0.1486 -0.8898
 3827WAT     H116028   4.760   0.440   3.669  1.0891 -1.7615 -0.2091
 3827WAT     H216029   4.835   0.550   3.636 -1.8860 -0.2206 -2.2493
 3827WAT    EPW16030   4.826   0.472   3.643  0.1626 -0.3975 -0.9901
 3828WAT      O16031   0.025   0.688   5.882 -0.6000 -0.3611 -0.7616
 3828WAT     H116032   0.045   0.676   5.798 -0.6379 -0.5116 -0.7500
 3828WAT     H216033  -0.061   0.673   5.885 -0.8035  0.6798 -0.8888
 3828WAT    EPW16034   0.015   0.684   5.870 -0.6357 -0.2296 -0.7787
 3829WAT      O16035   6.277   0.575   4.360 -0.0371  0.2785 -0.0974
 3829WAT     H116036   6.260   0.511   4.418  1.4681 -0.9159 -0.8728
 3829WAT     H216037   6.327   0.630   4.405 -0.7127  0.5328  0.3598
 3829WAT    EPW16038   6.282   0.573   4.375  0.0854  0.1396 -0.1444
 3830WAT      O16039   3.974   6.962   2.875 -0.1818  0.6733 -0.5647
 3830WAT     H116040   3.932   6.906   2.823  0.4053 -0.0149 -0.3202
 3830WAT     H216041   3.951   7.040   2.844 -2.9277  0.4286  0.5453
 3830WAT    EPW16042   3.964   6.966   2.863 -0.5007  0.5355 -0.3646
 3831WAT      O16043   0.379   4.356   5.894  0.0967  0.4093 -0.0913
 3831WAT     H116044   0.410   4.277   5.912  0.3115  0.6153  0.4536
 3831WAT     H216045   0.303   4.358   5.937 -0.5146  0.0408 -1.1238
 3831WAT    EPW16046   0.372   4.344   5.903  0.0381  0.3853 -0.1634
 3832WAT      O16047   4.692   0.743   6.084  0.2155 -0.0877 -0.5978
 3832WAT     H116048   4.727   0.802   6.138  1.0271 -0.6360 -0.4947
 3832WAT     H216049   4.718   0.667   6.118 -0.4739 -0.4859 -0.9556
 3832WAT    EPW16050   4.701   0.740   6.097  0.2336 -0.2275 -0.6354
 3833WAT      O16051   5.827   4.185   3.022 -0.2063 -0.0882  0.2498
 3833WAT     H116052   5.865   4.108   3.039 -0.4960 -0.4412 -0.6413
 3833WAT     H216053   5.743   4.170   3.041 -1.0765 -1.3287 -3.6849
 3833WAT    EPW16054   5.821   4.171   3.027 -0.3776 -0.3236 -0.4631
 3834WAT      O16055   6.374   1.907   5.029 -0.3279 -0.3851 -0.3112
 3834WAT     H116056   6.304   1.959   5.035  0.8862  1.2568  0.4738
 3834WAT     H216057   6.354   1.854   4.963 -3.6791 -2.2196  1.8723
 3834WAT    EPW16058   6.361   1.907   5.020 -0.6436 -0.4136  0.1273
 3835WAT      O16059   0.694   3.354   6.519 -0.2350  0.5963 -0.2427
 3835WAT     H116060   0.745   3.293   6.484 -0.7688  0.2949 -0.5000
 3835WAT     H216061   0.613   3.329   6.497 -0.5514  0.6852  0.7512
 3835WAT    EPW16062   0.689   3.341   6.511 -0.3606  0.5649 -0.1339
 3836WAT      O16063   2.683   6.207   0.743 -0.0804  0.3379 -0.8449
 3836WAT     H116064   2.639   6.242   0.677  0.8531  0.9106 -1.1819
 3836WAT     H216065   2.756   6.256   0.748  0.8865 -1.0506 -0.8018
 3836WAT    EPW16066   2.687   6.219   0.734  0.2004  0.2174 -0.8883
 3837WAT      O16067   4.182   2.261   4.291  0.0195 -0.0851 -0.2967
 3837WAT     H116068   4.209   2.291   4.213 -1.0315  1.1926 -0.2028
 3837WAT     H216069   4.210   2.322   4.347  0.3123 -0.7317  0.2800
 3837WAT    EPW16070   4.190   2.274   4.288 -0.0925  0.0081 -0.1977
 3838WAT      O16071   0.630   5.342   6.995  0.8160  0.9173 -0.3069
 3838WAT     H116072   0.679   5.335   6.923 -0.3413  0.0474 -1.0674
 3838WAT     H216073   0.651   5.271   7.041  1.5402  1.4631  0.2148
 3838WAT    EPW16074   0.640   5.331   6.991  0.7520  0.8694 -0.3422
 3839WAT      O16075   5.444   1.018   2.823  0.4374 -0.0129  0.1018
 3839WAT     H116076   5.378   1.010   2.766  1.9287 -0.0105 -1.7367
 3839WAT     H216077   5.407   1.057   2.892 -1.4985 -0.1753 -0.7661
 3839WAT    EPW16078   5.428   1.022   2.825  0.3717 -0.0365 -0.2980
 3840WAT      O16079   4.797   7.396   0.332  0.6204  0.3568  0.6017
 3840WAT     H116080   4.801   7.380   0.418  0.1673 -1.6454  0.2921
 3840WAT     H216081   4.807   7.317   0.296 -1.3666  0.8339 -1.1277
 3840WAT    EPW16082   4.799   7.382   0.340  0.2599  0.1315  0.3005
 3841WAT      O16083   3.717   0.297   1.158  0.1497  0.0778 -0.1614
 3841WAT     H116084   3.684   0.304   1.238 -0.1316 -0.3642 -0.2378
 3841WAT     H216085   3.802   0.317   1.169 -0.0126  0.6175  0.1355
 3841WAT    EPW16086   3.725   0.301   1.171  0.0841  0.0922 -0.1288
 3842WAT      O16087   4.983   4.476   2.413  0.1929  0.1029 -0.0110
 3842WAT     H116088   4.923   4.452   2.355 -0.6572 -0.3565  1.0215
 3842WAT     H216089   5.037   4.527   2.367 -0.3459 -0.3886 -1.2300
 3842WAT    EPW16090   4.982   4.480   2.398 -0.0123 -0.0375 -0.0386
 3843WAT      O16091   0.504   5.836   7.008 -0.0360 -0.0365  0.3203
 3843WAT     H116092   0.498   5.892   6.942 -2.6334  1.1937  1.4224
 3843WAT     H216093   0.559   5.874   7.063 -0.1546  0.3886  0.1431
 3843WAT    EPW16094   0.511   5.850   7.007 -0.4372  0.2081  0.4570
 3844WAT      O16095   2.946   4.801   5.982 -0.1924  0.0185 -0.0383
 3844WAT     H116096   2.996   4.825   6.050 -2.2500 -0.6292  1.8399
 3844WAT     H216097   2.942   4.873   5.933  1.4180  0.4837  0.4424
 3844WAT    EPW16098   2.953   4.815   5.985 -0.2585 -0.0085  0.3102
 3845WAT      O16099   7.259   2.569   7.399 -0.1755 -0.9621  0.1114
 3845WAT     H116100   7.309   2.526   7.342 -0.0179  0.4411 -0.8726
 3845WAT     H216101   7.180   2.533   7.388 -0.3332 -0.2010 -1.6247
 3845WAT    EPW16102   7.254   2.558   7.389 -0.1756 -0.6424 -0.2904
 3846WAT      O16103   4.776   0.409   5.549 -0.0660  0.2499  0.8134
 3846WAT     H116104   4.709   0.362   5.519  0.0247 -0.3340  1.4842
 3846WAT     H216105   4.844   0.356   5.539  0.3677  0.9499 -0.1396
 3846WAT    EPW16106   4.776   0.394   5.543  0.0115  0.2671  0.7717
 3847WAT      O16107   5.431   6.375   2.863  0.4129  0.6902 -0.7355
 3847WAT     H116108   5.382   6.332   2.805  1.5240  1.8423 -2.6157
 3847WAT     H216109   5.504   6.394   2.819  1.7615  0.7275  1.3742
 3847WAT    EPW16110   5.434   6.372   2.848  0.7762  0.8659 -0.7016
 3848WAT      O16111   6.677   6.643   0.630 -0.2472 -0.0068  0.3154
 3848WAT     H116112   6.742   6.697   0.651 -0.0867  0.0373 -0.2734
 3848WAT     H216113   6.708   6.600   0.561 -0.1654 -1.2236  1.0757
 3848WAT    EPW16114   6.691   6.645   0.623 -0.2114 -0.1800  0.3408
 3849WAT      O16115   7.098   6.421   5.711 -0.1324 -0.0901  0.2464
 3849WAT     H116116   7.066   6.497   5.741 -1.7732 -0.9605  0.8136
 3849WAT     H216117   7.083   6.425   5.625  0.0678  0.3645  0.2326
 3849WAT    EPW16118   7.091   6.433   5.703 -0.3452 -0.1515  0.3282
 3850WAT      O16119   4.552   5.734   1.576 -0.2817 -0.1416  0.0165
 3850WAT     H116120   4.553   5.691   1.652  1.2144  1.3698  0.9177
 3850WAT     H216121   4.526   5.814   1.597 -0.2125  0.2149 -1.1540
 3850WAT    EPW16122   4.548   5.739   1.590 -0.0505  0.1343 -0.0233
 3851WAT      O16123   5.953   7.682   6.720 -0.6757  0.0885 -0.1293
 3851WAT     H116124   5.974   7.622   6.660 -1.4882 -1.1070  0.7739
 3851WAT     H216125   5.866   7.688   6.714 -0.5960  1.4435 -0.4237
 3851WAT    EPW16126   5.943   7.674   6.710 -0.7840  0.1120 -0.0394
 3852WAT      O16127   5.497   6.167   5.956 -0.0614  0.1237 -0.7579
 3852WAT     H116128   5.462   6.099   5.997  1.8430  0.2988  1.3614
 3852WAT     H216129   5.492   6.145   5.871  0.9706 -2.9157 -0.1419
 3852WAT    EPW16130   5.491   6.154   5.949  0.3724 -0.2994 -0.3538
 3853WAT      O16131   6.840   3.842   6.102 -0.0109  0.2277 -0.3996
 3853WAT     H116132   6.781   3.810   6.046 -0.4805  0.5986 -0.1339
 3853WAT     H216133   6.790   3.878   6.165  0.5036  0.0769  0.1003
 3853WAT    EPW16134   6.824   3.843   6.103 -0.0042  0.2602 -0.2865
 3854WAT      O16135   7.452   1.280   5.536  0.1413  0.2002  0.2386
 3854WAT     H116136   7.370   1.306   5.550  0.7012  1.1068  2.1824
 3854WAT     H216137   7.473   1.237   5.609  0.6148 -2.2467 -1.2258
 3854WAT    EPW16138   7.443   1.277   5.549  0.2940 -0.0274  0.3094
 3855WAT      O16139   6.420   5.022   0.325  0.0564  0.2660  0.7959
 3855WAT     H116140   6.356   4.972   0.293 -0.0732  0.4457  0.7727
 3855WAT     H216141   6.453   4.974   0.390  0.9898 -0.5560 -0.2343
 3855WAT    EPW16142   6.416   5.007   0.330  0.1752  0.1711  0.6403
 3856WAT      O16143   5.485   1.572   1.925 -0.3431  0.0820  0.2427
 3856WAT     H116144   5.539   1.640   1.922  0.3729 -0.5000 -1.8907
 3856WAT     H216145   5.527   1.510   1.880 -1.6954 -1.2217  0.6743
 3856WAT    EPW16146   5.499   1.572   1.918 -0.4371 -0.1966 -0.0087
 3857WAT      O16147   6.230   4.760   5.795  0.4327 -0.0061  0.1497
 3857WAT     H116148   6.230   4.700   5.859  1.7105 -0.1663  0.0334
 3857WAT     H216149   6.170   4.730   5.739  0.8204 -1.0178  0.2499
 3857WAT    EPW16150   6.221   4.747   5.796  0.6787 -0.1792  0.1473
 3858WAT      O16151   4.339   7.256   7.165  0.0042 -0.3538 -0.2334
 3858WAT     H116152   4.318   7.272   7.248  1.1505 -2.2006  0.4827
 3858WAT     H216153   4.307   7.176   7.151  2.9335 -1.6271 -0.3250
 3858WAT    EPW16154   4.331   7.246   7.175  0.6062 -0.8147 -0.1412
 3859WAT      O16155   3.887   7.046   5.376  0.2104  0.6038 -0.0521
 3859WAT     H116156   3.837   7.099   5.326 -0.0597  0.3421 -0.0629
 3859WAT     H216157   3.848   7.051   5.454  0.8392  1.2891  0.2294
 3859WAT    EPW16158   3.874   7.055   5.380  0.2634  0.6664 -0.0121
 3860WAT      O16159   5.075   6.914   7.175  0.2908  0.1093  0.1970
 3860WAT     H116160   4.997   6.874   7.174  0.7533 -0.9710  1.9662
 3860WAT     H216161   5.085   6.942   7.093 -2.0514  0.4888 -0.0522
 3860WAT    EPW16162   5.065   6.912   7.163  0.0131  0.0057  0.4216
 3861WAT      O16163   1.354   4.649   7.235 -0.1038 -0.1224 -0.3161
 3861WAT     H116164   1.364   4.663   7.150 -0.0774 -3.0976 -0.9412
 3861WAT     H216165   1.414   4.588   7.253 -0.5072 -0.0060  1.7001
 3861WAT    EPW16166   1.364   4.642   7.225 -0.1595 -0.5447 -0.1106
 3862WAT      O16167   2.103   7.070   4.352 -0.1068  0.0195  0.6573
 3862WAT     H116168   2.057   7.047   4.422 -0.2561  2.2640  1.3702
 3862WAT     H216169   2.075   7.151   4.334  2.5134  0.9576  0.2567
 3862WAT    EPW16170   2.092   7.079   4.360  0.2582  0.4896  0.7035
 3863WAT      O16171   3.769   1.002   4.239  0.0087 -0.1997 -0.1881
 3863WAT     H116172   3.775   1.030   4.322  0.1971 -0.8801  0.0294
 3863WAT     H216173   3.734   0.922   4.247  1.9008 -1.1136 -0.6136
 3863WAT    EPW16174   3.765   0.994   4.252  0.3160 -0.4352 -0.2188
 3864WAT      O16175   5.754   4.452   5.542 -0.4354 -0.6609 -0.1660
 3864WAT     H116176   5.723   4.534   5.538 -1.2620 -1.0177 -1.4309
 3864WAT     H216177   5.686   4.403   5.521 -1.2091 -2.0500  4.4480
 3864WAT    EPW16178   5.740   4.457   5.539 -0.6718 -0.9188  0.3287
 3865WAT      O16179   7.679   7.681   4.116 -0.0302  0.5623 -0.0700
 3865WAT     H116180   7.642   7.645   4.186  0.8443  0.9655  0.6219
 3865WAT     H216181   7.765   7.680   4.135  0.4806 -1.4467 -2.1158
 3865WAT    EPW16182   7.687   7.676   4.129  0.1744  0.3251 -0.2700
 3866WAT      O16183   4.163   3.761   7.798 -0.0184 -0.2785  0.0732
 3866WAT     H116184   4.082   3.794   7.796  0.3991  0.9666  1.7216
 3866WAT     H216185   4.191   3.771   7.716 -1.1111  0.3862 -0.2430
 3866WAT    EPW16186   4.155   3.767   7.785 -0.1181  0.0036  0.2700
 3867WAT      O16187   1.723   0.112   2.783 -0.6346 -0.3830 -0.8026
 3867WAT     H116188   1.766   0.139   2.712  0.8417 -0.1764  0.1207
 3867WAT     H216189   1.776   0.051   2.817 -1.1930 -0.3109  0.2557
 3867WAT    EPW16190   1.737   0.107   2.777 -0.4990 -0.3418 -0.5098
 3868WAT      O16191   4.644   6.204   4.236  0.0899  0.6795  0.0911
 3868WAT     H116192   4.690   6.180   4.306 -0.9511 -1.1044  0.2107
 3868WAT     H216193   4.688   6.169   4.170  0.2912  1.1625 -0.0364
 3868WAT    EPW16194   4.657   6.196   4.237 -0.0342  0.4873  0.0900
 3869WAT      O16195   6.714   4.973   6.605 -0.0191  0.0984 -0.3488
 3869WAT     H116196   6.661   5.033   6.640 -2.2167 -1.6558 -0.4013
 3869WAT     H216197   6.696   4.978   6.520  1.0532  0.4984 -0.5576
 3869WAT    EPW16198   6.703   4.982   6.598 -0.1853 -0.1017 -0.3874
 3870WAT      O16199   6.042   6.962   1.305  0.0610  0.3537  0.2576
 3870WAT     H116200   5.955   6.951   1.297 -0.1774  2.8197 -2.2496
 3870WAT     H216201   6.075   6.907   1.246  0.3542 -1.2484  1.8372
 3870WAT    EPW16202   6.034   6.952   1.295  0.0691  0.4813  0.1206
 3871WAT      O16203   6.692   2.307   0.087  0.1122 -0.0934 -0.3209
 3871WAT     H116204   6.654   2.234   0.058 -0.6576  0.0441  0.3123
 3871WAT     H216205   6.742   2.332   0.020  0.3619 -1.1706 -0.5591
 3871WAT    EPW16206   6.694   2.300   0.073  0.0354 -0.2322 -0.2625
 3872WAT      O16207   6.745   1.181   0.226  0.2099  0.1178  0.3642
 3872WAT     H116208   6.782   1.155   0.152 -0.1262 -0.2456  0.3186
 3872WAT     H216209   6.669   1.215   0.200  0.8450  1.6040  0.3761
 3872WAT    EPW16210   6.739   1.182   0.211  0.2541  0.2836  0.3592
 3873WAT      O16211   6.904   5.809   7.577  0.0056  0.4129 -0.0426
 3873WAT     H116212   6.967   5.865   7.599  0.6695  0.0297 -0.8946
 3873WAT     H216213   6.839   5.860   7.550  0.7262  0.7887 -1.1200
 3873WAT    EPW16214   6.903   5.825   7.576  0.2101  0.4118 -0.3276
 3874WAT      O16215   5.248   5.640   5.841  0.0575  0.6930  0.1622
 3874WAT     H116216   5.216   5.708   5.886 -1.3268  1.5505 -1.9966
 3874WAT     H216217   5.256   5.671   5.760  3.5752 -0.4308 -0.1003
 3874WAT    EPW16218   5.245   5.655   5.836  0.3727  0.6537 -0.1955
 3875WAT      O16219   4.804   5.849   2.680  0.1194 -0.5095 -0.2623
 3875WAT     H116220   4.737   5.860   2.626 -0.3321  0.0905  0.4046
 3875WAT     H216221   4.869   5.823   2.627 -0.9775 -2.4418 -0.7431
 3875WAT    EPW16222   4.804   5.847   2.664 -0.1094 -0.7063 -0.2348
 3876WAT      O16223   3.132   5.172   1.720  0.5507  0.2046 -0.3480
 3876WAT     H116224   3.076   5.124   1.767  0.6694 -0.0427 -0.4603
 3876WAT     H216225   3.196   5.191   1.777  0.5188  0.2055 -0.3122
 3876WAT    EPW16226   3.133   5.168   1.736  0.5635  0.1682 -0.3593
 3877WAT      O16227   4.396   6.281   6.376 -0.3930  0.5251 -0.1579
 3877WAT     H116228   4.391   6.337   6.442  0.5752 -0.0951  0.4796
 3877WAT     H216229   4.328   6.228   6.389 -0.1288  0.3195  0.4403
 3877WAT    EPW16230   4.385   6.281   6.388 -0.2110  0.4031  0.0247
 3878WAT      O16231   6.993   6.969   5.900 -0.6929  0.3179  0.4214
 3878WAT     H116232   6.990   6.913   5.833 -0.3095 -0.5116  1.0846
 3878WAT     H216233   7.075   6.998   5.899 -0.8865  0.8811  0.0887
 3878WAT    EPW16234   7.005   6.965   5.890 -0.6649  0.2786  0.4702
 3879WAT      O16235   0.908   6.599   3.617  0.3622  0.3550  0.4256
 3879WAT     H116236   0.829   6.629   3.592  1.4586  1.7865 -1.5817
 3879WAT     H216237   0.890   6.520   3.648 -2.0022  1.0087  0.9986
 3879WAT    EPW16238   0.893   6.592   3.618  0.1749  0.6630  0.2137
 3880WAT      O16239   5.344   7.639   7.073 -0.4144 -0.1231 -0.1018
 3880WAT     H116240   5.362   7.599   6.998 -2.8884 -1.2763 -0.1995
 3880WAT     H216241   5.269   7.680   7.056 -1.0937 -0.5218  1.7447
 3880WAT    EPW16242   5.335   7.639   7.059 -0.8802 -0.3524  0.1565
 3881WAT      O16243   6.892   6.105   5.700 -0.4166  0.0507  0.1082
 3881WAT     H116244   6.807   6.109   5.719 -0.5051 -0.1502 -0.2461
 3881WAT     H216245   6.930   6.140   5.770 -0.7793 -0.0659  0.3638
 3881WAT    EPW16246   6.885   6.111   5.713 -0.4833  0.0038  0.0936
 3882WAT      O16247   5.986   6.369   7.762  0.8090 -0.1204  0.1109
 3882WAT     H116248   5.920   6.312   7.754 -0.9918  1.7529  0.6314
 3882WAT     H216249   6.008   6.386   7.679  0.1251 -0.2436 -0.1066
 3882WAT    EPW16250   5.980   6.363   7.749  0.4420  0.1381  0.1557
 3883WAT      O16251   5.779   6.511   1.471 -0.7151 -0.8083 -0.6579
 3883WAT     H116252   5.768   6.441   1.521 -0.3659 -0.4717 -0.0984
 3883WAT     H216253   5.836   6.560   1.516 -2.1552  0.5841 -0.1981
 3883WAT    EPW16254   5.786   6.508   1.485 -0.8763 -0.5529 -0.5073
 3884WAT      O16255   6.265   7.349   7.332 -0.5602 -0.0435 -0.4435
 3884WAT     H116256   6.251   7.274   7.373 -2.6603  1.3771  1.7439
 3884WAT     H216257   6.312   7.395   7.388 -0.1874  0.6643 -1.3020
 3884WAT    EPW16258   6.270   7.345   7.346 -0.8154  0.2709 -0.2472
 3885WAT      O16259   5.440   7.573   2.486 -0.0649  0.3618  0.1886
 3885WAT     H116260   5.487   7.581   2.412 -1.9270 -0.2772 -1.1323
 3885WAT     H216261   5.446   7.488   2.505 -1.2524  0.1239 -0.4213
 3885WAT    EPW16262   5.448   7.562   2.478 -0.5154  0.2323 -0.0966
 3886WAT      O16263   5.361   1.943   6.504 -0.1025 -0.2828  0.0841
 3886WAT     H116264   5.359   2.027   6.529 -0.5025 -0.2299 -0.1224
 3886WAT     H216265   5.393   1.947   6.423 -1.0699 -0.2281 -0.3118
 3886WAT    EPW16266   5.365   1.956   6.495 -0.3045 -0.2669 -0.0049
 3887WAT      O16267   2.027   5.959   0.515 -0.3650  0.5712 -0.5218
 3887WAT     H116268   2.091   5.907   0.489 -0.7114 -0.4616  0.6301
 3887WAT     H216269   2.038   6.031   0.466  1.8109  0.5345 -0.1709
 3887WAT    EPW16270   2.038   5.962   0.504 -0.0948  0.4132 -0.2998
 3888WAT      O16271   6.326   4.838   3.961 -0.0811 -0.1424  0.0231
 3888WAT     H116272   6.383   4.878   3.908 -1.2339  0.2872 -0.9143
 3888WAT     H216273   6.269   4.900   3.981 -1.0367 -0.9264 -0.2053
 3888WAT    EPW16274   6.326   4.853   3.956 -0.3925 -0.1947 -0.1491
 3889WAT      O16275   1.189   4.223   7.580 -0.0758  0.2325  0.0480
 3889WAT     H116276   1.220   4.193   7.655  0.1919  0.2876 -0.0402
 3889WAT     H216277   1.247   4.195   7.521 -0.5436 -0.2412 -0.2016
 3889WAT    EPW16278   1.202   4.215   7.582 -0.1054  0.1707 -0.0019
 3890WAT      O16279   1.947   5.522   5.225  0.2913 -0.6166  0.2787
 3890WAT     H116280   1.931   5.601   5.191  0.1504 -1.0737 -0.7590
 3890WAT     H216281   2.022   5.532   5.267  0.8726 -0.2021 -0.8171
 3890WAT    EPW16282   1.956   5.535   5.226  0.3563 -0.6229 -0.0365
 3891WAT      O16283   6.099   4.184   7.330 -0.1193 -0.2953 -0.1668
 3891WAT     H116284   6.133   4.181   7.411 -2.2778 -0.0133  0.8180
 3891WAT     H216285   6.107   4.269   7.308  0.9010 -0.4559 -0.4903
 3891WAT    EPW16286   6.105   4.196   7.339 -0.2875 -0.2773 -0.0691
 3892WAT      O16287   3.203   6.416   3.961 -0.1204  0.2167 -0.2554
 3892WAT     H116288   3.180   6.487   3.916 -1.2051  1.8506  2.5808
 3892WAT     H216289   3.288   6.426   3.975 -0.0259  0.2963 -0.8551
 3892WAT    EPW16290   3.212   6.428   3.956 -0.2667  0.4698  0.0750
 3893WAT      O16291   3.963   0.006   4.355 -0.0246  0.3590 -0.0869
 3893WAT     H116292   3.879  -0.013   4.338 -0.3415 -0.5138  2.1291
 3893WAT     H216293   4.006  -0.061   4.319 -0.6173 -1.0647  1.6423
 3893WAT    EPW16294   3.957  -0.007   4.347 -0.1590  0.0197  0.4959
 3894WAT      O16295   6.280   4.282   0.134 -0.2246  0.8094  0.2008
 3894WAT     H116296   6.326   4.207   0.138 -1.7840 -0.1898  0.3393
 3894WAT     H216297   6.212   4.267   0.187 -1.2081  1.8661 -0.7069
 3894WAT    EPW16298   6.277   4.268   0.142 -0.6002  0.8179  0.0872
 3895WAT      O16299   4.810   3.112   5.048 -0.0673  0.1397 -0.1237
 3895WAT     H116300   4.849   3.114   4.970 -0.0809  2.7066 -0.1347
 3895WAT     H216301   4.728   3.134   5.030 -0.5718 -1.1413  0.4392
 3895WAT    EPW16302   4.804   3.115   5.034 -0.1439  0.3297 -0.0421
 3896WAT      O16303   0.834   7.203   6.760 -0.0662 -0.3002  0.0138
 3896WAT     H116304   0.855   7.184   6.842 -0.5624  0.3771  0.3084
 3896WAT     H216305   0.884   7.148   6.713 -0.4720 -1.3577  0.7760
 3896WAT    EPW16306   0.845   7.192   6.765 -0.1995 -0.3564  0.1699
 3897WAT      O16307   4.790   0.908   6.284 -0.9168  0.0604 -0.4401
 3897WAT     H116308   4.829   0.986   6.280 -2.4186  1.2474  3.3266
 3897WAT     H216309   4.857   0.852   6.294  0.0770  1.1432 -0.7818
 3897WAT    EPW16310   4.806   0.911   6.285 -0.9919  0.3957  0.0659
 3898WAT      O16311   1.207   4.237   5.921  0.5558  0.2552  0.2753
 3898WAT     H116312   1.193   4.286   5.850 -0.1058  1.6065  1.2992
 3898WAT     H216313   1.128   4.229   5.957  0.8014 -0.8212  0.6249
 3898WAT    EPW16314   1.193   4.243   5.916  0.4943  0.2958  0.4782
 3899WAT      O16315   5.965   4.625   3.859 -0.2677 -0.2574  0.9226
 3899WAT     H116316   6.047   4.620   3.888 -0.6183  0.7669  2.1929
 3899WAT     H216317   5.924   4.564   3.906 -0.3818 -0.1941  0.9041
 3899WAT    EPW16318   5.971   4.616   3.871 -0.3364 -0.0968  1.1075
 3900WAT      O16319   5.053   2.836   0.341  0.0702  0.3324  0.2551
 3900WAT     H116320   5.023   2.853   0.421 -0.3912 -0.9244  0.3719
 3900WAT     H216321   4.981   2.820   0.295  0.3243  1.1733 -0.4648
 3900WAT    EPW16322   5.038   2.836   0.346  0.0395  0.2709  0.1660
 3901WAT      O16323   5.360   7.286   6.820 -0.0781 -0.2925 -0.3806
 3901WAT     H116324   5.382   7.371   6.816  0.4760 -0.4541 -0.8683
 3901WAT     H216325   5.385   7.263   6.901 -1.5366  0.3434  0.3045
 3901WAT    EPW16326   5.367   7.295   6.832 -0.2117 -0.2224 -0.3515
 3902WAT      O16327   3.950   7.514   1.208 -0.3653  0.3264  0.2284
 3902WAT     H116328   4.031   7.546   1.202  0.0240 -0.8276 -1.3463
 3902WAT     H216329   3.901   7.575   1.170 -0.1793  0.7990  0.7332
 3902WAT    EPW16330   3.955   7.527   1.202 -0.2803  0.2257  0.0704
 3903WAT      O16331   5.528   6.196   3.687 -0.0846 -0.5240  0.1081
 3903WAT     H116332   5.588   6.171   3.745  0.0613 -1.2432 -0.3454
 3903WAT     H216333   5.519   6.127   3.634 -1.7887 -0.7042  0.5457
 3903WAT    EPW16334   5.535   6.182   3.688 -0.3148 -0.6568  0.1058
 3904WAT      O16335   3.499   0.592   2.885 -0.1309  0.2037 -0.1704
 3904WAT     H116336   3.556   0.581   2.820 -0.5637 -0.4858 -0.4428
 3904WAT     H216337   3.447   0.523   2.878 -0.8675  0.7150  0.2156
 3904WAT    EPW16338   3.500   0.580   2.875 -0.3037  0.1774 -0.1536
 3905WAT      O16339   4.841   1.636   7.153  0.4383 -0.2742  0.1044
 3905WAT     H116340   4.810   1.681   7.085  1.0110 -0.8205 -0.5171
 3905WAT     H216341   4.883   1.569   7.117 -0.1015 -1.1315  1.0152
 3905WAT    EPW16342   4.842   1.633   7.138  0.4432 -0.4815  0.1472
 3906WAT      O16343   4.830   3.255   0.749 -0.6198  0.0918  0.0959
 3906WAT     H116344   4.836   3.286   0.667  0.8243 -2.9978 -1.1229
 3906WAT     H216345   4.760   3.295   0.781 -1.2859  1.3864 -2.6725
 3906WAT    EPW16346   4.821   3.266   0.741 -0.5049 -0.1733 -0.4931
 3907WAT      O16347   3.047   3.948   2.507 -0.4838 -0.0185  0.0749
 3907WAT     H116348   3.046   3.870   2.547 -1.6103 -0.2489 -0.3570
 3907WAT     H216349   3.112   3.941   2.449 -0.0497 -0.3410  0.5910
 3907WAT    EPW16350   3.057   3.936   2.504 -0.5861 -0.1002  0.0873
 3908WAT      O16351   6.832   0.134   5.706 -0.4205 -0.2204  0.0877
 3908WAT     H116352   6.897   0.181   5.740 -0.8833 -0.0315  0.7280
 3908WAT     H216353   6.847   0.137   5.620 -0.4404  1.0729  0.1234
 3908WAT    EPW16354   6.844   0.141   5.698 -0.4918 -0.0014  0.1875
 3909WAT      O16355   3.729   5.433   4.263  0.3013  0.0313  0.9465
 3909WAT     H116356   3.729   5.365   4.317  0.6951 -1.9336 -1.3822
 3909WAT     H216357   3.647   5.437   4.234  0.4553  0.0712  0.5059
 3909WAT    EPW16358   3.717   5.424   4.267  0.3822 -0.2531  0.5374
 3910WAT      O16359   4.882   4.444   3.944 -0.2580  0.4168 -0.1306
 3910WAT     H116360   4.918   4.431   3.865 -0.6555 -1.7978  0.0058
 3910WAT     H216361   4.799   4.462   3.926 -0.2351  0.4398 -0.2141
 3910WAT    EPW16362   4.875   4.445   3.930 -0.3134  0.0930 -0.1228
 3911WAT      O16363   4.630   6.760   2.776 -0.3699  0.3077  0.0567
 3911WAT     H116364   4.662   6.742   2.697  0.6275  2.3258 -0.0734
 3911WAT     H216365   4.551   6.793   2.760  0.5175  2.4346 -0.3546
 3911WAT    EPW16366   4.623   6.763   2.762 -0.0915  0.9200 -0.0233
 3912WAT      O16367   2.830   2.201   3.938  0.0455  0.8980  0.0407
 3912WAT     H116368   2.900   2.148   3.945 -0.6120  0.1438  1.2944
 3912WAT     H216369   2.815   2.203   3.852  0.2030 -0.8508 -0.0677
 3912WAT    EPW16370   2.838   2.193   3.926 -0.0284  0.5283  0.2099
 3913WAT      O16371   2.705   6.287   7.259  0.1807 -0.2974  0.1381
 3913WAT     H116372   2.743   6.240   7.321 -0.2059 -1.1241 -0.2277
 3913WAT     H216373   2.771   6.318   7.212  0.5860  1.7476  1.8863
 3913WAT    EPW16374   2.720   6.285   7.261  0.1834 -0.1175  0.3423
 3914WAT      O16375   0.932   5.652   4.899 -0.4241 -0.1699  0.3237
 3914WAT     H116376   0.867   5.702   4.929 -0.3521 -0.6359  1.3050
 3914WAT     H216377   0.992   5.657   4.961  0.2239 -0.2512 -0.2876
 3914WAT    EPW16378   0.931   5.660   4.913 -0.3177 -0.2508  0.3783
 3915WAT      O16379   2.073   4.586   5.705 -0.7636 -0.2690  0.1098
 3915WAT     H116380   2.007   4.573   5.760 -1.1448  1.8646  0.2229
 3915WAT     H216381   2.037   4.576   5.626 -1.9736  3.1967  0.0438
 3915WAT    EPW16382   2.058   4.583   5.701 -0.9987  0.5581  0.1167
 3916WAT      O16383   4.802   6.777   6.340 -0.6149  0.0109  0.1846
 3916WAT     H116384   4.816   6.835   6.276  0.0837  1.2916  1.4322
 3916WAT     H216385   4.866   6.719   6.330 -0.1716  0.5121  0.0372
 3916WAT    EPW16386   4.813   6.777   6.329 -0.4462  0.2741  0.3471
 3917WAT      O16387   3.804   4.419   1.448  0.0175 -0.0623  0.6642
 3917WAT     H116388   3.754   4.367   1.497  0.9053 -0.1721  1.5019
 3917WAT     H216389   3.885   4.402   1.477  0.6090 -0.2678 -0.9817
 3917WAT    EPW16390   3.809   4.409   1.460  0.2360 -0.1089  0.5448
 3918WAT      O16391   3.507   1.395   4.756 -0.3929 -0.4658  0.0386
 3918WAT     H116392   3.523   1.317   4.721 -0.4929 -1.5899  2.2657
 3918WAT     H216393   3.490   1.446   4.688  4.1885 -1.1624 -2.0026
 3918WAT    EPW16394   3.507   1.391   4.741  0.2691 -0.7348  0.0660
 3919WAT      O16395   3.909   7.345   5.652 -0.6163  0.0636  0.0793
 3919WAT     H116396   3.984   7.334   5.696  0.1862 -1.1673 -1.5053
 3919WAT     H216397   3.877   7.265   5.645 -1.0808  0.3152 -0.9136
 3919WAT    EPW16398   3.916   7.332   5.657 -0.5664 -0.0811 -0.3014
 3920WAT      O16399   2.589   1.129   1.767  1.0287 -0.0075 -0.7161
 3920WAT     H116400   2.642   1.116   1.699  1.6249 -0.0750 -0.2451
 3920WAT     H216401   2.610   1.209   1.795  1.9848 -0.6270  0.4192
 3920WAT    EPW16402   2.600   1.139   1.761  1.2580 -0.1090 -0.4788
 3921WAT      O16403   3.344   3.997   6.479  1.0196  0.1697  0.4278
 3921WAT     H116404   3.395   3.927   6.469 -0.1643 -0.6431 -0.2115
 3921WAT     H216405   3.303   3.982   6.555 -1.2339 -1.2665 -0.9286
 3921WAT    EPW16406   3.345   3.984   6.488  0.5118 -0.1625  0.1330
 3922WAT      O16407   1.815   6.804   5.418  0.0405 -0.1884 -0.1191
 3922WAT     H116408   1.842   6.833   5.341 -1.2511 -0.2875 -0.6320
 3922WAT     H216409   1.863   6.731   5.431  0.8274  0.2599 -0.4310
 3922WAT    EPW16410   1.826   6.797   5.409 -0.0340 -0.1368 -0.2409
 3923WAT      O16411   5.484   5.529   4.630 -0.3528  0.4048 -0.2757
 3923WAT     H116412   5.398   5.544   4.635 -0.3986 -0.1242  2.8081
 3923WAT     H216413   5.519   5.609   4.630 -0.8330  0.6165 -0.6713
 3923WAT    EPW16414   5.477   5.543   4.631 -0.4305  0.3579  0.1214
 3924WAT      O16415   5.428   3.160   2.373 -0.3590 -0.5711  0.0319
 3924WAT     H116416   5.495   3.202   2.412  1.7812  0.0586 -3.8608
 3924WAT     H216417   5.358   3.191   2.416  1.5604  1.5213  2.0164
 3924WAT    EPW16418   5.428   3.171   2.385  0.2407 -0.1690 -0.2500
 3925WAT      O16419   3.512   2.350   6.335  0.1625  0.0602  0.1337
 3925WAT     H116420   3.512   2.264   6.352  0.8925  0.0984  0.3577
 3925WAT     H216421   3.536   2.355   6.251  0.8436  0.0719  0.3221
 3925WAT    EPW16422   3.516   2.338   6.325  0.3709  0.0676  0.1946
 3926WAT      O16423   6.417   5.953   1.185 -0.8756  0.2745 -0.9916
 3926WAT     H116424   6.488   5.985   1.145 -0.7073 -1.2094 -1.9455
 3926WAT     H216425   6.393   6.018   1.238  1.4844  0.6233 -0.2395
 3926WAT    EPW16426   6.423   5.968   1.187 -0.5021  0.1069 -1.0214
 3927WAT      O16427   5.171   2.453   2.470 -0.3038  0.3004 -0.0370
 3927WAT     H116428   5.226   2.472   2.405  0.4333  2.1402  1.0512
 3927WAT     H216429   5.196   2.373   2.496 -0.2214 -0.1961 -1.5731
 3927WAT    EPW16430   5.183   2.444   2.465 -0.1828  0.4989 -0.1032
 3928WAT      O16431   0.962   5.933   3.879  0.1247  0.2408  0.5799
 3928WAT     H116432   1.049   5.938   3.874  0.1889 -0.9753 -0.1891
 3928WAT     H216433   0.948   5.859   3.923 -0.5395  0.9371  1.5829
 3928WAT    EPW16434   0.973   5.923   3.885  0.0361  0.1640  0.6145
 3929WAT      O16435   4.234   1.009   2.592  0.0275  0.2840  0.5577
 3929WAT     H116436   4.248   1.015   2.678  0.3728 -0.1501  0.5349
 3929WAT     H216437   4.299   0.958   2.565  0.5834  1.3282 -0.1323
 3929WAT    EPW16438   4.246   1.002   2.601  0.1606  0.3741  0.4524
 3930WAT      O16439   5.865   6.726   2.269  0.1894  0.2630  0.0973
 3930WAT     H116440   5.904   6.778   2.327 -0.6289 -1.5174  2.3856
 3930WAT     H216441   5.930   6.678   2.237  0.5067  0.5319  0.3338
 3930WAT    EPW16442   5.880   6.727   2.272  0.1154  0.0397  0.4702
 3931WAT      O16443   5.492   6.188   4.985  0.2740 -0.0327  0.1394
 3931WAT     H116444   5.480   6.206   4.900 -0.8902  1.5085  0.5874
 3931WAT     H216445   5.540   6.255   5.014 -2.3665  1.4838  1.4055
 3931WAT    EPW16446   5.497   6.201   4.977 -0.2881  0.4190  0.3926
 3932WAT      O16447   0.312   6.345   4.699 -0.0406 -0.5673 -0.3655
 3932WAT     H116448   0.239   6.346   4.652 -0.1870  0.8263 -0.1583
 3932WAT     H216449   0.313   6.265   4.734 -0.7722 -1.0557 -1.4171
 3932WAT    EPW16450   0.302   6.334   4.697 -0.1703 -0.4336 -0.4902
 3933WAT      O16451   6.368   0.192   6.655 -0.0842  0.2080 -0.6316
 3933WAT     H116452   6.335   0.273   6.651 -1.5894 -0.3981 -1.2251
 3933WAT     H216453   6.406   0.189   6.733 -0.9069  1.1606 -0.1764
 3933WAT    EPW16454   6.369   0.204   6.666 -0.4281  0.2592 -0.6520
 3934WAT      O16455   1.443   4.846   3.447  0.3118 -0.3568 -0.1221
 3934WAT     H116456   1.386   4.795   3.405 -1.6630  1.2169  0.4641
 3934WAT     H216457   1.514   4.845   3.396 -0.8399 -1.0580 -1.8005
 3934WAT    EPW16458   1.445   4.838   3.433 -0.1501 -0.2279 -0.2834
 3935WAT      O16459   2.368   6.734   6.244 -0.1361 -0.9062 -0.0798
 3935WAT     H116460   2.323   6.667   6.210  0.5596 -0.6043 -1.7258
 3935WAT     H216461   2.309   6.798   6.250 -1.0409 -1.8442  2.3828
 3935WAT    EPW16462   2.352   6.733   6.240 -0.1670 -1.0002  0.0408
 3936WAT      O16463   6.383   0.306   5.328  0.2909  0.2534 -0.5768
 3936WAT     H116464   6.317   0.362   5.325  1.0264  1.1548 -0.4641
 3936WAT     H216465   6.352   0.234   5.289  0.0594  1.5096 -2.8407
 3936WAT    EPW16466   6.369   0.303   5.322  0.3654  0.5721 -0.8945
 3937WAT      O16467   2.411   1.112   2.136  0.6675 -0.0063  0.4770
 3937WAT     H116468   2.494   1.105   2.109  0.3899  0.8907 -0.6785
 3937WAT     H216469   2.418   1.130   2.220  1.6478 -0.0003  0.4044
 3937WAT    EPW16470   2.425   1.114   2.144  0.7713  0.1271  0.2956
 3938WAT      O16471   4.909   2.601   2.103  0.6564 -0.0083 -0.0279
 3938WAT     H116472   4.906   2.590   2.190 -1.0087 -0.3330 -0.0891
 3938WAT     H216473   4.993   2.615   2.087  0.8935  0.9067  1.7495
 3938WAT    EPW16474   4.921   2.601   2.114  0.4455  0.0789  0.2256
 3939WAT      O16475   5.567   3.880   6.512  0.6996  0.4630  0.4489
 3939WAT     H116476   5.540   3.847   6.588  1.5477  0.3157  0.7069
 3939WAT     H216477   5.498   3.874   6.460 -0.0356  0.9796  1.3440
 3939WAT    EPW16478   5.553   3.875   6.515  0.7163  0.5176  0.6192
 3940WAT      O16479   6.038   7.131   3.887 -0.4198  0.2318  0.4487
 3940WAT     H116480   6.085   7.200   3.864  0.8152 -0.3638  1.1148
 3940WAT     H216481   5.967   7.137   3.836 -1.2738  2.9813  1.7714
 3940WAT    EPW16482   6.034   7.142   3.876 -0.3635  0.5500  0.7425
 3941WAT      O16483   3.718   0.726   4.270 -0.4781  0.1113 -0.2138
 3941WAT     H116484   3.684   0.718   4.190  0.1371  0.3067 -0.4960
 3941WAT     H216485   3.658   0.688   4.321 -0.7058 -0.3377 -0.8058
 3941WAT    EPW16486   3.704   0.719   4.266 -0.4208  0.0738 -0.3429
 3942WAT      O16487   2.337   2.113   4.512  0.1490 -0.0885  0.2097
 3942WAT     H116488   2.390   2.132   4.579 -0.5448  0.2961  0.6686
 3942WAT     H216489   2.318   2.191   4.478  0.4658 -0.2791 -0.4196
 3942WAT    EPW16490   2.342   2.127   4.517  0.0933 -0.0598  0.1845
 3943WAT      O16491   3.196   4.202   2.159  0.3307  0.6531  0.2382
 3943WAT     H116492   3.212   4.236   2.080 -0.1711 -0.3294 -0.3011
 3943WAT     H216493   3.271   4.215   2.202 -0.1406  3.3860  0.4454
 3943WAT    EPW16494   3.209   4.209   2.154  0.1870  0.9116  0.1891
 3944WAT      O16495   2.957   4.792   2.988  0.1741  0.1663 -0.1416
 3944WAT     H116496   2.948   4.843   2.918  0.8846  0.4548 -0.0348
 3944WAT     H216497   3.039   4.763   2.982 -0.0077 -0.4296  0.1564
 3944WAT    EPW16498   2.968   4.796   2.977  0.2522  0.1209 -0.0818
 3945WAT      O16499   5.703   3.491   1.674 -0.4053  0.5295 -0.9995
 3945WAT     H116500   5.769   3.443   1.705  0.8077  2.1156 -1.0002
 3945WAT     H216501   5.652   3.503   1.744  0.8047  1.6460 -0.2596
 3945WAT    EPW16502   5.705   3.485   1.689 -0.0474  0.9287 -0.8903
 3946WAT      O16503   3.790   7.123   4.863 -0.1688  0.5440 -0.1499
 3946WAT     H116504   3.869   7.086   4.866  0.2538  0.9261 -3.1604
 3946WAT     H216505   3.757   7.108   4.942  2.6423 -0.2154  0.9996
 3946WAT    EPW16506   3.797   7.115   4.875  0.3089  0.4882 -0.4248
 3947WAT      O16507   0.643   1.741   3.602  0.1963 -0.1273  0.0619
 3947WAT     H116508   0.592   1.722   3.535  1.5167  1.5849 -1.5344
 3947WAT     H216509   0.719   1.702   3.583  0.8118  0.9848  0.1373
 3947WAT    EPW16510   0.647   1.733   3.590  0.4823  0.2899 -0.1628
 3948WAT      O16511   1.241   0.966   7.099  0.0037 -0.0604 -0.0466
 3948WAT     H116512   1.239   1.043   7.139  0.4648  0.0286 -0.1901
 3948WAT     H216513   1.311   0.927   7.132  0.2682 -0.0703 -0.6124
 3948WAT    EPW16514   1.251   0.971   7.110  0.1109 -0.0487 -0.1514
 3949WAT      O16515   6.295   7.084   4.940 -0.2392  0.6682 -0.2012
 3949WAT     H116516   6.348   7.101   4.874 -0.3376 -0.4411 -0.5965
 3949WAT     H216517   6.348   7.054   5.003 -0.2181  1.0901 -0.0186
 3949WAT    EPW16518   6.311   7.082   4.940 -0.2506  0.5667 -0.2326
 3950WAT      O16519   6.684   6.225   0.455  0.0461  0.0273 -0.3900
 3950WAT     H116520   6.717   6.305   0.464  0.8301 -0.3946  0.7963
 3950WAT     H216521   6.598   6.237   0.461  0.2025  0.6480  1.3713
 3950WAT    EPW16522   6.676   6.238   0.457  0.1850  0.0567  0.0454
 3951WAT      O16523   5.506   2.441   5.679  0.1879 -0.2779  0.2323
 3951WAT     H116524   5.493   2.451   5.593  0.6325  0.1445  0.2101
 3951WAT     H216525   5.557   2.509   5.699 -0.7941  0.2511  1.0366
 3951WAT    EPW16526   5.511   2.453   5.669  0.1085 -0.1374  0.3478
 3952WAT      O16527   7.458   3.243   3.580  0.1155 -0.0771 -0.1904
 3952WAT     H116528   7.481   3.201   3.653 -0.0144  2.1066  1.1985
 3952WAT     H216529   7.520   3.221   3.523  1.6538  0.1060  1.3489
 3952WAT    EPW16530   7.471   3.234   3.582  0.3236  0.2725  0.2422
 3953WAT      O16531   1.726   6.298   3.276  0.4035 -0.8997  0.3854
 3953WAT     H116532   1.780   6.300   3.345  2.9162  0.9170 -1.4388
 3953WAT     H216533   1.768   6.347   3.217 -2.2379 -1.3199 -2.0041
 3953WAT    EPW16534   1.740   6.306   3.278  0.3845 -0.6934 -0.2370
 3954WAT      O16535   5.913   5.185   7.522 -0.4783  0.1755  0.1889
 3954WAT     H116536   5.971   5.120   7.512  0.0750  0.6819  0.0018
 3954WAT     H216537   5.898   5.186   7.608 -1.5838 -1.1072  0.0458
 3954WAT    EPW16538   5.919   5.176   7.533 -0.5599  0.0609  0.1401
 3955WAT      O16539   0.153   3.932   5.500 -0.7572 -0.7024 -0.3220
 3955WAT     H116540   0.216   3.871   5.493 -0.8644 -0.9095  0.3948
 3955WAT     H216541   0.177   3.977   5.571 -0.4764  0.3398 -1.0552
 3955WAT    EPW16542   0.166   3.930   5.510 -0.7316 -0.5790 -0.3244
 3956WAT      O16543   4.367   6.849   1.187  0.9344 -0.3255  0.3815
 3956WAT     H116544   4.364   6.884   1.108  0.8916  1.9003  1.2862
 3956WAT     H216545   4.285   6.857   1.217  1.3368  0.5556  1.2999
 3956WAT    EPW16546   4.355   6.855   1.180  0.9875  0.1335  0.6508
 3957WAT      O16547   1.481   6.883   0.601  1.1151  0.1244  0.0450
 3957WAT     H116548   1.455   6.886   0.684  3.0209 -0.7705  0.7281
 3957WAT     H216549   1.408   6.863   0.557 -0.1158  1.5463  1.3538
 3957WAT    EPW16550   1.466   6.880   0.606  1.2148  0.2022  0.3392
 3958WAT      O16551   4.565   7.433   4.279  0.0505 -0.3475 -0.2224
 3958WAT     H116552   4.478   7.440   4.287 -0.0389  0.2132 -1.4145
 3958WAT     H216553   4.593   7.515   4.287  0.5215 -0.5711  0.5160
 3958WAT    EPW16554   4.556   7.446   4.281  0.1069 -0.2977 -0.2894
 3959WAT      O16555   5.414   2.017   2.465  0.0321 -0.0112  0.5888
 3959WAT     H116556   5.497   2.020   2.439  0.2257 -2.8822  0.5256
 3959WAT     H216557   5.374   2.076   2.415  1.9006  0.9521  0.1602
 3959WAT    EPW16558   5.420   2.026   2.454  0.3367 -0.2930  0.5162
 3960WAT      O16559   4.728   2.831   4.743  0.2116 -0.2161 -0.3858
 3960WAT     H116560   4.673   2.893   4.769 -0.7588 -0.2833 -2.1735
 3960WAT     H216561   4.682   2.784   4.686  1.7932 -0.9249 -1.1510
 3960WAT    EPW16562   4.713   2.833   4.738  0.3019 -0.3307 -0.7629
 3961WAT      O16563   7.479   2.577   4.539 -0.6944  0.0753 -0.1798
 3961WAT     H116564   7.433   2.583   4.465  0.1417 -1.6036 -0.8983
 3961WAT     H216565   7.560   2.600   4.515 -0.7799  1.4216  0.7011
 3961WAT    EPW16566   7.484   2.581   4.524 -0.5835  0.0262 -0.1558
 3962WAT      O16567   6.054   0.450   3.031 -0.0255  0.1188  0.5875
 3962WAT     H116568   6.099   0.521   3.056  2.1795 -0.7448 -0.6416
 3962WAT     H216569   6.055   0.456   2.944 -0.2135 -1.1680  0.4891
 3962WAT    EPW16570   6.061   0.462   3.022  0.2724 -0.1989  0.3914
 3963WAT      O16571   3.445   2.802   6.882  0.1268 -0.2521 -0.2238
 3963WAT     H116572   3.503   2.781   6.820 -1.0712  0.6458 -1.7393
 3963WAT     H216573   3.441   2.889   6.876 -1.2384 -0.2908 -0.0531
 3963WAT    EPW16574   3.453   2.812   6.872 -0.2519 -0.1251 -0.4225
 3964WAT      O16575   5.803   6.539   6.055  0.0818 -0.0859 -0.3790
 3964WAT     H116576   5.857   6.605   6.037 -0.7643  0.8395  0.3604
 3964WAT     H216577   5.728   6.563   6.018 -0.0870 -0.9353 -0.6253
 3964WAT    EPW16578   5.800   6.552   6.047 -0.0681 -0.0747 -0.3061
 3965WAT      O16579   5.264   4.795   6.286  0.7697  0.0356 -0.0395
 3965WAT     H116580   5.222   4.839   6.224  1.0190  0.7248  0.2811
 3965WAT     H216581   5.262   4.712   6.257 -0.1438  0.1708 -0.3893
 3965WAT    EPW16582   5.257   4.789   6.273  0.6716  0.1573 -0.0438
 3966WAT      O16583   1.217   4.480   6.533  0.4718 -0.2779 -0.0630
 3966WAT     H116584   1.202   4.417   6.592  2.9121 -0.4637  0.4765
 3966WAT     H216585   1.137   4.508   6.512 -0.6558 -2.6879  0.6118
 3966WAT    EPW16586   1.203   4.475   6.539  0.6657 -0.6614  0.1163
 3967WAT      O16587   3.741   6.246   7.732 -0.1312 -0.0211 -0.1774
 3967WAT     H116588   3.675   6.198   7.762 -1.7063  1.3440 -1.2647
 3967WAT     H216589   3.730   6.244   7.645  0.9379  0.6925 -0.3513
 3967WAT    EPW16590   3.730   6.239   7.724 -0.2060  0.2860 -0.3637
 3968WAT      O16591   2.480   6.100   2.824 -0.1402 -0.1441 -0.4048
 3968WAT     H116592   2.487   6.013   2.816 -0.2166 -0.2134  0.2044
 3968WAT     H216593   2.539   6.130   2.769  1.4258 -0.6326  0.9331
 3968WAT    EPW16594   2.489   6.091   2.815  0.0799 -0.2265 -0.1172
 3969WAT      O16595   5.205   4.819   7.763  0.0538 -0.1272 -0.5902
 3969WAT     H116596   5.176   4.842   7.842 -0.7559 -1.2704 -0.5231
 3969WAT     H216597   5.191   4.890   7.715  0.3142  0.4973  0.2233
 3969WAT    EPW16598   5.199   4.833   7.768 -0.0273 -0.2039 -0.4601
 3970WAT      O16599   0.684   7.425   7.735 -0.6521  0.1157 -0.4722
 3970WAT     H116600   0.612   7.471   7.752 -0.5131  0.7789 -1.6242
 3970WAT     H216601   0.746   7.467   7.779 -0.7311  0.3331 -0.5681
 3970WAT    EPW16602   0.682   7.438   7.744 -0.6433  0.2458 -0.6566
 3971WAT      O16603   5.670   4.693   3.297 -0.2902  0.6588  0.3645
 3971WAT     H116604   5.628   4.622   3.326 -1.1517  0.6615 -0.8214
 3971WAT     H216605   5.714   4.720   3.367 -2.2007  0.6065  1.6435
 3971WAT    EPW16606   5.670   4.686   3.312 -0.6997  0.6514  0.3783
 3972WAT      O16607   4.431   3.062   1.868  0.7714 -0.4187 -0.0819
 3972WAT     H116608   4.360   3.071   1.818  1.3871 -3.2737 -1.7022
 3972WAT     H216609   4.497   3.084   1.815  1.2800 -1.0106  0.2864
 3972WAT    EPW16610   4.430   3.066   1.852  0.9375 -0.9279 -0.2669
 3973WAT      O16611   4.137   6.658   1.911 -0.5596  0.2204  0.1174
 3973WAT     H116612   4.122   6.579   1.876 -0.4930 -0.4177  1.4841
 3973WAT     H216613   4.172   6.640   1.989 -1.7743  1.5824  1.0241
 3973WAT    EPW16614   4.140   6.644   1.917 -0.7292  0.3274  0.4532
 3974WAT      O16615   3.655   4.396   7.733 -0.6356 -0.8863 -0.3975
 3974WAT     H116616   3.689   4.351   7.667  0.0457 -2.0686  0.7144
 3974WAT     H216617   3.714   4.386   7.797 -2.5417 -2.1145  1.2791
 3974WAT    EPW16618   3.669   4.388   7.733 -0.8166 -1.2424  0.0144
 3975WAT      O16619   4.982   6.688   6.119  0.2113 -0.4304 -0.2184
 3975WAT     H116620   4.906   6.701   6.080 -0.2720 -0.8760  0.5490
 3975WAT     H216621   4.991   6.601   6.120  0.6625 -0.3887 -0.1769
 3975WAT    EPW16622   4.972   6.677   6.114  0.2066 -0.4901 -0.0989
 3976WAT      O16623   4.597   3.516   1.326  0.2525  0.4075 -0.5948
 3976WAT     H116624   4.557   3.484   1.397 -0.0046  0.2614 -0.8002
 3976WAT     H216625   4.676   3.538   1.354  0.0742  0.5653 -0.2092
 3976WAT    EPW16626   4.603   3.514   1.341  0.1882  0.4092 -0.5682
 3977WAT      O16627   5.070   4.485   7.431 -0.0042  0.3564 -0.3746
 3977WAT     H116628   5.035   4.514   7.506 -1.6378 -1.9468 -0.1284
 3977WAT     H216629   5.022   4.523   7.370  0.4455  1.1649 -0.2528
 3977WAT    EPW16630   5.058   4.495   7.433 -0.1791  0.1356 -0.3202
 3978WAT      O16631   4.000   5.683   6.681 -0.0238  0.8388 -0.0545
 3978WAT     H116632   4.074   5.724   6.662 -0.0212  1.2117  0.7419
 3978WAT     H216633   4.000   5.678   6.768 -1.0459  1.0681 -0.0276
 3978WAT    EPW16634   4.011   5.688   6.691 -0.1744  0.9278  0.0671
 3979WAT      O16635   3.483   6.154   7.147  0.0719  0.0234  0.3558
 3979WAT     H116636   3.460   6.076   7.178 -1.2220  0.8105  1.5145
 3979WAT     H216637   3.543   6.136   7.086 -0.0463 -1.8388  0.7478
 3979WAT    EPW16638   3.489   6.140   7.143 -0.1367 -0.1354  0.5849
 3980WAT      O16639   4.986   7.655   4.551 -0.4582 -0.3582  0.3300
 3980WAT     H116640   4.941   7.629   4.621 -0.8001 -0.0961  0.2120
 3980WAT     H216641   4.936   7.718   4.517 -0.9619 -1.4044 -0.9234
 3980WAT    EPW16642   4.972   7.660   4.556 -0.5831 -0.4741  0.1274
 3981WAT      O16643   2.717   4.984   5.049 -0.0806 -0.0718 -0.3523
 3981WAT     H116644   2.746   5.049   4.999  1.6969 -1.1258 -0.7720
 3981WAT     H216645   2.651   4.950   5.004  0.5256 -0.0481 -1.2718
 3981WAT    EPW16646   2.711   4.989   5.035  0.2715 -0.2240 -0.5502
 3982WAT      O16647   1.089   5.658   5.149 -0.0084  0.2149 -0.1173
 3982WAT     H116648   1.100   5.745   5.147  1.1730  0.1465  1.3832
 3982WAT     H216649   1.029   5.646   5.211  0.2339 -0.0668  0.0659
 3982WAT    EPW16650   1.082   5.669   5.158  0.2019  0.1632  0.1314
 3983WAT      O16651   2.140   0.070   5.846 -0.1809 -0.6000  0.2495
 3983WAT     H116652   2.069   0.120   5.842 -0.7758 -1.3561  1.0691
 3983WAT     H216653   2.111  -0.006   5.876  0.8093 -1.2628 -0.4021
 3983WAT    EPW16654   2.125   0.066   5.850 -0.1225 -0.8096  0.2743
 3984WAT      O16655   5.235   5.311   7.273 -0.2932 -0.2307  0.0406
 3984WAT     H116656   5.207   5.353   7.202  0.4615 -0.0090 -0.1362
 3984WAT     H216657   5.240   5.228   7.247  0.8788 -0.0159 -0.4607
 3984WAT    EPW16658   5.231   5.305   7.258 -0.0086 -0.1662 -0.0596
 3985WAT      O16659   3.804   6.518   4.310  0.0164  0.1061 -0.2327
 3985WAT     H116660   3.891   6.527   4.313  0.4095 -2.4203 -1.2999
 3985WAT     H216661   3.777   6.598   4.287  2.2662  0.4812 -2.0690
 3985WAT    EPW16662   3.813   6.531   4.307  0.4068 -0.2117 -0.6616
 3986WAT      O16663   5.264   2.451   5.904  0.1786  0.0817 -0.0720
 3986WAT     H116664   5.294   2.418   5.979  1.0500 -1.7547 -1.1547
 3986WAT     H216665   5.335   2.477   5.862 -0.4277  2.7904  0.3854
 3986WAT    EPW16666   5.279   2.450   5.909  0.2178  0.2105 -0.1643
 3987WAT      O16667   2.188   4.321   6.406  0.3663 -0.3081  0.4074
 3987WAT     H116668   2.221   4.245   6.381 -1.5867 -0.8158 -0.8118
 3987WAT     H216669   2.158   4.356   6.332  0.4721  1.2931  1.0695
 3987WAT    EPW16670   2.189   4.315   6.392  0.0934 -0.1465  0.3251
 3988WAT      O16671   5.801   3.993   4.709 -0.2860 -0.0576 -0.5697
 3988WAT     H116672   5.743   3.953   4.657  0.8038 -3.3326  0.4923
 3988WAT     H216673   5.870   3.940   4.707  0.7923  1.0628  2.1220
 3988WAT    EPW16674   5.803   3.979   4.701  0.0343 -0.3758 -0.0152
 3989WAT      O16675   3.821   2.423   4.826  0.0461 -0.0133  0.3198
 3989WAT     H116676   3.784   2.493   4.789 -1.5993 -0.6396  0.6941
 3989WAT     H216677   3.826   2.444   4.910  1.0048  0.2373  0.2155
 3989WAT    EPW16678   3.816   2.436   4.833 -0.0553 -0.0688  0.3597
 3990WAT      O16679   4.643   6.946   4.664 -0.1692 -0.8443 -0.3904
 3990WAT     H116680   4.718   6.988   4.673 -0.8082  0.4679 -0.9405
 3990WAT     H216681   4.658   6.890   4.599  0.6967 -1.5116  0.3644
 3990WAT    EPW16682   4.656   6.944   4.656 -0.1357 -0.7491 -0.3602
 3991WAT      O16683   4.642   1.790   3.878 -0.3445  0.5572 -1.1132
 3991WAT     H116684   4.705   1.846   3.854 -0.0229  1.6143  1.7753
 3991WAT     H216685   4.570   1.839   3.874 -0.5210  0.2791 -1.3599
 3991WAT    EPW16686   4.641   1.806   3.874 -0.3231  0.6723 -0.7229
 3992WAT      O16687   2.487   1.278   5.047 -0.3686  0.1227  0.3000
 3992WAT     H116688   2.528   1.210   5.012 -0.4522  0.1819  0.0898
 3992WAT     H216689   2.546   1.342   5.042 -1.1030  0.6922 -1.6565
 3992WAT    EPW16690   2.502   1.277   5.041 -0.4894  0.2156 -0.0201
 3993WAT      O16691   4.764   4.328   2.275  0.0867 -0.1616 -0.2309
 3993WAT     H116692   4.758   4.299   2.193 -0.2333  0.8800 -0.5967
 3993WAT     H216693   4.789   4.258   2.320  0.3176 -0.7383 -1.2259
 3993WAT    EPW16694   4.767   4.314   2.269  0.0735 -0.0929 -0.4319
 3994WAT      O16695   1.439   0.055   0.117 -0.4720 -0.1033  0.0771
 3994WAT     H116696   1.449  -0.027   0.146  1.7544  0.1671  0.2039
 3994WAT     H216697   1.407   0.097   0.187 -0.9702 -0.7048  0.2208
 3994WAT    EPW16698   1.435   0.049   0.132 -0.2167 -0.1522  0.1170
 3995WAT      O16699   6.100   4.704   6.170  0.2456 -0.2059  0.1808
 3995WAT     H116700   6.143   4.648   6.119  0.4674  0.5694 -0.5081
 3995WAT     H216701   6.016   4.684   6.157  0.3091 -0.1342 -0.3449
 3995WAT    EPW16702   6.094   4.693   6.161  0.2878 -0.0808  0.0014
 3996WAT      O16703   5.834   4.947   4.373  0.3627  0.4990  0.3570
 3996WAT     H116704   5.753   4.974   4.354  0.4734  1.4906  1.2280
 3996WAT     H216705   5.830   4.861   4.359 -1.1737  0.3447  1.4776
 3996WAT    EPW16706   5.822   4.938   4.368  0.1521  0.6227  0.6512
 3997WAT      O16707   6.010   0.861   4.473  0.1453 -0.2327  0.2783
 3997WAT     H116708   6.075   0.916   4.495 -0.8868  0.5815  1.3988
 3997WAT     H216709   6.011   0.802   4.537  0.3643 -0.7637 -0.2055
 3997WAT    EPW16710   6.020   0.861   4.486  0.0252 -0.1909  0.3724
 3998WAT      O16711   0.720   5.024   6.319  0.6136 -0.1109 -0.0508
 3998WAT     H116712   0.720   5.053   6.237 -0.2917  0.3796  0.1135
 3998WAT     H216713   0.759   5.088   6.364  0.6374 -0.1497 -0.0152
 3998WAT    EPW16714   0.726   5.038   6.313  0.4834 -0.0442 -0.0213
 3999WAT      O16715   6.585   7.504   0.215  0.8379  0.4574  0.0129
 3999WAT     H116716   6.655   7.456   0.234  0.3565 -0.8410 -1.3057
 3999WAT     H216717   6.555   7.468   0.141 -1.7866  0.3322  1.0405
 3999WAT    EPW16718   6.591   7.492   0.207  0.3791  0.2471 -0.0301
 4000WAT      O16719   5.731   3.006   7.196 -0.1693  0.0607  0.1354
 4000WAT     H116720   5.704   3.089   7.195 -2.6629 -0.5733  2.5760
 4000WAT     H216721   5.690   2.970   7.128 -0.4371  0.4946  0.0625
 4000WAT    EPW16722   5.721   3.013   7.186 -0.5772  0.0312  0.4852
 4001WAT      O16723   6.904   2.427   4.713 -0.0932  0.0751  0.3718
 4001WAT     H116724   6.939   2.497   4.676  1.1484 -0.9122 -0.4164
 4001WAT     H216725   6.952   2.361   4.682 -0.9459 -1.0898  1.4051
 4001WAT    EPW16726   6.916   2.427   4.703 -0.0358 -0.2428  0.4080
 4002WAT      O16727   3.724   6.619   2.552 -0.6491  0.1457 -0.5015
 4002WAT     H116728   3.744   6.540   2.586  3.5867  1.6534  1.2163
 4002WAT     H216729   3.748   6.611   2.469 -1.9016 -0.8119 -0.8017
 4002WAT    EPW16730   3.731   6.606   2.545 -0.2084  0.2270 -0.2921
 4003WAT      O16731   5.210   6.122   0.266  0.2648 -0.4994  0.0968
 4003WAT     H116732   5.233   6.038   0.270  0.1924 -0.4830  2.5728
 4003WAT     H216733   5.256   6.153   0.198  0.9003 -2.3379 -0.3709
 4003WAT    EPW16734   5.220   6.114   0.256  0.3480 -0.7685  0.3935
 4004WAT      O16735   4.986   4.089   0.034 -0.0820 -0.0312 -0.2801
 4004WAT     H116736   4.928   4.124  -0.022 -1.9058 -0.9117  0.9654
 4004WAT     H216737   4.940   4.027   0.074  1.5519 -0.2942  1.2841
 4004WAT    EPW16738   4.971   4.085   0.031 -0.1101 -0.2001  0.1349
 4005WAT      O16739   5.843   0.073   5.741  0.1294 -0.1728 -0.0317
 4005WAT     H116740   5.820  -0.010   5.725  0.2958  0.1144 -1.9967
 4005WAT     H216741   5.929   0.067   5.756  0.0273 -0.4257  0.4668
 4005WAT    EPW16742   5.852   0.060   5.741  0.1389 -0.1677 -0.2483
 4006WAT      O16743   2.867   1.581   6.598 -0.0462  0.3372  0.8703
 4006WAT     H116744   2.788   1.583   6.636 -0.3772 -1.0082  0.2847
 4006WAT     H216745   2.851   1.550   6.518  0.8753  1.5587  0.1830
 4006WAT    EPW16746   2.853   1.577   6.592  0.0410  0.3189  0.6822
 4007WAT      O16747   6.151   1.239   5.014 -0.0157 -0.1546 -0.2403
 4007WAT     H116748   6.073   1.266   5.043  0.1806  1.1955 -0.9207
 4007WAT     H216749   6.207   1.288   5.059  0.3813  0.0406 -0.9439
 4007WAT    EPW16750   6.147   1.250   5.025  0.0719  0.0737 -0.4447
 4008WAT      O16751   2.984   5.501   2.787 -0.2622 -0.4132 -0.6758
 4008WAT     H116752   3.067   5.493   2.815 -0.1838  1.6630 -0.1425
 4008WAT     H216753   2.939   5.515   2.861 -0.8591 -0.0389 -1.1018
 4008WAT    EPW16754   2.990   5.502   2.802 -0.3388 -0.0512 -0.6599
 4009WAT      O16755   4.354   6.754   2.878  0.5261  0.1000 -0.7060
 4009WAT     H116756   4.316   6.831   2.892 -0.4492  0.1008 -2.8911
 4009WAT     H216757   4.322   6.730   2.800  2.0943 -1.7229 -0.8474
 4009WAT    EPW16758   4.344   6.762   2.868  0.6136 -0.1692 -1.0497
 4010WAT      O16759   2.483   0.932   2.990 -0.2228  0.5893 -0.0263
 4010WAT     H116760   2.449   1.011   2.975 -0.9129  0.4673  0.8052
 4010WAT     H216761   2.416   0.886   3.020  0.2321 -0.2474 -0.2607
 4010WAT    EPW16762   2.468   0.937   2.992 -0.2576  0.4477  0.0619
 4011WAT      O16763   5.476   4.467   3.179 -0.4538  0.0593 -0.4946
 4011WAT     H116764   5.504   4.406   3.124  0.2003 -0.0568 -0.0473
 4011WAT     H216765   5.468   4.538   3.130  0.9903  0.1894 -0.5743
 4011WAT    EPW16766   5.479   4.469   3.164 -0.1439  0.0613 -0.4403
 4012WAT      O16767   2.649   5.159   2.672  0.0316  0.0832  0.3967
 4012WAT     H116768   2.588   5.188   2.617  1.2247  0.5658 -0.7455
 4012WAT     H216769   2.722   5.163   2.624  0.8233 -1.3144  1.4149
 4012WAT    EPW16770   2.651   5.164   2.657  0.3248 -0.0520  0.3784
 4013WAT      O16771   3.037   6.252   5.000 -0.8429  0.1133  0.0306
 4013WAT     H116772   3.047   6.221   4.919 -0.3712  0.9641 -0.2525
 4013WAT     H216773   3.080   6.328   4.998 -1.4781  0.5089  0.8652
 4013WAT    EPW16774   3.045   6.259   4.987 -0.8671  0.2974  0.1121
 4014WAT      O16775   4.075   6.228   5.244  0.0591 -0.4463 -0.3924
 4014WAT     H116776   4.138   6.179   5.280  0.4629 -0.0979 -0.6273
 4014WAT     H216777   4.052   6.282   5.308 -0.5530 -1.0838 -0.0527
 4014WAT    EPW16778   4.081   6.228   5.259  0.0284 -0.4890 -0.3769
 4015WAT      O16779   6.692   4.873   6.332  0.1058 -0.1754 -0.1360
 4015WAT     H116780   6.630   4.924   6.297 -0.3095  0.1185  0.9580
 4015WAT     H216781   6.753   4.869   6.271 -0.6483  0.1960 -0.9300
 4015WAT    EPW16782   6.692   4.880   6.318 -0.0669 -0.0772 -0.0917
 4016WAT      O16783   6.253   5.991   0.313  0.2341 -0.0310  0.1879
 4016WAT     H116784   6.255   6.041   0.241 -1.4829  0.1180  0.2117
 4016WAT     H216785   6.337   5.983   0.334  0.7998 -0.1126 -1.8634
 4016WAT    EPW16786   6.266   5.997   0.305  0.0640 -0.0210 -0.1116
 4017WAT      O16787   5.506   6.554   5.576 -0.4535 -0.2028  0.3345
 4017WAT     H116788   5.549   6.520   5.644 -1.8902 -0.6859  1.0332
 4017WAT     H216789   5.521   6.640   5.584  1.2991 -0.4234 -0.1240
 4017WAT    EPW16790   5.515   6.562   5.587 -0.4068 -0.3067  0.3700
 4018WAT      O16791   5.483   4.532   3.878 -0.3080  0.3425 -0.4151
 4018WAT     H116792   5.402   4.532   3.911  0.1653 -2.2451  0.9835
 4018WAT     H216793   5.534   4.522   3.948  1.1787  0.8104 -1.3768
 4018WAT    EPW16794   5.478   4.531   3.893 -0.0185  0.0294 -0.3505
 4019WAT      O16795   6.012   6.061   3.485  0.1594  0.1732 -0.2220
 4019WAT     H116796   5.986   6.047   3.404 -2.8181  1.3858  0.4057
 4019WAT     H216797   6.021   5.980   3.518 -1.9109 -0.3711 -0.8429
 4019WAT    EPW16798   6.010   6.047   3.478 -0.5862  0.2719 -0.2210
 4020WAT      O16799   3.596   2.109   4.138 -0.5653  0.3353 -0.9467
 4020WAT     H116800   3.588   2.192   4.112 -1.2426  0.3248 -0.7820
 4020WAT     H216801   3.553   2.107   4.215  1.0696  0.2773  0.0091
 4020WAT    EPW16802   3.588   2.121   4.146 -0.4238  0.3252 -0.7812
 4021WAT      O16803   6.804   5.590   5.373  0.2796  0.7055  0.0737
 4021WAT     H116804   6.763   5.569   5.447  0.0109  0.5506 -0.1194
 4021WAT     H216805   6.757   5.550   5.311 -0.0311  1.5838 -0.2684
 4021WAT    EPW16806   6.791   5.581   5.375  0.1940  0.8124 -0.0054
 4022WAT      O16807   1.414   7.140   2.848  0.0012  0.1972 -0.3261
 4022WAT     H116808   1.338   7.157   2.889  0.4856  1.0900  0.2544
 4022WAT     H216809   1.400   7.167   2.767 -0.9850 -1.6147 -0.8119
 4022WAT    EPW16810   1.401   7.147   2.842 -0.0729  0.0614 -0.3121
 4023WAT      O16811   6.596   4.304   7.313 -0.3796  0.3843  0.4203
 4023WAT     H116812   6.603   4.293   7.227 -1.8446  0.4408  0.2786
 4023WAT     H216813   6.678   4.323   7.338  0.4982 -1.6268 -0.6581
 4023WAT    EPW16814   6.609   4.305   7.304 -0.4663  0.0955  0.2400
 4024WAT      O16815   6.577   5.540   4.085  0.3250  0.4959 -0.1047
 4024WAT     H116816   6.645   5.594   4.074  0.2775  0.4738 -0.5323
 4024WAT     H216817   6.607   5.463   4.059 -0.0979  0.6404 -1.0672
 4024WAT    EPW16818   6.591   5.537   4.079  0.2555  0.5140 -0.3101
 4025WAT      O16819   4.076   5.307   4.421 -0.0458 -0.3571  0.1971
 4025WAT     H116820   4.155   5.272   4.414  0.3776  0.6973 -0.3649
 4025WAT     H216821   4.023   5.244   4.391  0.6774 -0.6035 -0.5690
 4025WAT    EPW16822   4.080   5.292   4.416  0.1236 -0.2377  0.0009
 4026WAT      O16823   3.830   7.264   4.369  0.2507 -0.6174 -0.3979
 4026WAT     H116824   3.901   7.250   4.321  0.6071  0.8113 -0.3326
 4026WAT     H216825   3.803   7.184   4.391  0.5035 -1.2855 -2.3466
 4026WAT    EPW16826   3.836   7.250   4.365  0.3407 -0.5050 -0.6761
 4027WAT      O16827   4.521   7.534   3.076 -0.1985 -0.1436 -0.1330
 4027WAT     H116828   4.530   7.515   2.991 -1.0804 -1.0094 -0.0477
 4027WAT     H216829   4.437   7.517   3.092  0.2444 -1.2012  1.2013
 4027WAT    EPW16830   4.510   7.528   3.065 -0.2633 -0.4277  0.0767
 4028WAT      O16831   6.403   4.411   4.526  1.0158 -0.1884 -0.4414
 4028WAT     H116832   6.385   4.442   4.446 -0.4303 -2.0472 -0.9138
 4028WAT     H216833   6.369   4.331   4.525  2.0229 -0.7149  1.6680
 4028WAT    EPW16834   6.395   4.404   4.514  0.9510 -0.5408 -0.1996
 4029WAT      O16835   0.574   4.993   7.322  0.8130 -0.4173 -0.3074
 4029WAT     H116836   0.567   4.990   7.409  2.2121  0.0037 -0.1466
 4029WAT     H216837   0.497   5.025   7.296  0.5279 -0.1426  0.8085
 4029WAT    EPW16838   0.562   4.997   7.331  0.9775 -0.3145 -0.1188
 4030WAT      O16839   7.005   7.395   6.179 -0.1698 -0.1820 -0.8113
 4030WAT     H116840   7.046   7.405   6.102 -0.0987  0.4624 -0.6995
 4030WAT     H216841   6.989   7.477   6.204 -3.9082 -0.3464 -2.0962
 4030WAT    EPW16842   7.009   7.409   6.171 -0.7115 -0.1111 -0.9846
 4031WAT      O16843   6.034   6.741   6.808 -0.3136  0.0006 -0.5008
 4031WAT     H116844   6.089   6.675   6.793 -0.3009 -0.6135  1.8733
 4031WAT     H216845   5.968   6.726   6.753  0.3517 -1.1931 -1.0016
 4031WAT    EPW16846   6.032   6.729   6.798 -0.2134 -0.2665 -0.2241
 4032WAT      O16847   5.766   5.075   6.334  0.0310  0.2977 -0.0141
 4032WAT     H116848   5.684   5.055   6.311 -0.4545  2.2138 -0.1093
 4032WAT     H216849   5.769   5.161   6.325  1.8361  0.3541  0.7891
 4032WAT    EPW16850   5.755   5.085   6.329  0.2260  0.5891  0.0905
 4033WAT      O16851   7.245   0.037   7.391 -0.2223  0.1006 -0.5044
 4033WAT     H116852   7.327   0.060   7.372  0.1515 -2.1005 -1.9829
 4033WAT     H216853   7.251   0.002   7.471  0.0280  0.9421 -0.1397
 4033WAT    EPW16854   7.258   0.035   7.400 -0.1301 -0.1003 -0.6690
 4034WAT      O16855   6.390   4.709   6.419  0.4022  0.1280 -0.3379
 4034WAT     H116856   6.453   4.658   6.451  0.6253  1.6114  1.8744
 4034WAT     H216857   6.317   4.675   6.453  0.2784 -0.1043 -0.8279
 4034WAT    EPW16858   6.389   4.697   6.429  0.4169  0.3128 -0.0835
 4035WAT      O16859   5.334   3.111   2.103 -0.0686  0.5215 -0.2679
 4035WAT     H116860   5.373   3.183   2.073  3.4219 -1.0940 -0.0028
 4035WAT     H216861   5.362   3.105   2.185  1.1544 -2.0027 -0.7949
 4035WAT    EPW16862   5.344   3.121   2.111  0.6277 -0.0900 -0.3066
 4036WAT      O16863   4.036   0.904   7.493 -0.1123  0.1504 -0.5020
 4036WAT     H116864   3.987   0.976   7.494  0.6299  0.6621  0.3094
 4036WAT     H216865   4.063   0.895   7.576  0.3746 -0.6645 -0.7281
 4036WAT    EPW16866   4.033   0.913   7.505  0.0693  0.1056 -0.4155
 4037WAT      O16867   6.316   7.639   5.636 -0.3289  0.3293 -0.0848
 4037WAT     H116868   6.302   7.607   5.717  1.0596  1.4032  0.6269
 4037WAT     H216869   6.327   7.568   5.588  0.1910 -0.3338  0.9639
 4037WAT    EPW16870   6.315   7.624   5.641 -0.0470  0.3900  0.1752
 4038WAT      O16871   3.128   0.507   3.372 -0.0228 -0.4343  0.8672
 4038WAT     H116872   3.124   0.594   3.364 -0.7980 -0.6063 -2.5664
 4038WAT     H216873   3.206   0.493   3.408  0.2045  1.6759  1.3408
 4038WAT    EPW16874   3.139   0.518   3.376 -0.1037 -0.1480  0.4300
 4039WAT      O16875   6.215   0.093   0.387 -0.6184 -0.4944  0.4982
 4039WAT     H116876   6.151   0.049   0.347  0.8416 -1.7381 -0.5622
 4039WAT     H216877   6.285   0.079   0.337  0.7479 -0.0746  2.1772
 4039WAT    EPW16878   6.216   0.085   0.374 -0.2009 -0.6161  0.5896
 4040WAT      O16879   3.336   6.644   6.943 -0.3637 -0.3746  0.1964
 4040WAT     H116880   3.400   6.637   6.885 -1.7915 -1.6955 -1.3160
 4040WAT     H216881   3.349   6.577   6.997 -0.1072 -0.2432  0.2996
 4040WAT    EPW16882   3.348   6.633   6.942 -0.5368 -0.5503 -0.0118
 4041WAT      O16883   5.055   5.989   6.510 -0.2185  0.0800  0.3828
 4041WAT     H116884   4.977   5.952   6.498  0.1077 -1.2197  1.9119
 4041WAT     H216885   5.037   6.073   6.520 -1.1199  0.2470 -2.0206
 4041WAT    EPW16886   5.041   5.996   6.510 -0.3034 -0.0873  0.2537
 4042WAT      O16887   4.619   5.659   3.253  0.1529 -0.2670  0.0545
 4042WAT     H116888   4.613   5.634   3.169  0.0254 -1.3501  0.3599
 4042WAT     H216889   4.682   5.608   3.285  2.0986  1.9557  0.0331
 4042WAT    EPW16890   4.627   5.647   3.245  0.4215 -0.0986  0.0965
 4043WAT      O16891   5.598   5.839   6.693  0.3850 -0.9215 -0.3060
 4043WAT     H116892   5.515   5.834   6.722 -0.1103 -0.0926 -1.4953
 4043WAT     H216893   5.589   5.841   6.606  1.6207 -0.2835 -0.4415
 4043WAT    EPW16894   5.584   5.839   6.684  0.4944 -0.7048 -0.5017
 4044WAT      O16895   3.330   4.948   6.441 -0.8659 -0.2237  0.4058
 4044WAT     H116896   3.341   4.958   6.527 -1.0155  0.8504  0.3154
 4044WAT     H216897   3.345   5.028   6.409  1.9933 -1.1563 -0.9104
 4044WAT    EPW16898   3.334   4.962   6.449 -0.4656 -0.2028  0.1980
 4045WAT      O16899   2.389   4.493   3.883  0.3756 -0.0081  0.2629
 4045WAT     H116900   2.312   4.465   3.854  1.6396 -0.5389 -2.9175
 4045WAT     H216901   2.399   4.449   3.958 -3.2216  1.6705  1.9774
 4045WAT    EPW16902   2.379   4.482   3.890  0.0310  0.1615  0.0463
 4046WAT      O16903   0.017   0.942   6.100  0.6436  0.0058 -0.3550
 4046WAT     H116904  -0.024   0.876   6.061  0.0746 -1.2531  2.1852
 4046WAT     H216905   0.091   0.906   6.129  1.1641  0.9652 -0.4307
 4046WAT    EPW16906   0.022   0.927   6.099  0.6364 -0.0384  0.0091
 4047WAT      O16907   3.426   1.061   4.053 -0.2515  0.2830 -0.1296
 4047WAT     H116908   3.443   0.976   4.064 -0.5584  0.3338  0.8493
 4047WAT     H216909   3.376   1.081   4.122 -2.2357  0.7166 -1.6188
 4047WAT    EPW16910   3.421   1.051   4.065 -0.5900  0.3546 -0.2050
 4048WAT      O16911   2.268   0.466   3.820 -0.2212  0.3537 -0.0731
 4048WAT     H116912   2.235   0.478   3.900 -1.0160  0.7311 -0.4415
 4048WAT     H216913   2.345   0.506   3.824 -1.6385  3.4040 -0.4339
 4048WAT    EPW16914   2.274   0.474   3.832 -0.5480  0.8600 -0.1808
 4049WAT      O16915   5.131   7.062   5.021 -0.2532 -0.1966 -0.2452
 4049WAT     H116916   5.138   7.007   5.089  0.5017  0.6713  0.4027
 4049WAT     H216917   5.204   7.109   5.025 -0.7306  0.6277 -0.9873
 4049WAT    EPW16918   5.143   7.061   5.032 -0.2122  0.0534 -0.2591
 4050WAT      O16919   3.069   4.917   7.858 -0.1416  0.4972 -0.1709
 4050WAT     H116920   3.077   4.834   7.885 -1.3171 -0.1225 -1.5999
 4050WAT     H216921   3.085   4.913   7.773 -1.4576  1.5104 -0.5014
 4050WAT    EPW16922   3.073   4.904   7.849 -0.5096  0.5553 -0.4308
 4051WAT      O16923   5.415   1.213   3.566 -0.1189 -0.8621  0.2826
 4051WAT     H116924   5.460   1.283   3.540  1.5466 -1.6627  0.8635
 4051WAT     H216925   5.335   1.245   3.582  0.8935  1.1679  1.7277
 4051WAT    EPW16926   5.409   1.228   3.564  0.2767 -0.6805  0.5819
 4052WAT      O16927   4.378   3.145   6.099 -0.3050  0.1083 -0.3186
 4052WAT     H116928   4.453   3.133   6.056  0.3763  2.3395  0.1087
 4052WAT     H216929   4.357   3.228   6.082 -2.3364 -0.2423  0.1431
 4052WAT    EPW16930   4.386   3.155   6.090 -0.5044  0.3861 -0.1873
 4053WAT      O16931   0.571   6.290   6.470  0.2645  0.4170  0.4866
 4053WAT     H116932   0.545   6.230   6.413  0.4490  2.0320 -1.4020
 4053WAT     H216933   0.635   6.250   6.514  1.4965 -0.3081 -1.8158
 4053WAT    EPW16934   0.577   6.276   6.468  0.4737  0.5484 -0.1325
 4054WAT      O16935   1.456   3.503   6.953  0.3475 -0.4660  0.4745
 4054WAT     H116936   1.476   3.424   6.922  1.4637 -0.3633  0.8699
 4054WAT     H216937   1.532   3.547   6.947  0.0270  0.2279  1.2893
 4054WAT    EPW16938   1.470   3.498   6.947  0.4650 -0.3483  0.6533
 4055WAT      O16939   1.188   0.849   3.831  0.1667  0.5657  0.5429
 4055WAT     H116940   1.243   0.782   3.838  0.5826  0.8581  0.1369
 4055WAT     H216941   1.130   0.822   3.771  0.6282  0.7624  0.0022
 4055WAT    EPW16942   1.187   0.835   3.823  0.2963  0.6379  0.4030
 4056WAT      O16943   4.445   5.983   0.140  0.0635  0.7039  0.4475
 4056WAT     H116944   4.441   5.913   0.088 -0.1389  1.4249 -0.5456
 4056WAT     H216945   4.391   6.040   0.102  0.9334  1.7335  0.6949
 4056WAT    EPW16946   4.436   5.981   0.126  0.1621  0.9625  0.3373
 4057WAT      O16947   5.743   6.235   6.055 -0.7349 -0.1411  0.6295
 4057WAT     H116948   5.671   6.200   6.022 -1.7608  0.8941  1.6453
 4057WAT     H216949   5.715   6.309   6.091  0.6178 -0.2806  2.1061
 4057WAT    EPW16950   5.729   6.241   6.056 -0.6866 -0.0088  0.9977
 4058WAT      O16951   5.605   5.398   5.541  0.1273  0.8585 -0.1320
 4058WAT     H116952   5.635   5.414   5.621 -1.1330  1.3019  0.2710
 4058WAT     H216953   5.673   5.361   5.500  1.9772  3.7994  0.0271
 4058WAT    EPW16954   5.620   5.395   5.547  0.2144  1.3584 -0.0490
 4059WAT      O16955   4.747   5.155   0.692 -0.3407  0.2054  0.2648
 4059WAT     H116956   4.685   5.139   0.751 -2.0277 -1.2118 -1.7317
 4059WAT     H216957   4.782   5.077   0.677 -0.3827  0.4186 -1.0378
 4059WAT    EPW16958   4.743   5.141   0.699 -0.5961  0.0275 -0.2226
 4060WAT      O16959   6.800   1.700   6.300  0.4745 -0.1923  0.0755
 4060WAT     H116960   6.735   1.665   6.347  0.2212  1.3793  0.9870
 4060WAT     H216961   6.758   1.741   6.236  0.6448 -0.1378  0.0012
 4060WAT    EPW16962   6.784   1.701   6.298  0.4622  0.0479  0.1992
 4061WAT      O16963   2.985   2.527   1.675  0.6963  0.4027 -0.2832
 4061WAT     H116964   3.020   2.453   1.706  1.1354  0.4636 -0.6234
 4061WAT     H216965   3.042   2.588   1.699  0.9621  0.4706 -1.0431
 4061WAT    EPW16966   2.999   2.525   1.683  0.8004  0.4217 -0.4457
 4062WAT      O16967   3.838   3.887   1.616  0.1618 -0.3327 -0.3417
 4062WAT     H116968   3.906   3.846   1.581 -0.1240 -1.7986  0.6805
 4062WAT     H216969   3.781   3.822   1.631 -0.9544  0.6718 -0.0343
 4062WAT    EPW16970   3.839   3.871   1.613 -0.0453 -0.4008 -0.1453
 4063WAT      O16971   6.294   0.520   6.471  0.0996 -0.2003 -0.2166
 4063WAT     H116972   6.367   0.521   6.423  0.9957  1.6882  1.0494
 4063WAT     H216973   6.238   0.474   6.423  1.5283 -0.0407 -2.1479
 4063WAT    EPW16974   6.296   0.513   6.457  0.4430  0.1023 -0.3149
 4064WAT      O16975   6.427   5.135   4.160  1.1058 -0.0003 -0.4435
 4064WAT     H116976   6.473   5.061   4.155 -0.9549 -1.3901 -0.0671
 4064WAT     H216977   6.356   5.119   4.112 -0.0143  1.2286  0.6918
 4064WAT    EPW16978   6.423   5.122   4.152  0.6359 -0.0241 -0.2202
 4065WAT      O16979   3.050   5.827   0.828 -0.0785 -0.2511  0.1814
 4065WAT     H116980   3.069   5.743   0.812 -1.4072 -1.1451  2.8392
 4065WAT     H216981   3.109   5.870   0.779  0.7442 -2.6873 -1.1670
 4065WAT    EPW16982   3.062   5.821   0.818 -0.1532 -0.7430  0.3748
 4066WAT      O16983   4.304   3.738   7.228 -0.1514 -0.2338  0.7549
 4066WAT     H116984   4.341   3.670   7.187  2.5070  0.3869  1.9055
 4066WAT     H216985   4.245   3.767   7.170  2.9681  0.2703 -2.5760
 4066WAT    EPW16986   4.300   3.732   7.213  0.7021 -0.0677  0.4328
 4067WAT      O16987   5.841   5.122   4.619 -0.0978 -0.2477  0.3016
 4067WAT     H116988   5.871   5.067   4.559  0.9729 -1.3504  1.7850
 4067WAT     H216989   5.894   5.192   4.611  0.0609 -0.4034 -0.0058
 4067WAT    EPW16990   5.853   5.124   4.609  0.0838 -0.4336  0.4753
 4068WAT      O16991   2.594   7.303   7.680  0.1607  0.5294 -0.0599
 4068WAT     H116992   2.535   7.336   7.625  1.4601  1.9786 -0.6574
 4068WAT     H216993   2.669   7.310   7.636  1.2003  1.4364  1.7498
 4068WAT    EPW16994   2.596   7.309   7.665  0.5062  0.8774  0.1192
 4069WAT      O16995   3.260   1.069   4.637  0.0010  0.2869  0.8891
 4069WAT     H116996   3.257   0.996   4.685 -1.4129 -1.3280 -1.4640
 4069WAT     H216997   3.194   1.117   4.669 -0.9076 -0.7495  0.6145
 4069WAT    EPW16998   3.250   1.065   4.649 -0.3421 -0.1048  0.5009
 4070WAT      O16999   6.015   6.437   4.376  0.0851  0.3503 -0.0057
 4070WAT     H117000   6.003   6.521   4.358  1.4740  0.1519 -2.1568
 4070WAT     H217001   6.097   6.434   4.407 -0.3828 -0.0878  1.2762
 4070WAT    EPW17002   6.025   6.449   4.378  0.2211  0.2563 -0.1341
 4071WAT      O17003   3.595   3.904   6.157  0.4831  0.0245 -0.1807
 4071WAT     H117004   3.616   3.987   6.140 -0.0961  0.9774  3.0160
 4071WAT     H217005   3.636   3.888   6.233 -1.7635 -1.5994  0.7994
 4071WAT    EPW17006   3.604   3.914   6.166  0.0657 -0.0746  0.4363
 4072WAT      O17007   5.855   4.311   2.176  0.2558  0.2884  0.5570
 4072WAT     H117008   5.912   4.314   2.110 -1.4649 -0.3378 -1.0508
 4072WAT     H217009   5.778   4.315   2.136 -0.8565  1.9468  2.7129
 4072WAT    EPW17010   5.852   4.312   2.160 -0.1627  0.4409  0.6379
 4073WAT      O17011   5.805   7.573   3.181  0.0204 -0.1413 -0.2434
 4073WAT     H117012   5.891   7.567   3.168 -0.1913 -0.9797 -1.3966
 4073WAT     H217013   5.771   7.518   3.122 -1.2403 -1.0983  1.2854
 4073WAT    EPW17014   5.813   7.564   3.171 -0.1971 -0.4065 -0.1879
 4074WAT      O17015   5.244   5.501   3.372  0.2767  0.6974  0.3769
 4074WAT     H117016   5.174   5.487   3.322 -0.7271  1.3805  1.5418
 4074WAT     H217017   5.261   5.422   3.405 -0.2648  0.6240  0.4950
 4074WAT    EPW17018   5.236   5.487   3.369  0.0485  0.7875  0.5665
 4075WAT      O17019   1.587   5.319   4.530 -0.0670 -0.6285  0.4295
 4075WAT     H117020   1.588   5.338   4.615 -0.0372 -0.0417  0.2992
 4075WAT     H217021   1.668   5.293   4.513  0.0912 -0.1574  0.4507
 4075WAT    EPW17022   1.599   5.318   4.540 -0.0392 -0.4722  0.4134
 4076WAT      O17023   4.771   4.265   4.614  0.3228  0.2756 -0.2774
 4076WAT     H117024   4.761   4.341   4.656  2.4401  0.9320 -0.8537
 4076WAT     H217025   4.766   4.287   4.530  0.4948 -0.2897 -0.4400
 4076WAT    EPW17026   4.769   4.279   4.608  0.6609  0.2891 -0.3866
 4077WAT      O17027   5.332   4.917   4.303  0.1429  0.1886  0.6813
 4077WAT     H117028   5.250   4.930   4.331  0.2014  0.3317  0.7891
 4077WAT     H217029   5.345   4.982   4.247  0.3027  0.3750  0.9293
 4077WAT    EPW17030   5.322   4.929   4.299  0.1752  0.2373  0.7338
 4078WAT      O17031   0.788   4.737   4.242  0.4446 -0.2038  0.3157
 4078WAT     H117032   0.814   4.821   4.238 -1.4320  0.4252  0.6599
 4078WAT     H217033   0.745   4.726   4.168 -0.0993 -0.5905  0.6877
 4078WAT    EPW17034   0.786   4.748   4.231  0.0871 -0.1680  0.4215
 4079WAT      O17035   0.392   4.536   0.150  0.1466  0.0656 -0.0339
 4079WAT     H117036   0.464   4.578   0.177  1.7895 -1.5618 -1.5444
 4079WAT     H217037   0.336   4.600   0.132  1.5631  1.4608  0.2885
 4079WAT    EPW17038   0.394   4.552   0.151  0.5985  0.0313 -0.2094
 4080WAT      O17039   5.028   3.968   5.806  0.0907  0.2338 -0.2626
 4080WAT     H117040   5.021   4.048   5.840  1.2918  0.8387 -1.3510
 4080WAT     H217041   5.112   3.963   5.783  0.2520 -1.6728  0.5266
 4080WAT    EPW17042   5.039   3.979   5.808  0.2920  0.0415 -0.3068
 4081WAT      O17043   5.827   5.836   6.346  1.1423  0.0485 -0.2208
 4081WAT     H117044   5.832   5.885   6.274  0.2213  1.0750  0.3864
 4081WAT     H217045   5.741   5.823   6.356  1.3502 -1.5907 -0.2707
 4081WAT    EPW17046   5.815   5.841   6.337  1.0369 -0.0420 -0.1385
 4082WAT      O17047   3.653   5.911   1.965  0.0471 -0.3185  0.0377
 4082WAT     H117048   3.695   5.852   2.014 -2.9803 -3.3072 -0.5624
 4082WAT     H217049   3.607   5.957   2.023  2.0777  1.3429  0.4643
 4082WAT    EPW17050   3.652   5.909   1.981 -0.1002 -0.5145  0.0121
 4083WAT      O17051   4.936   2.964   6.110  0.2551  0.5652  0.1986
 4083WAT     H117052   4.851   2.948   6.102 -0.5181  3.6056  1.1423
 4083WAT     H217053   4.955   2.933   6.189  0.0784 -0.2542 -0.0725
 4083WAT    EPW17054   4.926   2.957   6.120  0.1148  0.8933  0.2979
 4084WAT      O17055   4.137   5.104   5.083 -0.4792  0.2587  0.0755
 4084WAT     H117056   4.051   5.090   5.070 -0.3783  0.9149 -1.5270
 4084WAT     H217057   4.138   5.179   5.129 -0.7579  1.1518 -1.3192
 4084WAT    EPW17058   4.124   5.113   5.088 -0.5055  0.4876 -0.3673
 4085WAT      O17059   3.169   7.098   7.066  0.3528  0.7424 -0.4037
 4085WAT     H117060   3.162   7.137   6.989  0.6737  3.5299  0.8321
 4085WAT     H217061   3.120   7.148   7.119 -0.5171 -1.5008  1.1033
 4085WAT    EPW17062   3.161   7.111   7.063  0.2717  0.8228  0.0015
 4086WAT      O17063   5.627   7.453   7.343 -0.4121 -0.0680  0.0775
 4086WAT     H117064   5.557   7.403   7.353 -0.9069  0.8131  1.2922
 4086WAT     H217065   5.679   7.406   7.290 -0.3086 -2.4200  2.1037
 4086WAT    EPW17066   5.625   7.439   7.337 -0.4699 -0.2853  0.5562
 4087WAT      O17067   3.907   3.807   5.946  0.4444 -0.4694 -0.0787
 4087WAT     H117068   3.951   3.774   5.879 -0.0887 -0.0214 -0.6578
 4087WAT     H217069   3.920   3.749   6.010  0.8960 -0.9357 -0.5862
 4087WAT    EPW17070   3.915   3.794   5.946  0.4324 -0.4721 -0.2392
 4088WAT      O17071   6.194   1.407   3.795  0.2503  0.2727  0.2131
 4088WAT     H117072   6.169   1.334   3.835  1.4292 -0.3643 -0.1738
 4088WAT     H217073   6.146   1.469   3.834 -0.2223 -0.6019  1.0685
 4088WAT    EPW17074   6.183   1.405   3.807  0.3546  0.0494  0.2823
 4089WAT      O17075   3.927   0.278   5.951 -0.4897 -0.2129  0.4838
 4089WAT     H117076   3.905   0.286   5.867 -0.5523  2.9607  0.6983
 4089WAT     H217077   3.881   0.208   5.977 -1.1559 -0.7561 -1.8608
 4089WAT    EPW17078   3.917   0.269   5.942 -0.5974  0.1757  0.1692
 4090WAT      O17079   5.983   3.251   6.316 -0.7988  0.1035  0.1776
 4090WAT     H117080   6.057   3.239   6.360  0.2906  1.2634 -1.2346
 4090WAT     H217081   5.991   3.331   6.282 -2.6424  0.2056 -0.1466
 4090WAT    EPW17082   5.995   3.261   6.318 -0.9102  0.2899 -0.0789
 4091WAT      O17083   4.206   2.831   6.970 -0.0280  0.1847 -0.7013
 4091WAT     H117084   4.249   2.781   6.912 -1.0076 -0.8454 -0.5577
 4091WAT     H217085   4.233   2.802   7.047  0.0789  0.4939 -0.6194
 4091WAT    EPW17086   4.217   2.819   6.973 -0.1569  0.0782 -0.6680
 4092WAT      O17087   2.649   7.522   6.805 -0.0623  0.0437 -0.3002
 4092WAT     H117088   2.658   7.608   6.799 -0.4219  0.1024 -0.0415
 4092WAT     H217089   2.587   7.512   6.866  0.2064 -0.4007 -0.0956
 4092WAT    EPW17090   2.641   7.533   6.813 -0.0757 -0.0133 -0.2318
 4093WAT      O17091   4.960   7.164   2.237 -0.1236 -0.1779  0.1304
 4093WAT     H117092   4.946   7.103   2.299  0.6429  1.1685  1.7100
 4093WAT     H217093   4.882   7.202   2.227 -0.0078  0.3686  1.1720
 4093WAT    EPW17094   4.947   7.160   2.245  0.0067  0.1017  0.5176
 4094WAT      O17095   6.100   0.122   5.585  0.6774  0.7226 -0.0659
 4094WAT     H117096   6.157   0.065   5.619  1.1217  1.6922  0.8522
 4094WAT     H217097   6.128   0.199   5.613 -0.2239  1.3610 -0.8563
 4094WAT    EPW17098   6.112   0.125   5.594  0.6099  0.9601 -0.0470
 4095WAT      O17099   3.864   4.194   3.860  0.2352 -0.6229 -0.0191
 4095WAT     H117100   3.879   4.134   3.799  1.1484  0.2894 -0.7233
 4095WAT     H217101   3.791   4.165   3.900 -0.5423 -1.1159 -1.6988
 4095WAT    EPW17102   3.855   4.181   3.857  0.2552 -0.5609 -0.3712
 4096WAT      O17103   1.048   2.666   4.747 -0.0000 -0.5028 -0.3425
 4096WAT     H117104   0.987   2.706   4.699 -0.5813  0.8448  1.4356
 4096WAT     H217105   1.111   2.649   4.689 -0.7011  0.9462 -1.6125
 4096WAT    EPW17106   1.048   2.669   4.731 -0.1894 -0.0897 -0.2675
 4097WAT      O17107   6.531   0.229   0.849  0.2404 -0.6814  0.7270
 4097WAT     H117108   6.613   0.204   0.867 -0.3281 -1.9923  1.6590
 4097WAT     H217109   6.483   0.162   0.877 -1.0453 -0.9136 -1.7328
 4097WAT    EPW17110   6.536   0.215   0.856 -0.0335 -0.9093  0.5013
 4098WAT      O17111   2.378   6.004   0.362 -0.2108 -0.5331  0.0585
 4098WAT     H117112   2.458   6.016   0.330  0.6565 -0.3583  2.1209
 4098WAT     H217113   2.368   5.917   0.361  0.1332 -0.5715  0.1231
 4098WAT    EPW17114   2.388   5.993   0.357 -0.0319 -0.5129  0.3727
 4099WAT      O17115   5.133   6.622   3.419 -0.8524  0.3146  0.3240
 4099WAT     H117116   5.105   6.703   3.399 -0.3073  0.3495 -0.3103
 4099WAT     H217117   5.219   6.632   3.430 -1.0221  0.1718  2.0910
 4099WAT    EPW17118   5.141   6.636   3.417 -0.7970  0.2987  0.4914
 4100WAT      O17119   5.574   6.832   3.634  0.2153  0.1864  0.0954
 4100WAT     H117120   5.619   6.763   3.664 -0.4980 -0.2102  0.2675
 4100WAT     H217121   5.625   6.863   3.570 -0.1616 -1.4699 -1.1006
 4100WAT    EPW17122   5.588   6.826   3.629  0.0543 -0.1168 -0.0558
 4101WAT      O17123   0.715   3.163   7.695  0.9247  0.3891 -0.0349
 4101WAT     H117124   0.695   3.144   7.778 -0.6707  1.5936 -0.0867
 4101WAT     H217125   0.736   3.086   7.660 -0.3126 -0.4655  1.0049
 4101WAT    EPW17126   0.715   3.149   7.702  0.5062  0.4408  0.1111
 4102WAT      O17127   2.787   7.147   4.958 -0.1413  0.3563 -0.6710
 4102WAT     H117128   2.719   7.160   4.905 -0.5036  1.6856  0.0867
 4102WAT     H217129   2.791   7.060   4.965 -0.2105  0.1401 -2.6812
 4102WAT    EPW17130   2.778   7.136   4.951 -0.2050  0.5207 -0.8560
 4103WAT      O17131   1.670   6.063   3.171 -0.0486  0.0946 -0.0412
 4103WAT     H117132   1.685   6.133   3.221  0.0209 -0.6110  0.9483
 4103WAT     H217133   1.711   6.082   3.096  0.5491  0.8191  0.4556
 4103WAT    EPW17134   1.678   6.076   3.168  0.0500  0.0974  0.1783
 4104WAT      O17135   3.767   7.100   3.074 -0.2631 -0.2952 -0.1057
 4104WAT     H117136   3.739   7.090   2.992 -1.6242  1.6357  0.0501
 4104WAT     H217137   3.739   7.028   3.114 -1.3295 -0.3813 -0.9468
 4104WAT    EPW17138   3.759   7.088   3.068 -0.6217 -0.0227 -0.2070
 4105WAT      O17139   5.140   5.753   7.518  0.2051  0.3707  0.0472
 4105WAT     H117140   5.066   5.776   7.478  0.3995  1.3266  0.2077
 4105WAT     H217141   5.189   5.721   7.454 -0.0654  0.4579 -0.2045
 4105WAT    EPW17142   5.136   5.752   7.503  0.1938  0.5248  0.0337
 4106WAT      O17143   4.912   0.231   7.783  0.0631  0.5670  0.1420
 4106WAT     H117144   4.905   0.309   7.820 -0.3638  0.9207 -0.6438
 4106WAT     H217145   4.904   0.248   7.697 -0.6961 -0.4038 -0.0070
 4106WAT    EPW17146   4.910   0.245   7.776 -0.1121  0.4759  0.0039
 4107WAT      O17147   0.262   5.965   6.739  0.4193 -0.0942 -0.6692
 4107WAT     H117148   0.208   6.009   6.686  1.1275 -1.0728 -2.2885
 4107WAT     H217149   0.233   5.985   6.819 -1.9715 -0.1371 -1.4359
 4107WAT    EPW17150   0.250   5.974   6.743  0.1707 -0.2451 -1.0216
 4108WAT      O17151   3.477   0.303   3.115 -0.4485  0.0163  0.0356
 4108WAT     H117152   3.407   0.352   3.100 -0.4917 -0.4736 -1.6323
 4108WAT     H217153   3.533   0.328   3.053 -0.4406 -1.9361 -0.8166
 4108WAT    EPW17154   3.475   0.314   3.104 -0.4537 -0.3445 -0.3367
 4109WAT      O17155   7.059   2.895   4.733  0.0025 -0.4944 -0.0250
 4109WAT     H117156   7.035   2.968   4.691 -0.5941  0.3963  1.7728
 4109WAT     H217157   7.145   2.905   4.744 -0.3317  0.8965  1.8363
 4109WAT    EPW17158   7.068   2.908   4.728 -0.1350 -0.1573  0.5155
 4110WAT      O17159   2.270   4.845   2.164 -0.3772  0.4302 -0.1621
 4110WAT     H117160   2.287   4.899   2.097  0.3329 -0.7143 -0.9322
 4110WAT     H217161   2.336   4.860   2.219 -1.3537  1.9110  0.6682
 4110WAT    EPW17162   2.282   4.855   2.162 -0.4165  0.4798 -0.1532
 4111WAT      O17163   1.147   1.953   5.026  0.1313  0.1062  0.2220
 4111WAT     H117164   1.183   1.932   5.102  0.9908 -0.2105 -0.2576
 4111WAT     H217165   1.208   2.002   4.987 -0.9090  1.5571  0.3456
 4111WAT    EPW17166   1.161   1.957   5.031  0.1046  0.2737  0.1694
 4112WAT      O17167   6.431   0.059   0.192  0.2512 -0.5139 -0.5122
 4112WAT     H117168   6.497   0.115   0.199 -0.0988 -0.0911 -0.5360
 4112WAT     H217169   6.465  -0.017   0.218  0.7388 -0.2954 -0.5127
 4112WAT    EPW17170   6.446   0.056   0.197  0.2715 -0.4192 -0.5158
 4113WAT      O17171   2.958   2.129   7.849 -0.1085  0.1446 -0.6402
 4113WAT     H117172   3.030   2.153   7.806 -0.6937 -2.4986 -3.5387
 4113WAT     H217173   2.895   2.141   7.790 -1.0377 -3.3240 -0.6068
 4113WAT    EPW17174   2.959   2.134   7.834 -0.3322 -0.7583 -1.0635
 4114WAT      O17175   3.307   4.446   3.859 -0.1780  0.0878  0.1667
 4114WAT     H117176   3.330   4.498   3.925 -1.7136 -0.6740  1.3689
 4114WAT     H217177   3.220   4.449   3.859 -0.2356 -0.4099 -1.4590
 4114WAT    EPW17178   3.297   4.454   3.869 -0.4134 -0.0982  0.1041
 4115WAT      O17179   4.208   0.234   1.339  0.0189 -0.0420 -0.0038
 4115WAT     H117180   4.141   0.287   1.320 -0.1522 -0.6279 -1.1407
 4115WAT     H217181   4.188   0.204   1.419 -0.2246  1.0438  0.3664
 4115WAT    EPW17182   4.195   0.237   1.348 -0.0423  0.0318 -0.1171
 4116WAT      O17183   4.109   1.586   0.528 -0.4066 -0.2377 -0.3252
 4116WAT     H117184   4.161   1.521   0.504 -1.2193 -0.9447 -0.1838
 4116WAT     H217185   4.126   1.596   0.613  0.9681  0.9089 -0.6776
 4116WAT    EPW17186   4.119   1.578   0.537 -0.3236 -0.1728 -0.3564
 4117WAT      O17187   4.963   1.865   2.744  0.0462  0.1239 -0.0080
 4117WAT     H117188   5.047   1.884   2.755 -0.0772  0.0407  1.2131
 4117WAT     H217189   4.957   1.782   2.771 -0.5277  0.3173  0.4826
 4117WAT    EPW17190   4.975   1.855   2.750 -0.0568  0.1402  0.2449
 4118WAT      O17191   6.580   1.936   3.817  0.1458  0.0174 -0.0453
 4118WAT     H117192   6.568   1.868   3.763 -1.3078 -0.4571  0.8130
 4118WAT     H217193   6.521   1.994   3.791  0.9640  0.7115 -0.3771
 4118WAT    EPW17194   6.570   1.934   3.806  0.0519  0.0499  0.0325
 4119WAT      O17195   1.489   6.270   7.399 -0.0617 -0.3771  0.0543
 4119WAT     H117196   1.573   6.292   7.410 -0.0313 -0.6337  0.3543
 4119WAT     H217197   1.493   6.195   7.354 -0.0676 -1.1866  1.3318
 4119WAT    EPW17198   1.502   6.262   7.394 -0.0581 -0.5346  0.2873
 4120WAT      O17199   5.974   0.151   1.254 -0.5504  0.8208 -0.0829
 4120WAT     H117200   5.924   0.190   1.315 -0.4489 -0.5883  0.9717
 4120WAT     H217201   6.011   0.085   1.298  0.3860  0.4030 -1.4382
 4120WAT    EPW17202   5.972   0.147   1.270 -0.3971  0.5509 -0.1273
 4121WAT      O17203   6.036   7.588   2.020  0.2123 -0.2164 -0.3230
 4121WAT     H117204   6.012   7.515   1.978 -0.6978  0.0447 -0.2754
 4121WAT     H217205   5.974   7.645   1.998 -1.0015 -0.3904  2.3281
 4121WAT    EPW17206   6.024   7.585   2.010 -0.1014 -0.2035  0.0756
 4122WAT      O17207   2.504   0.672   0.822  0.1003  0.2875 -0.2458
 4122WAT     H117208   2.583   0.688   0.857  1.6217 -1.8398 -2.3487
 4122WAT     H217209   2.497   0.732   0.760  1.7934 -1.4862 -2.3388
 4122WAT    EPW17210   2.515   0.683   0.818  0.5751 -0.2888 -0.8656
 4123WAT      O17211   6.382   4.458   7.578 -0.1045  0.0851  0.5614
 4123WAT     H117212   6.458   4.442   7.619  0.0067 -0.3681  0.1879
 4123WAT     H217213   6.407   4.480   7.497 -0.3489  0.3749  0.5658
 4123WAT    EPW17214   6.397   4.459   7.572 -0.1242  0.0610  0.5068
 4124WAT      O17215   2.514   6.034   3.542 -0.0390  0.3910  0.0290
 4124WAT     H117216   2.477   5.997   3.472 -0.1639  0.9982 -0.2302
 4124WAT     H217217   2.594   6.053   3.515  0.6435 -1.2745  0.7069
 4124WAT    EPW17218   2.520   6.031   3.528  0.0434  0.2346  0.0908
 4125WAT      O17219   1.800   3.953   2.139  0.0107 -0.6592 -0.0202
 4125WAT     H117220   1.750   3.890   2.173 -2.6178  1.4433  0.4026
 4125WAT     H217221   1.804   3.933   2.054  0.9601 -2.3835  0.3731
 4125WAT    EPW17222   1.793   3.941   2.132 -0.2373 -0.6033  0.1003
 4126WAT      O17223   5.185   6.103   6.219  0.1585  0.0158  0.0406
 4126WAT     H117224   5.215   6.084   6.299  0.5285  1.1870  0.1844
 4126WAT     H217225   5.099   6.113   6.232  0.3149  0.8945  0.4288
 4126WAT    EPW17226   5.176   6.101   6.233  0.2362  0.3186  0.1192
 4127WAT      O17227   0.639   7.642   6.266 -0.2205 -0.3021 -0.3920
 4127WAT     H117228   0.693   7.685   6.213 -1.2448  0.2422 -1.0315
 4127WAT     H217229   0.560   7.661   6.234 -0.8308 -0.4861  0.9492
 4127WAT    EPW17230   0.635   7.651   6.253 -0.4620 -0.2489 -0.2884
 4128WAT      O17231   4.509   4.247   2.384  0.3158 -0.5285 -0.2965
 4128WAT     H117232   4.496   4.297   2.454  0.7945 -1.0139  0.1425
 4128WAT     H217233   4.569   4.291   2.338  1.2051 -0.9920  0.3981
 4128WAT    EPW17234   4.516   4.261   2.387  0.5179 -0.6687 -0.1291
 4129WAT      O17235   2.266   5.963   6.619  0.2309  0.4864  0.4933
 4129WAT     H117236   2.346   5.991   6.642  0.8683  0.2414 -1.2459
 4129WAT     H217237   2.273   5.877   6.621  1.0090  0.3730 -2.5024
 4129WAT    EPW17238   2.279   5.955   6.623  0.4400  0.4335 -0.2062
 4130WAT      O17239   5.839   3.260   1.709  0.0146 -0.4612  0.1795
 4130WAT     H117240   5.757   3.229   1.712 -0.1401 -0.0294  0.5094
 4130WAT     H217241   5.884   3.203   1.757 -0.2820 -0.1368  0.8513
 4130WAT    EPW17242   5.833   3.247   1.716 -0.0521 -0.3495  0.3275
 4131WAT      O17243   4.915   6.531   3.588 -0.1509 -0.3696 -0.0133
 4131WAT     H117244   4.972   6.567   3.532 -1.0148  2.9302  0.9718
 4131WAT     H217245   4.875   6.601   3.622 -3.2098 -2.4436  0.9741
 4131WAT    EPW17246   4.918   6.547   3.585 -0.7304 -0.1885  0.2780
 4132WAT      O17247   2.899   7.614   2.104  0.3404 -0.1065  0.0889
 4132WAT     H117248   2.814   7.598   2.097  0.2699  0.7506 -1.4109
 4132WAT     H217249   2.904   7.669   2.172 -0.4840  0.9598 -0.6932
 4132WAT    EPW17250   2.887   7.620   2.113  0.2082  0.1776 -0.2482
 4133WAT      O17251   5.630   4.388   2.027  0.2018 -0.3867  0.1250
 4133WAT     H117252   5.660   4.437   1.962 -0.0107  0.5438  0.7024
 4133WAT     H217253   5.553   4.424   2.047 -0.8087 -2.0216 -0.5678
 4133WAT    EPW17254   5.623   4.400   2.020  0.0212 -0.4907  0.1080
 4134WAT      O17255   4.193   6.468   4.041  0.5907 -0.2031  0.3365
 4134WAT     H117256   4.244   6.525   4.001 -0.8368  0.5100 -0.5369
 4134WAT     H217257   4.205   6.394   3.996  0.1754  0.1985 -0.4580
 4134WAT    EPW17258   4.202   6.465   4.029  0.3185 -0.0384  0.0901
 4135WAT      O17259   3.145   4.717   2.116 -0.1956  0.1427 -0.3511
 4135WAT     H117260   3.127   4.797   2.146  0.2159 -0.3059  1.1603
 4135WAT     H217261   3.094   4.665   2.163  0.5827 -0.6017 -0.3141
 4135WAT    EPW17262   3.135   4.721   2.127 -0.0199 -0.0335 -0.1223
 4136WAT      O17263   3.073   1.340   6.253  0.3802 -0.6695  0.4105
 4136WAT     H117264   3.024   1.314   6.320  0.9264  0.3666  1.2429
 4136WAT     H217265   3.154   1.318   6.277  0.4745 -1.2756 -0.4107
 4136WAT    EPW17266   3.078   1.333   6.266  0.4748 -0.6060  0.4121
 4137WAT      O17267   6.444   1.532   5.382 -0.0995 -0.4446  0.3007
 4137WAT     H117268   6.526   1.562   5.379 -0.3366  0.1079 -1.2723
 4137WAT     H217269   6.397   1.595   5.344 -1.2575 -0.7855  1.1080
 4137WAT    EPW17270   6.449   1.545   5.376 -0.3056 -0.4133  0.1876
 4138WAT      O17271   5.800   3.987   2.159 -0.4221  0.1796  0.3648
 4138WAT     H117272   5.851   3.918   2.177 -0.2466  0.4326  0.8370
 4138WAT     H217273   5.854   4.055   2.165 -0.0896  0.2372 -2.0917
 4138WAT    EPW17274   5.815   3.987   2.163 -0.3471  0.2255  0.0717
 4139WAT      O17275   5.359   3.845   4.944  0.5079 -0.4807 -0.1269
 4139WAT     H117276   5.324   3.865   5.022 -0.2160 -1.2755 -0.2339
 4139WAT     H217277   5.388   3.922   4.915  0.2320 -0.0651  0.6550
 4139WAT    EPW17278   5.358   3.860   4.951  0.3602 -0.5367 -0.0272
 4140WAT      O17279   3.778   0.894   2.682  0.3075 -0.4686  0.1207
 4140WAT     H117280   3.693   0.875   2.674 -0.2616  2.0959 -0.7086
 4140WAT     H217281   3.789   0.901   2.768  0.0391 -2.1085  0.3281
 4140WAT    EPW17282   3.767   0.892   2.693  0.1838 -0.3321  0.0288
 4141WAT      O17283   6.633   0.120   7.158 -0.5543  0.0158  0.2354
 4141WAT     H117284   6.595   0.042   7.148  1.2700 -0.9451  0.3648
 4141WAT     H217285   6.675   0.112   7.235  1.4069  0.3014 -0.7453
 4141WAT    EPW17286   6.634   0.107   7.168  0.0049 -0.0840  0.1096
 4142WAT      O17287   1.428   2.449   4.531 -0.3515 -0.0638 -0.0515
 4142WAT     H117288   1.505   2.424   4.561 -0.1069 -0.2779 -0.8362
 4142WAT     H217289   1.430   2.536   4.538  0.1193 -0.0416 -0.4372
 4142WAT    EPW17290   1.439   2.458   4.537 -0.2458 -0.0921 -0.2244
 4143WAT      O17291   2.089   0.492   4.645 -0.2886 -0.4505 -0.4451
 4143WAT     H117292   2.060   0.454   4.572  1.1533 -1.5665 -0.4848
 4143WAT     H217293   2.083   0.429   4.705  0.8875 -0.3540 -0.1968
 4143WAT    EPW17294   2.084   0.477   4.643  0.0981 -0.6011 -0.4143
 4144WAT      O17295   2.648   7.032   2.450 -0.4804  0.6003  0.2285
 4144WAT     H117296   2.717   7.070   2.411 -0.9512  1.1775 -0.0489
 4144WAT     H217297   2.604   6.997   2.384 -1.9151  2.5900  0.0599
 4144WAT    EPW17298   2.652   7.033   2.435 -0.7619  0.9795  0.1626
 4145WAT      O17299   4.028   4.500   3.765  0.5214  0.1694 -0.2961
 4145WAT     H117300   4.065   4.521   3.689  0.0262  1.8797 -0.1036
 4145WAT     H217301   4.082   4.535   3.824  1.2979 -1.7750  0.2127
 4145WAT    EPW17302   4.041   4.508   3.763  0.5630  0.1348 -0.1925
 4146WAT      O17303   7.392   3.585   7.770  0.2480  0.0450  0.4686
 4146WAT     H117304   7.444   3.653   7.786  0.4256  0.2464 -0.8229
 4146WAT     H217305   7.315   3.609   7.802  0.4651  0.5960  0.5781
 4146WAT    EPW17306   7.388   3.598   7.777  0.3063  0.1561  0.2940
 4147WAT      O17307   5.551   2.002   7.473 -0.1393 -0.5625  0.3123
 4147WAT     H117308   5.525   1.947   7.410 -2.2590 -0.4440  0.9879
 4147WAT     H217309   5.515   2.078   7.450 -0.7048 -0.4577  1.4983
 4147WAT    EPW17310   5.542   2.005   7.460 -0.5359 -0.5295  0.5873
 4148WAT      O17311   6.778   3.258   4.077 -0.0338  0.3254 -0.4481
 4148WAT     H117312   6.807   3.229   4.154  0.0924  0.4677 -0.4401
 4148WAT     H217313   6.814   3.338   4.071  0.3501  0.1254 -0.8727
 4148WAT    EPW17314   6.788   3.266   4.087  0.0416  0.3169 -0.5096
 4149WAT      O17315   3.125   1.232   5.857  0.7574 -0.6918 -0.0598
 4149WAT     H117316   3.155   1.299   5.904  1.7805 -0.4031 -1.0702
 4149WAT     H217317   3.195   1.205   5.813 -0.3488 -0.2568 -2.2333
 4149WAT    EPW17318   3.140   1.238   5.857  0.7451 -0.5849 -0.5301
 4150WAT      O17319   4.467   5.979   0.466 -0.1770  0.2962  0.3849
 4150WAT     H117320   4.383   5.956   0.471  0.2311 -1.4650 -0.0285
 4150WAT     H217321   4.465   6.056   0.426 -1.5642 -0.0311 -0.2468
 4150WAT    EPW17322   4.454   5.987   0.461 -0.3216 -0.0123  0.2305
 4151WAT      O17323   5.756   6.885   1.228 -0.0649  0.4391 -0.6353
 4151WAT     H117324   5.759   6.939   1.160 -0.1122 -0.7041 -1.5891
 4151WAT     H217325   5.741   6.807   1.191  0.3168 -0.2756  0.6548
 4151WAT    EPW17326   5.754   6.881   1.212 -0.0155  0.1646 -0.5856
 4152WAT      O17327   6.125   7.480   4.388 -0.6192 -0.4559  0.3217
 4152WAT     H117328   6.112   7.429   4.319 -2.2308  0.7222 -0.3017
 4152WAT     H217329   6.051   7.472   4.433  0.0085 -0.4061  1.3989
 4152WAT    EPW17330   6.112   7.471   4.385 -0.7646 -0.2745  0.3888
 4153WAT      O17331   2.592   4.107   1.134  0.0934 -0.9376  0.3410
 4153WAT     H117332   2.589   4.046   1.071 -3.7505 -0.3410 -0.2832
 4153WAT     H217333   2.607   4.181   1.090 -0.3513 -0.7992  0.4200
 4153WAT    EPW17334   2.594   4.109   1.118 -0.5401 -0.8290  0.2604
 4154WAT      O17335   1.820   2.462   1.920  0.2904  0.1254 -0.2446
 4154WAT     H117336   1.733   2.460   1.927  0.1327  2.9707 -0.3072
 4154WAT     H217337   1.842   2.378   1.911 -2.6622 -0.5466 -2.9673
 4154WAT    EPW17338   1.810   2.449   1.919 -0.1690  0.4464 -0.6561
 4155WAT      O17339   2.075   2.388   7.616 -0.2411 -0.0852  0.5138
 4155WAT     H117340   2.086   2.399   7.530  0.7033 -0.5580  0.5567
 4155WAT     H217341   2.025   2.455   7.639  0.9335  1.0718 -0.1204
 4155WAT    EPW17342   2.069   2.400   7.607  0.0719  0.0159  0.4265
 4156WAT      O17343   2.284   6.789   3.211 -0.3403  0.0363 -0.0754
 4156WAT     H117344   2.218   6.829   3.170  1.9948  3.1972 -1.0906
 4156WAT     H217345   2.300   6.841   3.280  0.6284 -1.0961  0.6019
 4156WAT    EPW17346   2.276   6.802   3.215  0.1477  0.3359 -0.1253
 4157WAT      O17347   4.769   7.461   6.786 -0.2790  0.1201 -0.5558
 4157WAT     H117348   4.723   7.432   6.718 -1.3036 -1.6961  0.8084
 4157WAT     H217349   4.708   7.492   6.840  0.3333 -0.0221  0.2386
 4157WAT    EPW17350   4.753   7.461   6.784 -0.3399 -0.1692 -0.2369
 4158WAT      O17351   5.156   0.367   7.425 -0.1833  0.3379 -0.4520
 4158WAT     H117352   5.213   0.328   7.478 -1.4839 -0.3637  0.5024
 4158WAT     H217353   5.194   0.363   7.347  0.6696 -0.9355 -0.0001
 4158WAT    EPW17354   5.170   0.360   7.421 -0.2494  0.0461 -0.2442
 4159WAT      O17355   7.649   1.369   6.880  0.2022  0.2824 -0.1091
 4159WAT     H117356   7.727   1.353   6.845  0.0431  2.3897 -1.6127
 4159WAT     H217357   7.664   1.366   6.966  2.0603  1.0947 -0.3484
 4159WAT    EPW17358   7.663   1.366   6.888  0.4532  0.7137 -0.3665
 4160WAT      O17359   2.051   4.727   0.965 -0.0973 -0.2025  0.4411
 4160WAT     H117360   2.020   4.770   0.896  2.3949 -0.3460 -0.8629
 4160WAT     H217361   2.039   4.643   0.944  0.2698 -0.2387  0.3746
 4160WAT    EPW17362   2.045   4.721   0.952  0.3251 -0.2290  0.2387
 4161WAT      O17363   2.427   6.886   4.830  0.2758 -0.2218  0.0035
 4161WAT     H117364   2.419   6.804   4.861  1.3664  0.1035  1.2298
 4161WAT     H217365   2.488   6.921   4.882 -1.1009  1.8025  0.3532
 4161WAT    EPW17366   2.435   6.879   4.842  0.2335  0.1253  0.2363
 4162WAT      O17367   1.462   1.325   5.429  0.1628 -0.0393  0.7234
 4162WAT     H117368   1.391   1.345   5.476  0.2683 -0.3887  1.0393
 4162WAT     H217369   1.528   1.346   5.482  0.3974  2.5009 -0.4320
 4162WAT    EPW17370   1.461   1.331   5.444  0.2130  0.2843  0.5994
 4163WAT      O17371   2.080   4.191   3.240  0.1470 -0.0771  0.3655
 4163WAT     H117372   2.101   4.120   3.287  0.9630 -0.3533 -0.4088
 4163WAT     H217373   2.034   4.159   3.174  0.2587  0.1511  0.1766
 4163WAT    EPW17374   2.076   4.176   3.237  0.2840 -0.0842  0.2232
 4164WAT      O17375   4.097   4.527   2.399 -0.1405 -0.2355 -0.1197
 4164WAT     H117376   4.153   4.490   2.345  0.6633  0.4896  0.1895
 4164WAT     H217377   4.110   4.613   2.386 -0.9426 -0.0571  0.1902
 4164WAT    EPW17378   4.107   4.534   2.389 -0.1403 -0.1020 -0.0282
 4165WAT      O17379   3.602   1.657   1.863  0.3295  0.4965 -1.0148
 4165WAT     H117380   3.588   1.697   1.788  0.7421  2.5640 -0.0618
 4165WAT     H217381   3.551   1.700   1.920  1.1299 -0.0140  0.1426
 4165WAT    EPW17382   3.593   1.669   1.861  0.5087  0.7265 -0.7030
 4166WAT      O17383   5.156   4.190   4.527 -0.0258 -0.0153 -0.0161
 4166WAT     H117384   5.212   4.131   4.494 -0.5013  0.0313 -0.9145
 4166WAT     H217385   5.078   4.151   4.518 -0.3680  0.8234 -0.7997
 4166WAT    EPW17386   5.153   4.175   4.521 -0.1466  0.1155 -0.2646
 4167WAT      O17387   5.303   6.079   2.448 -0.0169  0.3919 -0.0422
 4167WAT     H117388   5.309   5.993   2.434  0.4105  0.4794 -0.4374
 4167WAT     H217389   5.320   6.088   2.533 -0.5797  0.0397  0.1112
 4167WAT    EPW17390   5.306   6.068   2.458 -0.0369  0.3528 -0.0779
 4168WAT      O17391   4.172   4.286   0.787  0.1586  0.3898 -0.0885
 4168WAT     H117392   4.166   4.241   0.713  0.0165  1.0861 -0.5100
 4168WAT     H217393   4.242   4.252   0.826 -0.1994 -0.4871 -0.1826
 4168WAT    EPW17394   4.182   4.274   0.782  0.0847  0.3631 -0.1647
 4169WAT      O17395   2.756   6.818   1.301 -0.5248  0.6292  0.9095
 4169WAT     H117396   2.789   6.807   1.221 -4.0978  0.3562 -0.7178
 4169WAT     H217397   2.799   6.760   1.349  2.3357  1.3730 -0.5089
 4169WAT    EPW17398   2.767   6.808   1.297 -0.6301  0.6987  0.4596
 4170WAT      O17399   2.908   6.029   5.407  0.2555  0.1833 -0.1751
 4170WAT     H117400   2.983   6.070   5.388  0.2148 -0.0256 -0.8215
 4170WAT     H217401   2.935   5.953   5.441  0.3305  0.7840  1.1397
 4170WAT    EPW17402   2.923   6.023   5.409  0.2605  0.2412 -0.0763
 4171WAT      O17403   5.630   6.312   0.259 -0.0946 -0.4586  0.0680
 4171WAT     H117404   5.583   6.293   0.331 -0.6036  1.0188  0.1612
 4171WAT     H217405   5.584   6.376   0.222 -0.1304 -1.5460 -1.9053
 4171WAT    EPW17406   5.616   6.318   0.265 -0.1751 -0.4010 -0.2097
 4172WAT      O17407   3.091   5.254   4.269  0.3320 -0.0561 -0.1518
 4172WAT     H117408   3.096   5.316   4.330 -1.5433 -0.3574  0.3830
 4172WAT     H217409   3.168   5.213   4.275  0.1428 -0.2037  2.1957
 4172WAT    EPW17410   3.103   5.257   4.279  0.0271 -0.1224  0.2740
 4173WAT      O17411   6.804   3.956   7.828  0.1520  0.3462 -0.2339
 4173WAT     H117412   6.780   3.893   7.773 -2.1035 -0.2892  1.3618
 4173WAT     H217413   6.868   3.919   7.875  1.8100  0.7577 -2.0211
 4173WAT    EPW17414   6.810   3.941   7.827  0.0637  0.3131 -0.2622
 4174WAT      O17415   2.859   5.621   0.455 -0.4597  0.1050  0.7084
 4174WAT     H117416   2.845   5.707   0.450 -1.5661 -0.0650  0.6405
 4174WAT     H217417   2.826   5.590   0.381  1.2758 -0.2456  0.0286
 4174WAT    EPW17418   2.852   5.629   0.443 -0.3668  0.0281  0.5979
 4175WAT      O17419   6.992   0.208   6.141  0.1329 -0.0723 -0.1825
 4175WAT     H117420   6.983   0.264   6.207  3.8637  0.6172 -0.0822
 4175WAT     H217421   7.002   0.131   6.182  0.3837  0.0216 -0.0696
 4175WAT    EPW17422   6.992   0.205   6.157  0.7211  0.0434 -0.1510
 4176WAT      O17423   5.639   6.727   3.257  0.3987 -0.1354 -0.3876
 4176WAT     H117424   5.696   6.676   3.214 -0.4563 -0.5040 -1.1293
 4176WAT     H217425   5.689   6.791   3.290  1.1609 -0.0851 -1.5773
 4176WAT    EPW17426   5.655   6.729   3.255  0.3850 -0.1824 -0.6729
 4177WAT      O17427   4.871   3.580   3.717 -0.4049  0.1911  0.2410
 4177WAT     H117428   4.852   3.659   3.748 -0.8195 -0.3167  1.3202
 4177WAT     H217429   4.831   3.578   3.639 -0.4344  1.0184  0.2315
 4177WAT    EPW17430   4.862   3.591   3.710 -0.4705  0.2383  0.3990
 4178WAT      O17431   3.573   4.352   5.926  0.4706  0.1532  0.0487
 4178WAT     H117432   3.558   4.432   5.957  0.6362  0.8848 -1.6241
 4178WAT     H217433   3.500   4.332   5.882 -0.0467 -1.1456  1.4360
 4178WAT    EPW17434   3.560   4.361   5.924  0.4187  0.0695  0.0065
 4179WAT      O17435   5.751   0.730   7.032  0.2525 -0.0074  0.6489
 4179WAT     H117436   5.830   0.765   7.043  0.0875  1.4465 -2.0744
 4179WAT     H217437   5.758   0.683   6.959 -1.5125  0.6745 -0.0337
 4179WAT    EPW17438   5.763   0.728   7.023 -0.0326  0.3081  0.1458
 4180WAT      O17439   2.181   5.663   4.738 -0.1857 -1.0626  0.0411
 4180WAT     H117440   2.209   5.676   4.820 -0.5580 -1.4779  0.2403
 4180WAT     H217441   2.156   5.742   4.712  0.6852 -0.7777  0.0391
 4180WAT    EPW17442   2.182   5.676   4.746 -0.1120 -1.0819  0.0702
 4181WAT      O17443   5.195   6.244   5.369 -0.4416 -0.5200  0.7136
 4181WAT     H117444   5.142   6.295   5.323 -3.2831 -2.6268  1.3381
 4181WAT     H217445   5.246   6.300   5.412 -0.2943  1.5797 -1.9485
 4181WAT    EPW17446   5.194   6.260   5.369 -0.8396 -0.5210  0.4126
 4182WAT      O17447   0.592   6.228   5.958  0.3496 -0.3898 -0.2834
 4182WAT     H117448   0.647   6.284   5.996 -0.8712  2.3954 -2.2646
 4182WAT     H217449   0.514   6.267   5.967 -1.0861 -3.1990  0.6275
 4182WAT    EPW17450   0.588   6.242   5.965 -0.0428 -0.3934 -0.4415
 4183WAT      O17451   3.229   4.383   3.527  0.5550 -0.4414 -0.1007
 4183WAT     H117452   3.307   4.389   3.567 -0.1452 -0.4280  1.3281
 4183WAT     H217453   3.216   4.297   3.522  1.1594 -0.4824 -1.4164
 4183WAT    EPW17454   3.239   4.371   3.532  0.5409 -0.4455 -0.0840
 4184WAT      O17455   5.922   5.765   4.088 -0.6747  0.0314  0.2172
 4184WAT     H117456   5.957   5.698   4.132  1.6184 -0.6049 -2.3424
 4184WAT     H217457   5.974   5.832   4.108 -1.8592  0.7005  1.2816
 4184WAT    EPW17458   5.935   5.765   4.098 -0.5109  0.0362 -0.0037
 4185WAT      O17459   3.733   5.941   0.902  0.0170 -0.0387  0.0353
 4185WAT     H117460   3.743   5.978   0.980 -0.6536  0.9280 -0.3202
 4185WAT     H217461   3.795   5.978   0.853 -0.9922  1.0755 -0.4620
 4185WAT    EPW17462   3.744   5.952   0.906 -0.2312  0.2687 -0.0907
 4186WAT      O17463   5.498   5.944   5.122 -0.1039 -0.4862  0.2521
 4186WAT     H117464   5.583   5.933   5.136 -0.3049 -1.6002  0.7224
 4186WAT     H217465   5.494   6.010   5.066  0.9868  0.7002  1.5005
 4186WAT    EPW17466   5.510   5.952   5.116  0.0276 -0.4755  0.5060
 4187WAT      O17467   3.966   6.076   2.625 -0.3536 -0.3041 -0.4334
 4187WAT     H117468   4.028   6.015   2.616  0.1202  0.0907  0.0839
 4187WAT     H217469   3.897   6.030   2.654 -0.2089 -0.6952 -0.6984
 4187WAT    EPW17470   3.965   6.060   2.628 -0.2623 -0.3036 -0.3961
 4188WAT      O17471   6.925   6.982   4.865 -0.5470  0.3312  0.1233
 4188WAT     H117472   6.861   6.962   4.808 -1.6573  3.0627  0.2495
 4188WAT     H217473   6.882   7.006   4.937  0.7016  0.5306  0.8388
 4188WAT    EPW17474   6.909   6.983   4.867 -0.5266  0.7642  0.2476
 4189WAT      O17475   2.330   4.979   1.931 -0.3196  0.0628  0.0853
 4189WAT     H117476   2.308   5.056   1.896 -2.4570 -0.5803 -0.1222
 4189WAT     H217477   2.321   4.923   1.865  1.6839 -0.3443  0.1077
 4189WAT    EPW17478   2.325   4.982   1.917 -0.3394 -0.0923  0.0579
 4190WAT      O17479   1.937   5.228   3.470  0.0550  0.1220 -0.0876
 4190WAT     H117480   2.011   5.274   3.474 -0.2144  0.7201 -1.3730
 4190WAT     H217481   1.939   5.179   3.542  1.5280  0.3898  0.0866
 4190WAT    EPW17482   1.949   5.228   3.481  0.2328  0.2499 -0.2518
 4191WAT      O17483   3.291   1.152   1.434  0.3399  0.0929 -0.3660
 4191WAT     H117484   3.302   1.106   1.361  1.1582 -2.4877  1.2322
 4191WAT     H217485   3.217   1.119   1.467 -0.2527  1.5299 -0.1885
 4191WAT    EPW17486   3.281   1.141   1.428  0.3733 -0.0761 -0.1037
 4192WAT      O17487   2.930   7.577   7.819 -0.3707  0.2837 -0.3194
 4192WAT     H117488   2.959   7.654   7.788  0.2534  0.2999  0.2693
 4192WAT     H217489   2.848   7.595   7.844  0.0496  1.0035  0.6182
 4192WAT    EPW17490   2.922   7.591   7.818 -0.2164  0.3924 -0.0940
 4193WAT      O17491   4.191   6.706   2.652 -0.2278  0.5377 -0.0580
 4193WAT     H117492   4.170   6.762   2.589 -0.0793  0.1966 -0.4122
 4193WAT     H217493   4.115   6.691   2.692 -0.1898  1.3594  0.3485
 4193WAT    EPW17494   4.177   6.712   2.649 -0.2002  0.6087 -0.0503
 4194WAT      O17495   4.738   0.414   1.824 -0.5383 -0.2452 -0.3532
 4194WAT     H117496   4.698   0.451   1.756  0.5773  0.9330 -0.3883
 4194WAT     H217497   4.672   0.382   1.872 -1.4909  1.1455 -0.7011
 4194WAT    EPW17498   4.722   0.415   1.821 -0.5142  0.1343 -0.4098
 4195WAT      O17499   1.501   5.952   4.317 -0.5663  0.7858 -0.3805
 4195WAT     H117500   1.471   5.900   4.253 -0.0754  0.4062 -0.3134
 4195WAT     H217501   1.525   5.895   4.379  0.1340  1.0929 -0.3691
 4195WAT    EPW17502   1.500   5.936   4.317 -0.3903  0.7751 -0.3689
 4196WAT      O17503   1.898   7.336   4.807  0.7988 -0.0663 -0.2311
 4196WAT     H117504   1.892   7.404   4.861  0.1576  0.5228 -1.0281
 4196WAT     H217505   1.972   7.351   4.763 -0.2950  1.1651 -1.7605
 4196WAT    EPW17506   1.908   7.348   4.809  0.5425  0.2026 -0.5748
 4197WAT      O17507   6.102   5.389   7.832  0.0051  0.0287 -0.1918
 4197WAT     H117508   6.104   5.470   7.798 -0.9980  0.1563  0.0208
 4197WAT     H217509   6.137   5.399   7.911  0.8991  0.0354 -0.5794
 4197WAT    EPW17510   6.107   5.403   7.839 -0.0110  0.0486 -0.2176
 4198WAT      O17511   5.465   5.783   7.112  0.4639  0.2371  0.5214
 4198WAT     H117512   5.482   5.864   7.083 -1.1929  1.3112  2.2286
 4198WAT     H217513   5.416   5.748   7.049 -1.1500  1.6660  0.8868
 4198WAT    EPW17514   5.460   5.790   7.099 -0.0193  0.6068  0.8275
 4199WAT      O17515   6.951   6.601   6.416 -0.1274  0.0664  0.0863
 4199WAT     H117516   6.885   6.635   6.463 -0.8133  0.6401 -1.2285
 4199WAT     H217517   6.976   6.532   6.463  0.7627  1.8401  2.4550
 4199WAT    EPW17518   6.945   6.596   6.430 -0.0972  0.4132  0.2420
 4200WAT      O17519   6.021   2.224   4.141 -0.0247 -0.2358 -0.0058
 4200WAT     H117520   5.940   2.220   4.108 -0.1134 -1.0809  0.2765
 4200WAT     H217521   6.071   2.194   4.076 -0.0928 -0.9830  0.2794
 4200WAT    EPW17522   6.017   2.219   4.127 -0.0479 -0.4710  0.0781
 4201WAT      O17523   3.137   3.507   1.040  0.2385 -0.1235 -0.7603
 4201WAT     H117524   3.077   3.453   1.006  0.0761 -0.1515 -0.4377
 4201WAT     H217525   3.106   3.587   1.020 -0.4356 -0.1126  0.2647
 4201WAT    EPW17526   3.124   3.511   1.032  0.1149 -0.1260 -0.5613
 4202WAT      O17527   4.882   3.818   2.372 -0.1370  0.2219 -0.6174
 4202WAT     H117528   4.922   3.779   2.438 -1.2540  2.4653  1.5560
 4202WAT     H217529   4.815   3.766   2.354  1.1470 -1.2830 -1.2398
 4202WAT    EPW17530   4.878   3.805   2.379 -0.1124  0.3310 -0.3883
 4203WAT      O17531   4.114   5.735   5.760 -0.5607 -0.2564  0.8221
 4203WAT     H117532   4.035   5.749   5.727 -0.2201 -0.0954  0.0577
 4203WAT     H217533   4.121   5.795   5.823 -0.6453  0.4246  0.1960
 4203WAT    EPW17534   4.104   5.746   5.765 -0.5229 -0.1320  0.6167
 4204WAT      O17535   1.851   6.496   2.107 -0.1418  0.0289 -0.3762
 4204WAT     H117536   1.833   6.430   2.162  0.6233  0.1771  0.0781
 4204WAT     H217537   1.863   6.456   2.030 -0.2068 -0.3103 -0.2134
 4204WAT    EPW17538   1.850   6.480   2.104 -0.0384  0.0007 -0.2851
 4205WAT      O17539   3.363   4.179   3.776  0.2623 -0.0145  0.0699
 4205WAT     H117540   3.289   4.155   3.736  0.8160  2.2126 -2.6577
 4205WAT     H217541   3.344   4.257   3.809  1.0157 -0.0520  0.6102
 4205WAT    EPW17542   3.349   4.187   3.775  0.4554  0.3089 -0.2532
 4206WAT      O17543   5.241   7.416   3.566  0.9401  0.0397 -0.1930
 4206WAT     H117544   5.272   7.440   3.644 -1.6173  1.3593  0.5232
 4206WAT     H217545   5.259   7.485   3.515  1.6071 -0.3533 -0.4992
 4206WAT    EPW17546   5.248   7.430   3.570  0.6609  0.1766 -0.1325
 4207WAT      O17547   5.111   4.619   0.173  0.6251  0.0943  0.0464
 4207WAT     H117548   5.198   4.624   0.184  0.9392 -0.9036 -1.6147
 4207WAT     H217549   5.101   4.547   0.125 -0.9852  1.1341 -1.2792
 4207WAT    EPW17550   5.123   4.609   0.168  0.4336  0.1005 -0.3948
 4208WAT      O17551   4.742   0.620   1.288  0.5472 -0.7769  0.1855
 4208WAT     H117552   4.788   0.546   1.281 -0.0774 -1.0586 -1.3072
 4208WAT     H217553   4.787   0.666   1.347  3.8916 -0.2350 -2.4509
 4208WAT    EPW17554   4.755   0.616   1.296  0.9490 -0.7385 -0.4244
 4209WAT      O17555   6.121   5.177   2.822 -0.7503 -0.6431  0.7686
 4209WAT     H117556   6.115   5.258   2.792  0.9743 -0.2261  1.4394
 4209WAT     H217557   6.133   5.129   2.750 -0.2205 -0.1096  0.4979
 4209WAT    EPW17558   6.122   5.182   2.807 -0.4173 -0.5027  0.8277
 4210WAT      O17559   6.485   7.655   4.611 -0.1602 -0.0456 -0.5101
 4210WAT     H117560   6.528   7.697   4.675  0.4241 -3.1112  1.2979
 4210WAT     H217561   6.402   7.681   4.623 -0.3664 -1.5673  2.6592
 4210WAT    EPW17562   6.479   7.665   4.622 -0.1044 -0.7233  0.2252
 4211WAT      O17563   4.479   2.574   1.107 -0.0189  0.1309 -0.4827
 4211WAT     H117564   4.425   2.538   1.166  0.2324 -0.7503 -0.7822
 4211WAT     H217565   4.552   2.527   1.115  0.2272  0.4102 -1.0697
 4211WAT    EPW17566   4.482   2.562   1.117  0.0545  0.0420 -0.6137
 4212WAT      O17567   3.305   7.182   4.796  0.2181 -0.2301  0.1953
 4212WAT     H117568   3.249   7.165   4.731  0.7953 -0.7563 -0.1795
 4212WAT     H217569   3.324   7.103   4.829  0.5786 -0.0427  0.4508
 4212WAT    EPW17570   3.300   7.168   4.791  0.3566 -0.2802  0.1777
 4213WAT      O17571   0.591   4.450   6.086 -0.2314 -0.8784  0.0431
 4213WAT     H117572   0.539   4.472   6.019 -0.8978 -0.2579  0.7345
 4213WAT     H217573   0.540   4.400   6.136 -0.1060 -0.4642  0.6094
 4213WAT    EPW17574   0.576   4.446   6.084 -0.3113 -0.7255  0.2289
 4214WAT      O17575   4.571   2.220   2.472  0.0953  0.0132  0.2888
 4214WAT     H117576   4.590   2.255   2.550 -0.7126  0.5934  0.2396
 4214WAT     H217577   4.580   2.135   2.485 -0.5765  0.0638  1.1857
 4214WAT    EPW17578   4.575   2.213   2.486 -0.1233  0.1064  0.4141
 4215WAT      O17579   5.999   4.448   5.328  0.5327 -0.2935  0.0061
 4215WAT     H117580   6.013   4.534   5.321  1.0106 -0.4069 -0.5161
 4215WAT     H217581   5.917   4.443   5.357  0.8412  0.3590  1.0533
 4215WAT    EPW17582   5.989   4.460   5.331  0.6489 -0.2139  0.0837
 4216WAT      O17583   2.788   4.205   7.723  0.0516  0.4565 -0.0741
 4216WAT     H117584   2.715   4.218   7.769  0.9699 -0.5127  1.7600
 4216WAT     H217585   2.799   4.279   7.679 -1.1996  1.2002  0.8347
 4216WAT    EPW17586   2.779   4.218   7.723  0.0024  0.4232  0.3311
 4217WAT      O17587   3.934   4.033   3.649 -0.5166 -0.3934 -0.0463
 4217WAT     H117588   4.019   4.028   3.630 -0.7200  0.9912 -1.5537
 4217WAT     H217589   3.908   3.950   3.650  0.2822 -0.7492 -2.5345
 4217WAT    EPW17590   3.942   4.020   3.646 -0.4286 -0.2414 -0.6365
 4218WAT      O17591   2.397   1.285   1.516 -0.4835  0.3934  0.0725
 4218WAT     H117592   2.473   1.259   1.550  0.4743  0.5955 -1.8111
 4218WAT     H217593   2.416   1.362   1.479 -0.8853 -0.7014 -2.6500
 4218WAT    EPW17594   2.411   1.292   1.515 -0.4014  0.2615 -0.6079
 4219WAT      O17595   4.956   4.346   5.541 -0.4824  0.2537  0.2385
 4219WAT     H117596   4.999   4.376   5.611  0.8908  0.3148 -0.5861
 4219WAT     H217597   4.950   4.415   5.489  0.6619 -0.3276 -0.7057
 4219WAT    EPW17598   4.961   4.360   5.544 -0.1105  0.1769 -0.0228
 4220WAT      O17599   4.802   3.933   5.149  0.0836  0.6540 -0.1044
 4220WAT     H117600   4.816   3.989   5.084  0.2677  0.1836 -0.4772
 4220WAT     H217601   4.881   3.899   5.165  0.0545  0.8213  0.4203
 4220WAT    EPW17602   4.816   3.936   5.142  0.1065  0.6092 -0.0820
 4221WAT      O17603   5.796   1.869   7.492 -0.3614 -0.6363 -0.7033
 4221WAT     H117604   5.722   1.902   7.526  0.8471 -0.3827  1.9308
 4221WAT     H217605   5.801   1.789   7.528  0.6165 -0.6721 -0.8880
 4221WAT    EPW17606   5.786   1.862   7.502 -0.0385 -0.6041 -0.3415
 4222WAT      O17607   3.854   5.046   3.087 -0.2270 -0.8628  0.1828
 4222WAT     H117608   3.773   5.077   3.095  0.1541 -0.2395  1.8692
 4222WAT     H217609   3.863   4.992   3.154  1.0587 -0.2244  0.5633
 4222WAT    EPW17610   3.844   5.043   3.098  0.0192 -0.6764  0.4881
 4223WAT      O17611   4.214   5.608   7.190  0.0306 -0.0780  0.2268
 4223WAT     H117612   4.175   5.567   7.257  0.1453  0.0129  0.3503
 4223WAT     H217613   4.225   5.689   7.220  0.4883 -0.1510  0.2635
 4223WAT    EPW17614   4.209   5.614   7.204  0.1152 -0.0754  0.2504
 4224WAT      O17615   6.325   7.327   4.556 -0.0552 -0.1711 -0.3031
 4224WAT     H117616   6.261   7.280   4.520 -1.0132 -0.0557  1.1472
 4224WAT     H217617   6.293   7.409   4.556  1.1684  0.3598 -1.8594
 4224WAT    EPW17618   6.311   7.332   4.551 -0.0160 -0.0756 -0.3188
 4225WAT      O17619   4.993   0.920   1.673  0.1525  0.3846  0.1931
 4225WAT     H117620   5.080   0.919   1.663  0.2235  2.5337  0.1257
 4225WAT     H217621   4.978   0.999   1.706 -1.7551 -0.1243  0.6090
 4225WAT    EPW17622   5.004   0.932   1.676 -0.1188  0.6269  0.2446
 4226WAT      O17623   1.412   1.190   4.092  0.1888  0.1893 -0.6294
 4226WAT     H117624   1.445   1.269   4.080  0.6785 -0.1197 -1.3252
 4226WAT     H217625   1.407   1.156   4.012  1.2937 -0.9998 -0.2330
 4226WAT    EPW17626   1.416   1.197   4.079  0.4244 -0.0320 -0.6736
 4227WAT      O17627   4.557   2.838   1.207  0.3430  0.0240  0.0879
 4227WAT     H117628   4.534   2.756   1.190 -0.2840  0.3704 -0.8476
 4227WAT     H217629   4.481   2.877   1.227  0.6644  0.3200  0.7409
 4227WAT    EPW17630   4.542   2.832   1.207  0.2979  0.1189  0.0461
 4228WAT      O17631   3.917   4.809   3.674  0.3678  0.8006  0.3940
 4228WAT     H117632   3.859   4.874   3.666  0.0784  0.6270  1.0640
 4228WAT     H217633   3.882   4.745   3.627 -0.0361  0.6624  0.8779
 4228WAT    EPW17634   3.904   4.809   3.666  0.2654  0.7545  0.5645
 4229WAT      O17635   1.789   1.407   1.145 -0.8593 -0.0333  0.0616
 4229WAT     H117636   1.715   1.361   1.138 -0.4847 -0.3996 -3.1897
 4229WAT     H217637   1.842   1.355   1.191 -1.5439 -1.3229 -0.5578
 4229WAT    EPW17638   1.786   1.393   1.151 -0.9051 -0.2779 -0.5102
 4230WAT      O17639   3.758   0.008   1.139 -0.1709  0.3561  0.4216
 4230WAT     H117640   3.737  -0.024   1.060  1.3895  0.8856 -0.2488
 4230WAT     H217641   3.792   0.086   1.120 -1.4521  1.3093  1.7986
 4230WAT    EPW17642   3.760   0.015   1.124 -0.1297  0.5751  0.5260
 4231WAT      O17643   7.276   0.239   6.286  0.1334  0.5593 -0.1067
 4231WAT     H117644   7.279   0.211   6.368  1.4029  0.0980 -0.2875
 4231WAT     H217645   7.245   0.170   6.242 -0.1243  0.6586 -0.0855
 4231WAT    EPW17646   7.272   0.225   6.291  0.2829  0.5058 -0.1303
 4232WAT      O17647   5.423   5.386   2.324 -0.7324  0.1418 -0.6813
 4232WAT     H117648   5.430   5.415   2.242 -1.5573 -0.4337 -0.9665
 4232WAT     H217649   5.339   5.397   2.343 -0.3479  1.2916  0.4939
 4232WAT    EPW17650   5.412   5.392   2.315 -0.7975  0.2266 -0.5499
 4233WAT      O17651   5.079   5.754   1.515  0.5059 -0.5860  0.0948
 4233WAT     H117652   4.998   5.780   1.536  0.5711 -1.0085  0.8610
 4233WAT     H217653   5.130   5.819   1.544  0.4252 -0.1230 -0.7515
 4233WAT    EPW17654   5.075   5.767   1.522  0.5036 -0.5800  0.0829
 4234WAT      O17655   3.537   4.606   3.237 -0.4778  0.3216 -0.5479
 4234WAT     H117656   3.541   4.662   3.170  0.1567 -0.4589 -1.1862
 4234WAT     H217657   3.617   4.572   3.239 -0.5535  0.1946  0.4990
 4234WAT    EPW17658   3.549   4.609   3.227 -0.3953  0.1875 -0.4875
 4235WAT      O17659   5.998   6.600   0.206  0.2612  0.2105  0.3024
 4235WAT     H117660   6.083   6.611   0.222  0.0826  0.6368  1.0157
 4235WAT     H217661   5.976   6.534   0.259 -0.0699  0.8040  0.9250
 4235WAT    EPW17662   6.007   6.592   0.216  0.1859  0.3612  0.4997
 4236WAT      O17663   4.449   4.659   4.128  0.0064  0.1249  0.0416
 4236WAT     H117664   4.415   4.619   4.198  0.9149 -1.0832 -0.1748
 4236WAT     H217665   4.503   4.719   4.163 -0.1988  0.1157  0.3735
 4236WAT    EPW17666   4.452   4.662   4.144  0.1103 -0.0549  0.0587
 4237WAT      O17667   6.075   2.778   4.891 -0.1833 -0.5168 -0.1084
 4237WAT     H117668   6.123   2.830   4.942  1.1482 -1.2133 -0.5961
 4237WAT     H217669   6.135   2.738   4.841 -1.1751 -2.2684  0.0275
 4237WAT    EPW17670   6.091   2.780   4.891 -0.1331 -0.8784 -0.1604
 4238WAT      O17671   7.087   6.172   0.194 -0.4771 -0.0423 -0.3699
 4238WAT     H117672   7.143   6.239   0.208  0.5875 -0.9867  0.0948
 4238WAT     H217673   7.090   6.128   0.269 -0.1006 -1.3514 -1.1155
 4238WAT    EPW17674   7.096   6.176   0.207 -0.2642 -0.3752 -0.4114
 4239WAT      O17675   0.672   2.667   7.630  0.2612 -0.3327 -0.1667
 4239WAT     H117676   0.728   2.715   7.676  2.0931 -1.3992 -1.1788
 4239WAT     H217677   0.704   2.670   7.549 -0.0363 -2.5211 -0.4266
 4239WAT    EPW17678   0.685   2.674   7.625  0.4879 -0.8135 -0.3546
 4240WAT      O17679   5.258   5.340   6.872 -0.2312  0.5451  0.2462
 4240WAT     H117680   5.190   5.389   6.896  0.1089  1.5696 -0.7735
 4240WAT     H217681   5.222   5.265   6.846 -1.0293  1.2302 -0.7052
 4240WAT    EPW17682   5.243   5.336   6.872 -0.2988  0.7977 -0.0450
 4241WAT      O17683   6.052   6.015   7.052 -0.2139  0.2237 -0.3353
 4241WAT     H117684   6.024   6.083   7.004 -0.0976  0.1126 -0.5629
 4241WAT     H217685   6.020   5.946   7.009 -2.3173  0.1747  1.1370
 4241WAT    EPW17686   6.043   6.015   7.038 -0.5074  0.2001 -0.1514
 4242WAT      O17687   2.351   5.620   4.522 -0.3558 -0.4371 -0.0558
 4242WAT     H117688   2.292   5.621   4.586 -1.4227 -0.7566 -0.9848
 4242WAT     H217689   2.304   5.599   4.451  0.9292 -1.0186 -0.7894
 4242WAT    EPW17690   2.335   5.617   4.521 -0.3236 -0.5702 -0.3014
 4243WAT      O17691   5.658  -0.004   6.445  0.1443  0.2090 -0.0261
 4243WAT     H117692   5.730   0.031   6.411 -0.6685  1.5357 -0.4607
 4243WAT     H217693   5.593   0.044   6.411 -0.8208  0.6171  2.1990
 4243WAT    EPW17694   5.659   0.008   6.435 -0.1183  0.4652  0.2384
 4244WAT      O17695   2.284   0.082   2.786 -0.0810 -0.2912  0.1698
 4244WAT     H117696   2.352   0.029   2.794  2.0234  1.7953 -2.0012
 4244WAT     H217697   2.288   0.133   2.856  1.4050  0.5495 -0.4780
 4244WAT    EPW17698   2.294   0.082   2.797  0.4493  0.1412 -0.2466
 4245WAT      O17699   1.867   4.261   3.797 -0.3736 -0.3809  0.7897
 4245WAT     H117700   1.832   4.187   3.827 -0.6979  0.1434  1.7374
 4245WAT     H217701   1.804   4.320   3.806  0.1480  0.1884  0.8244
 4245WAT    EPW17702   1.853   4.259   3.803 -0.3445 -0.2194  0.9348
 4246WAT      O17703   4.102   4.755   6.012  0.1321  0.3101 -0.3377
 4246WAT     H117704   4.139   4.676   6.024  0.3979 -0.1046 -3.1727
 4246WAT     H217705   4.117   4.796   6.088  0.6549 -2.0823  0.9688
 4246WAT    EPW17706   4.110   4.749   6.025  0.2486 -0.1046 -0.5635
 4247WAT      O17707   4.662   7.288   3.486  0.1191  0.0482  0.6309
 4247WAT     H117708   4.582   7.259   3.504  0.1037  1.0603  2.3849
 4247WAT     H217709   4.702   7.219   3.449 -2.1663  0.1218 -2.3975
 4247WAT    EPW17710   4.656   7.274   3.483 -0.2208  0.2086  0.4426
 4248WAT      O17711   2.353   4.750   7.007 -0.1769 -0.7863  0.0917
 4248WAT     H117712   2.308   4.696   7.059 -0.8323  1.0753  1.5937
 4248WAT     H217713   2.336   4.720   6.927 -2.4096 -1.4365  0.7186
 4248WAT    EPW17714   2.343   4.738   7.003 -0.6035 -0.6073  0.4062
 4249WAT      O17715   5.885   4.404   4.009 -0.1495  0.3210  0.5824
 4249WAT     H117716   5.958   4.377   4.047  0.6873 -0.0945 -1.1951
 4249WAT     H217717   5.860   4.335   3.961 -1.9768  0.2925  1.4911
 4249WAT    EPW17718   5.892   4.390   4.007 -0.2958  0.2554  0.4540
 4250WAT      O17719   5.884   3.929   3.141  0.4075  0.0497  0.4632
 4250WAT     H117720   5.964   3.939   3.174  0.3846 -0.0245  0.5412
 4250WAT     H217721   5.898   3.887   3.066  0.3775 -0.6290  0.8325
 4250WAT    EPW17722   5.898   3.924   3.135  0.3997 -0.0615  0.5293
 4251WAT      O17723   3.396   1.936   4.314  0.2807 -0.1842  0.5011
 4251WAT     H117724   3.319   1.977   4.319 -0.1951 -0.5215 -2.3095
 4251WAT     H217725   3.451   1.991   4.353 -1.0719  0.9088  0.9828
 4251WAT    EPW17726   3.392   1.950   4.321  0.0106 -0.0726  0.1571
 4252WAT      O17727   4.348   5.283   3.602  0.6397 -1.0150  0.8268
 4252WAT     H117728   4.346   5.210   3.554  0.0163 -1.1866  1.0938
 4252WAT     H217729   4.299   5.263   3.671 -1.5745  0.3937 -0.1952
 4252WAT    EPW17730   4.340   5.269   3.605  0.2205 -0.8323  0.7153
 4253WAT      O17731   2.833   2.931   0.907 -0.0091 -0.1107  0.0830
 4253WAT     H117732   2.802   2.949   0.987  0.9440 -0.2802  0.5023
 4253WAT     H217733   2.790   2.859   0.884 -1.1358  0.5803 -0.0496
 4253WAT    EPW17734   2.822   2.923   0.916 -0.0347 -0.0336  0.1253
 4254WAT      O17735   0.788   0.208   5.573  0.3461 -0.2013 -0.1035
 4254WAT     H117736   0.851   0.205   5.633 -0.4433  0.9697  0.8205
 4254WAT     H217737   0.718   0.176   5.616  0.0367 -0.4515 -0.7745
 4254WAT    EPW17738   0.787   0.203   5.588  0.1838 -0.0653 -0.0661
 4255WAT      O17739   6.071   5.624   7.711  0.3310 -0.2536  0.0661
 4255WAT     H117740   5.999   5.604   7.667  0.1169  1.3775 -0.4079
 4255WAT     H217741   6.132   5.630   7.649  1.0734 -2.2985  0.5381
 4255WAT    EPW17742   6.070   5.622   7.696  0.4091 -0.3147  0.0658
 4256WAT      O17743   4.612   4.480   1.368  0.2161  0.0152 -0.3518
 4256WAT     H117744   4.647   4.559   1.377  0.7033 -0.3008  0.5497
 4256WAT     H217745   4.626   4.441   1.445 -3.9026  0.5750  0.9212
 4256WAT    EPW17746   4.619   4.486   1.380 -0.3203  0.0512 -0.0306
 4257WAT      O17747   6.184   6.156   5.231 -0.3123  0.3724 -0.4571
 4257WAT     H117748   6.162   6.073   5.212 -0.2649  0.2218  0.1358
 4257WAT     H217749   6.223   6.184   5.158  1.4603 -0.7642 -0.0085
 4257WAT    EPW17750   6.186   6.148   5.217 -0.0434  0.1823 -0.3033
 4258WAT      O17751   4.930   0.731   6.994 -0.1272 -0.2710  0.1513
 4258WAT     H117752   4.965   0.773   7.062  0.1514 -1.4450  0.7589
 4258WAT     H217753   4.999   0.705   6.948 -0.0600 -2.9705  1.5773
 4258WAT    EPW17754   4.945   0.733   6.997 -0.0761 -0.8432  0.4517
 4259WAT      O17755   4.035   5.545   0.879 -0.0153 -0.0681  0.9301
 4259WAT     H117756   3.971   5.603   0.870 -1.4308 -1.6972 -0.1700
 4259WAT     H217757   4.039   5.533   0.966  2.2047  3.5303  1.5100
 4259WAT    EPW17758   4.026   5.552   0.891  0.1036  0.2228  0.8533
 4260WAT      O17759   6.106   7.574   6.966 -0.3702 -0.3912  0.4225
 4260WAT     H117760   6.054   7.632   6.928 -0.0424 -0.0589  0.4747
 4260WAT     H217761   6.112   7.510   6.907 -0.2660 -0.1087  0.1219
 4260WAT    EPW17762   6.099   7.573   6.952 -0.3064 -0.3004  0.3858
 4261WAT      O17763   1.637   0.702   5.790  0.1593  0.1370 -0.0594
 4261WAT     H117764   1.610   0.785   5.788  3.0843  1.2329  0.2151
 4261WAT     H217765   1.569   0.659   5.823 -1.8867  2.1988 -1.3129
 4261WAT    EPW17766   1.623   0.708   5.795  0.2891  0.6035 -0.2040
 4262WAT      O17767   5.068   6.777   2.649  1.0526 -0.3293 -0.5749
 4262WAT     H117768   5.047   6.861   2.657  0.6936 -0.2841 -1.7694
 4262WAT     H217769   5.096   6.771   2.567  1.1043 -1.3766 -0.4894
 4262WAT    EPW17770   5.069   6.789   2.638  1.0072 -0.4773 -0.7387
 4263WAT      O17771   4.537   2.051   4.239  0.1040  0.4341 -0.1060
 4263WAT     H117772   4.495   2.018   4.170 -0.2322  0.5282  0.0537
 4263WAT     H217773   4.476   2.054   4.301  1.0026 -2.2408  1.0606
 4263WAT    EPW17774   4.522   2.046   4.238  0.1871  0.0529  0.0899
 4264WAT      O17775   1.870   4.126   7.262  0.7630  0.0618 -0.2839
 4264WAT     H117776   1.790   4.146   7.235  1.3672  1.1444 -1.3776
 4264WAT     H217777   1.873   4.039   7.255 -0.3955 -0.0110  0.0162
 4264WAT    EPW17778   1.859   4.116   7.257  0.6811  0.2109 -0.4011
 4265WAT      O17779   6.297   5.859   7.202  0.2334  0.0972 -0.0316
 4265WAT     H117780   6.342   5.801   7.154 -0.5987 -0.9869  0.4503
 4265WAT     H217781   6.258   5.909   7.142 -1.5885 -1.8563 -0.5892
 4265WAT    EPW17782   6.298   5.858   7.186 -0.1586 -0.3516 -0.0428
 4266WAT      O17783   0.260   2.026   5.478  0.4713 -0.6896 -0.0058
 4266WAT     H117784   0.305   1.960   5.444  1.2749 -0.2863  0.2605
 4266WAT     H217785   0.317   2.066   5.530  0.3424  0.8528 -0.9665
 4266WAT    EPW17786   0.275   2.023   5.481  0.5710 -0.4022 -0.1084
 4267WAT      O17787   7.484   2.241   3.944 -0.1080 -0.6503  0.2985
 4267WAT     H117788   7.562   2.206   3.959 -0.1098  0.0438  2.1563
 4267WAT     H217789   7.459   2.272   4.022 -1.9581 -0.2864 -0.3720
 4267WAT    EPW17790   7.492   2.241   3.958 -0.3816 -0.4940  0.4739
 4268WAT      O17791   0.433   6.917   3.590  0.5059 -0.4270 -0.0751
 4268WAT     H117792   0.400   6.908   3.510  0.8808  0.3328 -0.3225
 4268WAT     H217793   0.519   6.917   3.578  0.5611  0.7386  0.1870
 4268WAT    EPW17794   0.441   6.916   3.576  0.5695 -0.1426 -0.0730
 4269WAT      O17795   4.474   2.208   6.345  1.0421  0.2565  0.6467
 4269WAT     H117796   4.426   2.275   6.373 -0.6876 -0.8846  0.5554
 4269WAT     H217797   4.449   2.141   6.396  0.9300 -0.8816 -0.8266
 4269WAT    EPW17798   4.463   2.208   6.357  0.7701 -0.0802  0.4156
 4270WAT      O17799   1.166   7.182   7.315 -0.5633  0.3075 -0.4396
 4270WAT     H117800   1.203   7.162   7.239  0.5801 -0.8490  0.3905
 4270WAT     H217801   1.121   7.110   7.336  1.1391 -0.3892  1.1261
 4270WAT    EPW17802   1.165   7.168   7.307 -0.1429  0.0337 -0.0857
 4271WAT      O17803   2.796   6.278   7.553 -0.0822 -0.2112 -0.3812
 4271WAT     H117804   2.840   6.311   7.621 -0.3991  0.8420 -0.6701
 4271WAT     H217805   2.713   6.295   7.573 -0.0937  1.7582 -1.8380
 4271WAT    EPW17806   2.790   6.285   7.566 -0.1307  0.2353 -0.6391
 4272WAT      O17807   5.658   5.456   5.832  0.2420 -0.2114 -0.3408
 4272WAT     H117808   5.733   5.419   5.858  0.8333  0.9540 -0.3243
 4272WAT     H217809   5.597   5.411   5.875  0.8691 -1.6955 -0.9493
 4272WAT    EPW17810   5.660   5.444   5.843  0.4220 -0.2585 -0.4282
 4273WAT      O17811   7.458   5.243   6.668  0.0055 -0.5992 -0.4768
 4273WAT     H117812   7.373   5.242   6.647 -0.2586  1.2645  0.2668
 4273WAT     H217813   7.471   5.164   6.703 -1.4775 -0.8496 -0.4109
 4273WAT    EPW17814   7.447   5.231   6.670 -0.2526 -0.3609 -0.3572
 4274WAT      O17815   3.843   6.320   3.672  0.1936  0.0218  0.3022
 4274WAT     H117816   3.786   6.380   3.696  0.5098 -0.5259  2.6463
 4274WAT     H217817   3.918   6.364   3.665  0.1322  0.1617  0.5302
 4274WAT    EPW17818   3.846   6.335   3.675  0.2312 -0.0384  0.6821
 4275WAT      O17819   5.040   4.946   2.354 -0.5878 -0.7477  0.4186
 4275WAT     H117820   5.104   4.907   2.308  1.3190 -0.0042  2.2564
 4275WAT     H217821   4.990   4.879   2.380  0.6506 -1.6181  0.6553
 4275WAT    EPW17822   5.042   4.930   2.351 -0.1232 -0.7664  0.7251
 4276WAT      O17823   2.804   3.148   4.220  0.1014  0.4490 -0.4845
 4276WAT     H117824   2.805   3.118   4.138  0.0781 -1.1930  0.0781
 4276WAT     H217825   2.885   3.132   4.248  0.0486  0.8068 -0.1284
 4276WAT    EPW17826   2.816   3.141   4.212  0.0901  0.2593 -0.3488
 4277WAT      O17827   6.822   7.368   0.409  0.9121 -0.1199 -0.0008
 4277WAT     H117828   6.806   7.448   0.441 -2.2155 -0.9874  0.9044
 4277WAT     H217829   6.780   7.315   0.464  0.0816 -2.1236 -2.3851
 4277WAT    EPW17830   6.813   7.372   0.422  0.3274 -0.5440 -0.2193
 4278WAT      O17831   4.498   6.319   0.360  0.3035  0.2386  0.0279
 4278WAT     H117832   4.415   6.293   0.367  0.6778 -0.9846  0.1377
 4278WAT     H217833   4.491   6.402   0.331 -0.9522  0.4944  0.9752
 4278WAT    EPW17834   4.485   6.328   0.356  0.1733  0.0957  0.1840
 4279WAT      O17835   5.057   0.100   3.043  0.6612 -0.1969 -0.1963
 4279WAT     H117836   5.095   0.173   3.016  2.7344 -0.9376  0.5337
 4279WAT     H217837   5.045   0.113   3.128 -0.9392  0.0848 -0.4385
 4279WAT    EPW17838   5.061   0.112   3.052  0.7310 -0.2647 -0.1242
 4280WAT      O17839   0.870   7.208   4.996  0.3576  0.2366  0.3284
 4280WAT     H117840   0.943   7.242   4.964 -0.2366  0.3762 -0.9241
 4280WAT     H217841   0.841   7.269   5.051 -0.2917  1.4628 -1.3092
 4280WAT    EPW17842   0.877   7.222   5.000  0.1739  0.4383 -0.0985
 4281WAT      O17843   3.300   2.643   1.072  0.3202  0.2922 -0.8686
 4281WAT     H117844   3.254   2.626   1.144  0.9506 -0.6529 -0.6744
 4281WAT     H217845   3.245   2.692   1.024 -0.9461 -0.9005 -0.7015
 4281WAT    EPW17846   3.285   2.648   1.076  0.2262 -0.0236 -0.8152
 4282WAT      O17847   6.343   5.035   6.633 -0.2435 -0.2472 -0.0080
 4282WAT     H117848   6.368   4.971   6.579  1.1274  0.4411 -0.2525
 4282WAT     H217849   6.305   5.093   6.580  0.1257 -0.0616 -0.0737
 4282WAT    EPW17850   6.341   5.034   6.617  0.0136 -0.1181 -0.0538
 4283WAT      O17851   6.832   5.665   0.813  0.3747  0.0659  0.1238
 4283WAT     H117852   6.805   5.584   0.796 -0.3624  0.2364  0.4424
 4283WAT     H217853   6.758   5.709   0.828  0.7802  0.7449  0.1930
 4283WAT    EPW17854   6.817   5.660   0.813  0.3257  0.1914  0.1811
 4284WAT      O17855   1.986   5.723   1.678  0.2112  0.5343 -0.3741
 4284WAT     H117856   2.038   5.720   1.749 -0.9453  0.2406  0.4998
 4284WAT     H217857   1.917   5.769   1.705 -0.8989 -0.7862 -0.8389
 4284WAT    EPW17858   1.983   5.729   1.693 -0.1236  0.2959 -0.3137
 4285WAT      O17859   4.563   6.676   1.114 -0.4943 -0.2386 -0.0957
 4285WAT     H117860   4.486   6.710   1.138  0.0489  0.2460  1.0634
 4285WAT     H217861   4.586   6.725   1.045 -0.5288  0.6327  0.4947
 4285WAT    EPW17862   4.555   6.689   1.107 -0.4192 -0.0383  0.1627
 4286WAT      O17863   5.170   3.533   4.953 -0.0424  0.2294  0.1702
 4286WAT     H117864   5.236   3.484   4.981  1.0116  0.6502 -1.4585
 4286WAT     H217865   5.100   3.482   4.966  0.6124 -0.3664  1.5735
 4286WAT    EPW17866   5.169   3.518   4.959  0.2101  0.2035  0.1369
 4287WAT      O17867   4.296   4.385   2.227 -0.1998 -0.2706  0.1985
 4287WAT     H117868   4.231   4.329   2.246  0.6694 -1.2597  0.3656
 4287WAT     H217869   4.364   4.353   2.271  0.5301  0.4619 -0.3641
 4287WAT    EPW17870   4.296   4.372   2.236  0.0364 -0.3085  0.1401
 4288WAT      O17871   5.378   5.449   0.734  0.3261 -0.1966  0.3264
 4288WAT     H117872   5.292   5.437   0.729  0.4419 -0.7127 -0.6490
 4288WAT     H217873   5.394   5.515   0.680  0.1052  2.5283  3.3419
 4288WAT    EPW17874   5.368   5.457   0.725  0.3106  0.1297  0.6278
 4289WAT      O17875   5.777   5.854   5.427  0.0660 -0.1149 -0.2988
 4289WAT     H117876   5.784   5.915   5.365 -0.0540 -0.9272 -1.1396
 4289WAT     H217877   5.747   5.898   5.496  1.5513  1.0865 -0.3574
 4289WAT    EPW17878   5.774   5.870   5.428  0.2677 -0.0574 -0.4316
 4290WAT      O17879   2.500   5.756   2.120 -0.2830 -0.8064  0.4472
 4290WAT     H117880   2.576   5.799   2.120 -0.8574  0.2353  0.2080
 4290WAT     H217881   2.489   5.735   2.204 -0.3230  0.1328  0.6861
 4290WAT    EPW17882   2.510   5.759   2.132 -0.3737 -0.5138  0.4471
 4291WAT      O17883   5.040   6.320   5.873 -0.2360  0.3896 -0.1224
 4291WAT     H117884   5.015   6.370   5.806  0.3464 -0.1491 -0.7550
 4291WAT     H217885   5.126   6.312   5.862 -0.5270 -2.4376 -1.2757
 4291WAT    EPW17886   5.049   6.326   5.862 -0.1930 -0.1076 -0.3862
 4292WAT      O17887   6.448   2.045   7.389 -0.1504 -0.0651  0.0666
 4292WAT     H117888   6.524   2.081   7.411 -0.4258  0.8432 -0.4135
 4292WAT     H217889   6.459   1.961   7.407  0.2127  0.3529  2.0996
 4292WAT    EPW17890   6.461   2.038   7.395 -0.1374  0.1308  0.2960
 4293WAT      O17891   4.989   1.674   4.085 -0.0848 -0.2568 -0.2445
 4293WAT     H117892   5.009   1.611   4.141  0.6755 -1.3062 -1.6074
 4293WAT     H217893   4.921   1.642   4.041  0.8715 -0.6094 -1.5722
 4293WAT    EPW17894   4.982   1.660   4.087  0.1688 -0.4639 -0.6420
 4294WAT      O17895   2.735   5.486   4.233  0.1245  0.2378  0.1161
 4294WAT     H117896   2.674   5.546   4.215 -0.3835  0.1941  1.5436
 4294WAT     H217897   2.808   5.522   4.202 -0.6026  0.2582 -1.6949
 4294WAT    EPW17898   2.737   5.500   4.226 -0.0579  0.2344  0.0594
 4295WAT      O17899   3.264   1.120   0.479  0.5365  0.6526  0.1905
 4295WAT     H117900   3.321   1.183   0.500  0.8864  0.2854  0.3793
 4295WAT     H217901   3.274   1.062   0.544  0.1936  0.4263  0.0409
 4295WAT    EPW17902   3.274   1.121   0.491  0.5375  0.5649  0.1963
 4296WAT      O17903   5.290   5.393   2.764 -0.2075  0.0655 -0.1725
 4296WAT     H117904   5.252   5.316   2.775 -1.4846  1.0296  3.7658
 4296WAT     H217905   5.246   5.429   2.698 -0.7784 -1.8331 -0.8813
 4296WAT    EPW17906   5.278   5.387   2.756 -0.4805 -0.0726  0.3045
 4297WAT      O17907   4.629   4.717   3.342 -0.0958 -0.0065  0.2526
 4297WAT     H117908   4.549   4.694   3.314  0.0001  1.0443 -0.9852
 4297WAT     H217909   4.671   4.739   3.268  0.3629  2.4037  1.1340
 4297WAT    EPW17910   4.623   4.717   3.327 -0.0139  0.5048  0.2000
 4298WAT      O17911   7.026   6.267   3.904 -0.0600  0.1997  0.5285
 4298WAT     H117912   7.024   6.320   3.835 -1.7484 -1.6015 -0.9418
 4298WAT     H217913   6.957   6.292   3.951  0.1307  0.3906  0.7040
 4298WAT    EPW17914   7.015   6.278   3.900 -0.2812 -0.0382  0.3372
 4299WAT      O17915   2.907   7.551   5.323  0.5004  0.2900 -0.4169
 4299WAT     H117916   2.984   7.515   5.338  1.2506  1.2977 -1.6465
 4299WAT     H217917   2.906   7.563   5.236 -0.7347  0.9589 -0.3435
 4299WAT    EPW17918   2.918   7.547   5.312  0.4288  0.5376 -0.5877
 4300WAT      O17919   1.919   0.256   5.822  0.6460 -0.0460 -0.1105
 4300WAT     H117920   1.878   0.329   5.849  0.3641 -0.2526  0.0250
 4300WAT     H217921   1.864   0.192   5.845  1.5173 -0.4183  1.0687
 4300WAT    EPW17922   1.905   0.258   5.830  0.7331 -0.1315  0.0837
 4301WAT      O17923   2.199   5.572   1.016 -0.0865  0.0078 -0.8474
 4301WAT     H117924   2.237   5.500   1.045 -1.7325 -0.5852 -0.0487
 4301WAT     H217925   2.264   5.616   0.977  1.5444 -0.6047  1.0366
 4301WAT    EPW17926   2.214   5.568   1.014 -0.0887 -0.1702 -0.4511
 4302WAT      O17927   5.079   2.960   1.783 -0.1246 -0.6135  0.2309
 4302WAT     H117928   5.111   2.929   1.708  0.1937 -1.0442  0.5441
 4302WAT     H217929   5.100   3.045   1.782  1.8069 -1.0545  0.8368
 4302WAT    EPW17930   5.087   2.968   1.772  0.2077 -0.7423  0.3667
 4303WAT      O17931   3.180   0.685   5.386 -0.4085 -0.1012 -0.0616
 4303WAT     H117932   3.124   0.730   5.337  0.6713  0.2889 -0.9786
 4303WAT     H217933   3.135   0.614   5.410 -0.6619 -0.8733 -2.5549
 4303WAT    EPW17934   3.165   0.681   5.382 -0.2864 -0.1576 -0.5654
 4304WAT      O17935   1.594   6.479   1.193  0.7772  0.5652  0.2414
 4304WAT     H117936   1.567   6.466   1.111  0.7757  1.1328  0.1519
 4304WAT     H217937   1.523   6.512   1.233  0.2686 -1.1814  0.8810
 4304WAT    EPW17938   1.579   6.482   1.187  0.7018  0.3910  0.3227
 4305WAT      O17939   3.369   2.555   1.858  0.9014  0.0209 -0.0250
 4305WAT     H117940   3.292   2.594   1.865  0.5988 -0.6283  0.3161
 4305WAT     H217941   3.401   2.586   1.782  0.2735  0.2217 -0.2099
 4305WAT    EPW17942   3.363   2.565   1.848  0.7640 -0.0453 -0.0020
 4306WAT      O17943   5.386   3.334   2.738 -0.4142  0.1740 -0.2672
 4306WAT     H117944   5.443   3.358   2.800 -0.1400 -0.1986 -0.3675
 4306WAT     H217945   5.314   3.380   2.757 -1.0352 -1.4392  1.5438
 4306WAT    EPW17946   5.384   3.345   2.750 -0.4654 -0.1194 -0.0145
 4307WAT      O17947   5.046   4.664   3.205  1.2601  0.6516 -0.4331
 4307WAT     H117948   5.080   4.588   3.178 -0.3119  0.4588 -2.0852
 4307WAT     H217949   4.973   4.672   3.157 -0.4966  1.5297  2.2003
 4307WAT    EPW17950   5.040   4.654   3.194  0.7684  0.7528 -0.2881
 4308WAT      O17951   6.500   4.337   5.714 -0.3682 -0.0512  0.0422
 4308WAT     H117952   6.499   4.424   5.713  0.6769  0.0168  1.5990
 4308WAT     H217953   6.582   4.316   5.691  0.1445 -0.4899  2.0376
 4308WAT    EPW17954   6.512   4.346   5.711 -0.1381 -0.1060  0.5669
 4309WAT      O17955   5.305   6.141   6.703  0.2744 -0.9072  0.3312
 4309WAT     H117956   5.241   6.148   6.761  0.6759  0.2634  0.6430
 4309WAT     H217957   5.377   6.164   6.747  0.4790  0.8312 -0.8135
 4309WAT    EPW17958   5.306   6.145   6.718  0.3639 -0.4775  0.2081
 4310WAT      O17959   4.412   3.480   7.156  0.3413  0.1654 -0.6755
 4310WAT     H117960   4.431   3.395   7.158 -1.1909 -0.2537 -1.8642
 4310WAT     H217961   4.459   3.510   7.089 -1.3836 -0.4515 -2.2817
 4310WAT    EPW17962   4.421   3.472   7.146 -0.1398  0.0123 -1.0883
 4311WAT      O17963   1.825   6.392   3.521 -0.4114 -0.5799  0.2403
 4311WAT     H117964   1.792   6.364   3.596  0.6954  1.1463  1.4318
 4311WAT     H217965   1.794   6.473   3.512  0.2460 -0.4010 -0.6545
 4311WAT    EPW17966   1.816   6.400   3.531 -0.1508 -0.2985  0.2841
 4312WAT      O17967   6.654   5.119   7.018  0.2207 -0.3806 -0.6165
 4312WAT     H117968   6.689   5.039   7.010  0.2528 -0.5210  0.7131
 4312WAT     H217969   6.629   5.138   6.937  0.3376 -1.6839 -0.9878
 4312WAT    EPW17970   6.655   5.110   7.005  0.2427 -0.5939 -0.4749
 4313WAT      O17971   5.023   6.134   2.427 -0.1263  0.1560  0.2538
 4313WAT     H117972   5.109   6.118   2.432 -0.2854 -0.3720  1.6796
 4313WAT     H217973   5.019   6.212   2.388  1.0705  0.8968  1.5442
 4313WAT    EPW17974   5.035   6.143   2.422  0.0270  0.1874  0.6550
 4314WAT      O17975   5.258   2.501   0.570 -0.1101 -0.4814  0.0978
 4314WAT     H117976   5.212   2.429   0.584 -1.9088  0.6080  0.1588
 4314WAT     H217977   5.305   2.510   0.643 -2.2372  0.0439  1.4901
 4314WAT    EPW17978   5.258   2.492   0.583 -0.6901 -0.2429  0.3125
 4315WAT      O17979   4.587   2.810   4.488  0.2545 -0.1146 -0.4934
 4315WAT     H117980   4.501   2.809   4.478  0.0505 -2.7880  0.6341
 4315WAT     H217981   4.605   2.894   4.500 -1.8852  0.7662 -2.6702
 4315WAT    EPW17982   4.577   2.822   4.488 -0.0917 -0.3794 -0.6484
 4316WAT      O17983   3.187   0.896   7.655  0.3208 -0.1360 -0.4864
 4316WAT     H117984   3.115   0.923   7.695  0.8053  0.2620  0.1358
 4316WAT     H217985   3.235   0.862   7.719  1.3303  0.9942 -0.6086
 4316WAT    EPW17986   3.184   0.895   7.670  0.5415  0.0897 -0.4125
 4317WAT      O17987   4.883   0.747   1.849 -0.1658  0.3574 -0.0819
 4317WAT     H117988   4.942   0.683   1.850 -1.8066 -1.2452  0.9786
 4317WAT     H217989   4.907   0.797   1.782  1.4846 -1.0810 -0.6244
 4317WAT    EPW17990   4.895   0.745   1.839 -0.1644 -0.0918 -0.0054
 4318WAT      O17991   1.644   6.123   5.099 -0.1769 -0.4499 -0.2405
 4318WAT     H117992   1.632   6.190   5.044 -1.0431 -0.4850 -0.1055
 4318WAT     H217993   1.726   6.133   5.126 -0.4557  0.8907  0.1910
 4318WAT    EPW17994   1.654   6.135   5.095 -0.3460 -0.2571 -0.1568
 4319WAT      O17995   3.405   3.395   7.754 -0.0200  0.0479 -0.0375
 4319WAT     H117996   3.375   3.462   7.801 -0.4839  0.3590 -0.7602
 4319WAT     H217997   3.336   3.341   7.749 -0.2426  0.4175 -1.0742
 4319WAT    EPW17998   3.390   3.397   7.761 -0.1214  0.1484 -0.2974
 4320WAT      O17999   4.303   6.973   0.485 -0.1188 -0.0404  0.4424
 4320WAT     H118000   4.275   7.054   0.499 -2.2045 -0.7467  0.7446
 4320WAT     H218001   4.299   6.936   0.565 -0.7957 -0.8695  0.0417
 4320WAT    EPW18002   4.298   6.979   0.499 -0.5269 -0.2672  0.4279
 4321WAT      O18003   2.613   4.335   1.012 -0.1456 -0.6662 -0.6840
 4321WAT     H118004   2.556   4.393   1.044 -0.4454 -0.8617 -0.8506
 4321WAT     H218005   2.567   4.294   0.949 -0.2651 -1.7511  0.0755
 4321WAT    EPW18006   2.598   4.337   1.007 -0.2076 -0.8553 -0.5964
 4322WAT      O18007   5.095   6.262   0.597 -0.3691  0.0783  0.5381
 4322WAT     H118008   5.055   6.194   0.559 -1.2660  0.7764  0.2266
 4322WAT     H218009   5.030   6.315   0.620  0.3294  0.8959  0.6907
 4322WAT    EPW18010   5.080   6.260   0.595 -0.3984  0.3022  0.5146
 4323WAT      O18011   6.475   6.559   5.473 -0.6944 -0.3746  0.3095
 4323WAT     H118012   6.461   6.606   5.545 -1.4543 -0.1720  0.0339
 4323WAT     H218013   6.484   6.478   5.503 -0.7022 -0.2505  0.6572
 4323WAT    EPW18014   6.474   6.554   5.488 -0.8078 -0.3263  0.3201
 4324WAT      O18015   4.298   1.178   5.924 -0.4251 -0.0063  0.1749
 4324WAT     H118016   4.221   1.213   5.901 -0.1211  1.3919  1.2153
 4324WAT     H218017   4.356   1.220   5.875 -0.2173 -0.3443  0.1264
 4324WAT    EPW18018   4.295   1.189   5.914 -0.3495  0.1503  0.3214
 4325WAT      O18019   0.647   0.405   0.277  0.1828  0.0855 -0.5399
 4325WAT     H118020   0.671   0.487   0.261  0.2276  0.4519  1.1945
 4325WAT     H218021   0.723   0.361   0.280  0.4983  0.6530  1.8142
 4325WAT    EPW18022   0.662   0.411   0.275  0.2360  0.2234  0.0640
 4326WAT      O18023   3.804   4.540   6.691 -0.2205  0.6527  0.3552
 4326WAT     H118024   3.743   4.529   6.752 -0.5031 -0.2707 -0.0672
 4326WAT     H218025   3.843   4.463   6.686 -0.0688  0.7683 -0.4843
 4326WAT    EPW18026   3.800   4.527   6.699 -0.2398  0.5334  0.1688
 4327WAT      O18027   4.129   2.916   7.408  0.0221 -0.4529 -0.2007
 4327WAT     H118028   4.148   3.001   7.404  0.4010 -0.5647 -0.9052
 4327WAT     H218029   4.115   2.902   7.493  0.5218  0.1963 -0.0067
 4327WAT    EPW18030   4.130   2.926   7.420  0.1519 -0.3735 -0.2761
 4328WAT      O18031   1.539   7.236   6.234  0.3136  0.3724  0.2870
 4328WAT     H118032   1.513   7.297   6.290  0.1020  1.4909 -0.9933
 4328WAT     H218033   1.559   7.168   6.285 -2.7818  0.2420  1.5536
 4328WAT    EPW18034   1.538   7.235   6.250 -0.1749  0.5184  0.2849
 4329WAT      O18035   7.118   0.605   4.881 -0.3135  0.8012  0.3019
 4329WAT     H118036   7.186   0.641   4.923 -0.4245  0.6170  0.6413
 4329WAT     H218037   7.134   0.519   4.888  2.2601  0.6234 -4.1300
 4329WAT    EPW18038   7.131   0.597   4.888  0.0503  0.7478 -0.3027
 4330WAT      O18039   5.213   7.642   1.027 -0.6591 -0.3977  0.3102
 4330WAT     H118040   5.142   7.592   1.036 -0.5400 -0.7574 -0.6625
 4330WAT     H218041   5.211   7.665   0.943 -0.2903  0.6156  0.5681
 4330WAT    EPW18042   5.202   7.638   1.016 -0.5870 -0.3011  0.2046
 4331WAT      O18043   2.516   0.839   7.344 -0.1231  0.3735 -0.0897
 4331WAT     H118044   2.525   0.892   7.412 -2.0054 -0.3491  0.8116
 4331WAT     H218045   2.511   0.760   7.380 -0.8384 -0.0607 -1.0721
 4331WAT    EPW18046   2.516   0.835   7.359 -0.5068  0.2026 -0.1017
 4332WAT      O18047   5.236   1.911   2.720 -0.2501  0.2621 -0.3945
 4332WAT     H118048   5.266   1.842   2.676  0.1856  1.2371 -1.7125
 4332WAT     H218049   5.298   1.927   2.779  0.6308  0.7131 -1.4122
 4332WAT    EPW18050   5.249   1.903   2.722 -0.0556  0.4728 -0.7395
 4333WAT      O18051   4.644   0.089   3.149  0.1662  0.0424  0.2346
 4333WAT     H118052   4.630   0.003   3.143  0.4095  0.0370 -0.2967
 4333WAT     H218053   4.697   0.106   3.082 -1.9478  1.0623 -1.2694
 4333WAT    EPW18054   4.650   0.078   3.138 -0.1101  0.1922 -0.0661
 4334WAT      O18055   5.461   7.580   0.169  0.0900  0.3181  0.5683
 4334WAT     H118056   5.480   7.653   0.125  1.1172 -0.8066 -0.9571
 4334WAT     H218057   5.374   7.579   0.170  0.0438  1.8423  1.1679
 4334WAT    EPW18058   5.451   7.591   0.163  0.2349  0.3771  0.4316
 4335WAT      O18059   2.666   6.666   2.215 -0.3709  0.6131  0.3305
 4335WAT     H118060   2.627   6.654   2.138  1.5418 -1.4000 -0.4276
 4335WAT     H218061   2.728   6.725   2.197 -1.0254  1.4584  0.7833
 4335WAT    EPW18062   2.669   6.673   2.201 -0.1850  0.4406  0.2854
 4336WAT      O18063   3.424   3.834   0.741 -0.5115  0.0522 -0.1428
 4336WAT     H118064   3.449   3.776   0.801 -1.6221  0.0060  0.2930
 4336WAT     H218065   3.392   3.785   0.676 -2.1570  0.1453  0.5421
 4336WAT    EPW18066   3.423   3.819   0.740 -0.9186  0.0591  0.0228
 4337WAT      O18067   2.840   6.142   1.874 -0.2681  0.8727 -0.3020
 4337WAT     H118068   2.774   6.091   1.898  0.2905 -0.0481 -0.6717
 4337WAT     H218069   2.859   6.188   1.946  0.1135 -0.4244  0.4494
 4337WAT    EPW18070   2.833   6.141   1.888 -0.1292  0.5451 -0.2456
 4338WAT      O18071   0.780   4.693   6.012 -0.1832  0.5128  0.2070
 4338WAT     H118072   0.707   4.648   5.998  0.1059  0.2365 -0.4841
 4338WAT     H218073   0.781   4.705   6.098 -0.6847 -0.1024  0.3063
 4338WAT    EPW18074   0.769   4.688   6.022 -0.2146  0.3811  0.1196
 4339WAT      O18075   4.302   2.486   1.312  0.0537  0.2547  0.0226
 4339WAT     H118076   4.256   2.557   1.334  0.3000  0.1470  0.9419
 4339WAT     H218077   4.339   2.462   1.387 -0.3071 -1.0569 -0.1949
 4339WAT    EPW18078   4.301   2.493   1.326  0.0368  0.0451  0.1263
 4340WAT      O18079   7.319   4.580   4.305 -0.5396 -0.0325 -0.6939
 4340WAT     H118080   7.278   4.555   4.378 -2.2515  2.7764 -0.5026
 4340WAT     H218081   7.377   4.639   4.334  0.3958 -0.5598 -1.4389
 4340WAT    EPW18082   7.321   4.585   4.320 -0.6543  0.3045 -0.7757
 4341WAT      O18083   1.246   1.532   6.463 -0.1777  0.0343 -0.1111
 4341WAT     H118084   1.308   1.542   6.523 -0.4518 -2.0024  0.5577
 4341WAT     H218085   1.175   1.565   6.502 -0.3361 -1.1974  0.6792
 4341WAT    EPW18086   1.245   1.539   6.478 -0.2416 -0.4485  0.1045
 4342WAT      O18087   6.054   4.731   5.301  0.1786 -0.0795 -0.5668
 4342WAT     H118088   6.139   4.753   5.308  0.1908 -0.5878  1.2754
 4342WAT     H218089   6.013   4.808   5.297  0.6526  0.1752 -0.6056
 4342WAT    EPW18090   6.061   4.746   5.301  0.2504 -0.1170 -0.3004
 4343WAT      O18091   4.254   3.843   2.065  0.1586  0.0714  0.0044
 4343WAT     H118092   4.296   3.816   1.993  0.9293  0.2065  0.3922
 4343WAT     H218093   4.318   3.872   2.116 -0.6197  3.6136 -0.7420
 4343WAT    EPW18094   4.270   3.843   2.062  0.1575  0.6146 -0.0486
 4344WAT      O18095   1.450   6.857   3.674 -0.3675 -0.1822 -0.0699
 4344WAT     H118096   1.421   6.848   3.756 -1.2865 -1.2858 -0.5031
 4344WAT     H218097   1.537   6.866   3.684 -0.3955 -0.9264  0.9802
 4344WAT    EPW18098   1.459   6.857   3.688 -0.5074 -0.4552  0.0212
 4345WAT      O18099   4.865   3.915   0.198  0.2969  0.0476 -0.4842
 4345WAT     H118100   4.865   3.839   0.156 -0.4726  1.0126 -2.3541
 4345WAT     H218101   4.788   3.916   0.238  0.1154  0.0129 -0.8239
 4345WAT    EPW18102   4.854   3.904   0.197  0.1564  0.1850 -0.8106
 4346WAT      O18103   1.927   3.466   2.332  0.1239 -0.3261 -0.0896
 4346WAT     H118104   2.011   3.467   2.354  0.3239 -1.4410 -0.7031
 4346WAT     H218105   1.896   3.396   2.373 -0.2655 -0.4794 -0.6252
 4346WAT    EPW18106   1.935   3.456   2.341  0.0959 -0.5134 -0.2593
 4347WAT      O18107   6.512   6.755   5.276  0.0924  0.2861 -0.3431
 4347WAT     H118108   6.582   6.723   5.236  0.4184  0.7973 -0.1858
 4347WAT     H218109   6.495   6.697   5.338 -0.9600 -0.9994 -1.7611
 4347WAT    EPW18110   6.520   6.742   5.279 -0.0149  0.1717 -0.5293
 4348WAT      O18111   3.607   0.622   0.689 -0.0431  0.1342 -0.4213
 4348WAT     H118112   3.545   0.568   0.717 -0.5442 -0.4707 -2.5436
 4348WAT     H218113   3.562   0.690   0.657  0.5548  1.4998  1.4540
 4348WAT    EPW18114   3.591   0.624   0.688 -0.0288  0.2466 -0.4578
 4349WAT      O18115   5.304   3.323   1.066  0.4615 -0.1543 -0.0728
 4349WAT     H118116   5.266   3.304   0.990 -0.1466 -1.1551  0.4662
 4349WAT     H218117   5.248   3.377   1.105  0.4631 -0.1555 -0.0687
 4349WAT    EPW18118   5.290   3.328   1.061  0.3719 -0.3023  0.0074
 4350WAT      O18119   3.893   6.946   7.435 -0.5624  0.5895  0.2018
 4350WAT     H118120   3.833   7.009   7.430 -2.2623 -0.9792  0.1392
 4350WAT     H218121   3.918   6.948   7.519 -0.3934  1.5016  0.1379
 4350WAT    EPW18122   3.888   6.956   7.446 -0.7886  0.4925  0.1831
 4351WAT      O18123   6.205   5.828   6.450  0.0548 -0.8242  0.0206
 4351WAT     H118124   6.170   5.750   6.470  0.8203 -1.1208  0.2440
 4351WAT     H218125   6.173   5.845   6.371  0.2772 -1.6238 -0.2584
 4351WAT    EPW18126   6.195   5.819   6.442  0.2007 -0.9861  0.0124
 4352WAT      O18127   4.661   5.797   0.333 -0.6100 -0.5448  0.1007
 4352WAT     H118128   4.610   5.857   0.369  0.4943 -0.1718  1.1111
 4352WAT     H218129   4.717   5.844   0.286 -1.6570 -0.9947 -1.6919
 4352WAT    EPW18130   4.662   5.813   0.332 -0.6015 -0.5562 -0.0149
 4353WAT      O18131   3.474   1.676   0.074 -0.1870  0.3791 -0.1347
 4353WAT     H118132   3.526   1.668   0.005  1.0326  2.9272  0.3616
 4353WAT     H218133   3.412   1.732   0.047 -0.2834  0.6017  0.5105
 4353WAT    EPW18134   3.472   1.683   0.060 -0.0210  0.7884  0.0339
 4354WAT      O18135   2.806   2.616   6.333 -0.2742 -0.0583 -0.2585
 4354WAT     H118136   2.724   2.627   6.304  0.1196  0.5369 -1.1741
 4354WAT     H218137   2.815   2.529   6.337 -0.2065 -0.1818 -2.3715
 4354WAT    EPW18138   2.795   2.605   6.330 -0.2060  0.0114 -0.7059
 4355WAT      O18139   3.832   5.234   2.539  0.0645  0.8775 -0.0433
 4355WAT     H118140   3.878   5.160   2.538 -1.1075  0.1340  0.0312
 4355WAT     H218141   3.795   5.234   2.618  0.9750  2.1470  0.4216
 4355WAT    EPW18142   3.833   5.223   2.551  0.0259  0.9552  0.0364
 4356WAT      O18143   3.715   0.255   0.893  0.9559  0.3093  0.3128
 4356WAT     H118144   3.683   0.249   0.975  0.2780 -2.6699 -0.0707
 4356WAT     H218145   3.643   0.265   0.844  1.0201 -1.2378 -0.1405
 4356WAT    EPW18146   3.700   0.256   0.898  0.8652 -0.3593  0.1892
 4357WAT      O18147   6.278   7.605   0.616  0.0407  0.1598 -0.8778
 4357WAT     H118148   6.310   7.672   0.570  1.0135  1.4618  1.5166
 4357WAT     H218149   6.349   7.570   0.654 -0.7172 -0.8048 -0.2900
 4357WAT    EPW18150   6.293   7.610   0.615  0.0725  0.2096 -0.4373
 4358WAT      O18151   4.879   4.593   7.204 -0.3152 -0.2680  0.2003
 4358WAT     H118152   4.811   4.542   7.223 -1.1891  0.7539 -0.0842
 4358WAT     H218153   4.847   4.674   7.214  0.6498  0.2327 -0.6254
 4358WAT    EPW18154   4.864   4.598   7.208 -0.3018 -0.0431  0.0363
 4359WAT      O18155   5.825   3.156   2.908  0.4500  0.0880 -0.1481
 4359WAT     H118156   5.873   3.113   2.968 -0.6338 -0.1988  0.5456
 4359WAT     H218157   5.870   3.146   2.834  0.9622 -0.9994  0.2937
 4359WAT    EPW18158   5.839   3.148   2.906  0.3655 -0.1150  0.0196
 4360WAT      O18159   6.563   4.323   4.245 -0.3940 -0.0491  0.8395
 4360WAT     H118160   6.494   4.337   4.296  0.3530 -1.1896  2.2179
 4360WAT     H218161   6.629   4.362   4.286  0.2986 -1.3374  1.0019
 4360WAT    EPW18162   6.563   4.331   4.258 -0.1813 -0.4078  1.0671
 4361WAT      O18163   3.691   4.918   2.582 -0.0120 -0.5273  0.2858
 4361WAT     H118164   3.743   4.873   2.635  0.8081  0.7125  0.6035
 4361WAT     H218165   3.666   4.986   2.630 -2.5681 -1.4437  0.3694
 4361WAT    EPW18166   3.695   4.922   2.597 -0.2684 -0.4795  0.3451
 4362WAT      O18167   6.660   2.961   7.783  0.1096 -0.2844  0.3344
 4362WAT     H118168   6.613   2.981   7.853 -1.2159 -0.4026 -0.4806
 4362WAT     H218169   6.735   2.931   7.816 -0.3124  0.0813  1.6748
 4362WAT    EPW18170   6.664   2.959   7.798 -0.1485 -0.2479  0.4121
 4363WAT      O18171   1.487   1.242   0.378  0.3392  0.3759 -0.2746
 4363WAT     H118172   1.445   1.206   0.311 -0.1680  0.4717 -0.0106
 4363WAT     H218173   1.570   1.247   0.350  0.3202 -0.4934 -0.5155
 4363WAT    EPW18174   1.493   1.237   0.364  0.2614  0.2616 -0.2712
 4364WAT      O18175   6.552   5.970   0.285 -0.1829  0.7032  0.3814
 4364WAT     H118176   6.596   5.936   0.352 -0.0743 -0.2043 -0.1325
 4364WAT     H218177   6.564   5.913   0.221 -2.6180  0.0557  0.3816
 4364WAT    EPW18178   6.560   5.957   0.285 -0.5266  0.4735  0.3055
 4365WAT      O18179   0.697   6.936   3.566  0.0670  0.9386 -0.4326
 4365WAT     H118180   0.716   6.900   3.644 -0.1742 -1.2547 -1.2955
 4365WAT     H218181   0.758   6.998   3.557  1.1722  0.1084  0.7927
 4365WAT    EPW18182   0.709   6.940   3.576  0.1947  0.4919 -0.3791
 4366WAT      O18183   5.403   5.571   6.897 -0.2183  0.0980  0.4297
 4366WAT     H118184   5.491   5.567   6.894 -0.2037  0.7456 -1.7964
 4366WAT     H218185   5.379   5.487   6.896  0.3979 -0.1153 -2.0579
 4366WAT    EPW18186   5.413   5.558   6.896 -0.1252  0.1622 -0.2666
 4367WAT      O18187   2.599   7.418   0.281  0.2465  0.4079  0.1970
 4367WAT     H118188   2.672   7.371   0.291  1.0576  1.7843  1.0531
 4367WAT     H218189   2.538   7.370   0.322  0.9659 -0.0999  0.7036
 4367WAT    EPW18190   2.601   7.404   0.289  0.4726  0.5362  0.3983
 4368WAT      O18191   4.155   0.623   7.609  0.5192 -0.2756  0.1775
 4368WAT     H118192   4.197   0.673   7.552 -0.7908 -1.0770 -1.5770
 4368WAT     H218193   4.130   0.554   7.562 -0.5409 -1.0300  1.7496
 4368WAT    EPW18194   4.157   0.620   7.594  0.1691 -0.5054  0.1505
 4369WAT      O18195   5.694   4.573   0.792  0.4277 -0.2359  0.1242
 4369WAT     H118196   5.773   4.552   0.761  1.3688  2.7629  0.1344
 4369WAT     H218197   5.643   4.569   0.722  1.2562  0.5830 -0.5633
 4369WAT    EPW18198   5.698   4.569   0.777  0.6891  0.3280  0.0242
 4370WAT      O18199   0.547   4.741   7.808 -0.0696 -0.4027 -0.2414
 4370WAT     H118200   0.550   4.764   7.892  0.3105 -0.0133 -0.3548
 4370WAT     H218201   0.560   4.655   7.809  0.1946 -0.3597  0.0823
 4370WAT    EPW18202   0.549   4.732   7.820  0.0256 -0.3389 -0.2103
 4371WAT      O18203   1.675   7.372   5.028 -0.6028 -0.2593  0.2968
 4371WAT     H118204   1.639   7.303   4.988 -2.7805  1.1122 -0.3016
 4371WAT     H218205   1.647   7.365   5.110 -1.8255  0.4682 -0.0264
 4371WAT    EPW18206   1.666   7.361   5.034 -1.1051  0.0507  0.1607
 4372WAT      O18207   5.477   3.724   1.760  0.5444  0.0419 -0.0459
 4372WAT     H118208   5.506   3.800   1.793 -0.5541  0.9252 -1.0181
 4372WAT     H218209   5.482   3.737   1.674 -0.1222 -0.8248 -0.2219
 4372WAT    EPW18210   5.482   3.737   1.752  0.2837  0.0444 -0.2155
 4373WAT      O18211   5.363   2.720   5.313  0.3474  0.2031 -0.7160
 4373WAT     H118212   5.360   2.773   5.383  0.6975  0.4059 -0.8532
 4373WAT     H218213   5.417   2.761   5.259 -0.7664  0.5951 -1.5647
 4373WAT    EPW18214   5.371   2.734   5.316  0.2346  0.2910 -0.8616
 4374WAT      O18215   1.769   4.050   6.107 -0.4243  0.5361 -0.5793
 4374WAT     H118216   1.746   3.969   6.085  0.3258  0.3018 -0.5140
 4374WAT     H218217   1.793   4.043   6.190 -1.1583  0.9999 -0.3115
 4374WAT    EPW18218   1.769   4.037   6.116 -0.4219  0.5700 -0.5301
 4375WAT      O18219   4.015   7.325   3.939  0.4981 -0.0891  0.2775
 4375WAT     H118220   3.956   7.384   3.964  0.6226 -0.4675  1.5205
 4375WAT     H218221   3.983   7.295   3.863  0.6451  1.8416 -0.6170
 4375WAT    EPW18222   4.001   7.329   3.931  0.5382  0.1402  0.3290
 4376WAT      O18223   3.137   5.747   7.731  0.3459  0.3683  0.1834
 4376WAT     H118224   3.171   5.674   7.765 -0.8230  0.3862  1.5330
 4376WAT     H218225   3.090   5.718   7.663 -1.1242 -0.3572  1.4478
 4376WAT    EPW18226   3.135   5.732   7.726 -0.0439  0.2638  0.5695
 4377WAT      O18227   5.374   2.586   2.982  0.1617 -0.4623  0.0894
 4377WAT     H118228   5.336   2.573   2.905 -1.5554  0.0678  0.8098
 4377WAT     H218229   5.307   2.594   3.037  1.2162  2.2683  1.1526
 4377WAT    EPW18230   5.359   2.585   2.979  0.0638  0.0194  0.3528
 4378WAT      O18231   6.469   6.307   4.835 -0.3951 -0.2798 -0.4178
 4378WAT     H118232   6.547   6.269   4.841  0.3581  1.0129 -1.4308
 4378WAT     H218233   6.489   6.392   4.829 -2.0013  0.4942  2.8766
 4378WAT    EPW18234   6.483   6.314   4.835 -0.5211  0.0255 -0.0808
 4379WAT      O18235   4.428   6.009   2.750  0.3148 -0.0152  0.3740
 4379WAT     H118236   4.416   6.092   2.725  0.4781  0.2155  1.0575
 4379WAT     H218237   4.473   5.975   2.683  0.8828  0.6407  0.4056
 4379WAT    EPW18238   4.433   6.016   2.736  0.4229  0.1157  0.4797
 4380WAT      O18239   5.432   4.147   1.958  0.5824 -0.3015 -0.1193
 4380WAT     H118240   5.492   4.187   1.909 -0.1607 -0.3790 -1.1469
 4380WAT     H218241   5.425   4.198   2.028 -1.0410  2.0407 -1.8108
 4380WAT    EPW18242   5.440   4.160   1.961  0.2328  0.0330 -0.5210
 4381WAT      O18243   2.973   1.706   7.776 -0.0092  0.2126 -0.3245
 4381WAT     H118244   3.034   1.656   7.814  1.3486  1.4264 -0.8262
 4381WAT     H218245   2.962   1.771   7.833  0.1709  0.7083 -0.8467
 4381WAT    EPW18246   2.980   1.708   7.790  0.2180  0.4651 -0.4758
 4382WAT      O18247   4.457   7.603   6.625  0.0107  0.3970  0.0181
 4382WAT     H118248   4.454   7.689   6.611 -0.4033  0.4371  0.3433
 4382WAT     H218249   4.374   7.577   6.612 -0.3669  0.3943  2.0770
 4382WAT    EPW18250   4.444   7.612   6.621 -0.1062  0.4025  0.3703
 4383WAT      O18251   1.751   1.268   4.264 -0.4156 -0.2546  0.2034
 4383WAT     H118252   1.762   1.299   4.344 -1.7855  0.6698  0.0676
 4383WAT     H218253   1.678   1.308   4.236 -0.0060 -0.5972 -1.4692
 4383WAT    EPW18254   1.742   1.279   4.272 -0.5575 -0.1687 -0.0637
 4384WAT      O18255   5.509   7.673   5.882 -0.2415 -0.4349 -0.0266
 4384WAT     H118256   5.445   7.663   5.825 -1.5978 -0.6603  1.4577
 4384WAT     H218257   5.548   7.594   5.884 -1.0877 -0.8571  0.3654
 4384WAT    EPW18258   5.505   7.660   5.874 -0.5669 -0.5306  0.2505
 4385WAT      O18259   5.029   7.379   2.858 -0.4984  0.6110  0.1842
 4385WAT     H118260   5.094   7.437   2.851  0.8122 -0.6703  1.0713
 4385WAT     H218261   5.003   7.368   2.775  0.2961  1.2764 -0.1704
 4385WAT    EPW18262   5.035   7.386   2.845 -0.1875  0.5200  0.2629
 4386WAT      O18263   5.886   6.762   7.036  0.2092  0.1391 -0.3169
 4386WAT     H118264   5.804   6.744   7.014 -0.1180 -0.7369  1.4439
 4386WAT     H218265   5.933   6.729   6.970 -0.8460  1.1404 -1.6178
 4386WAT    EPW18266   5.881   6.754   7.023  0.0050  0.1576 -0.2489
 4387WAT      O18267   5.764   0.163   0.343 -0.1648 -0.0290 -0.4463
 4387WAT     H118268   5.826   0.224   0.343  0.8293 -0.7287  3.6742
 4387WAT     H218269   5.807   0.090   0.364 -2.0222 -1.0521  0.0689
 4387WAT    EPW18270   5.779   0.161   0.346 -0.2923 -0.2835  0.2385
 4388WAT      O18271   6.852   0.594   4.875  0.0824  0.2939  0.4144
 4388WAT     H118272   6.845   0.524   4.927  0.2343 -1.3643 -1.6622
 4388WAT     H218273   6.938   0.604   4.867  0.0727 -0.0213 -0.1720
 4388WAT    EPW18274   6.864   0.585   4.881  0.1034  0.0024  0.0210
 4389WAT      O18275   3.841   6.648   5.478 -0.0903 -0.2988 -0.0906
 4389WAT     H118276   3.824   6.666   5.394  0.1649 -1.6791 -0.4540
 4389WAT     H218277   3.919   6.685   5.491 -0.6243  0.8891 -0.1180
 4389WAT    EPW18278   3.850   6.656   5.467 -0.1315 -0.3273 -0.1484
 4390WAT      O18279   4.376   5.794   4.967 -0.6773 -0.1196  0.3122
 4390WAT     H118280   4.392   5.724   5.016  1.6764  0.8749  1.0866
 4390WAT     H218281   4.378   5.762   4.885  0.3433 -1.0001  0.6553
 4390WAT    EPW18282   4.379   5.779   4.962 -0.1788 -0.1028  0.4773
 4391WAT      O18283   3.351   1.544   5.199 -0.0159 -0.3460 -0.1390
 4391WAT     H118284   3.429   1.514   5.224  0.5187 -0.3012 -1.6607
 4391WAT     H218285   3.339   1.506   5.122 -3.0546 -3.0329  1.4380
 4391WAT    EPW18286   3.361   1.534   5.192 -0.3858 -0.7363 -0.1309
 4392WAT      O18287   4.287   3.446   0.165 -0.6246 -0.1522 -0.2839
 4392WAT     H118288   4.303   3.498   0.233 -1.6245  1.1738 -1.0262
 4392WAT     H218289   4.329   3.485   0.098 -1.8400  0.0256 -0.9634
 4392WAT    EPW18290   4.296   3.459   0.165 -0.9518  0.0699 -0.4940
 4393WAT      O18291   2.806   2.186   0.208 -0.2083  0.0818 -0.0946
 4393WAT     H118292   2.774   2.105   0.217 -2.1484  0.6643 -1.2335
 4393WAT     H218293   2.869   2.177   0.148 -1.0556 -0.4456 -0.9214
 4393WAT    EPW18294   2.811   2.173   0.200 -0.6201  0.0899 -0.3850
 4394WAT      O18295   5.153   5.073   1.806 -0.6414  0.3528 -0.5214
 4394WAT     H118296   5.215   5.112   1.854  0.0088  0.7185 -1.6252
 4394WAT     H218297   5.126   5.137   1.752 -1.2781 -0.0794 -0.7240
 4394WAT    EPW18298   5.158   5.088   1.805 -0.6394  0.3429 -0.7144
 4395WAT      O18299   4.287   7.492   7.025 -0.2975 -0.0773  0.1588
 4395WAT     H118300   4.294   7.423   7.078 -1.3621  1.1624  2.0315
 4395WAT     H218301   4.369   7.522   7.018 -0.3482  1.1675  3.2670
 4395WAT    EPW18302   4.300   7.487   7.032 -0.4623  0.2897  0.8946
 4396WAT      O18303   4.365   5.964   1.648 -0.4633 -0.2305  0.4894
 4396WAT     H118304   4.322   5.907   1.598 -1.6994 -0.5827  1.8961
 4396WAT     H218305   4.308   6.029   1.659 -0.0351  0.0650  1.0173
 4396WAT    EPW18306   4.350   5.965   1.643 -0.5826 -0.2389  0.7752
 4397WAT      O18307   4.380   0.501   4.399 -0.2029  0.4467  0.2552
 4397WAT     H118308   4.304   0.497   4.442  0.9675  1.3650  2.5637
 4397WAT     H218309   4.376   0.576   4.356 -1.5577 -0.6750 -1.7397
 4397WAT    EPW18310   4.368   0.511   4.399 -0.2301  0.4166  0.3015
 4398WAT      O18311   1.887   7.324   2.162  0.2798  0.7077  0.7801
 4398WAT     H118312   1.804   7.305   2.142  0.6353  1.0280 -1.2401
 4398WAT     H218313   1.901   7.399   2.120  2.1963 -0.4183 -0.7460
 4398WAT    EPW18314   1.877   7.332   2.153  0.6154  0.5886  0.2562
 4399WAT      O18315   3.292   5.342   7.203  0.8356 -0.3295  0.5089
 4399WAT     H118316   3.367   5.378   7.230  1.3755 -0.2720 -0.9782
 4399WAT     H218317   3.307   5.256   7.211  0.4246 -0.3022  1.7872
 4399WAT    EPW18318   3.305   5.334   7.208  0.8547 -0.3170  0.4780
 4400WAT      O18319   2.749   6.890   4.499  0.3125  0.1624  0.3937
 4400WAT     H118320   2.776   6.847   4.429 -0.0507 -0.9411  0.9121
 4400WAT     H218321   2.803   6.862   4.562  0.3933  0.8476  0.6381
 4400WAT    EPW18322   2.761   6.880   4.498  0.2708  0.1006  0.5064
 4401WAT      O18323   3.318   1.709   1.213 -0.0498 -0.2534 -0.5822
 4401WAT     H118324   3.380   1.663   1.255  0.9531  1.2100 -0.3976
 4401WAT     H218325   3.342   1.792   1.225 -3.1083  0.5556  1.1926
 4401WAT    EPW18326   3.331   1.714   1.221 -0.3534  0.0823 -0.2927
 4402WAT      O18327   3.664   6.215   6.401  0.1674 -0.2989 -0.4333
 4402WAT     H118328   3.588   6.193   6.364  0.5600 -1.0493 -0.8268
 4402WAT     H218329   3.657   6.184   6.482  0.8064 -2.2159 -1.0490
 4402WAT    EPW18330   3.652   6.207   6.407  0.3198 -0.6929 -0.5824
 4403WAT      O18331   1.824   4.445   1.077 -0.7656  0.4527 -0.0073
 4403WAT     H118332   1.856   4.473   1.153  0.6279 -0.8699 -0.0564
 4403WAT     H218333   1.816   4.359   1.088 -2.5642  0.4868 -0.6780
 4403WAT    EPW18334   1.828   4.436   1.090 -0.8255  0.2624 -0.1136
 4404WAT      O18335   3.613   2.498   0.130 -0.0328  0.2620 -0.7197
 4404WAT     H118336   3.600   2.412   0.117 -1.1525  0.4495 -0.8748
 4404WAT     H218337   3.699   2.507   0.116  0.2171 -0.9382 -0.1130
 4404WAT    EPW18338   3.624   2.486   0.126 -0.1613  0.1124 -0.6530
 4405WAT      O18339   2.489   6.439   7.330  0.1710  0.2527 -0.1216
 4405WAT     H118340   2.551   6.390   7.292  1.0660  0.9343  0.4472
 4405WAT     H218341   2.534   6.494   7.380 -0.9664 -0.3052  1.5773
 4405WAT    EPW18342   2.505   6.440   7.332  0.1352  0.2710  0.2134
 4406WAT      O18343   1.395   6.204   0.672 -0.4649 -0.4630  0.2512
 4406WAT     H118344   1.336   6.186   0.610  0.0557  1.3027 -0.8277
 4406WAT     H218345   1.358   6.269   0.718  0.4935  0.5031 -0.2981
 4406WAT    EPW18346   1.381   6.211   0.670 -0.2464 -0.0595  0.0107
 4407WAT      O18347   3.694   6.577   0.365 -0.0562 -0.0111  0.6588
 4407WAT     H118348   3.642   6.589   0.296 -0.6894  0.8996  1.2763
 4407WAT     H218349   3.667   6.500   0.397  0.0844 -0.3260  0.0432
 4407WAT    EPW18350   3.682   6.567   0.360 -0.1290  0.0769  0.6591
 4408WAT      O18351   5.528   7.202   1.062  0.2495 -0.1917  0.0776
 4408WAT     H118352   5.518   7.132   1.012 -0.6941 -1.4401  1.9046
 4408WAT     H218353   5.606   7.189   1.099 -0.6662 -1.2397  1.7451
 4408WAT    EPW18354   5.538   7.190   1.060 -0.0251 -0.5309  0.5938
 4409WAT      O18355   2.640   1.642   5.637  0.3575  0.0522 -0.1723
 4409WAT     H118356   2.604   1.703   5.586  2.7284  2.8251  1.1669
 4409WAT     H218357   2.609   1.662   5.716 -1.7399 -2.9703 -0.0525
 4409WAT    EPW18358   2.630   1.654   5.641  0.3979  0.0154  0.0432
 4410WAT      O18359   5.111   7.299   6.157  0.7638 -0.2178  0.3462
 4410WAT     H118360   5.159   7.255   6.214  0.9598 -0.1976  0.1962
 4410WAT     H218361   5.047   7.244   6.137 -0.2967  0.3597  1.8728
 4410WAT    EPW18362   5.109   7.285   6.163  0.6361 -0.1295  0.5496
 4411WAT      O18363   5.015   4.465   0.635 -0.6802 -0.0881  0.1909
 4411WAT     H118364   5.001   4.538   0.589 -2.9225  1.3455  2.8610
 4411WAT     H218365   5.052   4.494   0.709 -1.9170 -1.5695  1.4494
 4411WAT    EPW18366   5.018   4.480   0.639 -1.1941 -0.0951  0.7713
 4412WAT      O18367   5.289   6.451   0.536 -0.4270 -0.6231 -0.0227
 4412WAT     H118368   5.355   6.394   0.535 -1.1385 -1.5197  1.5945
 4412WAT     H218369   5.219   6.402   0.553 -1.7583  0.1338 -2.6459
 4412WAT    EPW18370   5.288   6.435   0.538 -0.7288 -0.6437 -0.1713
 4413WAT      O18371   3.722   0.327   6.535 -0.0128  0.5110 -0.1238
 4413WAT     H118372   3.751   0.269   6.477  0.9283 -0.1809  0.9752
 4413WAT     H218373   3.641   0.302   6.552  1.1723 -2.3222  2.3615
 4413WAT    EPW18374   3.715   0.315   6.529  0.3013 -0.0098  0.4057
 4414WAT      O18375   3.255   3.541   5.793 -0.5167  0.5173  0.2411
 4414WAT     H118376   3.198   3.488   5.752 -0.4022 -0.9635  1.8688
 4414WAT     H218377   3.206   3.585   5.850 -0.3483  0.8506  0.1304
 4414WAT    EPW18378   3.239   3.539   5.795 -0.4749  0.3478  0.4652
 4415WAT      O18379   5.250   3.484   7.786 -0.5545 -0.3873 -0.2700
 4415WAT     H118380   5.224   3.439   7.856 -1.5190 -1.4544 -1.2688
 4415WAT     H218381   5.199   3.454   7.722  0.4961  0.3400 -1.5057
 4415WAT    EPW18382   5.239   3.473   7.787 -0.5418 -0.4375 -0.6001
 4416WAT      O18383   4.594   5.075   0.896 -0.0844  0.0846 -0.4163
 4416WAT     H118384   4.669   5.051   0.933  0.4606  0.3883 -1.2809
 4416WAT     H218385   4.551   5.001   0.886 -0.5873  0.0711  1.5020
 4416WAT    EPW18386   4.599   5.061   0.900 -0.0782  0.1275 -0.2607
 4417WAT      O18387   7.229   5.513   7.759 -0.6538 -0.1482  0.4840
 4417WAT     H118388   7.267   5.544   7.686  0.7596 -1.3185  0.6722
 4417WAT     H218389   7.188   5.441   7.731 -0.9443 -0.0582  0.6794
 4417WAT    EPW18390   7.229   5.507   7.744 -0.4879 -0.3078  0.5407
 4418WAT      O18391   3.521   6.713   5.670 -0.7957 -0.1478  0.1308
 4418WAT     H118392   3.557   6.700   5.749  0.2531 -1.4071 -0.5178
 4418WAT     H218393   3.551   6.646   5.623 -2.5528 -0.2283 -0.9601
 4418WAT    EPW18394   3.531   6.701   5.675 -0.9003 -0.3457 -0.1262
 4419WAT      O18395   4.929   6.133   2.093 -0.3075 -0.4394 -0.7345
 4419WAT     H118396   4.867   6.190   2.115  0.3295 -0.9023  3.0251
 4419WAT     H218397   5.000   6.182   2.083 -0.0791 -0.3180  1.0515
 4419WAT    EPW18398   4.931   6.149   2.095 -0.1797 -0.4899  0.0847
 4420WAT      O18399   4.751   4.845   7.173  0.1283 -0.4602 -0.1449
 4420WAT     H118400   4.705   4.910   7.207  0.4389 -0.7005  0.7659
 4420WAT     H218401   4.731   4.848   7.088  0.2826  0.9259 -0.1559
 4420WAT    EPW18402   4.742   4.855   7.166  0.1970 -0.2909 -0.0120
 4421WAT      O18403   1.183   7.032   0.693  0.5469 -0.0405  0.2518
 4421WAT     H118404   1.155   7.073   0.764  2.5982  3.1723 -0.5463
 4421WAT     H218405   1.124   7.053   0.632 -0.2479 -1.2726  0.5753
 4421WAT    EPW18406   1.170   7.041   0.694  0.7325  0.2521  0.1817
 4422WAT      O18407   0.617   1.507   0.024  0.4177 -0.0526  0.5609
 4422WAT     H118408   0.575   1.584   0.024  1.5808  0.6204 -0.4005
 4422WAT     H218409   0.556   1.450   0.001 -0.1432  0.7973 -0.1305
 4422WAT    EPW18410   0.602   1.510   0.021  0.5067  0.1723  0.3167
 4423WAT      O18411   3.872   6.241   1.996  0.0998  0.6791 -0.1838
 4423WAT     H118412   3.806   6.251   2.052 -1.0617 -0.9895 -1.1571
 4423WAT     H218413   3.845   6.176   1.944  2.2701  0.3551 -1.0069
 4423WAT    EPW18414   3.858   6.233   1.996  0.2488  0.3847 -0.4492
 4424WAT      O18415   5.609   1.389   1.757 -0.2784 -0.3127 -0.7393
 4424WAT     H118416   5.679   1.375   1.806 -0.2619 -1.0483 -0.9682
 4424WAT     H218417   5.641   1.422   1.683 -0.0551 -1.7771 -1.3161
 4424WAT    EPW18418   5.624   1.392   1.753 -0.2429 -0.6377 -0.8583
 4425WAT      O18419   4.776   2.559   7.090  0.6662 -0.3363 -0.1374
 4425WAT     H118420   4.783   2.474   7.070 -1.1847 -0.2755 -1.3029
 4425WAT     H218421   4.850   2.576   7.132  2.1175 -1.9879 -1.8300
 4425WAT    EPW18422   4.788   2.549   7.093  0.6072 -0.5713 -0.5596
 4426WAT      O18423   5.344   4.540   6.151  0.2886  0.6084  0.1163
 4426WAT     H118424   5.280   4.539   6.093  0.4567 -1.5159 -0.0771
 4426WAT     H218425   5.408   4.584   6.110  0.4161 -0.8681 -1.3367
 4426WAT    EPW18426   5.344   4.547   6.137  0.3323  0.0765 -0.1269
 4427WAT      O18427   3.654   6.517   7.115  1.0836  0.0368 -0.6068
 4427WAT     H118428   3.700   6.452   7.153  1.6156  0.3425 -0.7120
 4427WAT     H218429   3.709   6.546   7.053  2.3747  2.9081  1.6630
 4427WAT    EPW18430   3.669   6.512   7.112  1.3529  0.5061 -0.2870
 4428WAT      O18431   3.667   0.899   6.787 -0.1244 -0.3472  0.4748
 4428WAT     H118432   3.632   0.958   6.840  0.4694 -0.0850  0.5780
 4428WAT     H218433   3.636   0.922   6.708 -0.2854 -0.1990  0.5800
 4428WAT    EPW18434   3.657   0.911   6.783 -0.0605 -0.2866  0.5056
 4429WAT      O18435   4.947   0.479   5.768  0.1617  0.5398 -0.0837
 4429WAT     H118436   5.023   0.471   5.810 -0.5315 -1.1615  0.9569
 4429WAT     H218437   4.967   0.452   5.687  0.4960 -0.9025  0.4366
 4429WAT    EPW18438   4.962   0.474   5.762  0.1087  0.0754  0.1469
 4430WAT      O18439   5.055   2.625   0.712 -0.1743 -0.3310 -0.0759
 4430WAT     H118440   5.118   2.589   0.664 -0.4508 -0.5909 -0.2457
 4430WAT     H218441   5.037   2.699   0.670  1.8273  1.0849  1.3720
 4430WAT    EPW18442   5.062   2.631   0.699  0.0805 -0.1602  0.1129
 4431WAT      O18443   5.269   4.893   2.171 -0.3781 -0.2333  0.0315
 4431WAT     H118444   5.324   4.959   2.188 -1.9781  1.3164 -0.5813
 4431WAT     H218445   5.284   4.875   2.087  0.2261 -0.8689  0.2580
 4431WAT    EPW18446   5.280   4.900   2.162 -0.5252 -0.0983 -0.0256
 4432WAT      O18447   6.041   4.824   0.916  0.2538 -0.2692  1.0683
 4432WAT     H118448   5.983   4.768   0.950 -0.7669 -0.9084 -1.4498
 4432WAT     H218449   5.996   4.898   0.910 -0.2292 -0.6581 -0.5173
 4432WAT    EPW18450   6.026   4.826   0.920  0.0317 -0.4211  0.4621
 4433WAT      O18451   6.154   0.754   6.980 -0.4966 -0.6542  0.1962
 4433WAT     H118452   6.234   0.742   7.012 -0.3526 -0.8050 -0.2056
 4433WAT     H218453   6.112   0.681   6.999 -1.0158  0.0174  1.7549
 4433WAT    EPW18454   6.159   0.742   6.987 -0.5520 -0.5772  0.3671
 4434WAT      O18455   5.275   6.598   0.744 -0.0620 -0.0811 -0.2649
 4434WAT     H118456   5.271   6.536   0.683  0.0822 -0.3689  0.0125
 4434WAT     H218457   5.233   6.666   0.708  1.0906  0.1833 -1.1736
 4434WAT    EPW18458   5.268   6.599   0.730  0.1295 -0.0846 -0.3582
 4435WAT      O18459   4.593   6.214   7.198  0.5721  0.2440 -0.4380
 4435WAT     H118460   4.561   6.133   7.197  1.2880 -0.0519 -1.3222
 4435WAT     H218461   4.627   6.222   7.278 -1.4545  0.5077  0.4637
 4435WAT    EPW18462   4.594   6.204   7.210  0.3785  0.2392 -0.4354
 4436WAT      O18463   6.914   5.075   7.312  0.7793 -0.2550 -1.1697
 4436WAT     H118464   6.996   5.047   7.301  1.5514  0.9843  0.9016
 4436WAT     H218465   6.917   5.119   7.387 -1.7418  0.0748 -1.1732
 4436WAT    EPW18466   6.927   5.077   7.321  0.5209 -0.0232 -0.8643
 4437WAT      O18467   3.912   5.422   3.487 -0.0807  0.0134  0.0144
 4437WAT     H118468   3.915   5.365   3.554  1.0341 -0.3266 -0.3034
 4437WAT     H218469   3.989   5.411   3.447 -1.6883 -1.7806 -2.9705
 4437WAT    EPW18470   3.924   5.412   3.491 -0.1535 -0.3018 -0.4735
 4438WAT      O18471   1.967   5.351   0.336  0.7407 -0.0978 -0.1193
 4438WAT     H118472   1.897   5.325   0.381  1.1577 -0.1474  0.5105
 4438WAT     H218473   1.939   5.425   0.297  0.1076 -0.5228 -0.5018
 4438WAT    EPW18474   1.952   5.358   0.337  0.7088 -0.1679 -0.0828
 4439WAT      O18475   5.430   7.306   2.555  0.0251  0.0149 -0.7198
 4439WAT     H118476   5.362   7.263   2.520 -0.2874 -0.8673  0.8559
 4439WAT     H218477   5.492   7.245   2.561  0.2984  0.3165 -0.3915
 4439WAT    EPW18478   5.429   7.291   2.551  0.0193 -0.0709 -0.4386
 4440WAT      O18479   1.200   7.270   3.590 -0.1497 -0.4730 -0.0187
 4440WAT     H118480   1.206   7.184   3.597 -0.8567 -0.6218 -1.0488
 4440WAT     H218481   1.154   7.282   3.517  0.2235  0.7814 -0.0768
 4440WAT    EPW18482   1.194   7.259   3.580 -0.1990 -0.3097 -0.1794
 4441WAT      O18483   5.605   6.112   0.041  0.0452  0.4353  0.2367
 4441WAT     H118484   5.657   6.043   0.058 -0.5731 -0.2500 -0.5480
 4441WAT     H218485   5.619   6.165   0.109  0.8902 -0.2529  0.6288
 4441WAT    EPW18486   5.615   6.109   0.054  0.0787  0.2324  0.1787
 4442WAT      O18487   5.327   2.332   3.331 -0.2632 -0.1867 -0.4598
 4442WAT     H118488   5.249   2.299   3.311  0.1937 -1.0672 -0.8181
 4442WAT     H218489   5.370   2.331   3.255  0.2576 -0.1583 -0.1666
 4442WAT    EPW18490   5.322   2.327   3.317 -0.1187 -0.3126 -0.4694
 4443WAT      O18491   1.937   4.163   2.980  0.7054  0.4497 -0.7824
 4443WAT     H118492   2.019   4.144   2.957  0.5846  0.9542 -1.6920
 4443WAT     H218493   1.894   4.088   2.971  1.2737 -0.0854  0.7530
 4443WAT    EPW18494   1.943   4.149   2.975  0.7715  0.4451 -0.6899
 4444WAT      O18495   3.593   2.364   3.038  0.2324 -0.3879 -0.1757
 4444WAT     H118496   3.543   2.297   3.062  0.9053 -0.2431  1.8045
 4444WAT     H218497   3.543   2.408   2.982 -0.8804 -1.5706 -0.1591
 4444WAT    EPW18498   3.579   2.361   3.033  0.1674 -0.5412  0.1193
 4445WAT      O18499   6.240   4.603   3.882 -0.2554 -0.1303  0.3961
 4445WAT     H118500   6.314   4.572   3.849 -1.4819 -0.7146 -2.0834
 4445WAT     H218501   6.260   4.684   3.907  1.4578 -0.6831  0.9796
 4445WAT    EPW18502   6.254   4.610   3.881 -0.1835 -0.2983  0.1160
 4446WAT      O18503   0.380   1.344   7.085 -0.1025  0.0762 -0.3626
 4446WAT     H118504   0.407   1.421   7.054  0.1106  0.1365 -0.0231
 4446WAT     H218505   0.396   1.289   7.019 -1.0359  0.4614 -0.9350
 4446WAT    EPW18506   0.386   1.347   7.071 -0.2089  0.1420 -0.3970
 4447WAT      O18507   5.901   2.460   2.152  0.1189 -0.2475 -0.1707
 4447WAT     H118508   5.975   2.470   2.197 -0.8480 -0.0027  1.4277
 4447WAT     H218509   5.846   2.425   2.210 -1.0044 -0.4751 -1.3366
 4447WAT    EPW18510   5.904   2.457   2.167 -0.1899 -0.2450 -0.1068
 4448WAT      O18511   4.531   2.467   4.947 -0.7546  0.2067  0.1718
 4448WAT     H118512   4.509   2.383   4.951 -1.5273  0.4364  0.9026
 4448WAT     H218513   4.476   2.500   4.888 -0.6737  0.2709  0.1317
 4448WAT    EPW18514   4.520   2.459   4.939 -0.8568  0.2501  0.2738
 4449WAT      O18515   4.434   0.340   1.576  0.0592 -0.1867  0.4209
 4449WAT     H118516   4.359   0.306   1.604 -0.4890  0.4366 -0.2325
 4449WAT     H218517   4.409   0.400   1.518  1.0418  0.5044  0.6816
 4449WAT    EPW18518   4.419   0.344   1.571  0.1234  0.0075  0.3629
 4450WAT      O18519   2.599   6.439   5.486 -0.0534 -0.1620 -0.3651
 4450WAT     H118520   2.570   6.436   5.404  0.3121 -0.4253 -0.4878
 4450WAT     H218521   2.652   6.370   5.492  0.3785  0.1835 -0.0861
 4450WAT    EPW18522   2.603   6.429   5.475  0.0644 -0.1498 -0.3420
 4451WAT      O18523   3.003   5.525   5.254 -0.2907  0.1293 -0.0956
 4451WAT     H118524   2.945   5.544   5.317  0.2544 -1.5987  0.9792
 4451WAT     H218525   3.056   5.467   5.291  0.3859 -0.5403 -1.9892
 4451WAT    EPW18526   3.002   5.519   5.268 -0.1103 -0.2249 -0.2165
 4452WAT      O18527   5.084   0.724   2.705  0.6150 -0.3542 -0.0041
 4452WAT     H118528   5.015   0.711   2.758  1.6155  0.4618  1.5654
 4452WAT     H218529   5.150   0.737   2.760  1.6365  1.0061 -1.4573
 4452WAT    EPW18530   5.083   0.724   2.721  0.9137 -0.0327  0.0131
 4453WAT      O18531   6.090   5.453   2.744  0.0718 -0.1057  0.3253
 4453WAT     H118532   6.032   5.428   2.684  1.7645 -2.4776 -0.4585
 4453WAT     H218533   6.105   5.536   2.723 -0.3989 -0.4684 -1.6954
 4453WAT    EPW18534   6.083   5.462   2.732  0.2523 -0.5097 -0.0890
 4454WAT      O18535   0.717   5.254   5.469 -0.2452  0.1709  0.0886
 4454WAT     H118536   0.777   5.289   5.416  0.1681  1.1307  1.1645
 4454WAT     H218537   0.728   5.296   5.544 -0.6117 -1.3699  1.0651
 4454WAT    EPW18538   0.727   5.265   5.472 -0.2383  0.0851  0.3918
 4455WAT      O18539   7.125   7.247   7.216 -0.8899 -0.4251 -0.2373
 4455WAT     H118540   7.148   7.211   7.140  0.1089  0.7250 -0.5130
 4455WAT     H218541   7.056   7.199   7.242 -0.3680 -1.7166 -1.1557
 4455WAT    EPW18542   7.118   7.235   7.209 -0.6653 -0.4460 -0.4137
 4456WAT      O18543   7.138   5.925   4.546  0.4923  0.3579 -0.2781
 4456WAT     H118544   7.057   5.896   4.531  0.7175 -0.0629 -0.6969
 4456WAT     H218545   7.132   5.961   4.626  0.1547 -0.6264  0.1491
 4456WAT    EPW18546   7.125   5.926   4.555  0.4757  0.1503 -0.2768
 4457WAT      O18547   1.405   0.699   6.948 -0.5288  0.3303  0.6616
 4457WAT     H118548   1.368   0.620   6.958  1.6487 -0.9936 -0.9315
 4457WAT     H218549   1.337   0.751   6.929 -1.8869 -1.4117  0.4977
 4457WAT    EPW18550   1.390   0.695   6.947 -0.4078 -0.1226  0.4021
 4458WAT      O18551   3.327   6.714   6.255  0.0147  0.6554 -0.4570
 4458WAT     H118552   3.350   6.686   6.334 -0.0677  2.3546  0.2273
 4458WAT     H218553   3.358   6.796   6.252  0.0993  0.6150 -2.2311
 4458WAT    EPW18554   3.335   6.722   6.266  0.0150  0.9004 -0.6180
 4459WAT      O18555   1.813   2.903   5.816 -0.5930 -0.1784 -0.3402
 4459WAT     H118556   1.729   2.884   5.801 -0.1691 -1.4366 -1.3979
 4459WAT     H218557   1.812   2.987   5.838 -2.2489 -0.4771  0.9076
 4459WAT    EPW18558   1.800   2.913   5.817 -0.7750 -0.4084 -0.3121
 4460WAT      O18559   4.119   3.263   7.642  0.1851  0.4048  0.1070
 4460WAT     H118560   4.049   3.213   7.659 -0.6982  1.7122  0.4194
 4460WAT     H218561   4.185   3.219   7.678 -0.3551 -1.1477 -0.6789
 4460WAT    EPW18562   4.118   3.249   7.650 -0.0252  0.3686  0.0370
 4461WAT      O18563   5.688   7.091   6.342 -0.1169  0.5769  0.0566
 4461WAT     H118564   5.655   7.081   6.421 -0.8474 -0.5261 -0.3557
 4461WAT     H218565   5.623   7.066   6.289  0.0607  2.0855 -0.9370
 4461WAT    EPW18566   5.674   7.086   6.346 -0.1986  0.6368 -0.1511
 4462WAT      O18567   4.097   4.263   7.783 -0.2027 -0.3406 -0.0037
 4462WAT     H118568   4.065   4.344   7.790 -1.2731 -0.8518  1.2968
 4462WAT     H218569   4.050   4.229   7.718 -0.7000 -0.3489  0.3574
 4462WAT    EPW18570   4.085   4.270   7.774 -0.4342 -0.4173  0.2417
 4463WAT      O18571   5.535   1.468   6.011 -0.5941 -0.2487  0.0762
 4463WAT     H118572   5.587   1.399   6.001 -0.4264 -0.0813 -0.2200
 4463WAT     H218573   5.458   1.440   5.980 -0.2389  0.0585 -1.1535
 4463WAT    EPW18574   5.531   1.454   6.005 -0.5169 -0.1786 -0.1492
 4464WAT      O18575   7.447   2.119   6.609 -0.1341 -0.0011 -0.1825
 4464WAT     H118576   7.406   2.042   6.610  1.1856 -0.7316 -0.2331
 4464WAT     H218577   7.482   2.123   6.529  0.8751  0.0445  0.2439
 4464WAT    EPW18578   7.446   2.108   6.598  0.2100 -0.1023 -0.1270
 4465WAT      O18579   1.960   6.981   2.410 -0.1395  0.0056  0.0343
 4465WAT     H118580   2.014   6.935   2.460  1.4565  0.5796 -1.0925
 4465WAT     H218581   1.995   7.060   2.408 -1.3201  0.5495 -0.3016
 4465WAT    EPW18582   1.973   6.986   2.417 -0.0782  0.1707 -0.1818
 4466WAT      O18583   5.179   4.098   1.841  0.0641 -0.5413 -0.1654
 4466WAT     H118584   5.235   4.122   1.904 -0.7272 -1.3995  0.9019
 4466WAT     H218585   5.126   4.167   1.833  0.7215 -0.0731 -0.5522
 4466WAT    EPW18586   5.179   4.112   1.849  0.0443 -0.5989 -0.0649
 4467WAT      O18587   6.096   5.718   2.671  0.3571 -0.9406  0.3401
 4467WAT     H118588   6.117   5.792   2.712 -1.5146 -0.7250  0.9975
 4467WAT     H218589   6.082   5.743   2.589  0.2469 -0.6590  0.4443
 4467WAT    EPW18590   6.097   5.732   2.665  0.0643 -0.8671  0.4526
 4468WAT      O18591   1.696   4.786   3.327  0.2517  0.1275  0.5141
 4468WAT     H118592   1.719   4.870   3.321 -0.1642  0.2734  0.9002
 4468WAT     H218593   1.754   4.753   3.383  0.2969  0.2006  0.5105
 4468WAT    EPW18594   1.708   4.793   3.335  0.1969  0.1598  0.5706
 4469WAT      O18595   7.323   0.635   7.519 -0.7546  0.4017  0.7097
 4469WAT     H118596   7.275   0.627   7.446  0.3896  0.2984 -0.0611
 4469WAT     H218597   7.289   0.575   7.572 -0.3789 -0.8880 -0.4457
 4469WAT    EPW18598   7.311   0.625   7.516 -0.5301  0.1959  0.4252
 4470WAT      O18599   4.663   4.460   4.788  0.5250 -0.3541 -0.3060
 4470WAT     H118600   4.607   4.491   4.729  2.0700  0.6144 -1.3408
 4470WAT     H218601   4.619   4.395   4.826 -0.8520 -0.4189 -1.9035
 4470WAT    EPW18602   4.649   4.455   4.785  0.5499 -0.2206 -0.6949
 4471WAT      O18603   1.357   4.004   5.739  0.3391 -0.2771 -0.1193
 4471WAT     H118604   1.271   3.987   5.739  0.2251  0.2499  0.5610
 4471WAT     H218605   1.393   3.926   5.755 -0.0960 -0.2232  1.3024
 4471WAT    EPW18606   1.349   3.990   5.742  0.2580 -0.1913  0.1912
 4472WAT      O18607   3.314   0.145   2.212  0.2390  0.2555 -0.2882
 4472WAT     H118608   3.276   0.100   2.148  0.4696 -1.2745  0.6098
 4472WAT     H218609   3.385   0.099   2.231 -0.8032 -0.4713  2.3622
 4472WAT    EPW18610   3.319   0.132   2.205  0.1191 -0.0779  0.2360
 4473WAT      O18611   0.314   4.478   7.080 -0.0658  0.1640 -0.2545
 4473WAT     H118612   0.324   4.393   7.065  2.7608  0.1136  1.1317
 4473WAT     H218613   0.393   4.511   7.060 -0.5142  2.1363  1.0000
 4473WAT    EPW18614   0.327   4.470   7.075  0.2855  0.4479  0.1356
 4474WAT      O18615   7.277   1.755   6.932  0.3188  0.1295 -0.2120
 4474WAT     H118616   7.253   1.737   7.014  2.0381  1.9954  0.7914
 4474WAT     H218617   7.204   1.785   6.895 -0.0419  1.2074  1.2890
 4474WAT    EPW18618   7.263   1.757   6.939  0.5195  0.5643  0.1580
 4475WAT      O18619   4.796   5.884   6.468 -0.4790  0.0008 -0.1690
 4475WAT     H118620   4.811   5.842   6.542 -0.7667  0.1235 -0.0400
 4475WAT     H218621   4.722   5.928   6.483  0.6045  1.7692  0.2281
 4475WAT    EPW18622   4.787   5.884   6.481 -0.3614  0.2802 -0.0913
 4476WAT      O18623   4.743   1.469   7.702 -0.4704 -1.1725  0.0833
 4476WAT     H118624   4.739   1.543   7.749 -0.5732 -1.3373  0.3378
 4476WAT     H218625   4.760   1.497   7.621  0.0831 -0.9070  0.2835
 4476WAT    EPW18626   4.745   1.484   7.697 -0.4038 -1.1576  0.1505
 4477WAT      O18627   5.663   4.564   4.108  0.0650  0.0496 -0.1763
 4477WAT     H118628   5.731   4.511   4.093  1.1010  0.6110  2.1107
 4477WAT     H218629   5.691   4.617   4.171 -1.8481  1.6345 -0.5367
 4477WAT    EPW18630   5.677   4.564   4.115 -0.0646  0.3666  0.1083
 4478WAT      O18631   5.004   4.260   4.117  0.4022  0.4427 -0.0216
 4478WAT     H118632   4.973   4.330   4.074  1.2618  0.2798 -0.9176
 4478WAT     H218633   5.049   4.296   4.183 -0.2970  0.7053  0.3236
 4478WAT    EPW18634   5.006   4.276   4.120  0.4259  0.4574 -0.1030
 4479WAT      O18635   2.282   4.087   6.261 -0.1678  0.3895 -0.1565
 4479WAT     H118636   2.255   4.007   6.241  0.4515  0.1475 -0.0355
 4479WAT     H218637   2.302   4.122   6.184  0.6551  0.0247 -0.1163
 4479WAT    EPW18638   2.281   4.080   6.247  0.0452  0.2999 -0.1327
 4480WAT      O18639   5.517   6.689   1.921 -0.2153 -0.9806 -0.6815
 4480WAT     H118640   5.495   6.700   1.838 -0.2170 -0.7946 -0.6566
 4480WAT     H218641   5.486   6.610   1.940 -2.3669 -0.1078 -0.1811
 4480WAT    EPW18642   5.509   6.679   1.912 -0.5334 -0.8242 -0.6039
 4481WAT      O18643   4.690   5.952   2.051  0.5274  0.0153 -0.4658
 4481WAT     H118644   4.638   5.954   1.981 -0.0546  2.1054 -0.0399
 4481WAT     H218645   4.763   5.989   2.023  0.8008 -0.4192 -0.3300
 4481WAT    EPW18646   4.693   5.957   2.036  0.4818  0.2599 -0.3828
 4482WAT      O18647   1.857   4.165   1.111 -0.2217  0.3771 -0.0102
 4482WAT     H118648   1.902   4.106   1.157 -0.3967 -0.0528 -0.3796
 4482WAT     H218649   1.773   4.141   1.123 -0.3156  0.7703  0.1340
 4482WAT    EPW18650   1.851   4.153   1.120 -0.2614  0.3717 -0.0435
 4483WAT      O18651   0.364   5.473   3.754  0.0089 -0.8375 -0.9161
 4483WAT     H118652   0.364   5.533   3.691  0.2640  0.7167  0.4692
 4483WAT     H218653   0.419   5.412   3.726  1.4093  0.6263 -1.4926
 4483WAT    EPW18654   0.372   5.473   3.741  0.2535 -0.3916 -0.7966
 4484WAT      O18655   5.312   4.282   5.923  0.5184  0.2527 -0.1808
 4484WAT     H118656   5.359   4.230   5.975  0.7415  0.9922  0.3776
 4484WAT     H218657   5.255   4.319   5.978 -0.1521  0.0100 -0.7037
 4484WAT    EPW18658   5.310   4.280   5.939  0.4523  0.3261 -0.1755
 4485WAT      O18659   6.001   6.155   2.292  0.0535 -0.0326 -0.5752
 4485WAT     H118660   5.958   6.084   2.262 -1.0273  1.0215 -1.6388
 4485WAT     H218661   6.031   6.192   2.219 -2.0663  2.2446 -0.4188
 4485WAT    EPW18662   5.999   6.150   2.277 -0.4193  0.4595 -0.7092
 4486WAT      O18663   6.271   4.968   6.931 -0.4013 -0.4076  0.2402
 4486WAT     H118664   6.306   4.888   6.923 -2.0900 -1.1756  0.1209
 4486WAT     H218665   6.243   4.986   6.850  0.7532  0.7204  0.0624
 4486WAT    EPW18666   6.272   4.958   6.918 -0.4802 -0.3544  0.1963
 4487WAT      O18667   3.177   1.862   0.418 -0.2143 -0.2242  0.5725
 4487WAT     H118668   3.256   1.900   0.418  0.1152 -0.7780 -1.5213
 4487WAT     H218669   3.195   1.778   0.406 -1.1347 -0.2322 -0.9501
 4487WAT    EPW18670   3.192   1.855   0.416 -0.3016 -0.3072  0.0383
 4488WAT      O18671   1.130   1.779   3.640 -0.0496 -0.8400  0.1775
 4488WAT     H118672   1.209   1.773   3.677  0.7646  0.5068 -1.2114
 4488WAT     H218673   1.103   1.859   3.662 -0.5799 -0.9138 -0.1881
 4488WAT    EPW18674   1.137   1.790   3.649 -0.0077 -0.6520 -0.0817
 4489WAT      O18675   2.703   6.765   1.678 -0.2441 -0.4426 -0.5044
 4489WAT     H118676   2.625   6.726   1.685 -0.4803 -0.3235 -1.9833
 4489WAT     H218677   2.736   6.730   1.605 -0.3546  1.8562 -1.7693
 4489WAT    EPW18678   2.696   6.754   1.668 -0.2953 -0.0854 -0.9097
 4490WAT      O18679   4.219   5.654   1.881 -0.0815  0.0826  0.1608
 4490WAT     H118680   4.306   5.658   1.877 -0.0630  0.4929  0.8220
 4490WAT     H218681   4.194   5.735   1.863 -0.3561 -0.1660 -0.5999
 4490WAT    EPW18682   4.228   5.666   1.878 -0.1194  0.1065  0.1461
 4491WAT      O18683   2.104   1.226   0.984  0.0745 -0.3773 -0.4596
 4491WAT     H118684   2.025   1.190   0.978 -0.2934  0.5403 -1.4790
 4491WAT     H218685   2.151   1.180   0.926  0.1932 -0.6480 -0.1547
 4491WAT    EPW18686   2.099   1.214   0.975  0.0377 -0.2817 -0.5651
 4492WAT      O18687   2.021   1.772   3.214 -0.2532 -0.7209  0.0626
 4492WAT     H118688   2.104   1.763   3.186 -0.5493 -1.2970 -0.6797
 4492WAT     H218689   2.022   1.848   3.258  0.6553 -0.6951  0.0181
 4492WAT    EPW18690   2.034   1.782   3.216 -0.1627 -0.8022 -0.0536
 4493WAT      O18691   4.214   1.364   0.968 -0.2595  0.5658 -0.2507
 4493WAT     H118692   4.266   1.402   1.027  0.2662  1.4564 -1.2772
 4493WAT     H218693   4.267   1.345   0.902 -0.5801 -1.6665  0.0602
 4493WAT    EPW18694   4.229   1.367   0.967 -0.2292  0.3676 -0.3564
 4494WAT      O18695   5.130   3.960   7.407  0.3759  0.0616  0.2640
 4494WAT     H118696   5.118   3.927   7.327 -1.0821 -1.4171  1.0307
 4494WAT     H218697   5.084   4.034   7.405  2.3613  1.3731 -0.9719
 4494WAT    EPW18698   5.122   3.966   7.395  0.4538  0.0369  0.1947
 4495WAT      O18699   2.982   0.112   7.597  0.3085 -0.2583 -0.3412
 4495WAT     H118700   2.902   0.078   7.596 -0.3718  1.2350 -0.2760
 4495WAT     H218701   2.983   0.160   7.670  0.0397  2.3533 -1.8930
 4495WAT    EPW18702   2.971   0.114   7.608  0.1683  0.3480 -0.5608
 4496WAT      O18703   3.427   6.404   0.786 -0.1673  0.1318 -0.7480
 4496WAT     H118704   3.421   6.481   0.827  0.8696  0.0966 -0.4914
 4496WAT     H218705   3.345   6.386   0.764 -0.2400  2.4726 -2.9520
 4496WAT    EPW18706   3.414   6.413   0.789 -0.0249  0.4724 -1.0356
 4497WAT      O18707   7.288   5.357   4.534 -0.1673 -0.2957  0.5592
 4497WAT     H118708   7.239   5.389   4.599  0.1460 -0.4571  0.8787
 4497WAT     H218709   7.368   5.385   4.554 -0.0511 -0.4554  0.3115
 4497WAT    EPW18710   7.293   5.366   4.547 -0.1039 -0.3432  0.5698
 4498WAT      O18711   5.114   5.801   1.237 -0.5784  0.2255 -0.5559
 4498WAT     H118712   5.122   5.787   1.322  0.6272  0.0431 -0.6821
 4498WAT     H218713   5.074   5.730   1.208 -0.7255  0.1564 -0.1857
 4498WAT    EPW18714   5.109   5.788   1.245 -0.4221  0.1883 -0.5198
 4499WAT      O18715   4.766   5.758   6.953 -0.2596 -0.2642  0.1246
 4499WAT     H118716   4.800   5.738   6.875 -1.1105 -0.7475 -0.1331
 4499WAT     H218717   4.820   5.820   6.983  0.1325 -0.1290 -0.8090
 4499WAT    EPW18718   4.779   5.764   6.946 -0.3274 -0.3156 -0.0514
 4500WAT      O18719   5.460   5.727   7.668 -0.2159  0.0631 -0.6650
 4500WAT     H118720   5.448   5.695   7.588  0.3846 -1.0664 -0.3208
 4500WAT     H218721   5.537   5.767   7.663  0.3781 -1.0007 -0.3754
 4500WAT    EPW18722   5.469   5.728   7.656 -0.0394 -0.2609 -0.5714
 4501WAT      O18723   4.716   6.599   5.690 -0.3894  0.4493 -0.3019
 4501WAT     H118724   4.731   6.679   5.721  0.3570 -0.1018  0.7982
 4501WAT     H218725   4.641   6.577   5.730  0.8158 -0.4501  1.6121
 4501WAT    EPW18726   4.707   6.608   5.701 -0.1011  0.2350  0.1433
 4502WAT      O18727   3.562   5.381   0.200 -0.0206  0.0811 -0.7300
 4502WAT     H118728   3.538   5.456   0.238  1.1106 -0.5463  1.4029
 4502WAT     H218729   3.513   5.321   0.239  0.9024 -0.5538 -0.5111
 4502WAT    EPW18730   3.551   5.383   0.211  0.2829 -0.1054 -0.3826
 4503WAT      O18731   6.362   7.629   1.451  0.9052  0.3841 -1.2573
 4503WAT     H118732   6.337   7.546   1.457 -1.3101  0.9853 -1.3894
 4503WAT     H218733   6.371   7.654   1.534  0.1269  0.3938 -1.1690
 4503WAT    EPW18734   6.360   7.621   1.464  0.4630  0.4744 -1.2637
 4504WAT      O18735   5.307   5.630   0.244  0.2194  0.0889 -0.1856
 4504WAT     H118736   5.226   5.608   0.268 -0.7954  2.9042 -0.6167
 4504WAT     H218737   5.358   5.589   0.302 -1.4245 -2.3230 -0.3337
 4504WAT    EPW18738   5.303   5.621   0.256 -0.1733  0.1485 -0.2712
 4505WAT      O18739   3.263   5.213   0.405 -0.3429  0.0017  0.0130
 4505WAT     H118740   3.319   5.179   0.347 -1.9384 -0.6138 -1.2630
 4505WAT     H218741   3.314   5.251   0.464  1.3722  0.4449 -1.6823
 4505WAT    EPW18742   3.279   5.213   0.405 -0.3252 -0.0237 -0.4259
 4506WAT      O18743   2.244   0.537   6.453 -0.3726  0.0396  0.3919
 4506WAT     H118744   2.193   0.466   6.446 -1.1625  0.7705 -2.9687
 4506WAT     H218745   2.188   0.603   6.441  0.7734  1.1085  0.7453
 4506WAT    EPW18746   2.228   0.536   6.450 -0.3200  0.3054 -0.0524
 4507WAT      O18747   3.277   3.592   0.062 -0.4563  0.0009  0.4075
 4507WAT     H118748   3.333   3.657   0.078 -1.7133  1.1577  0.2843
 4507WAT     H218749   3.224   3.594   0.131 -1.0545 -0.2851 -0.0365
 4507WAT    EPW18750   3.277   3.602   0.074 -0.7303  0.1296  0.3237
 4508WAT      O18751   2.402   0.183   1.023 -0.1174  0.3222  1.0449
 4508WAT     H118752   2.359   0.134   0.964  0.2066  0.3051  0.8231
 4508WAT     H218753   2.396   0.264   0.989 -0.1853  0.3576  1.1403
 4508WAT    EPW18754   2.395   0.188   1.009 -0.0796  0.3249  1.0263
 4509WAT      O18755   0.174   2.797   5.389  0.2123  0.7815 -0.7519
 4509WAT     H118756   0.201   2.716   5.409 -1.5018 -0.1765 -2.0782
 4509WAT     H218757   0.153   2.831   5.466 -0.4709 -0.6079 -0.2881
 4509WAT    EPW18758   0.175   2.790   5.403 -0.1419  0.4347 -0.8793
 4510WAT      O18759   0.801   3.735   7.268 -0.2802  0.1853 -0.2571
 4510WAT     H118760   0.801   3.721   7.182 -1.3941  1.5917 -0.5076
 4510WAT     H218761   0.853   3.672   7.299 -1.0225 -1.2450 -1.8006
 4510WAT    EPW18762   0.809   3.724   7.260 -0.5544  0.1818 -0.5221
 4511WAT      O18763   7.734   4.952   7.129 -0.6755  0.3984 -0.0028
 4511WAT     H118764   7.704   5.034   7.130 -0.0833  0.6370 -0.5977
 4511WAT     H218765   7.665   4.905   7.105 -1.2926  0.5961  1.3266
 4511WAT    EPW18766   7.720   4.957   7.125 -0.6791  0.4628  0.1057
 4512WAT      O18767   4.127   1.809   4.487  0.9813  0.4987  0.0643
 4512WAT     H118768   4.137   1.779   4.568 -0.7502  1.9494  0.8555
 4512WAT     H218769   4.192   1.867   4.478 -0.7921  2.9011  1.7361
 4512WAT    EPW18770   4.138   1.813   4.498  0.4635  1.0679  0.4281
 4513WAT      O18771   3.119   4.000   1.727  0.1688  0.4715  0.5876
 4513WAT     H118772   3.130   3.983   1.642 -1.2270 -0.3099  0.5372
 4513WAT     H218773   3.079   3.928   1.757 -1.5258  1.6812  1.3982
 4513WAT    EPW18774   3.115   3.987   1.719 -0.2877  0.5347  0.6999
 4514WAT      O18775   3.276   4.929   0.635  0.4173  0.0090 -0.0770
 4514WAT     H118776   3.261   4.961   0.715 -0.9595 -0.6736 -0.0332
 4514WAT     H218777   3.201   4.888   0.615  1.3991 -1.4219 -0.9588
 4514WAT    EPW18778   3.262   4.928   0.644  0.3590 -0.3032 -0.2008
 4515WAT      O18779   4.070   5.915   1.853  0.5540  0.3200  0.1660
 4515WAT     H118780   4.012   5.909   1.788 -0.3778  0.5741  0.9504
 4515WAT     H218781   4.124   5.979   1.828  0.5340  0.0419 -0.5953
 4515WAT    EPW18782   4.070   5.923   1.840  0.4134  0.3164  0.1694
 4516WAT      O18783   4.765   3.871   3.103  0.1396  0.9110  0.1521
 4516WAT     H118784   4.776   3.790   3.134  0.0534 -0.1116 -2.2671
 4516WAT     H218785   4.687   3.894   3.135  0.0061 -0.1165  0.6072
 4516WAT    EPW18786   4.755   3.863   3.112  0.1072  0.6082 -0.1381
 4517WAT      O18787   3.967   1.198   3.930 -0.5406  0.6640  0.4269
 4517WAT     H118788   4.027   1.231   3.877  0.2571 -0.2962  0.7053
 4517WAT     H218789   3.970   1.112   3.914 -2.6691  0.6879 -0.3942
 4517WAT    EPW18790   3.976   1.190   3.920 -0.7372  0.5257  0.3467
 4518WAT      O18791   3.918   4.314   2.091  0.2839  0.1234  0.6227
 4518WAT     H118792   3.967   4.243   2.105 -0.4684 -0.1887  1.9089
 4518WAT     H218793   3.884   4.331   2.170 -0.1200  1.4922  0.1867
 4518WAT    EPW18794   3.920   4.306   2.105  0.1131  0.2795  0.7483
 4519WAT      O18795   5.113   7.385   0.385  0.6379 -0.1824 -0.1745
 4519WAT     H118796   5.091   7.303   0.369  1.1201 -0.4995  0.6861
 4519WAT     H218797   5.126   7.386   0.471 -2.2777  1.5074  0.3809
 4519WAT    EPW18798   5.112   7.373   0.395  0.2785  0.0204  0.0347
 4520WAT      O18799   5.932   5.334   0.475 -0.4565  0.0756 -0.2005
 4520WAT     H118800   5.975   5.385   0.533 -0.0268  0.6570 -1.0118
 4520WAT     H218801   5.994   5.279   0.447 -0.7448 -0.4196  0.1259
 4520WAT    EPW18802   5.948   5.333   0.480 -0.4356  0.0883 -0.2721
 4521WAT      O18803   0.076   6.057   0.276 -0.2186  0.2368 -0.4344
 4521WAT     H118804   0.058   6.064   0.361 -1.6459  0.5791 -0.7344
 4521WAT     H218805   0.116   5.980   0.269 -1.6900 -0.6344  0.3115
 4521WAT    EPW18806   0.079   6.047   0.288 -0.6468  0.1587 -0.3685
 4522WAT      O18807   5.766   2.855   0.125 -0.0380 -0.3890  0.2964
 4522WAT     H118808   5.691   2.899   0.131 -0.9429 -1.8853  0.3089
 4522WAT     H218809   5.791   2.844   0.208 -1.0426 -1.8924  0.4349
 4522WAT    EPW18810   5.759   2.860   0.138 -0.3201 -0.8321  0.3187
 4523WAT      O18811   7.753   6.768   4.311 -0.6581 -0.4399 -0.3323
 4523WAT     H118812   7.755   6.726   4.387  0.4605 -0.0017 -0.0948
 4523WAT     H218813   7.672   6.754   4.282  0.1588 -4.4932 -1.2933
 4523WAT    EPW18814   7.741   6.760   4.318 -0.3722 -0.9740 -0.4391
 4524WAT      O18815   5.461   0.005   1.920  0.3767 -0.5978 -0.4019
 4524WAT     H118816   5.420  -0.071   1.934 -0.1318 -0.1536  0.6834
 4524WAT     H218817   5.456   0.016   1.834  0.4284 -1.7769 -0.5656
 4524WAT    EPW18818   5.454  -0.004   1.909  0.3092 -0.7064 -0.2657
 4525WAT      O18819   3.500   4.484   0.806 -0.1378  0.2030 -0.0143
 4525WAT     H118820   3.490   4.558   0.761 -0.8005  1.1571  1.5870
 4525WAT     H218821   3.583   4.486   0.831  0.0277  0.0634 -0.5653
 4525WAT    EPW18822   3.511   4.496   0.803 -0.2112  0.3233  0.1409
 4526WAT      O18823   1.522   0.872   0.615 -0.3165  0.3862  0.3282
 4526WAT     H118824   1.597   0.903   0.583 -0.1872 -0.1453  0.0987
 4526WAT     H218825   1.531   0.882   0.701  0.1133  0.1264  0.3180
 4526WAT    EPW18826   1.534   0.878   0.623 -0.2339  0.2693  0.2928
 4527WAT      O18827   6.836   6.699   3.825  0.2547 -0.1979 -0.7171
 4527WAT     H118828   6.865   6.781   3.813  0.0412  0.1159  0.6686
 4527WAT     H218829   6.750   6.708   3.818  0.0892  0.0751  1.1744
 4527WAT    EPW18830   6.828   6.713   3.822  0.1987 -0.1112 -0.2330
 4528WAT      O18831   5.583   6.823   6.062  0.0731 -0.4659  0.1412
 4528WAT     H118832   5.659   6.826   6.104  0.5125  2.6386 -0.6532
 4528WAT     H218833   5.536   6.886   6.099 -0.5965  0.3778 -1.9658
 4528WAT    EPW18834   5.587   6.832   6.073  0.0391  0.1174 -0.2874
 4529WAT      O18835   3.877   3.492   5.121 -0.0663 -0.2429  0.1984
 4529WAT     H118836   3.896   3.417   5.161  0.1255  0.4429  1.4227
 4529WAT     H218837   3.835   3.538   5.181 -1.0568  0.2759 -0.8429
 4529WAT    EPW18838   3.874   3.487   5.135 -0.1843 -0.0650  0.2254
 4530WAT      O18839   3.317   0.545   0.342 -0.6830 -0.3270 -0.2056
 4530WAT     H118840   3.376   0.608   0.355  0.3598 -1.5960  1.5903
 4530WAT     H218841   3.241   0.586   0.357  0.0699  0.0554  3.6210
 4530WAT    EPW18842   3.315   0.560   0.347 -0.4177 -0.4580  0.6249
 4531WAT      O18843   4.244   6.128   4.000  0.1353  0.3964 -0.0029
 4531WAT     H118844   4.293   6.183   3.952  0.7918  0.1204  0.3433
 4531WAT     H218845   4.284   6.127   4.077 -0.3687  0.0894  0.2584
 4531WAT    EPW18846   4.257   6.136   4.004  0.1579  0.3103  0.0868
 4532WAT      O18847   6.807   2.504   7.209 -0.5602 -0.1165 -0.2126
 4532WAT     H118848   6.742   2.449   7.227 -0.9237  0.5330  0.4968
 4532WAT     H218849   6.793   2.525   7.125 -2.3623  1.4091  0.4108
 4532WAT    EPW18850   6.795   2.499   7.199 -0.8801  0.2048 -0.0158
 4533WAT      O18851   6.289   3.610   7.118 -0.1296  0.1334 -0.1968
 4533WAT     H118852   6.228   3.669   7.137 -1.7259 -1.8035  1.1732
 4533WAT     H218853   6.257   3.567   7.050 -0.1065 -0.6297  0.2628
 4533WAT    EPW18854   6.276   3.612   7.111 -0.3620 -0.2655  0.0735
 4534WAT      O18855   5.536   2.928   0.468 -0.7653  0.5376 -0.1024
 4534WAT     H118856   5.457   2.927   0.505 -0.7318 -1.7372  0.0758
 4534WAT     H218857   5.565   2.846   0.479  0.9730  0.8878 -1.5273
 4534WAT    EPW18858   5.529   2.916   0.475 -0.5036  0.2533 -0.2865
 4535WAT      O18859   6.110   4.827   6.548 -0.0059  0.2433 -0.5501
 4535WAT     H118860   6.145   4.748   6.562  1.0568  0.6390 -0.8539
 4535WAT     H218861   6.079   4.851   6.626  0.7989  0.0510 -0.1592
 4535WAT    EPW18862   6.110   4.819   6.561  0.2700  0.2733 -0.5372
 4536WAT      O18863   5.682   2.115   5.939  0.0225 -0.7936  0.7032
 4536WAT     H118864   5.638   2.124   5.865  1.2987  2.6685  0.1838
 4536WAT     H218865   5.622   2.127   6.001 -0.4660 -0.2179  0.1283
 4536WAT    EPW18866   5.667   2.118   5.937  0.1389 -0.1971  0.5416
 4537WAT      O18867   0.078   6.076   6.586  0.1424  0.1421 -0.1102
 4537WAT     H118868   0.085   6.107   6.505  1.6782 -0.1517 -0.1265
 4537WAT     H218869   0.065   6.148   6.634  0.5520  0.4705 -0.4830
 4537WAT    EPW18870   0.077   6.091   6.581  0.4298  0.1472 -0.1677
 4538WAT      O18871   3.601   3.116   5.999 -0.0309  0.1007 -0.0284
 4538WAT     H118872   3.622   3.154   5.924 -3.0965 -1.0235 -1.6173
 4538WAT     H218873   3.675   3.121   6.046  1.9451  1.0701 -2.9735
 4538WAT    EPW18874   3.615   3.122   5.995 -0.1918  0.0778 -0.6982
 4539WAT      O18875   6.027   0.959   0.672 -0.1497 -0.1040  0.3982
 4539WAT     H118876   6.072   0.916   0.611 -2.5113 -0.0592 -1.5154
 4539WAT     H218877   6.055   0.923   0.747  0.8528 -2.1295 -0.8557
 4539WAT    EPW18878   6.038   0.947   0.674 -0.3505 -0.3966 -0.0697
 4540WAT      O18879   5.370   4.057   1.620 -0.3080 -0.0870 -0.3656
 4540WAT     H118880   5.455   4.072   1.628 -0.4464  1.1527 -0.8580
 4540WAT     H218881   5.334   4.116   1.673 -0.8718  0.2214 -1.0713
 4540WAT    EPW18882   5.377   4.068   1.629 -0.4117  0.1417 -0.5426
 4541WAT      O18883   1.448   4.168   3.669  0.0055 -0.2287  0.3605
 4541WAT     H118884   1.529   4.142   3.689 -0.2015  0.7791  2.8980
 4541WAT     H218885   1.398   4.102   3.698 -0.1161 -0.7342 -0.9655
 4541WAT    EPW18886   1.452   4.154   3.676 -0.0431 -0.1545  0.5395
 4542WAT      O18887   3.180   0.892   7.284 -0.7879  0.1706 -0.1805
 4542WAT     H118888   3.203   0.912   7.203  1.1002  0.2164  0.3176
 4542WAT     H218889   3.151   0.968   7.316  0.8600  0.7853 -0.0677
 4542WAT    EPW18890   3.179   0.906   7.277 -0.2656  0.2682 -0.0902
 4543WAT      O18891   4.489   1.295   6.708 -0.3783  0.1120 -0.0871
 4543WAT     H118892   4.453   1.276   6.785 -0.5427 -0.3008 -0.2658
 4543WAT     H218893   4.471   1.380   6.698  3.0794  1.3161  2.1992
 4543WAT    EPW18894   4.481   1.305   6.718  0.1082  0.2289  0.2242
 4544WAT      O18895   4.600   5.945   3.287  0.2639  0.0456  0.6959
 4544WAT     H118896   4.513   5.947   3.280  0.2541 -0.6077  0.6120
 4544WAT     H218897   4.621   5.862   3.269  0.7595 -0.2754  2.5498
 4544WAT    EPW18898   4.591   5.933   3.283  0.3357 -0.0984  0.9573
 4545WAT      O18899   3.905   3.875   7.762  0.2161 -0.3682  0.1129
 4545WAT     H118900   3.848   3.909   7.819 -0.3968  2.1712 -1.8189
 4545WAT     H218901   3.864   3.805   7.730 -0.0766 -0.9017  1.5716
 4545WAT    EPW18902   3.890   3.870   7.766  0.0823 -0.0719  0.0430
 4546WAT      O18903   6.587   4.608   5.064 -0.3571  0.1884  0.7519
 4546WAT     H118904   6.665   4.583   5.093 -0.8327  0.7741  2.7352
 4546WAT     H218905   6.553   4.536   5.029  0.8758 -0.1901  0.3098
 4546WAT    EPW18906   6.594   4.594   5.063 -0.2452  0.2190  0.9795
 4547WAT      O18907   5.749   3.127   4.414 -0.4589  0.0154  0.3329
 4547WAT     H118908   5.727   3.160   4.337 -1.7405  0.9385  1.0505
 4547WAT     H218909   5.702   3.053   4.419 -2.1439  1.0730  1.1066
 4547WAT    EPW18910   5.738   3.121   4.404 -0.8971  0.3080  0.5532
 4548WAT      O18911   3.383   1.523   7.716 -0.5420  0.6804 -0.2315
 4548WAT     H118912   3.327   1.569   7.667 -1.7704 -0.0737  0.3996
 4548WAT     H218913   3.430   1.479   7.657 -0.5019  1.4398 -0.7832
 4548WAT    EPW18914   3.382   1.523   7.700 -0.7175  0.6812 -0.2197
 4549WAT      O18915   6.469   3.494   3.948 -0.4755 -0.0543 -0.3327
 4549WAT     H118916   6.470   3.433   4.010  0.5255  0.2097 -0.0659
 4549WAT     H218917   6.505   3.563   3.987  0.6263 -0.0286 -1.3220
 4549WAT    EPW18918   6.475   3.495   3.962 -0.1649 -0.0115 -0.4394
 4550WAT      O18919   5.316   4.251   7.213  0.1440 -0.9918 -0.3986
 4550WAT     H118920   5.233   4.267   7.192  0.0804  0.7553  0.9408
 4550WAT     H218921   5.359   4.318   7.177  0.3101  0.7779  2.7356
 4550WAT    EPW18922   5.310   4.263   7.204  0.1592 -0.4723  0.2622
 4551WAT      O18923   4.599   2.104   7.020  0.3966  0.0863  0.1687
 4551WAT     H118924   4.527   2.120   6.973  0.3631 -0.6011 -0.0231
 4551WAT     H218925   4.568   2.074   7.096  0.4295  1.8276  0.9099
 4551WAT    EPW18926   4.584   2.102   7.025  0.3965  0.2420  0.2498
 4552WAT      O18927   3.740   4.051   1.415  0.0087 -0.2838  0.3509
 4552WAT     H118928   3.696   4.104   1.468 -0.3402 -0.3757  0.1542
 4552WAT     H218929   3.795   4.010   1.469 -1.3750 -1.4962  0.9311
 4552WAT    EPW18930   3.742   4.053   1.431 -0.2472 -0.4765  0.4076
 4553WAT      O18931   5.363   3.829   3.297 -0.1499  0.0910  1.0489
 4553WAT     H118932   5.449   3.819   3.286 -0.3906 -0.9456 -0.1000
 4553WAT     H218933   5.350   3.807   3.380  0.7009  0.3499  1.2600
 4553WAT    EPW18934   5.374   3.824   3.308 -0.0598 -0.0239  0.9104
 4554WAT      O18935   1.549   2.414   6.281 -0.1780 -0.0042 -0.1274
 4554WAT     H118936   1.513   2.372   6.349 -1.9613 -0.7043 -1.4202
 4554WAT     H218937   1.592   2.352   6.238  1.8143  0.6309  0.8325
 4554WAT    EPW18938   1.550   2.399   6.285 -0.1471 -0.0138 -0.1766
 4555WAT      O18939   5.102   1.815   1.004  0.0899 -0.1147 -0.8828
 4555WAT     H118940   5.180   1.853   1.013  0.7861 -1.4372 -0.9809
 4555WAT     H218941   5.053   1.854   1.064  0.8643  0.6417 -0.7152
 4555WAT    EPW18942   5.107   1.826   1.014  0.3071 -0.1984 -0.8725
 4556WAT      O18943   4.154   3.597   6.331 -0.4837 -0.3246 -0.9115
 4556WAT     H118944   4.117   3.647   6.391  0.5201  0.3571 -0.8309
 4556WAT     H218945   4.212   3.550   6.376  1.6639  1.5661 -1.5446
 4556WAT    EPW18946   4.157   3.597   6.346 -0.0181  0.0554 -0.9932
 4557WAT      O18947   3.095   2.422   6.135  0.4956  0.1117  0.3275
 4557WAT     H118948   3.107   2.485   6.076  1.5350 -0.4370 -0.0716
 4557WAT     H218949   3.119   2.349   6.093  1.2411 -0.2948  1.4143
 4557WAT    EPW18950   3.100   2.420   6.120  0.7592 -0.0294  0.4291
 4558WAT      O18951   0.973   4.891   4.450  0.3143 -0.1113  0.0185
 4558WAT     H118952   1.045   4.847   4.475  0.1873 -0.3394 -0.0167
 4558WAT     H218953   0.940   4.920   4.526  1.1881  1.1718 -0.0566
 4558WAT    EPW18954   0.979   4.888   4.465  0.4246  0.0445  0.0022
 4559WAT      O18955   2.720   4.723   7.602  0.0203 -0.4423  0.1403
 4559WAT     H118956   2.753   4.643   7.597  0.1140 -0.3385 -2.0270
 4559WAT     H218957   2.756   4.764   7.533  2.6496  2.5234  2.9559
 4559WAT    EPW18958   2.730   4.718   7.591  0.4226  0.0112  0.2361
 4560WAT      O18959   4.088   1.437   2.065 -0.3783 -0.0818 -0.1614
 4560WAT     H118960   4.095   1.452   2.151  0.5458  0.2807 -0.2962
 4560WAT     H218961   4.071   1.352   2.060 -0.4884 -0.0933  0.3827
 4560WAT    EPW18962   4.086   1.427   2.077 -0.2581 -0.0299 -0.1009
 4561WAT      O18963   7.635   2.510   5.670  0.0111 -0.4483  0.3935
 4561WAT     H118964   7.569   2.522   5.613  1.3183 -0.1223 -1.1314
 4561WAT     H218965   7.678   2.585   5.668  1.5348 -1.2843 -0.1859
 4561WAT    EPW18966   7.632   2.523   5.661  0.4293 -0.5237  0.0827
 4562WAT      O18967   3.552   0.832   6.189 -0.3623 -0.5243  0.0875
 4562WAT     H118968   3.518   0.788   6.122  0.2424 -0.5913 -0.1851
 4562WAT     H218969   3.533   0.782   6.258 -0.8323 -0.5467 -0.0549
 4562WAT    EPW18970   3.545   0.818   6.189 -0.3424 -0.5375  0.0262
 4563WAT      O18971   7.349   5.657   5.713  0.1139  0.2696 -0.0771
 4563WAT     H118972   7.262   5.667   5.711  0.1412  0.4309 -0.8467
 4563WAT     H218973   7.375   5.699   5.641  0.7439 -0.6583 -0.3969
 4563WAT    EPW18974   7.340   5.665   5.702  0.2110  0.1564 -0.2381
 4564WAT      O18975   6.310   4.245   6.403 -0.4427 -0.4750  0.3385
 4564WAT     H118976   6.279   4.319   6.369  1.6282  1.2088  1.7530
 4564WAT     H218977   6.240   4.207   6.438 -1.4513  1.3519  0.4394
 4564WAT    EPW18978   6.295   4.250   6.403 -0.2858  0.0436  0.5624
 4565WAT      O18979   4.856   2.105   0.331  0.1314 -0.3067  0.4691
 4565WAT     H118980   4.901   2.172   0.297 -0.9558  0.5732  0.6799
 4565WAT     H218981   4.851   2.049   0.265 -0.2642  0.5246 -0.2365
 4565WAT    EPW18982   4.862   2.107   0.316 -0.0876 -0.0539  0.3960
 4566WAT      O18983   0.341   6.359   5.527  0.3824 -0.1024 -0.3452
 4566WAT     H118984   0.306   6.321   5.597 -0.9113 -0.4764 -1.1621
 4566WAT     H218985   0.278   6.355   5.467  0.3239  2.8878 -0.6696
 4566WAT    EPW18986   0.326   6.353   5.528  0.1826  0.2841 -0.5138
 4567WAT      O18987   4.006   0.936   3.865  0.2450  0.6900 -0.1017
 4567WAT     H118988   3.967   0.898   3.797  1.0722  0.0288 -0.2138
 4567WAT     H218989   4.090   0.918   3.854  0.4492  1.0271  0.8160
 4567WAT    EPW18990   4.013   0.928   3.854  0.3973  0.6421  0.0173
 4568WAT      O18991   4.477   7.223   6.750  0.1532  0.1964  0.6755
 4568WAT     H118992   4.401   7.262   6.768  0.5039  1.0951  0.2837
 4568WAT     H218993   4.454   7.148   6.713 -0.5693  1.0658 -0.7207
 4568WAT    EPW18994   4.463   7.218   6.747  0.0982  0.4575  0.4113
 4569WAT      O18995   7.746   2.997   7.824  0.0400  0.1897  0.4197
 4569WAT     H118996   7.763   3.070   7.779 -0.2480  2.2116  3.3319
 4569WAT     H218997   7.693   3.024   7.888  0.3373 -2.4933  1.9344
 4569WAT    EPW18998   7.741   3.012   7.827  0.0414  0.0921  1.0737
 4570WAT      O18999   2.783   0.744   5.246  0.4105  0.3240  0.7144
 4570WAT     H119000   2.867   0.768   5.250  0.5654 -0.0913  0.1504
 4570WAT     H219001   2.774   0.689   5.313  0.4004  0.9002  1.1959
 4570WAT    EPW19002   2.794   0.739   5.257  0.4319  0.3478  0.7022
 4571WAT      O19003   0.185   5.302   5.014 -0.0127  0.0166 -0.1026
 4571WAT     H119004   0.132   5.284   4.947 -0.0956  0.9108 -0.2957
 4571WAT     H219005   0.226   5.227   5.029 -0.2958 -0.3046 -0.8880
 4571WAT    EPW19006   0.183   5.288   5.006 -0.0667  0.1013 -0.2471
 4572WAT      O19007   5.204   3.028   6.858  0.5086  0.3027 -0.3774
 4572WAT     H119008   5.124   2.995   6.873  0.0432  1.0213 -1.1602
 4572WAT     H219009   5.254   2.987   6.916 -0.3593 -0.4630 -0.1345
 4572WAT    EPW19010   5.200   3.017   6.869  0.3117  0.2958 -0.4572
 4573WAT      O19011   1.663   3.660   6.925 -0.1456 -0.2134 -1.3227
 4573WAT     H119012   1.639   3.741   6.945 -0.6443 -0.4796 -0.8034
 4573WAT     H219013   1.726   3.641   6.982 -0.9310 -0.6442 -0.5711
 4573WAT    EPW19014   1.669   3.669   6.936 -0.3353 -0.3164 -1.1349
 4574WAT      O19015   4.771   2.219   5.832 -0.1215  0.2126  0.2245
 4574WAT     H119016   4.773   2.217   5.745  0.7803  1.0758  0.2115
 4574WAT     H219017   4.805   2.143   5.855 -0.5721 -0.1154 -0.1746
 4574WAT    EPW19018   4.776   2.208   5.823 -0.0548  0.2916  0.1636
 4575WAT      O19019   3.869   3.764   1.964  0.4332 -0.0179 -0.4395
 4575WAT     H119020   3.818   3.756   2.035 -0.4431  1.8921 -0.7693
 4575WAT     H219021   3.913   3.689   1.962  1.1796  0.1681  2.6331
 4575WAT    EPW19022   3.868   3.752   1.975  0.4140  0.2917 -0.0344
 4576WAT      O19023   5.318   3.840   5.423  0.1513  0.0599  0.2135
 4576WAT     H119024   5.337   3.872   5.502  2.1524 -0.7099  0.0937
 4576WAT     H219025   5.349   3.758   5.427 -2.0005 -0.8695 -0.5407
 4576WAT    EPW19026   5.325   3.832   5.435  0.1291 -0.1911  0.0844
 4577WAT      O19027   1.248   3.111   0.055  0.1416 -0.5715 -0.0293
 4577WAT     H119028   1.177   3.161   0.051  0.0666 -0.6206  0.5383
 4577WAT     H219029   1.272   3.101  -0.028  1.3984  2.1652 -0.0931
 4577WAT    EPW19030   1.241   3.117   0.042  0.3161 -0.1745  0.0451
 4578WAT      O19031   2.869   1.861   2.011 -0.6702  0.2445 -0.4496
 4578WAT     H119032   2.808   1.923   2.006 -0.4040  0.7382  1.5486
 4578WAT     H219033   2.929   1.887   1.954 -1.3199  0.9109 -0.8545
 4578WAT    EPW19034   2.869   1.874   2.002 -0.7269  0.4159 -0.2142
 4579WAT      O19035   4.024   4.631   6.808  0.4657  0.2113 -0.0937
 4579WAT     H119036   4.028   4.578   6.877 -0.4731 -0.9210 -0.8828
 4579WAT     H219037   3.943   4.622   6.778  0.6239  1.2402 -0.9291
 4579WAT    EPW19038   4.013   4.622   6.814  0.3504  0.1960 -0.3337
 4580WAT      O19039   2.509   4.623   1.454 -0.1930 -0.1081  0.8719
 4580WAT     H119040   2.590   4.594   1.437 -0.0222  0.6339  0.3785
 4580WAT     H219041   2.490   4.584   1.530  1.4354  1.2657  2.0800
 4580WAT    EPW19042   2.518   4.613   1.463  0.0728  0.2044  0.9775
 4581WAT      O19043   4.511   0.492   2.839 -0.3784 -0.3162  0.6079
 4581WAT     H119044   4.556   0.472   2.911  0.0817  0.7676  0.6395
 4581WAT     H219045   4.429   0.474   2.861 -0.5787  2.1515  2.2778
 4581WAT    EPW19046   4.506   0.486   2.853 -0.3401  0.2084  0.8592
 4582WAT      O19047   4.245   1.964   5.336 -0.1815  0.2817 -0.2992
 4582WAT     H119048   4.292   1.992   5.405  1.0079 -0.5658 -0.7369
 4582WAT     H219049   4.231   1.880   5.354  0.5365 -0.0648 -1.2833
 4582WAT    EPW19050   4.250   1.956   5.349  0.1002  0.1053 -0.5093
 4583WAT      O19051   6.617   1.045   4.199 -0.1152 -0.0867 -0.2797
 4583WAT     H119052   6.624   1.031   4.113  0.1830  2.5760 -0.7465
 4583WAT     H219053   6.603   1.130   4.206 -0.3326 -0.2370  2.3440
 4583WAT    EPW19054   6.616   1.055   4.188 -0.1032  0.2844  0.0389
 4584WAT      O19055   6.805   6.328   4.019  0.2003 -0.0586  0.0646
 4584WAT     H119056   6.824   6.286   4.093  1.0059 -0.2874 -0.2592
 4584WAT     H219057   6.719   6.338   4.023 -0.2690 -3.0017 -0.4999
 4584WAT    EPW19058   6.795   6.323   4.031  0.2500 -0.5271 -0.0666
 4585WAT      O19059   1.401   6.790   5.845  0.0922  0.0073  0.3360
 4585WAT     H119060   1.487   6.807   5.852  0.8047 -2.6223 -0.6659
 4585WAT     H219061   1.380   6.759   5.923  0.0578  0.5440  0.5462
 4585WAT    EPW19062   1.411   6.788   5.858  0.1924 -0.3019  0.2190
 4586WAT      O19063   5.482   3.567   5.117  0.1012  0.4431 -0.1810
 4586WAT     H119064   5.552   3.601   5.157 -0.2612  1.0229 -0.0275
 4586WAT     H219065   5.510   3.553   5.036  0.5006  0.3356 -0.0322
 4586WAT    EPW19066   5.497   3.570   5.111  0.1067  0.5129 -0.1364
 4587WAT      O19067   3.760   0.949   2.411  0.3139  0.0718  0.4811
 4587WAT     H119068   3.800   0.970   2.485  0.8561  0.3585  0.1150
 4587WAT     H219069   3.748   1.025   2.371  0.9085 -0.1576 -0.1626
 4587WAT    EPW19070   3.764   0.963   2.416  0.4818  0.0803  0.3319
 4588WAT      O19071   4.656   0.211   0.053  0.6551  0.0527 -0.2237
 4588WAT     H119072   4.689   0.254   0.121  0.5594  0.3768 -0.3768
 4588WAT     H219073   4.724   0.200   0.000  0.4021  1.3768 -0.8780
 4588WAT    EPW19074   4.671   0.216   0.055  0.6036  0.2962 -0.3429
 4589WAT      O19075   7.088   2.903   4.310  0.5506  0.1598 -0.4952
 4589WAT     H119076   7.143   2.961   4.344  2.1334 -1.0664 -0.8474
 4589WAT     H219077   7.096   2.915   4.224  0.2798 -0.0548 -0.5536
 4589WAT    EPW19078   7.097   2.914   4.302  0.7444 -0.0531 -0.5558
 4590WAT      O19079   2.329   3.693   2.371 -0.0370 -0.3866  0.0438
 4590WAT     H119080   2.264   3.635   2.375  0.1748 -0.5741  2.1412
 4590WAT     H219081   2.297   3.758   2.323 -1.7329 -0.5584  0.8735
 4590WAT    EPW19082   2.315   3.694   2.365 -0.2562 -0.4396  0.4762
 4591WAT      O19083   3.614   6.543   1.121  0.0818 -0.1186 -0.3295
 4591WAT     H119084   3.681   6.504   1.080  1.1572 -0.3316  1.5560
 4591WAT     H219085   3.653   6.593   1.180 -1.4354 -0.2368  0.8059
 4591WAT    EPW19086   3.630   6.545   1.123  0.0165 -0.1676  0.1168
 4592WAT      O19087   2.542   2.473   0.483  0.0691 -0.2306  0.7578
 4592WAT     H119088   2.581   2.444   0.410 -0.4633  1.9226 -0.4685
 4592WAT     H219089   2.598   2.533   0.514 -0.5437  0.1761  1.0943
 4592WAT    EPW19090   2.556   2.477   0.477 -0.1001  0.1475  0.6263
 4593WAT      O19091   7.521   5.814   6.484 -0.2537  0.4871  0.0387
 4593WAT     H119092   7.558   5.858   6.419 -2.2019  1.1671 -0.6930
 4593WAT     H219093   7.555   5.851   6.556  0.1058  1.3910 -0.5837
 4593WAT    EPW19094   7.531   5.826   6.485 -0.4884  0.7211 -0.1613
 4594WAT      O19095   0.609   3.768   5.574  0.5297  0.9738  0.0923
 4594WAT     H119096   0.641   3.688   5.587  0.7222  1.2728  1.6996
 4594WAT     H219097   0.662   3.820   5.620 -1.2350  1.6790  1.4592
 4594WAT    EPW19098   0.621   3.764   5.583  0.2975  1.1222  0.5317
 4595WAT      O19099   5.831   4.403   2.465  0.1381 -0.4742  0.0847
 4595WAT     H119100   5.877   4.341   2.506  0.0746 -0.9742 -0.5935
 4595WAT     H219101   5.834   4.380   2.381  1.5013  1.3338 -0.4172
 4595WAT    EPW19102   5.838   4.391   2.459  0.3301 -0.2810 -0.0896
 4596WAT      O19103   2.992   2.668   5.408 -0.6789  0.2776 -0.3058
 4596WAT     H119104   2.911   2.646   5.434  0.0456 -0.0359  1.8782
 4596WAT     H219105   3.039   2.665   5.481  1.3467  0.4443 -1.5130
 4596WAT    EPW19106   2.987   2.664   5.423 -0.2726  0.2559 -0.1615
 4597WAT      O19107   7.515   4.345   4.930 -0.1494 -0.3306  0.0470
 4597WAT     H119108   7.583   4.293   4.948  1.1276  0.9478 -0.8832
 4597WAT     H219109   7.549   4.407   4.880 -1.4468  1.8447  1.6917
 4597WAT    EPW19110   7.530   4.346   4.925 -0.1524  0.1796  0.1525
 4598WAT      O19111   1.819   1.755   1.864  0.4070 -0.0889  0.4066
 4598WAT     H119112   1.768   1.761   1.934  0.6858  0.2530  0.5857
 4598WAT     H219113   1.867   1.683   1.880 -0.1895 -0.5544  0.1187
 4598WAT    EPW19114   1.819   1.745   1.877  0.3601 -0.1072  0.3906
 4599WAT      O19115   3.663   3.110   6.454  0.1707 -0.3925 -0.7264
 4599WAT     H119116   3.676   3.069   6.378  1.4789  0.8554 -1.2135
 4599WAT     H219117   3.712   3.064   6.510  1.3697  0.2487 -1.2053
 4599WAT    EPW19118   3.672   3.097   6.451  0.5410 -0.1134 -0.8691
 4600WAT      O19119   6.991   2.798   3.736 -0.4984  0.3916 -0.3203
 4600WAT     H119120   7.078   2.806   3.737 -0.3691 -0.5708  1.3131
 4600WAT     H219121   6.973   2.776   3.819 -2.1360 -0.9372 -0.9864
 4600WAT    EPW19122   7.001   2.795   3.749 -0.7212  0.0532 -0.1774
 4601WAT      O19123   4.937   3.457   1.804  0.7433  0.3809  0.5007
 4601WAT     H119124   4.986   3.490   1.739 -0.4082 -0.7760 -1.0373
 4601WAT     H219125   4.858   3.451   1.768  0.0687 -0.3010  2.0441
 4601WAT    EPW19126   4.933   3.461   1.789  0.4736  0.1093  0.5015
 4602WAT      O19127   2.960   6.545   6.679  0.5508  0.1417 -0.3243
 4602WAT     H119128   3.034   6.520   6.641 -1.0504 -1.0949 -2.9829
 4602WAT     H219129   2.915   6.470   6.687 -0.9055  1.0001 -0.0626
 4602WAT    EPW19130   2.964   6.530   6.675  0.0991  0.0858 -0.6784
 4603WAT      O19131   4.193   6.512   5.352  0.2273 -0.4087 -0.0180
 4603WAT     H119132   4.171   6.459   5.417  1.2079 -0.8555 -0.0263
 4603WAT     H219133   4.245   6.571   5.391  0.2881 -0.2910 -0.2775
 4603WAT    EPW19134   4.198   6.513   5.368  0.3812 -0.4573 -0.0575
 4604WAT      O19135   6.679   3.337   0.093 -0.5726 -0.3493  0.0996
 4604WAT     H119136   6.648   3.312   0.015  0.1091 -0.4931 -0.1322
 4604WAT     H219137   6.608   3.339   0.143 -0.9448 -0.7604 -0.3953
 4604WAT    EPW19138   6.664   3.334   0.089 -0.5269 -0.4312 -0.0078
 4605WAT      O19139   4.061   4.441   5.167 -0.5743 -0.0558 -0.2623
 4605WAT     H119140   4.021   4.515   5.191 -1.3680 -0.0906 -1.4130
 4605WAT     H219141   3.996   4.384   5.158  0.1096 -1.1994  1.5138
 4605WAT    EPW19142   4.046   4.444   5.170 -0.5905 -0.2299 -0.1699
 4606WAT      O19143   4.325   3.346   4.796  0.6528  0.1477 -0.3193
 4606WAT     H119144   4.359   3.328   4.718  0.7041 -0.2819 -0.2003
 4606WAT     H219145   4.357   3.424   4.816  0.4580  0.3591 -0.8327
 4606WAT    EPW19146   4.334   3.355   4.788  0.6316  0.1155 -0.3776
 4607WAT      O19147   2.041   0.727   3.227 -0.1458  0.1332  0.3028
 4607WAT     H119148   1.960   0.743   3.255  0.2044  1.2986  0.6866
 4607WAT     H219149   2.089   0.733   3.299  0.4229  0.5285 -0.1066
 4607WAT    EPW19150   2.036   0.730   3.241 -0.0101  0.3637  0.2990
 4608WAT      O19151   7.648   0.007   7.670  0.2674  0.3656  0.1255
 4608WAT     H119152   7.735   0.006   7.671  0.4498  4.1040  1.4579
 4608WAT     H219153   7.626   0.035   7.749 -2.1315  0.3223 -0.4356
 4608WAT    EPW19154   7.657   0.011   7.682 -0.0601  0.9114  0.2395
 4609WAT      O19155   7.115   3.723   7.172  0.4150 -0.0217  0.8330
 4609WAT     H119156   7.087   3.641   7.177 -1.0750  0.1717 -2.1593
 4609WAT     H219157   7.112   3.750   7.255  0.5927 -2.8202  1.8626
 4609WAT    EPW19158   7.110   3.715   7.185  0.2211 -0.4065  0.5430
 4610WAT      O19159   3.992   0.507   6.899 -0.2624 -0.0425  0.0712
 4610WAT     H119160   3.944   0.505   6.972 -0.7415  0.1804 -0.2249
 4610WAT     H219161   4.069   0.538   6.925 -0.6315  0.6409  0.3733
 4610WAT    EPW19162   3.996   0.511   6.913 -0.3877  0.0914  0.0721
 4611WAT      O19163   0.687   3.804   7.740 -0.3479  0.1960  0.0450
 4611WAT     H119164   0.758   3.855   7.739 -0.2175  0.0169  0.2087
 4611WAT     H219165   0.629   3.851   7.784 -0.7629  0.9180 -1.2049
 4611WAT    EPW19166   0.689   3.819   7.746 -0.3899  0.2762 -0.1154
 4612WAT      O19167   3.522   6.485   4.913 -0.0289  0.4533  0.5763
 4612WAT     H119168   3.581   6.535   4.953  1.3906  0.2857 -1.1866
 4612WAT     H219169   3.552   6.404   4.925 -0.2123  0.3202  0.1608
 4612WAT    EPW19170   3.535   6.481   4.921  0.1537  0.4089  0.2545
 4613WAT      O19171   5.631   1.192   0.351 -0.1809 -0.3579  0.2735
 4613WAT     H119172   5.627   1.272   0.385  1.6934 -0.1581  0.1359
 4613WAT     H219173   5.622   1.205   0.266  2.2985  0.0623 -0.0197
 4613WAT    EPW19174   5.629   1.206   0.344  0.4623 -0.2663  0.2098
 4614WAT      O19175   1.227   6.264   0.180  0.0481  0.2678  0.4213
 4614WAT     H119176   1.307   6.233   0.169  0.1422  0.2574  1.1336
 4614WAT     H219177   1.231   6.344   0.144 -0.2434 -0.5425 -1.5766
 4614WAT    EPW19178   1.239   6.271   0.173  0.0189  0.1466  0.2314
 4615WAT      O19179   2.043   2.731   5.355  0.5359  0.6291 -0.2854
 4615WAT     H119180   1.998   2.659   5.376  0.1295  0.4549 -1.6581
 4615WAT     H219181   2.085   2.751   5.429 -1.1264  0.3146  0.7938
 4615WAT    EPW19182   2.043   2.723   5.369  0.2303  0.5569 -0.3288
 4616WAT      O19183   1.108   1.670   5.831 -0.5448 -0.1752  0.0398
 4616WAT     H119184   1.154   1.714   5.772  1.2925 -0.9547  0.8344
 4616WAT     H219185   1.095   1.727   5.895 -1.2541  0.2268 -0.4476
 4616WAT    EPW19186   1.113   1.685   5.832 -0.3782 -0.2310  0.0852
 4617WAT      O19187   1.913   1.263   3.791  0.1273  0.7375 -0.8226
 4617WAT     H119188   1.917   1.301   3.870  0.9526 -0.1693 -0.4118
 4617WAT     H219189   1.848   1.205   3.800 -0.2596  1.1191 -1.0538
 4617WAT    EPW19190   1.904   1.260   3.804  0.1920  0.6599 -0.7961
 4618WAT      O19191   3.522   6.975   0.418  0.2523 -0.2169 -0.1762
 4618WAT     H119192   3.493   6.917   0.477 -2.5976  0.5219 -0.6816
 4618WAT     H219193   3.599   7.001   0.450 -0.1981 -1.4411  2.0824
 4618WAT    EPW19194   3.529   6.971   0.431 -0.2352 -0.2886  0.0828
 4619WAT      O19195   6.109   1.939   7.700 -0.3594  0.2674  0.0508
 4619WAT     H119196   6.075   1.989   7.763 -0.7787 -1.5950  1.3884
 4619WAT     H219197   6.106   1.990   7.630 -0.3559  2.2464  1.4085
 4619WAT    EPW19198   6.103   1.954   7.699 -0.4208  0.2847  0.4489
 4620WAT      O19199   7.521   1.132   5.776 -0.0579  0.0534 -0.3039
 4620WAT     H119200   7.586   1.187   5.795  0.7545 -0.8180 -0.4384
 4620WAT     H219201   7.515   1.082   5.847 -1.1813  0.6654  0.0492
 4620WAT    EPW19202   7.530   1.133   5.789 -0.1038  0.0151 -0.2716
 4621WAT      O19203   5.010   2.912   7.494 -0.0224  0.3793  0.0835
 4621WAT     H119204   5.076   2.947   7.540  0.0823  1.4151 -0.8046
 4621WAT     H219205   5.016   2.952   7.417 -0.2074 -1.2800 -0.8403
 4621WAT    EPW19206   5.021   2.923   7.490 -0.0343  0.2872 -0.1842
 4622WAT      O19207   5.239   5.075   5.448  0.0595  0.0571  0.4215
 4622WAT     H119208   5.255   5.145   5.497  2.1633  0.2417 -0.4465
 4622WAT     H219209   5.223   5.108   5.369  0.9824 -0.4122  0.0244
 4622WAT    EPW19210   5.239   5.090   5.443  0.5066  0.0151  0.2346
 4623WAT      O19211   5.567   3.024   4.767 -0.7302 -0.1198 -0.6676
 4623WAT     H119212   5.555   3.094   4.818 -0.2102  0.1007 -0.8420
 4623WAT     H219213   5.488   2.987   4.765 -0.7338 -0.2236  0.4200
 4623WAT    EPW19214   5.554   3.029   4.774 -0.6539 -0.1026 -0.5327
 4624WAT      O19215   2.720   5.675   6.801  0.5502 -0.1239 -0.1820
 4624WAT     H119216   2.755   5.748   6.770 -0.2190 -0.3151 -1.5823
 4624WAT     H219217   2.751   5.670   6.883  1.8639  0.9239 -0.5857
 4624WAT    EPW19218   2.730   5.685   6.809  0.6306  0.0026 -0.4485
 4625WAT      O19219   4.460   3.953   2.740 -0.1733  0.3693 -0.0256
 4625WAT     H119220   4.537   3.993   2.749 -0.7614  1.0498  3.5194
 4625WAT     H219221   4.450   3.911   2.816 -2.7383 -0.8216 -0.8985
 4625WAT    EPW19222   4.470   3.953   2.753 -0.6391  0.2939  0.3691
 4626WAT      O19223   0.370   5.861   6.355  0.5531 -0.0827 -0.1839
 4626WAT     H119224   0.439   5.809   6.342  0.0075 -1.0925  0.8413
 4626WAT     H219225   0.323   5.819   6.415 -0.9432  0.6171 -0.8070
 4626WAT    EPW19226   0.373   5.847   6.362  0.2515 -0.1285 -0.1245
 4627WAT      O19227   0.513   1.910   5.435 -0.1839  0.2602 -0.0084
 4627WAT     H119228   0.549   1.958   5.371 -1.9097 -0.4210 -1.6108
 4627WAT     H219229   0.533   1.828   5.413 -0.6567  0.0307  0.3957
 4627WAT    EPW19230   0.521   1.905   5.422 -0.5087  0.1257 -0.1854
 4628WAT      O19231   4.525   7.183   4.131  0.3278 -0.1822  0.5489
 4628WAT     H119232   4.611   7.170   4.135  0.4088  0.2742  0.3189
 4628WAT     H219233   4.516   7.266   4.155 -0.0577 -0.2521  0.6501
 4628WAT    EPW19234   4.536   7.193   4.135  0.2828 -0.1251  0.5299
 4629WAT      O19235   6.528   0.395   7.507  0.0654  0.3646 -0.2726
 4629WAT     H119236   6.518   0.343   7.438 -0.5136 -0.9286  0.7172
 4629WAT     H219237   6.600   0.364   7.545  1.6162  2.4225 -1.3763
 4629WAT    EPW19238   6.537   0.382   7.503  0.2090  0.4776 -0.2895
 4630WAT      O19239   6.021   5.465   4.166  0.2322  0.3736  0.2653
 4630WAT     H119240   6.090   5.422   4.197  0.3426  0.1243 -0.3155
 4630WAT     H219241   6.032   5.461   4.079  0.1502  1.4192  0.2010
 4630WAT    EPW19242   6.033   5.458   4.158  0.2364  0.4912  0.1700
 4631WAT      O19243   7.018   2.271   7.507 -0.1413  0.0619 -0.1108
 4631WAT     H119244   6.962   2.204   7.501  1.7703 -1.5916 -0.7154
 4631WAT     H219245   7.024   2.301   7.426 -1.1581  1.1774  0.1958
 4631WAT    EPW19246   7.011   2.265   7.494 -0.0091 -0.0175 -0.1548
 4632WAT      O19247   3.690   6.306   1.443 -0.1264 -0.5814 -0.4900
 4632WAT     H119248   3.645   6.233   1.458 -0.3494 -0.4702 -0.6175
 4632WAT     H219249   3.690   6.347   1.521  0.9878 -1.2581 -0.1151
 4632WAT    EPW19250   3.684   6.302   1.457  0.0053 -0.6649 -0.4535
 4633WAT      O19251   6.966   2.366   4.988 -0.2043  0.3540 -0.6832
 4633WAT     H119252   6.965   2.419   5.057  2.7788 -1.0204  0.5980
 4633WAT     H219253   6.949   2.419   4.921  0.4596  2.5108  0.7505
 4633WAT    EPW19254   6.964   2.382   4.988  0.3345  0.4696 -0.2822
 4634WAT      O19255   2.575   4.714   4.120  0.7834  0.3066 -0.2149
 4634WAT     H119256   2.621   4.767   4.172  0.9890 -1.5820  1.6322
 4634WAT     H219257   2.500   4.703   4.163 -0.4260  1.2598 -1.9439
 4634WAT    EPW19258   2.571   4.720   4.134  0.6351  0.1684 -0.1975
 4635WAT      O19259   6.593   6.268   1.153 -0.1730 -0.1343 -0.2266
 4635WAT     H119260   6.518   6.287   1.112  0.0728  1.1210 -0.1442
 4635WAT     H219261   6.619   6.194   1.114  0.6505  1.5681 -3.2813
 4635WAT    EPW19262   6.586   6.260   1.141 -0.0150  0.3026 -0.6657
 4636WAT      O19263   5.847   5.888   2.942 -0.4572 -0.1488  0.0531
 4636WAT     H119264   5.836   5.813   2.899 -0.6041 -0.4132  0.5439
 4636WAT     H219265   5.814   5.872   3.021 -2.9237  1.2076 -0.5812
 4636WAT    EPW19266   5.840   5.875   2.947 -0.8433  0.0125  0.0319
 4637WAT      O19267   5.667   5.903   5.777 -0.2463  0.0712 -0.1308
 4637WAT     H119268   5.615   5.907   5.707 -1.0841 -0.5659  0.4243
 4637WAT     H219269   5.626   5.846   5.829  1.4263 -1.0792  0.0041
 4637WAT    EPW19270   5.653   5.895   5.774 -0.1230 -0.1929 -0.0289
 4638WAT      O19271   3.291   5.133   6.185  0.1753 -0.0136  0.0657
 4638WAT     H119272   3.286   5.178   6.111  1.2351 -1.1236 -0.7346
 4638WAT     H219273   3.289   5.050   6.158  1.3674 -0.4419  1.1842
 4638WAT    EPW19274   3.290   5.127   6.170  0.5080 -0.2409  0.1127
 4639WAT      O19275   5.086   1.069   4.854 -0.2805 -0.3427  0.0466
 4639WAT     H119276   5.158   1.089   4.809 -0.5214 -2.1539 -1.2666
 4639WAT     H219277   5.025   1.121   4.819  0.2212  0.7544  0.7420
 4639WAT    EPW19278   5.087   1.080   4.842 -0.2419 -0.4482 -0.0446
 4640WAT      O19279   4.172   0.919   7.763  0.4959  0.0376  0.6774
 4640WAT     H119280   4.250   0.882   7.753  0.1096 -0.5203 -0.4948
 4640WAT     H219281   4.179   0.963   7.838  1.7152 -0.5335  0.9192
 4640WAT    EPW19282   4.184   0.920   7.772  0.6189 -0.1292  0.5399
 4641WAT      O19283   6.043   4.737   7.651 -0.6323  0.9105 -0.0047
 4641WAT     H119284   6.074   4.801   7.701 -1.5305  0.5191  1.0870
 4641WAT     H219285   5.959   4.757   7.643 -0.5091  0.9503 -1.3733
 4641WAT    EPW19286   6.035   4.750   7.657 -0.7468  0.8586 -0.0456
 4642WAT      O19287   1.449   5.991   6.330  0.0894  0.1079 -0.0658
 4642WAT     H119288   1.457   5.998   6.416  0.6470  2.1264 -0.2082
 4642WAT     H219289   1.532   5.999   6.302 -0.3156  2.1624 -0.8482
 4642WAT    EPW19290   1.463   5.994   6.338  0.1119  0.7096 -0.2024
 4643WAT      O19291   1.538   5.643   4.864 -0.3731  0.1444  0.0482
 4643WAT     H119292   1.546   5.657   4.950 -2.0831 -0.9249  0.4241
 4643WAT     H219293   1.518   5.722   4.833 -3.6381 -0.0484  1.2561
 4643WAT    EPW19294   1.536   5.657   4.872 -1.1080 -0.0421  0.2822
 4644WAT      O19295   5.387   2.345   5.114 -0.1574 -0.4351  0.2563
 4644WAT     H119296   5.383   2.260   5.093  0.2128 -0.3548 -0.1460
 4644WAT     H219297   5.468   2.368   5.092 -0.3943  0.1289 -0.0377
 4644WAT    EPW19298   5.398   2.336   5.108 -0.1377 -0.3399  0.1535
 4645WAT      O19299   1.376   4.939   4.272 -0.0821 -0.9118 -0.4106
 4645WAT     H119300   1.461   4.959   4.275 -0.2949  0.2720 -1.5275
 4645WAT     H219301   1.375   4.854   4.295  1.1707 -0.4882  1.4624
 4645WAT    EPW19302   1.388   4.929   4.276  0.0716 -0.6744 -0.2989
 4646WAT      O19303   5.685   1.081   7.027  0.0734  0.0793 -0.1489
 4646WAT     H119304   5.669   1.166   7.028 -1.2619 -0.1276 -1.0057
 4646WAT     H219305   5.734   1.068   7.098 -0.8973  1.3381  0.8043
 4646WAT    EPW19306   5.690   1.091   7.038 -0.2673  0.2347 -0.1347
 4647WAT      O19307   0.692   1.148   6.927 -0.5470 -0.6686 -0.8640
 4647WAT     H119308   0.666   1.197   6.859 -0.2991  0.3985 -0.2174
 4647WAT     H219309   0.689   1.204   6.994 -1.0673 -1.7766  0.0703
 4647WAT    EPW19310   0.687   1.163   6.927 -0.5872 -0.6746 -0.6305
 4648WAT      O19311   4.749   3.605   5.005 -0.0466  0.2025 -0.4846
 4648WAT     H119312   4.794   3.630   4.935  0.5633 -1.5284 -0.7511
 4648WAT     H219313   4.706   3.534   4.979  0.8738 -1.0131  1.0946
 4648WAT    EPW19314   4.749   3.598   4.991  0.1795 -0.2328 -0.2907
 4649WAT      O19315   0.494   6.639   4.453  0.7144 -0.8228 -0.2936
 4649WAT     H119316   0.413   6.651   4.484  0.8797  0.0307 -0.1477
 4649WAT     H219317   0.522   6.568   4.495  0.3972 -0.5442  0.4068
 4649WAT    EPW19318   0.486   6.630   4.464  0.6920 -0.6555 -0.1686
 4650WAT      O19319   3.151   7.386   5.417  0.3061 -0.0158 -0.1029
 4650WAT     H119320   3.211   7.449   5.413  0.5633 -0.1036  1.4992
 4650WAT     H219321   3.164   7.340   5.344  2.3466 -0.1506  0.2812
 4650WAT    EPW19322   3.162   7.388   5.406  0.6455 -0.0486  0.1905
 4651WAT      O19323   5.695   2.239   7.808 -0.2073 -0.1239  0.1988
 4651WAT     H119324   5.720   2.218   7.727  0.3282  0.6591  0.1491
 4651WAT     H219325   5.630   2.296   7.795  1.5459  1.9921  0.2616
 4651WAT    EPW19326   5.689   2.244   7.794  0.1308  0.3043  0.2007
 4652WAT      O19327   4.331   3.602   6.876 -0.1522  0.2259 -1.0339
 4652WAT     H119328   4.341   3.521   6.908 -0.0138  0.2387 -1.0439
 4652WAT     H219329   4.253   3.627   6.907  0.6247  0.8138  0.5465
 4652WAT    EPW19330   4.321   3.594   6.885 -0.0170  0.3146 -0.8019
 4653WAT      O19331   6.604   1.284   3.617 -0.2612  0.3245 -0.0465
 4653WAT     H119332   6.593   1.198   3.619  2.2168 -0.1764 -2.1874
 4653WAT     H219333   6.688   1.295   3.639 -0.9594  2.4368  2.0306
 4653WAT    EPW19334   6.615   1.273   3.621  0.0017  0.5626 -0.0560
 4654WAT      O19335   5.413   5.071   4.857 -0.1499  0.2827  0.0818
 4654WAT     H119336   5.391   5.012   4.917  0.2716  0.7314  0.6893
 4654WAT     H219337   5.380   5.145   4.888  1.8743  0.9169  0.8660
 4654WAT    EPW19338   5.405   5.073   4.870  0.2114  0.4426  0.2874
 4655WAT      O19339   3.699   4.455   6.407 -0.3289 -0.0393  0.1413
 4655WAT     H119340   3.712   4.503   6.480  1.2034 -1.8318  1.1285
 4655WAT     H219341   3.613   4.462   6.394 -0.4579  1.3735  1.3711
 4655WAT    EPW19342   3.688   4.463   6.416 -0.1216 -0.0954  0.4688
 4656WAT      O19343   4.694   3.936   4.478 -0.5295  0.0312  0.0506
 4656WAT     H119344   4.688   3.853   4.502 -1.3132 -0.6192 -2.1483
 4656WAT     H219345   4.612   3.961   4.466 -0.2412  0.0177 -2.5532
 4656WAT    EPW19346   4.681   3.928   4.479 -0.6027 -0.0669 -0.6589
 4657WAT      O19347   0.150   0.610   6.990 -0.0994 -0.0552  0.2712
 4657WAT     H119348   0.135   0.681   7.038  2.4172 -0.3626  1.7473
 4657WAT     H219349   0.073   0.592   6.954 -1.5992  1.5632  2.4105
 4657WAT    EPW19350   0.137   0.618   6.992  0.0508  0.1384  0.8052
 4658WAT      O19351   1.941   2.817   1.390  0.1753 -0.5025 -0.3175
 4658WAT     H119352   1.975   2.888   1.428  0.0516 -0.2599 -0.6595
 4658WAT     H219353   1.896   2.849   1.322 -1.1995 -0.7578  0.4254
 4658WAT    EPW19354   1.939   2.832   1.386 -0.0460 -0.5044 -0.2583
 4659WAT      O19355   2.130   6.110   0.293  0.1658 -0.8360 -0.2887
 4659WAT     H119356   2.208   6.076   0.312  1.0026  0.1323 -1.7533
 4659WAT     H219357   2.138   6.194   0.316 -0.1417 -0.5424 -1.2065
 4659WAT    EPW19358   2.143   6.117   0.299  0.2440 -0.6496 -0.6407
 4660WAT      O19359   0.258   7.422   4.107  0.3880 -0.2624  0.2003
 4660WAT     H119360   0.225   7.502   4.097 -0.3980 -0.8024 -2.3488
 4660WAT     H219361   0.189   7.374   4.130  0.4891 -0.4838  0.0477
 4660WAT    EPW19362   0.243   7.427   4.109  0.2868 -0.3749 -0.1988
 4661WAT      O19363   3.363   2.768   0.073  0.0864 -0.2793  0.0124
 4661WAT     H119364   3.329   2.710   0.017  0.5009 -1.4282  0.9324
 4661WAT     H219365   3.367   2.725   0.148  0.3458  0.9737  0.7411
 4661WAT    EPW19366   3.358   2.753   0.076  0.1860 -0.2639  0.2559
 4662WAT      O19367   0.216   2.614   6.527  0.1935  0.1109  0.0371
 4662WAT     H119368   0.201   2.673   6.589  2.7600  0.7796  0.1276
 4662WAT     H219369   0.298   2.631   6.501  0.3669 -2.1996 -1.2621
 4662WAT    EPW19370   0.226   2.625   6.532  0.5982 -0.1317 -0.1414
 4663WAT      O19371   4.129   5.788   2.654 -0.3862  0.3754 -0.0453
 4663WAT     H119372   4.185   5.726   2.632  0.0790  0.3665  1.0703
 4663WAT     H219373   4.053   5.746   2.665 -0.2632  0.1467 -0.0873
 4663WAT    EPW19374   4.126   5.773   2.653 -0.2993  0.3403  0.1133
 4664WAT      O19375   1.922   1.209   1.299 -0.0741  0.2167  0.1632
 4664WAT     H119376   1.993   1.209   1.350  1.0176 -1.8983 -1.1989
 4664WAT     H219377   1.882   1.134   1.320 -0.1307 -0.1967 -1.2981
 4664WAT    EPW19378   1.927   1.198   1.310  0.0788 -0.1568 -0.2539
 4665WAT      O19379   3.032   3.248   7.057  0.1176 -0.4398  0.1155
 4665WAT     H119380   2.959   3.290   7.079 -0.2090 -1.4564  1.0396
 4665WAT     H219381   3.092   3.312   7.054 -0.6416  0.2833  0.1230
 4665WAT    EPW19382   3.030   3.264   7.060 -0.0428 -0.4832  0.2531
 4666WAT      O19383   3.242   7.150   1.097  0.4139 -0.4326 -0.2466
 4666WAT     H119384   3.193   7.106   1.040  0.9722 -0.1232 -0.9878
 4666WAT     H219385   3.294   7.088   1.130 -0.4412 -0.7577  0.5270
 4666WAT    EPW19386   3.243   7.134   1.093  0.3700 -0.4349 -0.2418
 4667WAT      O19387   7.205   2.453   6.186 -0.0623  0.0433 -0.5481
 4667WAT     H119388   7.238   2.533   6.173 -0.0292 -0.0077 -0.7741
 4667WAT     H219389   7.140   2.467   6.242 -0.0348  0.2261 -0.5612
 4667WAT    EPW19390   7.200   2.467   6.192 -0.0533  0.0628 -0.5834
 4668WAT      O19391   0.332   2.193   5.264 -0.3034 -0.0930 -0.4914
 4668WAT     H119392   0.281   2.142   5.312  1.0328 -0.4973  0.5688
 4668WAT     H219393   0.381   2.136   5.218  0.0118  0.2567 -0.5958
 4668WAT    EPW19394   0.332   2.177   5.264 -0.0595 -0.1011 -0.3502
 4669WAT      O19395   5.718   0.695   4.884 -0.5132 -0.2660  0.6815
 4669WAT     H119396   5.659   0.692   4.819 -0.2942 -1.0107  0.5088
 4669WAT     H219397   5.734   0.780   4.892 -1.5531 -0.0491  0.6841
 4669WAT    EPW19398   5.711   0.707   4.875 -0.6345 -0.3439  0.6564
 4670WAT      O19399   4.660   4.817   6.110  0.0023  0.1790  0.1364
 4670WAT     H119400   4.719   4.754   6.098  0.0065 -0.1445  1.6965
 4670WAT     H219401   4.672   4.841   6.193  1.9356  4.2242 -1.0547
 4670WAT    EPW19402   4.671   4.811   6.121  0.2885  0.7288  0.1909
 4671WAT      O19403   2.814   2.696   6.612  0.1616  0.6598 -0.0114
 4671WAT     H119404   2.822   2.657   6.535 -0.5467  0.0010  0.2332
 4671WAT     H219405   2.807   2.781   6.592 -0.1202  0.4822 -0.6782
 4671WAT    EPW19406   2.814   2.703   6.598  0.0154  0.5363 -0.0737
 4672WAT      O19407   0.987   5.725   4.077  0.1127 -0.5081 -0.3317
 4672WAT     H119408   1.008   5.760   4.155  1.8031 -1.2863 -0.3936
 4672WAT     H219409   1.058   5.679   4.056 -1.2238 -2.2308 -1.2618
 4672WAT    EPW19410   1.001   5.724   4.085  0.1650 -0.8775 -0.4782
 4673WAT      O19411   2.674   7.693   4.892 -0.1501  0.2553 -0.1296
 4673WAT     H119412   2.704   7.763   4.850  1.5735 -0.9599 -1.0535
 4673WAT     H219413   2.639   7.644   4.828  3.7567 -2.2800 -0.6569
 4673WAT    EPW19414   2.673   7.696   4.876  0.6816 -0.2987 -0.3440
 4674WAT      O19415   6.017   5.792   0.078  0.5997  0.0163 -0.1908
 4674WAT     H119416   6.056   5.753   0.146 -1.6427 -0.9412  0.6331
 4674WAT     H219417   6.026   5.735   0.013 -0.2357 -0.6686  0.2682
 4674WAT    EPW19418   6.024   5.778   0.079  0.1450 -0.2263 -0.0013
 4675WAT      O19419   3.880   4.224   6.629  0.1200 -0.7921 -0.2661
 4675WAT     H119420   3.898   4.245   6.546 -0.4677 -1.0005 -0.4525
 4675WAT     H219421   3.958   4.203   6.662  0.3556 -0.7438 -0.7811
 4675WAT    EPW19422   3.894   4.224   6.622  0.0680 -0.8158 -0.3697
 4676WAT      O19423   4.656   2.595   7.607 -0.0562  0.4961 -0.3821
 4676WAT     H119424   4.605   2.663   7.626 -2.7229 -1.7940  1.3896
 4676WAT     H219425   4.622   2.530   7.654  1.4862 -2.4439 -2.9877
 4676WAT    EPW19426   4.644   2.596   7.617 -0.2223 -0.2765 -0.5053
 4677WAT      O19427   5.990   2.153   6.470  0.1017  0.7944  0.1864
 4677WAT     H119428   5.968   2.143   6.554 -0.6527  0.6417 -0.0223
 4677WAT     H219429   6.053   2.095   6.458 -0.3436  0.2503  0.4433
 4677WAT    EPW19430   5.996   2.143   6.481 -0.0755  0.6914  0.1935
 4678WAT      O19431   2.621   1.174   2.825  0.1589  0.0823  0.4684
 4678WAT     H119432   2.656   1.175   2.905 -0.0671 -1.2769  0.5930
 4678WAT     H219433   2.681   1.214   2.776  0.3545  0.8191  1.2748
 4678WAT    EPW19434   2.635   1.180   2.829  0.1544 -0.0097  0.6059
 4679WAT      O19435   6.490   2.864   7.347  0.4101  0.0291 -0.1282
 4679WAT     H119436   6.521   2.929   7.397 -0.9739  0.5080  0.1416
 4679WAT     H219437   6.496   2.794   7.399  0.5409  0.2151  0.1072
 4679WAT    EPW19438   6.496   2.863   7.362  0.2250  0.1273 -0.0536
 4680WAT      O19439   5.198   3.114   7.609 -0.0933 -0.2967 -0.2543
 4680WAT     H119440   5.233   3.081   7.682  1.2956 -0.0832 -0.8044
 4680WAT     H219441   5.266   3.148   7.566 -0.5936 -1.8248 -2.4167
 4680WAT    EPW19442   5.213   3.114   7.613  0.0380 -0.4909 -0.6550
 4681WAT      O19443   2.753   5.479   7.556 -0.1079 -0.3420  0.3427
 4681WAT     H119444   2.741   5.432   7.484 -1.0054 -0.6804  0.7038
 4681WAT     H219445   2.831   5.516   7.543 -0.4024 -0.1063 -0.9627
 4681WAT    EPW19446   2.763   5.478   7.543 -0.2840 -0.3572  0.2032
 4682WAT      O19447   2.437   4.907   0.745 -0.6130  0.4318  0.1107
 4682WAT     H119448   2.504   4.945   0.786 -1.6421  0.2524  2.0724
 4682WAT     H219449   2.369   4.957   0.766 -1.1268  0.7545 -2.0498
 4682WAT    EPW19450   2.437   4.920   0.754 -0.8410  0.4530  0.0813
 4683WAT      O19451   7.417   4.598   6.487  0.1671 -0.9672  0.2593
 4683WAT     H119452   7.353   4.656   6.479 -0.0090 -1.2806 -0.6676
 4683WAT     H219453   7.480   4.629   6.436  0.8318 -0.5789  1.2819
 4683WAT    EPW19454   7.417   4.611   6.479  0.2393 -0.9561  0.2734
 4684WAT      O19455   1.268   6.275   6.006 -0.3844 -0.4501 -0.0016
 4684WAT     H119456   1.310   6.253   5.933  0.5080  0.2194  0.2880
 4684WAT     H219457   1.328   6.267   6.068 -1.2772 -1.5219  0.7639
 4684WAT    EPW19458   1.283   6.271   6.005 -0.3845 -0.5095  0.1543
 4685WAT      O19459   2.671   3.070   6.295 -0.3796 -0.7563 -0.0234
 4685WAT     H119460   2.687   3.035   6.216  3.3480  0.1519  0.1327
 4685WAT     H219461   2.689   3.155   6.283 -1.7910 -0.2255  1.3732
 4685WAT    EPW19462   2.676   3.077   6.281 -0.0375 -0.5438  0.2060
 4686WAT      O19463   4.983   4.200   7.397 -0.2379  0.4462  0.3131
 4686WAT     H119464   5.012   4.280   7.414 -1.1084  1.1207 -1.1761
 4686WAT     H219465   4.977   4.198   7.310  1.0142 -1.7099  0.2008
 4686WAT    EPW19466   4.986   4.211   7.387 -0.1815  0.2274  0.0765
 4687WAT      O19467   0.436   1.440   5.988  0.3087  0.6983  0.3382
 4687WAT     H119468   0.519   1.443   5.960  0.0511  5.3627 -0.7882
 4687WAT     H219469   0.392   1.409   5.920  0.9571 -0.4620  0.4274
 4687WAT    EPW19470   0.442   1.436   5.974  0.3665  1.2159  0.1850
 4688WAT      O19471   7.638   5.631   7.860  0.3083 -0.5293 -0.6623
 4688WAT     H119472   7.639   5.544   7.862  0.4402 -0.5215 -0.4483
 4688WAT     H219473   7.601   5.648   7.783 -1.0756 -0.7704 -0.0715
 4688WAT    EPW19474   7.633   5.621   7.849  0.1234 -0.5638 -0.5434
 4689WAT      O19475   5.647   1.935   1.740  0.3584  0.1277  0.3327
 4689WAT     H119476   5.631   1.893   1.815 -0.2616  0.5730  0.4525
 4689WAT     H219477   5.692   2.005   1.766 -0.0047  0.3714  0.3146
 4689WAT    EPW19478   5.651   1.939   1.755  0.2132  0.2295  0.3477
 4690WAT      O19479   6.428   7.431   6.727 -0.0099  0.0190 -0.5469
 4690WAT     H119480   6.494   7.479   6.756 -0.1944 -0.7850  1.3224
 4690WAT     H219481   6.466   7.371   6.676  0.3341  1.3785 -1.9697
 4690WAT    EPW19482   6.443   7.429   6.724  0.0136  0.1010 -0.4809
 4691WAT      O19483   3.350   3.556   1.311  0.4051  0.4028  0.0196
 4691WAT     H119484   3.301   3.485   1.323 -1.3184  0.7808 -3.4116
 4691WAT     H219485   3.430   3.524   1.295 -0.4650 -0.9641 -2.0927
 4691WAT    EPW19486   3.354   3.541   1.310  0.0220  0.2567 -0.7993
 4692WAT      O19487   6.752   0.374   6.823 -0.4408  0.2147 -0.0053
 4692WAT     H119488   6.788   0.296   6.808  0.1336  0.4646  0.0447
 4692WAT     H219489   6.810   0.414   6.875 -1.3044  0.2266  0.9792
 4692WAT    EPW19490   6.766   0.369   6.828 -0.4835  0.2534  0.1475
 4693WAT      O19491   5.210   4.842   7.202 -0.5154 -0.5328  0.1128
 4693WAT     H119492   5.286   4.882   7.221 -0.7812 -0.7598  1.8208
 4693WAT     H219493   5.229   4.796   7.130  1.2162 -1.1980  0.9234
 4693WAT    EPW19494   5.224   4.841   7.194 -0.2989 -0.6646  0.4849
 4694WAT      O19495   6.001   6.673   2.701  0.3668  1.0438  0.2813
 4694WAT     H119496   5.919   6.703   2.701 -0.7104 -1.5791  1.2195
 4694WAT     H219497   6.001   6.615   2.635  1.3109  0.6525  0.6083
 4694WAT    EPW19498   5.989   6.669   2.691  0.3472  0.5986  0.4682
 4695WAT      O19499   4.653   0.679   5.628 -0.0206  0.4422 -0.4914
 4695WAT     H119500   4.566   0.679   5.637  0.1275 -0.6902  1.5156
 4695WAT     H219501   4.673   0.596   5.609  0.7362  0.2067  1.1368
 4695WAT    EPW19502   4.643   0.667   5.626  0.1131  0.2401  0.0456
 4696WAT      O19503   6.521   6.368   0.744 -0.1533 -0.2970  0.9200
 4696WAT     H119504   6.492   6.434   0.695 -1.0995 -2.1304 -1.1596
 4696WAT     H219505   6.604   6.390   0.761  0.1887  0.5466 -1.4175
 4696WAT    EPW19506   6.529   6.381   0.739 -0.2426 -0.4432  0.2675
 4697WAT      O19507   7.338   2.807   7.515  0.6076 -0.2345 -0.1317
 4697WAT     H119508   7.328   2.722   7.498  0.1871 -0.4733  1.2034
 4697WAT     H219509   7.395   2.808   7.580  0.7864  0.5278 -0.2992
 4697WAT    EPW19510   7.345   2.794   7.522  0.5719 -0.1571  0.0408
 4698WAT      O19511   0.647   1.557   3.807  0.2426 -0.2652 -0.3015
 4698WAT     H119512   0.598   1.486   3.790  0.2350 -0.0960 -1.0135
 4698WAT     H219513   0.639   1.605   3.735  1.2264 -0.0927 -0.3106
 4698WAT    EPW19514   0.638   1.554   3.794  0.3868 -0.2147 -0.4080
 4699WAT      O19515   5.003   2.862   4.717 -0.0340  0.4045 -0.1079
 4699WAT     H119516   4.921   2.842   4.742 -0.0070 -4.1099 -2.5430
 4699WAT     H219517   5.052   2.807   4.763  1.1569  0.2276 -1.5209
 4699WAT    EPW19518   4.998   2.851   4.727  0.1459 -0.2885 -0.6763
 4700WAT      O19519   4.893   3.814   5.986  0.1618  0.0121 -0.1265
 4700WAT     H119520   4.948   3.857   5.934 -1.2214 -0.2278 -1.8856
 4700WAT     H219521   4.817   3.855   5.975 -0.8414 -1.8524 -0.6128
 4700WAT    EPW19522   4.890   3.826   5.977 -0.1907 -0.2988 -0.4582
 4701WAT      O19523   1.139   2.981   4.365  0.6702 -0.4887  0.3836
 4701WAT     H119524   1.087   2.995   4.433  1.1915  1.1115  0.4918
 4701WAT     H219525   1.123   3.049   4.312  1.1926 -1.0336 -0.5060
 4701WAT    EPW19526   1.129   2.993   4.367  0.8243 -0.3328  0.2682
 4702WAT      O19527   3.174   3.647   7.341 -0.1719  0.3092 -0.6322
 4702WAT     H119528   3.109   3.602   7.378  0.5321 -0.1922  0.0540
 4702WAT     H219529   3.242   3.630   7.393  0.6140  0.4442 -1.5814
 4702WAT    EPW19530   3.174   3.638   7.354  0.0482  0.2551 -0.6710
 4703WAT      O19531   2.281   2.417   1.990 -0.0995 -0.3606 -0.6635
 4703WAT     H119532   2.268   2.466   2.061  1.2824 -2.1721  0.9674
 4703WAT     H219533   2.366   2.426   1.973 -0.4208  0.0937 -2.1755
 4703WAT    EPW19534   2.292   2.425   1.998  0.0572 -0.5611 -0.6459
 4704WAT      O19535   5.580   7.014   6.616  0.1585  0.0359  0.2774
 4704WAT     H119536   5.512   7.067   6.617 -0.2853 -0.5288  1.1330
 4704WAT     H219537   5.638   7.052   6.669  1.0509  1.1543 -1.3977
 4704WAT    EPW19538   5.579   7.027   6.624  0.2248  0.1177  0.1564
 4705WAT      O19539   6.731   1.667   7.235  0.6025  0.3268  0.0159
 4705WAT     H119540   6.707   1.709   7.307  1.7003  1.5017 -0.2534
 4705WAT     H219541   6.777   1.727   7.191  1.6305 -0.9517 -0.7291
 4705WAT    EPW19542   6.735   1.682   7.239  0.9165  0.3115 -0.1339
 4706WAT      O19543   1.032   4.382   6.218  0.3293 -0.1674 -0.3386
 4706WAT     H119544   0.963   4.354   6.171  0.3771  0.5064 -0.8245
 4706WAT     H219545   1.058   4.453   6.175 -0.9269  1.7484  1.8568
 4706WAT    EPW19546   1.025   4.388   6.205  0.1508  0.2151 -0.0861
 4707WAT      O19547   2.571   4.301   0.015  0.5511 -0.2395 -0.3144
 4707WAT     H119548   2.487   4.313  -0.003  0.7307 -0.5076 -1.4007
 4707WAT     H219549   2.599   4.382   0.036  0.1962 -0.0193 -0.6868
 4707WAT    EPW19550   2.563   4.315   0.016  0.5252 -0.2466 -0.5299
 4708WAT      O19551   5.687   4.926   0.562 -0.0439 -0.5939  0.5367
 4708WAT     H119552   5.691   4.906   0.647  0.3411  1.7799  1.1524
 4708WAT     H219553   5.603   4.913   0.542 -0.6427  0.8026  1.8809
 4708WAT    EPW19554   5.675   4.921   0.572 -0.0755 -0.0370  0.8262
 4709WAT      O19555   5.393   4.746   1.689  0.3885  0.2243 -0.0852
 4709WAT     H119556   5.454   4.728   1.629  0.1843 -0.3058 -0.1348
 4709WAT     H219557   5.326   4.775   1.642  0.0480 -0.6633 -0.1636
 4709WAT    EPW19558   5.392   4.748   1.673  0.3080  0.0149 -0.1041
 4710WAT      O19559   4.077   2.705   6.118  0.2584 -0.1105 -0.2410
 4710WAT     H119560   4.126   2.766   6.080 -0.2149  0.5904  0.2569
 4710WAT     H219561   4.093   2.633   6.071  0.8048  0.3979 -0.8423
 4710WAT    EPW19562   4.087   2.703   6.106  0.2692  0.0682 -0.2563
 4711WAT      O19563   6.463   4.727   6.123 -0.0002  0.2541 -0.0532
 4711WAT     H119564   6.478   4.725   6.209 -0.8471 -0.2533  0.0966
 4711WAT     H219565   6.531   4.686   6.089  0.5233  0.7722  0.3430
 4711WAT    EPW19566   6.475   4.721   6.131 -0.0480  0.2557  0.0274
 4712WAT      O19567   4.185   4.204   5.256 -1.3002  0.1486 -0.1392
 4712WAT     H119568   4.159   4.287   5.245 -0.3999  0.5080  0.3676
 4712WAT     H219569   4.124   4.158   5.214 -1.4339  1.1036 -1.0369
 4712WAT    EPW19570   4.172   4.209   5.248 -1.1870  0.3428 -0.1970
 4713WAT      O19571   5.008   0.267   6.881 -0.1924 -0.3122  0.0105
 4713WAT     H119572   5.021   0.347   6.848 -1.4028 -1.3436 -3.4610
 4713WAT     H219573   4.957   0.282   6.950  0.3117  1.9493 -0.0043
 4713WAT    EPW19574   5.002   0.281   6.886 -0.2967 -0.1305 -0.5045
 4714WAT      O19575   1.647   4.254   4.161  0.1166  0.5549 -0.6857
 4714WAT     H119576   1.643   4.181   4.112 -0.5935  0.7588 -0.9476
 4714WAT     H219577   1.725   4.287   4.142  0.4151 -0.0931 -0.6320
 4714WAT    EPW19578   1.658   4.248   4.151  0.0558  0.4893 -0.7164
 4715WAT      O19579   5.456   2.062   3.178 -0.0732  1.0361  0.0999
 4715WAT     H119580   5.469   2.148   3.192  0.9099  0.9003  0.0959
 4715WAT     H219581   5.533   2.026   3.200 -0.0868  0.2883 -1.0274
 4715WAT    EPW19582   5.470   2.070   3.184  0.0700  0.9056 -0.0672
 4716WAT      O19583   5.855   0.502   5.920 -0.0757 -0.1650 -0.1167
 4716WAT     H119584   5.831   0.584   5.900  2.5063  0.5216 -0.7150
 4716WAT     H219585   5.829   0.456   5.850 -1.0087  0.2133 -0.0412
 4716WAT    EPW19586   5.847   0.507   5.906  0.1679 -0.0077 -0.1939
 4717WAT      O19587   0.964   5.863   7.715 -0.1814 -0.1805  0.1080
 4717WAT     H119588   0.973   5.777   7.702 -1.6833 -0.9056  3.0014
 4717WAT     H219589   0.880   5.871   7.738  0.0015  2.0358  0.1824
 4717WAT    EPW19590   0.953   5.852   7.717 -0.3763  0.0398  0.5464
 4718WAT      O19591   0.477   0.969   4.880 -0.1903 -0.1828  0.0660
 4718WAT     H119592   0.449   0.895   4.918 -2.4388  1.6151  2.2058
 4718WAT     H219593   0.419   0.983   4.816  0.6381 -0.5814 -0.7923
 4718WAT    EPW19594   0.464   0.960   4.876 -0.4001  0.0239  0.2553
 4719WAT      O19595   6.071   0.443   5.509  0.8823 -0.1801  0.2561
 4719WAT     H119596   6.135   0.492   5.544 -1.6600  2.5383  1.5153
 4719WAT     H219597   6.077   0.462   5.424 -0.0543  2.6210  0.6987
 4719WAT    EPW19598   6.082   0.453   5.501  0.3684  0.6352  0.5075
 4720WAT      O19599   1.647   1.039   4.156 -0.0403 -0.0244  0.1965
 4720WAT     H119600   1.570   1.080   4.146  0.0785  0.5911  1.5773
 4720WAT     H219601   1.701   1.103   4.179  0.6833 -0.6020  0.1207
 4720WAT    EPW19602   1.643   1.054   4.158  0.0842 -0.0188  0.3893
 4721WAT      O19603   2.868   3.175   5.692  0.1928 -0.0411  0.2610
 4721WAT     H119604   2.923   3.109   5.674 -1.0445 -1.1239  0.2541
 4721WAT     H219605   2.817   3.178   5.621 -1.2352 -0.6627  1.2153
 4721WAT    EPW19606   2.869   3.166   5.679 -0.2009 -0.2928  0.4009
 4722WAT      O19607   2.845   4.043   5.615 -0.3855  0.5103  0.4840
 4722WAT     H119608   2.849   3.982   5.676 -0.7730  1.1247  1.1389
 4722WAT     H219609   2.843   3.998   5.540 -2.9467 -0.3862  1.0176
 4722WAT    EPW19610   2.845   4.028   5.613 -0.8211  0.4686  0.6596
 4723WAT      O19611   7.640   3.035   5.200  0.2682 -0.6088 -0.3224
 4723WAT     H119612   7.564   3.070   5.173 -0.1698 -0.7590  0.6810
 4723WAT     H219613   7.617   2.989   5.270  1.4139 -0.0542  0.4373
 4723WAT    EPW19614   7.625   3.033   5.206  0.3728 -0.5491 -0.0619
 4724WAT      O19615   7.572   5.040   6.834  0.0254  0.0305 -0.3802
 4724WAT     H119616   7.622   5.099   6.874 -0.1726  0.1795 -0.3468
 4724WAT     H219617   7.629   4.989   6.792  0.5119 -1.8903  2.3127
 4724WAT    EPW19618   7.588   5.041   6.834  0.0680 -0.2312  0.0225
 4725WAT      O19619   5.493   5.017   6.263  0.3203 -0.1223  0.4224
 4725WAT     H119620   5.438   5.081   6.286  1.3077  1.0118 -0.3287
 4725WAT     H219621   5.450   4.944   6.288 -1.4249  0.7269  0.0399
 4725WAT    EPW19622   5.478   5.015   6.270  0.2083  0.1707  0.2549
 4726WAT      O19623   3.770   4.520   0.866 -0.6820  0.0630 -0.1324
 4726WAT     H119624   3.801   4.513   0.785  1.3612 -0.0938  0.6137
 4726WAT     H219625   3.809   4.592   0.896  1.0084 -1.5336  1.6951
 4726WAT    EPW19626   3.780   4.530   0.858 -0.1305 -0.1960  0.2478
 4727WAT      O19627   4.631   1.023   4.234 -0.1427 -0.0770 -0.3347
 4727WAT     H119628   4.699   1.070   4.259 -0.5959  0.5479 -0.2473
 4727WAT     H219629   4.573   1.035   4.298  0.0660 -1.5289  0.1738
 4727WAT    EPW19630   4.632   1.032   4.247 -0.1789 -0.1992 -0.2466
 4728WAT      O19631   5.462   6.883   0.241 -0.0730  0.6568 -0.7157
 4728WAT     H119632   5.465   6.889   0.154 -2.8294  0.3356 -0.9159
 4728WAT     H219633   5.399   6.939   0.264  1.2397  1.4616  1.2193
 4728WAT    EPW19634   5.453   6.892   0.232 -0.2863  0.7283 -0.4594
 4729WAT      O19635   1.024   4.618   5.835  0.4941 -0.5628 -0.7903
 4729WAT     H119636   0.942   4.626   5.807  0.4571 -0.2832 -0.6069
 4729WAT     H219637   1.067   4.678   5.788  0.6085 -0.7587 -0.9389
 4729WAT    EPW19638   1.018   4.628   5.824  0.5055 -0.5504 -0.7852
 4730WAT      O19639   3.497   4.026   5.872 -0.0184 -0.1818  0.4192
 4730WAT     H119640   3.483   3.948   5.836  0.2914 -0.3406  0.6454
 4730WAT     H219641   3.581   4.041   5.859 -0.1965  0.3763 -0.1316
 4730WAT    EPW19642   3.507   4.017   5.865  0.0010 -0.1228  0.3713
 4731WAT      O19643   7.293   7.131   6.600  0.0382  0.3410  0.4179
 4731WAT     H119644   7.321   7.137   6.682  1.9591 -0.6102 -0.1012
 4731WAT     H219645   7.310   7.048   6.579  0.4322  0.7978 -1.2148
 4731WAT    EPW19646   7.299   7.119   6.609  0.3802  0.2680  0.1000
 4732WAT      O19647   5.655   1.424   7.497 -0.2296 -0.2357  0.1406
 4732WAT     H119648   5.610   1.472   7.440 -0.8734 -1.2604 -0.2469
 4732WAT     H219649   5.643   1.465   7.573 -1.0300  0.0287 -0.1233
 4732WAT    EPW19650   5.647   1.437   7.500 -0.4430 -0.3480  0.0444
 4733WAT      O19651   4.079   5.629   3.822 -0.2817  0.1454 -0.1509
 4733WAT     H119652   4.017   5.571   3.799 -0.9790  1.3655 -1.4557
 4733WAT     H219653   4.049   5.660   3.898 -1.8378  1.4315 -1.2294
 4733WAT    EPW19654   4.065   5.625   3.830 -0.6146  0.5156 -0.5029
 4734WAT      O19655   3.644   1.938   6.930 -0.1194 -0.1845  0.0175
 4734WAT     H119656   3.570   1.897   6.952  0.5068 -1.2899  0.1172
 4734WAT     H219657   3.692   1.932   7.002  0.9480 -1.5226 -0.7728
 4734WAT    EPW19658   3.640   1.931   6.944  0.1308 -0.5454 -0.0845
 4735WAT      O19659   0.690   4.278   5.319 -0.0759  0.3395 -0.0258
 4735WAT     H119660   0.656   4.353   5.291 -0.2362  0.2920  0.0394
 4735WAT     H219661   0.638   4.256   5.386 -0.4455 -0.1803 -0.4779
 4735WAT    EPW19662   0.677   4.286   5.325 -0.1542  0.2557 -0.0829
 4736WAT      O19663   1.697   1.997   4.466  0.1855  0.1711  0.0303
 4736WAT     H119664   1.730   2.072   4.436 -0.9835  0.7065  0.0188
 4736WAT     H219665   1.728   1.991   4.547  1.4383 -0.0742 -0.4434
 4736WAT    EPW19666   1.706   2.007   4.473  0.1979  0.2139 -0.0414
 4737WAT      O19667   4.691   4.712   5.770  0.3959 -0.6204  0.8480
 4737WAT     H119668   4.656   4.650   5.719 -1.0036  0.5574  0.2987
 4737WAT     H219669   4.641   4.782   5.754  0.3676  0.0056  3.3069
 4737WAT    EPW19670   4.678   4.713   5.760  0.1849 -0.3539  1.1301
 4738WAT      O19671   2.604   7.604   5.671 -0.0088 -0.9718  0.5664
 4738WAT     H119672   2.671   7.649   5.704  0.1913 -2.1275  1.8300
 4738WAT     H219673   2.628   7.589   5.588 -0.1197  1.2221  0.0714
 4738WAT    EPW19674   2.617   7.608   5.663  0.0044 -0.8184  0.6800
 4739WAT      O19675   5.890   3.695   4.416 -0.3299 -0.3226 -0.0500
 4739WAT     H119676   5.920   3.750   4.477  1.9511 -0.3201 -1.0352
 4739WAT     H219677   5.862   3.749   4.353  0.1180 -0.2867 -0.2233
 4739WAT    EPW19678   5.890   3.711   4.416  0.0732 -0.3170 -0.2211
 4740WAT      O19679   6.465   4.546   7.319 -0.3082 -0.1467 -0.8526
 4740WAT     H119680   6.524   4.482   7.310  0.7306  0.5659  0.4629
 4740WAT     H219681   6.489   4.604   7.259  0.1730  0.0060 -0.5233
 4740WAT    EPW19682   6.477   4.545   7.309 -0.0837 -0.0189 -0.6096
 4741WAT      O19683   1.143   6.875   4.427  0.7254  0.5346 -0.3735
 4741WAT     H119684   1.144   6.853   4.342 -0.0637  0.3699 -0.3453
 4741WAT     H219685   1.083   6.822   4.461 -1.2489  2.6811 -0.2944
 4741WAT    EPW19686   1.135   6.864   4.419  0.3172  0.8273 -0.3577
 4742WAT      O19687   6.454   3.030   4.274  0.2579 -0.5765  0.4238
 4742WAT     H119688   6.489   2.978   4.335  0.4389 -1.2522 -0.2480
 4742WAT     H219689   6.375   2.996   4.261  0.2030 -0.4062  0.3102
 4742WAT    EPW19690   6.448   3.017   4.281  0.2765 -0.6511  0.3078
 4743WAT      O19691   5.951   0.219   0.052  0.3185  0.0443  0.1762
 4743WAT     H119692   6.019   0.275   0.053  1.1370 -0.8790 -1.3234
 4743WAT     H219693   5.883   0.270   0.032  0.8625  0.6835 -0.0713
 4743WAT    EPW19694   5.951   0.235   0.049  0.5197  0.0023 -0.0819
 4744WAT      O19695   6.286   3.965   4.271  0.2783  0.1425 -0.0132
 4744WAT     H119696   6.301   3.882   4.249 -0.2428 -0.5439  2.0090
 4744WAT     H219697   6.288   4.007   4.195  2.3612 -1.4238 -0.9004
 4744WAT    EPW19698   6.288   3.959   4.257  0.5090 -0.1902  0.1545
 4745WAT      O19699   6.480   3.145   5.347 -0.6385  0.4818 -0.1964
 4745WAT     H119700   6.522   3.213   5.312  0.1176  0.7085  1.0859
 4745WAT     H219701   6.540   3.107   5.397 -0.7739 -1.7045 -1.5868
 4745WAT    EPW19702   6.495   3.150   5.349 -0.5468  0.1923 -0.2124
 4746WAT      O19703   4.053   6.998   4.909  0.4566 -0.6175 -0.9157
 4746WAT     H119704   4.112   6.995   4.845  0.4134 -1.7501 -0.9165
 4746WAT     H219705   4.023   6.916   4.913 -0.9229 -0.1182 -0.7261
 4746WAT    EPW19706   4.057   6.985   4.900  0.2464 -0.7111 -0.8878
 4747WAT      O19707   5.439   4.151   5.704 -0.2569 -0.1779 -0.2491
 4747WAT     H119708   5.489   4.105   5.759 -0.4765 -0.8057 -0.5586
 4747WAT     H219709   5.392   4.202   5.756  1.2036  0.9660  0.0199
 4747WAT    EPW19710   5.440   4.152   5.720 -0.0736 -0.1017 -0.2551
 4748WAT      O19711   4.484   2.168   4.562 -0.4277 -1.0104  1.1957
 4748WAT     H119712   4.451   2.248   4.568  0.3685 -0.6656  1.1204
 4748WAT     H219713   4.555   2.171   4.613  0.6977 -1.0766 -0.3082
 4748WAT    EPW19714   4.490   2.180   4.570 -0.1438 -0.9693  0.9624
 4749WAT      O19715   5.902   6.152   1.921  0.0787  0.2513  0.2543
 4749WAT     H119716   5.917   6.084   1.868 -1.3208  0.6705 -0.7483
 4749WAT     H219717   5.828   6.130   1.961 -1.3696  1.8535 -1.3683
 4749WAT    EPW19718   5.893   6.138   1.919 -0.3420  0.5499 -0.1335
 4750WAT      O19719   3.863   3.528   1.637 -0.7570 -0.0360  0.1151
 4750WAT     H119720   3.916   3.489   1.694 -0.9373 -0.5400 -0.0522
 4750WAT     H219721   3.810   3.463   1.611 -2.0275  0.6464  0.9307
 4750WAT    EPW19722   3.863   3.512   1.642 -0.9713 -0.0097  0.2109
 4751WAT      O19723   3.460   1.408   2.983 -0.5324 -0.0666 -0.3040
 4751WAT     H119724   3.463   1.375   2.902  0.1336 -0.7984  0.0100
 4751WAT     H219725   3.432   1.490   2.970  1.1184  0.3742 -1.4651
 4751WAT    EPW19726   3.457   1.415   2.969 -0.1902 -0.1096 -0.4291
 4752WAT      O19727   1.121   6.922   3.289  0.3229  0.3487 -0.3639
 4752WAT     H119728   1.122   6.975   3.359 -2.0540  1.9716 -1.4375
 4752WAT     H219729   1.103   6.844   3.323  1.5972  0.6170  1.0348
 4752WAT    EPW19730   1.118   6.918   3.305  0.1600  0.6281 -0.3159
 4753WAT      O19731   6.180   4.463   6.298 -0.4232 -0.5251  0.4020
 4753WAT     H119732   6.209   4.540   6.267 -0.4153 -0.4965  0.4795
 4753WAT     H219733   6.093   4.473   6.297 -0.4609 -0.8993 -0.5699
 4753WAT    EPW19734   6.171   4.476   6.294 -0.4276 -0.5762  0.2699
 4754WAT      O19735   6.375   2.124   3.772 -0.2054 -0.4239  0.0465
 4754WAT     H119736   6.306   2.123   3.825  0.2631  1.2186  0.7335
 4754WAT     H219737   6.364   2.196   3.725  0.6237 -0.5875 -0.4193
 4754WAT    EPW19738   6.363   2.134   3.773 -0.0137 -0.2055  0.0791
 4755WAT      O19739   6.150   5.460   5.750  0.1188 -0.0740 -0.2267
 4755WAT     H119740   6.147   5.373   5.758  2.2747 -0.3346 -1.6516
 4755WAT     H219741   6.126   5.474   5.667  1.2574  0.5430 -0.4680
 4755WAT    EPW19742   6.146   5.449   5.739  0.6055 -0.0213 -0.4728
 4756WAT      O19743   5.787   5.017   2.837  0.1066 -0.1774 -0.6717
 4756WAT     H119744   5.838   4.963   2.791  0.0158 -0.2108 -0.7315
 4756WAT     H219745   5.840   5.043   2.902  0.3745  0.2102 -1.0389
 4756WAT    EPW19746   5.802   5.013   2.840  0.1328 -0.1250 -0.7348
 4757WAT      O19747   5.006   2.312   4.930 -0.4796 -0.1586  0.5837
 4757WAT     H119748   5.005   2.231   4.898  0.4846  0.1951 -0.4450
 4757WAT     H219749   4.947   2.355   4.881  0.3039  0.1578 -0.1164
 4757WAT    EPW19750   4.997   2.307   4.918 -0.2214 -0.0596  0.3283
 4758WAT      O19751   5.744   2.778   7.417 -0.2711 -0.2242  0.3452
 4758WAT     H119752   5.660   2.762   7.401  0.0039 -1.3270 -0.0837
 4758WAT     H219753   5.766   2.838   7.358 -0.5208 -0.6384 -0.1723
 4758WAT    EPW19754   5.735   2.784   7.406 -0.2673 -0.4483  0.2054
 4759WAT      O19755   6.024   4.337   4.596 -0.0359  0.4387  0.1908
 4759WAT     H119756   6.060   4.258   4.600  1.0704  0.9456  0.6684
 4759WAT     H219757   6.005   4.346   4.512  0.9146  0.1212 -0.0730
 4759WAT    EPW19758   6.027   4.327   4.584  0.2679  0.4667  0.2224
 4760WAT      O19759   7.536   5.773   5.954  0.2176  0.1391 -0.0683
 4760WAT     H119760   7.522   5.859   5.955 -1.9526 -0.1661  0.6142
 4760WAT     H219761   7.498   5.748   5.880 -0.4326 -0.3954  0.4376
 4760WAT    EPW19762   7.528   5.782   5.943 -0.1990  0.0150  0.1073
 4761WAT      O19763   4.928   5.637   6.062  0.1578 -0.0002 -0.1016
 4761WAT     H119764   4.876   5.693   6.105 -0.0890 -0.3418  0.0436
 4761WAT     H219765   4.943   5.678   5.986 -0.4362  0.0406 -0.2032
 4761WAT    EPW19766   4.922   5.651   6.057  0.0336 -0.0446 -0.0952
 4762WAT      O19767   5.498   1.466   4.175  0.3805 -0.4788 -0.3571
 4762WAT     H119768   5.450   1.421   4.232 -1.2374  2.0121  0.4322
 4762WAT     H219769   5.487   1.422   4.100 -3.3109 -0.0537 -0.2351
 4762WAT    EPW19770   5.489   1.453   4.172 -0.4038 -0.0480 -0.2225
 4763WAT      O19771   6.398   5.290   3.349  0.1458 -0.4222 -0.6605
 4763WAT     H119772   6.447   5.328   3.287 -0.9900  1.2131 -0.5946
 4763WAT     H219773   6.429   5.324   3.423 -0.9588  0.5198 -0.6100
 4763WAT    EPW19774   6.410   5.300   3.351 -0.1851 -0.0415 -0.6433
 4764WAT      O19775   0.667   3.694   3.958 -0.0626  0.3465  0.6026
 4764WAT     H119776   0.663   3.761   3.902 -1.5350 -0.3056 -0.1315
 4764WAT     H219777   0.670   3.733   4.036  1.8624  1.2713  0.1337
 4764WAT    EPW19778   0.667   3.710   3.961  0.0043  0.3868  0.4249
 4765WAT      O19779   4.595   1.666   2.379  0.2218  0.1816  0.2762
 4765WAT     H119780   4.650   1.648   2.314 -2.1308 -0.2371 -1.7535
 4765WAT     H219781   4.605   1.600   2.434  1.8337  0.2152  0.0498
 4765WAT    EPW19782   4.604   1.654   2.378  0.1124  0.1247 -0.0570
 4766WAT      O19783   0.334   4.779   4.927  0.2203 -0.7658 -0.5298
 4766WAT     H119784   0.307   4.798   5.008  0.7903  2.5791 -0.9723
 4766WAT     H219785   0.409   4.737   4.940  0.5843  0.2025  0.7461
 4766WAT    EPW19786   0.341   4.776   4.941  0.3583 -0.1287 -0.4067
 4767WAT      O19787   0.708   1.971   3.720  0.3814  0.4521  0.1766
 4767WAT     H119788   0.626   1.988   3.744  0.2411 -0.4977  0.4275
 4767WAT     H219789   0.699   1.900   3.670  1.0688  0.2392  0.3517
 4767WAT    EPW19790   0.694   1.963   3.716  0.4622  0.2804  0.2395
 4768WAT      O19791   7.722   0.792   5.389 -0.0644  0.0258 -0.3862
 4768WAT     H119792   7.744   0.872   5.418  4.1496 -0.7967 -0.7832
 4768WAT     H219793   7.742   0.740   5.457 -1.2664 -0.8925 -0.7040
 4768WAT    EPW19794   7.728   0.797   5.404  0.3805 -0.2314 -0.4918
 4769WAT      O19795   4.215   3.591   4.172  0.5605 -0.1905 -0.1002
 4769WAT     H119796   4.269   3.576   4.105  0.1390 -0.4511 -0.3828
 4769WAT     H219797   4.243   3.535   4.233 -0.3618 -1.4768 -0.7919
 4769WAT    EPW19798   4.227   3.580   4.171  0.3620 -0.4190 -0.2441
 4770WAT      O19799   4.262   4.073   4.937  0.7615  0.1273  0.1052
 4770WAT     H119800   4.180   4.087   4.965 -0.0883  1.2811 -2.5253
 4770WAT     H219801   4.249   4.041   4.856  2.8761  1.9596 -1.0433
 4770WAT    EPW19802   4.248   4.070   4.929  0.9483  0.5684 -0.4530
 4771WAT      O19803   1.809   4.727   5.396  0.2088 -0.3510  0.6480
 4771WAT     H119804   1.865   4.661   5.398 -0.6203 -1.0612  1.1511
 4771WAT     H219805   1.818   4.759   5.315  0.2845 -1.3810  0.2298
 4771WAT    EPW19806   1.818   4.722   5.384  0.0975 -0.6081  0.6605
 4772WAT      O19807   6.402   3.075   4.575  0.5825  0.1570  0.3319
 4772WAT     H119808   6.474   3.124   4.584 -0.2099  1.1791  1.3977
 4772WAT     H219809   6.376   3.062   4.657  0.9272 -2.3664  0.1243
 4772WAT    EPW19810   6.409   3.080   4.589  0.5163 -0.0648  0.4587
 4773WAT      O19811   1.229   4.141   3.937 -0.1910  0.0249 -0.2451
 4773WAT     H119812   1.232   4.066   3.981  1.3617 -1.0646 -2.0235
 4773WAT     H219813   1.282   4.193   3.983 -1.6079  0.2183  1.2347
 4773WAT    EPW19814   1.238   4.138   3.950 -0.1710 -0.1075 -0.2892
 4774WAT      O19815   4.004   6.551   3.351 -0.0375 -0.4331  0.1872
 4774WAT     H119816   4.023   6.488   3.294 -0.2239 -0.1918 -0.1428
 4774WAT     H219817   3.917   6.547   3.358 -0.3219  1.3364 -1.6566
 4774WAT    EPW19818   3.994   6.541   3.344 -0.1071 -0.1360 -0.1339
 4775WAT      O19819   2.379   3.171   4.679  0.3737 -0.2160  0.1916
 4775WAT     H119820   2.457   3.143   4.650  0.8176 -0.2752  1.4016
 4775WAT     H219821   2.353   3.108   4.733 -0.1980  0.1289  0.3238
 4775WAT    EPW19822   2.387   3.158   4.682  0.3548 -0.1738  0.3899
 4776WAT      O19823   4.453   4.290   4.923 -0.3204 -0.1966 -0.5429
 4776WAT     H119824   4.411   4.366   4.932 -0.3653 -0.4949  2.5839
 4776WAT     H219825   4.389   4.233   4.907 -0.5165  0.0909 -0.8099
 4776WAT    EPW19826   4.437   4.293   4.922 -0.3560 -0.1982 -0.1205
 4777WAT      O19827   3.590   3.447   1.250 -0.3482 -0.7770 -0.5247
 4777WAT     H119828   3.605   3.375   1.203  1.2668  0.2973 -1.7649
 4777WAT     H219829   3.652   3.502   1.223 -0.4095  0.4921  1.6777
 4777WAT    EPW19830   3.602   3.444   1.239 -0.1187 -0.4308 -0.3825
 4778WAT      O19831   1.904   3.417   0.847 -0.2934 -0.1443  0.2065
 4778WAT     H119832   1.878   3.424   0.764  1.7915 -0.4849 -0.5439
 4778WAT     H219833   1.905   3.331   0.862  2.1754 -0.2984 -0.4743
 4778WAT    EPW19834   1.900   3.405   0.837  0.3793 -0.2174 -0.0049
 4779WAT      O19835   3.860   7.346   7.085  0.1678 -0.0900  0.0445
 4779WAT     H119836   3.911   7.322   7.018 -0.4185  0.5879 -0.6706
 4779WAT     H219837   3.891   7.300   7.152  1.1962 -0.2889 -0.5498
 4779WAT    EPW19838   3.872   7.335   7.085  0.2331 -0.0192 -0.1489
 4780WAT      O19839   0.101   4.694   7.123 -0.1930  0.1951  0.3980
 4780WAT     H119840   0.056   4.769   7.125 -3.0913 -1.4141  1.1944
 4780WAT     H219841   0.157   4.706   7.058 -2.0176  2.2839 -0.9599
 4780WAT    EPW19842   0.102   4.707   7.114 -0.8907  0.2660  0.3150
 4781WAT      O19843   2.191   4.188   0.951  0.1639 -0.0501  0.4567
 4781WAT     H119844   2.262   4.191   0.901  0.1701 -0.1258  0.4613
 4781WAT     H219845   2.222   4.197   1.032  0.4265 -2.4239  0.6908
 4781WAT    EPW19846   2.206   4.190   0.956  0.2036 -0.4119  0.4920
 4782WAT      O19847   5.665   1.869   0.358  0.1887  0.2759  0.5816
 4782WAT     H119848   5.697   1.910   0.428 -0.8999  2.4430 -0.1156
 4782WAT     H219849   5.662   1.931   0.297  1.2824 -1.5735 -1.5239
 4782WAT    EPW19850   5.670   1.884   0.360  0.1894  0.3228  0.1676
 4783WAT      O19851   5.775   5.345   6.384  0.8626 -0.2943 -0.4131
 4783WAT     H119852   5.819   5.413   6.352  2.1572 -1.3175 -0.8798
 4783WAT     H219853   5.771   5.360   6.470  1.5599  0.1365 -0.4559
 4783WAT    EPW19854   5.781   5.357   6.392  1.1568 -0.3818 -0.4884
 4784WAT      O19855   0.628   5.496   5.074  0.2865  0.1026  0.0110
 4784WAT     H119856   0.602   5.416   5.052  1.9257  0.0410 -2.0762
 4784WAT     H219857   0.555   5.534   5.103 -0.6082 -1.9944  0.7104
 4784WAT    EPW19858   0.613   5.490   5.075  0.3965 -0.2163 -0.1940
 4785WAT      O19859   4.000   4.420   4.850  0.2915  0.1655  0.4888
 4785WAT     H119860   3.974   4.380   4.923  1.2137 -0.7049  0.3678
 4785WAT     H219861   4.019   4.354   4.796  0.1076  0.7921 -0.3691
 4785WAT    EPW19862   3.999   4.404   4.853  0.4005  0.1295  0.3442
 4786WAT      O19863   4.976   2.127   0.782  0.2435  0.2516 -0.5153
 4786WAT     H119864   4.908   2.175   0.757  0.3302 -0.6672 -2.7317
 4786WAT     H219865   4.940   2.049   0.798  0.6387 -0.0191 -0.9179
 4786WAT    EPW19866   4.960   2.122   0.781  0.3146  0.0759 -0.9022
 4787WAT      O19867   4.593   3.794   3.998 -0.1224  0.0023  0.2934
 4787WAT     H119868   4.607   3.841   4.070 -0.6012  1.4551 -0.5302
 4787WAT     H219869   4.671   3.794   3.959  0.1133 -0.7061  0.7364
 4787WAT    EPW19870   4.607   3.801   4.003 -0.1584  0.1123  0.2372
 4788WAT      O19871   3.308   1.654   0.896 -0.4461 -0.3487  0.2893
 4788WAT     H119872   3.311   1.663   0.982 -0.8621 -2.3388  0.5407
 4788WAT     H219873   3.370   1.596   0.878  0.7434  1.2257 -0.9695
 4788WAT    EPW19874   3.317   1.647   0.906 -0.3319 -0.4101  0.1405
 4789WAT      O19875   3.747   4.004   4.723 -0.1031  0.4072  0.2440
 4789WAT     H119876   3.736   4.069   4.781  2.4607  0.4697  0.7628
 4789WAT     H219877   3.697   4.028   4.656  1.0451  3.2150  0.2460
 4789WAT    EPW19878   3.738   4.017   4.721  0.4453  0.8312  0.3209
 4790WAT      O19879   5.556   4.439   0.158 -0.1031 -0.2807 -0.0959
 4790WAT     H119880   5.592   4.484   0.093  1.7564 -1.7658 -0.1618
 4790WAT     H219881   5.482   4.408   0.124 -0.5655  1.2611 -0.5693
 4790WAT    EPW19882   5.550   4.441   0.144  0.1033 -0.2723 -0.1756
 4791WAT      O19883   4.669   6.887   6.559 -0.1116 -0.5393 -0.2557
 4791WAT     H119884   4.699   6.856   6.483 -0.9693 -1.0191 -0.4149
 4791WAT     H219885   4.688   6.823   6.615  0.6286 -0.1348 -0.0259
 4791WAT    EPW19886   4.677   6.873   6.556 -0.1290 -0.5504 -0.2453
 4792WAT      O19887   5.969   0.686   6.188  0.3954  0.0693 -0.0500
 4792WAT     H119888   5.900   0.683   6.241 -1.2235  0.8727 -1.9915
 4792WAT     H219889   5.973   0.605   6.154 -0.0301  0.2152 -0.4515
 4792WAT    EPW19890   5.960   0.673   6.191  0.0934  0.2095 -0.3961
 4793WAT      O19891   5.017   3.928   4.262  0.4590 -0.1944 -0.4140
 4793WAT     H119892   4.972   3.854   4.277 -1.3600  1.2216  1.8435
 4793WAT     H219893   4.971   3.967   4.198  1.9794 -1.3441 -2.3158
 4793WAT    EPW19894   5.003   3.923   4.254  0.4149 -0.1551 -0.3615
 4794WAT      O19895   5.252   4.430   1.775  0.0643  0.3538 -0.4361
 4794WAT     H119896   5.173   4.450   1.744  0.1138 -0.4437 -1.1256
 4794WAT     H219897   5.277   4.502   1.816 -1.3823  0.3382  0.5569
 4794WAT    EPW19898   5.244   4.443   1.777 -0.1421  0.2337 -0.3913
 4795WAT      O19899   1.748   6.185   6.434  0.7324 -0.3834  0.3658
 4795WAT     H119900   1.671   6.219   6.410  1.0548 -1.0546 -1.9220
 4795WAT     H219901   1.793   6.253   6.463  0.4441  0.7176 -1.5869
 4795WAT    EPW19902   1.743   6.200   6.435  0.7374 -0.3199 -0.2606
 4796WAT      O19903   7.153   5.589   4.019 -0.6150  0.6417  0.1497
 4796WAT     H119904   7.227   5.555   3.986 -1.5911 -1.1313 -0.3246
 4796WAT     H219905   7.158   5.568   4.104 -0.4578  0.7336  0.1642
 4796WAT    EPW19906   7.165   5.581   4.027 -0.7360  0.3934  0.0818
 4797WAT      O19907   5.805   5.651   6.679  0.0460 -0.0542  0.2606
 4797WAT     H119908   5.876   5.702   6.682 -0.6187  0.8600  0.9222
 4797WAT     H219909   5.740   5.706   6.659 -1.0163 -0.2289  2.8445
 4797WAT    EPW19910   5.806   5.666   6.676 -0.2091  0.0551  0.7401
 4798WAT      O19911   5.372   6.662   4.886  0.3984  0.4536  0.0233
 4798WAT     H119912   5.322   6.733   4.881 -1.5228 -0.8881 -1.4737
 4798WAT     H219913   5.322   6.599   4.851  2.5971 -1.3303 -0.1553
 4798WAT    EPW19914   5.357   6.663   4.880  0.4394 -0.0082 -0.2242
 4799WAT      O19915   6.077   4.755   0.602 -0.7544  0.5858  0.7199
 4799WAT     H119916   6.026   4.806   0.553 -1.0350  0.1413  0.5456
 4799WAT     H219917   6.073   4.793   0.680 -0.7695  0.9694  0.5393
 4799WAT    EPW19918   6.069   4.768   0.606 -0.7981  0.5768  0.6674
 4800WAT      O19919   0.027   3.096   5.797  0.0793 -0.8654 -0.4377
 4800WAT     H119920   0.066   3.171   5.820 -1.3127  0.2115 -1.4496
 4800WAT     H219921   0.025   3.051   5.871 -1.5151  1.2286  0.9074
 4800WAT    EPW19922   0.033   3.101   5.811 -0.3619 -0.3970 -0.3885
 4801WAT      O19923   3.744   5.978   2.760  1.0766  0.8784 -0.2008
 4801WAT     H119924   3.689   6.044   2.773  0.8267  0.4300  1.2993
 4801WAT     H219925   3.781   5.967   2.839  1.4318 -0.4805 -0.5304
 4801WAT    EPW19926   3.741   5.986   2.774  1.0922  0.6114 -0.0279
 4802WAT      O19927   4.669   6.887   7.086  0.5966  0.6849  0.5674
 4802WAT     H119928   4.717   6.882   7.014  0.6438  1.1495  0.5629
 4802WAT     H219929   4.623   6.961   7.075 -0.3120  0.1246  0.4514
 4802WAT    EPW19930   4.669   6.897   7.074  0.4694  0.6708  0.5496
 4803WAT      O19931   6.868   6.338   0.182  0.2752  0.0447 -0.3998
 4803WAT     H119932   6.890   6.399   0.125 -0.6279 -1.3506 -2.3649
 4803WAT     H219933   6.935   6.281   0.179 -1.4981 -2.1454 -3.3506
 4803WAT    EPW19934   6.881   6.338   0.173 -0.1201 -0.4849 -1.1260
 4804WAT      O19935   5.330   4.322   7.862  0.2439 -0.8207  0.2461
 4804WAT     H119936   5.257   4.364   7.839  0.9305 -0.3636 -1.2263
 4804WAT     H219937   5.302   4.241   7.878 -0.9086 -0.1518  1.9590
 4804WAT    EPW19938   5.315   4.316   7.861  0.1751 -0.6543  0.2816
 4805WAT      O19939   4.001   5.496   4.231 -0.0388 -0.0240  0.1714
 4805WAT     H119940   4.038   5.450   4.295 -0.5147  0.1558  0.5800
 4805WAT     H219941   3.923   5.458   4.221  0.9919 -1.8135 -2.1675
 4805WAT    EPW19942   3.995   5.484   4.239  0.0432 -0.2618 -0.1137
 4806WAT      O19943   5.279   4.358   3.534 -0.1430 -0.8105  0.4136
 4806WAT     H119944   5.339   4.419   3.551  1.8652 -2.7381  0.7709
 4806WAT     H219945   5.316   4.284   3.563 -2.2022 -2.3025 -0.4763
 4806WAT    EPW19946   5.293   4.356   3.541 -0.1505 -1.3157  0.3349
 4807WAT      O19947   0.117   4.856   7.383 -0.2853 -0.0676  0.2202
 4807WAT     H119948   0.145   4.774   7.374  0.2282  0.2620 -1.4106
 4807WAT     H219949   0.068   4.869   7.313 -0.3951  1.0163  0.4841
 4807WAT    EPW19950   0.114   4.846   7.371 -0.2257  0.1412  0.0183
 4808WAT      O19951   2.363   5.545   7.643  0.2508  0.2584 -0.0290
 4808WAT     H119952   2.285   5.516   7.618  0.3968 -1.2128  1.1342
 4808WAT     H219953   2.389   5.487   7.703  2.4687  0.4174 -0.7488
 4808WAT    EPW19954   2.356   5.532   7.648  0.6000  0.0646  0.0365
 4809WAT      O19955   1.242   3.495   6.319  0.1296 -0.7638 -0.4012
 4809WAT     H119956   1.312   3.533   6.282  1.0790 -1.0765  0.9790
 4809WAT     H219957   1.264   3.410   6.320 -0.6614 -0.9742 -0.7537
 4809WAT    EPW19958   1.256   3.488   6.314  0.1530 -0.8411 -0.2494
 4810WAT      O19959   4.193   6.128   5.754  0.0206  0.1721  0.2152
 4810WAT     H119960   4.239   6.171   5.693 -0.1841  1.5671  1.0066
 4810WAT     H219961   4.220   6.164   5.829 -1.4334  0.1518  0.7830
 4810WAT    EPW19962   4.204   6.140   5.756 -0.2244  0.3752  0.4159
 4811WAT      O19963   2.056   6.141   4.932 -0.8238 -0.5079  0.3463
 4811WAT     H119964   2.067   6.227   4.931  2.3791 -0.7220 -3.1328
 4811WAT     H219965   1.998   6.127   4.869 -1.6123 -0.9571  1.1421
 4811WAT    EPW19966   2.049   6.152   4.923 -0.4671 -0.6059 -0.0501
 4812WAT      O19967   5.162   6.669   1.904  0.5642 -0.4740  0.5059
 4812WAT     H119968   5.223   6.613   1.930  1.0446  0.5682  1.7646
 4812WAT     H219969   5.123   6.629   1.837  2.0976 -1.4989  0.1955
 4812WAT    EPW19970   5.165   6.655   1.898  0.8617 -0.4715  0.6460
 4813WAT      O19971   1.620   5.796   4.511 -0.3053 -0.0860  0.0178
 4813WAT     H119972   1.705   5.795   4.530 -0.4951  2.6228  1.4623
 4813WAT     H219973   1.582   5.813   4.587 -1.7445  3.2764 -1.2746
 4813WAT    EPW19974   1.627   5.798   4.525 -0.5459  0.8108  0.0403
 4814WAT      O19975   6.672   3.915   4.588 -0.1865 -0.7725 -0.4538
 4814WAT     H119976   6.743   3.864   4.589 -0.2274 -0.9150 -1.9624
 4814WAT     H219977   6.634   3.900   4.665  0.7525 -1.6423 -0.1419
 4814WAT    EPW19978   6.677   3.905   4.599 -0.0539 -0.9221 -0.6306
 4815WAT      O19979   7.250   2.299   5.728 -0.4059 -0.1722 -0.0212
 4815WAT     H119980   7.192   2.324   5.787 -0.9848 -1.2082 -0.1119
 4815WAT     H219981   7.213   2.229   5.691  0.1029  0.2057 -1.3420
 4815WAT    EPW19982   7.236   2.292   5.731 -0.4162 -0.2694 -0.2297
 4816WAT      O19983   7.729   2.622   4.418 -0.2205 -0.2102 -0.2508
 4816WAT     H119984   7.807   2.592   4.444 -0.1607  0.6734  0.6222
 4816WAT     H219985   7.733   2.707   4.433 -0.1661  0.4412 -3.2491
 4816WAT    EPW19986   7.741   2.630   4.424 -0.2036  0.0166 -0.5647
 4817WAT      O19987   7.255   3.078   4.441 -0.0922  0.4439  0.4625
 4817WAT     H119988   7.198   3.134   4.477 -0.8910 -1.0851  1.6732
 4817WAT     H219989   7.325   3.083   4.493 -0.5371 -0.3855  1.1542
 4817WAT    EPW19990   7.257   3.087   4.454 -0.2759  0.0955  0.7435
 4818WAT      O19991   3.515   3.397   6.421 -0.0010  0.6910  0.8707
 4818WAT     H119992   3.535   3.457   6.481 -0.1298  0.7307  0.8729
 4818WAT     H219993   3.531   3.321   6.462 -0.4459  0.7103  1.0794
 4818WAT    EPW19994   3.520   3.394   6.436 -0.0858  0.6997  0.9018
 4819WAT      O19995   7.676   0.367   4.199 -0.3525 -0.0148 -0.0994
 4819WAT     H119996   7.754   0.383   4.164 -0.5143  0.3900 -0.2850
 4819WAT     H219997   7.638   0.314   4.141  0.9126 -2.7804  1.4374
 4819WAT    EPW19998   7.682   0.362   4.185 -0.1895 -0.3635  0.1002
 4820WAT      O19999   5.680   2.514   3.349  0.1765  0.4762 -0.4797
 4820WAT     H120000   5.679   2.533   3.435 -1.4565  1.5103 -0.6784
 4820WAT     H220001   5.698   2.591   3.312  0.3838  0.1354 -1.1030
 4820WAT    EPW20002   5.683   2.529   3.357 -0.0341  0.5786 -0.6011
 4821WAT      O20003   7.642   5.499   5.501 -0.2437  0.0174 -0.2900
 4821WAT     H120004   7.591   5.550   5.452  0.1948 -0.9042 -1.7637
 4821WAT     H220005   7.616   5.418   5.481 -0.0643 -0.3971  1.0427
 4821WAT    EPW20006   7.631   5.495   5.491 -0.1525 -0.1800 -0.3108
 4822WAT      O20007   1.711   1.889   3.480 -0.5382  0.0705 -0.0657
 4822WAT     H120008   1.667   1.955   3.444 -1.0957 -0.4802 -0.3992
 4822WAT     H220009   1.795   1.910   3.464 -0.7688 -0.3449 -2.0447
 4822WAT    EPW20010   1.717   1.902   3.472 -0.6547 -0.0722 -0.4073
 4823WAT      O20011   6.613   3.026   5.979  0.7716  0.2587  0.1031
 4823WAT     H120012   6.628   3.107   5.952 -1.0548  0.8162  0.6343
 4823WAT     H220013   6.564   2.991   5.916 -0.6630  0.4612  1.0629
 4823WAT    EPW20014   6.608   3.033   5.965  0.2899  0.3709  0.3233
 4824WAT      O20015   4.234   7.180   6.217  0.3435 -0.1560 -0.2693
 4824WAT     H120016   4.269   7.251   6.255 -1.1875  0.0856  0.7999
 4824WAT     H220017   4.259   7.115   6.269  0.7681 -0.2533 -0.5882
 4824WAT    EPW20018   4.243   7.181   6.231  0.1801 -0.1347 -0.1585
 4825WAT      O20019   1.733   3.530   6.031  0.2821  0.5675  0.0944
 4825WAT     H120020   1.674   3.517   5.968 -0.6757 -2.1030  1.4240
 4825WAT     H220021   1.809   3.523   5.988 -0.3518 -0.7584 -0.9106
 4825WAT    EPW20022   1.736   3.527   6.015  0.0470 -0.0229  0.1423
 4826WAT      O20023   4.275   2.554   5.118  0.0545 -0.0102 -0.0240
 4826WAT     H120024   4.291   2.603   5.188 -0.4874 -0.4289  0.4001
 4826WAT     H220025   4.351   2.555   5.074 -0.3613  2.5102 -0.8747
 4826WAT    EPW20026   4.288   2.561   5.122 -0.0869  0.3003 -0.0870
 4827WAT      O20027   5.831   7.270   4.070  0.1311 -0.2690 -0.2380
 4827WAT     H120028   5.807   7.186   4.075 -2.0682  0.2957 -0.1887
 4827WAT     H220029   5.900   7.269   4.016 -0.1199 -2.0453 -0.5815
 4827WAT    EPW20030   5.838   7.257   4.063 -0.2308 -0.4479 -0.2815
 4828WAT      O20031   6.358   0.031   0.898  0.3169  0.1339 -0.0543
 4828WAT     H120032   6.406  -0.036   0.868 -0.2773 -0.1714 -0.3335
 4828WAT     H220033   6.344   0.011   0.981 -0.8491 -0.6942 -0.4237
 4828WAT    EPW20034   6.363   0.018   0.905  0.0569 -0.0335 -0.1501
 4829WAT      O20035   2.885   5.529   6.622 -0.2244 -0.1911  0.1830
 4829WAT     H120036   2.845   5.558   6.551  1.5689  1.0582 -0.3763
 4829WAT     H220037   2.843   5.568   6.687  0.7230  1.9959 -0.4457
 4829WAT    EPW20038   2.873   5.539   6.621  0.1805  0.3165  0.0075
 4830WAT      O20039   0.564   6.487   6.887  0.5320  0.1755  0.7454
 4830WAT     H120040   0.561   6.526   6.808  0.1581 -2.3808 -0.6265
 4830WAT     H220041   0.648   6.463   6.894  0.0797 -1.9303 -0.2122
 4830WAT    EPW20042   0.576   6.490   6.876  0.4100 -0.5132  0.4013
 4831WAT      O20043   1.364   3.013   4.525 -0.3867 -0.0482 -0.0693
 4831WAT     H120044   1.307   2.988   4.464  1.5703 -2.2608 -1.1546
 4831WAT     H220045   1.339   2.968   4.596  0.5338 -1.9083 -0.8419
 4831WAT    EPW20046   1.352   3.002   4.526  0.0384 -0.6498 -0.3437
 4832WAT      O20047   2.839   3.274   6.517 -0.0462  0.3037  0.5654
 4832WAT     H120048   2.824   3.198   6.559  1.2795  0.2592  0.9928
 4832WAT     H220049   2.912   3.303   6.553 -1.2615  2.5268  1.4071
 4832WAT    EPW20050   2.847   3.267   6.529 -0.0299  0.6255  0.7529
 4833WAT      O20051   5.157   6.069   0.798 -0.2357  0.2421 -0.0905
 4833WAT     H120052   5.124   6.141   0.762 -0.3783 -0.5197 -1.5649
 4833WAT     H220053   5.109   6.005   0.763  0.5598 -0.6424  0.3936
 4833WAT    EPW20054   5.145   6.070   0.788 -0.1393 -0.0011 -0.2368
 4834WAT      O20055   6.141   2.490   7.050 -0.3063  0.1691  0.0956
 4834WAT     H120056   6.146   2.449   7.126  0.6918  1.7882  0.9600
 4834WAT     H220057   6.132   2.574   7.072 -1.2977  0.5575 -1.5879
 4834WAT    EPW20058   6.140   2.496   7.064 -0.3053  0.4657 -0.0254
 4835WAT      O20059   3.738   3.731   4.660 -0.0932  0.1764  0.1644
 4835WAT     H120060   3.722   3.808   4.697 -0.8251  0.2061 -0.2010
 4835WAT     H220061   3.819   3.739   4.630 -0.8354  1.5375 -1.6611
 4835WAT    EPW20062   3.747   3.743   4.661 -0.3110  0.3818 -0.1593
 4836WAT      O20063   4.133   1.156   6.437  0.2234 -0.0374  0.0522
 4836WAT     H120064   4.158   1.131   6.357  0.8016 -0.1089  0.2508
 4836WAT     H220065   4.205   1.149   6.484  0.0305  0.5607  0.4541
 4836WAT    EPW20066   4.147   1.151   6.432  0.2803  0.0404  0.1409
 4837WAT      O20067   5.575   5.697   2.009  0.8093 -0.0499  0.0331
 4837WAT     H120068   5.580   5.678   1.924  2.1969  2.4869 -0.5566
 4837WAT     H220069   5.531   5.773   2.010 -0.9290 -0.9967  1.8056
 4837WAT    EPW20070   5.569   5.706   1.997  0.7575  0.1850  0.2078
 4838WAT      O20071   4.706   2.430   1.200 -0.5327 -0.1657  0.2279
 4838WAT     H120072   4.776   2.463   1.161 -1.3384  1.1429 -0.1719
 4838WAT     H220073   4.735   2.356   1.237  0.9785  0.2338 -0.1229
 4838WAT    EPW20074   4.721   2.424   1.200 -0.4285  0.0866  0.1170
 4839WAT      O20075   4.486   4.526   5.154  0.1588 -0.0726 -0.4153
 4839WAT     H120076   4.501   4.609   5.130  0.9033 -0.4398 -1.2841
 4839WAT     H220077   4.424   4.499   5.099  0.1978 -0.2119 -0.3914
 4839WAT    EPW20078   4.479   4.535   5.143  0.2745 -0.1474 -0.5401
 4840WAT      O20079   4.161   2.089   0.002 -0.0769 -0.6262 -0.4436
 4840WAT     H120080   4.080   2.088  -0.032 -0.7054  0.2013  0.9441
 4840WAT     H220081   4.162   2.020   0.054 -0.0348 -0.4133 -0.1581
 4840WAT    EPW20082   4.149   2.079   0.005 -0.1635 -0.4725 -0.1964
 4841WAT      O20083   5.349   5.814   6.800 -0.6330 -0.5583  1.0611
 4841WAT     H120084   5.296   5.796   6.733 -1.4189  0.4044  1.3996
 4841WAT     H220085   5.360   5.737   6.839 -0.4599 -1.0639  0.0381
 4841WAT    EPW20086   5.343   5.800   6.796 -0.7236 -0.4908  0.9600
 4842WAT      O20087   4.416   5.047   3.446  0.2645 -0.2630 -0.2265
 4842WAT     H120088   4.455   5.039   3.523 -0.0128 -0.6281 -0.1208
 4842WAT     H220089   4.481   5.047   3.388  0.8939  3.9093  0.1841
 4842WAT    EPW20090   4.431   5.046   3.449  0.3165  0.2994 -0.1502
 4843WAT      O20091   1.313   2.905   0.264  0.2765  0.3965 -0.0966
 4843WAT     H120092   1.322   2.825   0.230  0.6808  0.0060  0.8797
 4843WAT     H220093   1.288   2.954   0.196 -0.0398 -0.5702 -0.6980
 4843WAT    EPW20094   1.310   2.900   0.249  0.2895  0.1960 -0.0412
 4844WAT      O20095   6.766   6.438   4.598  0.1843  0.0895  0.4686
 4844WAT     H120096   6.766   6.521   4.572  1.7321 -0.1679 -0.4925
 4844WAT     H220097   6.750   6.394   4.524  0.0586 -0.4999  0.8404
 4844WAT    EPW20098   6.764   6.444   4.583  0.3944 -0.0356  0.3815
 4845WAT      O20099   6.936   5.372   0.233 -0.4455  0.1719  0.0991
 4845WAT     H120100   6.925   5.383   0.319  2.0454 -2.6903  0.9527
 4845WAT     H220101   7.019   5.397   0.219 -0.4735 -0.3732 -1.2486
 4845WAT    EPW20102   6.947   5.377   0.243 -0.0817 -0.3315  0.0261
 4846WAT      O20103   3.047   3.320   0.824 -0.3884 -0.0494  0.1561
 4846WAT     H120104   3.001   3.362   0.762 -0.6802 -0.3324  0.1735
 4846WAT     H220105   3.011   3.241   0.825 -0.1465 -0.1576  0.4420
 4846WAT    EPW20106   3.035   3.315   0.815 -0.3957 -0.1072  0.2009
 4847WAT      O20107   5.231   3.884   0.569  0.3711 -0.4128 -0.2971
 4847WAT     H120108   5.290   3.943   0.594 -0.3583 -0.1778  0.9374
 4847WAT     H220109   5.280   3.819   0.537  1.2185  0.4374 -0.7918
 4847WAT    EPW20110   5.247   3.883   0.568  0.3886 -0.2525 -0.1878
 4848WAT      O20111   5.469   3.945   1.278 -0.0475 -0.5727  0.2328
 4848WAT     H120112   5.487   3.937   1.193  1.3088 -0.9946  0.5361
 4848WAT     H220113   5.411   4.010   1.281 -1.2211 -1.5104 -1.1396
 4848WAT    EPW20114   5.463   3.953   1.266 -0.0205 -0.7735  0.0749
 4849WAT      O20115   4.231   4.975   2.160  0.4860  0.3552 -0.3615
 4849WAT     H120116   4.166   4.962   2.217  0.4088  0.3034 -0.4609
 4849WAT     H220117   4.196   5.029   2.101  0.8531  1.1546  0.1343
 4849WAT    EPW20118   4.216   4.981   2.160  0.5288  0.4656 -0.3029
 4850WAT      O20119   4.864   3.537   4.025  0.2270  0.3364  0.2033
 4850WAT     H120120   4.936   3.552   3.977  1.1013  1.8479  1.8708
 4850WAT     H220121   4.893   3.485   4.089 -0.3314  0.3982  0.5052
 4850WAT    EPW20122   4.879   3.532   4.027  0.2737  0.5688  0.4942
 4851WAT      O20123   5.970   2.072   0.628 -0.4049  0.6741  0.0283
 4851WAT     H120124   5.955   2.156   0.647 -0.0032  0.7034  0.2294
 4851WAT     H220125   6.046   2.074   0.586 -0.8791  0.5150 -0.8673
 4851WAT    EPW20126   5.979   2.085   0.624 -0.4156  0.6549 -0.0743
 4852WAT      O20127   4.483   5.954   6.507 -0.4589  0.3407  0.1280
 4852WAT     H120128   4.535   6.022   6.521 -0.9239  0.4397  1.5314
 4852WAT     H220129   4.406   5.991   6.489 -0.8465  0.2075  1.4368
 4852WAT    EPW20130   4.479   5.969   6.506 -0.5849  0.3357  0.5287
 4853WAT      O20131   3.496   3.987   4.917 -0.1641 -0.5587 -0.1813
 4853WAT     H120132   3.475   4.003   4.834 -0.5136  1.1614  0.1943
 4853WAT     H220133   3.534   4.061   4.943 -0.9233 -0.6941  1.4568
 4853WAT    EPW20134   3.499   4.001   4.908 -0.3279 -0.3246  0.1162
 4854WAT      O20135   5.340   6.175   7.243  0.7633 -0.0746  0.2700
 4854WAT     H120136   5.303   6.235   7.294 -1.6452 -0.7897 -0.5277
 4854WAT     H220137   5.343   6.104   7.293 -0.7295 -0.5155 -0.2119
 4854WAT    EPW20138   5.335   6.174   7.258  0.1870 -0.2453  0.0810
 4855WAT      O20139   5.922   3.824   6.248 -0.0335 -0.1003  0.3086
 4855WAT     H120140   5.951   3.906   6.259 -2.4245  1.3601 -2.7396
 4855WAT     H220141   5.995   3.779   6.229  1.3206  1.2969  1.8590
 4855WAT    EPW20142   5.937   3.830   6.247 -0.1866  0.3219  0.0874
 4856WAT      O20143   2.358   5.269   3.370  0.0986  0.6552 -0.2009
 4856WAT     H120144   2.317   5.276   3.446 -1.5185 -1.1661 -0.8186
 4856WAT     H220145   2.439   5.244   3.392 -0.4450 -0.1700  0.9198
 4856WAT    EPW20146   2.364   5.266   3.384 -0.2206  0.2643 -0.1266
 4857WAT      O20147   5.744   4.608   3.664  0.5236  0.0261  0.0681
 4857WAT     H120148   5.792   4.607   3.736  1.6545  0.3553 -0.6604
 4857WAT     H220149   5.767   4.534   3.623  1.1728  0.6687 -0.7572
 4857WAT    EPW20150   5.754   4.597   3.668  0.7865  0.1697 -0.1614
 4858WAT      O20151   6.315   7.443   6.347  0.2678 -0.2477 -0.0049
 4858WAT     H120152   6.276   7.494   6.405 -1.3972 -0.2229 -1.0715
 4858WAT     H220153   6.334   7.371   6.392 -1.7026 -0.5558  0.4403
 4858WAT    EPW20154   6.312   7.440   6.362 -0.2692 -0.2896 -0.0967
 4859WAT      O20155   2.624   1.546   6.131 -0.9485 -0.0029  0.1074
 4859WAT     H120156   2.608   1.593   6.059  1.5785  1.8751  0.6055
 4859WAT     H220157   2.579   1.473   6.118 -1.4968  0.7029 -2.8532
 4859WAT    EPW20158   2.615   1.542   6.118 -0.6562  0.3788 -0.2564
 4860WAT      O20159   3.330   6.772   3.587 -0.2737 -0.1193 -0.0772
 4860WAT     H120160   3.295   6.815   3.519 -1.5353 -0.7171  0.1568
 4860WAT     H220161   3.415   6.769   3.568 -0.2777  1.6328 -0.5542
 4860WAT    EPW20162   3.337   6.778   3.574 -0.4606  0.0512 -0.1131
 4861WAT      O20163   2.299   4.482   6.053  0.3447  0.1989  0.1612
 4861WAT     H120164   2.340   4.405   6.058  2.7882  1.4638  1.8140
 4861WAT     H220165   2.218   4.464   6.079  0.9699 -1.7499  0.9028
 4861WAT    EPW20166   2.293   4.468   6.058  0.7980  0.0978  0.5149
 4862WAT      O20167   0.484   2.559   5.218  0.1256 -0.3540 -0.2445
 4862WAT     H120168   0.499   2.510   5.147  1.3617 -0.6659  0.2055
 4862WAT     H220169   0.481   2.500   5.282  0.1678  0.0360  0.1172
 4862WAT    EPW20170   0.486   2.543   5.217  0.3144 -0.3425 -0.1246
 4863WAT      O20171   6.673   5.004   4.728  0.0915 -0.3477 -0.2020
 4863WAT     H120172   6.692   5.036   4.807  0.9638 -0.0281 -0.5325
 4863WAT     H220173   6.671   4.917   4.741 -2.0274 -0.2325  0.6412
 4863WAT    EPW20174   6.676   4.996   4.742 -0.0926 -0.2834 -0.1262
 4864WAT      O20175   5.528   3.240   6.376 -0.4987 -0.2513 -0.7205
 4864WAT     H120176   5.573   3.243   6.301 -1.2448 -0.7733 -1.1998
 4864WAT     H220177   5.490   3.318   6.380  2.6033  1.3699  1.1099
 4864WAT    EPW20178   5.529   3.252   6.365 -0.1507 -0.0889 -0.5209
 4865WAT      O20179   3.582   5.147   3.180 -0.7145 -0.7107  0.0847
 4865WAT     H120180   3.651   5.198   3.193  0.4158 -2.1174 -0.1932
 4865WAT     H220181   3.521   5.202   3.151  0.1213  0.6409  0.8099
 4865WAT    EPW20182   3.583   5.163   3.178 -0.4241 -0.7189  0.1508
 4866WAT      O20183   2.049   1.649   5.431 -0.6503 -0.3589 -0.7165
 4866WAT     H120184   2.041   1.616   5.511 -4.1746 -0.9298 -1.1774
 4866WAT     H220185   2.010   1.727   5.437 -2.0148 -0.8911 -2.0906
 4866WAT    EPW20186   2.042   1.656   5.443 -1.3725 -0.5219 -0.9876
 4867WAT      O20187   6.231   2.855   4.247 -0.2052 -0.1299  0.0881
 4867WAT     H120188   6.149   2.844   4.221  0.1907 -1.8673 -0.6018
 4867WAT     H220189   6.232   2.816   4.326 -0.0582 -0.1137  0.0947
 4867WAT    EPW20190   6.219   2.847   4.255 -0.1250 -0.3842 -0.0128
 4868WAT      O20191   3.252   4.656   7.380 -0.2587 -0.1538 -0.4603
 4868WAT     H120192   3.304   4.652   7.310  2.5769  3.3404  1.1003
 4868WAT     H220193   3.273   4.584   7.425  2.8572  0.7168 -0.2834
 4868WAT    EPW20194   3.263   4.645   7.376  0.6204  0.4910 -0.2036
 4869WAT      O20195   0.993   6.733   3.829  0.4700  0.2604 -0.0891
 4869WAT     H120196   0.958   6.684   3.765 -1.7065 -3.1645  3.2310
 4869WAT     H220197   1.068   6.693   3.847 -0.9672 -1.7597  2.1360
 4869WAT    EPW20198   0.999   6.720   3.822 -0.0639 -0.5440  0.7300
 4870WAT      O20199   4.797   5.489   2.029  0.4041 -0.2153  0.0507
 4870WAT     H120200   4.799   5.527   2.108  0.6548  1.7210 -0.8161
 4870WAT     H220201   4.796   5.557   1.974  1.8236 -1.4833 -1.6660
 4870WAT    EPW20202   4.797   5.505   2.033  0.6508 -0.1166 -0.3309
 4871WAT      O20203   3.835   5.033   7.838  0.1188 -0.0946 -0.3370
 4871WAT     H120204   3.862   5.070   7.913 -2.6279  0.5884  0.4339
 4871WAT     H220205   3.860   4.950   7.846  0.4223  0.1090  1.0701
 4871WAT    EPW20206   3.843   5.026   7.851 -0.2421  0.0364 -0.0153
 4872WAT      O20207   5.556   3.502   3.727 -0.1423 -0.0376  0.0434
 4872WAT     H120208   5.572   3.416   3.717 -1.8137 -0.4463  0.5077
 4872WAT     H220209   5.469   3.505   3.734 -0.2304  1.8647 -1.3340
 4872WAT    EPW20210   5.545   3.490   3.726 -0.4022  0.1831 -0.0915
 4873WAT      O20211   6.212   3.242   5.743  0.0608 -0.3314 -0.2632
 4873WAT     H120212   6.204   3.198   5.818  1.6524 -1.4891 -0.7151
 4873WAT     H220213   6.297   3.262   5.741 -0.3050  1.3032 -0.9088
 4873WAT    EPW20214   6.224   3.239   5.754  0.2419 -0.2610 -0.4253
 4874WAT      O20215   1.499   3.091   0.380  0.0600  0.3187 -0.2565
 4874WAT     H120216   1.455   3.020   0.353 -0.0738  0.2763  0.0713
 4874WAT     H220217   1.438   3.139   0.419  0.3646  0.1126  0.4849
 4874WAT    EPW20218   1.484   3.087   0.382  0.0853  0.2820 -0.0985
 4875WAT      O20219   4.990   4.398   6.559 -0.0785  0.1497  0.1662
 4875WAT     H120220   4.986   4.311   6.558 -0.7475  0.1730  0.6967
 4875WAT     H220221   5.074   4.414   6.579  0.0629 -0.3614  0.0072
 4875WAT    EPW20222   5.002   4.387   6.562 -0.1564  0.0776  0.2211
 4876WAT      O20223   1.927   0.768   0.392  0.1945  0.3762 -0.5246
 4876WAT     H120224   1.921   0.843   0.436 -1.4534 -1.0970  1.9931
 4876WAT     H220225   1.845   0.752   0.367 -0.2141 -2.1567  1.9734
 4876WAT    EPW20226   1.914   0.777   0.395 -0.1093 -0.2156  0.2163
 4877WAT      O20227   5.459   0.148   2.964 -0.3481 -0.4214  0.0253
 4877WAT     H120228   5.415   0.176   3.034  0.0603 -1.4126  0.7089
 4877WAT     H220229   5.439   0.063   2.961 -1.1180 -0.2112 -1.6511
 4877WAT    EPW20230   5.449   0.139   2.974 -0.4015 -0.5368 -0.1213
 4878WAT      O20231   5.422   3.131   1.220 -0.2372 -0.1985  0.3200
 4878WAT     H120232   5.397   3.204   1.179  2.1522  1.7666  2.1129
 4878WAT     H220233   5.382   3.135   1.297 -0.2668 -0.9511  0.3580
 4878WAT    EPW20234   5.412   3.142   1.225  0.1114 -0.0194  0.5905
 4879WAT      O20235   4.661   4.958   4.001 -0.3595 -0.5818 -0.0757
 4879WAT     H120236   4.687   4.908   3.934 -0.3422  1.2461 -1.4946
 4879WAT     H220237   4.596   5.005   3.967  0.9243  1.7771  0.5798
 4879WAT    EPW20238   4.655   4.957   3.986 -0.1673  0.0367 -0.1884
 4880WAT      O20239   4.234   4.655   0.039 -0.1971  0.1262 -0.3562
 4880WAT     H120240   4.209   4.680   0.118  1.0011  0.8403 -0.1783
 4880WAT     H220241   4.268   4.576   0.053  2.0466  1.1347  0.2867
 4880WAT    EPW20242   4.235   4.647   0.053  0.3113  0.3807 -0.2350
 4881WAT      O20243   2.115   4.351   2.310 -0.2353 -0.2104  0.5677
 4881WAT     H120244   2.059   4.381   2.370 -0.3365 -1.4246  1.1219
 4881WAT     H220245   2.150   4.280   2.349  0.5624 -0.3453 -0.3601
 4881WAT    EPW20246   2.112   4.345   2.325 -0.1324 -0.4097  0.5125
 4882WAT      O20247   5.204   3.061   0.289  0.2797 -0.5158  0.4122
 4882WAT     H120248   5.205   3.059   0.202 -0.5478  1.5564  0.2864
 4882WAT     H220249   5.156   2.993   0.312  2.9171 -2.8930 -0.5482
 4882WAT    EPW20250   5.197   3.051   0.280  0.5471 -0.5609  0.2518
 4883WAT      O20251   1.987   3.289   1.161 -0.5273 -0.2470  0.3358
 4883WAT     H120252   1.905   3.262   1.157 -0.4931 -0.1964 -2.0802
 4883WAT     H220253   1.983   3.373   1.135  0.2138 -0.0915  0.6899
 4883WAT    EPW20254   1.975   3.298   1.156 -0.4127 -0.2166  0.0312
 4884WAT      O20255   3.695   3.795   4.966 -0.5252  0.0014 -0.1311
 4884WAT     H120256   3.729   3.825   5.041  1.9967  0.3748 -1.3581
 4884WAT     H220257   3.634   3.854   4.947  1.4656  2.1261 -0.3114
 4884WAT    EPW20258   3.691   3.808   4.974  0.1414  0.3704 -0.3390
 4885WAT      O20259   5.320   2.069   6.886  0.1608  0.0767 -0.2511
 4885WAT     H120260   5.351   1.990   6.867  0.2137  0.2586 -0.9326
 4885WAT     H220261   5.333   2.114   6.813  0.4997  0.8308  0.2646
 4885WAT    EPW20262   5.327   2.064   6.873  0.2187  0.2149 -0.2756
 4886WAT      O20263   4.624   2.626   3.795 -0.3306 -0.1009  0.2419
 4886WAT     H120264   4.608   2.675   3.725 -0.1888 -0.4669 -0.0540
 4886WAT     H220265   4.711   2.632   3.805 -0.3170 -0.2592  0.2238
 4886WAT    EPW20266   4.635   2.634   3.786 -0.3076 -0.1783  0.1955
 4887WAT      O20267   4.847   5.478   4.624  0.1270 -0.1331  0.0024
 4887WAT     H120268   4.769   5.507   4.597 -0.0754 -0.0764  0.6302
 4887WAT     H220269   4.897   5.484   4.552 -0.8139 -1.5983 -0.8247
 4887WAT    EPW20270   4.843   5.483   4.609 -0.0419 -0.3412 -0.0270
 4888WAT      O20271   5.962   5.610   5.398 -0.4734 -0.2727 -0.5302
 4888WAT     H120272   5.943   5.526   5.416 -1.2857  0.0057  0.0211
 4888WAT     H220273   5.883   5.647   5.392 -0.1202  0.4785 -0.6235
 4888WAT    EPW20274   5.947   5.603   5.400 -0.5412 -0.1206 -0.4625
 4889WAT      O20275   4.391   7.082   3.142  0.0520  0.1371 -0.5014
 4889WAT     H120276   4.440   7.133   3.091  0.0679 -0.1091 -0.7285
 4889WAT     H220277   4.438   7.010   3.152 -0.8003 -0.6214 -1.7542
 4889WAT    EPW20278   4.405   7.079   3.136 -0.0715 -0.0113 -0.7200
 4890WAT      O20279   0.187   5.774   0.507 -0.3678  0.1755 -0.2153
 4890WAT     H120280   0.116   5.729   0.530 -1.5272  1.2218 -1.5280
 4890WAT     H220281   0.241   5.714   0.474 -0.5775 -0.6506  0.9036
 4890WAT    EPW20282   0.185   5.759   0.505 -0.5701  0.2080 -0.2439
 4891WAT      O20283   5.153   5.602   3.699 -0.1436  0.2905  0.3764
 4891WAT     H120284   5.200   5.625   3.769  1.2598  1.4999 -0.9021
 4891WAT     H220285   5.127   5.521   3.718  2.3324 -0.3790  1.2553
 4891WAT    EPW20286   5.156   5.593   3.712  0.4295  0.3703  0.3174
 4892WAT      O20287   6.346   5.617   3.933 -0.3298 -0.5214 -0.5309
 4892WAT     H120288   6.315   5.682   3.983  0.3331  0.2893 -1.1500
 4892WAT     H220289   6.407   5.580   3.983  0.7182  0.6336 -0.9155
 4892WAT    EPW20290   6.350   5.621   3.948 -0.0770 -0.2310 -0.6792
 4893WAT      O20291   2.802   4.066   1.972 -0.8579  0.2158  0.0077
 4893WAT     H120292   2.753   4.114   1.918  0.6502 -0.0148 -1.6449
 4893WAT     H220293   2.840   4.124   2.023 -0.8728  0.5928 -0.4037
 4893WAT    EPW20294   2.800   4.081   1.971 -0.6373  0.2374 -0.2972
 4894WAT      O20295   5.235   4.499   3.999 -0.3148 -0.1195 -0.0996
 4894WAT     H120296   5.163   4.498   3.949  0.5787  0.6375 -1.4430
 4894WAT     H220297   5.220   4.565   4.055 -0.0316  1.1060 -1.4051
 4894WAT    EPW20298   5.222   4.509   4.000 -0.1409  0.1733 -0.4909
 4895WAT      O20299   5.746   5.586   0.796 -0.1092  0.4037  0.4410
 4895WAT     H120300   5.764   5.501   0.803  0.4523  0.3769 -0.9404
 4895WAT     H220301   5.810   5.625   0.841  0.9366  0.1435 -0.7579
 4895WAT    EPW20302   5.758   5.579   0.803  0.1283  0.3613  0.0599
 4896WAT      O20303   4.633   2.590   2.396 -0.1611  0.4331  0.2450
 4896WAT     H120304   4.713   2.557   2.407 -0.5135 -0.6788 -0.4004
 4896WAT     H220305   4.592   2.571   2.471 -0.2897 -0.4355 -0.0294
 4896WAT    EPW20306   4.639   2.582   2.409 -0.2321  0.1405  0.1091
 4897WAT      O20307   5.526   2.155   5.718 -0.3968  0.1333  1.0309
 4897WAT     H120308   5.533   2.241   5.706 -0.7642  0.0072 -0.1770
 4897WAT     H220309   5.510   2.124   5.638  0.1594 -1.1085  1.3784
 4897WAT    EPW20310   5.524   2.163   5.705 -0.3689 -0.0688  0.9038
 4898WAT      O20311   2.950   6.803   7.118 -0.1924  0.2949 -0.4434
 4898WAT     H120312   2.993   6.814   7.193 -0.3304  0.3049 -0.3644
 4898WAT     H220313   3.012   6.810   7.057 -0.1194  0.5281 -0.3442
 4898WAT    EPW20314   2.965   6.806   7.120 -0.2020  0.3308 -0.4171
 4899WAT      O20315   6.933   3.614   4.422 -0.3438 -0.8209  0.5980
 4899WAT     H120316   6.968   3.534   4.424  2.8410  0.3814 -0.2789
 4899WAT     H220317   6.967   3.652   4.493 -1.2985 -0.0509  0.6486
 4899WAT    EPW20318   6.943   3.607   4.433 -0.0143 -0.5295  0.4759
 4900WAT      O20319   5.242   7.230   1.744 -0.1807  0.1473 -0.2205
 4900WAT     H120320   5.178   7.240   1.686 -0.8235 -0.7927  0.2928
 4900WAT     H220321   5.296   7.296   1.727 -0.1575 -0.3216 -2.1129
 4900WAT    EPW20322   5.240   7.241   1.733 -0.2722 -0.0608 -0.4242
 4901WAT      O20323   4.201   4.809   1.698 -0.3792  0.3605  0.3385
 4901WAT     H120324   4.117   4.793   1.680 -0.8365 -0.1543  2.5744
 4901WAT     H220325   4.212   4.892   1.675 -1.2608  0.2090 -0.7204
 4901WAT    EPW20326   4.190   4.819   1.692 -0.5770  0.2621  0.5124
 4902WAT      O20327   1.942   4.774   7.316  0.4729 -0.3787  1.1516
 4902WAT     H120328   1.982   4.851   7.304  0.4357 -0.5256  0.0380
 4902WAT     H220329   1.930   4.771   7.403  0.2633  0.9723  1.1936
 4902WAT    EPW20330   1.946   4.785   7.327  0.4365 -0.2008  0.9933
 4903WAT      O20331   1.252   4.017   3.270 -0.3237 -0.2506  0.1830
 4903WAT     H120332   1.217   3.982   3.198 -0.8872  0.3031  0.1853
 4903WAT     H220333   1.330   4.044   3.244 -0.0602 -1.0876  0.0660
 4903WAT    EPW20334   1.258   4.016   3.256 -0.3680 -0.2925  0.1660
 4904WAT      O20335   3.143   0.615   6.627  0.1646 -0.5937  0.1731
 4904WAT     H120336   3.058   0.596   6.622 -0.1646  0.7001  0.3454
 4904WAT     H220337   3.144   0.702   6.624  1.4986 -0.5934  0.0917
 4904WAT    EPW20338   3.131   0.625   6.626  0.3131 -0.4025  0.1865
 4905WAT      O20339   0.308   4.219   7.035  0.2271  0.5134  0.2292
 4905WAT     H120340   0.242   4.163   7.026  1.0873 -0.6868  1.1304
 4905WAT     H220341   0.357   4.183   7.098  0.1445  2.8929  1.7912
 4905WAT    EPW20342   0.305   4.206   7.043  0.3420  0.6876  0.5931
 4906WAT      O20343   4.972   3.377   4.231  0.1176  0.0561  0.2032
 4906WAT     H120344   4.988   3.412   4.309  0.2317  0.4770 -0.0061
 4906WAT     H220345   4.973   3.291   4.247  3.1801 -0.0536  0.1340
 4906WAT    EPW20346   4.975   3.370   4.245  0.5869  0.1021  0.1620
 4907WAT      O20347   5.671   5.407   6.651 -0.3789  0.2895 -0.6271
 4907WAT     H120348   5.711   5.483   6.664 -1.6558  1.0777 -1.0854
 4907WAT     H220349   5.716   5.351   6.701  0.4962  1.3703 -0.1659
 4907WAT    EPW20350   5.683   5.410   6.661 -0.4382  0.5656 -0.6266
 4908WAT      O20351   4.788   7.250   7.766  0.6681  0.5939  0.2294
 4908WAT     H120352   4.825   7.291   7.833  0.4478 -2.1369  2.2345
 4908WAT     H220353   4.831   7.174   7.763 -0.3853  0.0128 -1.7321
 4908WAT    EPW20354   4.800   7.244   7.776  0.4800  0.1047  0.2359
 4909WAT      O20355   5.813   2.358   3.137  0.1064  0.1433 -0.0117
 4909WAT     H120356   5.762   2.393   3.198  0.9287  1.4455 -0.0276
 4909WAT     H220357   5.813   2.418   3.074  1.6096  0.1531 -0.0247
 4909WAT    EPW20358   5.805   2.372   3.137  0.4499  0.3371 -0.0160
 4910WAT      O20359   2.288   3.255   2.069 -0.4101  0.6600  0.3875
 4910WAT     H120360   2.258   3.176   2.048  1.6825 -0.0670 -0.1192
 4910WAT     H220361   2.256   3.307   2.007 -2.2611  0.3537  1.0331
 4910WAT    EPW20362   2.279   3.251   2.057 -0.3744  0.5073  0.4080
 4911WAT      O20363   4.655   5.556   0.560  0.3497 -0.2384  0.5310
 4911WAT     H120364   4.588   5.563   0.615  0.9182 -0.2147  1.2249
 4911WAT     H220365   4.632   5.608   0.493 -0.2603 -0.1312  0.8176
 4911WAT    EPW20366   4.642   5.564   0.558  0.3436 -0.2191  0.6759
 4912WAT      O20367   5.284   5.148   3.872 -0.0121  0.1570  0.3149
 4912WAT     H120368   5.330   5.222   3.885 -0.3422  0.6370 -1.1456
 4912WAT     H220369   5.283   5.139   3.785 -1.4821 -0.6266  0.3946
 4912WAT    EPW20370   5.291   5.158   3.861 -0.2780  0.1121  0.1109
 4913WAT      O20371   5.204   6.468   4.760 -0.6150  0.6893  0.0618
 4913WAT     H120372   5.128   6.479   4.717 -0.7651 -3.2809 -1.0483
 4913WAT     H220373   5.182   6.418   4.828  0.9432 -0.3376 -0.1564
 4913WAT    EPW20374   5.190   6.463   4.763 -0.4070 -0.0489 -0.1344
 4914WAT      O20375   4.965   1.111   1.867  0.3750  0.8705  0.6071
 4914WAT     H120376   4.957   1.043   1.920  2.4400  0.1345  0.0684
 4914WAT     H220377   5.046   1.140   1.883  1.6704 -0.2682 -3.0741
 4914WAT    EPW20378   4.976   1.105   1.877  0.8714  0.5935 -0.0163
 4915WAT      O20379   2.788   0.727   0.646  0.4215 -0.0266 -0.0398
 4915WAT     H120380   2.805   0.812   0.641  0.3688  0.0001  0.2405
 4915WAT     H220381   2.786   0.711   0.732 -1.9863  0.1858  0.0081
 4915WAT    EPW20382   2.790   0.737   0.658  0.0580  0.0087  0.0087
 4916WAT      O20383   4.782   3.202   3.706 -0.0181 -0.4769 -0.4532
 4916WAT     H120384   4.765   3.117   3.693 -1.4210 -0.3556  0.3986
 4916WAT     H220385   4.732   3.242   3.648 -0.6216 -0.1923  0.2503
 4916WAT    EPW20386   4.772   3.195   3.695 -0.3145 -0.4170 -0.2234
 4917WAT      O20387   5.327   3.178   4.142 -0.0224  0.0122 -0.4514
 4917WAT     H120388   5.277   3.109   4.159  2.0706 -1.3592  0.4993
 4917WAT     H220389   5.323   3.225   4.215 -0.9495  0.6464 -0.8779
 4917WAT    EPW20390   5.319   3.175   4.155  0.1499 -0.0967 -0.3739
 4918WAT      O20391   3.388   7.376   0.996 -0.3648  0.0154  0.0302
 4918WAT     H120392   3.469   7.356   1.022 -0.3913 -0.5044 -0.2861
 4918WAT     H220393   3.339   7.310   1.026 -0.5494 -0.0765 -0.4751
 4918WAT    EPW20394   3.393   7.363   1.005 -0.3960 -0.0750 -0.0911
 4919WAT      O20395   4.892   4.083   6.300 -0.3073  0.0220 -0.0098
 4919WAT     H120396   4.890   3.996   6.306 -0.9068  0.1157  1.5400
 4919WAT     H220397   4.935   4.107   6.372 -3.2582  1.1242  1.5476
 4919WAT    EPW20398   4.898   4.073   6.312 -0.8317  0.1986  0.4492
 4920WAT      O20399   5.454   1.381   5.077 -0.1211 -0.1018  0.1429
 4920WAT     H120400   5.394   1.402   5.017 -0.5423 -2.5467 -0.3623
 4920WAT     H220401   5.466   1.457   5.120 -2.4995  0.8253 -0.6409
 4920WAT    EPW20402   5.447   1.396   5.075 -0.5347 -0.3260 -0.0475
 4921WAT      O20403   4.208   4.251   3.942 -0.0529 -0.0581  0.3564
 4921WAT     H120404   4.257   4.286   3.879 -1.9415 -0.2337 -1.3296
 4921WAT     H220405   4.228   4.299   4.012  2.2750  0.0159 -0.2897
 4921WAT    EPW20406   4.218   4.263   3.943  0.0120 -0.0731  0.0119
 4922WAT      O20407   6.921   6.460   5.016  0.2372 -0.3680 -0.1880
 4922WAT     H120408   6.910   6.415   4.942 -0.0091  0.9003 -0.9625
 4922WAT     H220409   6.980   6.520   4.995  0.8306 -0.5318  0.9218
 4922WAT    EPW20410   6.928   6.462   5.002  0.2885 -0.2049 -0.1384
 4923WAT      O20411   5.414   5.875   3.132 -0.2790  0.1200 -0.1088
 4923WAT     H120412   5.418   5.802   3.180 -1.6261  0.7356  1.0063
 4923WAT     H220413   5.345   5.917   3.164  1.5092  2.7989  0.5705
 4923WAT    EPW20414   5.405   5.870   3.144 -0.2138  0.6066  0.1563
 4924WAT      O20415   5.716   2.422   6.185 -0.6799 -0.0870  0.1939
 4924WAT     H120416   5.764   2.492   6.206  0.1931 -0.7865  0.5686
 4924WAT     H220417   5.673   2.448   6.114  1.1865  0.1517 -0.9096
 4924WAT    EPW20418   5.716   2.436   6.178 -0.2752 -0.1550  0.0862
 4925WAT      O20419   4.978   4.762   1.839 -0.1299  0.1454 -0.0998
 4925WAT     H120420   4.962   4.696   1.893  0.2702  0.3084  0.2175
 4925WAT     H220421   4.926   4.826   1.868  0.0471  0.2164  0.0610
 4925WAT    EPW20422   4.968   4.761   1.851 -0.0446  0.1800 -0.0292
 4926WAT      O20423   4.726   0.846   1.490  0.3872  0.1942 -0.5597
 4926WAT     H120424   4.701   0.920   1.529  0.0770 -0.6903  1.0450
 4926WAT     H220425   4.665   0.834   1.428  0.0975  0.9750 -0.4394
 4926WAT    EPW20426   4.713   0.855   1.487  0.2986  0.1789 -0.3049
 4927WAT      O20427   5.625   3.366   2.918  0.1299 -0.6574 -0.4858
 4927WAT     H120428   5.683   3.301   2.919  0.0945 -0.6885 -0.3735
 4927WAT     H220429   5.670   3.434   2.949 -0.0441 -0.8162  0.1366
 4927WAT    EPW20430   5.640   3.366   2.923  0.0989 -0.6855 -0.3773
 4928WAT      O20431   5.970   6.233   6.325 -0.0477 -0.3450  0.7797
 4928WAT     H120432   5.937   6.223   6.405 -1.7906 -0.4407  0.0789
 4928WAT     H220433   5.900   6.239   6.274  1.0112 -1.0892 -0.8551
 4928WAT    EPW20434   5.955   6.232   6.329 -0.1487 -0.4691  0.4347
 4929WAT      O20435   2.168   4.623   7.192  0.0399 -0.1198 -0.1071
 4929WAT     H120436   2.120   4.687   7.227  0.0752  0.2427 -0.7006
 4929WAT     H220437   2.115   4.555   7.191  0.4175 -0.4747  1.7435
 4929WAT    EPW20438   2.153   4.623   7.197  0.1009 -0.1187  0.0786
 4930WAT      O20439   7.572   2.908   5.440 -0.2649 -0.0050  0.3524
 4930WAT     H120440   7.494   2.893   5.475  0.0780  1.5702  1.9197
 4930WAT     H220441   7.628   2.873   5.497  0.2473  1.0935  0.5558
 4930WAT    EPW20442   7.569   2.900   5.454 -0.1386  0.3899  0.6140
 4931WAT      O20443   6.427   6.682   1.405  0.3874  0.2962  0.6925
 4931WAT     H120444   6.419   6.766   1.429 -1.1160 -0.3931  2.8956
 4931WAT     H220445   6.483   6.649   1.462 -0.4227 -0.5847  0.9978
 4931WAT    EPW20446   6.434   6.690   1.417  0.0456  0.0642  1.0630
 4932WAT      O20447   4.729   2.517   4.178 -0.3086 -0.1723  0.5667
 4932WAT     H120448   4.644   2.515   4.197 -0.8160  2.5527 -0.8119
 4932WAT     H220449   4.761   2.578   4.231  0.4369 -0.0579  0.0094
 4932WAT    EPW20450   4.721   2.526   4.188 -0.2734  0.2472  0.2807
 4933WAT      O20451   4.428   3.839   2.997 -0.0845  0.1690  0.2895
 4933WAT     H120452   4.446   3.887   3.067 -0.9116  0.9874 -0.0441
 4933WAT     H220453   4.343   3.854   2.983  0.1128  0.1945 -1.0163
 4933WAT    EPW20454   4.418   3.848   3.005 -0.1775  0.2937  0.0474
 4934WAT      O20455   4.700   1.605   4.098  0.4546  0.8400 -0.2099
 4934WAT     H120456   4.664   1.637   4.025  2.5704  2.1379 -0.7711
 4934WAT     H220457   4.695   1.671   4.155 -0.9220 -0.0675  0.8086
 4934WAT    EPW20458   4.694   1.619   4.096  0.5638  0.8977 -0.1424
 4935WAT      O20459   4.851   3.247   4.631 -0.2729  0.3437 -0.3946
 4935WAT     H120460   4.787   3.306   4.623 -1.7372 -1.2332 -1.0911
 4935WAT     H220461   4.834   3.190   4.567  0.4203 -1.4157  0.9031
 4935WAT    EPW20462   4.839   3.247   4.620 -0.3868 -0.1492 -0.3058
 4936WAT      O20463   4.187   1.029   0.657 -0.7254 -0.4151  0.0941
 4936WAT     H120464   4.177   0.978   0.587 -2.6604 -0.5386  0.4234
 4936WAT     H220465   4.127   0.999   0.713 -3.0193  3.0554 -0.2281
 4936WAT    EPW20466   4.177   1.017   0.655 -1.3501  0.0793  0.0951
 4937WAT      O20467   5.896   4.413   4.356 -0.3166  0.0087 -0.3130
 4937WAT     H120468   5.827   4.438   4.404  0.9655  0.0096  1.6728
 4937WAT     H220469   5.871   4.337   4.322 -0.5564 -1.1580  2.2523
 4937WAT    EPW20470   5.882   4.406   4.358 -0.1626 -0.1635  0.3593
 4938WAT      O20471   1.946   4.697   6.087  0.0800 -0.1842  0.2874
 4938WAT     H120472   1.967   4.776   6.056 -0.3184 -0.1517  0.0893
 4938WAT     H220473   2.002   4.685   6.153  0.8067 -0.1736 -0.3248
 4938WAT    EPW20474   1.957   4.707   6.092  0.1285 -0.1778  0.1677
 4939WAT      O20475   4.566   4.461   3.987 -0.7958 -0.0250 -0.4234
 4939WAT     H120476   4.535   4.533   4.025  0.1155 -0.1104  0.5307
 4939WAT     H220477   4.552   4.398   4.046 -1.5037 -0.6258 -1.2119
 4939WAT    EPW20478   4.559   4.462   4.001 -0.7657 -0.1264 -0.3989
 4940WAT      O20479   4.056   2.384   4.980 -0.6434  0.1174 -0.1299
 4940WAT     H120480   4.015   2.426   4.915 -2.0901  1.2199  1.4001
 4940WAT     H220481   4.106   2.445   5.016 -2.4715  0.5671  1.8727
 4940WAT    EPW20482   4.057   2.399   4.975 -1.1272  0.3467  0.3919
 4941WAT      O20483   4.278   4.775   4.857 -0.0849  0.6416  0.2952
 4941WAT     H120484   4.207   4.753   4.811 -0.0614  0.2807  0.4260
 4941WAT     H220485   4.248   4.782   4.939  0.1821 -0.3626  0.4989
 4941WAT    EPW20486   4.263   4.773   4.862 -0.0420  0.4399  0.3446
 4942WAT      O20487   5.041   5.576   4.823  0.0683 -0.0673  0.4445
 4942WAT     H120488   5.006   5.504   4.788 -0.9349 -0.4902  2.1762
 4942WAT     H220489   5.001   5.641   4.781  0.3984 -0.5039 -0.5836
 4942WAT    EPW20490   5.030   5.575   4.812 -0.0311 -0.1942  0.5484
 4943WAT      O20491   4.388   5.280   0.301 -0.4824 -0.3519  0.2306
 4943WAT     H120492   4.453   5.290   0.359 -1.1169  1.9201  0.6404
 4943WAT     H220493   4.426   5.239   0.235  1.1649  0.1482  0.8110
 4943WAT    EPW20494   4.404   5.276   0.300 -0.3328  0.0576  0.3769
 4944WAT      O20495   3.394   1.561   2.175 -0.8529  0.4400  0.1728
 4944WAT     H120496   3.432   1.491   2.142 -0.1944  0.8495  0.0383
 4944WAT     H220497   3.341   1.529   2.236  0.6686 -0.0908  1.2882
 4944WAT    EPW20498   3.392   1.546   2.179 -0.5309  0.4221  0.3177
 4945WAT      O20499   6.414   3.881   6.009 -0.5561  0.4129 -0.1141
 4945WAT     H120500   6.336   3.852   5.984  0.1055 -1.0469 -0.6432
 4945WAT     H220501   6.437   3.826   6.073  1.3723 -1.3552 -2.1286
 4945WAT    EPW20502   6.406   3.868   6.015 -0.1735 -0.0639 -0.4899
 4946WAT      O20503   2.829   6.376   2.548  0.4523 -0.0593 -0.0989
 4946WAT     H120504   2.779   6.442   2.521 -0.1506 -1.0270 -1.4155
 4946WAT     H220505   2.900   6.382   2.498 -0.2725 -1.3076 -1.3225
 4946WAT    EPW20506   2.833   6.387   2.537  0.2562 -0.3866 -0.4741
 4947WAT      O20507   7.316   1.284   3.845  0.4628  0.3039 -0.2714
 4947WAT     H120508   7.330   1.201   3.865  0.5491  0.3656 -0.0785
 4947WAT     H220509   7.256   1.310   3.902  0.6703  0.4633 -0.1245
 4947WAT    EPW20510   7.309   1.276   3.856  0.5062  0.3366 -0.2212
 4948WAT      O20511   6.530   3.396   4.790  0.4455 -0.0994  0.5354
 4948WAT     H120512   6.449   3.415   4.767  0.6853  1.1231  0.6718
 4948WAT     H220513   6.520   3.335   4.853 -0.3876  0.5764  1.0718
 4948WAT    EPW20514   6.517   3.390   4.796  0.3579  0.1810  0.6348
 4949WAT      O20515   4.325   5.262   6.091 -0.0363 -0.1344  0.1693
 4949WAT     H120516   4.247   5.224   6.085  0.2839 -0.8637  0.4097
 4949WAT     H220517   4.367   5.234   6.020 -0.2538  0.9204 -0.3996
 4949WAT    EPW20518   4.320   5.252   6.080 -0.0211 -0.0863  0.1208
 4950WAT      O20519   4.170   2.947   5.417 -0.1688  0.6569 -0.1687
 4950WAT     H120520   4.115   3.011   5.436 -1.2089 -0.3508  0.3653
 4950WAT     H220521   4.136   2.912   5.344 -1.0685 -0.8276  0.9102
 4950WAT    EPW20522   4.157   2.951   5.409 -0.4553  0.2888  0.0696
 4951WAT      O20523   5.314   4.212   2.616  0.3757  0.4127  0.0129
 4951WAT     H120524   5.249   4.270   2.615 -0.9878 -1.0283 -0.1930
 4951WAT     H220525   5.351   4.222   2.538  0.1716  1.0315 -0.0063
 4951WAT    EPW20526   5.310   4.222   2.604  0.1441  0.2913 -0.0203
 4952WAT      O20527   0.392   6.042   4.296  0.3713  0.1331 -0.0826
 4952WAT     H120528   0.457   6.101   4.289  1.0924 -0.6270 -0.0168
 4952WAT     H220529   0.385   6.012   4.214 -0.4910  0.8041 -0.2684
 4952WAT    EPW20530   0.401   6.046   4.283  0.3505  0.1199 -0.1003
 4953WAT      O20531   4.488   5.642   1.839 -0.5185 -0.2761  0.8627
 4953WAT     H120532   4.496   5.555   1.845  1.9478 -0.2680 -1.0387
 4953WAT     H220533   4.560   5.672   1.878  0.3445  0.7267 -1.3623
 4953WAT    EPW20534   4.500   5.634   1.846 -0.0267 -0.1268  0.2531
 4954WAT      O20535   5.892   4.075   5.730 -0.1950 -0.2090  0.4034
 4954WAT     H120536   5.840   4.143   5.739  0.1944  0.1132  0.2687
 4954WAT     H220537   5.955   4.088   5.789 -0.6550 -0.9694  1.0709
 4954WAT    EPW20538   5.894   4.087   5.740 -0.2054 -0.2737  0.4821
 4955WAT      O20539   5.897   3.795   4.983  0.3290  0.5540 -0.6134
 4955WAT     H120540   5.921   3.817   4.902  1.4463  0.1841 -0.3958
 4955WAT     H220541   5.827   3.846   4.998  2.1723  3.2686 -0.5030
 4955WAT    EPW20542   5.890   3.806   4.973  0.7663  0.9004 -0.5650
 4956WAT      O20543   5.621   3.289   4.221  0.2995 -0.5042  0.2940
 4956WAT     H120544   5.693   3.337   4.230 -0.1744  0.1129  0.8702
 4956WAT     H220545   5.559   3.338   4.258 -0.7784 -0.1720 -1.7809
 4956WAT    EPW20546   5.623   3.304   4.227  0.0703 -0.3639  0.0726
 4957WAT      O20547   6.615   2.292   7.610  0.3349 -0.3387 -0.3525
 4957WAT     H120548   6.640   2.278   7.527  3.2886  1.6328  0.0266
 4957WAT     H220549   6.644   2.373   7.626  0.6512 -0.9498  2.8502
 4957WAT    EPW20550   6.623   2.302   7.600  0.8179 -0.1377  0.1766
 4958WAT      O20551   0.786   2.919   4.368  0.2587 -0.2667 -0.2117
 4958WAT     H120552   0.765   2.835   4.380 -0.6444  0.0387  0.4961
 4958WAT     H220553   0.727   2.948   4.312  0.7481 -0.1694 -0.6851
 4958WAT    EPW20554   0.774   2.911   4.362  0.1976 -0.2072 -0.1771
 4959WAT      O20555   5.412   2.649   4.250  0.2319  0.6232 -0.6535
 4959WAT     H120556   5.491   2.614   4.236  0.3181 -0.4087  1.8492
 4959WAT     H220557   5.359   2.581   4.242 -0.1370  0.8468 -0.1149
 4959WAT    EPW20558   5.416   2.634   4.247  0.1902  0.5038 -0.2042
 4960WAT      O20559   5.538   5.859   4.434 -0.2739 -0.1208 -0.4179
 4960WAT     H120560   5.452   5.857   4.426 -0.3181  1.2571 -0.6208
 4960WAT     H220561   5.566   5.826   4.358 -0.6402  0.3264 -0.7563
 4960WAT    EPW20562   5.530   5.854   4.421 -0.3345  0.1488 -0.4978
 4961WAT      O20563   3.299   4.131   7.502  0.3511 -0.2665 -0.8275
 4961WAT     H120564   3.255   4.056   7.506  0.2233 -0.1204  1.4652
 4961WAT     H220565   3.333   4.130   7.421 -1.0831 -1.9410 -1.4696
 4961WAT    EPW20566   3.298   4.120   7.490  0.1204 -0.4923 -0.5837
 4962WAT      O20567   5.786   0.436   2.788 -0.6148 -0.4347 -0.6192
 4962WAT     H120568   5.744   0.410   2.715  2.7920 -0.6658 -2.7070
 4962WAT     H220569   5.748   0.512   2.807 -4.0555 -2.0279 -0.3284
 4962WAT    EPW20570   5.774   0.443   2.780 -0.6198 -0.7042 -0.8847
 4963WAT      O20571   7.031   7.672   3.952  0.3823 -0.1396  0.2587
 4963WAT     H120572   7.025   7.655   4.038  0.2421 -1.1810  0.0526
 4963WAT     H220573   7.082   7.608   3.922  0.4575  0.2381 -0.4418
 4963WAT    EPW20574   7.038   7.660   3.961  0.3727 -0.2376  0.1248
 4964WAT      O20575   6.222   4.545   4.689 -0.2877 -0.3115  0.8186
 4964WAT     H120576   6.287   4.511   4.641 -0.9552 -0.7703  0.2151
 4964WAT     H220577   6.157   4.488   4.678 -1.0302  0.5109  0.8291
 4964WAT    EPW20578   6.222   4.531   4.680 -0.4960 -0.2578  0.7310
 4965WAT      O20579   6.022   0.810   4.910  0.4736 -0.1744  0.0592
 4965WAT     H120580   6.093   0.858   4.926  1.0506 -0.8378 -0.4425
 4965WAT     H220581   5.960   0.869   4.895  1.1912  0.4181 -0.6392
 4965WAT    EPW20582   6.024   0.826   4.910  0.6648 -0.1849 -0.1181
 4966WAT      O20583   4.403   6.393   2.280  0.0679 -0.0622 -0.6163
 4966WAT     H120584   4.352   6.389   2.209 -0.0736  1.0990 -0.6011
 4966WAT     H220585   4.384   6.319   2.322 -1.5885  0.2979 -0.6351
 4966WAT    EPW20586   4.392   6.382   2.275 -0.1977  0.1625 -0.6168
 4967WAT      O20587   2.619   6.043   1.973  0.3930 -0.5292  0.2822
 4967WAT     H120588   2.565   6.062   2.039 -0.8335  0.8566 -1.0649
 4967WAT     H220589   2.571   5.991   1.922  1.2655 -1.4285  0.3470
 4967WAT    EPW20590   2.604   6.038   1.976  0.3407 -0.4573  0.0927
 4968WAT      O20591   3.505   5.709   3.022 -0.0562 -0.3222  0.3449
 4968WAT     H120592   3.533   5.791   3.018  0.2649 -0.4324  0.2804
 4968WAT     H220593   3.521   5.685   3.104  0.0370 -0.3826  0.3102
 4968WAT    EPW20594   3.511   5.717   3.033  0.0050 -0.3474  0.3302
 4969WAT      O20595   6.066   1.452   0.216 -0.5978 -0.3944 -0.7075
 4969WAT     H120596   6.100   1.375   0.240  0.9951  0.3733 -0.3432
 4969WAT     H220597   6.004   1.467   0.274  1.1873  0.0323  1.1953
 4969WAT    EPW20598   6.062   1.443   0.228 -0.0988 -0.2180 -0.3726
 4970WAT      O20599   2.150   4.008   2.717  0.2310  0.5463 -0.6338
 4970WAT     H120600   2.211   3.947   2.708  0.5739  0.9012 -0.7562
 4970WAT     H220601   2.166   4.042   2.796 -1.0705 -0.7156  0.2082
 4970WAT    EPW20602   2.161   4.004   2.727  0.0894  0.4123 -0.5275
 4971WAT      O20603   4.332   6.482   2.554  0.0757  0.2323  0.2217
 4971WAT     H120604   4.265   6.538   2.561 -0.2916 -0.1752 -0.0277
 4971WAT     H220605   4.327   6.454   2.472 -0.1490 -0.6695  0.5277
 4971WAT    EPW20606   4.321   6.486   2.543 -0.0117  0.0389  0.2301
 4972WAT      O20607   5.401   1.649   2.252 -0.2189  0.5012  0.2378
 4972WAT     H120608   5.470   1.694   2.222  2.3430 -2.5820  0.9557
 4972WAT     H220609   5.361   1.623   2.179 -0.0013  1.4685 -0.2376
 4972WAT    EPW20610   5.406   1.652   2.237  0.1917  0.1886  0.2736
 4973WAT      O20611   5.475   5.076   4.128 -0.0670  0.3193 -0.9530
 4973WAT     H120612   5.544   5.026   4.146 -0.9295 -0.3478  0.8038
 4973WAT     H220613   5.466   5.068   4.042 -0.1966 -2.6952 -0.7820
 4973WAT    EPW20614   5.484   5.067   4.118 -0.2135 -0.2246 -0.6682
 4974WAT      O20615   6.093   4.114   5.924 -0.1361  0.4476  0.7492
 4974WAT     H120616   6.162   4.167   5.925  0.6576 -0.5584  0.8201
 4974WAT     H220617   6.083   4.092   6.008  1.1701 -1.5103  0.4685
 4974WAT    EPW20618   6.102   4.118   5.937  0.1741  0.0097  0.7182
 4975WAT      O20619   0.622   4.678   0.208  0.1697  0.1627 -0.0225
 4975WAT     H120620   0.635   4.746   0.261  0.5998 -0.1012  0.2102
 4975WAT     H220621   0.701   4.643   0.199 -0.3951 -1.8101  1.8563
 4975WAT    EPW20622   0.635   4.683   0.214  0.1498 -0.1677  0.2894
 4976WAT      O20623   1.837   5.382   7.829 -0.8624 -0.4134 -0.3310
 4976WAT     H120624   1.878   5.375   7.752  0.0663 -1.2831  0.2142
 4976WAT     H220625   1.760   5.345   7.814 -0.7193 -0.5040 -0.8705
 4976WAT    EPW20626   1.832   5.375   7.816 -0.7041 -0.5552 -0.3301
 4977WAT      O20627   4.207   5.394   4.029 -0.6126  0.1197 -0.1895
 4977WAT     H120628   4.177   5.350   3.960 -1.6180  0.9484 -0.3121
 4977WAT     H220629   4.146   5.380   4.090 -0.6839  0.9094 -0.0732
 4977WAT    EPW20630   4.193   5.386   4.028 -0.7716  0.3588 -0.1904
 4978WAT      O20631   2.594   1.760   2.255 -0.5509 -0.0544  0.8116
 4978WAT     H120632   2.528   1.792   2.303 -2.0942  1.7490 -2.2016
 4978WAT     H220633   2.653   1.824   2.258 -0.0451 -0.5493  1.4294
 4978WAT    EPW20634   2.593   1.774   2.263 -0.7042  0.1389  0.4578
 4979WAT      O20635   3.831   0.909   2.951 -0.7079 -0.3977  0.0634
 4979WAT     H120636   3.908   0.897   2.992 -0.7479  1.1910  0.6939
 4979WAT     H220637   3.778   0.852   2.991 -0.2346 -0.3665  0.7687
 4979WAT    EPW20638   3.835   0.899   2.963 -0.6439 -0.1584  0.2607
 4980WAT      O20639   5.075   6.095   5.059 -0.1354  0.1960  0.3909
 4980WAT     H120640   5.140   6.149   5.082  0.5090 -0.8457  1.1196
 4980WAT     H220641   5.092   6.023   5.105 -1.3625 -0.3827 -0.0381
 4980WAT    EPW20642   5.087   6.092   5.069 -0.2215 -0.0434  0.4352
 4981WAT      O20643   2.905   6.139   1.009  0.0129  0.5241  0.3942
 4981WAT     H120644   2.908   6.065   1.055 -0.4532 -0.7666 -1.5389
 4981WAT     H220645   2.986   6.148   0.979 -0.2879 -0.0848 -0.6435
 4981WAT    EPW20646   2.917   6.130   1.011 -0.1004  0.2435 -0.0446
 4982WAT      O20647   5.705   5.826   7.636 -0.2014 -0.2551  1.0276
 4982WAT     H120648   5.742   5.845   7.713 -1.1143  0.1747  1.3770
 4982WAT     H220649   5.735   5.888   7.583 -0.0122 -0.2185  1.1762
 4982WAT    EPW20650   5.715   5.838   7.640 -0.3083 -0.1862  1.1012
 4983WAT      O20651   5.815   1.658   2.880  0.1079 -0.4160  0.1184
 4983WAT     H120652   5.849   1.719   2.933 -1.4456  1.7883 -1.2431
 4983WAT     H220653   5.793   1.703   2.809 -0.0945 -2.8262 -1.4689
 4983WAT    EPW20654   5.817   1.674   2.878 -0.1514 -0.4464 -0.3172
 4984WAT      O20655   6.575   3.855   5.272  0.4673 -0.2167  0.0880
 4984WAT     H120656   6.533   3.836   5.198 -0.8010 -3.2272  1.4182
 4984WAT     H220657   6.512   3.862   5.331  1.5302  0.7830  1.1743
 4984WAT    EPW20658   6.560   3.853   5.270  0.4370 -0.5138  0.4450
 4985WAT      O20659   3.617   0.885   4.623 -0.4507 -0.0105  0.1899
 4985WAT     H120660   3.557   0.859   4.565 -0.8741  0.8917  0.2009
 4985WAT     H220661   3.587   0.856   4.699 -1.0605  0.7119  0.2380
 4985WAT    EPW20662   3.604   0.877   4.626 -0.6033  0.2295  0.1987
 4986WAT      O20663   1.601   2.693   6.959 -0.2270 -0.2209 -0.0772
 4986WAT     H120664   1.599   2.606   6.971  2.9128 -0.2664  1.0985
 4986WAT     H220665   1.546   2.723   7.020  1.2991 -1.3149  1.9711
 4986WAT    EPW20666   1.593   2.684   6.970  0.4623 -0.3892  0.3990
 4987WAT      O20667   6.232   2.584   5.802 -0.4318 -0.3517  0.5968
 4987WAT     H120668   6.234   2.555   5.884 -1.5201  1.7070  1.4125
 4987WAT     H220669   6.227   2.510   5.755  0.3020 -1.5836  2.3452
 4987WAT    EPW20670   6.231   2.569   5.807 -0.4842 -0.2296  0.9756
 4988WAT      O20671   6.024   0.199   2.521 -0.6230  0.2472  0.0451
 4988WAT     H120672   6.067   0.274   2.514  0.2463 -0.2812 -0.4040
 4988WAT     H220673   5.995   0.200   2.604  0.2587  0.6064  0.3561
 4988WAT    EPW20674   6.026   0.210   2.533 -0.3643  0.2222  0.0247
 4989WAT      O20675   7.158   1.624   4.659  0.0437 -0.1503 -0.2333
 4989WAT     H120676   7.079   1.642   4.628 -0.6684 -2.6442 -0.0833
 4989WAT     H220677   7.170   1.541   4.636  2.2585 -0.0927  0.5275
 4989WAT    EPW20678   7.148   1.615   4.651  0.2656 -0.5102 -0.0988
 4990WAT      O20679   6.978   2.689   4.896 -0.2192 -0.5428  0.3993
 4990WAT     H120680   6.976   2.765   4.855  0.4784 -0.9294 -0.3896
 4990WAT     H220681   7.033   2.703   4.963 -0.7640 -0.1272  0.7704
 4990WAT    EPW20682   6.986   2.702   4.900 -0.1966 -0.5385  0.3376
 4991WAT      O20683   2.505   1.023   4.133  0.4941 -0.1108 -0.1275
 4991WAT     H120684   2.494   1.084   4.194 -0.0582 -0.3771  0.0491
 4991WAT     H220685   2.423   1.001   4.111  0.6650  0.5327 -1.5335
 4991WAT    EPW20686   2.491   1.029   4.139  0.4377 -0.0551 -0.3091
 4992WAT      O20687   6.587   6.369   7.834  0.0093 -0.5609 -0.1302
 4992WAT     H120688   6.603   6.454   7.830 -1.3017 -0.3124 -0.5000
 4992WAT     H220689   6.501   6.364   7.845  0.2530 -1.8287  1.7296
 4992WAT    EPW20690   6.577   6.381   7.835 -0.1484 -0.7115  0.0899
 4993WAT      O20691   0.255   1.363   5.802  0.0535 -0.8574 -0.2754
 4993WAT     H120692   0.233   1.364   5.718  0.9782 -4.4080 -0.6911
 4993WAT     H220693   0.192   1.317   5.840  0.6436 -0.9363  0.6328
 4993WAT    EPW20694   0.243   1.357   5.795  0.2772 -1.3935 -0.2026
 4994WAT      O20695   4.265   1.451   3.453  0.6021 -0.0660  0.2319
 4994WAT     H120696   4.211   1.383   3.459  2.0000 -1.5537 -2.2121
 4994WAT     H220697   4.233   1.497   3.387  0.8812  0.4955  0.4797
 4994WAT    EPW20698   4.253   1.448   3.444  0.8498 -0.2028 -0.0925
 4995WAT      O20699   4.628   7.507   1.988 -0.1210  0.3232  0.5088
 4995WAT     H120700   4.651   7.578   2.033  1.1431  0.4329 -0.2627
 4995WAT     H220701   4.653   7.525   1.907 -1.4772 -0.2663 -0.0779
 4995WAT    EPW20702   4.635   7.520   1.983 -0.1346  0.2523  0.3082
 4996WAT      O20703   5.157   6.064   1.116 -0.7072  0.1234 -0.1493
 4996WAT     H120704   5.161   5.988   1.160 -0.7418  0.9230  1.3144
 4996WAT     H220705   5.148   6.039   1.033 -1.3816 -1.4750  0.3503
 4996WAT    EPW20706   5.156   6.049   1.111 -0.8119  0.0054  0.1407
 4997WAT      O20707   1.764   1.687   6.946 -0.5190 -0.3402 -0.1319
 4997WAT     H120708   1.727   1.686   6.867 -1.0005 -0.3315  0.0897
 4997WAT     H220709   1.809   1.761   6.947  0.4230 -0.8861 -0.8153
 4997WAT    EPW20710   1.765   1.698   6.935 -0.4510 -0.4196 -0.2001
 4998WAT      O20711   6.332   3.764   7.466  0.2410 -0.1826  0.3669
 4998WAT     H120712   6.398   3.810   7.434 -0.0343  0.9601  1.3771
 4998WAT     H220713   6.264   3.788   7.416  0.6466 -1.8338 -1.0906
 4998WAT    EPW20714   6.332   3.775   7.454  0.2602 -0.2577  0.3008
 4999WAT      O20715   5.021   1.704   0.283  0.6679  0.4713  0.4720
 4999WAT     H120716   5.080   1.701   0.218  0.2493 -0.7809  0.1323
 4999WAT     H220717   5.070   1.717   0.354  1.4169 -0.9757  0.2488
 4999WAT    EPW20718   5.037   1.705   0.283  0.7167  0.0726  0.3888
 5000WAT      O20719   3.665   3.588   6.651  0.2382 -0.9976  0.0758
 5000WAT     H120720   3.653   3.613   6.734 -0.6345  2.0825 -0.8624
 5000WAT     H220721   3.749   3.608   6.636  0.7937 -2.8035  0.5244
 5000WAT    EPW20722   3.676   3.595   6.661  0.1913 -0.8094  0.0035
 5001WAT      O20723   2.944   4.561   2.201  0.0482  0.1297  0.4521
 5001WAT     H120724   2.918   4.492   2.154 -0.0015 -0.3176  1.1127
 5001WAT     H220725   2.886   4.623   2.180 -0.8216 -0.4884  0.9733
 5001WAT    EPW20726   2.931   4.560   2.191 -0.0876 -0.0277  0.6267
 5002WAT      O20727   1.992   3.783   7.741  0.0665  0.0120  0.1214
 5002WAT     H120728   2.041   3.754   7.807  0.1373 -0.0776  0.0295
 5002WAT     H220729   2.050   3.813   7.684 -0.0495  1.8587  0.9032
 5002WAT    EPW20730   2.007   3.783   7.743  0.0598  0.2715  0.2233
 5003WAT      O20731   1.108   0.620   4.271 -0.1500 -0.0031  0.2343
 5003WAT     H120732   1.183   0.663   4.281 -0.6828  0.6874  1.5338
 5003WAT     H220733   1.100   0.611   4.184  0.7008  1.2219  0.0125
 5003WAT    EPW20734   1.118   0.625   4.259 -0.1030  0.2799  0.3935
 5004WAT      O20735   3.845   1.504   6.632  0.3616 -0.2215 -0.0847
 5004WAT     H120736   3.792   1.465   6.689  0.5037 -0.9268 -0.4214
 5004WAT     H220737   3.791   1.548   6.579  0.0978 -1.0118 -0.4861
 5004WAT    EPW20738   3.829   1.505   6.633  0.3436 -0.4424 -0.1937
 5005WAT      O20739   3.165   2.148   7.417 -0.3311 -0.4727 -0.0389
 5005WAT     H120740   3.124   2.147   7.340  0.8487 -0.9300 -0.6855
 5005WAT     H220741   3.158   2.066   7.445 -2.6527  0.1430  1.4293
 5005WAT    EPW20742   3.158   2.136   7.410 -0.4997 -0.4493  0.0824
 5006WAT      O20743   2.104   0.046   1.510 -0.3282  0.7114 -0.0389
 5006WAT     H120744   2.107   0.123   1.470  0.9638  1.1961  0.9174
 5006WAT     H220745   2.087   0.067   1.593  1.9326  0.1821  0.6301
 5006WAT    EPW20746   2.102   0.060   1.517  0.1967  0.7048  0.2012
 5007WAT      O20747   5.853   0.352   5.664  0.5355 -0.3473 -0.2144
 5007WAT     H120748   5.929   0.378   5.628  1.0293  1.1009  1.6674
 5007WAT     H220749   5.865   0.267   5.678  1.1788 -0.4716 -1.3948
 5007WAT    EPW20750   5.866   0.343   5.661  0.7035 -0.1517 -0.1108
 5008WAT      O20751   3.129   2.609   1.289 -0.4646 -0.1514 -0.2067
 5008WAT     H120752   3.190   2.557   1.324  0.1180 -1.4134 -2.7982
 5008WAT     H220753   3.152   2.689   1.315  0.6663 -0.8552  1.1083
 5008WAT    EPW20754   3.141   2.613   1.298 -0.2115 -0.4418 -0.3953
 5009WAT      O20755   2.712   4.973   7.749  0.0368  0.1352 -0.5722
 5009WAT     H120756   2.663   4.983   7.820 -1.1426 -0.3599 -1.2788
 5009WAT     H220757   2.698   4.890   7.725  3.0792 -0.7869  0.4846
 5009WAT    EPW20758   2.702   4.963   7.756  0.3120 -0.0742 -0.5205
 5010WAT      O20759   4.062   1.922   0.648 -0.4833 -0.4363  0.8023
 5010WAT     H120760   3.979   1.906   0.626 -0.3561 -0.9282  0.6857
 5010WAT     H220761   4.086   1.851   0.691 -0.0237 -0.4201  0.5732
 5010WAT    EPW20762   4.053   1.909   0.651 -0.3966 -0.5065  0.7512
 5011WAT      O20763   4.338   4.001   5.737  0.3674  0.1489  0.2412
 5011WAT     H120764   4.266   4.026   5.693  0.7000 -1.1393 -1.1154
 5011WAT     H220765   4.378   4.076   5.753 -1.2274  0.8994  0.9669
 5011WAT    EPW20766   4.333   4.016   5.733  0.1810  0.0695  0.1480
 5012WAT      O20767   5.647   2.678   5.701  0.5538 -0.5458 -0.2728
 5012WAT     H120768   5.730   2.654   5.691  0.6591 -0.2891 -0.0136
 5012WAT     H220769   5.647   2.763   5.682  0.2714 -0.6369 -0.6882
 5012WAT    EPW20770   5.659   2.687   5.697  0.5276 -0.5213 -0.2959
 5013WAT      O20771   4.074   6.791   5.563 -0.4370 -0.1180 -0.3358
 5013WAT     H120772   4.108   6.848   5.507 -0.4016 -0.6214 -0.8367
 5013WAT     H220773   4.004   6.832   5.594  0.6617  0.9941  0.8090
 5013WAT    EPW20774   4.069   6.806   5.559 -0.2695 -0.0281 -0.2407
 5014WAT      O20775   0.540   0.682   4.181  0.3901  0.3956  0.1659
 5014WAT     H120776   0.490   0.669   4.251  0.2398  0.7551  0.1283
 5014WAT     H220777   0.605   0.625   4.191  1.1294  1.3956  1.3089
 5014WAT    EPW20778   0.542   0.672   4.193  0.4771  0.5964  0.3292
 5015WAT      O20779   3.368   1.931   1.543 -0.0616  0.0456  0.4992
 5015WAT     H120780   3.370   2.012   1.511 -0.1475 -0.0778  0.1782
 5015WAT     H220781   3.293   1.899   1.513  0.3918 -0.4582 -0.1269
 5015WAT    EPW20782   3.357   1.938   1.534 -0.0073 -0.0471  0.3593
 5016WAT      O20783   2.050   1.348   7.172 -0.1807  0.0927  0.2036
 5016WAT     H120784   1.973   1.319   7.141 -0.3503  0.1474  0.5580
 5016WAT     H220785   2.067   1.418   7.123  2.7457 -3.1646 -4.2587
 5016WAT    EPW20786   2.041   1.354   7.160  0.2265 -0.3804 -0.4033
 5017WAT      O20787   5.483   1.087   5.806  0.2849  0.1584 -0.5249
 5017WAT     H120788   5.443   1.163   5.789  0.7499  0.8302  1.1846
 5017WAT     H220789   5.514   1.098   5.887  0.5956 -1.7667 -0.3388
 5017WAT    EPW20790   5.482   1.100   5.816  0.3995 -0.0268 -0.2449
 5018WAT      O20791   2.872   5.063   4.218 -0.0219 -0.4059  0.5344
 5018WAT     H120792   2.927   5.124   4.247  0.3402 -0.3478 -0.2519
 5018WAT     H220793   2.799   5.108   4.201 -0.0141 -0.3297  0.6989
 5018WAT    EPW20794   2.869   5.079   4.220  0.0327 -0.3861  0.4425
 5019WAT      O20795   3.537   4.307   3.137  0.0735 -0.0263  0.3508
 5019WAT     H120796   3.592   4.353   3.087  0.9879  0.2962  1.6250
 5019WAT     H220797   3.478   4.277   3.079  0.1599  1.6650 -0.6996
 5019WAT    EPW20798   3.536   4.309   3.121  0.2213  0.2712  0.3839
 5020WAT      O20799   5.931   5.145   3.035  0.6601 -0.3487  0.3454
 5020WAT     H120800   5.978   5.131   3.107  0.8920 -0.7808  0.1161
 5020WAT     H220801   5.992   5.155   2.973  0.4887  0.9839  0.3706
 5020WAT    EPW20802   5.947   5.144   3.036  0.6690 -0.2157  0.3152
 5021WAT      O20803   0.547   6.943   7.721  0.1062 -0.4502  0.6169
 5021WAT     H120804   0.593   6.979   7.786 -0.8264 -2.0053  2.2435
 5021WAT     H220805   0.511   7.011   7.681 -0.4261  0.5354  2.6394
 5021WAT    EPW20806   0.549   6.958   7.724 -0.1102 -0.5343  1.1559
 5022WAT      O20807   2.234   6.498   6.172 -0.2003  0.3354  0.0510
 5022WAT     H120808   2.301   6.443   6.184 -1.1091 -0.6425  0.8261
 5022WAT     H220809   2.201   6.507   6.252 -3.0223 -1.8784 -0.7257
 5022WAT    EPW20810   2.239   6.492   6.186 -0.7514 -0.1361  0.0507
 5023WAT      O20811   2.161   1.878   4.677  0.7517  0.2963  0.0136
 5023WAT     H120812   2.221   1.941   4.684  0.2220  0.7513  0.4887
 5023WAT     H220813   2.144   1.875   4.592  0.6110  0.9603  0.0144
 5023WAT    EPW20814   2.167   1.887   4.666  0.6526  0.4616  0.0839
 5024WAT      O20815   6.290   2.389   5.627 -0.4273  0.7900  0.5551
 5024WAT     H120816   6.229   2.354   5.576 -1.0160 -0.6280  2.1183
 5024WAT     H220817   6.363   2.382   5.580 -1.1063  0.4901 -0.4829
 5024WAT    EPW20818   6.292   2.383   5.613 -0.6145  0.5362  0.6327
 5025WAT      O20819   3.885   6.015   2.976 -0.1670  0.5450 -0.3605
 5025WAT     H120820   3.851   6.025   3.056  0.4887  1.6550 -0.1991
 5025WAT     H220821   3.971   6.009   2.990 -0.0680  0.5014 -0.9571
 5025WAT    EPW20822   3.892   6.016   2.989 -0.0555  0.7025 -0.4248
 5026WAT      O20823   5.863   2.517   2.551 -0.4708  0.0128  0.6083
 5026WAT     H120824   5.821   2.584   2.588  0.0992 -0.3430  1.9892
 5026WAT     H220825   5.900   2.477   2.619 -0.0578 -1.1844 -0.2893
 5026WAT    EPW20826   5.862   2.521   2.567 -0.3256 -0.2166  0.6797
 5027WAT      O20827   6.554   6.871   6.366 -0.0292  0.2747  0.0604
 5027WAT     H120828   6.483   6.919   6.351  0.1682  1.0034  1.2515
 5027WAT     H220829   6.618   6.930   6.371  0.5211 -0.2899 -0.1756
 5027WAT    EPW20830   6.553   6.887   6.365  0.0813  0.2989  0.2015
 5028WAT      O20831   4.052   3.959   7.356  0.2140 -0.6293 -0.6627
 5028WAT     H120832   4.006   3.891   7.386 -1.2938  1.0291  1.0913
 5028WAT     H220833   4.001   3.993   7.294  0.6403 -0.6739 -1.0470
 5028WAT    EPW20834   4.038   3.954   7.352  0.0543 -0.3909 -0.4603
 5029WAT      O20835   0.734   2.641   4.380 -0.6633  0.5479  0.4109
 5029WAT     H120836   0.683   2.591   4.330  0.0141  0.2249  0.0287
 5029WAT     H220837   0.773   2.583   4.433 -1.7440  0.9254  1.6820
 5029WAT    EPW20838   0.733   2.625   4.380 -0.7229  0.5560  0.5422
 5030WAT      O20839   0.827   3.836   5.355  0.2541 -0.1730  0.4115
 5030WAT     H120840   0.823   3.892   5.422  0.4256  0.4474 -0.0878
 5030WAT     H220841   0.903   3.856   5.317  0.5939 -1.1382  0.5595
 5030WAT    EPW20842   0.838   3.847   5.359  0.3297 -0.2239  0.3596
 5031WAT      O20843   4.215   2.153   1.244 -0.4388 -0.6816  0.2599
 5031WAT     H120844   4.141   2.197   1.231 -0.3175 -0.8451 -1.1619
 5031WAT     H220845   4.266   2.180   1.178  1.1379  0.1547  1.7408
 5031WAT    EPW20846   4.212   2.164   1.232 -0.1880 -0.5822  0.2687
 5032WAT      O20847   2.457   7.559   2.798  0.2513 -0.0932 -0.0143
 5032WAT     H120848   2.485   7.530   2.720 -0.4026  1.7536 -1.0119
 5032WAT     H220849   2.416   7.490   2.831 -0.4461 -0.6393 -1.8520
 5032WAT    EPW20850   2.455   7.544   2.791  0.0517  0.0989 -0.4331
 5033WAT      O20851   7.418   5.657   0.612  0.0315 -0.4549 -0.1592
 5033WAT     H120852   7.333   5.670   0.626  0.1054 -0.2865  0.1442
 5033WAT     H220853   7.443   5.608   0.680  0.2266 -0.3050 -0.1212
 5033WAT    EPW20854   7.409   5.651   0.624  0.0713 -0.4079 -0.1088
 5034WAT      O20855   2.378   0.309   4.456  0.3130  0.2306 -0.0233
 5034WAT     H120856   2.414   0.339   4.382  1.1427 -0.0481  0.2551
 5034WAT     H220857   2.406   0.366   4.516 -1.8731  1.5685 -0.1576
 5034WAT    EPW20858   2.388   0.322   4.454  0.1126  0.3871 -0.0020
 5035WAT      O20859   3.938   3.598   6.144 -0.1584 -0.4530 -0.3097
 5035WAT     H120860   4.007   3.593   6.197  0.6272 -1.0890 -1.3508
 5035WAT     H220861   3.874   3.559   6.189 -0.1487  1.0289  1.0891
 5035WAT    EPW20862   3.939   3.591   6.158 -0.0409 -0.3280 -0.2568
 5036WAT      O20863   4.649   3.146   6.038 -0.2328 -0.5338 -0.2740
 5036WAT     H120864   4.638   3.190   6.113 -1.6626 -0.0847 -0.7028
 5036WAT     H220865   4.656   3.209   5.978  2.7826 -0.8428 -0.3667
 5036WAT    EPW20866   4.648   3.162   6.040  0.0014 -0.5131 -0.3510
 5037WAT      O20867   3.687   3.703   1.742  0.3669 -0.2250  0.0719
 5037WAT     H120868   3.734   3.640   1.703  1.3372 -0.2910  1.2993
 5037WAT     H220869   3.734   3.723   1.812 -0.9776  0.4016  0.8262
 5037WAT    EPW20870   3.701   3.697   1.746  0.3116 -0.1422  0.3646
 5038WAT      O20871   3.792   2.695   1.046 -0.2845  0.0242  0.2559
 5038WAT     H120872   3.714   2.722   1.073 -0.5444 -0.7718  0.3216
 5038WAT     H220873   3.774   2.627   0.995  0.3162  0.3710 -0.4499
 5038WAT    EPW20874   3.778   2.689   1.042 -0.2341 -0.0422  0.1614
 5039WAT      O20875   5.063   0.820   0.707  0.0920 -0.3591 -0.3726
 5039WAT     H120876   5.115   0.814   0.637  0.1660 -0.4213 -0.3117
 5039WAT     H220877   5.112   0.860   0.767  0.3736 -1.2011 -0.0247
 5039WAT    EPW20878   5.078   0.825   0.705  0.1445 -0.4926 -0.3122
 5040WAT      O20879   2.711   0.021   1.612 -0.2157  0.1660 -0.3143
 5040WAT     H120880   2.794   0.028   1.638 -0.1397  0.8581 -0.7009
 5040WAT     H220881   2.666   0.014   1.686  0.0946  0.9666 -0.0377
 5040WAT    EPW20882   2.717   0.021   1.627 -0.1586  0.3865 -0.3305
 5041WAT      O20883   3.489   2.666   2.120 -0.1444  0.0855  1.0565
 5041WAT     H120884   3.429   2.655   2.057  0.7418 -1.3971  0.3920
 5041WAT     H220885   3.442   2.664   2.193 -1.0656  0.5101  0.5073
 5041WAT    EPW20886   3.473   2.664   2.121 -0.1496 -0.0708  0.8772
 5042WAT      O20887   4.060   4.361   1.522  0.4570  0.5164 -0.6089
 5042WAT     H120888   4.130   4.321   1.488 -0.8692 -1.9903 -0.5979
 5042WAT     H220889   4.078   4.364   1.607  0.3433 -0.6166 -0.5323
 5042WAT    EPW20890   4.073   4.356   1.529  0.2443 -0.0213 -0.5959
 5043WAT      O20891   5.108   5.346   0.730 -0.2189  0.6666 -0.2623
 5043WAT     H120892   5.102   5.340   0.643  0.4981  1.2675 -0.3678
 5043WAT     H220893   5.147   5.272   0.753 -0.2051  0.6041 -0.4845
 5043WAT    EPW20894   5.113   5.334   0.721 -0.1109  0.7461 -0.3107
 5044WAT      O20895   2.031   3.129   7.563 -0.0367 -0.1216  0.1575
 5044WAT     H120896   2.031   3.086   7.487  0.7900 -0.5442  0.3843
 5044WAT     H220897   2.017   3.067   7.622  0.5518  0.0055  0.4387
 5044WAT    EPW20898   2.029   3.114   7.560  0.1724 -0.1652  0.2326
 5045WAT      O20899   4.601   2.881   2.258  0.0200 -0.2432 -0.0270
 5045WAT     H120900   4.640   2.840   2.192 -1.6678 -0.6847 -0.8040
 5045WAT     H220901   4.575   2.817   2.310 -2.3469 -0.2529 -1.0866
 5045WAT    EPW20902   4.603   2.866   2.256 -0.5790 -0.3098 -0.2983
 5046WAT      O20903   4.783   2.054   2.641  0.0173  0.2912  0.6532
 5046WAT     H120904   4.707   2.014   2.655  0.3658 -1.1098 -1.2042
 5046WAT     H220905   4.842   1.999   2.675  0.3299  0.6661  0.7349
 5046WAT    EPW20906   4.781   2.040   2.648  0.1149  0.1396  0.3909
 5047WAT      O20907   2.039   3.085   1.774 -0.3554  0.6674 -0.0342
 5047WAT     H120908   2.045   3.046   1.697 -2.2964  0.4086 -0.1054
 5047WAT     H220909   2.042   3.019   1.832  0.2522  0.7838  0.0729
 5047WAT    EPW20910   2.040   3.070   1.771 -0.5523  0.6463 -0.0289
 5048WAT      O20911   1.433   7.382   4.678 -0.1354 -0.3086  0.1094
 5048WAT     H120912   1.464   7.345   4.605  0.6653 -0.0485  0.3025
 5048WAT     H220913   1.351   7.401   4.659  0.2267  0.2665 -0.9247
 5048WAT    EPW20914   1.426   7.379   4.665  0.0364 -0.1852 -0.0149
 5049WAT      O20915   5.516   1.837   7.226 -0.0566  0.4067  0.0197
 5049WAT     H120916   5.589   1.803   7.191 -0.5991 -0.1165 -0.6272
 5049WAT     H220917   5.466   1.767   7.239 -0.9681  0.8903 -0.7847
 5049WAT    EPW20918   5.519   1.821   7.223 -0.2714  0.4008 -0.1947
 5050WAT      O20919   2.658   4.250   5.145 -0.1912 -0.0715  0.2690
 5050WAT     H120920   2.639   4.327   5.108  0.0756  0.0999  0.4891
 5050WAT     H220921   2.678   4.200   5.077  0.0491  0.1730  0.1549
 5050WAT    EPW20922   2.658   4.254   5.129 -0.1163 -0.0100  0.2847
 5051WAT      O20923   5.327   7.126   3.242  0.7569  0.0697  0.1690
 5051WAT     H120924   5.274   7.192   3.220  0.2120  0.0858  1.4643
 5051WAT     H220925   5.314   7.067   3.178  1.0386  1.0719 -0.8494
 5051WAT    EPW20926   5.318   7.127   3.229  0.7181  0.2202  0.2099
 5052WAT      O20927   5.055   0.772   1.406  0.0884 -0.1687 -0.1370
 5052WAT     H120928   5.135   0.759   1.440  0.5426  1.2885 -0.5568
 5052WAT     H220929   5.010   0.805   1.473 -0.1099 -0.7921  0.0421
 5052WAT    EPW20930   5.060   0.775   1.421  0.1262 -0.0455 -0.1725
 5053WAT      O20931   2.220   5.487   7.211 -0.2442  0.3623  0.0871
 5053WAT     H120932   2.257   5.505   7.134  0.3930 -0.6227  0.1395
 5053WAT     H220933   2.265   5.536   7.267  1.0270 -0.8077  0.1466
 5053WAT    EPW20934   2.232   5.497   7.208  0.0377  0.0439  0.1036
 5054WAT      O20935   4.769   4.582   1.080  0.0333 -0.5810 -0.4952
 5054WAT     H120936   4.716   4.651   1.069  1.1220  0.3202 -0.2483
 5054WAT     H220937   4.797   4.591   1.162  1.2081 -0.5645 -0.8762
 5054WAT    EPW20938   4.765   4.593   1.091  0.3677 -0.4454 -0.5150
 5055WAT      O20939   7.260   1.257   6.606  0.6115 -0.4102  0.4399
 5055WAT     H120940   7.302   1.277   6.680  0.1232  0.0166  0.6107
 5055WAT     H220941   7.235   1.174   6.619  1.6690 -0.7855  0.1968
 5055WAT    EPW20942   7.262   1.248   6.619  0.6956 -0.4026  0.4292
 5056WAT      O20943   5.914   3.734   2.330  0.2989 -0.1175 -0.1421
 5056WAT     H120944   5.833   3.767   2.331 -0.4809 -1.8443  2.4813
 5056WAT     H220945   5.901   3.648   2.328  2.1967 -0.4529 -2.5112
 5056WAT    EPW20946   5.900   3.726   2.330  0.4641 -0.4222 -0.1045
 5057WAT      O20947   4.005   5.092   3.403 -0.2751 -0.2644  0.0944
 5057WAT     H120948   4.042   5.167   3.377 -0.1919 -0.4950 -0.4778
 5057WAT     H220949   3.999   5.100   3.489  0.4309  0.0955  0.1170
 5057WAT    EPW20950   4.010   5.104   3.412 -0.1585 -0.2453  0.0132
 5058WAT      O20951   3.574   0.677   1.535 -0.4882  0.2409 -0.5344
 5058WAT     H120952   3.634   0.650   1.592 -1.4151  0.6900  0.6945
 5058WAT     H220953   3.517   0.611   1.534 -0.8333  0.5391 -0.4056
 5058WAT    EPW20954   3.575   0.663   1.543 -0.6761  0.3513 -0.3338
 5059WAT      O20955   1.292   0.795   0.207 -0.0499 -0.2286  0.4339
 5059WAT     H120956   1.244   0.775   0.278  1.2919  1.0631  1.7806
 5059WAT     H220957   1.324   0.717   0.183 -1.5482 -0.8848  0.4239
 5059WAT    EPW20958   1.290   0.780   0.214 -0.0730 -0.1347  0.6313
 5060WAT      O20959   1.979   4.599   1.825 -0.0398 -0.1162 -0.7959
 5060WAT     H120960   1.924   4.534   1.846  1.0601 -0.6500  0.5638
 5060WAT     H220961   2.040   4.595   1.887  0.8989  1.2283 -1.5911
 5060WAT    EPW20962   1.980   4.589   1.837  0.2614  0.0035 -0.7125
 5061WAT      O20963   4.970   3.216   0.079  0.2690 -0.4759  0.0386
 5061WAT     H120964   4.906   3.162   0.102 -0.2947 -0.1647 -0.7533
 5061WAT     H220965   4.928   3.292   0.063  0.5245 -0.7309 -2.2747
 5061WAT    EPW20966   4.954   3.220   0.080  0.2235 -0.4676 -0.4201
 5062WAT      O20967   4.603   7.569   0.959  0.3504 -0.0754 -0.0393
 5062WAT     H120968   4.571   7.648   0.976  1.7995  0.8859 -1.5043
 5062WAT     H220969   4.613   7.569   0.872  1.8992 -1.2233  0.0897
 5062WAT    EPW20970   4.600   7.581   0.948  0.7933 -0.1029 -0.2366
 5063WAT      O20971   2.746   3.660   1.524 -0.1011  0.4724 -0.1203
 5063WAT     H120972   2.765   3.658   1.609 -0.8437  0.2880  0.0527
 5063WAT     H220973   2.701   3.734   1.514  1.0251  1.1204 -0.6030
 5063WAT    EPW20974   2.742   3.671   1.535 -0.0444  0.5409 -0.1660
 5064WAT      O20975   6.411   0.194   6.921  0.0294  0.2255 -0.0110
 5064WAT     H120976   6.448   0.259   6.968  1.7255 -0.2164 -0.6418
 5064WAT     H220977   6.375   0.143   6.982 -1.8695  2.0086  0.4718
 5064WAT    EPW20978   6.411   0.196   6.937 -0.0006  0.4237 -0.0329
 5065WAT      O20979   2.558   3.936   2.736 -0.3443 -0.1919  0.2603
 5065WAT     H120980   2.502   3.892   2.686  0.5600 -0.8837 -0.1857
 5065WAT     H220981   2.633   3.932   2.691  0.0878  0.6401  0.8722
 5065WAT    EPW20982   2.561   3.929   2.722 -0.1469 -0.1712  0.2848
 5066WAT      O20983   4.802   5.683   1.142 -0.5883  0.1881  0.0396
 5066WAT     H120984   4.755   5.643   1.080  0.2107 -0.4335 -0.1722
 5066WAT     H220985   4.761   5.661   1.215 -1.3277  0.6363 -0.2235
 5066WAT    EPW20986   4.789   5.674   1.143 -0.5795  0.1625 -0.0305
 5067WAT      O20987   4.945   5.403   2.920  0.0650  0.8711 -0.8238
 5067WAT     H120988   4.874   5.427   2.964 -0.0416  0.6841 -0.8927
 5067WAT     H220989   4.947   5.316   2.930  0.4148  0.8983 -0.6222
 5067WAT    EPW20990   4.935   5.394   2.928  0.1009  0.8475 -0.8042
 5068WAT      O20991   3.212   1.456   2.355  0.4749 -0.1994 -0.3241
 5068WAT     H120992   3.211   1.370   2.373  1.1045 -0.3760 -1.0634
 5068WAT     H220993   3.140   1.468   2.308  0.5921 -0.4056 -0.5601
 5068WAT    EPW20994   3.201   1.445   2.351  0.5852 -0.2559 -0.4682
 5069WAT      O20995   0.021   5.494   7.525 -0.1239  0.1036  0.3594
 5069WAT     H120996   0.063   5.440   7.579  2.2444  0.5454 -0.8744
 5069WAT     H220997  -0.030   5.441   7.478 -0.1701 -0.6256  1.2070
 5069WAT    EPW20998   0.020   5.478   7.526  0.2192  0.0611  0.3024
 5070WAT      O20999   1.343   4.490   1.981  0.3074  0.8954  0.1857
 5070WAT     H121000   1.369   4.475   2.063  0.4454  0.1202  0.0034
 5070WAT     H221001   1.298   4.418   1.960  2.6137 -0.2197 -1.3889
 5070WAT    EPW21002   1.340   4.477   1.990  0.6685  0.6162 -0.0738
 5071WAT      O21003   6.389   1.138   6.235 -0.3504  1.3306  0.5265
 5071WAT     H121004   6.397   1.051   6.226  0.6496  1.5672 -1.1120
 5071WAT     H221005   6.307   1.154   6.209 -0.3304  0.9483  0.2174
 5071WAT    EPW21006   6.378   1.127   6.230 -0.1998  1.3091  0.2388
 5072WAT      O21007   0.563   0.716   5.445 -0.5304 -0.0494 -0.0695
 5072WAT     H121008   0.578   0.657   5.508  0.8507 -0.2532 -0.5630
 5072WAT     H221009   0.581   0.792   5.484 -0.6091 -0.0988  0.0630
 5072WAT    EPW21010   0.568   0.718   5.460 -0.3380 -0.0868 -0.1229
 5073WAT      O21011   0.681   3.661   6.253  0.0602  0.5788  0.3454
 5073WAT     H121012   0.750   3.620   6.286 -0.9357 -1.0690  0.5035
 5073WAT     H221013   0.637   3.687   6.324 -1.1338 -1.3331  0.3821
 5073WAT    EPW21014   0.685   3.659   6.269 -0.2633  0.0530  0.3742
 5074WAT      O21015   7.230   6.351   5.050 -0.3836  0.2894  0.2971
 5074WAT     H121016   7.300   6.342   5.100 -0.4912 -3.0263  0.1193
 5074WAT     H221017   7.166   6.317   5.099 -0.8940 -1.0369 -1.1929
 5074WAT    EPW21018   7.231   6.344   5.065 -0.4749 -0.3963  0.0507
 5075WAT      O21019   6.174   2.601   6.674 -0.0189 -0.3555  0.0330
 5075WAT     H121020   6.110   2.659   6.689 -1.2518 -1.3328 -1.1429
 5075WAT     H221021   6.141   2.527   6.706  0.8578 -0.7424  0.0561
 5075WAT    EPW21022   6.159   2.599   6.681 -0.0715 -0.5570 -0.1373
 5076WAT      O21023   5.042   7.117   0.426  0.0735  0.0367 -0.2290
 5076WAT     H121024   4.976   7.099   0.372  1.2601 -3.0676 -0.8386
 5076WAT     H221025   5.002   7.131   0.502 -1.4851  2.5731 -1.3470
 5076WAT    EPW21026   5.026   7.116   0.429  0.0185 -0.0472 -0.4842
 5077WAT      O21027   2.992   6.078   6.145  0.4865 -0.2299  0.1265
 5077WAT     H121028   2.990   6.160   6.176  0.2216 -1.0971  2.5933
 5077WAT     H221029   3.052   6.083   6.082  1.6130  1.5641  1.2164
 5077WAT    EPW21030   3.001   6.091   6.140  0.6138 -0.0930  0.6519
 5078WAT      O21031   4.924   2.339   4.034 -0.5182  0.1244 -0.5423
 5078WAT     H121032   4.884   2.291   3.974 -1.5983  1.9764 -1.3764
 5078WAT     H221033   4.859   2.373   4.080  0.2569 -0.0687  0.7532
 5078WAT    EPW21034   4.908   2.337   4.032 -0.5633  0.3695 -0.4741
 5079WAT      O21035   4.852   0.476   6.704  0.1453 -0.0183  0.1269
 5079WAT     H121036   4.783   0.485   6.756  1.1960 -0.6054  1.6993
 5079WAT     H221037   4.827   0.513   6.629 -0.7064  2.8282  1.6857
 5079WAT    EPW21038   4.838   0.483   6.701  0.1747  0.3154  0.5894
 5080WAT      O21039   3.682   2.054   1.762  0.1590 -0.1306  0.6071
 5080WAT     H121040   3.638   2.099   1.822  0.3202  0.2560  0.4402
 5080WAT     H221041   3.679   2.105   1.691  2.4376  0.8281  1.0880
 5080WAT    EPW21042   3.675   2.068   1.760  0.5194  0.0681  0.6535
 5081WAT      O21043   2.125   7.487   5.905 -0.1905 -0.2213  0.0962
 5081WAT     H121044   2.149   7.428   5.846 -1.8863 -2.6674  1.6700
 5081WAT     H221045   2.199   7.507   5.946  0.7233  0.2512 -1.6765
 5081WAT    EPW21046   2.139   7.481   5.902 -0.3060 -0.5129  0.0668
 5082WAT      O21047   3.883   5.765   1.080  0.1758 -0.1609 -0.6602
 5082WAT     H121048   3.918   5.688   1.102  0.3458 -0.2401 -1.1974
 5082WAT     H221049   3.829   5.746   1.015  0.0852  0.1469 -0.6780
 5082WAT    EPW21050   3.880   5.751   1.074  0.1875 -0.1272 -0.7422
 5083WAT      O21051   4.371   3.961   3.989 -0.2960  0.1658 -0.9071
 5083WAT     H121052   4.429   3.899   3.968 -0.6932 -0.1176 -1.1789
 5083WAT     H221053   4.380   4.021   3.926  0.0279  0.3467 -0.6910
 5083WAT    EPW21054   4.381   3.961   3.976 -0.3069  0.1507 -0.9154
 5084WAT      O21055   5.442   7.283   0.286  0.1965  0.3433  0.5535
 5084WAT     H121056   5.403   7.219   0.331 -0.4850  1.6834  1.9450
 5084WAT     H221057   5.399   7.355   0.310  0.1877  1.2247 -1.8342
 5084WAT    EPW21058   5.430   7.284   0.296  0.0945  0.6715  0.4063
 5085WAT      O21059   0.120   5.707   0.133  0.0341  0.3491  0.5778
 5085WAT     H121060   0.140   5.643   0.189 -1.8856  1.2040  2.4203
 5085WAT     H221061   0.041   5.685   0.105 -0.7622  1.9440  1.4251
 5085WAT    EPW21062   0.111   5.694   0.137 -0.3671  0.7110  0.9751
 5086WAT      O21063   6.207   3.143   0.595 -0.0349 -0.4297 -0.4123
 5086WAT     H121064   6.267   3.128   0.534 -0.4415 -1.9862 -0.4753
 5086WAT     H221065   6.162   3.210   0.564  1.0210  0.1020 -0.8524
 5086WAT    EPW21066   6.209   3.151   0.582  0.0610 -0.5811 -0.4866
 5087WAT      O21067   3.851   1.719   1.456 -0.1534 -0.4637 -0.1766
 5087WAT     H121068   3.773   1.736   1.492 -0.1479  0.2035 -0.4740
 5087WAT     H221069   3.832   1.666   1.390 -0.4788  0.4647 -0.8494
 5087WAT    EPW21070   3.837   1.714   1.452 -0.2007 -0.2280 -0.3199
 5088WAT      O21071   3.758   2.114   0.221 -0.2635  0.1643  0.3735
 5088WAT     H121072   3.768   2.187   0.266 -0.9828 -0.6573  1.9274
 5088WAT     H221073   3.773   2.051   0.279 -3.4996 -0.9834  0.1821
 5088WAT    EPW21074   3.762   2.115   0.236 -0.8478 -0.1266  0.5748
 5089WAT      O21075   3.875   3.280   6.359  0.0096  0.1175  0.1979
 5089WAT     H121076   3.815   3.321   6.311 -1.1457 -3.2410 -1.6008
 5089WAT     H221077   3.829   3.219   6.402  1.7855 -0.7211  1.0345
 5089WAT    EPW21078   3.859   3.277   6.358  0.1012 -0.5025  0.0558
 5090WAT      O21079   7.010   2.776   6.922  0.4308 -0.0570  0.1369
 5090WAT     H121080   7.065   2.783   6.989 -0.2287 -1.8875  0.9486
 5090WAT     H221081   7.062   2.757   6.854  0.8707 -1.9627  0.9234
 5090WAT    EPW21082   7.026   2.774   6.922  0.3984 -0.6089  0.3730
 5091WAT      O21083   4.278   1.083   3.431 -0.0880 -0.3635  0.2443
 5091WAT     H121084   4.241   1.005   3.419  0.6816 -1.2527  2.8161
 5091WAT     H221085   4.210   1.137   3.440 -0.6299 -0.6651 -1.6383
 5091WAT    EPW21086   4.263   1.079   3.431 -0.0544 -0.5394  0.3461
 5092WAT      O21087   6.286   2.217   6.782 -0.3613  0.2063  0.6766
 5092WAT     H121088   6.242   2.159   6.830 -0.3774  0.9514  1.5948
 5092WAT     H221089   6.226   2.278   6.765 -0.5717 -0.4290 -0.9965
 5092WAT    EPW21090   6.270   2.218   6.787 -0.3948  0.2225  0.5651
 5093WAT      O21091   5.452   1.983   4.392  0.2189 -0.0683  0.2975
 5093WAT     H121092   5.420   2.062   4.373  0.9533 -0.0621 -1.0346
 5093WAT     H221093   5.422   1.932   4.328 -0.7342 -1.0339  1.4598
 5093WAT    EPW21094   5.443   1.987   4.380  0.1866 -0.2100  0.2724
 5094WAT      O21095   6.364   5.681   6.001  0.5107 -0.7463  0.0838
 5094WAT     H121096   6.342   5.754   6.043 -0.5403  1.4188 -3.7496
 5094WAT     H221097   6.450   5.673   6.016  0.6929  1.4404  0.4974
 5094WAT    EPW21098   6.374   5.691   6.009  0.3823 -0.1034 -0.4214
 5095WAT      O21099   5.956   2.112   6.793  0.1897  0.1125 -0.1311
 5095WAT     H121100   5.898   2.078   6.849 -1.2456  2.2927 -0.1867
 5095WAT     H221101   6.033   2.101   6.834 -0.3592 -1.6649  0.5340
 5095WAT    EPW21102   5.959   2.105   6.807 -0.1034  0.1720 -0.0411
 5096WAT      O21103   6.089   4.975   7.501  0.1851 -0.3063  0.5790
 5096WAT     H121104   6.069   4.898   7.538 -2.8110 -0.1190 -0.3713
 5096WAT     H221105   6.133   4.953   7.429 -1.6261 -1.2910 -0.2902
 5096WAT    EPW21106   6.093   4.960   7.496 -0.5251 -0.4241  0.3102
 5097WAT      O21107   5.795   5.148   3.632 -0.2411  0.2396 -0.0180
 5097WAT     H121108   5.848   5.092   3.591 -0.2575 -0.8680  1.4200
 5097WAT     H221109   5.844   5.220   3.642 -0.1445  0.4512 -1.6687
 5097WAT    EPW21110   5.810   5.151   3.627 -0.2292  0.1072 -0.0494
 5098WAT      O21111   5.177   2.503   5.080  0.1094 -0.1153  0.3530
 5098WAT     H121112   5.247   2.453   5.093  0.6375  0.5263  0.0282
 5098WAT     H221113   5.133   2.462   5.017  0.0684 -0.6438  0.7236
 5098WAT    EPW21114   5.181   2.490   5.073  0.1814 -0.0986  0.3597
 5099WAT      O21115   5.926   2.341   0.669 -0.1717  0.1343  0.3653
 5099WAT     H121116   5.989   2.356   0.612  0.5604 -0.5700  0.9708
 5099WAT     H221117   5.936   2.405   0.728 -1.4956  1.4149 -0.7167
 5099WAT    EPW21118   5.936   2.353   0.669 -0.2591  0.2194  0.2949
 5100WAT      O21119   0.735   2.899   6.440  0.5845  0.3777  0.4730
 5100WAT     H121120   0.701   2.897   6.360 -0.1532 -1.5203  0.7828
 5100WAT     H221121   0.666   2.897   6.493  1.0756  1.0660  1.1796
 5100WAT    EPW21122   0.720   2.899   6.436  0.5481  0.1990  0.6231
 5101WAT      O21123   3.537   2.980   0.401 -0.6070  0.0817  0.1278
 5101WAT     H121124   3.509   2.936   0.470 -0.1800  1.6765  1.3810
 5101WAT     H221125   3.464   2.998   0.357 -0.8759 -1.0142  0.1163
 5101WAT    EPW21126   3.522   2.976   0.405 -0.5836  0.1554  0.3112
 5102WAT      O21127   1.221   0.820   5.226  0.1501 -0.0761 -0.0511
 5102WAT     H121128   1.308   0.812   5.235  0.1738  0.3346  0.1499
 5102WAT     H221129   1.213   0.879   5.163  0.0251  0.0867  0.1145
 5102WAT    EPW21130   1.233   0.828   5.218  0.1351  0.0086  0.0030
 5103WAT      O21131   7.046   0.219   7.029 -0.0825  0.2129 -0.2706
 5103WAT     H121132   7.025   0.150   6.980  0.9341  0.7608 -1.5603
 5103WAT     H221133   6.973   0.265   7.032 -0.3121 -0.1029 -0.8432
 5103WAT    EPW21134   7.032   0.215   7.022  0.0338  0.2472 -0.5457
 5104WAT      O21135   4.188   1.038   2.899 -0.2388 -0.2500  0.2036
 5104WAT     H121136   4.262   1.047   2.945  0.7702 -2.2236 -0.8881
 5104WAT     H221137   4.141   0.982   2.946 -0.8732  0.6481  0.6661
 5104WAT    EPW21138   4.192   1.031   2.913 -0.1835 -0.4088  0.1107
 5105WAT      O21139   2.726   5.221   0.273  0.2920 -0.1171  0.2515
 5105WAT     H121140   2.682   5.203   0.347 -1.3245 -0.8440 -0.8312
 5105WAT     H221141   2.807   5.196   0.291 -0.3776 -1.6807  1.3080
 5105WAT    EPW21142   2.731   5.215   0.287 -0.0457 -0.4554  0.2476
 5106WAT      O21143   5.064   5.389   3.183  0.4631  0.2238 -0.7701
 5106WAT     H121144   4.993   5.351   3.218  0.8937 -0.6264 -0.7978
 5106WAT     H221145   5.041   5.403   3.100  0.9105 -1.6723 -1.2650
 5106WAT    EPW21146   5.050   5.385   3.176  0.5928 -0.1819 -0.8473
 5107WAT      O21147   2.456   0.884   1.558  0.2759 -0.4954 -0.2586
 5107WAT     H121148   2.540   0.869   1.538  0.3090  0.7817 -1.1827
 5107WAT     H221149   2.431   0.944   1.501 -0.4871  1.1717  1.6996
 5107WAT    EPW21150   2.465   0.890   1.547  0.1681 -0.0604 -0.1059
 5108WAT      O21151   1.811   3.150   0.812  0.6637  0.1610 -0.0958
 5108WAT     H121152   1.784   3.152   0.729  0.6892 -3.2372 -0.3272
 5108WAT     H221153   1.821   3.065   0.828  1.2157  0.7266  3.2472
 5108WAT    EPW21154   1.809   3.138   0.802  0.7490 -0.2574  0.3638
 5109WAT      O21155   1.759   4.237   0.552 -0.2500  0.1446  0.3503
 5109WAT     H121156   1.797   4.210   0.626  0.9870  0.5648 -0.1063
 5109WAT     H221157   1.753   4.323   0.563  0.8537  0.3336 -0.4336
 5109WAT    EPW21158   1.763   4.246   0.564  0.0957  0.2346  0.1670
 5110WAT      O21159   5.528   0.560   7.062  0.5565  0.0090  0.5900
 5110WAT     H121160   5.604   0.603   7.056  1.1064 -0.3727  3.4852
 5110WAT     H221161   5.546   0.493   7.115 -1.9492  0.4480  2.1950
 5110WAT    EPW21162   5.542   0.557   7.069  0.2676  0.0175  1.2548
 5111WAT      O21163   1.707   3.884   5.188 -0.2393 -0.0980 -0.0102
 5111WAT     H121164   1.786   3.857   5.163  0.0426  0.9989 -0.3340
 5111WAT     H221165   1.723   3.954   5.236 -0.9189 -0.9648  1.5611
 5111WAT    EPW21166   1.721   3.890   5.191 -0.2981 -0.0640  0.1741
 5112WAT      O21167   5.621   2.964   2.778  0.0462 -0.1560  0.3053
 5112WAT     H121168   5.550   2.938   2.821 -0.8051 -0.5230 -1.2228
 5112WAT     H221169   5.671   3.000   2.839 -1.4865  0.1666  1.4163
 5112WAT    EPW21170   5.618   2.965   2.793 -0.3060 -0.1625  0.2437
 5113WAT      O21171   5.014   7.637   1.710 -0.0325 -0.1074  0.0244
 5113WAT     H121172   5.021   7.557   1.746 -1.5086 -0.4284 -0.3668
 5113WAT     H221173   5.049   7.689   1.771  0.1103 -0.9433  0.6872
 5113WAT    EPW21174   5.020   7.633   1.725 -0.2295 -0.2783  0.0645
 5114WAT      O21175   1.704   4.357   5.586 -0.8498  0.7158 -0.1000
 5114WAT     H121176   1.671   4.423   5.632  0.9038  1.1167  0.6814
 5114WAT     H221177   1.789   4.357   5.609  0.1670  1.0066 -3.4127
 5114WAT    EPW21178   1.712   4.366   5.596 -0.4406  0.8180 -0.4740
 5115WAT      O21179   4.355   2.200   7.668  0.4797 -0.0777  0.0640
 5115WAT     H121180   4.299   2.159   7.722  1.9034 -0.5179  1.2561
 5115WAT     H221181   4.417   2.141   7.654 -0.4389 -0.4987 -3.2077
 5115WAT    EPW21182   4.356   2.185   7.674  0.5543 -0.2049 -0.2432
 5116WAT      O21183   0.492   4.995   5.286  0.4855  0.0515 -0.1019
 5116WAT     H121184   0.461   4.966   5.362  1.0063 -0.3465 -0.0310
 5116WAT     H221185   0.556   4.939   5.267  0.2092  0.0148 -0.9560
 5116WAT    EPW21186   0.497   4.983   5.295  0.5216 -0.0127 -0.2176
 5117WAT      O21187   6.386   5.125   0.842 -0.0083  0.2702  0.0766
 5117WAT     H121188   6.453   5.101   0.790  0.3918  0.2623  0.5878
 5117WAT     H221189   6.390   5.068   0.908 -0.2942  0.5043  0.2969
 5117WAT    EPW21190   6.397   5.113   0.844  0.0086  0.3036  0.1847
 5118WAT      O21191   0.514   3.981   7.846 -0.2148 -0.1729 -0.3166
 5118WAT     H121192   0.486   3.999   7.926  0.8891 -1.1159  0.3157
 5118WAT     H221193   0.556   4.054   7.822 -1.1636  0.3753 -0.3374
 5118WAT    EPW21194   0.516   3.994   7.854 -0.1919 -0.2313 -0.2263
 5119WAT      O21195   4.339   3.825   1.440 -0.1041  0.4732  0.5537
 5119WAT     H121196   4.306   3.744   1.430  0.7276  0.2382 -0.4201
 5119WAT     H221197   4.422   3.816   1.415  0.1441  1.5245  0.9630
 5119WAT    EPW21198   4.346   3.811   1.435  0.0554  0.5938  0.4703
 5120WAT      O21199   5.032   7.295   7.536 -0.5577 -0.1244  0.4822
 5120WAT     H121200   5.074   7.293   7.613  0.0302 -2.7392  0.2064
 5120WAT     H221201   4.952   7.268   7.556 -0.8973  0.7829  0.3852
 5120WAT    EPW21202   5.027   7.291   7.550 -0.5211 -0.3766  0.4271
 5121WAT      O21203   2.803   4.801   1.785  0.0236  0.2703  0.3184
 5121WAT     H121204   2.777   4.840   1.711  0.7898  1.2769  0.5560
 5121WAT     H221205   2.730   4.763   1.814 -0.0280 -1.2336 -1.5679
 5121WAT    EPW21206   2.788   4.801   1.778  0.1292  0.1968  0.0748
 5122WAT      O21207   3.933   5.835   0.267 -0.1689 -0.1641 -0.0263
 5122WAT     H121208   3.882   5.768   0.247 -0.8372  0.6665 -1.2533
 5122WAT     H221209   3.984   5.844   0.196 -1.3255  1.6936 -0.7302
 5122WAT    EPW21210   3.933   5.827   0.253 -0.4385  0.2330 -0.3116
 5123WAT      O21211   4.188   7.128   1.747  0.1655 -0.0103  0.6368
 5123WAT     H121212   4.255   7.180   1.729 -0.8934  0.9457 -0.7090
 5123WAT     H221213   4.225   7.062   1.791  1.6428  1.4957  1.7662
 5123WAT    EPW21214   4.203   7.126   1.751  0.2273  0.3534  0.6049
 5124WAT      O21215   4.056   6.878   0.345 -0.1795  0.1204 -0.2726
 5124WAT     H121216   4.138   6.900   0.366 -0.2345  2.2668 -1.9760
 5124WAT     H221217   4.061   6.791   0.335  2.1874  0.2759 -1.3038
 5124WAT    EPW21218   4.069   6.868   0.347  0.1620  0.4604 -0.6766
 5125WAT      O21219   4.633   3.312   4.972 -0.4030 -0.6142 -0.2570
 5125WAT     H121220   4.585   3.295   4.901 -0.7743  1.2185 -0.4981
 5125WAT     H221221   4.578   3.353   5.025 -0.0226 -1.6287  0.9758
 5125WAT    EPW21222   4.618   3.316   4.969 -0.4017 -0.4934 -0.1105
 5126WAT      O21223   5.581   1.548   2.998 -0.0329  0.1970 -0.1961
 5126WAT     H121224   5.645   1.571   3.053  1.0371 -1.3745 -0.7108
 5126WAT     H221225   5.600   1.590   2.925  1.3040 -1.3559 -0.8012
 5126WAT    EPW21226   5.593   1.557   2.995  0.3226 -0.2645 -0.3615
 5127WAT      O21227   4.533   2.086   7.352 -0.3604  0.4960 -0.4974
 5127WAT     H121228   4.460   2.132   7.338  0.1797  1.3231 -0.7236
 5127WAT     H221229   4.597   2.145   7.339  0.3362 -0.1022  0.0905
 5127WAT    EPW21230   4.532   2.102   7.348 -0.1777  0.5298 -0.4440
 5128WAT      O21231   7.085   4.358   4.139 -0.3511 -0.4783 -0.1019
 5128WAT     H121232   7.037   4.431   4.139  0.0989 -0.1756 -0.3463
 5128WAT     H221233   7.037   4.302   4.094 -1.0345 -0.5587  0.7134
 5128WAT    EPW21234   7.071   4.361   4.132 -0.3856 -0.4455 -0.0176
 5129WAT      O21235   6.152   1.853   4.224 -0.4754  0.4205 -0.2659
 5129WAT     H121236   6.073   1.870   4.191 -0.1701 -1.1392 -1.9634
 5129WAT     H221237   6.197   1.926   4.207 -1.8309  1.8799  1.9528
 5129WAT    EPW21238   6.147   1.867   4.216 -0.6305  0.4057 -0.1889
 5130WAT      O21239   5.573   3.470   2.442 -0.4217 -0.4108  0.0546
 5130WAT     H121240   5.645   3.458   2.394  0.5449 -0.1927  1.4045
 5130WAT     H221241   5.528   3.528   2.396  0.2464 -0.5748 -0.8379
 5130WAT    EPW21242   5.577   3.476   2.428 -0.1802 -0.4028  0.1222
 5131WAT      O21243   1.831   0.457   1.127 -0.1947 -0.5009  0.0524
 5131WAT     H121244   1.766   0.468   1.071 -1.5638  0.0674  1.6703
 5131WAT     H221245   1.896   0.506   1.094 -0.6815 -0.7750 -1.3765
 5131WAT    EPW21246   1.831   0.466   1.114 -0.4688 -0.4575  0.0803
 5132WAT      O21247   2.304   7.399   0.084 -0.0773 -0.1787 -0.2931
 5132WAT     H121248   2.290   7.463   0.026 -2.2677 -0.6957 -0.4440
 5132WAT     H221249   2.335   7.441   0.154  0.6153  0.7411 -1.1383
 5132WAT    EPW21250   2.306   7.415   0.086 -0.2986 -0.1192 -0.4403
 5133WAT      O21251   5.598   5.307   0.795 -0.6639 -0.2288  0.3522
 5133WAT     H121252   5.632   5.280   0.719  0.1286  0.3917  0.4712
 5133WAT     H221253   5.526   5.351   0.771 -1.2623 -1.3258  0.0772
 5133WAT    EPW21254   5.592   5.309   0.780 -0.6353 -0.2992  0.3292
 5134WAT      O21255   1.315   5.231   0.130 -0.1306  0.4098 -0.0898
 5134WAT     H121256   1.253   5.213   0.071  0.0288  0.4575 -0.2733
 5134WAT     H221257   1.287   5.305   0.166 -0.4798  0.1216  0.2420
 5134WAT    EPW21258   1.301   5.239   0.126 -0.1586  0.3743 -0.0679
 5135WAT      O21259   1.366   1.870   3.267 -0.2232  0.2660  1.2049
 5135WAT     H121260   1.436   1.822   3.245 -0.4009 -0.9020  3.0274
 5135WAT     H221261   1.321   1.875   3.192  0.9618 -0.3973  0.4024
 5135WAT    EPW21262   1.370   1.864   3.252 -0.0744 -0.0045  1.3556
 5136WAT      O21263   5.409   2.867   2.923 -0.4457  0.4528  0.3918
 5136WAT     H121264   5.427   2.782   2.916 -0.0986  0.5645 -0.0969
 5136WAT     H221265   5.323   2.869   2.933 -1.1669  0.2386 -3.9696
 5136WAT    EPW21266   5.399   2.855   2.923 -0.5010  0.4377 -0.3246
 5137WAT      O21267   7.571   3.125   0.137 -0.3011 -0.1607 -0.4946
 5137WAT     H121268   7.502   3.114   0.190  0.3010  0.6667  0.4979
 5137WAT     H221269   7.546   3.190   0.084 -0.4449 -0.1792 -0.4514
 5137WAT    EPW21270   7.557   3.133   0.137 -0.2334 -0.0412 -0.3416
 5138WAT      O21271   5.246   3.556   2.486  0.3166  0.4191  0.0593
 5138WAT     H121272   5.300   3.580   2.421 -0.6099  0.7427 -0.6247
 5138WAT     H221273   5.294   3.566   2.558  2.2370 -2.3674 -0.6967
 5138WAT    EPW21274   5.261   3.561   2.487  0.4634  0.0553 -0.1534
 5139WAT      O21275   4.886   3.227   2.716 -0.3702 -0.2350  0.5338
 5139WAT     H121276   4.959   3.210   2.671 -1.1752 -1.3803 -0.4125
 5139WAT     H221277   4.860   3.304   2.685  0.4281  0.1795  0.8740
 5139WAT    EPW21278   4.893   3.236   2.705 -0.3712 -0.3430  0.4443
 5140WAT      O21279   6.435   0.196   5.602  0.2609  0.2905  0.2842
 5140WAT     H121280   6.400   0.117   5.611  2.1778 -0.9212 -2.0002
 5140WAT     H221281   6.392   0.230   5.534  0.8593  0.3715 -0.0555
 5140WAT    EPW21282   6.423   0.189   5.593  0.6325  0.1235 -0.1035
 5141WAT      O21283   5.270   1.002   1.234 -0.2746  0.4947  0.1842
 5141WAT     H121284   5.334   0.942   1.234  0.1786  0.9650  0.5067
 5141WAT     H221285   5.220   0.979   1.301 -0.8785 -0.3124 -0.5192
 5141WAT    EPW21286   5.272   0.990   1.244 -0.2969  0.4449  0.1279
 5142WAT      O21287   3.119   3.752   1.292  0.4270  0.5270  0.2771
 5142WAT     H121288   3.194   3.709   1.305  0.8568  1.0780 -0.3459
 5142WAT     H221289   3.121   3.771   1.207 -1.4910 -1.4658 -0.3288
 5142WAT    EPW21290   3.130   3.748   1.281  0.2071  0.3140  0.0956
 5143WAT      O21291   3.963   0.287   4.420  0.2704 -0.3857  0.0407
 5143WAT     H121292   3.908   0.330   4.369  0.3791  0.0570  0.2990
 5143WAT     H221293   3.979   0.214   4.375 -0.8114 -0.6972  0.1345
 5143WAT    EPW21294   3.957   0.282   4.406  0.1266 -0.3663  0.0927
 5144WAT      O21295   5.566   2.661   2.296 -0.3774  0.2501  0.3809
 5144WAT     H121296   5.550   2.740   2.330 -0.9558  0.0876  0.4986
 5144WAT     H221297   5.623   2.677   2.232 -0.1354  0.7038  0.7043
 5144WAT    EPW21298   5.572   2.675   2.292 -0.4271  0.2931  0.4460
 5145WAT      O21299   7.511   6.077   5.939  0.3034 -0.1881 -0.0926
 5145WAT     H121300   7.555   6.151   5.946  0.7558 -0.5833  1.9992
 5145WAT     H221301   7.432   6.097   5.972  0.1774 -0.4443 -0.2327
 5145WAT    EPW21302   7.506   6.090   5.945  0.3516 -0.2844  0.1957
 5146WAT      O21303   4.823   5.046   3.425 -0.3802  0.4033  0.2468
 5146WAT     H121304   4.863   4.974   3.398 -0.3107  0.5131  0.0525
 5146WAT     H221305   4.863   5.066   3.500  0.7621  1.1910 -0.5387
 5146WAT    EPW21306   4.835   5.039   3.432 -0.2012  0.5358  0.1020
 5147WAT      O21307   4.394   4.621   1.090  0.6723  0.0180  0.5333
 5147WAT     H121308   4.369   4.602   1.009  1.9881  0.2532  0.0564
 5147WAT     H221309   4.393   4.544   1.131 -2.8395  0.2516  1.1742
 5147WAT    EPW21310   4.390   4.607   1.084  0.3479  0.0873  0.5575
 5148WAT      O21311   5.792   7.352   1.169  1.0011 -0.2071  0.3998
 5148WAT     H121312   5.852   7.394   1.217  1.6332 -0.7505  0.1077
 5148WAT     H221313   5.771   7.410   1.107 -1.9453  1.6287  2.8494
 5148WAT    EPW21314   5.798   7.367   1.167  0.6592 -0.0162  0.7185
 5149WAT      O21315   5.574   3.032   1.698 -0.6574 -0.6996 -0.3453
 5149WAT     H121316   5.505   2.982   1.715  0.9601 -2.6806  0.7686
 5149WAT     H221317   5.633   3.005   1.755  0.4888  2.2319  0.0176
 5149WAT    EPW21318   5.572   3.021   1.709 -0.2492 -0.5592 -0.1272
 5150WAT      O21319   5.882   4.109   1.616  0.5696 -0.2236 -0.0703
 5150WAT     H121320   5.844   4.040   1.577  1.5872 -0.4093 -0.7709
 5150WAT     H221321   5.900   4.163   1.550  1.5842 -0.1745  0.2299
 5150WAT    EPW21322   5.879   4.107   1.600  0.8698 -0.2438 -0.1295
 5151WAT      O21323   0.783   7.480   6.472 -0.0575 -0.2101  0.7705
 5151WAT     H121324   0.832   7.511   6.537 -0.7854 -0.6291  1.5369
 5151WAT     H221325   0.751   7.551   6.434  0.9594  0.0608  0.4029
 5151WAT    EPW21326   0.785   7.495   6.476 -0.0148 -0.2320  0.8294
 5152WAT      O21327   0.146   6.149   5.143 -0.1059  0.3711  0.1519
 5152WAT     H121328   0.221   6.191   5.157  0.4394 -0.0148 -1.4434
 5152WAT     H221329   0.143   6.090   5.208  0.3886  1.1471  0.8871
 5152WAT    EPW21330   0.157   6.146   5.155  0.0477  0.4287  0.0249
 5153WAT      O21331   2.406   1.117   3.296 -0.1656  0.1143  0.1086
 5153WAT     H121332   2.380   1.147   3.219 -2.5160 -1.1733  0.3198
 5153WAT     H221333   2.432   1.188   3.339 -0.3437  1.0494 -1.2858
 5153WAT    EPW21334   2.406   1.132   3.291 -0.5391  0.0622 -0.0662
 5154WAT      O21335   2.498   1.851   1.616  0.4091 -0.2805  0.4349
 5154WAT     H121336   2.490   1.875   1.699 -0.4345  1.7503 -0.1596
 5154WAT     H221337   2.537   1.773   1.620 -0.5151 -0.6993  2.7502
 5154WAT    EPW21338   2.503   1.843   1.629  0.1480 -0.0424  0.6891
 5155WAT      O21339   3.681   5.708   2.689 -0.6007  0.0931 -0.0214
 5155WAT     H121340   3.695   5.793   2.704  1.8072 -0.3356  0.4612
 5155WAT     H221341   3.748   5.685   2.638 -0.2001 -1.8985  1.3083
 5155WAT    EPW21342   3.693   5.717   2.684 -0.1858 -0.2644  0.2463
 5156WAT      O21343   5.172   2.710   7.036 -0.1709  0.1877 -0.4443
 5156WAT     H121344   5.125   2.717   7.109  0.7034  2.9667 -0.0100
 5156WAT     H221345   5.253   2.726   7.063  0.1857  1.1598 -1.9653
 5156WAT    EPW21346   5.177   2.713   7.051  0.0109  0.7418 -0.6048
 5157WAT      O21347   4.686   2.922   0.499 -0.5686 -0.2775 -0.0369
 5157WAT     H121348   4.676   2.996   0.454 -3.1528 -0.3777  0.2537
 5157WAT     H221349   4.669   2.946   0.581 -0.1505 -0.9540  0.2514
 5157WAT    EPW21350   4.682   2.937   0.505 -0.8886 -0.3923  0.0486
 5158WAT      O21351   1.772   3.307   2.889  0.2785 -0.7086  0.1541
 5158WAT     H121352   1.853   3.296   2.920  0.1468 -0.5620  0.5530
 5158WAT     H221353   1.767   3.393   2.876  0.2678 -0.7466 -0.1034
 5158WAT    EPW21354   1.783   3.318   2.892  0.2575 -0.6926  0.1750
 5159WAT      O21355   7.204   0.009   5.124  0.2044 -0.5882  0.0142
 5159WAT     H121356   7.170   0.084   5.152 -2.0616 -0.7395 -2.0094
 5159WAT     H221357   7.206  -0.041   5.196 -0.4801  0.6545  0.9321
 5159WAT    EPW21358   7.199   0.013   5.139 -0.2314 -0.4269 -0.1492
 5160WAT      O21359   5.821   7.389   0.417 -0.3099 -0.6541  0.0602
 5160WAT     H121360   5.806   7.358   0.498  2.1761  1.1002  1.3245
 5160WAT     H221361   5.907   7.378   0.407 -0.1064  1.5641 -1.2462
 5160WAT    EPW21362   5.831   7.383   0.427  0.0874 -0.0673  0.0540
 5161WAT      O21363   5.511   5.017   0.131 -0.1428 -0.4231  0.7353
 5161WAT     H121364   5.493   4.982   0.053 -1.8682  0.7559  0.5483
 5161WAT     H221365   5.437   5.057   0.153  1.2189  1.7962  1.6072
 5161WAT    EPW21366   5.497   5.018   0.123 -0.1965  0.0789  0.8365
 5162WAT      O21367   6.981   2.993   6.582 -0.1408 -0.1217  0.3401
 5162WAT     H121368   6.909   3.042   6.573  0.3150  0.3823 -0.6286
 5162WAT     H221369   7.044   3.051   6.594  0.4594 -0.4146 -1.1466
 5162WAT    EPW21370   6.979   3.009   6.582  0.0152 -0.0905 -0.0226
 5163WAT      O21371   7.338   4.391   7.744 -0.3755 -0.1139  0.6017
 5163WAT     H121372   7.312   4.437   7.814  0.8905  0.9918  0.3941
 5163WAT     H221373   7.407   4.436   7.715  0.4516 -1.7534 -0.0854
 5163WAT    EPW21374   7.345   4.404   7.750 -0.0663 -0.1928  0.4695
 5164WAT      O21375   1.833   3.526   7.118  0.4313  0.2283  0.1320
 5164WAT     H121376   1.814   3.463   7.176 -0.8350 -0.3001 -0.8138
 5164WAT     H221377   1.868   3.482   7.051  1.2615  0.7643  0.1976
 5164WAT    EPW21378   1.835   3.510   7.117  0.3669  0.2294  0.0020
 5165WAT      O21379   7.359   6.293   6.989  0.4864 -0.2284  0.0350
 5165WAT     H121380   7.368   6.237   6.923 -0.2600 -0.6797  0.2967
 5165WAT     H221381   7.384   6.246   7.058  1.3138  0.2578  0.0749
 5165WAT    EPW21382   7.364   6.278   6.989  0.4984 -0.2233  0.0795
 5166WAT      O21383   1.749   3.636   7.662  0.2473 -0.6165 -0.1392
 5166WAT     H121384   1.738   3.635   7.575  0.2527 -0.5049 -0.1415
 5166WAT     H221385   1.830   3.668   7.672 -1.1699  3.6447  0.0150
 5166WAT    EPW21386   1.760   3.641   7.650  0.0387  0.0295 -0.1168
 5167WAT      O21387   5.297   6.277   0.048  0.6067 -0.0155  0.1694
 5167WAT     H121388   5.354   6.279  -0.018 -1.4695 -2.1205 -1.8540
 5167WAT     H221389   5.296   6.360   0.076  1.9835  0.8519 -2.0752
 5167WAT    EPW21390   5.306   6.290   0.043  0.5034 -0.1983 -0.4611
 5168WAT      O21391   4.456   5.511   7.792 -0.4256  0.4426 -0.1895
 5168WAT     H121392   4.382   5.470   7.812  0.5801 -1.5004 -0.2507
 5168WAT     H221393   4.462   5.572   7.854 -1.6316  0.0817  0.3288
 5168WAT    EPW21394   4.446   5.514   7.804 -0.4552  0.1023 -0.1220
 5169WAT      O21395   4.855   4.236   7.707 -0.0759  0.2932 -0.7177
 5169WAT     H121396   4.829   4.319   7.708  0.4426  0.4716 -1.6016
 5169WAT     H221397   4.906   4.231   7.637  0.7613 -0.5098 -0.0776
 5169WAT    EPW21398   4.858   4.248   7.697  0.1243  0.2009 -0.7537
 5170WAT      O21399   4.568   2.845   7.706  0.3762  0.3651  0.0627
 5170WAT     H121400   4.491   2.811   7.682  0.8848 -3.5227  3.0826
 5170WAT     H221401   4.553   2.877   7.786  1.6004  1.0541  0.0434
 5170WAT    EPW21402   4.554   2.845   7.714  0.6322 -0.1074  0.5059
 5171WAT      O21403   3.912   1.101   0.812  0.2559 -0.3411  0.2838
 5171WAT     H121404   3.834   1.134   0.834  0.0215 -1.4400  1.2352
 5171WAT     H221405   3.935   1.147   0.742 -1.4243 -0.2584 -0.2492
 5171WAT    EPW21406   3.904   1.113   0.805 -0.0269 -0.4912  0.3456
 5172WAT      O21407   5.712   4.458   1.177 -0.2950  0.1461  0.3625
 5172WAT     H121408   5.756   4.437   1.249  0.1625  1.8091  0.6115
 5172WAT     H221409   5.730   4.393   1.122  2.2544  0.5470  0.5747
 5172WAT    EPW21410   5.721   4.446   1.180  0.1492  0.4510  0.4306
 5173WAT      O21411   2.632   5.103   3.205  0.5958 -0.5528 -0.1120
 5173WAT     H121412   2.669   5.161   3.152 -0.2412  2.3615  2.2011
 5173WAT     H221413   2.547   5.106   3.185  0.6000 -1.3606 -0.2854
 5173WAT    EPW21414   2.625   5.112   3.194  0.4728 -0.2417  0.2041
 5174WAT      O21415   2.812   7.305   3.700  0.1280 -0.2537 -0.4579
 5174WAT     H121416   2.762   7.275   3.765  0.0602  0.1928 -0.3024
 5174WAT     H221417   2.799   7.391   3.702 -0.6865 -0.3248 -1.7291
 5174WAT    EPW21418   2.802   7.313   3.710 -0.0023 -0.1983 -0.6228
 5175WAT      O21419   2.794   7.240   2.768  0.2859  0.4372  0.0797
 5175WAT     H121420   2.810   7.288   2.839  1.7829  0.3678 -0.1650
 5175WAT     H221421   2.874   7.225   2.736 -0.2172 -1.1684 -0.5314
 5175WAT    EPW21422   2.808   7.245   2.774  0.4327  0.1898 -0.0467
 5176WAT      O21423   6.234   0.010   7.389 -0.5413 -0.6010 -0.1451
 5176WAT     H121424   6.286  -0.056   7.416 -1.6973 -1.5782 -0.2354
 5176WAT     H221425   6.154  -0.025   7.392 -0.9761  0.0399 -2.4920
 5176WAT    EPW21426   6.230  -0.005   7.394 -0.7763 -0.6507 -0.5051
 5177WAT      O21427   5.030   5.542   1.731  0.0994 -0.2490  0.5701
 5177WAT     H121428   5.044   5.574   1.651  2.4892 -0.1737  0.9511
 5177WAT     H221429   5.022   5.456   1.717 -2.4318  0.0107 -0.0119
 5177WAT    EPW21430   5.031   5.534   1.717  0.0785 -0.1995  0.5404
 5178WAT      O21431   4.505   6.747   2.213 -0.4496  0.1138  0.0633
 5178WAT     H121432   4.430   6.712   2.238 -1.0303  0.3691 -1.2185
 5178WAT     H221433   4.557   6.678   2.199 -1.1929 -0.2134 -1.2555
 5178WAT    EPW21434   4.502   6.732   2.214 -0.6452  0.1031 -0.3209
 5179WAT      O21435   5.430   3.622   2.267  0.1228  0.5788  0.3350
 5179WAT     H121436   5.499   3.672   2.248  2.2513 -1.6737  1.5524
 5179WAT     H221437   5.384   3.621   2.192  2.7849  0.1285 -1.4282
 5179WAT    EPW21438   5.433   3.629   2.253  0.8305  0.1795  0.2543
 5180WAT      O21439   3.794   0.352   4.225  0.0953 -0.3984 -0.2700
 5180WAT     H121440   3.796   0.270   4.194  0.9283 -0.5511  0.1605
 5180WAT     H221441   3.856   0.393   4.179  1.3131 -0.6174  1.0878
 5180WAT    EPW21442   3.803   0.346   4.214  0.3983 -0.4533 -0.0058
 5181WAT      O21443   2.949   7.596   6.327  0.6943  0.4805 -0.6389
 5181WAT     H121444   2.938   7.575   6.243 -0.1248  0.2834 -0.4924
 5181WAT     H221445   2.905   7.534   6.370  0.7074  0.8459 -0.0870
 5181WAT    EPW21446   2.941   7.584   6.321  0.5753  0.5053 -0.5358
 5182WAT      O21447   5.071   0.550   1.788  0.2403  0.0130  0.6278
 5182WAT     H121448   5.062   0.550   1.701 -0.6512  2.1941  0.6564
 5182WAT     H221449   5.155   0.569   1.799  0.1548  0.6409  0.2342
 5182WAT    EPW21450   5.082   0.553   1.777  0.0960  0.4279  0.5739
 5183WAT      O21451   2.992   2.297   7.029  0.0442 -0.4485  0.0871
 5183WAT     H121452   2.920   2.283   7.076  1.2099 -1.3419  1.7118
 5183WAT     H221453   3.030   2.365   7.069  0.8177 -0.9170  0.1834
 5183WAT    EPW21454   2.987   2.305   7.042  0.3307 -0.6497  0.3413
 5184WAT      O21455   5.250   3.108   2.695  0.2133  0.6712 -0.1361
 5184WAT     H121456   5.304   3.162   2.737  2.2105  0.1850 -1.9056
 5184WAT     H221457   5.229   3.153   2.623  0.8623 -0.3624 -0.9993
 5184WAT    EPW21458   5.255   3.123   2.691  0.6042  0.4467 -0.5250
 5185WAT      O21459   7.657   3.837   5.397  0.5863  0.2626 -0.0469
 5185WAT     H121460   7.738   3.856   5.423  0.9661 -1.4197  0.1163
 5185WAT     H221461   7.608   3.850   5.468  1.0287 -0.5795  0.4257
 5185WAT    EPW21462   7.662   3.842   5.411  0.7078 -0.1103  0.0470
 5186WAT      O21463   4.916   1.952   1.185  0.1752  0.2127 -0.2366
 5186WAT     H121464   4.891   1.900   1.251 -2.3669  0.6136 -0.7778
 5186WAT     H221465   4.871   2.025   1.198  1.2787  1.1171 -1.2487
 5186WAT    EPW21466   4.905   1.955   1.196 -0.0373  0.4055 -0.4661
 5187WAT      O21467   2.432   2.545   3.244 -0.2784  0.4150 -0.3057
 5187WAT     H121468   2.387   2.610   3.207  0.5921  2.1565  1.4724
 5187WAT     H221469   2.512   2.579   3.254  0.9253 -1.8341 -1.4657
 5187WAT    EPW21470   2.437   2.559   3.240  0.0280  0.3400 -0.2144
 5188WAT      O21471   7.332   5.268   0.421 -0.6733  0.5118 -0.0247
 5188WAT     H121472   7.331   5.344   0.378 -0.8347  0.4686 -0.0977
 5188WAT     H221473   7.295   5.287   0.498 -0.3982  0.5853  0.0898
 5188WAT    EPW21474   7.326   5.282   0.426 -0.6565  0.5163 -0.0185
 5189WAT      O21475   4.280   4.413   5.607  0.2343 -0.6611  0.5038
 5189WAT     H121476   4.298   4.433   5.524 -1.0873  0.6432  0.4793
 5189WAT     H221477   4.232   4.340   5.601  2.2012 -2.0023  0.3351
 5189WAT    EPW21478   4.275   4.405   5.594  0.3296 -0.6665  0.4753
 5190WAT      O21479   3.016   0.185   7.863  0.2132  0.1068 -0.9067
 5190WAT     H121480   3.016   0.272   7.853  0.8805  0.4635  1.6840
 5190WAT     H221481   2.946   0.170   7.913  0.2748 -0.8285 -1.0942
 5190WAT    EPW21482   3.006   0.196   7.869  0.3209  0.0214 -0.5517
 5191WAT      O21483   3.067   5.474   4.793 -0.1022 -0.1143  0.3557
 5191WAT     H121484   3.133   5.442   4.745 -0.5557 -0.3239 -0.1403
 5191WAT     H221485   3.105   5.535   4.842  0.7230 -1.1394  1.0479
 5191WAT    EPW21486   3.083   5.478   4.793 -0.0473 -0.2967  0.3847
 5192WAT      O21487   2.095   6.251   0.599  0.1776 -0.1118 -0.1293
 5192WAT     H121488   2.099   6.334   0.571 -1.0750  0.0192  0.0437
 5192WAT     H221489   2.014   6.244   0.631  0.6238 -1.0957  0.8417
 5192WAT    EPW21490   2.084   6.263   0.599  0.0585 -0.2378  0.0397
 5193WAT      O21491   0.758   5.120   4.968  0.0740  0.3150 -0.5984
 5193WAT     H121492   0.677   5.151   4.964 -0.3750 -0.7463 -0.0294
 5193WAT     H221493   0.805   5.180   4.924 -0.9083  1.2470 -0.4165
 5193WAT    EPW21494   0.753   5.134   4.961 -0.1375  0.2959 -0.4875
 5194WAT      O21495   2.060   3.414   0.033  0.0660  0.0709 -0.0583
 5194WAT     H121496   2.046   3.431  -0.051  0.3316  1.3886  0.1271
 5194WAT     H221497   2.020   3.338   0.046 -1.8418  0.8628 -0.8810
 5194WAT    EPW21498   2.052   3.406   0.023 -0.1766  0.3825 -0.1524
 5195WAT      O21499   7.318   0.500   0.219  0.3514 -1.2661 -0.3592
 5195WAT     H121500   7.391   0.487   0.267  0.7776 -1.1848 -0.9768
 5195WAT     H221501   7.345   0.553   0.156 -0.3741 -0.8266 -0.3066
 5195WAT    EPW21502   7.333   0.506   0.217  0.3072 -1.1892 -0.4426
 5196WAT      O21503   7.499   7.209   6.400  0.1516  0.0718 -0.5782
 5196WAT     H121504   7.434   7.209   6.459 -0.2480  3.3994 -0.8158
 5196WAT     H221505   7.571   7.202   6.449 -0.2225  1.7825  0.2998
 5196WAT    EPW21506   7.500   7.208   6.416  0.0373  0.8161 -0.4836
 5197WAT      O21507   7.276   1.632   5.556 -0.6679  0.6255 -0.1601
 5197WAT     H121508   7.232   1.560   5.533  1.2146 -0.3949 -0.7384
 5197WAT     H221509   7.278   1.627   5.643 -2.2994  1.1122 -0.0529
 5197WAT    EPW21510   7.270   1.621   5.565 -0.6308  0.5467 -0.2297
 5198WAT      O21511   4.608   6.648   7.416  0.3685 -0.1171 -0.1964
 5198WAT     H121512   4.645   6.570   7.409 -0.2416 -0.4890  0.5168
 5198WAT     H221513   4.523   6.631   7.413  0.2266  0.5072  0.0461
 5198WAT    EPW21514   4.601   6.634   7.415  0.2575 -0.0798 -0.0552
 5199WAT      O21515   4.591   0.035   4.559  0.1148  0.5054  0.5972
 5199WAT     H121516   4.652   0.048   4.620  1.0123 -0.8922  0.0462
 5199WAT     H221517   4.536  -0.022   4.596 -0.6514  1.4348  0.9323
 5199WAT    EPW21518   4.592   0.029   4.573  0.1342  0.4362  0.5653
 5200WAT      O21519   6.680   1.547   4.604 -0.3018  0.1183  0.3555
 5200WAT     H121520   6.654   1.625   4.634  1.5634  0.7734  0.3576
 5200WAT     H221521   6.746   1.526   4.657  0.2988 -0.6906 -0.6832
 5200WAT    EPW21522   6.686   1.555   4.616  0.0624  0.0956  0.2023
 5201WAT      O21523   5.005   6.317   3.366 -0.1172  0.1753 -0.0370
 5201WAT     H121524   4.934   6.341   3.321  0.6041 -0.0568 -1.3233
 5201WAT     H221525   4.986   6.235   3.390 -0.3710  0.1888 -0.1878
 5201WAT    EPW21526   4.991   6.308   3.363 -0.0482  0.1430 -0.2493
 5202WAT      O21527   6.180   4.022   5.102 -0.9063 -0.2545 -0.1971
 5202WAT     H121528   6.134   4.087   5.136  0.0100  0.0542  0.4964
 5202WAT     H221529   6.263   4.047   5.113 -0.5330 -1.4314 -0.1040
 5202WAT    EPW21530   6.186   4.035   5.109 -0.7158 -0.3828 -0.0809
 5203WAT      O21531   5.700   6.444   0.863  0.0171 -0.3462  0.3407
 5203WAT     H121532   5.666   6.521   0.839  0.9091 -0.0886 -0.1618
 5203WAT     H221533   5.638   6.386   0.844 -0.1777  0.1144 -0.4839
 5203WAT    EPW21534   5.686   6.447   0.857  0.1201 -0.2401  0.1447
 5204WAT      O21535   2.753   5.129   6.774  0.0072  0.3563  0.3853
 5204WAT     H121536   2.783   5.092   6.847  1.0571 -1.0659 -0.6935
 5204WAT     H221537   2.825   5.163   6.738 -0.0671 -0.9305 -1.0515
 5204WAT    EPW21538   2.768   5.128   6.780  0.1513 -0.0439  0.0137
 5205WAT      O21539   4.161   6.623   7.148  0.4989  0.8293 -0.0100
 5205WAT     H121540   4.222   6.566   7.174  0.6598  0.7657 -0.5172
 5205WAT     H221541   4.150   6.674   7.217 -1.6239 -1.4345  1.5021
 5205WAT    EPW21542   4.168   6.622   7.162  0.2091  0.4855  0.1385
 5206WAT      O21543   4.975   1.315   5.135  0.3204 -0.1759  0.2580
 5206WAT     H121544   4.980   1.365   5.063 -2.5873  1.1602  0.8183
 5206WAT     H221545   5.057   1.291   5.149  1.3433  1.4835 -2.1460
 5206WAT    EPW21546   4.988   1.319   5.126  0.0420  0.2666 -0.0144
 5207WAT      O21547   0.362   4.764   6.291 -0.2898  0.1534 -0.1097
 5207WAT     H121548   0.424   4.703   6.303  0.5016  1.2003  1.3493
 5207WAT     H221549   0.396   4.835   6.327 -2.1823  0.8792  0.3636
 5207WAT    EPW21550   0.376   4.765   6.298 -0.4524  0.4153  0.1757
 5208WAT      O21551   4.894   7.293   6.492  0.7507 -0.8096  0.4681
 5208WAT     H121552   4.944   7.312   6.561 -0.9997  1.1033  1.3083
 5208WAT     H221553   4.815   7.322   6.515  0.0447 -0.3158 -2.2344
 5208WAT    EPW21554   4.890   7.300   6.506  0.3878 -0.4541  0.1930
 5209WAT      O21555   0.038   1.961   6.624  0.3646 -0.2248  0.5804
 5209WAT     H121556   0.114   1.924   6.645 -0.2956 -1.2633  1.2297
 5209WAT     H221557  -0.013   1.893   6.604 -0.0700  0.5282 -0.9902
 5209WAT    EPW21558   0.042   1.945   6.624  0.2028 -0.2670  0.4443
 5210WAT      O21559   1.990   0.707   1.952  0.8959 -0.5191 -0.3099
 5210WAT     H121560   2.047   0.738   1.894 -0.7619 -0.8716 -2.2042
 5210WAT     H221561   1.949   0.643   1.909 -0.8439 -0.3727  1.0365
 5210WAT    EPW21562   1.993   0.702   1.937  0.3940 -0.5496 -0.3908
 5211WAT      O21563   4.096   5.191   1.210 -0.1735 -0.3390 -0.1185
 5211WAT     H121564   4.084   5.225   1.130 -0.0586  1.3192  0.5316
 5211WAT     H221565   4.045   5.240   1.261  2.2380  0.9022  1.3280
 5211WAT    EPW21566   4.087   5.203   1.206  0.1997  0.0893  0.1912
 5212WAT      O21567   1.145   0.653   5.902  0.1135  0.0304 -0.6816
 5212WAT     H121568   1.065   0.686   5.893 -0.8446 -1.6661  0.8571
 5212WAT     H221569   1.169   0.633   5.820  0.1863  3.0100 -1.5166
 5212WAT    EPW21570   1.137   0.655   5.888 -0.0173  0.2199 -0.5777
 5213WAT      O21571   6.068   1.323   6.410 -0.2757  0.4811  0.8376
 5213WAT     H121572   6.065   1.238   6.426  0.3293  0.3529  0.2947
 5213WAT     H221573   6.000   1.355   6.455 -0.2936 -0.2347  1.3324
 5213WAT    EPW21574   6.057   1.315   6.419 -0.1889  0.3564  0.8305
 5214WAT      O21575   0.200   5.281   7.379 -0.1404  0.4838  0.0846
 5214WAT     H121576   0.241   5.216   7.338 -1.7941 -1.1223  0.8178
 5214WAT     H221577   0.262   5.318   7.428  0.8144 -0.6786 -0.2127
 5214WAT    EPW21578   0.215   5.277   7.380 -0.2437  0.0749  0.1490
 5215WAT      O21579   6.439   6.932   2.689 -0.1697  0.1108  0.3373
 5215WAT     H121580   6.393   6.863   2.716 -0.2068  0.5629  1.5028
 5215WAT     H221581   6.511   6.897   2.653 -0.4375 -0.5437  0.4344
 5215WAT    EPW21582   6.443   6.917   2.688 -0.2147  0.0809  0.5238
 5216WAT      O21583   0.962   0.872   7.414  0.0795  0.3846  0.6605
 5216WAT     H121584   0.976   0.946   7.457 -2.7100  0.2831  1.9989
 5216WAT     H221585   0.945   0.898   7.333  2.2954  0.8587  0.2977
 5216WAT    EPW21586   0.961   0.887   7.409 -0.0052  0.4396  0.8046
 5217WAT      O21587   2.108   1.936   6.040 -0.6258  0.0290  0.1677
 5217WAT     H121588   2.162   1.886   6.087 -0.5343  0.5533  0.6279
 5217WAT     H221589   2.116   1.904   5.959  1.8441  1.2900 -0.1794
 5217WAT    EPW21590   2.117   1.924   6.035 -0.2474  0.2927  0.1844
 5218WAT      O21591   2.505   0.467   7.809  0.1111  0.1115 -0.7258
 5218WAT     H121592   2.462   0.541   7.823 -0.2548 -0.1156 -0.6178
 5218WAT     H221593   2.450   0.406   7.839  1.8152 -0.0322  2.6809
 5218WAT    EPW21594   2.490   0.469   7.816  0.3088  0.0567 -0.2066
 5219WAT      O21595   7.010   5.200   5.631  0.4311  0.8699  0.0838
 5219WAT     H121596   7.087   5.177   5.666 -0.2894 -0.8037  0.7096
 5219WAT     H221597   6.963   5.223   5.701  0.3319  1.8773 -0.2949
 5219WAT    EPW21598   7.014   5.200   5.647  0.3100  0.7715  0.1203
 5220WAT      O21599   3.278   0.513   3.801  0.3464  0.2142  0.2902
 5220WAT     H121600   3.297   0.487   3.720  1.3184  0.6298  0.3707
 5220WAT     H221601   3.277   0.600   3.794 -1.5123  0.2226  0.3157
 5220WAT    EPW21602   3.281   0.522   3.788  0.2154  0.2768  0.3058
 5221WAT      O21603   4.565   1.860   0.534 -0.1746  0.3991 -0.3732
 5221WAT     H121604   4.553   1.842   0.618  1.0258 -0.5343 -0.3705
 5221WAT     H221605   4.602   1.938   0.535 -1.2660  0.9358 -0.1240
 5221WAT    EPW21606   4.569   1.869   0.546 -0.1585  0.3405 -0.3360
 5222WAT      O21607   4.508   5.275   2.172 -0.0665  0.0791 -0.3619
 5222WAT     H121608   4.432   5.275   2.215 -0.0662  0.2911 -0.3607
 5222WAT     H221609   4.555   5.335   2.214 -0.9743  2.2639 -2.2684
 5222WAT    EPW21610   4.504   5.284   2.185 -0.2006  0.4332 -0.6433
 5223WAT      O21611   0.619   6.795   5.147 -0.2443  0.0691 -0.1114
 5223WAT     H121612   0.592   6.761   5.071  0.3464  0.2423 -0.4083
 5223WAT     H221613   0.695   6.832   5.126  0.6104 -1.0660  0.8568
 5223WAT    EPW21614   0.626   6.795   5.132 -0.0307 -0.0730 -0.0122
 5224WAT      O21615   2.363   7.588   4.348  0.3488 -0.8162  0.2162
 5224WAT     H121616   2.364   7.630   4.271  0.9687 -0.5016  0.3945
 5224WAT     H221617   2.297   7.532   4.339  0.0478 -0.3872 -0.3393
 5224WAT    EPW21618   2.353   7.586   4.335  0.3959 -0.7063  0.1605
 5225WAT      O21619   4.368   6.287   5.599 -0.3007  0.0583  0.0744
 5225WAT     H121620   4.436   6.278   5.653  0.7992 -0.3156 -1.3001
 5225WAT     H221621   4.405   6.303   5.522 -1.5259 -3.6842 -1.5346
 5225WAT    EPW21622   4.384   6.288   5.596 -0.3192 -0.5498 -0.3663
 5226WAT      O21623   5.058   1.734   5.097  0.0608 -0.4557 -0.3457
 5226WAT     H121624   5.127   1.729   5.151 -0.4457 -2.7255  0.1834
 5226WAT     H221625   4.993   1.760   5.149  0.4298  1.6391 -0.8358
 5226WAT    EPW21626   5.059   1.737   5.112  0.0405 -0.4815 -0.3400
 5227WAT      O21627   5.778   1.788   1.295 -0.1174  0.0145 -0.1044
 5227WAT     H121628   5.852   1.768   1.336 -0.8112 -0.6303  0.8865
 5227WAT     H221629   5.735   1.837   1.354 -0.5005  0.3585 -0.6528
 5227WAT    EPW21630   5.782   1.792   1.310 -0.2764 -0.0300 -0.0391
 5228WAT      O21631   2.989   0.892   3.861 -0.1290 -0.9931 -0.0288
 5228WAT     H121632   2.985   0.895   3.948  1.5557 -0.3744  0.0626
 5228WAT     H221633   3.070   0.861   3.846  0.9005  1.9706 -1.3440
 5228WAT    EPW21634   3.001   0.888   3.872  0.2719 -0.4639 -0.2096
 5229WAT      O21635   5.124   0.039   6.943 -0.0215 -0.2560  0.4994
 5229WAT     H121636   5.114   0.121   6.913 -0.8343 -0.2620  0.7335
 5229WAT     H221637   5.082  -0.009   6.884  1.9609 -0.7222 -0.6252
 5229WAT    EPW21638   5.116   0.044   6.929  0.1513 -0.3258  0.3679
 5230WAT      O21639   6.677   5.714   6.909  0.2526 -0.5931  0.0659
 5230WAT     H121640   6.723   5.730   6.981 -0.0139  0.2993  0.0549
 5230WAT     H221641   6.719   5.758   6.847 -0.8782  0.6948  0.1587
 5230WAT    EPW21642   6.690   5.723   6.910  0.0462 -0.2710  0.0780
 5231WAT      O21643   5.526   4.222   4.397  0.1165 -0.2262  0.1255
 5231WAT     H121644   5.483   4.296   4.414 -0.0272 -0.3389  0.2540
 5231WAT     H221645   5.470   4.160   4.421  1.2273 -0.3928  2.5938
 5231WAT    EPW21646   5.511   4.224   4.403  0.2594 -0.2674  0.5091
 5232WAT      O21647   3.262   3.205   7.340 -0.1430  0.0354 -0.1777
 5232WAT     H121648   3.233   3.148   7.281 -1.5228  1.3155 -0.8063
 5232WAT     H221649   3.287   3.155   7.407 -1.2513 -1.3085 -0.7374
 5232WAT    EPW21650   3.261   3.189   7.341 -0.5105  0.0260 -0.3532
 5233WAT      O21651   3.249   5.890   0.649  0.3470 -0.4215 -0.2661
 5233WAT     H121652   3.319   5.935   0.674 -0.1537  0.4892 -0.4748
 5233WAT     H221653   3.253   5.892   0.562  0.4306 -0.9670 -0.2791
 5233WAT    EPW21654   3.260   5.897   0.640  0.2854 -0.3675 -0.2988
 5234WAT      O21655   3.597   3.317   6.725  0.4062 -0.2150  0.7085
 5234WAT     H121656   3.620   3.400   6.708  0.2779  0.2548  2.5698
 5234WAT     H221657   3.647   3.296   6.794 -3.2229  0.2237  3.7717
 5234WAT    EPW21658   3.608   3.326   6.733 -0.1489 -0.0808  1.4359
 5235WAT      O21659   4.661   3.288   0.103 -0.0784  0.1872 -0.6160
 5235WAT     H121660   4.661   3.372   0.129  0.9506 -0.0942  0.3425
 5235WAT     H221661   4.712   3.289   0.032  1.2418  0.1242  0.3095
 5235WAT    EPW21662   4.668   3.301   0.096  0.2686  0.1363 -0.3377
 5236WAT      O21663   0.247   2.003   4.075 -0.3399  0.2037 -0.4214
 5236WAT     H121664   0.286   2.033   4.147 -1.1513 -0.9193  0.5414
 5236WAT     H221665   0.290   1.929   4.059 -0.4603  0.2222 -0.8242
 5236WAT    EPW21666   0.259   1.996   4.083 -0.4775  0.0406 -0.3386
 5237WAT      O21667   5.019   2.894   4.444 -0.1023 -0.3360 -0.0681
 5237WAT     H121668   5.102   2.884   4.419  0.1096 -1.7230  1.0914
 5237WAT     H221669   5.021   2.882   4.530 -1.0835  2.4958  0.4879
 5237WAT    EPW21670   5.031   2.891   4.453 -0.2159 -0.1226  0.1853
 5238WAT      O21671   4.039   7.122   4.553 -0.4526 -0.5007  0.1651
 5238WAT     H121672   3.962   7.080   4.550 -1.2122  0.5925  2.1795
 5238WAT     H221673   4.082   7.080   4.616  1.0143 -1.5922 -1.4509
 5238WAT    EPW21674   4.034   7.109   4.562 -0.3481 -0.5004  0.2239
 5239WAT      O21675   1.006   7.391   5.700 -0.6486  0.5373 -0.1862
 5239WAT     H121676   1.086   7.424   5.689 -0.6066  0.0718 -1.4798
 5239WAT     H221677   1.020   7.305   5.708 -0.9879  0.4926 -0.0417
 5239WAT    EPW21678   1.020   7.383   5.699 -0.6925  0.4619 -0.3559
 5240WAT      O21679   6.024   6.174   7.295 -0.8170 -0.0347 -0.0529
 5240WAT     H121680   6.085   6.135   7.248 -1.3702  0.0902 -0.9029
 5240WAT     H221681   5.963   6.196   7.236 -1.1072  0.9532  0.5763
 5240WAT    EPW21682   6.024   6.172   7.279 -0.9416  0.1297 -0.0855
 5241WAT      O21683   7.258   1.447   7.136 -0.2900 -0.0119 -0.0447
 5241WAT     H121684   7.338   1.414   7.143 -0.4547 -0.0701  3.7206
 5241WAT     H221685   7.210   1.378   7.112  0.4476 -0.6126  0.1626
 5241WAT    EPW21686   7.263   1.432   7.134 -0.2053 -0.1092  0.5421
 5242WAT      O21687   3.182   1.363   5.352  0.8129  0.3700  0.4015
 5242WAT     H121688   3.232   1.430   5.326  1.5128 -0.0199  0.6885
 5242WAT     H221689   3.168   1.379   5.437  1.2295  0.0183  0.5449
 5242WAT    EPW21690   3.188   1.375   5.361  0.9779  0.2604  0.4651
 5243WAT      O21691   6.597   2.109   5.747  0.0981  0.1345  0.5339
 5243WAT     H121692   6.628   2.082   5.670 -0.3142  1.2707 -0.0453
 5243WAT     H221693   6.651   2.071   5.805 -0.8106 -2.4143 -0.1718
 5243WAT    EPW21694   6.610   2.099   5.744 -0.0970 -0.0742  0.3441
 5244WAT      O21695   1.960   1.576   0.728  0.4352  0.2737 -0.2645
 5244WAT     H121696   2.044   1.556   0.741  0.5342 -0.2087 -1.5339
 5244WAT     H221697   1.952   1.655   0.765  0.8837 -0.5765  1.7987
 5244WAT    EPW21698   1.971   1.585   0.735  0.5161  0.0769 -0.1472
 5245WAT      O21699   3.484   7.206   6.695  0.7339  0.5196 -0.3093
 5245WAT     H121700   3.507   7.125   6.673 -0.6954  0.5237 -2.0081
 5245WAT     H221701   3.541   7.227   6.758  0.5046 -2.1537  0.9252
 5245WAT    EPW21702   3.496   7.197   6.701  0.4889  0.1253 -0.3779
 5246WAT      O21703   4.338   4.303   1.646 -0.0096  0.4396  0.4499
 5246WAT     H121704   4.323   4.321   1.730  1.0958  0.9401  0.5587
 5246WAT     H221705   4.351   4.382   1.610  0.3393  0.1702 -0.0262
 5246WAT    EPW21706   4.337   4.317   1.653  0.2052  0.4737  0.3957
 5247WAT      O21707   1.924   2.619   7.719  0.1043 -0.1110  0.1288
 5247WAT     H121708   1.854   2.583   7.756  0.2659 -2.8168 -1.9214
 5247WAT     H221709   1.902   2.625   7.635  2.4478 -1.4772 -0.6587
 5247WAT    EPW21710   1.910   2.615   7.712  0.4743 -0.7125 -0.2904
 5248WAT      O21711   4.149   4.579   1.295  0.4820  0.1991 -0.1708
 5248WAT     H121712   4.185   4.657   1.278  0.1591  0.8081  1.7349
 5248WAT     H221713   4.194   4.550   1.363 -0.7209 -0.3555  0.4195
 5248WAT    EPW21714   4.161   4.586   1.302  0.2566  0.2071  0.1979
 5249WAT      O21715   6.202   3.583   4.067  0.1186  0.4074 -0.3879
 5249WAT     H121716   6.198   3.504   4.104 -0.1038  0.4136 -0.4005
 5249WAT     H221717   6.253   3.570   3.997 -0.1720  0.2030 -0.5670
 5249WAT    EPW21718   6.209   3.570   4.062  0.0428  0.3781 -0.4162
 5250WAT      O21719   0.423   2.181   5.661  0.2555 -0.2939 -0.3935
 5250WAT     H121720   0.458   2.245   5.710  0.9464  0.0187 -1.2560
 5250WAT     H221721   0.481   2.117   5.669 -0.2364 -0.6871  0.1418
 5250WAT    EPW21722   0.437   2.181   5.670  0.2849 -0.3058 -0.4418
 5251WAT      O21723   0.265   2.577   6.175  0.1314  0.3008  0.3170
 5251WAT     H121724   0.264   2.490   6.182  0.7795  0.2928  0.3732
 5251WAT     H221725   0.182   2.600   6.187 -0.4080 -0.4576 -1.6144
 5251WAT    EPW21726   0.253   2.568   6.178  0.1475  0.1876  0.0400
 5252WAT      O21727   2.591   0.413   6.203  0.1961 -0.0611 -0.3452
 5252WAT     H121728   2.598   0.495   6.232  0.5614  0.2719 -1.3307
 5252WAT     H221729   2.597   0.365   6.276  0.4490  0.7615  0.1934
 5252WAT    EPW21730   2.593   0.418   6.218  0.2874  0.1096 -0.4112
 5253WAT      O21731   2.443   6.577   0.383  0.0367 -0.3623  0.3001
 5253WAT     H121732   2.387   6.614   0.439  0.1693 -0.5753  0.5739
 5253WAT     H221733   2.497   6.643   0.362  0.0929 -0.3236  0.5568
 5253WAT    EPW21734   2.443   6.592   0.388  0.0646 -0.3880  0.3785
 5254WAT      O21735   3.858   1.782   1.049 -0.2055 -0.7951  0.0764
 5254WAT     H121736   3.878   1.860   1.018  0.4115 -1.3460 -0.9717
 5254WAT     H221737   3.800   1.799   1.112 -2.0600  0.3521 -1.8111
 5254WAT    EPW21738   3.852   1.796   1.053 -0.3883 -0.7070 -0.3573
 5255WAT      O21739   4.359   5.334   5.330 -0.4020 -0.7197 -0.0836
 5255WAT     H121740   4.274   5.347   5.313 -0.0101  0.0344 -1.6404
 5255WAT     H221741   4.390   5.299   5.256  1.0934  1.2552 -0.4947
 5255WAT    EPW21742   4.351   5.331   5.317 -0.1232 -0.3165 -0.3743
 5256WAT      O21743   5.501   4.960   3.675 -0.4237  0.4355  0.2174
 5256WAT     H121744   5.513   4.925   3.754  0.9904  2.3222  0.8998
 5256WAT     H221745   5.528   5.042   3.684 -1.9615  1.2460 -1.7778
 5256WAT    EPW21746   5.507   4.967   3.688 -0.4420  0.8339  0.0235
 5257WAT      O21747   0.175   6.992   4.284 -0.2211  0.1705 -0.1811
 5257WAT     H121748   0.195   7.007   4.368 -1.8888 -0.3993  0.3629
 5257WAT     H221749   0.132   6.916   4.287 -0.5922  0.3113 -1.5136
 5257WAT    EPW21750   0.172   6.983   4.297 -0.5223  0.1072 -0.2976
 5258WAT      O21751   4.568   0.948   6.432 -0.4190  0.2571 -0.3919
 5258WAT     H121752   4.629   0.957   6.370  0.9943 -1.5915  0.6099
 5258WAT     H221753   4.613   0.915   6.500 -1.8033  2.5327  1.8003
 5258WAT    EPW21754   4.584   0.944   6.433 -0.4147  0.3202  0.0799
 5259WAT      O21755   1.351   4.079   7.388  0.0244  0.0915  0.3341
 5259WAT     H121756   1.420   4.061   7.438 -0.5040  1.4163  1.6321
 5259WAT     H221757   1.332   4.003   7.349  2.3748 -0.2355 -0.3133
 5259WAT    EPW21758   1.358   4.065   7.389  0.2935  0.2389  0.4302
 5260WAT      O21759   6.316   5.124   7.563 -0.3570  0.4309  0.3533
 5260WAT     H121760   6.331   5.171   7.490  1.0221 -1.9704 -1.0401
 5260WAT     H221761   6.231   5.108   7.560 -0.2480 -0.0689 -1.0882
 5260WAT    EPW21762   6.306   5.129   7.552 -0.1372  0.0023 -0.0655
 5261WAT      O21763   0.293   3.660   5.860  0.4306  0.1326 -0.0814
 5261WAT     H121764   0.321   3.735   5.826  1.6612  0.6193  1.8141
 5261WAT     H221765   0.367   3.614   5.870  0.2165  0.1841  2.1985
 5261WAT    EPW21766   0.308   3.664   5.856  0.5808  0.2121  0.5354
 5262WAT      O21767   3.845   7.172   6.562  0.5057  0.7265 -0.1195
 5262WAT     H121768   3.795   7.241   6.543  0.1706  0.2391 -1.0130
 5262WAT     H221769   3.907   7.174   6.500 -0.2420 -0.5173 -0.9384
 5262WAT    EPW21770   3.847   7.183   6.550  0.3457  0.4708 -0.3725
 5263WAT      O21771   0.892   7.612   5.483  0.4586 -0.0154  0.6007
 5263WAT     H121772   0.832   7.655   5.437  0.6751 -0.7435 -0.3921
 5263WAT     H221773   0.932   7.675   5.528  0.0543  0.6803  0.0028
 5263WAT    EPW21774   0.889   7.628   5.483  0.4308 -0.0202  0.3657
 5264WAT      O21775   5.275   4.942   4.623  0.2288  0.3862 -0.0209
 5264WAT     H121776   5.316   4.966   4.696 -2.0443  0.2048  1.4047
 5264WAT     H221777   5.270   5.017   4.578  1.9696  0.4254 -0.2195
 5264WAT    EPW21778   5.280   4.957   4.627  0.1502  0.3652  0.1603
 5265WAT      O21779   4.500   4.237   5.758 -0.0690 -0.3535 -0.6950
 5265WAT     H121780   4.570   4.201   5.720  1.3157 -1.1155  2.2323
 5265WAT     H221781   4.512   4.323   5.747  1.0831 -0.4980 -0.7083
 5265WAT    EPW21782   4.512   4.244   5.751  0.3058 -0.4874 -0.2645
 5266WAT      O21783   5.168   1.674   6.580  0.5204  0.1092 -0.4554
 5266WAT     H121784   5.174   1.761   6.584  1.7192  0.0126  1.3875
 5266WAT     H221785   5.085   1.659   6.600  0.6739  0.8266  0.8713
 5266WAT    EPW21786   5.157   1.685   6.584  0.7201  0.2009  0.0128
 5267WAT      O21787   3.013   3.264   7.483  0.5254 -0.3258  0.4642
 5267WAT     H121788   3.072   3.245   7.422 -1.7528  0.2751 -2.0637
 5267WAT     H221789   3.014   3.351   7.486 -1.4007 -0.1941 -0.9569
 5267WAT    EPW21790   3.022   3.274   7.475 -0.0957 -0.2175 -0.1191
 5268WAT      O21791   4.991   7.049   6.114  0.2086  0.2769 -0.0874
 5268WAT     H121792   5.061   7.011   6.148  0.2412  0.8809  0.5526
 5268WAT     H221793   4.995   7.029   6.030  1.8009  1.2430 -0.2868
 5268WAT    EPW21794   5.002   7.041   6.107  0.4487  0.5088 -0.0223
 5269WAT      O21795   6.260   3.957   4.830  0.1880 -0.2141 -0.1993
 5269WAT     H121796   6.230   3.979   4.909  2.5334 -0.5821  0.8685
 5269WAT     H221797   6.240   4.026   4.781  0.8375  1.1149  1.3117
 5269WAT    EPW21798   6.253   3.970   4.835  0.6304 -0.0722  0.1817
 5270WAT      O21799   7.003   3.028   0.203  0.2330 -0.0313 -0.6785
 5270WAT     H121800   6.946   2.963   0.186  0.3298 -0.2022 -0.3625
 5270WAT     H221801   7.077   3.000   0.166  0.2589 -0.0752 -0.5946
 5270WAT    EPW21802   7.006   3.014   0.195  0.2511 -0.0630 -0.6194
 5271WAT      O21803   4.220   1.868   7.302  0.0325  0.1266 -0.0667
 5271WAT     H121804   4.151   1.922   7.302 -1.1474 -1.2323  2.3098
 5271WAT     H221805   4.191   1.798   7.259  0.6462  0.2899 -0.7771
 5271WAT    EPW21806   4.206   1.865   7.296 -0.0511 -0.0500  0.1795
 5272WAT      O21807   7.434   0.359   7.451 -0.4907 -0.6274 -0.8246
 5272WAT     H121808   7.373   0.360   7.514  1.8254 -2.6728  1.7531
 5272WAT     H221809   7.455   0.275   7.445  2.1763 -0.0214 -1.3789
 5272WAT    EPW21810   7.428   0.347   7.460  0.2454 -0.8401 -0.5257
 5273WAT      O21811   5.948   7.226   6.419 -0.0574  0.4162 -0.4998
 5273WAT     H121812   5.862   7.237   6.412 -0.1270  1.5096  1.4328
 5273WAT     H221813   5.957   7.170   6.485  0.7301 -0.1635 -1.0682
 5273WAT    EPW21814   5.937   7.219   6.428  0.0486  0.4921 -0.2983
 5274WAT      O21815   0.108   2.373   5.736 -0.8372  0.5862  0.1115
 5274WAT     H121816   0.030   2.410   5.725 -2.0043 -1.2843  1.5841
 5274WAT     H221817   0.113   2.361   5.822  0.4985 -0.5016 -0.0902
 5274WAT    EPW21818   0.097   2.377   5.747 -0.8123  0.1492  0.2993
 5275WAT      O21819   0.267   5.524   4.013  0.8475  0.2469  0.0062
 5275WAT     H121820   0.226   5.459   4.055 -1.0678  1.0563 -0.4779
 5275WAT     H221821   0.295   5.486   3.939  2.0692 -0.5974  0.8688
 5275WAT    EPW21822   0.265   5.509   4.008  0.7451  0.2418  0.0621
 5276WAT      O21823   4.585   4.725   7.685  0.0450 -0.0391 -0.2461
 5276WAT     H121824   4.613   4.797   7.726  0.1428 -0.5120  0.5337
 5276WAT     H221825   4.502   4.742   7.667 -0.1859 -0.0698  0.7417
 5276WAT    EPW21826   4.577   4.738   7.688  0.0254 -0.1135  0.0150
 5277WAT      O21827   0.756   7.203   4.658 -0.0257 -0.1173  0.5531
 5277WAT     H121828   0.779   7.283   4.632  0.5871 -0.8634 -1.4174
 5277WAT     H221829   0.670   7.209   4.667 -0.0381  0.6928  0.0718
 5277WAT    EPW21830   0.747   7.216   4.655  0.0630 -0.1079  0.1910
 5278WAT      O21831   7.077   5.898   6.659  0.2528 -0.2975 -0.3905
 5278WAT     H121832   7.150   5.904   6.705  0.7697 -0.4159 -1.1687
 5278WAT     H221833   7.103   5.863   6.583 -0.1986  1.7363 -1.5624
 5278WAT    EPW21834   7.091   5.894   6.655  0.2625 -0.0146 -0.6785
 5279WAT      O21835   6.030   2.372   6.786  0.8152 -0.0383 -0.2726
 5279WAT     H121836   6.005   2.288   6.793  1.8312 -0.2346  1.4635
 5279WAT     H221837   6.048   2.395   6.868 -0.0028  2.0932 -0.6403
 5279WAT    EPW21838   6.029   2.363   6.799  0.8445  0.2476 -0.0704
 5280WAT      O21839   3.698   2.109   4.814  0.4895  0.1960  0.1690
 5280WAT     H121840   3.645   2.133   4.879  1.5910  0.3303  1.0444
 5280WAT     H221841   3.738   2.184   4.792  0.6496  0.0112 -0.1727
 5280WAT    EPW21842   3.696   2.124   4.820  0.6758  0.1886  0.2478
 5281WAT      O21843   6.203   5.003   5.947  0.7498 -0.1164 -0.5721
 5281WAT     H121844   6.275   4.986   5.992  1.1469  0.4130 -0.9961
 5281WAT     H221845   6.189   4.930   5.901  0.6138 -0.4785  0.0329
 5281WAT    EPW21846   6.211   4.990   5.947  0.7883 -0.0917 -0.5454
 5282WAT      O21847   2.958   6.472   7.384  0.0406 -0.3072  0.4124
 5282WAT     H121848   2.910   6.414   7.427  1.8714 -2.0788  0.2478
 5282WAT     H221849   2.922   6.475   7.305  0.6448 -2.2733  0.0100
 5282WAT    EPW21850   2.946   6.464   7.379  0.4003 -0.8593  0.3286
 5283WAT      O21851   0.471   3.761   5.025  0.2870 -0.2647 -0.2906
 5283WAT     H121852   0.494   3.718   4.952  1.7123 -0.5378  0.2848
 5283WAT     H221853   0.516   3.836   5.020 -2.9887  1.8144 -1.8203
 5283WAT    EPW21854   0.481   3.766   5.013  0.0136  0.0021 -0.4316
 5284WAT      O21855   0.770   2.237   7.607  0.3019 -0.4651 -0.0754
 5284WAT     H121856   0.742   2.205   7.531  0.2648  2.4361 -1.4238
 5284WAT     H221857   0.706   2.290   7.632  1.4903  0.7572  0.5144
 5284WAT    EPW21858   0.757   2.240   7.600  0.4720  0.1440 -0.1874
 5285WAT      O21859   3.914   1.455   5.847  0.7238 -0.1056  0.0669
 5285WAT     H121860   3.965   1.386   5.862  1.8426  0.7374  0.3555
 5285WAT     H221861   3.845   1.442   5.899  0.8637 -1.0396  0.0370
 5285WAT    EPW21862   3.911   1.443   5.856  0.9097 -0.1190  0.1051
 5286WAT      O21863   4.749   4.026   7.422 -0.6577 -0.1217  0.3666
 5286WAT     H121864   4.811   4.087   7.423 -0.0007 -0.5996 -2.6223
 5286WAT     H221865   4.676   4.070   7.440 -0.0322  1.3324 -0.5558
 5286WAT    EPW21866   4.747   4.041   7.425 -0.4683  0.0225 -0.2112
 5287WAT      O21867   3.191   3.318   1.346 -0.1292  0.1499  0.4329
 5287WAT     H121868   3.134   3.328   1.411 -0.7186 -2.5972  0.4296
 5287WAT     H221869   3.140   3.309   1.276  0.4621  1.3370 -0.1852
 5287WAT    EPW21870   3.175   3.318   1.345 -0.1289 -0.0805  0.3411
 5288WAT      O21871   5.057   1.316   5.578 -0.0904  0.9361  0.5381
 5288WAT     H121872   5.131   1.285   5.544 -1.0032 -1.0753  0.2327
 5288WAT     H221873   5.023   1.363   5.513  0.9928  2.0482  0.7508
 5288WAT    EPW21874   5.063   1.318   5.563 -0.0653  0.8032  0.5244
 5289WAT      O21875   1.800   2.111   3.148 -0.5850  0.8456 -0.4860
 5289WAT     H121876   1.731   2.107   3.202 -2.4237  1.0609 -2.6443
 5289WAT     H221877   1.862   2.149   3.197 -1.1845 -1.3898  2.2728
 5289WAT    EPW21878   1.799   2.116   3.164 -0.9452  0.5472 -0.3973
 5290WAT      O21879   6.354   6.509   3.839  0.3582  0.5975  0.6089
 5290WAT     H121880   6.327   6.546   3.764  0.0561  0.4081  0.6207
 5290WAT     H221881   6.282   6.470   3.869  0.9026 -0.8530  0.1026
 5290WAT    EPW21882   6.339   6.509   3.832  0.3940  0.3553  0.5359
 5291WAT      O21883   7.323   0.011   4.409  0.0920  0.6314 -0.3804
 5291WAT     H121884   7.409   0.022   4.397  0.1324 -0.7259 -1.6358
 5291WAT     H221885   7.314  -0.075   4.415 -1.1188  0.7910  0.4205
 5291WAT    EPW21886   7.335   0.000   4.408 -0.0809  0.4545 -0.4475
 5292WAT      O21887   1.405   4.758   6.977 -0.3338  0.0622 -0.7874
 5292WAT     H121888   1.397   4.845   6.969  0.7757  0.3233  0.6356
 5292WAT     H221889   1.489   4.744   6.957 -0.6118 -0.7662 -1.4433
 5292WAT    EPW21890   1.417   4.769   6.973 -0.2109 -0.0216 -0.6741
 5293WAT      O21891   5.153   2.851   5.938 -0.1448 -0.9657 -0.0191
 5293WAT     H121892   5.166   2.903   5.870  1.1521 -1.1566  0.0437
 5293WAT     H221893   5.098   2.895   5.989 -2.5101 -1.5343 -1.9148
 5293WAT    EPW21894   5.147   2.865   5.936 -0.3026 -1.0779 -0.2898
 5294WAT      O21895   3.642   2.686   6.733 -0.9003  0.2737 -0.3396
 5294WAT     H121896   3.638   2.656   6.651 -0.1986  0.5433 -0.4798
 5294WAT     H221897   3.718   2.653   6.763 -0.9052  0.5958  0.0333
 5294WAT    EPW21898   3.653   2.677   6.726 -0.7973  0.3611 -0.3052
 5295WAT      O21899   5.038   5.494   6.918 -0.1590  0.5455  0.1151
 5295WAT     H121900   4.987   5.424   6.910  1.2799 -0.5193  0.0419
 5295WAT     H221901   5.008   5.533   6.991  1.1989 -2.0257  2.1852
 5295WAT    EPW21902   5.026   5.490   6.928  0.2541  0.0084  0.4101
 5296WAT      O21903   4.622   0.033   4.287 -0.6188  0.3328 -0.3619
 5296WAT     H121904   4.588   0.111   4.267 -0.4042  0.7704  0.8535
 5296WAT     H221905   4.628   0.036   4.374 -1.0400 -1.2377 -0.2549
 5296WAT    EPW21906   4.618   0.045   4.297 -0.6493  0.1655 -0.1666
 5297WAT      O21907   5.517   6.880   7.840 -0.0268 -0.3899 -0.2439
 5297WAT     H121908   5.556   6.958   7.841  1.2152 -0.9829 -0.5481
 5297WAT     H221909   5.437   6.897   7.811  0.5224  0.6468 -1.2018
 5297WAT    EPW21910   5.511   6.894   7.836  0.2378 -0.3243 -0.4303
 5298WAT      O21911   2.913   2.387   3.369 -0.6066  0.0621 -0.3182
 5298WAT     H121912   2.994   2.418   3.358 -0.4873 -0.3624 -0.6482
 5298WAT     H221913   2.921   2.302   3.352 -0.7975 -0.2979  1.2433
 5298WAT    EPW21914   2.927   2.379   3.364 -0.6172 -0.0538 -0.1363
 5299WAT      O21915   5.589   2.973   5.271  0.3766 -0.2685 -0.3499
 5299WAT     H121916   5.648   2.992   5.332 -0.7260 -2.2361  1.4722
 5299WAT     H221917   5.562   3.050   5.243  0.4060  0.7632  2.2064
 5299WAT    EPW21918   5.594   2.987   5.276  0.2180 -0.4067  0.2969
 5300WAT      O21919   3.148   0.134   6.601 -0.2155  0.7213 -0.0896
 5300WAT     H121920   3.185   0.056   6.613 -0.5064  0.4539 -0.8669
 5300WAT     H221921   3.186   0.185   6.662  0.5170  0.1617 -0.0721
 5300WAT    EPW21922   3.159   0.130   6.612 -0.1502  0.5992 -0.2019
 5301WAT      O21923   6.297   4.825   4.802  0.0778 -0.7962 -0.1505
 5301WAT     H121924   6.237   4.885   4.779 -0.1126 -0.5339  0.9744
 5301WAT     H221925   6.258   4.749   4.785 -0.7082 -0.6332  0.8479
 5301WAT    EPW21926   6.282   4.823   4.796 -0.0664 -0.7334  0.1632
 5302WAT      O21927   6.997   2.636   7.819 -0.1861  0.4987  0.0338
 5302WAT     H121928   6.967   2.554   7.828  1.5056 -0.0510  0.9218
 5302WAT     H221929   7.009   2.643   7.733  0.6775 -0.5763  0.0537
 5302WAT    EPW21930   6.994   2.625   7.807  0.1914  0.2587  0.1679
 5303WAT      O21931   2.880   4.455   1.947  0.9220 -0.3189 -0.4353
 5303WAT     H121932   2.799   4.487   1.949  0.9932 -0.0046  2.7281
 5303WAT     H221933   2.928   4.523   1.922  0.3244 -0.2767 -1.5375
 5303WAT    EPW21934   2.875   4.469   1.943  0.8442 -0.2663 -0.1309
 5304WAT      O21935   4.197   5.581   7.677 -0.2776  0.4140 -0.4566
 5304WAT     H121936   4.254   5.635   7.715 -0.8562  1.1358 -0.5753
 5304WAT     H221937   4.136   5.569   7.738  0.5915 -1.3494  0.1126
 5304WAT    EPW21938   4.196   5.587   7.692 -0.2347  0.2602 -0.3900
 5305WAT      O21939   5.329   2.559   4.681  0.5000  0.1097  0.4852
 5305WAT     H121940   5.401   2.600   4.706  1.8087 -0.0423 -2.5947
 5305WAT     H221941   5.359   2.490   4.636 -1.5941 -0.6596  0.1352
 5305WAT    EPW21942   5.344   2.555   4.678  0.3840 -0.0264 -0.0214
 5306WAT      O21943   2.822   3.064   0.005 -0.6255  0.1884  0.7770
 5306WAT     H121944   2.743   3.075   0.039 -1.2268  2.4835 -1.0797
 5306WAT     H221945   2.810   3.081  -0.080  1.7369 -0.0778  0.3232
 5306WAT    EPW21946   2.809   3.068  -0.003 -0.3654  0.4881  0.4357
 5307WAT      O21947   0.786   7.658   6.831 -0.0255  0.0511  0.0967
 5307WAT     H121948   0.841   7.598   6.802  0.1936  0.9425 -1.4756
 5307WAT     H221949   0.831   7.698   6.895  0.4170 -0.4449  0.1014
 5307WAT    EPW21950   0.801   7.655   6.836  0.0722  0.1095 -0.1349
 5308WAT      O21951   2.014   6.413   4.987 -0.1454 -0.1291 -0.0698
 5308WAT     H121952   2.030   6.474   4.927 -0.9249  0.4228  0.2623
 5308WAT     H221953   1.932   6.431   5.013  0.3495 -0.0260  1.5145
 5308WAT    EPW21954   2.004   6.425   4.982 -0.1874 -0.0323  0.2133
 5309WAT      O21955   4.779   3.004   0.118  0.3631  0.0193  0.4442
 5309WAT     H121956   4.798   2.925   0.150 -0.1640 -0.4989 -0.4734
 5309WAT     H221957   4.698   2.995   0.087  0.3054  0.9163  0.3116
 5309WAT    EPW21958   4.770   2.991   0.118  0.2767  0.0753  0.2890
 5310WAT      O21959   4.372   1.096   6.578  0.1328  1.1730  0.3511
 5310WAT     H121960   4.430   1.061   6.524  0.1749 -0.4839  1.4006
 5310WAT     H221961   4.410   1.171   6.604  0.7789  1.2113 -0.6712
 5310WAT    EPW21962   4.386   1.102   6.574  0.2344  0.9339  0.3551
 5311WAT      O21963   3.247   3.458   7.006  0.8391  0.4850 -0.1663
 5311WAT     H121964   3.266   3.544   7.007  0.4893  0.5567  0.5756
 5311WAT     H221965   3.309   3.423   7.056  0.3216  0.4499  0.4626
 5311WAT    EPW21966   3.259   3.466   7.013  0.7110  0.4904  0.0362
 5312WAT      O21967   6.268   3.432   4.740  0.4479  0.3783 -0.5723
 5312WAT     H121968   6.227   3.504   4.767  0.2226  0.9029 -2.1762
 5312WAT     H221969   6.221   3.367   4.775 -0.3946  0.9967 -0.5208
 5312WAT    EPW21970   6.255   3.433   4.749  0.2902  0.5471 -0.8017
 5313WAT      O21971   5.929   5.411   2.230 -0.3746 -0.2895  0.0920
 5313WAT     H121972   5.888   5.488   2.237  0.1610 -0.1456  2.7085
 5313WAT     H221973   5.967   5.401   2.309  2.6514 -1.5007 -1.3626
 5313WAT    EPW21974   5.929   5.421   2.243  0.1515 -0.4472  0.2637
 5314WAT      O21975   1.831   7.085   6.346 -0.3449  0.2228 -0.6999
 5314WAT     H121976   1.810   7.017   6.295 -3.5079  0.7270 -0.2637
 5314WAT     H221977   1.761   7.094   6.398  1.6496  1.3688  1.9909
 5314WAT    EPW21978   1.817   7.076   6.346 -0.5175  0.4666 -0.2380
 5315WAT      O21979   2.685   2.412   5.737  0.3933 -0.2935 -0.0736
 5315WAT     H121980   2.633   2.454   5.793 -1.3967 -0.2842 -1.6096
 5315WAT     H221981   2.676   2.458   5.663  0.4277 -1.8553 -1.1091
 5315WAT    EPW21982   2.676   2.425   5.734  0.1339 -0.5228 -0.4534
 5316WAT      O21983   7.597   1.657   5.709  0.0206 -0.0846  0.7653
 5316WAT     H121984   7.678   1.629   5.729  0.4834 -0.8710 -1.7611
 5316WAT     H221985   7.601   1.669   5.622 -2.2306  1.1294  0.7567
 5316WAT    EPW21986   7.610   1.655   5.699 -0.2436 -0.0214  0.3908
 5317WAT      O21987   0.144   2.771   7.864 -0.1943  0.2183  0.3283
 5317WAT     H121988   0.092   2.725   7.812 -1.2991  1.1053  0.6104
 5317WAT     H221989   0.111   2.851   7.861  1.1034  0.7988  0.6059
 5317WAT    EPW21990   0.132   2.776   7.856 -0.1658  0.4351  0.4110
 5318WAT      O21991   3.808   4.600   1.802 -0.1105  0.4771 -0.4577
 5318WAT     H121992   3.734   4.644   1.819 -1.0025 -0.4119 -1.7789
 5318WAT     H221993   3.840   4.640   1.732 -3.1790 -3.1765 -4.4908
 5318WAT    EPW21994   3.802   4.612   1.794 -0.6956 -0.1939 -1.2487
 5319WAT      O21995   5.364   4.547   7.395 -0.1597  0.6650  0.0521
 5319WAT     H121996   5.278   4.555   7.392 -0.1029  1.0935 -0.5577
 5319WAT     H221997   5.378   4.505   7.470 -1.0990 -1.9185 -1.0847
 5319WAT    EPW21998   5.354   4.542   7.405 -0.2900  0.3466 -0.2059
 5320WAT      O21999   5.987   2.976   7.086  0.1076  0.2653 -0.4709
 5320WAT     H122000   5.981   2.990   7.000  0.9767 -0.3328 -0.6459
 5320WAT     H222001   5.904   2.972   7.112 -0.1670  1.1914 -1.1515
 5320WAT    EPW22002   5.974   2.978   7.077  0.1954  0.3137 -0.5973
 5321WAT      O22003   2.387   1.355   5.794 -0.1384 -0.1448  0.8272
 5321WAT     H122004   2.422   1.354   5.714 -0.7313 -1.7395  0.5548
 5321WAT     H222005   2.343   1.431   5.796 -1.5397 -0.8299 -1.0404
 5321WAT    EPW22006   2.386   1.366   5.782 -0.4330 -0.4816  0.5111
 5322WAT      O22007   6.309   2.333   7.628 -0.4162  0.0923 -0.4005
 5322WAT     H122008   6.391   2.323   7.600 -0.4745 -0.8932 -0.2758
 5322WAT     H222009   6.308   2.413   7.662  0.6631 -0.0897  0.1248
 5322WAT    EPW22010   6.321   2.343   7.629 -0.2654 -0.0801 -0.3045
 5323WAT      O22011   1.235   3.819   7.364 -0.1902 -0.0880  0.4286
 5323WAT     H122012   1.176   3.802   7.426 -0.8903  0.0407 -0.1889
 5323WAT     H222013   1.209   3.769   7.297  1.5174 -1.5017  0.7708
 5323WAT    EPW22014   1.222   3.809   7.363 -0.0414 -0.2778  0.3879
 5324WAT      O22015   5.353   3.283   7.444  0.0488 -0.1477 -0.2009
 5324WAT     H122016   5.312   3.353   7.476 -0.3992 -0.3436 -0.3317
 5324WAT     H222017   5.422   3.316   7.403  0.6630  0.1042  1.0111
 5324WAT    EPW22018   5.357   3.298   7.442  0.0734 -0.1394 -0.0412
 5325WAT      O22019   0.605   4.619   6.603 -0.6031 -0.4530  0.2618
 5325WAT     H122020   0.606   4.631   6.517 -0.9083  1.7424  0.5026
 5325WAT     H222021   0.527   4.585   6.619 -0.7017 -0.4831 -0.2690
 5325WAT    EPW22022   0.594   4.616   6.593 -0.6628 -0.1331  0.2190
 5326WAT      O22023   4.391   3.616   6.166 -0.1490  0.3488 -0.0898
 5326WAT     H122024   4.321   3.630   6.217 -0.7509 -2.6302  0.0434
 5326WAT     H222025   4.364   3.557   6.109  1.6269  0.8787 -1.5920
 5326WAT    EPW22026   4.377   3.610   6.165  0.0244 -0.0130 -0.2921
 5327WAT      O22027   2.612   3.233   1.357  0.4725 -0.3036  0.1741
 5327WAT     H122028   2.664   3.294   1.393  0.5473  0.1048 -0.6148
 5327WAT     H222029   2.663   3.192   1.300 -0.2344  0.5674 -1.1286
 5327WAT    EPW22030   2.627   3.236   1.354  0.3791 -0.1146 -0.1348
 5328WAT      O22031   2.633   4.008   6.259 -0.4368  0.1006 -0.5964
 5328WAT     H122032   2.589   4.008   6.335 -1.5128 -1.2573 -1.1913
 5328WAT     H222033   2.615   4.086   6.225 -1.1724  0.1312 -0.1447
 5328WAT    EPW22034   2.624   4.020   6.265 -0.7044 -0.0954 -0.6176
 5329WAT      O22035   5.176   1.038   2.683  0.2642 -0.3814 -0.1767
 5329WAT     H122036   5.133   1.100   2.639 -0.6913 -0.5348  0.5066
 5329WAT     H222037   5.215   0.992   2.621 -0.7847 -0.3971 -0.8492
 5329WAT    EPW22038   5.175   1.040   2.668 -0.0319 -0.4064 -0.1751
 5330WAT      O22039   2.909   3.915   6.586  0.3463  0.7084 -0.4372
 5330WAT     H122040   2.839   3.893   6.632  1.1708  1.0206  1.0461
 5330WAT     H222041   2.891   3.887   6.506 -0.5500 -1.1791  0.3624
 5330WAT    EPW22042   2.896   3.908   6.581  0.3357  0.4757 -0.1000
 5331WAT      O22043   4.627   6.256   2.489 -0.3475 -0.2155  0.2275
 5331WAT     H122044   4.607   6.337   2.462  1.8941  1.2666  2.5697
 5331WAT     H222045   4.700   6.238   2.445  0.2991 -0.0479  1.1964
 5331WAT    EPW22046   4.635   6.265   2.478  0.0791  0.0282  0.7166
 5332WAT      O22047   0.931   5.783   0.166  0.0151  0.1758  0.4253
 5332WAT     H122048   0.906   5.864   0.144 -0.5263  0.5163  2.1028
 5332WAT     H222049   1.002   5.769   0.117 -0.9676  0.9086 -1.2838
 5332WAT    EPW22050   0.938   5.793   0.156 -0.2101  0.3343  0.4206
 5333WAT      O22051   6.286   6.724   0.196 -0.2689  0.6142  0.1966
 5333WAT     H122052   6.292   6.753   0.114  0.9446  1.1693  0.4609
 5333WAT     H222053   6.276   6.797   0.243  0.4160  0.4202  0.6590
 5333WAT    EPW22054   6.285   6.739   0.191  0.0115  0.6676  0.3040
 5334WAT      O22055   6.560   2.458   3.386 -0.1999 -0.1010  0.1502
 5334WAT     H122056   6.559   2.412   3.312 -1.3796 -0.8340  0.5967
 5334WAT     H222057   6.629   2.424   3.429 -0.6366 -0.9891  0.1749
 5334WAT    EPW22058   6.570   2.446   3.382 -0.4387 -0.3405  0.2198
 5335WAT      O22059   0.720   2.916   0.278 -0.3823  0.4553  0.0230
 5335WAT     H122060   0.790   2.867   0.296 -0.6885 -0.2479 -0.6485
 5335WAT     H222061   0.656   2.857   0.267 -0.8895  1.0391 -0.2130
 5335WAT    EPW22062   0.721   2.900   0.279 -0.5024  0.4377 -0.1111
 5336WAT      O22063   2.649   6.669   6.203 -0.8523 -0.5721 -0.2250
 5336WAT     H122064   2.646   6.584   6.180 -1.8485 -1.8358  3.7440
 5336WAT     H222065   2.571   6.682   6.241 -0.7518  2.2447 -0.7887
 5336WAT    EPW22066   2.637   6.658   6.205 -0.9846 -0.3427  0.2780
 5337WAT      O22067   0.949   2.308   4.724 -0.8037  0.5020 -0.5320
 5337WAT     H122068   0.942   2.369   4.786 -0.2384 -0.5899  0.6521
 5337WAT     H222069   1.035   2.304   4.709 -0.6352 -1.0053  0.5203
 5337WAT    EPW22070   0.961   2.316   4.731 -0.6953  0.1181 -0.2017
 5338WAT      O22071   4.641   3.535   6.456 -0.1992 -0.0763  0.4280
 5338WAT     H122072   4.563   3.550   6.492 -0.2709 -1.2499  0.7991
 5338WAT     H222073   4.654   3.605   6.405 -2.4837 -0.8013 -1.3426
 5338WAT    EPW22074   4.631   3.547   6.454 -0.5473 -0.3568  0.2213
 5339WAT      O22075   4.881   4.889   3.827  0.0033 -0.1373  0.4505
 5339WAT     H122076   4.953   4.893   3.876 -0.3309  1.9997  0.8606
 5339WAT     H222077   4.907   4.846   3.756  1.7476  0.7404  0.5101
 5339WAT    EPW22078   4.896   4.883   3.824  0.2116  0.3080  0.5199
 5340WAT      O22079   6.982   5.160   0.616  0.7009 -0.5168  0.4940
 5340WAT     H122080   6.907   5.186   0.578  0.4935  0.1539  1.3387
 5340WAT     H222081   7.003   5.088   0.571 -0.4401 -0.7076  0.2260
 5340WAT    EPW22082   6.974   5.153   0.603  0.5017 -0.4459  0.5792
 5341WAT      O22083   0.697   5.637   0.179 -0.5880 -0.0085 -0.1401
 5341WAT     H122084   0.782   5.654   0.174 -0.5981  0.4360  0.9434
 5341WAT     H222085   0.660   5.713   0.155 -0.6612  0.3059  0.9450
 5341WAT    EPW22086   0.704   5.651   0.174 -0.6003  0.1036  0.1803
 5342WAT      O22087   4.789   1.300   6.790  0.1805 -0.0041  0.4636
 5342WAT     H122088   4.703   1.305   6.778  0.3813  0.9435 -0.8067
 5342WAT     H222089   4.821   1.362   6.738  1.6750 -0.7535  0.4183
 5342WAT    EPW22090   4.781   1.310   6.781  0.4309  0.0252  0.2692
 5343WAT      O22091   4.737   2.831   5.062 -0.3729 -0.1966  0.2752
 5343WAT     H122092   4.787   2.895   5.030 -1.5942  0.2610 -0.8120
 5343WAT     H222093   4.656   2.857   5.042 -0.9030 -3.7165 -3.5447
 5343WAT    EPW22094   4.732   2.845   5.054 -0.6316 -0.6490 -0.4497
 5344WAT      O22095   2.170   5.654   6.099  0.4750  0.6765  0.7981
 5344WAT     H122096   2.191   5.596   6.160  0.4324 -0.2807 -0.0647
 5344WAT     H222097   2.084   5.662   6.107  0.2319 -0.6792 -0.1571
 5344WAT    EPW22098   2.160   5.647   6.109  0.4328  0.3348  0.5295
 5345WAT      O22099   1.835   6.992   1.519  0.6017  0.4058 -0.5113
 5345WAT     H122100   1.805   7.022   1.595  1.6351 -1.5049  0.7426
 5345WAT     H222101   1.912   7.032   1.510  1.8452 -1.4789  1.0098
 5345WAT    EPW22102   1.842   7.002   1.529  0.9380 -0.1548 -0.1013
 5346WAT      O22103   3.525   6.242   5.998  0.3432  0.0025 -0.4048
 5346WAT     H122104   3.560   6.321   6.001 -0.5538  0.4572 -1.2983
 5346WAT     H222105   3.506   6.225   6.082  2.0592  0.0015  0.0108
 5346WAT    EPW22106   3.527   6.251   6.011  0.4642  0.0695 -0.4754
 5347WAT      O22107   4.074   4.634   6.436  0.5727  0.2297 -0.0039
 5347WAT     H122108   4.031   4.703   6.406 -1.1796 -0.9064 -0.2404
 5347WAT     H222109   4.116   4.665   6.506  0.0470  1.5711 -0.2480
 5347WAT    EPW22110   4.074   4.649   6.442  0.2362  0.2600 -0.0749
 5348WAT      O22111   3.492   2.387   4.866  0.3452  0.4874  0.0052
 5348WAT     H122112   3.553   2.390   4.803  1.3750  0.6475  0.9813
 5348WAT     H222113   3.507   2.459   4.912 -2.9888  2.5886 -1.8193
 5348WAT    EPW22114   3.504   2.398   4.863  0.0048  0.8214 -0.1202
 5349WAT      O22115   4.754   2.018   2.021  0.1788 -0.9711  0.1570
 5349WAT     H122116   4.831   2.042   2.054  0.4033 -1.3211 -0.1096
 5349WAT     H222117   4.697   2.047   2.081  0.5272 -0.9078  0.4665
 5349WAT    EPW22118   4.757   2.026   2.035  0.2634 -1.0135  0.1633
 5350WAT      O22119   5.505   5.418   6.219  0.1814 -0.5968 -0.0690
 5350WAT     H122120   5.578   5.435   6.263  0.6599 -0.3795 -0.9166
 5350WAT     H222121   5.457   5.371   6.274  1.0604 -0.9355  0.4143
 5350WAT    EPW22122   5.509   5.414   6.233  0.3820 -0.6147 -0.1228
 5351WAT      O22123   6.454   0.964   6.815  0.1944 -0.3150  0.0345
 5351WAT     H122124   6.535   0.992   6.831  0.3942  0.1277 -1.5161
 5351WAT     H222125   6.462   0.878   6.810  0.6618 -0.2531 -0.4188
 5351WAT    EPW22126   6.467   0.956   6.816  0.2930 -0.2405 -0.2615
 5352WAT      O22127   6.004   2.179   2.374 -0.5016 -0.1451 -0.0505
 5352WAT     H122128   6.042   2.128   2.434 -0.2609  2.4446  2.2572
 5352WAT     H222129   5.919   2.169   2.390 -0.6114 -1.8056 -1.4791
 5352WAT    EPW22130   5.997   2.170   2.385 -0.4823 -0.0078  0.0794
 5353WAT      O22131   0.151   1.263   7.198 -0.0524  0.3689 -0.0366
 5353WAT     H122132   0.189   1.188   7.217 -1.6487 -0.2644  0.8826
 5353WAT     H222133   0.213   1.308   7.156  1.4102 -0.8559  0.7293
 5353WAT    EPW22134   0.165   1.259   7.194 -0.0722  0.0944  0.2124
 5354WAT      O22135   5.712   0.662   1.976  0.1898  0.2385  0.3888
 5354WAT     H122136   5.705   0.582   2.010  2.2076 -1.3313 -2.4981
 5354WAT     H222137   5.639   0.671   1.930 -0.4195  0.4757  1.3576
 5354WAT    EPW22138   5.700   0.651   1.975  0.3978  0.0416  0.1054
 5355WAT      O22139   1.376   5.023   6.961  0.2288 -0.2118 -0.6266
 5355WAT     H122140   1.353   5.051   6.881 -0.0713 -1.0264 -0.8334
 5355WAT     H222141   1.436   5.081   6.986  1.7784 -1.0254 -2.2434
 5355WAT    EPW22142   1.381   5.036   6.953  0.4133 -0.4523 -0.8960
 5356WAT      O22143   1.048   5.338   7.622 -0.0177 -0.0544 -0.4276
 5356WAT     H122144   1.099   5.287   7.572 -0.6397  0.1079 -1.2522
 5356WAT     H222145   1.070   5.315   7.703  0.3563 -0.9999 -0.7753
 5356WAT    EPW22146   1.059   5.327   7.627 -0.0544 -0.1701 -0.6008
 5357WAT      O22147   4.346   6.890   1.581 -0.4108 -1.0772  0.3523
 5357WAT     H122148   4.397   6.820   1.566  1.8879  0.4197  0.6806
 5357WAT     H222149   4.341   6.893   1.668  0.5268 -0.2154  0.4034
 5357WAT    EPW22150   4.353   6.880   1.591  0.0673 -0.7288  0.4084
 5358WAT      O22151   4.749   0.308   5.906  0.0347 -0.2616  0.1073
 5358WAT     H122152   4.687   0.280   5.852  0.0904  0.2487 -0.2316
 5358WAT     H222153   4.776   0.382   5.869 -0.0288  0.1759  0.9117
 5358WAT    EPW22154   4.744   0.315   5.893  0.0336 -0.1216  0.1760
 5359WAT      O22155   3.442   5.255   6.669  0.3863  1.0393  0.0631
 5359WAT     H122156   3.510   5.201   6.673  0.6044  1.3111  0.0193
 5359WAT     H222157   3.388   5.224   6.730 -0.4912 -0.5963 -1.4532
 5359WAT    EPW22158   3.444   5.242   6.678  0.2889  0.8378 -0.1673
 5360WAT      O22159   4.285   7.356   3.847  0.1562 -0.1498 -0.8092
 5360WAT     H122160   4.203   7.347   3.876  0.1020  0.5887 -0.6973
 5360WAT     H222161   4.309   7.434   3.879  1.2990 -0.8428  0.0802
 5360WAT    EPW22162   4.276   7.366   3.856  0.3170 -0.1431 -0.6613
 5361WAT      O22163   4.470   5.489   6.111  0.2494  0.0711  0.2175
 5361WAT     H122164   4.541   5.456   6.072  0.2604  0.0326  0.2690
 5361WAT     H222165   4.409   5.429   6.097 -0.8573  1.7502 -3.1337
 5361WAT    EPW22166   4.472   5.475   6.104  0.0876  0.3134 -0.2700
 5362WAT      O22167   3.843   6.325   7.233 -0.2644  0.4754 -0.1035
 5362WAT     H122168   3.915   6.335   7.281 -0.3445 -2.6009  0.8520
 5362WAT     H222169   3.871   6.281   7.163 -0.8455  1.3719 -0.9217
 5362WAT    EPW22170   3.858   6.320   7.229 -0.3621  0.1534 -0.0832
 5363WAT      O22171   5.928   2.636   5.727 -0.1794 -0.0387  0.1180
 5363WAT     H122172   5.955   2.587   5.795 -1.3612 -2.3068 -0.9287
 5363WAT     H222173   5.980   2.609   5.661 -0.4348  0.6064 -0.3572
 5363WAT    EPW22174   5.940   2.625   5.727 -0.3917 -0.2785 -0.1068
 5364WAT      O22175   4.379   0.769   6.325 -0.2490  0.2488 -0.5077
 5364WAT     H122176   4.433   0.832   6.352  0.6789 -0.4276 -0.7349
 5364WAT     H222177   4.382   0.775   6.238 -1.4981  0.9848 -0.5184
 5364WAT    EPW22178   4.387   0.779   6.316 -0.2965  0.2576 -0.5428
 5365WAT      O22179   0.745   0.970   4.824 -0.0515  0.3761 -0.0938
 5365WAT     H122180   0.661   0.990   4.838 -1.4468 -1.6907 -3.8287
 5365WAT     H222181   0.759   1.000   4.743  2.0374 -1.2856 -0.4250
 5365WAT    EPW22182   0.734   0.977   4.814  0.0510 -0.1747 -0.6945
 5366WAT      O22183   0.102   3.830   7.158  0.0112 -0.7415  0.1885
 5366WAT     H122184   0.058   3.762   7.127  1.2009 -2.4142  1.9437
 5366WAT     H222185   0.185   3.805   7.153  0.4124  0.0908  1.8805
 5366WAT    EPW22186   0.107   3.817   7.153  0.2462 -0.8657  0.6977
 5367WAT      O22187   5.288   1.517   6.815  0.2843  0.5878  0.0744
 5367WAT     H122188   5.215   1.531   6.859  0.1361  0.5629 -0.1619
 5367WAT     H222189   5.274   1.555   6.738  1.4516  2.7681  0.8629
 5367WAT    EPW22190   5.275   1.524   6.810  0.4348  0.9062  0.1560
 5368WAT      O22191   4.034   1.686   6.760  0.6042  0.4390 -0.1741
 5368WAT     H122192   4.005   1.613   6.722 -0.0362 -0.1713  1.3861
 5368WAT     H222193   4.027   1.746   6.697 -1.7247 -0.2209 -0.6567
 5368WAT    EPW22194   4.029   1.684   6.745  0.1656  0.2514 -0.0149
 5369WAT      O22195   7.698   5.357   0.023  0.0368 -0.4541  0.5899
 5369WAT     H122196   7.626   5.307   0.029  0.0593 -0.5135  0.3770
 5369WAT     H222197   7.743   5.335   0.094 -0.6585  0.3912  1.3170
 5369WAT    EPW22198   7.694   5.346   0.034 -0.0626 -0.3380  0.6659
 5370WAT      O22199   5.302   3.758   4.695  1.0310 -0.3326 -0.1614
 5370WAT     H122200   5.241   3.696   4.690 -0.1348  0.8416 -2.1131
 5370WAT     H222201   5.317   3.765   4.780 -0.7075 -1.5075  0.3050
 5370WAT    EPW22202   5.295   3.750   4.707  0.6020 -0.3327 -0.3808
 5371WAT      O22203   0.330   4.249   4.999 -0.0962 -0.1395  0.1942
 5371WAT     H122204   0.363   4.327   5.017  0.5259 -0.2389 -0.4463
 5371WAT     H222205   0.244   4.263   4.995 -0.0012  0.4814  0.2389
 5371WAT    EPW22206   0.322   4.262   5.001  0.0097 -0.0624  0.1062
 5372WAT      O22207   2.520   3.624   6.518  0.4859 -0.1464  0.1749
 5372WAT     H122208   2.481   3.668   6.582 -0.2341  0.4672 -0.6530
 5372WAT     H222209   2.574   3.570   6.560 -0.2087 -0.0019  1.3039
 5372WAT    EPW22210   2.522   3.622   6.534  0.2769 -0.0344  0.2194
 5373WAT      O22211   2.354   0.065   6.926 -0.0911  0.5091  0.2918
 5373WAT     H122212   2.341   0.084   6.841 -0.3161  0.7841  0.3838
 5373WAT     H222213   2.391   0.138   6.957  1.8970 -0.3143  0.0039
 5373WAT    EPW22214   2.357   0.079   6.918  0.1693  0.4281  0.2628
 5374WAT      O22215   0.010   3.298   6.295  0.4098  0.4088 -0.3379
 5374WAT     H122216   0.024   3.380   6.268  2.6280  0.0538 -0.4866
 5374WAT     H222217   0.080   3.255   6.266 -1.0246 -1.7265 -0.8616
 5374WAT    EPW22218   0.023   3.304   6.287  0.5255  0.0409 -0.4372
 5375WAT      O22219   4.049   0.124   7.370 -0.2722 -0.0157 -0.1226
 5375WAT     H122220   4.069   0.075   7.300  0.5132 -0.2008  0.2333
 5375WAT     H222221   3.968   0.098   7.389  0.1231 -1.1826  0.0513
 5375WAT    EPW22222   4.040   0.113   7.362 -0.0978 -0.2154 -0.0443
 5376WAT      O22223   1.802   0.009   3.820  0.2700  0.3922  0.3918
 5376WAT     H122224   1.778   0.010   3.904 -2.1965 -0.8070 -0.2162
 5376WAT     H222225   1.728   0.026   3.777  1.2308 -0.1141 -1.6017
 5376WAT    EPW22226   1.787   0.012   3.826  0.0476  0.1403  0.0075
 5377WAT      O22227   5.852   2.019   5.686  0.1037  0.0006  0.3163
 5377WAT     H122228   5.889   2.044   5.761  0.9825  3.6676 -1.1247
 5377WAT     H222229   5.917   1.983   5.642  0.2390  0.1662  0.3768
 5377WAT    EPW22230   5.867   2.018   5.691  0.2535  0.5667  0.1124
 5378WAT      O22231   4.442   0.805   2.536  0.3128  0.3459 -0.3547
 5378WAT     H122232   4.408   0.733   2.573  0.8457  0.9525  1.4125
 5378WAT     H222233   4.528   0.788   2.535  0.4801  1.0993  0.4420
 5378WAT    EPW22234   4.450   0.792   2.541  0.4163  0.5468  0.0240
 5379WAT      O22235   2.390   6.845   0.086  0.2251 -0.2943 -0.1143
 5379WAT     H122236   2.396   6.932   0.091 -0.5685 -0.0093 -2.7656
 5379WAT     H222237   2.332   6.825   0.148  1.2215  0.9068  1.2783
 5379WAT    EPW22238   2.382   6.855   0.096  0.2551 -0.0748 -0.3002
 5380WAT      O22239   1.922   0.724   6.976  0.8313 -0.3645  0.2527
 5380WAT     H122240   1.927   0.796   7.026  0.8632 -0.3623  0.2469
 5380WAT     H222241   1.841   0.726   6.944  0.8391 -0.3189  0.2350
 5380WAT    EPW22242   1.911   0.735   6.978  0.8371 -0.3574  0.2493
 5381WAT      O22243   6.835   4.566   0.097 -0.1471  0.4280  0.3987
 5381WAT     H122244   6.748   4.562   0.099 -0.2048  1.2207 -0.2846
 5381WAT     H222245   6.855   4.536   0.017 -0.0018  3.1596 -0.6898
 5381WAT    EPW22246   6.825   4.561   0.086 -0.1342  0.9486  0.1370
 5382WAT      O22247   0.341   2.797   5.855  0.0333 -0.1213  0.1366
 5382WAT     H122248   0.261   2.768   5.876 -0.5829  0.6300 -1.0742
 5382WAT     H222249   0.358   2.856   5.918 -0.1838 -0.5846  0.6366
 5382WAT    EPW22250   0.332   2.802   5.867 -0.0898 -0.0788  0.0316
 5383WAT      O22251   3.464   6.866   2.851 -0.0168 -0.1755 -0.7881
 5383WAT     H122252   3.501   6.942   2.827  0.7664 -0.5108 -0.6615
 5383WAT     H222253   3.503   6.847   2.926 -0.8727 -0.2517 -0.3520
 5383WAT    EPW22254   3.475   6.875   2.858 -0.0276 -0.2363 -0.7050
 5384WAT      O22255   2.013   6.674   0.137 -0.2026 -0.7938  0.3277
 5384WAT     H122256   1.977   6.599   0.164  0.9111 -1.2742  0.5388
 5384WAT     H222257   2.022   6.664   0.051 -3.0001  0.4139 -0.2168
 5384WAT    EPW22258   2.009   6.662   0.129 -0.4513 -0.6864  0.2785
 5385WAT      O22259   5.709   2.127   1.299 -0.2310 -0.1569  0.6676
 5385WAT     H122260   5.653   2.076   1.343  0.5454 -0.5502  1.2380
 5385WAT     H222261   5.668   2.204   1.294 -1.4664 -0.8354 -0.2856
 5385WAT    EPW22262   5.695   2.130   1.305 -0.2988 -0.3152  0.6111
 5386WAT      O22263   3.917   0.537   6.074  0.0402  0.0641 -0.4566
 5386WAT     H122264   3.938   0.457   6.047  0.4833 -0.4078  1.1722
 5386WAT     H222265   3.842   0.554   6.032 -0.7771 -1.7484  0.1436
 5386WAT    EPW22266   3.909   0.528   6.064 -0.0151 -0.2734 -0.1273
 5387WAT      O22267   5.203   2.170   0.159  0.5327  0.5173  0.5785
 5387WAT     H122268   5.199   2.183   0.245  0.2010  1.7799  0.3883
 5387WAT     H222269   5.173   2.245   0.125  0.8478  0.1166 -0.6403
 5387WAT    EPW22270   5.198   2.183   0.166  0.5303  0.6446  0.3704
 5388WAT      O22271   1.311   1.814   5.693  0.1442  0.2837  0.3645
 5388WAT     H122272   1.324   1.826   5.778 -1.4524 -0.0117  0.6794
 5388WAT     H222273   1.381   1.768   5.668 -0.0640 -0.9273  1.8365
 5388WAT    EPW22274   1.323   1.809   5.702 -0.1224  0.0612  0.6285
 5389WAT      O22275   6.625   0.796   6.534  0.2613  0.4251 -0.1205
 5389WAT     H122276   6.575   0.772   6.601  0.1315 -1.1643 -0.7426
 5389WAT     H222277   6.690   0.737   6.535  0.8132  1.0006 -0.7830
 5389WAT    EPW22278   6.627   0.783   6.544  0.3237  0.2753 -0.3103
 5390WAT      O22279   2.457   1.903   6.707  0.4058 -0.2504 -0.2602
 5390WAT     H122280   2.493   1.972   6.668  1.7689 -1.0877 -0.5502
 5390WAT     H222281   2.454   1.927   6.791  0.2656  0.4119 -0.4494
 5390WAT    EPW22282   2.462   1.917   6.714  0.5864 -0.2762 -0.3310
 5391WAT      O22283   4.493   1.145   7.202  0.1020 -0.1515 -0.7176
 5391WAT     H122284   4.551   1.210   7.201 -2.0353  1.8447 -1.6105
 5391WAT     H222285   4.472   1.138   7.286  0.3709  0.2507 -0.6137
 5391WAT    EPW22286   4.499   1.154   7.214 -0.1740  0.2028 -0.8341
 5392WAT      O22287   0.518   1.150   5.093  1.0102 -0.3083  0.0239
 5392WAT     H122288   0.491   1.232   5.080  0.0040 -0.6384 -0.0776
 5392WAT     H222289   0.504   1.111   5.017  1.3625 -0.6074  0.1106
 5392WAT    EPW22290   0.512   1.157   5.080  0.9136 -0.4012  0.0217
 5393WAT      O22291   0.268   2.599   4.526  0.2011  0.6632 -0.5346
 5393WAT     H122292   0.307   2.623   4.600 -3.1947  0.3621  1.5138
 5393WAT     H222293   0.304   2.521   4.508  0.2506  0.1770  1.5145
 5393WAT    EPW22294   0.279   2.591   4.534 -0.2932  0.5469  0.0707
 5394WAT      O22295   6.502   7.565   7.078  0.2204 -0.5511 -0.0565
 5394WAT     H122296   6.427   7.608   7.091 -0.0664 -1.4631  1.5732
 5394WAT     H222297   6.484   7.483   7.102  1.2764 -1.1775 -1.2793
 5394WAT    EPW22298   6.488   7.559   7.084  0.3340 -0.7784  0.0036
 5395WAT      O22299   5.402   1.051   7.637  0.1927  0.1405 -0.1616
 5395WAT     H122300   5.358   1.081   7.706 -1.5604 -0.1587 -1.1037
 5395WAT     H222301   5.473   1.101   7.636 -0.8079  1.6629  0.5675
 5395WAT    EPW22302   5.406   1.063   7.647 -0.2141  0.3212 -0.1931
 5396WAT      O22303   5.568   4.950   7.510 -0.1221 -0.2824 -0.2173
 5396WAT     H122304   5.577   4.898   7.441  0.1079 -0.1116 -0.3164
 5396WAT     H222305   5.573   5.030   7.476 -1.0920 -0.1803 -0.1567
 5396WAT    EPW22306   5.570   4.954   7.494 -0.2314 -0.2421 -0.2230
 5397WAT      O22307   3.959   0.406   0.917 -0.1751 -0.1265 -0.3190
 5397WAT     H122308   4.006   0.348   0.871  1.7236  0.3822  0.8637
 5397WAT     H222309   3.877   0.381   0.902  0.4719 -1.6874 -1.7107
 5397WAT    EPW22310   3.954   0.393   0.908  0.2010 -0.2819 -0.3499
 5398WAT      O22311   1.433   2.590   7.420  0.7081  0.1991  0.4020
 5398WAT     H122312   1.474   2.531   7.469  1.1251  0.9171  0.9309
 5398WAT     H222313   1.459   2.571   7.339 -0.8602 -1.7241  0.2619
 5398WAT    EPW22314   1.443   2.578   7.416  0.5380  0.0211  0.4594
 5399WAT      O22315   4.515   3.532   3.717  0.3141 -0.8399 -0.5875
 5399WAT     H122316   4.528   3.498   3.638 -0.2995  1.2597 -1.6796
 5399WAT     H222317   4.553   3.610   3.712 -1.6574  0.2653  0.3913
 5399WAT    EPW22318   4.522   3.539   3.705 -0.0677 -0.3665 -0.6042
 5400WAT      O22319   6.555   6.725   3.818  0.4017 -0.0649  0.4070
 5400WAT     H122320   6.527   6.804   3.843  0.0044  0.5770 -1.9044
 5400WAT     H222321   6.484   6.675   3.824 -0.5319  0.8001 -2.2291
 5400WAT    EPW22322   6.541   6.730   3.823  0.2051  0.1577 -0.3238
 5401WAT      O22323   4.073   3.029   6.306  0.2618  0.4599 -0.8511
 5401WAT     H122324   4.057   3.069   6.231 -3.7446 -0.3145 -0.6573
 5401WAT     H222325   3.998   3.038   6.350  0.2673 -4.0109  0.6207
 5401WAT    EPW22326   4.060   3.036   6.302 -0.3292 -0.3149 -0.6050
 5402WAT      O22327   0.122   3.594   4.734  0.2165  0.3640  0.4202
 5402WAT     H122328   0.193   3.566   4.776  0.0804  1.8685  1.7400
 5402WAT     H222329   0.117   3.540   4.665  1.5983 -0.9050  1.2413
 5402WAT    EPW22330   0.132   3.582   4.730  0.4005  0.3988  0.7364
 5403WAT      O22331   4.616   1.708   5.214 -0.3126 -0.2388 -0.1645
 5403WAT     H122332   4.570   1.781   5.210  0.1663  0.0469 -0.7909
 5403WAT     H222333   4.614   1.678   5.132 -2.6292 -2.3046  0.5220
 5403WAT    EPW22334   4.609   1.714   5.201 -0.5841 -0.5017 -0.1556
 5404WAT      O22335   1.044   3.175   5.276  1.0043  0.1045 -0.2209
 5404WAT     H122336   1.039   3.257   5.306  1.2423 -0.4002  1.2841
 5404WAT     H222337   1.118   3.145   5.311  1.0178 -0.7053 -0.9129
 5404WAT    EPW22338   1.054   3.182   5.286  1.0414 -0.0897 -0.1008
 5405WAT      O22339   4.404   3.976   5.191 -0.3902  0.4649  0.1148
 5405WAT     H122340   4.355   4.001   5.124 -1.1986 -0.3587  0.3718
 5405WAT     H222341   4.369   4.020   5.259 -1.7475 -1.1637  0.5492
 5405WAT    EPW22342   4.392   3.986   5.191 -0.7101  0.1027  0.2169
 5406WAT      O22343   4.102   0.780   6.365 -0.3460  0.1052  0.4082
 5406WAT     H122344   4.093   0.783   6.278 -0.1755 -0.4330  0.3663
 5406WAT     H222345   4.185   0.804   6.378 -0.4865  0.5742  0.4547
 5406WAT    EPW22346   4.113   0.784   6.354 -0.3415  0.0949  0.4088
 5407WAT      O22347   3.242   6.543   5.688  0.1455  0.0013  0.0977
 5407WAT     H122348   3.308   6.591   5.659  0.0483 -0.3713 -0.7676
 5407WAT     H222349   3.273   6.505   5.760  1.0625 -0.6008 -0.5970
 5407WAT    EPW22350   3.256   6.544   5.695  0.2666 -0.1427 -0.1328
 5408WAT      O22351   4.049   3.388   4.863 -0.0773  0.2630 -0.0332
 5408WAT     H122352   4.051   3.331   4.929  0.1315 -0.5148 -0.6828
 5408WAT     H222353   4.132   3.389   4.834 -0.4985 -0.8074 -1.4094
 5408WAT    EPW22354   4.062   3.380   4.868 -0.1087 -0.0100 -0.3324
 5409WAT      O22355   0.967   1.042   4.964  0.3699  0.2816 -0.4906
 5409WAT     H122356   0.885   1.046   4.932 -0.5734  1.9802  1.8041
 5409WAT     H222357   0.978   1.121   4.999  2.5308 -0.3453  0.3758
 5409WAT    EPW22358   0.956   1.054   4.965  0.5498  0.4399 -0.0237
 5410WAT      O22359   4.955   0.759   0.363  0.0587 -0.2324  0.1269
 5410WAT     H122360   5.026   0.774   0.411  0.0051  0.2606  0.0572
 5410WAT     H222361   4.891   0.798   0.408  0.3061  1.9388 -1.2943
 5410WAT    EPW22362   4.956   0.767   0.377  0.0874  0.1611 -0.0933
 5411WAT      O22363   5.200   0.385   5.545 -0.4188 -0.0902  0.1891
 5411WAT     H122364   5.249   0.370   5.474 -0.0840  3.3023 -0.4852
 5411WAT     H222365   5.259   0.393   5.609 -0.3040  1.1123 -0.0482
 5411WAT    EPW22366   5.216   0.384   5.544 -0.3524  0.5886  0.0544
 5412WAT      O22367   7.291   2.693   7.055  0.3151  0.0877  0.0614
 5412WAT     H122368   7.255   2.624   7.016 -0.6443  1.0245 -0.7916
 5412WAT     H222369   7.225   2.728   7.100  1.0864 -0.2135  1.4967
 5412WAT    EPW22370   7.276   2.688   7.056  0.2873  0.1816  0.1474
 5413WAT      O22371   0.779   5.346   7.335  0.4194 -0.0204  0.3320
 5413WAT     H122372   0.726   5.414   7.345  0.3504 -0.1657  0.9908
 5413WAT     H222373   0.847   5.379   7.292 -0.2374  0.1494 -0.6052
 5413WAT    EPW22374   0.781   5.361   7.330  0.3122 -0.0168  0.2909
 5414WAT      O22375   4.969   0.799   4.514  0.2542 -0.4758  0.0645
 5414WAT     H122376   4.890   0.780   4.482 -0.6475  1.8372  0.7555
 5414WAT     H222377   5.022   0.789   4.446 -1.0719  0.6884 -1.1973
 5414WAT    EPW22378   4.965   0.794   4.499 -0.0749  0.0378 -0.0198
 5415WAT      O22379   5.965   1.495   5.163  0.0429 -0.3218 -0.2661
 5415WAT     H122380   6.051   1.485   5.176  0.0350  2.1297  2.6359
 5415WAT     H222381   5.931   1.423   5.198  0.8412 -0.2253  0.7621
 5415WAT    EPW22382   5.973   1.483   5.170  0.1597  0.0546  0.3145
 5416WAT      O22383   6.154   5.263   5.090 -0.4986  0.5077  0.3327
 5416WAT     H122384   6.170   5.219   5.163 -1.5121  0.3328  0.4621
 5416WAT     H222385   6.167   5.347   5.113 -0.4327  0.4226  0.6028
 5416WAT    EPW22386   6.158   5.269   5.104 -0.6386  0.4693  0.3917
 5417WAT      O22387   0.655   1.942   4.295  0.1702 -0.1836  0.7566
 5417WAT     H122388   0.654   1.889   4.364  0.9493 -2.8621 -1.1451
 5417WAT     H222389   0.613   1.897   4.233  2.2450  0.6634 -1.4305
 5417WAT    EPW22390   0.649   1.928   4.296  0.5918 -0.4542  0.1526
 5418WAT      O22391   6.860   0.110   5.420  0.3388  0.3433  0.1817
 5418WAT     H122392   6.800   0.169   5.395  1.0245  1.5767  1.2986
 5418WAT     H222393   6.825   0.034   5.396  0.1528  1.2518 -2.8767
 5418WAT    EPW22394   6.846   0.107   5.412  0.4126  0.6597 -0.1051
 5419WAT      O22395   6.402   1.487   6.957 -0.8083 -0.0443  0.0992
 5419WAT     H122396   6.476   1.530   6.939 -1.0786  0.2928 -0.2268
 5419WAT     H222397   6.428   1.424   7.012 -0.5177  1.0193  1.2359
 5419WAT    EPW22398   6.417   1.484   6.963 -0.8053  0.1626  0.2190
 5420WAT      O22399   6.772   7.686   5.025 -0.6283  0.7504  0.1130
 5420WAT     H122400   6.787   7.691   5.111  2.1319 -2.1475 -0.0261
 5420WAT     H222401   6.723   7.615   5.017  1.2488 -0.5186 -0.7759
 5420WAT    EPW22402   6.767   7.677   5.037  0.0567  0.1349 -0.0388
 5421WAT      O22403   4.025  -0.004   5.350  0.3445 -0.6637  0.5552
 5421WAT     H122404   3.975   0.019   5.418  0.3938 -0.5217  0.5438
 5421WAT     H222405   4.043   0.072   5.312  1.5722 -0.5810  1.2444
 5421WAT    EPW22406   4.020   0.010   5.355  0.5331 -0.6305  0.6553
 5422WAT      O22407   1.510   0.799   3.462 -0.1350 -0.1967  0.3027
 5422WAT     H122408   1.423   0.810   3.457  0.0110  1.0152  0.1059
 5422WAT     H222409   1.534   0.854   3.525  0.4059 -1.1474  0.9512
 5422WAT    EPW22410   1.500   0.809   3.471 -0.0336 -0.1581  0.3694
 5423WAT      O22411   4.914   1.436   5.381 -0.2370 -0.1733 -0.1633
 5423WAT     H122412   4.828   1.433   5.368 -0.2315 -0.7310 -0.0658
 5423WAT     H222413   4.947   1.418   5.302 -0.1963  1.3997 -0.5413
 5423WAT    EPW22414   4.906   1.433   5.367 -0.2301 -0.0234 -0.2047
 5424WAT      O22415   7.088   2.168   7.840 -0.2369  0.9409  0.0549
 5424WAT     H122416   7.153   2.143   7.787 -0.2804  0.3301  0.2869
 5424WAT     H222417   7.105   2.127   7.915 -2.0203 -0.9356 -0.4899
 5424WAT    EPW22418   7.100   2.158   7.843 -0.5068  0.5735  0.0087
 5425WAT      O22419   6.720   1.050   6.898 -0.1026  0.1543  0.2674
 5425WAT     H122420   6.736   1.110   6.960 -0.3413 -0.2556  0.7324
 5425WAT     H222421   6.769   1.077   6.831  1.0531 -0.0111  1.0132
 5425WAT    EPW22422   6.730   1.063   6.897  0.0329  0.0693  0.4463
 5426WAT      O22423   5.134   1.516   2.969 -0.1760  0.4449  0.3428
 5426WAT     H122424   5.067   1.558   2.933 -0.3211  0.0786  0.1828
 5426WAT     H222425   5.183   1.492   2.901 -0.1969  0.1804  0.4198
 5426WAT    EPW22426   5.131   1.518   2.954 -0.2005  0.3517  0.3306
 5427WAT      O22427   1.414   6.367   7.027 -0.3280 -0.3735 -0.9724
 5427WAT     H122428   1.500   6.378   7.036 -0.4222  0.6231 -1.2273
 5427WAT     H222429   1.403   6.282   7.046  0.5063 -0.1922  0.5302
 5427WAT    EPW22430   1.425   6.356   7.031 -0.2187 -0.1995 -0.7881
 5428WAT      O22431   5.315   2.226   4.370 -0.3054  0.0628 -0.1299
 5428WAT     H122432   5.298   2.295   4.320  0.7152 -0.6426 -1.5321
 5428WAT     H222433   5.382   2.252   4.420 -1.1557  0.6853  0.7050
 5428WAT    EPW22434   5.323   2.240   4.370 -0.2802  0.0505 -0.2137
 5429WAT      O22435   5.098   4.959   3.968 -0.5203  0.0947  0.0654
 5429WAT     H122436   5.151   5.024   3.944 -0.6154  0.1814  0.0931
 5429WAT     H222437   5.052   4.994   4.034 -0.2573 -0.1395  0.3793
 5429WAT    EPW22438   5.099   4.974   3.974 -0.4955  0.0729  0.1158
 5430WAT      O22439   3.603   1.753   4.184 -0.0083 -0.1894 -0.3994
 5430WAT     H122440   3.588   1.799   4.111  2.0964  0.2332 -0.6254
 5430WAT     H222441   3.538   1.778   4.237 -1.1450  0.0772 -1.8378
 5430WAT    EPW22442   3.591   1.764   4.181  0.1347 -0.0876 -0.6453
 5431WAT      O22443   4.840   3.535   2.740 -0.0724  0.0389 -0.1051
 5431WAT     H122444   4.843   3.616   2.707 -2.2975 -0.1468 -0.8693
 5431WAT     H222445   4.768   3.534   2.788  0.6191 -1.1420  0.9907
 5431WAT    EPW22446   4.830   3.547   2.742 -0.2990 -0.1630 -0.0561
 5432WAT      O22447   4.269   0.231   5.514 -0.5405  0.0811  0.4406
 5432WAT     H122448   4.314   0.229   5.440  0.3853  1.9629  0.8866
 5432WAT     H222449   4.186   0.237   5.488 -0.3506 -0.8914 -0.4142
 5432WAT    EPW22450   4.264   0.232   5.499 -0.3757  0.2154  0.3802
 5433WAT      O22451   5.088   3.583   4.658  0.1900  0.4574  0.2305
 5433WAT     H122452   5.090   3.515   4.603 -0.0278  0.5915  0.0583
 5433WAT     H222453   5.098   3.545   4.736  0.4011  0.2575  0.1123
 5433WAT    EPW22454   5.090   3.567   4.661  0.1890  0.4477  0.1876
 5434WAT      O22455   5.267   1.565   4.473  0.0782 -0.0639 -0.1123
 5434WAT     H122456   5.347   1.532   4.486 -0.1404 -1.3618 -1.6113
 5434WAT     H222457   5.233   1.510   4.414 -1.3768  1.3146 -0.6187
 5434WAT    EPW22458   5.274   1.552   4.466 -0.1690 -0.0520 -0.4086
 5435WAT      O22459   0.837   1.156   5.972 -1.0130  0.3174  0.7142
 5435WAT     H122460   0.916   1.131   5.946 -1.2427  1.0806 -0.8413
 5435WAT     H222461   0.834   1.131   6.055  0.7832  0.0959  0.7544
 5435WAT    EPW22462   0.848   1.149   5.980 -0.7816  0.3974  0.4904
 5436WAT      O22463   2.455   0.345   5.900  0.6422 -0.1616  0.3500
 5436WAT     H122464   2.417   0.340   5.978 -0.2671  0.2897 -0.0534
 5436WAT     H222465   2.437   0.267   5.864 -3.9317  1.4315 -1.5949
 5436WAT    EPW22466   2.447   0.333   5.906 -0.1678  0.1404  0.0031
 5437WAT      O22467   7.588   5.602   4.846 -0.4087 -0.1905 -0.6768
 5437WAT     H122468   7.671   5.625   4.859  0.1025 -1.9430 -0.5265
 5437WAT     H222469   7.571   5.550   4.914 -2.0543  1.1358 -0.0295
 5437WAT    EPW22470   7.598   5.597   4.858 -0.5763 -0.2535 -0.5589
 5438WAT      O22471   6.339   6.334   1.570 -0.2025  0.3906  0.4416
 5438WAT     H122472   6.279   6.344   1.633  0.2887  0.6825  0.8713
 5438WAT     H222473   6.400   6.394   1.590 -0.4017  1.0268 -0.7519
 5438WAT    EPW22474   6.339   6.345   1.582 -0.1594  0.5277  0.3288
 5439WAT      O22475   5.640   1.857   5.602 -0.0028 -0.6735 -0.2000
 5439WAT     H122476   5.582   1.827   5.660 -1.1184  0.2431 -0.7946
 5439WAT     H222477   5.693   1.906   5.651  1.1797 -2.6012  0.5876
 5439WAT    EPW22478   5.639   1.860   5.618  0.0071 -0.8228 -0.1715
 5440WAT      O22479   1.622   0.270   1.812 -0.3874 -0.3566 -0.1149
 5440WAT     H122480   1.565   0.207   1.797 -1.1834  0.4945 -0.7766
 5440WAT     H222481   1.622   0.317   1.738  0.8231 -0.0700  0.0321
 5440WAT    EPW22482   1.614   0.268   1.799 -0.3262 -0.1886 -0.1910
 5441WAT      O22483   1.607   4.119   4.408  0.1269  0.5433  0.3148
 5441WAT     H122484   1.640   4.148   4.332  0.9852 -1.0623  0.0197
 5441WAT     H222485   1.677   4.113   4.459 -0.0176 -0.7931  0.3969
 5441WAT    EPW22486   1.623   4.122   4.404  0.2324  0.1087  0.2833
 5442WAT      O22487   1.490   5.881   4.728  0.7308  0.0346 -0.7353
 5442WAT     H122488   1.560   5.930   4.746  0.1741  0.4361  0.4590
 5442WAT     H222489   1.425   5.922   4.769 -0.3764  0.1187 -2.4941
 5442WAT    EPW22490   1.491   5.894   4.737  0.4850  0.1063 -0.8187
 5443WAT      O22491   6.861   1.887   6.479 -0.0331 -0.5919  0.4827
 5443WAT     H122492   6.854   1.828   6.415  0.3384  0.0943 -0.2117
 5443WAT     H222493   6.825   1.847   6.548 -0.0493 -1.5109 -0.0409
 5443WAT    EPW22494   6.855   1.872   6.480  0.0194 -0.6263  0.3028
 5444WAT      O22495   2.996   0.907   1.714  0.4905 -0.0107 -0.3076
 5444WAT     H122496   3.082   0.892   1.726  0.5377  0.0860 -0.5221
 5444WAT     H222497   2.965   0.828   1.692  0.2446 -0.3886  1.3039
 5444WAT    EPW22498   3.004   0.893   1.712  0.4612 -0.0522 -0.1012
 5445WAT      O22499   4.407   4.224   5.420  0.1154 -0.2991  0.0101
 5445WAT     H122500   4.370   4.233   5.499 -0.5844  1.4348 -0.4682
 5445WAT     H222501   4.338   4.223   5.366  0.6394  3.4725 -0.9437
 5445WAT    EPW22502   4.391   4.225   5.424  0.0895  0.5142 -0.2014
 5446WAT      O22503   3.771   3.411   0.941  0.5637 -0.6125 -0.7028
 5446WAT     H122504   3.730   3.423   0.865  0.1391  0.2399 -0.3472
 5446WAT     H222505   3.722   3.352   0.982 -0.4300  0.5204 -0.2126
 5446WAT    EPW22506   3.758   3.404   0.936  0.3542 -0.3192 -0.5779
 5447WAT      O22507   5.917   5.310   2.563  0.2157  0.1162 -0.5993
 5447WAT     H122508   5.841   5.327   2.523 -0.0285  0.7769  0.1185
 5447WAT     H222509   5.938   5.230   2.535 -0.4336  0.1783 -1.2826
 5447WAT    EPW22510   5.909   5.301   2.553  0.0837  0.2230 -0.5942
 5448WAT      O22511   7.157   1.737   7.203 -0.2196 -0.1275 -0.2476
 5448WAT     H122512   7.208   1.761   7.270 -0.6769 -0.2327  0.1449
 5448WAT     H222513   7.111   1.670   7.235 -0.5059 -0.1223 -0.6386
 5448WAT    EPW22514   7.158   1.731   7.218 -0.3295 -0.1422 -0.2473
 5449WAT      O22515   2.253   5.287   1.087 -0.6710  0.1605 -0.2773
 5449WAT     H122516   2.274   5.277   1.171 -0.3222  1.6945 -0.1499
 5449WAT     H222517   2.166   5.282   1.087 -0.6192 -1.0096 -0.0186
 5449WAT    EPW22518   2.243   5.285   1.099 -0.6118  0.2142 -0.2202
 5450WAT      O22519   2.591   3.456   5.034 -0.1429  0.4548 -0.3565
 5450WAT     H122520   2.530   3.425   4.979  0.1869  1.1088 -1.1017
 5450WAT     H222521   2.562   3.431   5.112 -0.9086 -0.0185 -0.7790
 5450WAT    EPW22522   2.577   3.448   5.037 -0.2073  0.4815 -0.5290
 5451WAT      O22523   0.805   2.758   6.039  0.4845  0.2182  0.2622
 5451WAT     H122524   0.821   2.683   5.997  0.0062 -0.2735  0.9464
 5451WAT     H222525   0.885   2.788   6.058  0.6752 -0.2276  0.1734
 5451WAT    EPW22526   0.819   2.752   6.036  0.4420  0.0797  0.3501
 5452WAT      O22527   4.778   2.566   4.834  0.5343 -0.5437 -0.1843
 5452WAT     H122528   4.760   2.650   4.845  1.3317 -0.4777  0.6400
 5452WAT     H222529   4.707   2.525   4.865  1.1890 -0.2409  1.8520
 5452WAT    EPW22530   4.765   2.572   4.840  0.7488 -0.4892  0.2383
 5453WAT      O22531   6.981   3.554   5.464  0.1144 -0.6917  0.7135
 5453WAT     H122532   6.972   3.478   5.422  2.2033 -0.7765  0.2950
 5453WAT     H222533   7.048   3.592   5.423 -0.0947  0.8374  1.7047
 5453WAT    EPW22534   6.989   3.549   5.452  0.3921 -0.4784  0.7981
 5454WAT      O22535   6.652   2.107   7.095  0.8955 -0.0955  0.6505
 5454WAT     H122536   6.728   2.081   7.060  0.4355 -0.8574  0.1835
 5454WAT     H222537   6.596   2.043   7.072  0.7060 -1.0554  3.3945
 5454WAT    EPW22538   6.655   2.093   7.086  0.7996 -0.3498  0.9869
 5455WAT      O22539   0.779   1.486   5.294  0.0904 -0.1594 -0.0652
 5455WAT     H122540   0.790   1.400   5.293  0.3427 -0.1306 -1.4105
 5455WAT     H222541   0.849   1.515   5.337  1.4761 -0.4783 -1.9817
 5455WAT    EPW22542   0.791   1.478   5.301  0.3323 -0.2023 -0.5470
 5456WAT      O22543   0.930   3.704   6.002 -0.2171  0.5173 -0.1853
 5456WAT     H122544   0.934   3.621   5.975 -1.6670 -0.4243  2.1731
 5456WAT     H222545   0.847   3.726   5.986 -0.1597  1.0899  0.2926
 5456WAT    EPW22546   0.918   3.695   5.996 -0.4228  0.4628  0.2337
 5457WAT      O22547   6.337   5.643   4.819  0.4165  0.0180  0.1078
 5457WAT     H122548   6.385   5.705   4.780  2.0649 -0.7449  0.8347
 5457WAT     H222549   6.258   5.680   4.827  1.7046  2.6808  1.9180
 5457WAT    EPW22550   6.332   5.658   4.814  0.8503  0.2987  0.4826
 5458WAT      O22551   2.170   1.283   3.696 -0.2475 -0.6995  0.1687
 5458WAT     H122552   2.087   1.269   3.719 -0.8880  2.3965  0.1173
 5458WAT     H222553   2.168   1.287   3.609  0.2841 -2.0785  0.0635
 5458WAT    EPW22554   2.158   1.281   3.687 -0.2635 -0.4459  0.1456
 5459WAT      O22555   1.241   2.309   4.684 -0.2685  0.6468  0.2587
 5459WAT     H122556   1.278   2.245   4.731  0.2837  0.6012 -0.2254
 5459WAT     H222557   1.308   2.343   4.640 -0.5410  1.6616  0.6203
 5459WAT    EPW22558   1.256   2.304   4.684 -0.2272  0.7900  0.2406
 5460WAT      O22559   6.415   1.934   5.964  0.2476  0.2099 -0.4544
 5460WAT     H122560   6.411   2.020   5.950 -1.0336  0.3073  0.3291
 5460WAT     H222561   6.373   1.900   5.896  0.8486  0.1915 -0.8199
 5460WAT    EPW22562   6.408   1.942   5.952  0.1471  0.2216 -0.3927
 5461WAT      O22563   7.712   1.324   0.013 -0.0927  0.0812  0.9676
 5461WAT     H122564   7.723   1.352   0.095  2.0711 -0.5768  0.9672
 5461WAT     H222565   7.723   1.397  -0.034 -2.3796  0.6840  1.2124
 5461WAT    EPW22566   7.715   1.339   0.018 -0.1109  0.0731  1.0037
 5462WAT      O22567   6.664   7.655   6.328  0.1632  0.8490 -0.0134
 5462WAT     H122568   6.620   7.727   6.348 -1.0790 -0.0860  0.7595
 5462WAT     H222569   6.640   7.637   6.246  0.4635  1.2963 -0.2004
 5462WAT    EPW22570   6.654   7.663   6.319  0.0241  0.7770  0.0731
 5463WAT      O22571   5.547   2.910   2.432 -0.0838 -0.5573  0.3693
 5463WAT     H122572   5.485   2.901   2.493  0.2940 -0.1380  0.8326
 5463WAT     H222573   5.544   2.995   2.413 -0.0010 -0.6336  0.0099
 5463WAT    EPW22574   5.537   2.921   2.438 -0.0157 -0.5066  0.3847
 5464WAT      O22575   4.476   0.917   0.653  0.2936  0.2394  0.1027
 5464WAT     H122576   4.392   0.912   0.632  0.1050  1.5164  0.4796
 5464WAT     H222577   4.475   0.943   0.736  1.0519 -2.2167  0.9521
 5464WAT    EPW22578   4.464   0.920   0.662  0.3778  0.0653  0.2839
 5465WAT      O22579   1.064   4.026   3.486 -0.2748  0.1728 -0.4713
 5465WAT     H122580   1.044   4.111   3.493  2.4479  0.9795 -1.3647
 5465WAT     H222581   1.120   4.024   3.419  0.9233 -2.1122  0.5201
 5465WAT    EPW22582   1.069   4.039   3.477  0.3044 -0.0455 -0.4568
 5466WAT      O22583   4.129   3.677   1.766 -0.1980  0.8049 -0.6183
 5466WAT     H122584   4.100   3.596   1.777 -2.1528  1.6105  0.6437
 5466WAT     H222585   4.209   3.675   1.802 -1.3700  0.0943  2.1911
 5466WAT    EPW22586   4.137   3.665   1.773 -0.6599  0.8189 -0.0169
 5467WAT      O22587   7.185   0.949   6.008  0.9334  0.2813  0.3660
 5467WAT     H122588   7.145   0.993   6.071  1.1155 -0.6607  1.1655
 5467WAT     H222589   7.167   0.865   6.026  0.0446  0.0256 -1.4733
 5467WAT    EPW22590   7.177   0.943   6.020  0.8290  0.1044  0.2124
 5468WAT      O22591   1.225   7.411   6.164  0.1616  0.6812  0.2011
 5468WAT     H122592   1.148   7.442   6.193 -1.1130 -2.2246  0.2394
 5468WAT     H222593   1.269   7.393   6.237 -0.7785 -1.3431  0.3245
 5468WAT    EPW22594   1.220   7.413   6.179 -0.1656 -0.0471  0.2250
 5469WAT      O22595   4.523   6.763   1.917 -0.9877 -0.8720 -0.3466
 5469WAT     H122596   4.546   6.773   2.000 -0.7821 -3.3036 -0.0393
 5469WAT     H222597   4.573   6.821   1.874 -2.0401  1.3810  1.2671
 5469WAT    EPW22598   4.534   6.773   1.923 -1.1128 -0.8984 -0.0629
 5470WAT      O22599   4.214   2.498   5.639 -0.7059  0.1225 -0.2089
 5470WAT     H122600   4.300   2.510   5.634 -0.5304 -0.8772  0.1452
 5470WAT     H222601   4.196   2.450   5.568 -0.9842  0.3377 -0.2884
 5470WAT    EPW22602   4.224   2.493   5.628 -0.7211  0.0066 -0.1683
 5471WAT      O22603   4.876   1.991   5.916  0.3175  0.1375 -0.1723
 5471WAT     H122604   4.864   1.930   5.855 -0.3582 -1.5542  1.5273
 5471WAT     H222605   4.960   1.982   5.937 -0.0200 -0.9948  0.7968
 5471WAT    EPW22606   4.886   1.980   5.910  0.1678 -0.2797  0.2220
 5472WAT      O22607   4.291   6.157   4.996 -0.1000  0.8637 -0.0258
 5472WAT     H122608   4.361   6.123   5.035 -0.5437  1.1582  1.0768
 5472WAT     H222609   4.294   6.241   5.019 -1.0136  0.8048  0.3579
 5472WAT    EPW22610   4.302   6.164   5.005 -0.3005  0.8985  0.1938
 5473WAT      O22611   7.173   7.119   6.973 -0.5161  0.6966 -0.2003
 5473WAT     H122612   7.176   7.032   6.963  2.5189  0.4958  1.2522
 5473WAT     H222613   7.110   7.144   6.918 -2.1923 -2.4667  0.0265
 5473WAT    EPW22614   7.164   7.110   6.964 -0.3154  0.1997  0.0478
 5474WAT      O22615   7.518   6.249   6.229  0.0609 -0.2604 -0.1858
 5474WAT     H122616   7.474   6.322   6.207  0.9008 -0.3148 -2.2852
 5474WAT     H222617   7.599   6.278   6.243 -0.1319 -0.4725  1.4949
 5474WAT    EPW22618   7.523   6.264   6.228  0.1565 -0.2998 -0.2477
 5475WAT      O22619   4.550   2.839   4.201  0.5635  0.1831 -0.0486
 5475WAT     H122620   4.497   2.868   4.265 -1.4367  1.6483 -2.1838
 5475WAT     H222621   4.510   2.766   4.173 -1.1245  1.8249 -2.3347
 5475WAT    EPW22622   4.536   2.833   4.207  0.0187  0.6421 -0.7017
 5476WAT      O22623   6.056   2.680   6.043 -0.2555 -0.5665  0.1573
 5476WAT     H122624   6.053   2.744   5.984 -0.9703 -1.2092 -0.5401
 5476WAT     H222625   6.032   2.609   5.997  1.8183 -1.6047  0.5403
 5476WAT    EPW22626   6.052   2.679   6.027 -0.0547 -0.8148  0.1108
 5477WAT      O22627   4.324   0.314   6.161  0.0027 -0.0789 -0.2448
 5477WAT     H122628   4.326   0.367   6.230  0.2563 -0.7027  0.2381
 5477WAT     H222629   4.408   0.300   6.142 -0.0621 -0.1126 -0.5213
 5477WAT    EPW22630   4.337   0.320   6.168  0.0306 -0.1760 -0.2143
 5478WAT      O22631   6.611   3.263   4.575  0.1516 -0.0408  0.0474
 5478WAT     H122632   6.618   3.314   4.504 -0.8886  0.4371  0.2771
 5478WAT     H222633   6.597   3.320   4.640 -1.2484 -0.6165  0.2776
 5478WAT    EPW22634   6.610   3.279   4.574 -0.2089 -0.0553  0.1153
 5479WAT      O22635   2.632   4.227   5.621  0.5496 -0.4979  0.1831
 5479WAT     H122636   2.598   4.235   5.541  0.6853  1.2975  0.2671
 5479WAT     H222637   2.696   4.169   5.610 -1.1177 -2.3355 -0.4092
 5479WAT    EPW22638   2.637   4.220   5.608  0.3234 -0.5042  0.1080
 5480WAT      O22639   5.543   0.692   4.674 -0.3983  0.3180 -0.2276
 5480WAT     H122640   5.498   0.628   4.635  1.7732 -0.8317 -1.0776
 5480WAT     H222641   5.589   0.727   4.609  2.1438 -0.5945  0.9434
 5480WAT    EPW22642   5.543   0.687   4.659  0.2980  0.0134 -0.1802
 5481WAT      O22643   0.513   5.416   4.342  0.6301 -0.5138 -0.4704
 5481WAT     H122644   0.433   5.383   4.334  0.0983  0.9152 -1.4440
 5481WAT     H222645   0.508   5.468   4.411  0.4398  0.2906 -1.0781
 5481WAT    EPW22646   0.501   5.419   4.351  0.5234 -0.1839 -0.7040
 5482WAT      O22647   5.362   2.424   0.304 -0.2264  0.6392 -0.1512
 5482WAT     H122648   5.439   2.383   0.303 -1.2793 -1.5041 -0.3697
 5482WAT     H222649   5.337   2.417   0.388 -1.0551 -0.5508 -0.4674
 5482WAT    EPW22650   5.369   2.417   0.316 -0.5043  0.1468 -0.2302
 5483WAT      O22651   1.348   2.996   0.657  0.1033 -0.5526 -0.3655
 5483WAT     H122652   1.433   3.013   0.656  0.0267 -0.0288  0.8196
 5483WAT     H222653   1.345   2.909   0.667  0.5269 -0.4678  0.6997
 5483WAT    EPW22654   1.360   2.985   0.659  0.1545 -0.4627 -0.0331
 5484WAT      O22655   3.555   5.124   6.269 -0.4431  0.9022 -0.3378
 5484WAT     H122656   3.586   5.201   6.295 -1.4329  0.7884  1.2592
 5484WAT     H222657   3.474   5.141   6.243 -1.2241  0.1887  1.4908
 5484WAT    EPW22658   3.548   5.138   6.269 -0.7047  0.7800  0.1683
 5485WAT      O22659   1.315   2.234   5.331 -0.3914  0.3794 -0.0029
 5485WAT     H122660   1.377   2.176   5.351 -1.0188 -0.9844 -1.6776
 5485WAT     H222661   1.262   2.232   5.401  1.8090  2.2669  1.8678
 5485WAT    EPW22662   1.316   2.225   5.344 -0.1590  0.4567  0.0260
 5486WAT      O22663   6.126   2.340   5.411 -0.8901 -0.2438  0.2480
 5486WAT     H122664   6.190   2.324   5.354  0.2433 -0.0815  1.4494
 5486WAT     H222665   6.074   2.269   5.403  0.0172 -0.9005  0.0347
 5486WAT    EPW22666   6.128   2.327   5.401 -0.5886 -0.3168  0.3940
 5487WAT      O22667   4.964   3.406   7.361  0.6912  0.4058  0.3531
 5487WAT     H122668   4.902   3.468   7.356  0.5682  0.4307  1.7747
 5487WAT     H222669   4.979   3.385   7.278 -1.3529  0.2894 -0.0367
 5487WAT    EPW22670   4.957   3.412   7.348  0.3711  0.3923  0.5055
 5488WAT      O22671   7.075   2.416   5.936  0.1632  0.2105  0.0956
 5488WAT     H122672   7.008   2.470   5.944 -0.9108 -0.6129 -2.2954
 5488WAT     H222673   7.111   2.415   6.016 -1.9354  1.5914  1.1457
 5488WAT    EPW22674   7.071   2.424   5.949 -0.3055  0.2928 -0.1025
 5489WAT      O22675   7.203   0.711   5.785 -0.8396 -0.3512 -0.4110
 5489WAT     H122676   7.204   0.798   5.773  0.3463 -0.4354 -1.0261
 5489WAT     H222677   7.128   0.686   5.747 -1.4479  0.4467  0.2186
 5489WAT    EPW22678   7.192   0.720   5.778 -0.7543 -0.2458 -0.4089
 5490WAT      O22679   4.947   2.176   2.146 -0.4461 -0.0312 -0.0841
 5490WAT     H122680   4.917   2.253   2.118 -2.4780 -1.3324 -1.7252
 5490WAT     H222681   4.938   2.182   2.233 -0.2127  1.6859 -0.1358
 5490WAT    EPW22682   4.941   2.189   2.155 -0.7118  0.0302 -0.3342
 5491WAT      O22683   5.220   2.454   4.231  0.1949 -0.0396  0.0159
 5491WAT     H122684   5.198   2.454   4.147 -0.2594 -1.4066  0.1024
 5491WAT     H222685   5.150   2.489   4.271 -0.1944 -0.6992 -0.0662
 5491WAT    EPW22686   5.206   2.459   4.225  0.0703 -0.3390  0.0166
 5492WAT      O22687   4.589   1.587   6.853  0.5952 -0.2502  0.1844
 5492WAT     H122688   4.638   1.611   6.785 -1.0244 -0.1006 -1.0040
 5492WAT     H222689   4.617   1.639   6.918  0.8748  1.0116 -0.8991
 5492WAT    EPW22690   4.600   1.598   6.852  0.3973 -0.0417 -0.1512
 5493WAT      O22691   0.189   2.751   0.285  0.6475 -0.9775  0.3801
 5493WAT     H122692   0.139   2.691   0.324 -0.7439 -0.3398 -0.3306
 5493WAT     H222693   0.157   2.755   0.204  1.5811 -0.2225  0.0218
 5493WAT    EPW22694   0.177   2.743   0.279  0.5799 -0.7718  0.2222
 5494WAT      O22695   0.544   4.696   5.811 -0.3686  0.2384  0.1667
 5494WAT     H122696   0.543   4.782   5.826  0.5655  0.3250 -0.2094
 5494WAT     H222697   0.601   4.688   5.746  0.3299 -0.7754  0.8851
 5494WAT    EPW22698   0.553   4.708   5.804 -0.1274  0.1015  0.2173
 5495WAT      O22699   3.596   2.386   4.084  0.1409 -0.0534 -0.2144
 5495WAT     H122700   3.527   2.395   4.031 -0.9941 -1.0470  1.0460
 5495WAT     H222701   3.602   2.464   4.123 -0.5526 -0.1020 -0.0050
 5495WAT    EPW22702   3.587   2.399   4.082 -0.1292 -0.2074  0.0027
 5496WAT      O22703   6.818   3.495   4.992  0.0481  0.0587 -0.1270
 5496WAT     H122704   6.825   3.555   5.055 -1.4053  1.0825 -0.8918
 5496WAT     H222705   6.830   3.540   4.919  0.8945 -0.9663 -0.6409
 5496WAT    EPW22706   6.821   3.511   4.991 -0.0415  0.0585 -0.3159
 5497WAT      O22707   2.439   0.142   5.006 -0.3017 -0.1592 -0.1616
 5497WAT     H122708   2.509   0.096   4.982  0.2655  0.2630  0.6508
 5497WAT     H222709   2.372   0.092   4.979  0.2606  0.2819 -2.5538
 5497WAT    EPW22710   2.439   0.128   4.998 -0.1349 -0.0317 -0.3950
 5498WAT      O22711   5.992   7.085   0.358 -0.2490 -0.4118  0.2482
 5498WAT     H122712   6.061   7.032   0.358  0.0746 -0.1838 -3.4070
 5498WAT     H222713   5.926   7.034   0.333 -0.7671  0.0969  0.5388
 5498WAT    EPW22714   5.993   7.070   0.355 -0.2777 -0.3030 -0.2488
 5499WAT      O22715   3.874   3.840   6.931 -0.5056  0.1893 -0.5378
 5499WAT     H122716   3.822   3.770   6.928 -1.2141  0.7154 -0.6981
 5499WAT     H222717   3.860   3.879   6.855  0.3445  0.1998 -0.7063
 5499WAT    EPW22718   3.864   3.835   6.919 -0.4847  0.2685 -0.5863
 5500WAT      O22719   5.168   2.052   5.579  0.4006 -0.3752  0.0836
 5500WAT     H122720   5.158   2.123   5.528 -2.2326 -1.4288 -1.0466
 5500WAT     H222721   5.205   2.084   5.651 -1.3711  2.3355 -0.0501
 5500WAT    EPW22722   5.172   2.067   5.582 -0.2501 -0.1304 -0.1031
 5501WAT      O22723   4.984   0.382   3.396 -0.0155  0.4322  0.3773
 5501WAT     H122724   4.904   0.394   3.427  0.0911  0.0620  0.8023
 5501WAT     H222725   4.984   0.426   3.320 -1.1861 -1.0617 -0.5388
 5501WAT    EPW22726   4.972   0.390   3.389 -0.1727  0.1568  0.3048
 5502WAT      O22727   5.655   3.872   3.295  0.1405  0.0092 -0.1057
 5502WAT     H122728   5.678   3.899   3.374 -0.3586 -0.4392  0.2015
 5502WAT     H222729   5.710   3.914   3.242 -0.3656  1.3363  0.3693
 5502WAT    EPW22730   5.667   3.882   3.299 -0.0080  0.1390  0.0099
 5503WAT      O22731   6.849   6.826   0.747 -0.6111 -0.2664  0.0241
 5503WAT     H122732   6.930   6.823   0.715 -0.1320  1.0694  1.0282
 5503WAT     H222733   6.857   6.793   0.827 -0.8721  0.6617  0.4445
 5503WAT    EPW22734   6.862   6.821   0.754 -0.5789  0.0680  0.2345
 5504WAT      O22735   3.770   0.378   3.437 -0.2007 -0.5451 -0.1014
 5504WAT     H122736   3.827   0.362   3.501 -1.1981 -1.1883  0.6515
 5504WAT     H222737   3.750   0.298   3.408  1.1286 -0.2317 -2.0500
 5504WAT    EPW22738   3.775   0.364   3.442 -0.1517 -0.5938 -0.2781
 5505WAT      O22739   3.978   2.306   4.573  0.2789 -0.5491  0.0634
 5505WAT     H122740   3.968   2.359   4.641 -1.6047  0.8236 -1.1673
 5505WAT     H222741   4.063   2.309   4.556  0.8525 -1.1790  2.4770
 5505WAT    EPW22742   3.989   2.314   4.580  0.0854 -0.4394  0.2381
 5506WAT      O22743   1.267   5.507   5.316 -0.0233 -0.1165  0.3958
 5506WAT     H122744   1.342   5.540   5.347 -0.0089 -0.6648  0.9567
 5506WAT     H222745   1.244   5.564   5.254 -0.9059  1.9376  2.4749
 5506WAT    EPW22746   1.275   5.520   5.312 -0.1515  0.1059  0.7858
 5507WAT      O22747   4.188   3.576   5.472 -0.4499 -0.3343  0.2744
 5507WAT     H122748   4.191   3.528   5.400 -1.0766 -0.1574  0.1201
 5507WAT     H222749   4.127   3.636   5.454 -0.7760 -0.4230  1.0277
 5507WAT    EPW22750   4.179   3.578   5.459 -0.5906 -0.3213  0.3629
 5508WAT      O22751   6.194   1.283   5.515  0.6590 -0.2505 -0.3237
 5508WAT     H122752   6.197   1.207   5.558  1.0553  0.0462  0.1843
 5508WAT     H222753   6.276   1.295   5.488  1.3627  1.4300  2.1822
 5508WAT    EPW22754   6.206   1.274   5.517  0.8215  0.0416  0.1215
 5509WAT      O22755   7.750   6.247   4.921  0.1857 -0.1433 -0.2318
 5509WAT     H122756   7.781   6.213   4.995 -0.0518 -0.1892 -0.1515
 5509WAT     H222757   7.719   6.325   4.945  0.5304  0.0394 -0.3733
 5509WAT    EPW22758   7.750   6.254   4.936  0.2015 -0.1231 -0.2408
 5510WAT      O22759   6.030   0.232   1.608 -0.7386  0.0528  0.0210
 5510WAT     H122760   5.996   0.197   1.680  0.2390 -0.3210  0.3205
 5510WAT     H222761   6.044   0.315   1.631 -2.1320  0.4188 -0.3619
 5510WAT    EPW22762   6.027   0.239   1.622 -0.8000  0.0516  0.0087
 5511WAT      O22763   2.073   1.245   0.407  0.2690 -0.3499  0.2849
 5511WAT     H122764   2.075   1.170   0.363 -0.1872  0.2403 -0.7661
 5511WAT     H222765   1.994   1.246   0.444  0.5321 -0.6906  0.8892
 5511WAT    EPW22766   2.062   1.235   0.406  0.2405 -0.3131  0.2189
 5512WAT      O22767   0.691   6.823   4.515 -0.0968 -0.4504 -0.4425
 5512WAT     H122768   0.633   6.760   4.530 -0.3867  0.1599  1.3260
 5512WAT     H222769   0.659   6.865   4.446  0.1645 -2.2603 -1.7235
 5512WAT    EPW22770   0.678   6.820   4.507 -0.1010 -0.6276 -0.3705
 5513WAT      O22771   5.699   3.838   5.631  0.0568 -0.3124 -0.4397
 5513WAT     H122772   5.769   3.870   5.674  0.0871 -0.9354 -0.0168
 5513WAT     H222773   5.718   3.754   5.620 -0.2094 -0.2831 -1.1902
 5513WAT    EPW22774   5.712   3.830   5.636  0.0219 -0.4001 -0.4881
 5514WAT      O22775   3.496   1.962   0.940  0.9779  0.1175 -0.8858
 5514WAT     H122776   3.527   2.044   0.935 -0.0287  0.5458 -0.4920
 5514WAT     H222777   3.419   1.973   0.980  0.0722 -0.8360 -2.3120
 5514WAT    EPW22778   3.489   1.976   0.945  0.6954  0.0399 -1.0383
 5515WAT      O22779   6.784   1.016   6.202 -0.6156 -0.3175 -0.4953
 5515WAT     H122780   6.808   1.085   6.154 -0.9904  1.6960  1.9767
 5515WAT     H222781   6.700   1.005   6.182 -1.0419  1.1453  0.2984
 5515WAT    EPW22782   6.775   1.024   6.192 -0.7339  0.1960 -0.0129
 5516WAT      O22783   3.643   1.514   0.921  0.0749 -0.4068 -0.0144
 5516WAT     H122784   3.726   1.487   0.912  0.2936  0.1009  0.3941
 5516WAT     H222785   3.643   1.593   0.883  0.0328  0.0149  0.8149
 5516WAT    EPW22786   3.655   1.522   0.914  0.1010 -0.2695  0.1685
 5517WAT      O22787   3.406   1.686   5.686  0.1573 -0.4087 -0.3846
 5517WAT     H122788   3.343   1.745   5.674  0.7296  0.5815  1.0975
 5517WAT     H222789   3.376   1.615   5.646 -1.6815  0.1565 -0.1099
 5517WAT    EPW22790   3.393   1.684   5.678 -0.0298 -0.1789 -0.1251
 5518WAT      O22791   6.001   3.431   0.711  0.4014  0.5320 -0.2817
 5518WAT     H122792   6.005   3.372   0.647 -0.3116  0.9364 -0.7100
 5518WAT     H222793   5.916   3.450   0.716  0.3690  0.1331  1.1394
 5518WAT    EPW22794   5.989   3.425   0.703  0.2913  0.5328 -0.1351
 5519WAT      O22795   4.914   7.202   3.796  0.4834 -0.0471  0.4164
 5519WAT     H122796   4.915   7.283   3.828 -1.5544  0.0235  0.4428
 5519WAT     H222797   4.930   7.213   3.711 -2.2853  0.7656 -0.1109
 5519WAT    EPW22798   4.916   7.216   3.788 -0.2266  0.0834  0.3424
 5520WAT      O22799   5.227   1.789   5.550 -0.2533  0.0309  0.1330
 5520WAT     H122800   5.224   1.877   5.553  0.7003  0.0704  0.3209
 5520WAT     H222801   5.148   1.767   5.520  0.1260  1.0681 -1.8700
 5520WAT    EPW22802   5.215   1.799   5.546 -0.0564  0.1899 -0.1351
 5521WAT      O22803   4.146   2.505   6.861  0.1467 -0.0726  0.6277
 5521WAT     H122804   4.226   2.531   6.881 -0.6210  2.8443  0.3729
 5521WAT     H222805   4.117   2.468   6.934  0.9074  1.0363  1.5196
 5521WAT    EPW22806   4.153   2.503   6.875  0.1457  0.5221  0.7218
 5522WAT      O22807   0.059   2.210   4.008 -0.5850  0.1348 -0.4546
 5522WAT     H122808   0.064   2.268   3.943  0.6806  0.3223 -0.2141
 5522WAT     H222809   0.123   2.154   3.991 -0.7471 -0.2609  0.1916
 5522WAT    EPW22810   0.069   2.211   3.996 -0.4220  0.1041 -0.3236
 5523WAT      O22811   4.436   0.783   3.137  0.1625 -0.6277 -0.0009
 5523WAT     H122812   4.365   0.743   3.109 -2.1381  2.0513  1.4546
 5523WAT     H222813   4.452   0.745   3.214  0.5251 -1.4115 -0.4494
 5523WAT    EPW22814   4.428   0.772   3.144 -0.1238 -0.3477  0.1478
 5524WAT      O22815   2.328   3.062   6.728  0.1244 -0.0103 -0.1017
 5524WAT     H122816   2.367   2.986   6.743 -1.3111 -0.6225  0.7801
 5524WAT     H222817   2.330   3.103   6.806 -1.0443 -0.1224  0.0151
 5524WAT    EPW22818   2.334   3.057   6.742 -0.2603 -0.1173  0.0458
 5525WAT      O22819   4.374   1.869   3.852  0.1635  0.1022 -0.5218
 5525WAT     H122820   4.355   1.868   3.767  0.3736  2.6829 -0.6808
 5525WAT     H222821   4.380   1.954   3.871 -0.6119 -0.3596  2.2555
 5525WAT    EPW22822   4.372   1.882   3.842  0.0800  0.4152 -0.1350
 5526WAT      O22823   5.071   0.260   0.262  0.2644 -0.4193  0.3314
 5526WAT     H122824   5.043   0.196   0.314  0.2806 -0.7320 -0.0361
 5526WAT     H222825   5.027   0.330   0.289 -1.7910 -1.1168 -0.9945
 5526WAT    EPW22826   5.060   0.261   0.274 -0.0368 -0.5685  0.0813
 5527WAT      O22827   6.129   5.859   5.244 -0.1672  0.2668  0.3273
 5527WAT     H122828   6.046   5.834   5.238 -0.3839  0.8375  0.8313
 5527WAT     H222829   6.140   5.873   5.330  0.6437 -0.4566  0.3499
 5527WAT    EPW22830   6.118   5.857   5.256 -0.0794  0.2443  0.4051
 5528WAT      O22831   6.252   3.289   4.485  0.1241 -0.0293  0.1304
 5528WAT     H122832   6.304   3.222   4.505  0.3103  0.0384 -0.1231
 5528WAT     H222833   6.284   3.355   4.531 -0.1373 -0.1443  0.4789
 5528WAT    EPW22834   6.264   3.288   4.495  0.1130 -0.0363  0.1445
 5529WAT      O22835   0.247   4.990   4.770 -0.0821 -0.2169  0.4407
 5529WAT     H122836   0.282   4.943   4.834  1.0149 -0.0321  0.0093
 5529WAT     H222837   0.173   4.948   4.751  0.2066 -0.9907  0.9698
 5529WAT    EPW22838   0.241   4.977   4.776  0.1226 -0.3039  0.4551
 5530WAT      O22839   5.073   6.306   3.660 -0.3656 -0.0600  0.3770
 5530WAT     H122840   5.088   6.237   3.610 -1.0648 -1.3347  1.8308
 5530WAT     H222841   5.030   6.361   3.608 -0.4557 -1.0264 -0.6067
 5530WAT    EPW22842   5.069   6.304   3.645 -0.4822 -0.3911  0.4465
 5531WAT      O22843   0.233   5.398   5.802 -0.1462 -0.7902 -0.1188
 5531WAT     H122844   0.167   5.442   5.840 -0.7616 -2.2870  0.6466
 5531WAT     H222845   0.204   5.316   5.800  1.1814 -1.2703 -1.0007
 5531WAT    EPW22846   0.219   5.392   5.807 -0.0410 -1.0823 -0.1360
 5532WAT      O22847   6.081   1.142   2.844 -0.6348 -0.4395  0.0246
 5532WAT     H122848   6.149   1.194   2.828 -1.3741  0.0781 -1.7224
 5532WAT     H222849   6.013   1.197   2.843 -1.1810 -1.0779  0.8266
 5532WAT    EPW22850   6.081   1.158   2.842 -0.8247 -0.4574 -0.1150
 5533WAT      O22851   2.381   0.639   1.657  1.0128  0.4923 -0.0051
 5533WAT     H122852   2.399   0.721   1.633 -0.4463  0.9210  0.2144
 5533WAT     H222853   2.357   0.601   1.582 -1.6477  1.2885  0.3084
 5533WAT    EPW22854   2.380   0.645   1.642  0.4043  0.6732  0.0737
 5534WAT      O22855   5.881   0.644   0.931  0.3118 -0.1444 -0.2684
 5534WAT     H122856   5.854   0.680   0.857 -1.8146 -1.2889 -0.1117
 5534WAT     H222857   5.883   0.558   0.913  0.0890 -0.4108  0.8902
 5534WAT    EPW22858   5.877   0.636   0.917 -0.0352 -0.3528 -0.0741
 5535WAT      O22859   4.290   7.251   5.461  0.7135 -0.5892 -0.0008
 5535WAT     H122860   4.369   7.223   5.437  0.8195 -0.6369  0.3956
 5535WAT     H222861   4.283   7.328   5.421  1.2530 -0.2634  0.5209
 5535WAT    EPW22862   4.301   7.258   5.452  0.8088 -0.5481  0.1348
 5536WAT      O22863   5.844   6.397   4.583 -0.7923 -0.0035  0.0336
 5536WAT     H122864   5.867   6.460   4.638 -1.8044  0.9526 -0.5855
 5536WAT     H222865   5.895   6.411   4.514  0.1165 -0.8834  0.5097
 5536WAT    EPW22866   5.855   6.408   4.581 -0.8076  0.0078  0.0125
 5537WAT      O22867   5.199   3.213   5.040 -0.2745 -0.4248  0.0840
 5537WAT     H122868   5.181   3.180   5.118  1.5381 -0.6366  0.4461
 5537WAT     H222869   5.125   3.199   4.995 -0.7510 -1.8875  1.2274
 5537WAT    EPW22870   5.185   3.206   5.045 -0.0771 -0.6721  0.3064
 5538WAT      O22871   2.750   0.303   7.287  0.0971  0.6269  0.3066
 5538WAT     H122872   2.696   0.235   7.297  0.0863  0.4821 -0.6477
 5538WAT     H222873   2.827   0.273   7.314 -0.0452  0.4387  0.5028
 5538WAT    EPW22874   2.753   0.289   7.292  0.0745  0.5777  0.1946
 5539WAT      O22875   5.764   6.204   4.132 -0.4699  0.2217 -0.0693
 5539WAT     H122876   5.736   6.166   4.205 -0.3930  1.8247  0.8363
 5539WAT     H222877   5.720   6.162   4.069  0.7026 -2.3477  0.6828
 5539WAT    EPW22878   5.753   6.192   4.133 -0.2853  0.0790  0.1756
 5540WAT      O22879   4.594   1.878   2.796 -0.6625  0.2717 -0.8605
 5540WAT     H122880   4.521   1.854   2.753  0.1198 -5.1918  0.1464
 5540WAT     H222881   4.567   1.888   2.878 -0.5266 -0.9470 -0.6404
 5540WAT    EPW22882   4.579   1.876   2.802 -0.5269 -0.7154 -0.6792
 5541WAT      O22883   5.121   3.269   7.105  0.3958 -0.4048 -0.4332
 5541WAT     H122884   5.195   3.314   7.096  0.0561  0.2211 -0.1333
 5541WAT     H222885   5.114   3.225   7.030  1.6254 -1.3146 -0.0545
 5541WAT    EPW22886   5.131   3.269   7.093  0.5273 -0.4467 -0.3330
 5542WAT      O22887   4.571   2.343   5.362  0.5187  0.4420  0.2795
 5542WAT     H122888   4.530   2.281   5.317 -2.1566  2.0008  0.3779
 5542WAT     H222889   4.643   2.358   5.315 -0.3965 -0.4777 -1.4980
 5542WAT    EPW22890   4.576   2.336   5.348 -0.0117  0.5364  0.0314
 5543WAT      O22891   4.395   3.558   4.945 -0.1803 -0.3077  0.2713
 5543WAT     H122892   4.393   3.645   4.952  3.2036 -0.1087  0.5153
 5543WAT     H222893   4.366   3.531   5.023 -0.1503  0.6388  0.6292
 5543WAT    EPW22894   4.390   3.567   4.957  0.3240 -0.1384  0.3602
 5544WAT      O22895   2.153   4.969   7.653 -0.6454  0.3197  0.3296
 5544WAT     H122896   2.216   5.004   7.603 -1.0621  0.5672 -0.0318
 5544WAT     H222897   2.164   5.008   7.730  0.9579 -1.1634  0.9080
 5544WAT    EPW22898   2.164   4.980   7.657 -0.4701  0.1371  0.3617
 5545WAT      O22899   5.121   3.744   6.228  0.0847 -0.0400  0.0913
 5545WAT     H122900   5.123   3.656   6.228  1.6788 -0.0345 -0.2857
 5545WAT     H222901   5.104   3.764   6.145  0.2157 -0.0074  0.0710
 5545WAT    EPW22902   5.119   3.734   6.216  0.3395 -0.0344  0.0326
 5546WAT      O22903   3.315   6.967   2.431 -0.7220 -0.4213 -0.4008
 5546WAT     H122904   3.306   7.024   2.365 -0.0319 -0.1918 -0.2961
 5546WAT     H222905   3.358   6.900   2.394  2.0737  0.8030  0.4111
 5546WAT    EPW22906   3.320   6.965   2.416 -0.2071 -0.2065 -0.2654
 5547WAT      O22907   1.185   0.131   4.569  0.2659 -0.0674 -0.2845
 5547WAT     H122908   1.185   0.204   4.617 -1.0916  1.2289 -2.0987
 5547WAT     H222909   1.248   0.145   4.510  0.0353 -0.3757 -0.6091
 5547WAT    EPW22910   1.194   0.144   4.567  0.0313  0.0785 -0.6005
 5548WAT      O22911   7.516   6.702   5.323  0.2830 -0.4195 -0.7175
 5548WAT     H122912   7.552   6.629   5.355  2.2721  0.8269  0.1067
 5548WAT     H222913   7.430   6.687   5.329  0.6113 -1.9494  1.2157
 5548WAT    EPW22914   7.509   6.689   5.328  0.6253 -0.4614 -0.3102
 5549WAT      O22915   4.688   2.925   3.882  0.2501  0.2604 -0.3091
 5549WAT     H122916   4.632   2.872   3.841  2.1989 -1.7565 -0.5826
 5549WAT     H222917   4.746   2.946   3.819  0.3406  1.5253  0.1690
 5549WAT    EPW22918   4.688   2.920   3.867  0.5513  0.1493 -0.2789
 5550WAT      O22919   0.473   0.507   4.735  0.2671 -0.1627 -0.0212
 5550WAT     H122920   0.400   0.468   4.763  1.8587 -2.4553  1.2778
 5550WAT     H222921   0.486   0.570   4.793  1.1977 -2.1182  2.0588
 5550WAT    EPW22922   0.464   0.510   4.748  0.6397 -0.7903  0.4779
 5551WAT      O22923   6.807   7.667   0.120  0.2008  0.3695  0.2145
 5551WAT     H122924   6.872   7.618   0.153  0.4895  0.4415 -0.2321
 5551WAT     H222925   6.735   7.623   0.142  0.4212  0.1100  0.4278
 5551WAT    EPW22926   6.806   7.653   0.128  0.2760  0.3418  0.1800
 5552WAT      O22927   7.679   6.085   6.946 -0.0362 -0.2803 -0.0230
 5552WAT     H122928   7.761   6.057   6.942  0.0853  0.2236 -1.4982
 5552WAT     H222929   7.686   6.167   6.974  0.3649  1.0812 -3.6099
 5552WAT    EPW22930   7.692   6.093   6.950  0.0410 -0.0048 -0.7708
 5553WAT      O22931   4.715   2.563   5.162  0.8045  0.1315 -0.3423
 5553WAT     H122932   4.674   2.534   5.090 -1.0991 -0.5865  0.9656
 5553WAT     H222933   4.717   2.650   5.151 -2.2779  0.3431  0.0728
 5553WAT    EPW22934   4.710   2.572   5.149  0.0680  0.0567 -0.0878
 5554WAT      O22935   4.301   4.075   4.244 -0.3499  0.0946 -0.3100
 5554WAT     H122936   4.336   4.043   4.171  0.9711  0.9065 -0.0691
 5554WAT     H222937   4.349   4.039   4.307 -1.1879 -0.2415  0.1480
 5554WAT    EPW22938   4.313   4.065   4.242 -0.2786  0.1649 -0.2068
 5555WAT      O22939   5.303   1.004   5.385  0.2690  0.1618  0.5040
 5555WAT     H122940   5.375   0.958   5.368  1.4519  1.1320  2.4456
 5555WAT     H222941   5.274   0.969   5.459 -1.1955 -0.0946 -0.1654
 5555WAT    EPW22942   5.309   0.992   5.394  0.2274  0.2673  0.6919
 5556WAT      O22943   2.407   1.879   4.417  0.0464  0.3049 -0.1705
 5556WAT     H122944   2.351   1.854   4.356  0.0659  0.7849 -0.3895
 5556WAT     H222945   2.375   1.955   4.445 -0.7321 -0.5600  1.4128
 5556WAT    EPW22946   2.394   1.887   4.412 -0.0657  0.2481  0.0311
 5557WAT      O22947   0.227   6.989   4.554  0.1681  0.5082  0.3111
 5557WAT     H122948   0.230   6.902   4.564 -0.8896  0.3766 -0.3339
 5557WAT     H222949   0.302   7.016   4.589  0.4873 -0.6588  0.5866
 5557WAT    EPW22950   0.238   6.980   4.561  0.0590  0.3164  0.2565
 5558WAT      O22951   6.694   4.984   5.137 -0.9056 -0.5686  0.3399
 5558WAT     H122952   6.717   5.051   5.086 -1.8021  1.2637  2.2072
 5558WAT     H222953   6.607   4.982   5.130 -0.9392 -1.0894  0.8462
 5558WAT    EPW22954   6.685   4.993   5.128 -1.0430 -0.3749  0.6905
 5559WAT      O22955   5.253   3.633   5.954  0.4291  0.3235  0.4279
 5559WAT     H122956   5.175   3.594   5.955  0.7354 -0.4782 -1.8416
 5559WAT     H222957   5.309   3.568   5.965  0.9011  0.2013 -2.2000
 5559WAT    EPW22958   5.250   3.618   5.956  0.5441  0.1871 -0.2955
 5560WAT      O22959   7.233   5.445   5.477 -0.0090  0.3609 -0.0860
 5560WAT     H122960   7.172   5.383   5.484 -0.8435  1.1921  0.3863
 5560WAT     H222961   7.195   5.514   5.516  0.1006  1.7301 -2.2603
 5560WAT    EPW22962   7.218   5.446   5.484 -0.1161  0.6859 -0.3374
 5561WAT      O22963   2.098   2.551   3.392  0.3655 -0.2166  0.2293
 5561WAT     H122964   2.139   2.569   3.317 -2.4181  0.1586 -1.3287
 5561WAT     H222965   2.026   2.599   3.389 -1.1381 -2.1505  1.9174
 5561WAT    EPW22966   2.094   2.560   3.381 -0.2678 -0.4468  0.2485
 5562WAT      O22967   6.906   5.045   4.354 -0.5008 -0.5640  0.6002
 5562WAT     H122968   6.910   4.976   4.300 -0.9412  0.3692 -0.6593
 5562WAT     H222969   6.823   5.047   4.379 -0.5836 -0.2448  0.3032
 5562WAT    EPW22970   6.895   5.035   4.349 -0.5781 -0.3790  0.3703
 5563WAT      O22971   5.914   1.615   7.319  0.0868  0.0504 -0.2980
 5563WAT     H122972   5.982   1.658   7.355 -1.4579  1.1752  1.5065
 5563WAT     H222973   5.895   1.554   7.378 -1.7105  1.1007  0.3119
 5563WAT    EPW22974   5.921   1.612   7.333 -0.4069  0.3717  0.0587
 5564WAT      O22975   0.981   0.858   3.650 -0.1413 -0.3818 -0.4425
 5564WAT     H122976   0.899   0.827   3.653  0.4445 -1.9057  0.9311
 5564WAT     H222977   0.970   0.943   3.667 -1.3615 -0.7909  1.1010
 5564WAT    EPW22978   0.967   0.866   3.653 -0.2350 -0.6674 -0.0116
 5565WAT      O22979   2.312   5.260   0.364  0.8506 -0.5966  0.5388
 5565WAT     H122980   2.342   5.336   0.334 -2.1832  1.1669  1.4600
 5565WAT     H222981   2.262   5.284   0.432 -1.8663 -3.1425 -0.3682
 5565WAT    EPW22982   2.309   5.275   0.370  0.0011 -0.7122  0.5409
 5566WAT      O22983   1.944   1.232   6.462 -0.4889 -0.1620 -0.0560
 5566WAT     H122984   1.946   1.228   6.375  1.4315 -0.9710 -0.0342
 5566WAT     H222985   1.985   1.159   6.487 -0.6383  0.2500  1.5224
 5566WAT    EPW22986   1.950   1.220   6.453 -0.2273 -0.2207  0.1804
 5567WAT      O22987   6.911   2.504   3.698  0.0970 -0.4852  0.0599
 5567WAT     H122988   6.956   2.574   3.672 -0.9262 -0.7210 -2.6951
 5567WAT     H222989   6.866   2.532   3.767 -0.7136  1.7770 -1.2988
 5567WAT    EPW22990   6.911   2.519   3.704 -0.1739 -0.1859 -0.5478
 5568WAT      O22991   4.665   3.995   4.204  0.3634  0.1466 -0.2119
 5568WAT     H122992   4.675   3.970   4.287 -1.2402  0.2758  0.0574
 5568WAT     H222993   4.629   4.075   4.211  1.8756  0.9551 -1.0559
 5568WAT    EPW22994   4.661   4.003   4.218  0.3499  0.2851 -0.2968
 5569WAT      O22995   1.681   3.749   3.291  0.1590  0.9261  0.5110
 5569WAT     H122996   1.629   3.758   3.361  0.4986  0.7402  0.7887
 5569WAT     H222997   1.747   3.803   3.308  1.5339 -0.9617  1.5409
 5569WAT    EPW22998   1.683   3.759   3.304  0.4123  0.6198  0.7041
 5570WAT      O22999   1.554   2.018   6.368  0.1046  0.1690  0.0394
 5570WAT     H123000   1.522   1.960   6.425  0.9727  0.3341  0.7151
 5570WAT     H223001   1.547   1.977   6.291  1.8521 -1.3748  0.6338
 5570WAT    EPW23002   1.548   2.003   6.365  0.4910 -0.0347  0.2270
 5571WAT      O23003   1.498   3.069   4.945  0.1189  0.2879  0.1005
 5571WAT     H123004   1.478   2.985   4.939 -0.4329  0.4447 -0.3249
 5571WAT     H223005   1.477   3.090   5.027 -0.3212  0.1598  0.0219
 5571WAT    EPW23006   1.492   3.060   4.956 -0.0276  0.2922  0.0260
 5572WAT      O23007   2.809   0.495   2.477  0.2640 -0.9306 -0.2836
 5572WAT     H123008   2.762   0.423   2.493 -0.3547 -0.4695  0.0067
 5572WAT     H223009   2.801   0.542   2.551 -1.8837  0.8238 -1.5272
 5572WAT    EPW23010   2.801   0.491   2.491 -0.1446 -0.6033 -0.4244
 5573WAT      O23011   2.304   4.346   7.826 -0.2645 -0.4641  0.2859
 5573WAT     H123012   2.227   4.308   7.844 -0.3123 -0.8545 -0.7183
 5573WAT     H223013   2.291   4.429   7.849 -1.8641  0.0791 -2.1591
 5573WAT    EPW23014   2.291   4.352   7.832 -0.5079 -0.4415 -0.2236
 5574WAT      O23015   5.163   3.590   5.672  0.3102 -0.4085  0.1623
 5574WAT     H123016   5.111   3.521   5.687  1.6282 -1.1432  1.7427
 5574WAT     H223017   5.191   3.612   5.752  0.1115  1.8666 -0.3136
 5574WAT    EPW23018   5.160   3.583   5.686  0.4755 -0.1810  0.3255
 5575WAT      O23019   3.221   3.768   7.092 -0.1322  0.6036  0.0474
 5575WAT     H123020   3.219   3.730   7.171 -0.5389 -0.3764 -0.4103
 5575WAT     H223021   3.303   3.795   7.084  0.7949 -2.0686 -0.4360
 5575WAT    EPW23022   3.233   3.766   7.103 -0.0553  0.0641 -0.0916
 5576WAT      O23023   5.062   3.819   5.213  0.1741  0.7615 -0.1734
 5576WAT     H123024   5.073   3.749   5.162 -0.9878 -0.5687  1.2545
 5576WAT     H223025   5.136   3.864   5.203  1.0474 -0.7638 -1.0263
 5576WAT    EPW23026   5.074   3.815   5.204  0.1314  0.3397 -0.0885
 5577WAT      O23027   5.209   0.575   4.752 -0.2461  0.0590 -0.4692
 5577WAT     H123028   5.148   0.610   4.804 -1.0686  0.9262 -1.9784
 5577WAT     H223029   5.227   0.639   4.695  0.1183 -1.0942 -1.6879
 5577WAT    EPW23030   5.203   0.590   4.752 -0.3138  0.0168 -0.8722
 5578WAT      O23031   2.165   1.273   3.426  0.3192 -0.3751  0.0429
 5578WAT     H123032   2.107   1.247   3.367 -1.2778  1.8005  0.5501
 5578WAT     H223033   2.228   1.213   3.420 -0.1516 -0.7291 -3.2483
 5578WAT    EPW23034   2.166   1.260   3.417  0.0138 -0.1060 -0.3684
 5579WAT      O23035   0.623   3.469   5.601  0.0186  0.3349  0.1711
 5579WAT     H123036   0.541   3.442   5.588 -0.4080  1.7255 -0.1951
 5579WAT     H223037   0.651   3.491   5.521  0.4792  0.5981  0.3984
 5579WAT    EPW23038   0.615   3.469   5.587  0.0237  0.5792  0.1506
 5580WAT      O23039   2.174   1.483   4.248  0.1147 -0.1238 -0.3989
 5580WAT     H123040   2.167   1.487   4.335  1.2764  0.4858 -0.3134
 5580WAT     H223041   2.127   1.412   4.227  1.2747 -1.3376  0.9025
 5580WAT    EPW23042   2.166   1.473   4.257  0.4576 -0.2130 -0.1940
 5581WAT      O23043   5.514   0.393   0.625  0.7094 -0.9616 -0.1379
 5581WAT     H123044   5.487   0.343   0.691 -0.6866  0.9555  0.8413
 5581WAT     H223045   5.443   0.440   0.605  1.9301  0.6136 -1.0070
 5581WAT    EPW23046   5.500   0.392   0.632  0.6835 -0.4457 -0.1216
 5582WAT      O23047   0.215   7.235   6.407 -0.4378 -0.4690 -0.1804
 5582WAT     H123048   0.212   7.292   6.342  0.0416 -0.8080 -0.5077
 5582WAT     H223049   0.195   7.282   6.477  1.4387  0.4643 -0.2077
 5582WAT    EPW23050   0.212   7.250   6.408 -0.0898 -0.3812 -0.2328
 5583WAT      O23051   3.727   5.859   3.684 -0.3736 -0.2597 -0.6064
 5583WAT     H123052   3.711   5.841   3.768 -0.7439 -0.2303 -0.6696
 5583WAT     H223053   3.778   5.929   3.687  0.4549 -0.8645 -0.3778
 5583WAT    EPW23054   3.732   5.866   3.697 -0.3059 -0.3447 -0.5820
 5584WAT      O23055   3.944   6.891   2.205  0.0194 -0.5682 -0.1381
 5584WAT     H123056   3.909   6.838   2.146 -2.2310  0.4928  0.1570
 5584WAT     H223057   3.981   6.953   2.157  1.5658 -1.6613 -0.4494
 5584WAT    EPW23058   3.944   6.892   2.189 -0.0846 -0.5729 -0.1405
 5585WAT      O23059   1.183   1.449   3.835 -0.0081 -0.0725 -0.0148
 5585WAT     H123060   1.100   1.470   3.816 -0.0041 -0.7258 -0.8105
 5585WAT     H223061   1.175   1.377   3.884  0.0627  0.4197  0.7336
 5585WAT    EPW23062   1.169   1.441   3.839  0.0030 -0.0963 -0.0218
 5586WAT      O23063   4.447   3.440   5.231  0.2092  0.7745  0.3243
 5586WAT     H123064   4.400   3.367   5.219 -1.9815  1.9535  1.2261
 5586WAT     H223065   4.481   3.429   5.311 -0.5775  0.9651  0.6924
 5586WAT    EPW23066   4.445   3.427   5.241 -0.2307  0.9768  0.5119
 5587WAT      O23067   0.832   7.152   4.342 -0.6431 -0.3255 -0.4118
 5587WAT     H123068   0.870   7.107   4.407 -0.4597  2.1150  1.3151
 5587WAT     H223069   0.826   7.233   4.374 -1.9918  0.6680 -2.8949
 5587WAT    EPW23070   0.837   7.157   4.357 -0.8152  0.1818 -0.5235
 5588WAT      O23071   5.137   7.328   4.730  0.1804 -0.3519  0.3927
 5588WAT     H123072   5.115   7.399   4.776 -0.4220  0.3614 -0.9145
 5588WAT     H223073   5.071   7.273   4.745 -1.5412  0.9506 -1.7628
 5588WAT    EPW23074   5.124   7.330   4.739 -0.1629 -0.0541 -0.1188
 5589WAT      O23075   6.833   3.725   4.803  0.0284 -0.8523 -0.4973
 5589WAT     H123076   6.903   3.723   4.751 -0.2146 -0.0260 -0.8748
 5589WAT     H223077   6.846   3.795   4.853  0.1024 -1.4560  0.3503
 5589WAT    EPW23078   6.845   3.735   4.803  0.0034 -0.8194 -0.4279
 5590WAT      O23079   2.293   2.833   1.827  0.3486 -0.6397  0.6222
 5590WAT     H123080   2.371   2.795   1.813  0.4056  0.0275 -1.2416
 5590WAT     H223081   2.240   2.790   1.772 -0.4361 -0.5518  1.2982
 5590WAT    EPW23082   2.297   2.821   1.817  0.2411 -0.5282  0.4467
 5591WAT      O23083   1.995   4.204   0.241  0.1477 -0.1409  0.1353
 5591WAT     H123084   2.054   4.228   0.300  0.5283  0.1145 -0.3346
 5591WAT     H223085   1.955   4.136   0.278  0.8427 -0.4148  0.4058
 5591WAT    EPW23086   1.998   4.198   0.255  0.3066 -0.1436  0.1058
 5592WAT      O23087   1.483   5.344   5.744 -0.5138  0.2007 -0.4173
 5592WAT     H123088   1.477   5.321   5.660 -2.0344  1.1270 -0.5977
 5592WAT     H223089   1.486   5.431   5.741 -0.1021  0.2307  0.4769
 5592WAT    EPW23090   1.483   5.354   5.731 -0.6776  0.3419 -0.3118
 5593WAT      O23091   1.219   2.910   6.664  0.0326  0.0859 -0.7773
 5593WAT     H123092   1.259   2.864   6.726 -0.0979  1.2253  0.1743
 5593WAT     H223093   1.180   2.974   6.707  0.9600  1.6577 -2.1162
 5593WAT    EPW23094   1.219   2.913   6.679  0.1503  0.4864 -0.8346
 5594WAT      O23095   7.712   2.525   6.201  0.1718  0.6309 -0.1713
 5594WAT     H123096   7.732   2.457   6.150  1.7564 -0.3096  1.6043
 5594WAT     H223097   7.710   2.492   6.281 -1.2507  2.2733  0.5380
 5594WAT    EPW23098   7.715   2.510   6.205  0.1958  0.7346  0.1958
 5595WAT      O23099   5.465   2.347   3.568  0.1357  0.2815  0.2660
 5595WAT     H123100   5.464   2.362   3.482  0.1733 -0.8358  0.0558
 5595WAT     H223101   5.525   2.402   3.598  1.1685 -0.3161 -0.6330
 5595WAT    EPW23102   5.474   2.357   3.559  0.2938  0.0282  0.1022
 5596WAT      O23103   2.376   4.486   2.293 -0.0714 -0.5815  0.1860
 5596WAT     H123104   2.421   4.412   2.282 -0.5162 -0.5652 -2.1099
 5596WAT     H223105   2.293   4.462   2.281 -0.1922  0.3276 -1.0312
 5596WAT    EPW23106   2.371   4.472   2.290 -0.1549 -0.4448 -0.3329
 5597WAT      O23107   1.590   1.581   5.336 -0.4088  0.7219 -0.7144
 5597WAT     H123108   1.533   1.515   5.346 -1.1609  1.2982 -1.0424
 5597WAT     H223109   1.667   1.542   5.334 -0.7525 -0.0468  0.2374
 5597WAT    EPW23110   1.593   1.566   5.337 -0.5707  0.6935 -0.6223
 5598WAT      O23111   4.922   3.392   5.023  0.0949 -0.2547  0.3737
 5598WAT     H123112   4.863   3.456   5.022  1.2150  0.8359  0.3589
 5598WAT     H223113   4.878   3.323   5.051 -1.0655  0.6413  0.8389
 5598WAT    EPW23114   4.907   3.391   5.027  0.0890  0.0388  0.4402
 5599WAT      O23115   4.611   1.516   6.017  0.4008 -0.2740  0.2303
 5599WAT     H123116   4.645   1.594   6.035 -1.6379  0.9064 -0.6805
 5599WAT     H223117   4.541   1.511   6.070  1.3081 -2.1957  1.3762
 5599WAT    EPW23118   4.605   1.527   6.028  0.2337 -0.3835  0.2650
 5600WAT      O23119   0.124   2.774   7.505 -0.5328  0.0298 -0.0962
 5600WAT     H123120   0.156   2.789   7.425 -1.9615 -0.2532 -0.7485
 5600WAT     H223121   0.043   2.807   7.501 -1.0963 -1.1807  0.7998
 5600WAT    EPW23122   0.117   2.781   7.493 -0.8271 -0.1908 -0.0602
 5601WAT      O23123   2.621   6.406   0.517  0.4587 -0.0051 -0.5342
 5601WAT     H123124   2.551   6.443   0.480 -0.5364 -0.9787  0.2864
 5601WAT     H223125   2.688   6.439   0.472 -0.3175  2.7220  0.0830
 5601WAT    EPW23126   2.621   6.416   0.505  0.1970  0.2539 -0.3218
 5602WAT      O23127   6.025   4.011   0.463 -0.0850  0.2594  0.3969
 5602WAT     H123128   5.958   4.003   0.519 -0.6525 -1.6441 -0.4498
 5602WAT     H223129   6.095   4.008   0.515 -0.6176  2.2535  1.2941
 5602WAT    EPW23130   6.026   4.009   0.479 -0.2475  0.2728  0.4044
 5603WAT      O23131   2.150   2.017   2.928 -0.4688  0.0364 -0.5383
 5603WAT     H123132   2.160   2.000   2.843  2.1133 -1.3613 -0.0920
 5603WAT     H223133   2.072   1.983   2.948  0.1892 -2.5100 -1.8096
 5603WAT    EPW23134   2.140   2.009   2.919  0.0099 -0.5463 -0.6602
 5604WAT      O23135   3.127   2.085   2.905 -0.2402  0.4382  0.9791
 5604WAT     H123136   3.102   2.042   2.977 -1.4059 -1.8625 -0.6686
 5604WAT     H223137   3.082   2.160   2.908 -0.9225 -0.0076  2.1862
 5604WAT    EPW23138   3.117   2.090   2.916 -0.5132  0.0324  0.9140
 5605WAT      O23139   0.114   4.304   6.011 -0.5486 -0.8020  0.4381
 5605WAT     H123140   0.065   4.375   5.998  1.8779  0.7380 -1.2554
 5605WAT     H223141   0.078   4.245   5.958 -1.3257 -0.1378  0.1998
 5605WAT    EPW23142   0.102   4.306   6.001 -0.3049 -0.4764  0.1527
 5606WAT      O23143   4.681   0.800   6.894 -0.5574 -0.1566 -0.4170
 5606WAT     H123144   4.649   0.833   6.968 -4.1913 -2.9137 -0.4902
 5606WAT     H223145   4.763   0.778   6.914 -1.2670 -0.3718  2.6076
 5606WAT    EPW23146   4.689   0.802   6.908 -1.1990 -0.5956  0.0190
 5607WAT      O23147   1.803   5.639   2.547  0.2375 -0.0130 -0.8797
 5607WAT     H123148   1.798   5.556   2.573  1.4829  0.8883  2.8812
 5607WAT     H223149   1.721   5.660   2.529 -0.4801 -1.4654  0.4232
 5607WAT    EPW23150   1.790   5.630   2.548  0.3155 -0.0944 -0.1317
 5608WAT      O23151   4.593   1.972   5.338  0.0495 -0.2975  0.5195
 5608WAT     H123152   4.668   2.015   5.342 -0.5951  0.7780  2.9176
 5608WAT     H223153   4.541   2.025   5.292  0.3467 -0.3619  0.1078
 5608WAT    EPW23154   4.596   1.986   5.332 -0.0018 -0.1481  0.8130
 5609WAT      O23155   3.574   1.492   3.678  0.2929 -0.2820  0.5391
 5609WAT     H123156   3.555   1.513   3.761  1.1444  1.3410  0.3652
 5609WAT     H223157   3.530   1.418   3.666 -0.8697  0.0857  2.0560
 5609WAT    EPW23158   3.564   1.484   3.689  0.2470  0.0121  0.7375
 5610WAT      O23159   4.645   3.430   0.854 -0.3849  0.2196  0.4060
 5610WAT     H123160   4.688   3.504   0.871 -0.3849  0.2136  0.4343
 5610WAT     H223161   4.582   3.454   0.798  0.1559  0.0774 -0.2713
 5610WAT    EPW23162   4.642   3.444   0.849 -0.3050  0.1977  0.3101
 5611WAT      O23163   1.468   6.430   1.795  0.2787 -0.1121  0.6483
 5611WAT     H123164   1.526   6.382   1.751 -0.2857 -1.1576  1.0321
 5611WAT     H223165   1.415   6.371   1.832 -0.3317  0.7944  1.2642
 5611WAT    EPW23166   1.469   6.414   1.794  0.1052 -0.1326  0.7960
 5612WAT      O23167   4.917   3.409   2.117 -1.0139 -0.0072 -0.2693
 5612WAT     H123168   4.953   3.488   2.127  1.4228 -1.0905  0.1961
 5612WAT     H223169   4.920   3.396   2.031 -2.0476  0.6428 -0.4201
 5612WAT    EPW23170   4.923   3.419   2.106 -0.8066 -0.0712 -0.2228
 5613WAT      O23171   4.765   7.615   7.448  0.3370 -0.3828  0.1184
 5613WAT     H123172   4.844   7.652   7.439 -0.2235  0.6143 -1.1165
 5613WAT     H223173   4.749   7.621   7.533 -0.0858  3.2630 -0.0450
 5613WAT    EPW23174   4.774   7.622   7.459  0.1917  0.3031 -0.0882
 5614WAT      O23175   3.026   0.861   5.231 -0.4684 -0.0479 -0.3142
 5614WAT     H123176   3.025   0.888   5.149 -0.0316  1.5172  0.1664
 5614WAT     H223177   2.985   0.925   5.275  0.2106 -0.3608  0.8177
 5614WAT    EPW23178   3.019   0.874   5.226 -0.3036  0.1370 -0.0760
 5615WAT      O23179   5.852   4.681   2.529 -0.0155  0.3217 -0.7919
 5615WAT     H123180   5.771   4.701   2.555  0.6129  1.4648  0.4175
 5615WAT     H223181   5.856   4.595   2.538 -1.5145  0.0667 -2.1701
 5615WAT    EPW23182   5.840   4.672   2.534 -0.1441  0.4529 -0.8168
 5616WAT      O23183   0.974   3.825   4.607  0.0422  0.3591 -0.0821
 5616WAT     H123184   0.980   3.903   4.569  0.0514  0.4783  0.1591
 5616WAT     H223185   1.003   3.839   4.688 -1.2934  0.4434  0.4167
 5616WAT    EPW23186   0.979   3.839   4.614 -0.1537  0.3891  0.0272
 5617WAT      O23187   5.256   1.235   6.794  0.0806 -0.1013 -0.0808
 5617WAT     H123188   5.250   1.318   6.821 -0.5594  0.0899 -0.7774
 5617WAT     H223189   5.303   1.197   6.857  1.5209  1.0701 -0.3728
 5617WAT    EPW23190   5.262   1.242   6.807  0.1988  0.1000 -0.2269
 5618WAT      O23191   4.547   4.506   5.639  0.7115  0.2636 -0.0084
 5618WAT     H123192   4.549   4.477   5.556  1.9754  2.0731 -0.6646
 5618WAT     H223193   4.462   4.523   5.652  0.2786 -1.3562 -0.3964
 5618WAT    EPW23194   4.535   4.504   5.628  0.8343  0.2916 -0.1626
 5619WAT      O23195   2.179   2.523   2.733 -0.0862 -0.1856 -0.3720
 5619WAT     H123196   2.141   2.463   2.784 -1.5014  0.3615 -0.7272
 5619WAT     H223197   2.248   2.549   2.780 -0.6279 -0.6048  0.6936
 5619WAT    EPW23198   2.184   2.518   2.748 -0.3753 -0.1667 -0.2671
 5620WAT      O23199   3.421   0.640   2.204  0.1313 -0.1161  0.0378
 5620WAT     H123200   3.488   0.606   2.249 -2.4162 -2.1502  2.7013
 5620WAT     H223201   3.417   0.722   2.234  1.3244  0.0099 -0.0887
 5620WAT    EPW23202   3.431   0.647   2.215 -0.0688 -0.3980  0.4126
 5621WAT      O23203   7.051   1.784   4.300  0.1385  0.0848  0.4394
 5621WAT     H123204   7.135   1.775   4.281 -0.2952 -0.3241 -1.5070
 5621WAT     H223205   7.045   1.865   4.333  1.3480 -0.0652  1.0589
 5621WAT    EPW23206   7.062   1.795   4.302  0.2531  0.0022  0.2434
 5622WAT      O23207   4.799   1.156   0.686 -0.3148 -0.2313  0.0900
 5622WAT     H123208   4.782   1.086   0.638 -0.1696 -0.1784 -0.0394
 5622WAT     H223209   4.730   1.208   0.673  0.6701  0.7046 -1.7554
 5622WAT    EPW23210   4.786   1.154   0.677 -0.1479 -0.0852 -0.2017
 5623WAT      O23211   4.897   5.559   2.286 -0.0031 -0.2049 -0.1183
 5623WAT     H123212   4.961   5.503   2.304 -0.8578 -0.8996  0.9118
 5623WAT     H223213   4.827   5.523   2.324 -0.6591  1.3767  0.2694
 5623WAT    EPW23214   4.896   5.545   2.294 -0.2262 -0.0739  0.0911
 5624WAT      O23215   4.930   7.366   4.156 -0.7001  0.4888  0.4902
 5624WAT     H123216   4.916   7.410   4.230  0.2173  1.0518  0.3419
 5624WAT     H223217   4.894   7.288   4.171 -0.4882  0.5862  1.5481
 5624WAT    EPW23218   4.922   7.361   4.169 -0.5333  0.5864  0.6246
 5625WAT      O23219   4.449   6.220   5.303  0.2257  0.1587  0.0040
 5625WAT     H123220   4.380   6.168   5.311  0.0702  0.6355  3.0558
 5625WAT     H223221   4.516   6.172   5.332  1.3094 -0.3094 -2.9331
 5625WAT    EPW23222   4.449   6.205   5.308  0.3628  0.1600  0.0209
 5626WAT      O23223   4.982   1.885   2.430  0.2248 -0.4007  0.1241
 5626WAT     H123224   4.962   1.873   2.514 -1.0156 -0.6998 -0.2011
 5626WAT     H223225   4.966   1.970   2.417 -0.2737 -0.5034  0.0272
 5626WAT    EPW23226   4.977   1.896   2.440 -0.0321 -0.4600  0.0617
 5627WAT      O23227   6.200   1.079   7.312  0.0893  0.5781 -0.1375
 5627WAT     H123228   6.177   0.995   7.317  2.2138 -0.0091  2.3958
 5627WAT     H223229   6.139   1.115   7.261 -0.6310 -2.5531 -1.7158
 5627WAT    EPW23230   6.188   1.072   7.305  0.2967  0.0289  0.0035
 5628WAT      O23231   5.452   4.923   6.573  0.0760  0.1123  0.8247
 5628WAT     H123232   5.525   4.877   6.588  1.1711  1.6102  0.3834
 5628WAT     H223233   5.481   5.005   6.571 -1.4477  0.6481 -0.5673
 5628WAT    EPW23234   5.467   4.928   6.575  0.0127  0.4127  0.5539
 5629WAT      O23235   6.362   2.331   3.555  0.1606 -0.0213  0.0030
 5629WAT     H123236   6.289   2.358   3.515 -0.0922  0.4120  0.7511
 5629WAT     H223237   6.423   2.385   3.526 -0.0480  0.3779  0.3115
 5629WAT    EPW23238   6.360   2.343   3.545  0.0924  0.1017  0.1591
 5630WAT      O23239   1.797   4.056   4.606  0.3027  0.4525 -0.1630
 5630WAT     H123240   1.858   4.106   4.642 -0.6231  0.8460  0.9001
 5630WAT     H223241   1.765   4.010   4.673 -0.9941  0.7126 -0.5643
 5630WAT    EPW23242   1.801   4.056   4.621 -0.0257  0.5490 -0.0653
 5631WAT      O23243   5.379   6.034   5.362  0.4188  0.0525 -1.0167
 5631WAT     H123244   5.302   6.073   5.346  1.5906  2.0461 -2.1805
 5631WAT     H223245   5.400   6.000   5.285  1.1289  0.3348 -0.9483
 5631WAT    EPW23246   5.370   6.035   5.348  0.6968  0.3887 -1.1785
 5632WAT      O23247   2.417   2.350   3.445  0.3280  0.2492 -0.3815
 5632WAT     H123248   2.410   2.402   3.376 -0.2930  0.9370  0.1815
 5632WAT     H223249   2.498   2.365   3.474 -0.4338  2.3941  0.8886
 5632WAT    EPW23250   2.428   2.360   3.439  0.1237  0.6677 -0.1107
 5633WAT      O23251   1.785   7.033   7.283  0.7562 -0.1170 -0.3175
 5633WAT     H123252   1.757   7.021   7.201  0.4519 -0.5421 -0.1546
 5633WAT     H223253   1.805   6.953   7.310  2.8266  0.2277 -0.6422
 5633WAT    EPW23254   1.784   7.019   7.274  1.0171 -0.1289 -0.3414
 5634WAT      O23255   5.295   1.995   4.026  0.2089  0.0313  0.5737
 5634WAT     H123256   5.227   2.045   4.003 -0.0164 -0.9529 -1.0495
 5634WAT     H223257   5.271   1.961   4.102 -1.2610 -0.4812 -0.0822
 5634WAT    EPW23258   5.281   1.997   4.034 -0.0415 -0.1898  0.2370
 5635WAT      O23259   4.454   5.148   3.991 -0.1638 -0.1062 -0.0954
 5635WAT     H123260   4.416   5.114   4.061  1.6419 -0.9445  0.5331
 5635WAT     H223261   4.406   5.218   3.973 -1.4515 -0.6316  1.1456
 5635WAT    EPW23262   4.441   5.153   3.998 -0.0873 -0.3077  0.1807
 5636WAT      O23263   3.666   1.641   2.753  0.7523 -0.0885 -0.0080
 5636WAT     H123264   3.581   1.632   2.771  0.2886  1.8493 -0.9518
 5636WAT     H223265   3.668   1.658   2.668  2.1080 -0.2133 -0.0358
 5636WAT    EPW23266   3.654   1.642   2.743  0.8841  0.1793 -0.1516
 5637WAT      O23267   2.056   0.525   2.786 -0.1713 -0.1128  0.5138
 5637WAT     H123268   1.988   0.567   2.752 -0.3335 -0.2212  0.6986
 5637WAT     H223269   2.022   0.484   2.855  0.3645  0.9560  1.4475
 5637WAT    EPW23270   2.041   0.525   2.791 -0.1162  0.0291  0.6790
 5638WAT      O23271   5.350   0.148   6.069  0.2315  0.6017  0.6483
 5638WAT     H123272   5.308   0.186   6.003 -2.6751 -0.6961  1.5825
 5638WAT     H223273   5.380   0.074   6.035 -2.4362 -0.7408  0.9022
 5638WAT    EPW23274   5.348   0.143   6.054 -0.5919  0.2117  0.8238
 5639WAT      O23275   6.456   4.404   4.900 -0.4846 -0.8504 -0.9857
 5639WAT     H123276   6.388   4.448   4.866 -0.6561 -1.4498 -1.4291
 5639WAT     H223277   6.503   4.381   4.831  0.2044 -0.4136 -0.6792
 5639WAT    EPW23278   6.453   4.407   4.885 -0.4082 -0.8744 -1.0059
 5640WAT      O23279   1.847   7.576   2.061  0.1044 -0.1323 -0.7971
 5640WAT     H123280   1.828   7.613   1.984  2.4857 -1.7511 -2.3146
 5640WAT     H223281   1.925   7.610   2.080  0.2497 -0.9467  0.0995
 5640WAT    EPW23282   1.856   7.586   2.052  0.4776 -0.4918 -0.8889
 5641WAT      O23283   5.126   0.859   6.450  0.3599  0.6707  0.6608
 5641WAT     H123284   5.098   0.887   6.528 -2.2772 -0.8315  0.3983
 5641WAT     H223285   5.187   0.800   6.470 -0.2138  0.3740  1.6141
 5641WAT    EPW23286   5.131   0.855   6.465 -0.1144  0.4050  0.7628
 5642WAT      O23287   5.739   2.227   4.105 -0.1603  0.7252 -0.5278
 5642WAT     H123288   5.758   2.162   4.049 -0.6967  0.7498 -0.7420
 5642WAT     H223289   5.740   2.187   4.183  1.3962  0.8509 -0.4492
 5642WAT    EPW23290   5.742   2.211   4.108 -0.0096  0.7474 -0.5478
 5643WAT      O23291   3.895   2.218   4.227 -0.1172 -0.2222  0.2694
 5643WAT     H123292   3.974   2.254   4.228 -0.7987  1.3500  0.1316
 5643WAT     H223293   3.850   2.265   4.285 -1.3815 -0.0433 -0.8137
 5643WAT    EPW23294   3.900   2.230   4.236 -0.4046  0.0365  0.0890
 5644WAT      O23295   0.661   2.810   3.729 -0.2456  0.8630 -0.2261
 5644WAT     H123296   0.735   2.803   3.683  0.1411 -0.6716  0.5270
 5644WAT     H223297   0.637   2.727   3.741 -1.5122  1.3019  0.4513
 5644WAT    EPW23298   0.669   2.797   3.724 -0.3756  0.7012 -0.0148
 5645WAT      O23299   4.871   3.657   5.391 -0.2155 -0.2384  0.4159
 5645WAT     H123300   4.827   3.598   5.438 -2.4532  0.4396 -0.7266
 5645WAT     H223301   4.934   3.609   5.354  0.2198 -1.2010  2.2506
 5645WAT    EPW23302   4.874   3.641   5.393 -0.4817 -0.2804  0.5182
 5646WAT      O23303   3.013   4.389   3.896 -0.0712 -0.3087  0.0604
 5646WAT     H123304   2.949   4.440   3.925  0.7262  1.2496 -0.7633
 5646WAT     H223305   3.016   4.324   3.954 -0.8057  0.8316  1.4300
 5646WAT    EPW23306   3.004   4.387   3.909 -0.0619  0.0900  0.1410
 5647WAT      O23307   1.423   5.360   7.687 -0.4080  0.5781  0.0042
 5647WAT     H123308   1.398   5.401   7.761  2.5979  1.5952  0.5911
 5647WAT     H223309   1.482   5.303   7.715 -1.2537 -1.0609 -1.3853
 5647WAT    EPW23310   1.428   5.358   7.702 -0.0889  0.4862 -0.1144
 5648WAT      O23311   4.981   2.565   6.648  0.1033 -0.2033 -0.0444
 5648WAT     H123312   4.961   2.569   6.563  0.5251 -1.9333 -0.2483
 5648WAT     H223313   4.911   2.599   6.687 -0.8953 -1.0928 -1.0022
 5648WAT    EPW23314   4.968   2.571   6.642  0.0181 -0.5903 -0.2160
 5649WAT      O23315   4.995   0.897   2.051  0.5792 -0.7771  0.4158
 5649WAT     H123316   4.934   0.859   2.001 -0.3649  0.8488  0.2514
 5649WAT     H223317   4.957   0.904   2.129 -0.1851  1.7259 -0.0833
 5649WAT    EPW23318   4.981   0.892   2.055  0.3268 -0.1671  0.3178
 5650WAT      O23319   5.953   2.911   5.183 -0.0834  0.4796 -0.4325
 5650WAT     H123320   6.026   2.918   5.136  1.5033  1.2024  1.9652
 5650WAT     H223321   5.945   2.825   5.196  0.9521  0.4449  0.1024
 5650WAT    EPW23322   5.962   2.899   5.178  0.3040  0.5813  0.0007
 5651WAT      O23323   4.025   1.216   5.885  0.5910 -0.0690 -0.4815
 5651WAT     H123324   3.946   1.181   5.900  0.5292  0.6338  0.9321
 5651WAT     H223325   4.034   1.207   5.798 -0.2949 -1.6956 -0.4451
 5651WAT    EPW23326   4.014   1.209   5.874  0.4510 -0.2055 -0.2673
 5652WAT      O23327   4.035   4.978   7.026 -0.9111 -0.4673  0.6515
 5652WAT     H123328   4.031   4.905   7.073  0.3620 -2.3008 -1.8414
 5652WAT     H223329   4.120   4.998   7.026 -1.0272  0.0793 -0.0246
 5652WAT    EPW23330   4.047   4.970   7.033 -0.7402 -0.6574  0.1834
 5653WAT      O23331   6.563   4.517   0.108 -0.4546  0.3028  0.0752
 5653WAT     H123332   6.562   4.467   0.037 -1.5134  2.4003 -1.5112
 5653WAT     H223333   6.523   4.469   0.169 -2.5787 -0.3285 -1.7114
 5653WAT    EPW23334   6.557   4.503   0.107 -0.9248  0.5194 -0.4230
 5654WAT      O23335   5.901   0.223   4.754 -0.7739  0.2753  0.2748
 5654WAT     H123336   5.981   0.233   4.723 -1.2147  1.1309 -0.6300
 5654WAT     H223337   5.856   0.289   4.719 -2.5662 -1.7799 -1.6797
 5654WAT    EPW23338   5.906   0.234   4.745 -1.1038  0.0981 -0.1476
 5655WAT      O23339   3.627   3.223   1.124  0.0635  0.2795 -0.6107
 5655WAT     H123340   3.680   3.157   1.101 -0.1568  0.1399 -0.7244
 5655WAT     H223341   3.550   3.201   1.088  0.0139  0.6524 -0.7422
 5655WAT    EPW23342   3.623   3.210   1.115  0.0236  0.3139 -0.6469
 5656WAT      O23343   6.953   0.334   0.143  0.9339 -0.1706  0.3979
 5656WAT     H123344   7.035   0.319   0.170  0.6859 -0.5527  0.9476
 5656WAT     H223345   6.959   0.326   0.056  1.6310  0.5706  0.3592
 5656WAT    EPW23346   6.966   0.331   0.134  1.0002 -0.1175  0.4733
 5657WAT      O23347   4.464   0.336   7.309  0.4547  0.4733 -0.7625
 5657WAT     H123348   4.526   0.366   7.362 -0.6427 -0.7169  1.3323
 5657WAT     H223349   4.492   0.256   7.287 -0.3776 -0.1740  0.4036
 5657WAT    EPW23350   4.477   0.329   7.313  0.1696  0.2019 -0.2808
 5658WAT      O23351   4.530   5.728   3.577 -0.1511  0.2931 -0.1094
 5658WAT     H123352   4.611   5.756   3.593 -0.2275  2.0794 -2.3058
 5658WAT     H223353   4.542   5.657   3.528  0.0336 -0.3183  0.7840
 5658WAT    EPW23354   4.543   5.722   3.572 -0.1351  0.4667 -0.3019
 5659WAT      O23355   5.486   3.333   4.637 -0.3642 -0.0865 -0.0131
 5659WAT     H123356   5.420   3.276   4.643  1.1729 -1.9437  0.5769
 5659WAT     H223357   5.555   3.286   4.663  1.6604  0.9653 -2.9893
 5659WAT    EPW23358   5.487   3.318   4.642  0.1620 -0.2055 -0.3656
 5660WAT      O23359   0.668   6.250   7.493 -0.0202  0.4154 -0.1018
 5660WAT     H123360   0.716   6.184   7.462  0.0170  0.8378 -0.9837
 5660WAT     H223361   0.586   6.223   7.481 -0.0069  0.0874  0.5279
 5660WAT    EPW23362   0.663   6.237   7.486 -0.0127  0.4294 -0.1391
 5661WAT      O23363   4.565   2.175   4.958 -0.3859 -0.1814 -0.6849
 5661WAT     H123364   4.529   2.099   4.936 -0.9838 -0.0280 -0.2712
 5661WAT     H223365   4.626   2.187   4.897  0.1962 -1.3211 -0.3565
 5661WAT    EPW23366   4.568   2.166   4.945 -0.3882 -0.3271 -0.5753
 5662WAT      O23367   4.106   7.594   3.468 -0.3166 -0.5391 -0.2915
 5662WAT     H123368   4.163   7.631   3.523 -0.4822 -0.9182  0.1407
 5662WAT     H223369   4.132   7.511   3.464 -0.6842 -0.6563 -0.2968
 5662WAT    EPW23370   4.118   7.587   3.475 -0.3954 -0.6124 -0.2285
 5663WAT      O23371   1.303   1.870   4.681  0.2212 -0.2079  0.3942
 5663WAT     H123372   1.245   1.813   4.714  0.5870 -0.6796  0.2253
 5663WAT     H223373   1.380   1.831   4.694  0.8010  1.5456  3.0666
 5663WAT    EPW23374   1.306   1.855   4.688  0.3609 -0.0186  0.7640
 5664WAT      O23375   5.960   2.805   4.146 -0.0479  0.1580  0.0761
 5664WAT     H123376   5.895   2.796   4.203  0.9599 -2.1981  0.9837
 5664WAT     H223377   5.932   2.762   4.076  0.0351  0.1954  0.0197
 5664WAT    EPW23378   5.946   2.798   4.144  0.1132 -0.1845  0.2018
 5665WAT      O23379   6.431   3.183   3.741  0.0601  0.2656 -0.1437
 5665WAT     H123380   6.499   3.176   3.795  0.6214  2.7193 -0.4276
 5665WAT     H223381   6.467   3.185   3.662 -0.5155 -0.3015 -0.4301
 5665WAT    EPW23382   6.446   3.182   3.738  0.0580  0.5443 -0.2279
 5666WAT      O23383   6.384   0.038   3.143  0.4408  0.1236 -0.2176
 5666WAT     H123384   6.430   0.057   3.071 -0.5196  0.5624 -0.7291
 5666WAT     H223385   6.311   0.085   3.134 -0.9365 -1.8988 -0.3130
 5666WAT    EPW23386   6.380   0.047   3.131  0.0955 -0.1104 -0.3073
 5667WAT      O23387   6.282   0.364   0.460  0.0659  0.5398 -0.1711
 5667WAT     H123388   6.273   0.277   0.467 -0.5485  0.7040  1.7718
 5667WAT     H223389   6.345   0.382   0.518  0.5037  1.3525 -0.8901
 5667WAT    EPW23390   6.290   0.354   0.470  0.0398  0.6841  0.0097
 5668WAT      O23391   4.938   2.768   2.781 -0.0890 -0.0285  0.6030
 5668WAT     H123392   4.865   2.773   2.829 -1.0809 -2.0840 -0.5736
 5668WAT     H223393   4.946   2.683   2.764  0.0703  0.5677 -3.0265
 5668WAT    EPW23394   4.929   2.757   2.786 -0.2120 -0.2441 -0.1069
 5669WAT      O23395   3.755   1.915   2.576 -0.0307 -0.1887  0.1881
 5669WAT     H123396   3.772   1.843   2.530  1.4030  0.0036  0.3738
 5669WAT     H223397   3.740   1.976   2.515 -1.2240 -0.6185  0.0313
 5669WAT    EPW23398   3.755   1.914   2.560  0.0048 -0.2238  0.1923
 5670WAT      O23399   4.755   1.805   6.971 -0.4626  0.1810  0.1349
 5670WAT     H123400   4.728   1.880   7.005  2.1538  1.5488 -0.5431
 5670WAT     H223401   4.762   1.821   6.886  0.2044 -0.7753 -0.0231
 5670WAT    EPW23402   4.752   1.818   6.963  0.0224  0.2418  0.0114
 5671WAT      O23403   6.643   1.605   5.940  0.3669 -0.3266  0.5376
 5671WAT     H123404   6.726   1.584   5.960  1.3514  1.4201 -1.3089
 5671WAT     H223405   6.618   1.541   5.886  0.0775 -1.4291  1.9131
 5671WAT    EPW23406   6.652   1.592   5.935  0.4696 -0.2315  0.4680
 5672WAT      O23407   6.735   1.063   6.461  0.1591  0.5127 -0.3442
 5672WAT     H123408   6.700   0.992   6.498  0.5349  0.9066  0.8299
 5672WAT     H223409   6.751   1.038   6.379  0.5576 -0.8617  0.1164
 5672WAT    EPW23410   6.733   1.049   6.455  0.2735  0.3679 -0.1027
 5673WAT      O23411   5.664   1.778   1.970 -0.3701 -0.4178 -0.2882
 5673WAT     H123412   5.735   1.761   2.018  0.5788  1.3207 -1.0321
 5673WAT     H223413   5.613   1.824   2.024  0.8001  1.7443 -0.9572
 5673WAT    EPW23414   5.667   1.782   1.985 -0.0571  0.1584 -0.4969
 5674WAT      O23415   3.108   3.424   0.571 -0.6216  0.5355  0.1655
 5674WAT     H123416   3.072   3.364   0.518 -0.4351  1.1328 -0.6540
 5674WAT     H223417   3.192   3.404   0.571 -0.4167  1.2964 -0.8157
 5674WAT    EPW23418   3.115   3.412   0.563 -0.5637  0.7361 -0.1005
 5675WAT      O23419   3.378   1.555   6.613  0.3103  0.8852 -0.3957
 5675WAT     H123420   3.324   1.585   6.551  0.9950  0.4595 -1.2163
 5675WAT     H223421   3.455   1.590   6.592  0.7273  0.0624 -0.2696
 5675WAT    EPW23422   3.381   1.565   6.601  0.4730  0.7008 -0.4983
 5676WAT      O23423   6.670   5.883   3.857  0.5690 -0.1092  0.3322
 5676WAT     H123424   6.625   5.906   3.786 -1.7223 -0.7490  1.4729
 5676WAT     H223425   6.747   5.923   3.847 -0.0143  0.5502 -2.0368
 5676WAT    EPW23426   6.675   5.893   3.845  0.1444 -0.1063  0.1508
 5677WAT      O23427   6.888   2.082   4.512  0.1689  0.0925  0.0636
 5677WAT     H123428   6.803   2.070   4.525  0.4942 -0.3171  2.0402
 5677WAT     H223429   6.893   2.105   4.428 -1.8550 -0.1018 -0.1424
 5677WAT    EPW23430   6.876   2.084   4.501 -0.0820  0.0033  0.3251
 5678WAT      O23431   5.009   6.417   5.287  0.0318  0.0451 -0.7635
 5678WAT     H123432   4.941   6.414   5.233 -0.3464 -0.3192 -0.2769
 5678WAT     H223433   5.016   6.502   5.306 -0.1974  0.1024 -0.9305
 5678WAT    EPW23434   5.000   6.429   5.282 -0.0579 -0.0003 -0.7163
 5679WAT      O23435   6.648   0.852   5.356  0.4262  0.2056  0.3531
 5679WAT     H123436   6.675   0.813   5.283 -0.0405 -1.6638  1.1115
 5679WAT     H223437   6.565   0.824   5.365 -0.4808  2.5992  0.1857
 5679WAT    EPW23438   6.639   0.842   5.347  0.2233  0.2831  0.4404
 5680WAT      O23439   3.699   1.763   0.832  0.7895  0.0136  0.6318
 5680WAT     H123440   3.763   1.766   0.891  0.9726  0.6312  0.4098
 5680WAT     H223441   3.634   1.808   0.869  0.2307 -1.1441  1.1294
 5680WAT    EPW23442   3.699   1.770   0.846  0.7340 -0.0661  0.6725
 5681WAT      O23443   4.945   2.495   2.731  0.3718 -0.6022 -0.1705
 5681WAT     H123444   4.869   2.453   2.725 -0.7063  0.9253  1.6543
 5681WAT     H223445   4.980   2.463   2.805 -0.2730  1.2917  1.0211
 5681WAT    EPW23446   4.939   2.484   2.741  0.1173 -0.0968  0.2751
 5682WAT      O23447   1.566   6.687   2.791  0.1012  1.0919 -0.1325
 5682WAT     H123448   1.531   6.744   2.847  0.5568 -0.1966  1.5538
 5682WAT     H223449   1.564   6.612   2.835 -0.7733 -0.3076 -2.3905
 5682WAT    EPW23450   1.561   6.684   2.806  0.0393  0.6948 -0.2169
 5683WAT      O23451   7.357   4.837   4.782  0.4072  0.1228  0.1028
 5683WAT     H123452   7.380   4.784   4.716  0.0665 -1.2815  1.0647
 5683WAT     H223453   7.270   4.831   4.782  0.4457 -0.7393  1.3208
 5683WAT    EPW23454   7.347   4.828   4.772  0.3625 -0.2120  0.4248
 5684WAT      O23455   7.747   2.245   6.605  0.0767  0.1687  0.1551
 5684WAT     H123456   7.722   2.269   6.525  1.2194  1.7408  0.2129
 5684WAT     H223457   7.758   2.159   6.599  0.2943  0.2900 -1.4363
 5684WAT    EPW23458   7.745   2.236   6.593  0.2776  0.4188 -0.0714
 5685WAT      O23459   7.038   1.791   6.822  0.2458 -0.3921  0.0081
 5685WAT     H123460   6.997   1.721   6.855  0.3846  0.3172  1.7834
 5685WAT     H223461   7.068   1.762   6.745 -1.5941 -1.6125 -0.3174
 5685WAT    EPW23462   7.037   1.776   6.816 -0.0055 -0.4676  0.2223
 5686WAT      O23463   5.678   4.886   4.079  0.3610  0.3134 -0.2551
 5686WAT     H123464   5.610   4.856   4.033 -0.9566  1.9746  0.5094
 5686WAT     H223465   5.715   4.945   4.026 -1.4754  2.6269  0.8297
 5686WAT    EPW23466   5.673   4.890   4.064 -0.1049  0.9005  0.0181
 5687WAT      O23467   5.142   1.027   3.695  0.1676 -0.8326  0.5182
 5687WAT     H123468   5.095   1.016   3.768  0.4900 -0.2973  0.8058
 5687WAT     H223469   5.139   0.948   3.658 -0.9132 -0.8354  0.5572
 5687WAT    EPW23470   5.134   1.013   3.700  0.0556 -0.7539  0.5665
 5688WAT      O23471   4.900   2.121   6.191 -0.4614  0.5153 -0.2964
 5688WAT     H123472   4.909   2.103   6.106 -0.9894 -1.3561 -0.0050
 5688WAT     H223473   4.952   2.063   6.230 -0.9815  0.6922  0.6867
 5688WAT    EPW23474   4.909   2.110   6.184 -0.6162  0.2650 -0.1081
 5689WAT      O23475   5.702   2.436   4.522  0.5724 -0.0631 -0.4567
 5689WAT     H123476   5.701   2.498   4.582 -1.1157 -0.7134  0.2427
 5689WAT     H223477   5.737   2.475   4.452 -0.6541  1.7447 -0.1188
 5689WAT    EPW23478   5.707   2.451   4.520  0.1419  0.1079 -0.3035
 5690WAT      O23479   3.880   0.250   1.563 -0.1471  0.5834 -0.1783
 5690WAT     H123480   3.814   0.265   1.508 -0.0696  0.1322 -0.3992
 5690WAT     H223481   3.939   0.312   1.542 -0.2138  0.5571 -0.4443
 5690WAT    EPW23482   3.879   0.262   1.552 -0.1455  0.5128 -0.2502
 5691WAT      O23483   5.539   1.659   1.202 -0.1494 -0.3027  0.0727
 5691WAT     H123484   5.494   1.637   1.273 -2.4966 -0.9407 -1.4721
 5691WAT     H223485   5.611   1.696   1.233 -1.8323  1.0008  2.7642
 5691WAT    EPW23486   5.543   1.661   1.217 -0.7448 -0.2044  0.2421
 5692WAT      O23487   7.566   4.087   5.235  0.3956  0.5615  0.1266
 5692WAT     H123488   7.590   4.011   5.272  1.3977  0.6979 -0.2294
 5692WAT     H223489   7.632   4.106   5.181  0.0299  1.5595  0.0089
 5692WAT    EPW23490   7.579   4.078   5.232  0.4896  0.7291  0.0566
 5693WAT      O23491   5.767   0.289   0.924  0.4690  0.1383  0.3851
 5693WAT     H123492   5.745   0.258   0.846  0.7114 -0.0928  0.4057
 5693WAT     H223493   5.830   0.234   0.951  0.6810  0.4658  0.5605
 5693WAT    EPW23494   5.773   0.276   0.917  0.5361  0.1525  0.4141
 5694WAT      O23495   3.872   4.677   1.355 -0.3941 -0.2732  0.2678
 5694WAT     H123496   3.816   4.612   1.369 -0.7669  0.5254  3.1326
 5694WAT     H223497   3.947   4.636   1.335 -0.8375 -1.5639  1.1549
 5694WAT    EPW23498   3.875   4.662   1.354 -0.5147 -0.3459  0.8220
 5695WAT      O23499   3.777   7.456   2.908  0.0223  0.0916 -0.5624
 5695WAT     H123500   3.691   7.445   2.900 -0.0156  0.5186 -0.7708
 5695WAT     H223501   3.810   7.393   2.858 -0.1662  0.0229 -0.6035
 5695WAT    EPW23502   3.769   7.445   2.900 -0.0112  0.1445 -0.5992
 5696WAT      O23503   6.838   0.602   3.646  0.3025  0.5227 -0.6786
 5696WAT     H123504   6.774   0.575   3.595  0.3775 -0.9900 -0.0288
 5696WAT     H223505   6.908   0.559   3.616  0.1896 -1.0684  1.1384
 5696WAT    EPW23506   6.839   0.592   3.634  0.2969  0.0642 -0.3142
 5697WAT      O23507   2.784   4.617   5.463  0.1091 -0.3262 -0.9444
 5697WAT     H123508   2.793   4.537   5.496  0.3643 -0.2311 -0.7875
 5697WAT     H223509   2.837   4.616   5.394  0.3456 -0.1877 -0.7621
 5697WAT    EPW23510   2.793   4.605   5.457  0.1817 -0.2917 -0.8943
 5698WAT      O23511   2.796   2.457   4.996 -0.1833  0.5517  0.3264
 5698WAT     H123512   2.757   2.406   5.054 -0.3446  0.9485  0.5704
 5698WAT     H223513   2.879   2.458   5.022  0.0495 -0.4434 -0.3010
 5698WAT    EPW23514   2.802   2.450   5.008 -0.1727  0.4633  0.2698
 5699WAT      O23515   5.798   1.544   3.756 -0.4962 -0.2128 -0.5208
 5699WAT     H123516   5.745   1.592   3.806  1.4010  1.5875 -0.1191
 5699WAT     H223517   5.856   1.601   3.726  3.4459 -2.4483  1.9590
 5699WAT    EPW23518   5.799   1.559   3.759  0.3664 -0.2771 -0.0951
 5700WAT      O23519   5.141   2.899   3.354  0.5429  0.1865  0.4278
 5700WAT     H123520   5.190   2.830   3.334  0.8068  0.1374  1.1954
 5700WAT     H223521   5.141   2.946   3.281  0.8192 -0.3526  0.0733
 5700WAT    EPW23522   5.148   2.896   3.340  0.6227  0.0996  0.4888
 5701WAT      O23523   5.537   2.532   1.933  0.0591 -0.1469  0.6963
 5701WAT     H123524   5.484   2.581   1.982 -0.8338 -0.9247  0.5427
 5701WAT     H223525   5.505   2.541   1.853  0.0309 -0.7876  0.6327
 5701WAT    EPW23526   5.525   2.540   1.929 -0.0770 -0.3564  0.6642
 5702WAT      O23527   5.913   4.492   1.580 -0.0990  0.1398  0.1695
 5702WAT     H123528   5.915   4.431   1.517  1.6371 -0.7788  1.0247
 5702WAT     H223529   5.979   4.544   1.560  0.1594  0.1231  0.9431
 5702WAT    EPW23530   5.923   4.490   1.568  0.1956  0.0017  0.4101
 5703WAT      O23531   0.054   6.747   0.462  0.5665  0.1637  0.2474
 5703WAT     H123532   0.019   6.667   0.464  0.4588  0.1779  2.9611
 5703WAT     H223533  -0.011   6.797   0.493  0.9072  1.1831 -0.6644
 5703WAT    EPW23534   0.039   6.742   0.467  0.6009  0.3164  0.5136
 5704WAT      O23535   4.991   0.571   4.937 -1.0101 -0.9087 -0.3395
 5704WAT     H123536   4.997   0.656   4.922  0.0259 -1.4260 -3.6821
 5704WAT     H223537   4.966   0.566   5.021 -0.4588  2.6023  0.1575
 5704WAT    EPW23538   4.988   0.583   4.948 -0.7756 -0.4664 -0.7599
 5705WAT      O23539   2.619   2.808   2.861 -0.6441  0.2079 -0.2818
 5705WAT     H123540   2.632   2.775   2.781 -2.2529 -0.4421 -0.3092
 5705WAT     H223541   2.682   2.771   2.909 -2.6652 -3.5054 -0.1738
 5705WAT    EPW23542   2.630   2.797   2.856 -1.1803 -0.4366 -0.2699
 5706WAT      O23543   5.889   6.430   2.834 -0.2631 -0.1549 -0.4921
 5706WAT     H123544   5.924   6.353   2.857 -0.5524  0.2618  1.5482
 5706WAT     H223545   5.958   6.480   2.816  0.2845  0.3078  2.3394
 5706WAT    EPW23546   5.904   6.426   2.835 -0.2249 -0.0250  0.2275
 5707WAT      O23547   6.131   0.837   5.446  0.6644 -0.0654 -0.2716
 5707WAT     H123548   6.050   0.806   5.458  0.7302 -0.6369 -1.2342
 5707WAT     H223549   6.127   0.875   5.367  1.7303 -1.4764 -1.0428
 5707WAT    EPW23550   6.118   0.838   5.436  0.8316 -0.3582 -0.5277
 5708WAT      O23551   5.049   1.823   3.248 -0.0167  0.0365  0.2959
 5708WAT     H123552   5.053   1.867   3.172  0.8732  0.9034  0.8229
 5708WAT     H223553   4.994   1.758   3.230  0.6907 -0.1751 -1.2911
 5708WAT    EPW23554   5.041   1.820   3.234  0.2193  0.1333  0.1393
 5709WAT      O23555   5.180   5.995   3.250  0.1289  0.3264  0.5362
 5709WAT     H123556   5.152   5.915   3.270  1.3898  0.0045  1.1043
 5709WAT     H223557   5.188   6.034   3.327  0.5201  0.6390  0.3449
 5709WAT    EPW23558   5.177   5.989   3.264  0.3729  0.3250  0.5919
 5710WAT      O23559   7.126   4.365   5.470  0.0131  0.0280  0.0286
 5710WAT     H123560   7.077   4.373   5.398 -1.2340 -3.3224  0.2854
 5710WAT     H223561   7.100   4.431   5.521 -1.9288  0.2410 -1.1327
 5710WAT    EPW23562   7.115   4.376   5.467 -0.4580 -0.4354 -0.1050
 5711WAT      O23563   1.391   2.633   5.391  0.0769  0.1733 -0.7770
 5711WAT     H123564   1.450   2.572   5.414  1.8923  1.6287 -1.3324
 5711WAT     H223565   1.389   2.626   5.304  0.9812  1.4478 -0.9260
 5711WAT    EPW23566   1.399   2.623   5.381  0.4786  0.5765 -0.8810
 5712WAT      O23567   2.730   1.381   7.549  0.2122  0.3055  0.5258
 5712WAT     H123568   2.782   1.451   7.547  0.9225 -0.2034 -1.5124
 5712WAT     H223569   2.725   1.357   7.465 -1.9885 -0.6618  0.8585
 5712WAT    EPW23570   2.737   1.388   7.536 -0.0080  0.0874  0.2739
 5713WAT      O23571   5.302   6.529   0.170  0.7378  0.1318  0.2334
 5713WAT     H123572   5.359   6.548   0.107  1.0862  1.1362  0.8324
 5713WAT     H223573   5.225   6.553   0.136  0.6965 -0.9001 -0.4417
 5713WAT    EPW23574   5.299   6.535   0.155  0.7832  0.1277  0.2222
 5714WAT      O23575   0.391   1.827   4.454 -0.0473 -0.5205 -0.2899
 5714WAT     H123576   0.378   1.785   4.529  0.0086  0.6038  0.3574
 5714WAT     H223577   0.464   1.791   4.423 -0.4901 -1.5363 -0.2197
 5714WAT    EPW23578   0.400   1.815   4.460 -0.1044 -0.5045 -0.1839
 5715WAT      O23579   6.150   6.530   5.429 -0.3213  0.0934  0.4282
 5715WAT     H123580   6.164   6.447   5.451  1.9616  0.8707  2.3870
 5715WAT     H223581   6.222   6.570   5.455 -1.5305  2.7888 -0.0426
 5715WAT    EPW23582   6.162   6.524   5.436 -0.1627  0.6064  0.6480
 5716WAT      O23583   3.830   2.546   1.304  0.2300 -0.0689  0.5707
 5716WAT     H123584   3.889   2.602   1.273  0.8645 -0.6917  0.6117
 5716WAT     H223585   3.775   2.534   1.237  0.7115 -0.2240  0.1938
 5716WAT    EPW23586   3.831   2.553   1.290  0.3948 -0.1838  0.5211
 5717WAT      O23587   3.871   2.261   2.984  0.2601 -0.2021 -0.6582
 5717WAT     H123588   3.808   2.310   3.018  2.5313  2.7699 -0.2973
 5717WAT     H223589   3.832   2.221   2.917 -2.3484  0.1213  0.5358
 5717WAT    EPW23590   3.856   2.263   2.979  0.2103  0.2847 -0.4285
 5718WAT      O23591   4.877   6.594   2.549  0.7976  0.1462  0.3416
 5718WAT     H123592   4.923   6.644   2.603 -1.2671  0.9593  1.4768
 5718WAT     H223593   4.829   6.651   2.504  0.0235 -0.6781  0.0845
 5718WAT    EPW23594   4.876   6.610   2.551  0.3783  0.1445  0.4713
 5719WAT      O23595   3.458   0.814   3.280 -0.4595 -0.4539  0.6931
 5719WAT     H123596   3.385   0.775   3.252  0.2087  0.1775 -2.2465
 5719WAT     H223597   3.515   0.797   3.216  1.5527  0.3491  2.1942
 5719WAT    EPW23598   3.456   0.806   3.266 -0.0635 -0.2420  0.4806
 5720WAT      O23599   7.616   0.789   6.488 -0.2983 -0.1840 -0.0105
 5720WAT     H123600   7.541   0.780   6.445 -1.1485  3.7471  0.3233
 5720WAT     H223601   7.591   0.800   6.571  0.7686 -0.3949  0.3569
 5720WAT    EPW23602   7.601   0.789   6.494 -0.2663  0.3656  0.0931
 5721WAT      O23603   2.052   2.669   4.108 -0.2598  0.2677 -0.1416
 5721WAT     H123604   2.125   2.711   4.134  0.4824 -0.8621 -0.3170
 5721WAT     H223605   1.992   2.732   4.108  1.2154  1.8567 -2.3583
 5721WAT    EPW23606   2.054   2.685   4.112  0.0678  0.3355 -0.4950
 5722WAT      O23607   5.164   5.104   3.583 -0.5221  0.0363  0.1870
 5722WAT     H123608   5.197   5.026   3.560  0.3892  0.2520  0.6835
 5722WAT     H223609   5.209   5.160   3.534  0.6946  0.4211  1.6361
 5722WAT    EPW23610   5.176   5.100   3.573 -0.2078  0.1250  0.4744
 5723WAT      O23611   3.204   6.530   7.490 -0.2555  0.2331 -0.0094
 5723WAT     H123612   3.132   6.514   7.444 -0.8596  0.2488  0.8951
 5723WAT     H223613   3.191   6.487   7.565  0.7560  0.0936  0.1090
 5723WAT    EPW23614   3.192   6.521   7.494 -0.1953  0.2148  0.1417
 5724WAT      O23615   4.062   6.093   3.215  0.0954 -0.1112 -0.4762
 5724WAT     H123616   4.132   6.044   3.232  1.4859  1.8476 -0.2277
 5724WAT     H223617   4.009   6.079   3.283  0.0584 -1.8595 -0.8238
 5724WAT    EPW23618   4.064   6.084   3.228  0.2954 -0.0801 -0.4909
 5725WAT      O23619   6.030   4.015   4.385 -0.4096  0.6832  0.0156
 5725WAT     H123620   5.970   4.057   4.338 -0.6635 -0.0737 -0.3594
 5725WAT     H223621   6.092   3.996   4.327  0.2195  1.4830  0.4075
 5725WAT    EPW23622   6.030   4.018   4.370 -0.3542  0.6895  0.0181
 5726WAT      O23623   6.270   6.682   2.783  0.1410  0.0618 -0.3666
 5726WAT     H123624   6.269   6.726   2.859  0.4034 -1.4290  0.5478
 5726WAT     H223625   6.192   6.701   2.748 -0.4522 -0.0617  0.8135
 5726WAT    EPW23626   6.258   6.691   2.789  0.0921 -0.1766 -0.0572
 5727WAT      O23627   1.336   1.572   4.896  0.1429 -0.1927  0.1362
 5727WAT     H123628   1.385   1.642   4.913 -0.3134 -0.3326  2.1916
 5727WAT     H223629   1.280   1.569   4.962  0.9741 -3.2476  0.8735
 5727WAT    EPW23630   1.335   1.582   4.908  0.1983 -0.6646  0.5488
 5728WAT      O23631   2.449   6.199   1.468 -0.2317 -0.9574  0.4132
 5728WAT     H123632   2.390   6.189   1.532 -1.4899  0.5637 -0.4566
 5728WAT     H223633   2.401   6.202   1.396  0.8807  0.5711 -0.3084
 5728WAT    EPW23634   2.433   6.198   1.467 -0.2532 -0.5069  0.1781
 5729WAT      O23635   5.457   6.351   1.585  0.6354 -0.7513 -0.3137
 5729WAT     H123636   5.460   6.428   1.545  0.3350 -0.6024 -0.0500
 5729WAT     H223637   5.408   6.302   1.531 -1.4320 -0.0095  0.7528
 5729WAT    EPW23638   5.450   6.355   1.571  0.2857 -0.6197 -0.1172
 5730WAT      O23639   4.916   1.281   3.962 -0.0487 -0.5093  0.1656
 5730WAT     H123640   4.881   1.305   3.886 -0.1619 -1.2396 -0.0135
 5730WAT     H223641   4.851   1.293   4.019  0.9910  3.5448  0.8676
 5730WAT    EPW23642   4.901   1.287   3.960  0.0882 -0.0183  0.2428
 5731WAT      O23643   1.886   4.294   6.757 -0.0932 -0.1417  0.4994
 5731WAT     H123644   1.866   4.338   6.830 -2.5863  1.4843 -0.9939
 5731WAT     H223645   1.810   4.260   6.732  0.9762 -1.8787 -0.6463
 5731WAT    EPW23646   1.872   4.296   6.764 -0.3035 -0.1581  0.1095
 5732WAT      O23647   4.362   1.521   3.063  0.1514 -0.5588 -0.6511
 5732WAT     H123648   4.301   1.549   3.120 -1.5885  2.2405 -3.5717
 5732WAT     H223649   4.316   1.475   3.005  1.0276  0.3115 -2.0927
 5732WAT    EPW23650   4.346   1.518   3.063  0.0238 -0.0167 -1.2955
 5733WAT      O23651   6.157   0.927   4.179 -0.1819  1.0074 -0.3977
 5733WAT     H123652   6.139   0.847   4.209  2.4250  0.4464 -0.0564
 5733WAT     H223653   6.094   0.942   4.121 -1.6953 -0.5763  0.7294
 5733WAT    EPW23654   6.145   0.917   4.175 -0.0204  0.6906 -0.1808
 5734WAT      O23655   4.358   0.452   3.173 -0.2996  0.0415 -0.5222
 5734WAT     H123656   4.311   0.501   3.118 -0.6814 -1.2993 -1.4582
 5734WAT     H223657   4.364   0.375   3.132  0.3987 -0.6613  0.8112
 5734WAT    EPW23658   4.352   0.448   3.159 -0.2528 -0.2604 -0.4635
 5735WAT      O23659   4.661   3.884   5.434  0.0562  0.2589  0.1328
 5735WAT     H123660   4.734   3.837   5.429 -0.7288 -1.0350  0.2377
 5735WAT     H223661   4.654   3.902   5.520 -0.1990 -0.3907  0.2542
 5735WAT    EPW23662   4.671   3.880   5.446 -0.0975 -0.0282  0.1662
 5736WAT      O23663   3.964   2.508   3.435  0.6867  0.5832 -0.1058
 5736WAT     H123664   3.948   2.484   3.517  1.7224 -0.6166 -0.2351
 5736WAT     H223665   4.002   2.586   3.443 -0.4470  1.1050  0.4603
 5736WAT    EPW23666   3.967   2.516   3.448  0.6722  0.4830 -0.0413
 5737WAT      O23667   5.008   2.243   3.652  0.2911 -0.4477 -0.4535
 5737WAT     H123668   4.942   2.228   3.707  0.3997  1.7554  0.3784
 5737WAT     H223669   4.994   2.186   3.587 -2.8901  0.4123 -0.6933
 5737WAT    EPW23670   4.997   2.233   3.650 -0.1628  0.0048 -0.3660
 5738WAT      O23671   4.840   7.465   4.399 -0.1824  0.3660  0.0567
 5738WAT     H123672   4.892   7.511   4.452 -0.4170  0.2103  0.4298
 5738WAT     H223673   4.788   7.423   4.454 -0.7446  0.5685 -0.3103
 5738WAT    EPW23674   4.840   7.466   4.415 -0.3001  0.3729  0.0576
 5739WAT      O23675   3.522   5.037   0.513  0.3691  0.7430 -0.4344
 5739WAT     H123676   3.572   5.074   0.574  2.0744 -1.2678 -0.4820
 5739WAT     H223677   3.458   5.000   0.559  0.5313  0.9161 -0.0648
 5739WAT    EPW23678   3.520   5.037   0.529  0.6449  0.4715 -0.3868
 5740WAT      O23679   2.403   2.568   4.589  0.1039 -0.3061 -0.5931
 5740WAT     H123680   2.442   2.640   4.619  0.0267 -0.6343  0.3206
 5740WAT     H223681   2.454   2.503   4.618  0.4529 -0.6178 -1.8341
 5740WAT    EPW23682   2.416   2.569   4.598  0.1441 -0.4006 -0.6414
 5741WAT      O23683   3.949   2.044   3.908  0.5077 -0.1006  0.2409
 5741WAT     H123684   4.022   2.082   3.878  1.4356 -0.6496  1.6769
 5741WAT     H223685   3.929   1.987   3.845  0.3537  1.1800 -0.9235
 5741WAT    EPW23686   3.957   2.041   3.894  0.6221  0.0075  0.2810
 5742WAT      O23687   5.315   3.062   7.278 -0.0667 -0.5439  0.1826
 5742WAT     H123688   5.340   3.137   7.313 -1.2923  1.0352 -2.0709
 5742WAT     H223689   5.233   3.052   7.304  0.1220 -1.1841  0.5627
 5742WAT    EPW23690   5.307   3.071   7.287 -0.2199 -0.4052 -0.0941
 5743WAT      O23691   3.086   0.387   4.500  0.4270 -0.2036  0.1532
 5743WAT     H123692   3.096   0.352   4.420 -0.0445 -0.5256  0.2323
 5743WAT     H223693   3.112   0.470   4.489  0.8660 -0.3817 -0.2082
 5743WAT    EPW23694   3.092   0.394   4.486  0.4222 -0.2775  0.1115
 5744WAT      O23695   6.925   6.024   3.809 -0.2082 -0.1496 -0.2682
 5744WAT     H123696   6.960   6.089   3.855  0.3956 -2.2252  2.5052
 5744WAT     H223697   6.935   6.049   3.726  2.8275  1.8827  0.5488
 5744WAT    EPW23698   6.932   6.037   3.804  0.3294 -0.1560  0.2622
 5745WAT      O23699   2.144   7.067   3.141  0.0896 -0.4890 -0.4221
 5745WAT     H123700   2.192   7.079   3.069 -0.2784  0.6687 -0.4857
 5745WAT     H223701   2.194   7.100   3.204 -0.0990 -0.4086 -0.3159
 5745WAT    EPW23702   2.159   7.073   3.140  0.0073 -0.3061 -0.4158
 5746WAT      O23703   1.860   7.350   3.415  0.1208  0.4264  0.2079
 5746WAT     H123704   1.921   7.317   3.467  0.0683  0.2948  0.1855
 5746WAT     H223705   1.893   7.341   3.335  0.2941  0.8214  0.2296
 5746WAT    EPW23706   1.874   7.344   3.411  0.1386  0.4653  0.2078
 5747WAT      O23707   2.181   1.697   7.848  0.0338  0.2852 -0.4372
 5747WAT     H123708   2.165   1.723   7.767 -2.2480  0.8640  0.1238
 5747WAT     H223709   2.152   1.764   7.897  3.1445  0.8657  0.8835
 5747WAT    EPW23710   2.174   1.711   7.843  0.1563  0.4564 -0.1593
 5748WAT      O23711   5.247   2.648   3.386  0.3838  0.4165  0.8770
 5748WAT     H123712   5.242   2.602   3.312  0.7544  2.9095 -0.8225
 5748WAT     H223713   5.192   2.606   3.440  0.2703 -1.6071 -0.6946
 5748WAT    EPW23714   5.238   2.635   3.383  0.4218  0.4858  0.3938
 5749WAT      O23715   2.577   7.447   6.556  0.3222 -0.1605  0.0130
 5749WAT     H123716   2.592   7.474   6.638 -0.8001 -0.4006  0.3159
 5749WAT     H223717   2.533   7.372   6.567 -0.6455  0.2620 -0.7953
 5749WAT    EPW23718   2.573   7.440   6.570  0.0135 -0.1335 -0.0617
 5750WAT      O23719   7.163   6.041   6.998 -0.1980 -0.2499 -0.5746
 5750WAT     H123720   7.210   5.993   6.943 -0.4065 -1.1361  0.0115
 5750WAT     H223721   7.126   5.983   7.051 -0.3506  0.5632  0.2437
 5750WAT    EPW23722   7.164   6.026   6.997 -0.2514 -0.2607 -0.3671
 5751WAT      O23723   7.199   5.103   4.064  0.8684  0.3628 -0.4287
 5751WAT     H123724   7.189   5.139   4.143 -2.8867  0.9456 -0.9657
 5751WAT     H223725   7.185   5.018   4.077 -0.6199  0.5657 -0.4870
 5751WAT    EPW23726   7.195   5.096   4.077  0.0939  0.4789 -0.5167
 5752WAT      O23727   3.136   1.467   6.027 -0.5988  0.2663 -0.1526
 5752WAT     H123728   3.152   1.422   6.100  0.8225 -1.4615 -1.4063
 5752WAT     H223729   3.207   1.516   6.017 -1.6096  1.9419  0.5566
 5752WAT    EPW23730   3.149   1.467   6.036 -0.5381  0.2586 -0.2331
 5753WAT      O23731   6.442   3.009   6.662  0.3308  0.4242 -0.2517
 5753WAT     H123732   6.434   2.940   6.609  0.0071  0.9478 -0.8942
 5753WAT     H223733   6.529   3.017   6.671  0.4411  0.9211 -1.5144
 5753WAT    EPW23734   6.454   3.000   6.656  0.2992  0.5750 -0.5332
 5754WAT      O23735   2.920   0.115   2.287  0.6637  0.0703 -0.0070
 5754WAT     H123736   2.957   0.107   2.366 -0.8975  1.4157  0.9478
 5754WAT     H223737   2.923   0.201   2.272  1.2039 -0.1957 -1.5745
 5754WAT    EPW23738   2.926   0.127   2.297  0.5129  0.2298 -0.0975
 5755WAT      O23739   5.293   2.890   4.152 -0.3800 -0.2172 -0.1906
 5755WAT     H123740   5.232   2.863   4.097  0.8439 -1.1000 -1.1790
 5755WAT     H223741   5.338   2.817   4.171 -0.0514  0.2801  1.0372
 5755WAT    EPW23742   5.291   2.875   4.147 -0.1507 -0.2741 -0.1552
 5756WAT      O23743   4.203   2.889   0.110 -0.1706  0.5091 -0.0087
 5756WAT     H123744   4.176   2.878   0.027 -2.3439 -0.0220  0.6959
 5756WAT     H223745   4.166   2.964   0.133  0.3318  0.5974  0.5160
 5756WAT    EPW23746   4.194   2.898   0.101 -0.4174  0.4437  0.1729
 5757WAT      O23747   5.643   4.869   0.818  0.0895 -0.1457 -0.2836
 5757WAT     H123748   5.688   4.897   0.888 -1.5912 -0.6640  1.0553
 5757WAT     H223749   5.667   4.785   0.811  0.7454  0.0677 -0.7671
 5757WAT    EPW23750   5.653   4.860   0.827 -0.0619 -0.1907 -0.1572
 5758WAT      O23751   5.281   2.575   2.713 -0.0460  0.0069 -0.0754
 5758WAT     H123752   5.264   2.659   2.698 -2.6571 -0.1773  1.3443
 5758WAT     H223753   5.227   2.532   2.660  0.3379 -0.7787  0.1472
 5758WAT    EPW23754   5.271   2.581   2.703 -0.3750 -0.1364  0.1672
 5759WAT      O23755   3.946   3.148   5.697 -0.0945  0.6403 -0.5143
 5759WAT     H123756   4.008   3.209   5.704 -0.0228  0.4700  0.5251
 5759WAT     H223757   3.939   3.136   5.611  1.1555  0.8313 -0.6698
 5759WAT    EPW23758   3.954   3.155   5.685  0.1007  0.6433 -0.3837
 5760WAT      O23759   1.851   1.073   0.054  1.0598 -0.3387  0.4287
 5760WAT     H123760   1.817   1.151   0.036 -0.1150 -1.4556 -2.9304
 5760WAT     H223761   1.788   1.032   0.098  1.4222  0.2829  1.5932
 5760WAT    EPW23762   1.837   1.079   0.058  0.9398 -0.4118  0.1045
 5761WAT      O23763   1.225   1.209   4.717  0.0194 -0.2057  0.1590
 5761WAT     H123764   1.186   1.139   4.683  1.9021 -1.0052 -0.4844
 5761WAT     H223765   1.219   1.269   4.654 -0.2155 -0.2779  0.1100
 5761WAT    EPW23766   1.218   1.208   4.703  0.2628 -0.3344  0.0567
 5762WAT      O23767   4.050   6.508   2.401 -0.0476 -0.1746 -0.0942
 5762WAT     H123768   3.982   6.550   2.367  1.4854  0.1253 -3.1306
 5762WAT     H223769   4.037   6.425   2.375  0.4728 -0.2001 -0.2891
 5762WAT    EPW23770   4.038   6.502   2.392  0.2557 -0.1340 -0.5715
 5763WAT      O23771   5.535   7.654   0.853 -0.6129  0.6912  0.1657
 5763WAT     H123772   5.483   7.719   0.828 -1.7900 -0.4054 -0.3644
 5763WAT     H223773   5.564   7.621   0.777 -0.6905  0.0949  0.3894
 5763WAT    EPW23774   5.532   7.658   0.838 -0.7982  0.4411  0.1205
 5764WAT      O23775   2.246   1.536   0.751 -0.0401  0.3044  0.6945
 5764WAT     H123776   2.328   1.566   0.760 -0.1369  0.6303  0.5091
 5764WAT     H223777   2.256   1.465   0.701  0.1705  0.1341  0.9753
 5764WAT    EPW23778   2.260   1.530   0.745 -0.0233  0.3274  0.7086
 5765WAT      O23779   6.207   3.710   4.751  0.4268 -0.4654 -0.3643
 5765WAT     H123780   6.212   3.791   4.782  2.1150 -1.0054  0.9436
 5765WAT     H223781   6.266   3.709   4.687  0.8032 -0.7874 -0.0196
 5765WAT    EPW23782   6.217   3.722   4.746  0.7318 -0.5927 -0.1202
 5766WAT      O23783   4.289   0.741   2.783 -0.3601 -0.2106 -0.3266
 5766WAT     H123784   4.237   0.772   2.720 -0.5605  1.4608  0.5886
 5766WAT     H223785   4.331   0.812   2.811  0.4953 -1.0930  0.7200
 5766WAT    EPW23786   4.287   0.756   2.778 -0.2633 -0.0941 -0.0368
 5767WAT      O23787   5.773   6.096   2.655  0.1882  0.7118  0.3076
 5767WAT     H123788   5.803   6.116   2.734 -1.1777 -0.1130  1.0845
 5767WAT     H223789   5.816   6.023   2.635  0.7974  1.1205  0.1369
 5767WAT    EPW23790   5.784   6.088   2.664  0.0764  0.6504  0.3972
 5768WAT      O23791   6.225   2.363   6.017  0.4138  0.4916  0.3591
 5768WAT     H123792   6.248   2.283   5.993 -1.9540 -0.2924  0.4637
 5768WAT     H223793   6.237   2.364   6.103  0.4530  0.2435  0.3564
 5768WAT    EPW23794   6.230   2.352   6.026  0.0698  0.3391  0.3742
 5769WAT      O23795   5.498   3.280   1.618  0.0479  0.1037  0.2417
 5769WAT     H123796   5.536   3.204   1.638  0.1296  0.5099  1.7570
 5769WAT     H223797   5.554   3.316   1.562 -0.0391 -0.9747 -0.5728
 5769WAT    EPW23798   5.512   3.274   1.613  0.0471  0.0044  0.3453
 5770WAT      O23799   4.385   2.468   7.045  0.0442 -0.5408 -0.2931
 5770WAT     H123800   4.392   2.466   7.131 -0.8347  0.0399 -0.1979
 5770WAT     H223801   4.456   2.511   7.019 -1.6274  2.9343  0.4400
 5770WAT    EPW23802   4.396   2.474   7.054 -0.3325  0.0583 -0.1707
 5771WAT      O23803   2.416   0.131   5.744  0.3150  0.5220  0.0910
 5771WAT     H123804   2.334   0.140   5.715  1.5440  4.2953 -2.9174
 5771WAT     H223805   2.440   0.053   5.711 -1.3162  0.4390 -1.0507
 5771WAT    EPW23806   2.407   0.121   5.735  0.2556  1.0671 -0.5221
 5772WAT      O23807   0.307   5.049   7.765  0.6934  0.0674  0.2749
 5772WAT     H123808   0.239   5.044   7.711  0.2546 -3.0817  0.9244
 5772WAT     H223809   0.369   5.003   7.725  0.9753 -0.7377  1.5486
 5772WAT    EPW23810   0.306   5.041   7.751  0.6702 -0.5167  0.5590
 5773WAT      O23811   2.764   2.400   6.059  0.7416 -0.2134  0.6343
 5773WAT     H123812   2.833   2.436   6.020  0.3770 -1.0125 -0.8441
 5773WAT     H223813   2.789   2.391   6.142  2.6309 -1.0031  0.0343
 5773WAT    EPW23814   2.778   2.404   6.065  0.9668 -0.4481  0.3273
 5774WAT      O23815   5.933   3.619   3.794 -0.0292  0.2335 -0.3871
 5774WAT     H123816   5.939   3.559   3.856 -0.6554  1.6203  1.0744
 5774WAT     H223817   5.848   3.641   3.794  0.3897  2.0250  0.0345
 5774WAT    EPW23818   5.921   3.614   3.803 -0.0598  0.7030 -0.1089
 5775WAT      O23819   6.553   2.403   3.837  0.4161 -0.2614  0.0634
 5775WAT     H123820   6.581   2.394   3.755  0.2149 -1.6339  0.1144
 5775WAT     H223821   6.598   2.341   3.881  1.0288  0.8908  1.1376
 5775WAT    EPW23822   6.564   2.393   3.831  0.4769 -0.2940  0.2296
 5776WAT      O23823   4.393   1.528   0.238 -0.3763 -0.1777 -0.2759
 5776WAT     H123824   4.441   1.600   0.250 -0.7445  0.2968 -1.4942
 5776WAT     H223825   4.329   1.554   0.185  0.9844 -1.9467 -3.0296
 5776WAT    EPW23826   4.391   1.542   0.232 -0.2297 -0.3690 -0.8626
 5777WAT      O23827   5.056   3.242   6.555  0.3604  0.1287  0.1999
 5777WAT     H123828   5.024   3.319   6.528  0.8755  0.3593  0.2191
 5777WAT     H223829   5.138   3.262   6.577  0.8579 -0.6453 -0.8623
 5777WAT    EPW23830   5.064   3.256   6.554  0.5100  0.0484  0.0458
 5778WAT      O23831   4.580   0.061   5.077 -0.2013  0.1650  0.0324
 5778WAT     H123832   4.611   0.119   5.019  0.7685 -0.4767 -0.1198
 5778WAT     H223833   4.652   0.031   5.116 -0.6477 -1.2205 -0.1723
 5778WAT    EPW23834   4.595   0.066   5.074 -0.1240 -0.1345 -0.0203
 5779WAT      O23835   6.785   1.440   7.556  0.2377  0.1384 -0.2685
 5779WAT     H123836   6.861   1.443   7.512  0.8532 -2.6808  0.4273
 5779WAT     H223837   6.805   1.471   7.635  1.3444 -2.7070  0.6580
 5779WAT    EPW23838   6.799   1.445   7.561  0.4921 -0.6984 -0.0289
 5780WAT      O23839   5.112   5.387   1.376  0.0564 -0.3433 -0.1252
 5780WAT     H123840   5.090   5.435   1.307  0.5797  0.9533  0.5727
 5780WAT     H223841   5.176   5.433   1.414  2.3204 -2.7961 -0.7333
 5780WAT    EPW23842   5.118   5.401   1.372  0.4682 -0.5141 -0.1120
 5781WAT      O23843   5.146   2.444   0.034 -0.0294 -0.4335 -0.0522
 5781WAT     H123844   5.206   2.505   0.047 -1.8831  1.4330  0.3060
 5781WAT     H223845   5.119   2.457  -0.048  0.9084 -2.1201 -0.6798
 5781WAT    EPW23846   5.151   2.455   0.024 -0.1647 -0.4069 -0.0920
 5782WAT      O23847   4.080   6.728   3.709 -0.4902  0.0872 -0.0679
 5782WAT     H123848   4.154   6.700   3.745 -0.3260  1.2247  0.5274
 5782WAT     H223849   4.048   6.657   3.670  3.0755  0.3830 -4.2574
 5782WAT    EPW23850   4.086   6.713   3.709  0.0608  0.2989 -0.5988
 5783WAT      O23851   5.025   3.798   7.168 -0.1245 -0.1925 -0.3118
 5783WAT     H123852   4.981   3.796   7.093  1.9725 -0.9185 -1.6087
 5783WAT     H223853   4.964   3.781   7.228 -1.8493  0.2665 -1.8351
 5783WAT    EPW23854   5.009   3.795   7.166 -0.0695 -0.2320 -0.7284
 5784WAT      O23855   7.683   4.187   5.526  0.2296 -0.5716 -0.5712
 5784WAT     H123856   7.637   4.115   5.510 -0.4545 -0.0671 -0.9253
 5784WAT     H223857   7.737   4.193   5.458 -2.3929  1.3431 -2.7225
 5784WAT    EPW23858   7.684   4.178   5.514 -0.2589 -0.2142 -0.9413
 5785WAT      O23859   1.958   2.925   0.892 -0.4480 -0.0036  0.1290
 5785WAT     H123860   2.023   2.971   0.927  1.5497 -1.0505 -1.9337
 5785WAT     H223861   1.906   2.908   0.960  1.6955  0.4401  2.0109
 5785WAT    EPW23862   1.960   2.929   0.907  0.1638 -0.0927  0.1023
 5786WAT      O23863   4.633   6.979   1.256  0.1957  0.1223 -0.1895
 5786WAT     H123864   4.661   6.953   1.178  2.2648  1.9973 -0.1654
 5786WAT     H223865   4.685   7.046   1.276 -2.8044  2.3064  1.0792
 5786WAT    EPW23866   4.645   6.985   1.248  0.0582  0.7219  0.0015
 5787WAT      O23867   3.115   2.539   7.131 -0.1338  0.6999  0.2101
 5787WAT     H123868   3.200   2.532   7.110 -0.4326  0.7781 -1.1512
 5787WAT     H223869   3.091   2.613   7.092 -0.8720  0.5722  0.4177
 5787WAT    EPW23870   3.124   2.549   7.122 -0.2870  0.6926  0.0397
 5788WAT      O23871   4.786   5.549   5.335 -0.0557 -0.3791  0.1804
 5788WAT     H123872   4.848   5.492   5.357  0.3344 -0.5424 -1.2425
 5788WAT     H223873   4.712   5.507   5.355  0.2236  0.4010  3.3132
 5788WAT    EPW23874   4.784   5.534   5.341  0.0432 -0.2880  0.4330
 5789WAT      O23875   2.621   0.956   3.856 -0.1586  0.0642 -0.2432
 5789WAT     H123876   2.609   1.039   3.882 -0.8368  0.2135 -1.0248
 5789WAT     H223877   2.667   0.922   3.922  0.0150  1.0191  0.1608
 5789WAT    EPW23878   2.626   0.963   3.870 -0.2331  0.2273 -0.2990
 5790WAT      O23879   7.171   0.199   0.300  0.1233  0.3898  0.8439
 5790WAT     H123880   7.197   0.255   0.361  0.3658 -0.3212  1.4058
 5790WAT     H223881   7.237   0.142   0.294 -1.3952 -1.7865  2.7135
 5790WAT    EPW23882   7.184   0.199   0.308 -0.0652 -0.0367  1.2031
 5791WAT      O23883   7.508   3.420   5.605 -0.3180 -0.3872 -0.2177
 5791WAT     H123884   7.524   3.426   5.519  0.7105 -0.3014 -0.0347
 5791WAT     H223885   7.538   3.341   5.626  1.6595  0.4925  0.4810
 5791WAT    EPW23886   7.515   3.409   5.595  0.1260 -0.2446 -0.0874
 5792WAT      O23887   3.946   1.885   3.665 -0.7343 -0.6588 -0.4938
 5792WAT     H123888   3.879   1.830   3.679  0.3209 -1.5643  1.4807
 5792WAT     H223889   4.016   1.835   3.676  0.2908  1.1146  2.0877
 5792WAT    EPW23890   3.946   1.869   3.669 -0.4270 -0.5306  0.1792
 5793WAT      O23891   5.952   7.439   1.375 -0.1997 -0.0340 -0.7358
 5793WAT     H123892   6.021   7.388   1.361 -0.7865 -0.5321 -1.9360
 5793WAT     H223893   5.985   7.507   1.419  0.3613 -2.1047  2.3992
 5793WAT    EPW23894   5.967   7.442   1.379 -0.2035 -0.4135 -0.4500
 5794WAT      O23895   4.648   4.839   0.629 -0.0223  0.0745  0.6121
 5794WAT     H123896   4.708   4.821   0.689 -0.7084 -2.3554  0.6728
 5794WAT     H223897   4.606   4.763   0.618 -2.5423  1.4314 -0.0271
 5794WAT    EPW23898   4.650   4.825   0.636 -0.4959 -0.0840  0.5266
 5795WAT      O23899   4.754   1.267   1.510  0.0683  0.1004  0.5058
 5795WAT     H123900   4.730   1.325   1.450 -2.2996 -1.8157 -0.5471
 5795WAT     H223901   4.813   1.218   1.469 -0.6486 -0.4587  0.1273
 5795WAT    EPW23902   4.759   1.268   1.495 -0.3874 -0.2652  0.2944
 5796WAT      O23903   3.404   1.579   7.356 -0.2119 -0.0742 -0.0496
 5796WAT     H123904   3.443   1.648   7.319 -3.5202  0.4107 -3.1089
 5796WAT     H223905   3.390   1.525   7.290  1.6565 -3.6147  2.1315
 5796WAT    EPW23906   3.408   1.581   7.341 -0.4246 -0.5255 -0.1793
 5797WAT      O23907   0.946   1.356   4.839  0.2017  0.1832 -0.1963
 5797WAT     H123908   0.972   1.334   4.919  0.8097  0.5879 -0.2714
 5797WAT     H223909   0.999   1.310   4.787 -0.4568 -0.3833 -0.3686
 5797WAT    EPW23910   0.958   1.346   4.843  0.1942  0.1593 -0.2329
 5798WAT      O23911   3.913   1.172   6.714 -0.2141  0.1661  0.0809
 5798WAT     H123912   3.969   1.237   6.700 -2.1958  1.9124 -0.1976
 5798WAT     H223913   3.964   1.101   6.712  2.2277  1.7138  1.4325
 5798WAT    EPW23914   3.929   1.171   6.711 -0.1462  0.6527  0.2394
 5799WAT      O23915   3.488   2.902   0.848 -0.7358  0.0121 -0.6235
 5799WAT     H123916   3.472   2.984   0.873  0.1535  0.1739 -0.5592
 5799WAT     H223917   3.574   2.900   0.837 -0.5590 -1.2745  0.6912
 5799WAT    EPW23918   3.498   2.914   0.850 -0.5783 -0.1541 -0.4198
 5800WAT      O23919   4.322   1.445   5.566  0.0343 -0.5772 -0.7748
 5800WAT     H123920   4.396   1.478   5.534 -0.9796  0.0608 -2.6571
 5800WAT     H223921   4.275   1.516   5.586  0.4636 -0.9668  1.9070
 5800WAT    EPW23922   4.326   1.460   5.564 -0.0520 -0.5405 -0.6567
 5801WAT      O23923   1.959   2.604   2.124 -0.3449 -0.1148  0.5156
 5801WAT     H123924   1.913   2.566   2.060  0.2684  0.3002 -0.1794
 5801WAT     H223925   2.009   2.539   2.154 -0.9981 -0.4394  0.9275
 5801WAT    EPW23926   1.960   2.589   2.119 -0.3508 -0.1015  0.4738
 5802WAT      O23927   2.683   0.875   2.767 -0.4696 -0.9811  0.0495
 5802WAT     H123928   2.616   0.889   2.822 -1.3967 -1.0217 -1.0296
 5802WAT     H223929   2.659   0.917   2.695  0.9704 -0.4928 -0.1645
 5802WAT    EPW23930   2.670   0.883   2.765 -0.3939 -0.9150 -0.1415
 5803WAT      O23931   5.744   5.866   0.054 -0.1964 -0.2916  0.4030
 5803WAT     H123932   5.704   5.800   0.094 -1.6274  0.4736  0.2889
 5803WAT     H223933   5.829   5.850   0.069 -0.5537 -1.5886  1.2401
 5803WAT    EPW23934   5.751   5.854   0.062 -0.4606 -0.3702  0.5098
 5804WAT      O23935   3.842   6.868   2.632  0.5021 -0.6398  0.0690
 5804WAT     H123936   3.770   6.913   2.611  1.0210 -0.4593 -1.4055
 5804WAT     H223937   3.818   6.785   2.618  0.6706 -0.5570 -0.7670
 5804WAT    EPW23938   3.828   6.862   2.627  0.6036 -0.6009 -0.2723
 5805WAT      O23939   6.587   0.706   7.687 -0.3247  0.9150 -0.1967
 5805WAT     H123940   6.555   0.635   7.725  1.8097  1.0406  2.0924
 5805WAT     H223941   6.517   0.744   7.651 -1.4262 -2.7436 -2.4728
 5805WAT    EPW23942   6.572   0.701   7.687 -0.1721  0.3931 -0.1948
 5806WAT      O23943   4.533   5.660   0.140  0.1693 -0.7492  0.0322
 5806WAT     H123944   4.459   5.638   0.181  0.5213 -1.1870  0.4451
 5806WAT     H223945   4.578   5.705   0.200 -0.3243  0.7314 -0.6396
 5806WAT    EPW23946   4.529   5.664   0.155  0.1484 -0.5951 -0.0060
 5807WAT      O23947   5.551   1.428   0.480 -0.6211 -0.2139  0.3700
 5807WAT     H123948   5.474   1.444   0.444 -0.4202  1.7323  0.7435
 5807WAT     H223949   5.531   1.385   0.554 -1.2951 -0.1564  0.2235
 5807WAT    EPW23950   5.537   1.424   0.486 -0.6910  0.0821  0.4035
 5808WAT      O23951   1.939   7.635   4.199  0.0382  0.0608  0.1685
 5808WAT     H123952   1.969   7.572   4.148 -2.1280 -0.3835 -0.6687
 5808WAT     H223953   1.888   7.682   4.146 -0.0171  1.2957  1.2664
 5808WAT    EPW23954   1.935   7.633   4.184 -0.2899  0.1776  0.2070
 5809WAT      O23955   5.772   6.567   3.057 -0.3742 -0.0205 -0.8161
 5809WAT     H123956   5.699   6.595   3.018 -2.1089 -1.1383  1.3962
 5809WAT     H223957   5.828   6.558   2.991 -1.9617  1.5967 -2.5287
 5809WAT    EPW23958   5.769   6.570   3.041 -0.8649  0.0532 -0.7423
 5810WAT      O23959   5.457   2.314   4.583 -0.1664 -0.6236  0.3319
 5810WAT     H123960   5.539   2.332   4.560 -0.5119 -0.1106 -0.5701
 5810WAT     H223961   5.463   2.235   4.620  0.8353 -0.2664  0.9802
 5810WAT    EPW23962   5.470   2.305   4.585 -0.0695 -0.4950  0.2944
 5811WAT      O23963   4.568   1.310   0.659  0.0306  0.1597 -0.5377
 5811WAT     H123964   4.563   1.369   0.594 -0.9948 -0.8386 -1.4084
 5811WAT     H223965   4.484   1.293   0.678  0.2891 -1.4124 -0.6880
 5811WAT    EPW23966   4.555   1.316   0.652 -0.0827 -0.2200 -0.6885
 5812WAT      O23967   1.904   6.387   6.661 -0.2139 -0.4099  0.4046
 5812WAT     H123968   1.972   6.422   6.619  0.6265  0.5545  2.4062
 5812WAT     H223969   1.937   6.314   6.697 -1.2252 -1.8684 -1.4673
 5812WAT    EPW23970   1.919   6.381   6.660 -0.2392 -0.4829  0.4238
 5813WAT      O23971   7.220   6.613   7.355  0.6320  0.2271 -0.0852
 5813WAT     H123972   7.199   6.652   7.280 -1.5820 -0.3452  0.1615
 5813WAT     H223973   7.294   6.653   7.379 -0.5173  2.9650 -0.7343
 5813WAT    EPW23974   7.228   6.625   7.347  0.1352  0.5470 -0.1446
 5814WAT      O23975   7.629   4.312   4.238  1.1255  0.0066 -0.3642
 5814WAT     H123976   7.643   4.362   4.308  2.4370  2.1782 -2.0273
 5814WAT     H223977   7.602   4.236   4.271  0.4370  1.3423  2.3930
 5814WAT    EPW23978   7.627   4.308   4.253  1.2175  0.5247 -0.2026
 5815WAT      O23979   3.849   2.755   2.846  0.3135  0.5912  0.0578
 5815WAT     H123980   3.766   2.768   2.820 -0.3012 -1.8666  0.5041
 5815WAT     H223981   3.896   2.802   2.790 -1.3154  0.6267 -1.3627
 5815WAT    EPW23982   3.843   2.764   2.834 -0.0179  0.2334 -0.0861
 5816WAT      O23983   7.080   6.679   5.025  0.1375 -0.0821  0.2452
 5816WAT     H123984   7.136   6.664   5.090 -0.6108 -0.3761  0.8373
 5816WAT     H223985   7.112   6.750   4.987 -1.5019  2.5973  3.3613
 5816WAT    EPW23986   7.093   6.687   5.029 -0.2152  0.2702  0.7930
 5817WAT      O23987   3.435   3.615   2.065  0.1220  0.4189 -0.4737
 5817WAT     H123988   3.428   3.529   2.051 -0.8792  0.0551  1.8445
 5817WAT     H223989   3.357   3.646   2.041 -0.2434  0.3419  0.5508
 5817WAT    EPW23990   3.422   3.607   2.059 -0.0799  0.3538  0.0201
 5818WAT      O23991   6.518   3.972   0.462 -0.4722  0.1746  0.1522
 5818WAT     H123992   6.471   3.909   0.500  0.0782  0.5517  1.5281
 5818WAT     H223993   6.523   4.033   0.524  0.8530  0.6361 -0.3882
 5818WAT    EPW23994   6.512   3.972   0.477 -0.1951  0.2985  0.2756
 5819WAT      O23995   5.727   7.189   2.230 -0.1713  0.2447 -0.1001
 5819WAT     H123996   5.713   7.269   2.198  1.2265  0.2063 -0.9091
 5819WAT     H223997   5.745   7.141   2.158 -0.9634 -0.7994  0.3676
 5819WAT    EPW23998   5.728   7.193   2.214 -0.0818  0.0848 -0.1505
 5820WAT      O23999   4.963   0.669   6.259 -0.3632 -0.2244  0.0535
 5820WAT     H124000   5.008   0.604   6.221 -0.6121  0.0487 -0.7083
 5820WAT     H224001   5.018   0.697   6.321  1.1959  1.1288 -1.8275
 5820WAT    EPW24002   4.978   0.663   6.263 -0.1697  0.0158 -0.3369
 5821WAT      O24003   4.554   7.637   0.678 -0.1450 -0.6857 -0.1344
 5821WAT     H124004   4.467   7.629   0.683 -0.2278 -0.3428 -1.0187
 5821WAT     H224005   4.576   7.585   0.612  0.4531 -1.5727  0.7274
 5821WAT    EPW24006   4.544   7.628   0.669 -0.0688 -0.7661 -0.1377
 5822WAT      O24007   4.446   2.643   2.195 -0.4263  0.1965 -0.0502
 5822WAT     H124008   4.518   2.619   2.240 -0.4297 -1.2765 -0.7670
 5822WAT     H224009   4.477   2.662   2.116 -0.6253  1.1887  0.1095
 5822WAT    EPW24010   4.461   2.642   2.190 -0.4562  0.1255 -0.1325
 5823WAT      O24011   3.112   7.555   1.253 -0.4017  0.1267  0.7481
 5823WAT     H124012   3.175   7.510   1.293  1.2780 -0.2845 -2.0895
 5823WAT     H224013   3.046   7.498   1.245 -0.4217 -0.0441  2.0474
 5823WAT    EPW24014   3.111   7.540   1.258 -0.1565  0.0407  0.5209
 5824WAT      O24015   5.738   2.411   6.869 -0.2870  0.7671  0.2640
 5824WAT     H124016   5.810   2.377   6.834 -0.6224  1.7743 -1.5976
 5824WAT     H224017   5.677   2.397   6.808 -1.2225  1.5800  0.9688
 5824WAT    EPW24018   5.739   2.404   6.855 -0.4747  1.0360  0.0931
 5825WAT      O24019   5.569   4.351   2.501  0.3534 -0.1094 -0.2532
 5825WAT     H124020   5.655   4.339   2.503  0.2368 -1.2388 -1.0358
 5825WAT     H224021   5.549   4.370   2.584  1.2277 -0.8599  0.1545
 5825WAT    EPW24022   5.579   4.352   2.514  0.4654 -0.3871 -0.3086
 5826WAT      O24023   3.269   6.980   5.575  0.2075 -0.0893  0.0786
 5826WAT     H124024   3.191   6.945   5.590 -0.4118  1.0884 -0.2146
 5826WAT     H224025   3.251   7.064   5.560  1.6901  0.6225  1.8265
 5826WAT    EPW24026   3.255   6.988   5.575  0.3350  0.1898  0.2935
 5827WAT      O24027   7.567   3.669   4.118 -0.0184  0.1211  0.3097
 5827WAT     H124028   7.641   3.646   4.078 -0.1636 -0.1910  0.2179
 5827WAT     H224029   7.593   3.724   4.180  0.4638 -1.0959  1.2280
 5827WAT    EPW24030   7.582   3.674   4.121  0.0314 -0.1048  0.4318
 5828WAT      O24031   5.839   7.263   1.544 -0.1110 -0.2808  0.0355
 5828WAT     H124032   5.791   7.200   1.506 -0.9147 -0.1894  0.8644
 5828WAT     H224033   5.857   7.317   1.478 -1.0872 -0.3606 -0.3173
 5828WAT    EPW24034   5.835   7.262   1.529 -0.3740 -0.2791  0.1058
 5829WAT      O24035   4.449   3.416   1.807 -0.0070 -0.2519  0.1175
 5829WAT     H124036   4.516   3.391   1.857  1.3787  3.0378  0.1338
 5829WAT     H224037   4.386   3.433   1.864  0.4265  0.2343  0.4593
 5829WAT    EPW24038   4.449   3.415   1.823  0.2618  0.3059  0.1704
 5830WAT      O24039   3.798   5.065   2.151  0.6897  0.6594  0.4856
 5830WAT     H124040   3.779   5.149   2.136  0.1080  0.2737 -1.1510
 5830WAT     H224041   3.724   5.032   2.183  0.0255  0.2146 -1.3943
 5830WAT    EPW24042   3.785   5.073   2.153  0.5056  0.5367 -0.0339
 5831WAT      O24043   7.295   4.820   7.715  0.1494 -0.2243 -0.9529
 5831WAT     H124044   7.219   4.821   7.758  0.8131 -0.3127  0.2756
 5831WAT     H224045   7.290   4.748   7.667 -0.3922 -0.4387 -0.5867
 5831WAT    EPW24046   7.283   4.810   7.715  0.1674 -0.2690 -0.7173
 5832WAT      O24047   7.248   5.075   6.986 -0.2950  0.4177  0.6079
 5832WAT     H124048   7.270   5.036   6.911 -0.4426  0.9522  0.2832
 5832WAT     H224049   7.162   5.086   6.980 -0.2244  0.9951  0.6001
 5832WAT    EPW24050   7.239   5.071   6.974 -0.3064  0.5820  0.5588
 5833WAT      O24051   0.909   0.584   4.971  0.4184  0.4227 -0.3514
 5833WAT     H124052   0.893   0.617   5.050  0.8335 -0.8044  0.2626
 5833WAT     H224053   0.981   0.537   4.982  1.2464  1.3071 -1.7816
 5833WAT    EPW24054   0.917   0.582   4.984  0.6020  0.3720 -0.4719
 5834WAT      O24055   5.872   7.235   3.293  0.2381 -0.0189 -0.6882
 5834WAT     H124056   5.791   7.226   3.261  0.2782 -0.9710 -0.5489
 5834WAT     H224057   5.875   7.177   3.358  0.5399  1.0752  0.3235
 5834WAT    EPW24058   5.860   7.225   3.298  0.2886  0.0021 -0.5182
 5835WAT      O24059   1.482   7.505   7.282  0.0635  0.1436 -0.2016
 5835WAT     H124060   1.490   7.548   7.358  0.1791  2.6221 -1.5198
 5835WAT     H224061   1.549   7.449   7.283 -0.5361 -0.6612  1.9116
 5835WAT    EPW24062   1.493   7.503   7.294 -0.0080  0.3909 -0.0841
 5836WAT      O24063   6.350   0.269   6.243 -0.4718 -0.7064  0.4565
 5836WAT     H124064   6.337   0.287   6.158 -0.0558 -1.7403  0.1569
 5836WAT     H224065   6.286   0.213   6.262  0.1757 -1.4578  0.4744
 5836WAT    EPW24066   6.338   0.263   6.233 -0.3147 -0.9701  0.4149
 5837WAT      O24067   4.083   2.826   6.649 -0.5677  0.1517  0.6564
 5837WAT     H124068   4.150   2.798   6.697  0.3481 -1.0870 -1.2291
 5837WAT     H224069   4.018   2.771   6.671 -1.3161  1.7850  3.0109
 5837WAT    EPW24070   4.083   2.814   6.660 -0.5430  0.2100  0.7257
 5838WAT      O24071   3.452   2.174   3.147 -0.4460  0.1240 -0.7690
 5838WAT     H124072   3.399   2.241   3.163  0.4441  0.9332 -1.1623
 5838WAT     H224073   3.482   2.152   3.226  1.1528  1.7980 -0.8488
 5838WAT    EPW24074   3.449   2.180   3.161 -0.0783  0.4908 -0.8389
 5839WAT      O24075   4.616   5.048   7.276  0.3794  0.1061  0.2442
 5839WAT     H124076   4.562   5.052   7.344 -0.0715  0.2385 -0.1090
 5839WAT     H224077   4.627   5.132   7.253  1.1752  0.1130  0.6486
 5839WAT    EPW24078   4.609   5.061   7.282  0.4303  0.1267  0.2518
 5840WAT      O24079   2.725   1.934   4.330  0.2318 -0.1644  0.1249
 5840WAT     H124080   2.779   1.992   4.293 -1.0300  0.1025 -1.4306
 5840WAT     H224081   2.648   1.952   4.292 -0.2620 -2.6615 -0.1851
 5840WAT    EPW24082   2.721   1.945   4.319 -0.0275 -0.4939 -0.1507
 5841WAT      O24083   4.848   3.618   1.380 -0.1282  0.0440  0.1889
 5841WAT     H124084   4.900   3.620   1.450 -1.7489 -0.9885  1.4960
 5841WAT     H224085   4.851   3.700   1.350  1.1246  0.3387  1.0683
 5841WAT    EPW24086   4.856   3.631   1.386 -0.1826 -0.0650  0.5119
 5842WAT      O24087   5.497   2.554   1.588  0.2867 -0.0196 -0.2020
 5842WAT     H124088   5.512   2.640   1.597 -0.5868  0.0705  0.4797
 5842WAT     H224089   5.410   2.547   1.599 -0.0317 -0.6884 -2.5886
 5842WAT    EPW24090   5.486   2.566   1.591  0.1106 -0.1051 -0.4538
 5843WAT      O24091   2.374   1.438   1.027 -0.0239 -0.1948  0.9768
 5843WAT     H124092   2.340   1.387   1.089 -0.8754 -0.6782  0.1519
 5843WAT     H224093   2.312   1.437   0.965  0.5424  0.7565  0.3817
 5843WAT    EPW24094   2.360   1.430   1.027 -0.0661 -0.1257  0.7670
 5844WAT      O24095   5.452   1.790   0.133 -0.9007  0.5595  0.3401
 5844WAT     H124096   5.432   1.779   0.218 -0.6154 -1.0404  0.2460
 5844WAT     H224097   5.526   1.745   0.125 -1.1903  0.2756 -0.8609
 5844WAT    EPW24098   5.460   1.782   0.145 -0.9013  0.2812  0.1488
 5845WAT      O24099   2.118   1.024   2.840  0.0622  0.0316  0.0452
 5845WAT     H124100   2.151   0.968   2.898  0.2241  1.4735  1.4338
 5845WAT     H224101   2.186   1.074   2.818  0.0339 -0.5648 -1.5403
 5845WAT    EPW24102   2.133   1.023   2.845  0.0820  0.1565  0.0161
 5846WAT      O24103   2.156   0.488   5.070  0.0118  0.4156 -0.6564
 5846WAT     H124104   2.165   0.570   5.043 -0.4947  0.0378 -2.0389
 5846WAT     H224105   2.226   0.475   5.121  0.1997  1.6236 -0.5946
 5846WAT    EPW24106   2.168   0.498   5.074 -0.0353  0.5383 -0.8515
 5847WAT      O24107   0.408   4.243   0.083  0.0782 -0.6756 -0.3800
 5847WAT     H124108   0.485   4.264   0.048 -0.6086 -1.0425 -2.2004
 5847WAT     H224109   0.385   4.315   0.126  1.4310 -0.5689  0.2227
 5847WAT    EPW24110   0.416   4.257   0.084  0.1766 -0.7140 -0.5599
 5848WAT      O24111   5.076   7.568   7.606  0.1510  0.2215 -0.0584
 5848WAT     H124112   5.046   7.627   7.549 -3.0270  0.4841  1.6397
 5848WAT     H224113   5.047   7.493   7.574  2.2550 -0.2414 -1.0301
 5848WAT    EPW24114   5.068   7.566   7.593 -0.0077  0.1919  0.0489
 5849WAT      O24115   1.448   1.143   7.490  0.1660  0.0276  0.3437
 5849WAT     H124116   1.465   1.071   7.538  0.0809  0.5977  1.2557
 5849WAT     H224117   1.526   1.181   7.482  0.2622 -0.3001 -0.3925
 5849WAT    EPW24118   1.462   1.138   7.496  0.1676  0.0634  0.3696
 5850WAT      O24119   1.756   1.377   2.959 -0.2443 -0.4842 -0.5640
 5850WAT     H124120   1.834   1.358   2.924 -0.4610 -1.3751 -0.5796
 5850WAT     H224121   1.744   1.461   2.937  0.1556 -0.6874 -1.5978
 5850WAT    EPW24122   1.766   1.387   2.951 -0.2173 -0.6458 -0.7190
 5851WAT      O24123   6.614   1.822   6.107 -0.0319 -0.0548 -0.1787
 5851WAT     H124124   6.545   1.872   6.091 -0.6267 -0.3843  1.1988
 5851WAT     H224125   6.597   1.748   6.063  0.0133  0.2933 -0.7868
 5851WAT    EPW24126   6.601   1.818   6.099 -0.1131 -0.0521 -0.0650
 5852WAT      O24127   0.577   6.064   6.347 -0.9626  0.3896  0.5257
 5852WAT     H124128   0.507   6.012   6.348  0.0960 -1.1297  1.7597
 5852WAT     H224129   0.615   6.046   6.271 -2.0890  1.5673 -0.3690
 5852WAT    EPW24130   0.572   6.054   6.336 -0.9726  0.3391  0.5758
 5853WAT      O24131   6.259   4.007   0.661 -0.2006 -0.0641 -0.1580
 5853WAT     H124132   6.314   3.939   0.666  0.8420  0.8121  1.0552
 5853WAT     H224133   6.309   4.072   0.631 -0.7774  0.5439  0.1630
 5853WAT    EPW24134   6.275   4.006   0.657 -0.1318  0.1552  0.0687
 5854WAT      O24135   3.192   5.708   3.312 -0.1116 -0.7447 -0.1580
 5854WAT     H124136   3.152   5.667   3.378  1.2324 -1.0538  0.5057
 5854WAT     H224137   3.214   5.785   3.346  1.1801 -1.1598  0.0111
 5854WAT    EPW24138   3.190   5.713   3.327  0.2778 -0.8517 -0.0350
 5855WAT      O24139   3.928   3.837   0.577  0.1189 -0.1039  0.4435
 5855WAT     H124140   3.979   3.873   0.515 -1.6251  0.6160 -0.6443
 5855WAT     H224141   3.909   3.758   0.544  0.3793 -0.3060  0.7706
 5855WAT    EPW24142   3.933   3.831   0.563 -0.1003 -0.0274  0.3311
 5856WAT      O24143   4.065   1.497   2.325  0.0977 -0.1216  0.8404
 5856WAT     H124144   4.142   1.537   2.337 -0.1110  0.3358  0.6766
 5856WAT     H224145   4.011   1.562   2.305 -0.0182 -0.6131 -0.5609
 5856WAT    EPW24146   4.068   1.512   2.324  0.0497 -0.1266  0.6092
 5857WAT      O24147   2.321   4.804   1.350 -0.1715 -0.3129  0.0211
 5857WAT     H124148   2.322   4.877   1.399 -1.0732  0.2269 -0.7193
 5857WAT     H224149   2.388   4.758   1.381  0.0538  0.5636  0.9188
 5857WAT    EPW24150   2.331   4.808   1.362 -0.2715 -0.1037  0.0444
 5858WAT      O24151   0.756   1.629   4.179  0.2441  0.2881 -0.0879
 5858WAT     H124152   0.703   1.645   4.246 -0.4466 -0.4359 -0.4427
 5858WAT     H224153   0.735   1.691   4.121  0.5809  0.6847  0.2050
 5858WAT    EPW24154   0.745   1.641   4.180  0.1918  0.2398 -0.0970
 5859WAT      O24155   3.292   6.034   1.385  0.3945  0.8839 -0.1958
 5859WAT     H124156   3.211   6.047   1.355 -0.3197 -2.0053  0.1950
 5859WAT     H224157   3.339   6.025   1.313 -0.0979  0.2587 -0.4490
 5859WAT    EPW24158   3.287   6.034   1.370  0.2162  0.3647 -0.1755
 5860WAT      O24159   4.933   7.411   5.077 -0.1032  0.3934 -0.2420
 5860WAT     H124160   4.909   7.343   5.028  0.8468  0.3903 -0.7349
 5860WAT     H224161   4.961   7.374   5.151  2.0780  0.0340 -1.1468
 5860WAT    EPW24162   4.934   7.395   5.081  0.3593  0.3398 -0.4485
 5861WAT      O24163   6.740   5.421   0.715 -0.0337 -0.0716 -0.1689
 5861WAT     H124164   6.762   5.362   0.775  0.4877 -1.1397 -1.3629
 5861WAT     H224165   6.656   5.405   0.699  0.5431 -1.8323 -1.8449
 5861WAT    EPW24166   6.731   5.410   0.722  0.1285 -0.4895 -0.5929
 5862WAT      O24167   3.943   0.569   5.137  0.1995 -0.4179  0.2607
 5862WAT     H124168   4.028   0.580   5.153  0.1543  1.1824 -0.4550
 5862WAT     H224169   3.905   0.578   5.215  0.5217  1.0558  0.2759
 5862WAT    EPW24170   3.950   0.572   5.151  0.2404  0.0362  0.1572
 5863WAT      O24171   4.421   0.592   1.899  0.1547  0.2310 -0.1825
 5863WAT     H124172   4.426   0.513   1.936 -0.0955  0.7644  1.0246
 5863WAT     H224173   4.462   0.581   1.822  2.3070 -0.4618  0.9875
 5863WAT    EPW24174   4.428   0.578   1.893  0.4357  0.2074  0.1687
 5864WAT      O24175   0.355   3.070   0.048 -0.1473 -0.1726  0.2410
 5864WAT     H124176   0.378   2.988   0.032 -1.0841 -0.1590 -1.3309
 5864WAT     H224177   0.290   3.063   0.106 -0.5416 -0.5798 -0.2423
 5864WAT    EPW24178   0.349   3.057   0.054 -0.3439 -0.2308 -0.0626
 5865WAT      O24179   1.495   2.568   0.620  0.4722  0.3661  0.8443
 5865WAT     H124180   1.539   2.600   0.551  1.8329  0.7580  1.8285
 5865WAT     H224181   1.558   2.557   0.680 -0.7235  0.3891  2.1453
 5865WAT    EPW24182   1.511   2.571   0.619  0.4966  0.4274  1.1818
 5866WAT      O24183   4.471   6.022   1.292 -0.0723  0.3390 -0.6888
 5866WAT     H124184   4.448   5.939   1.307 -1.7752  0.5254 -1.9710
 5866WAT     H224185   4.532   6.016   1.230 -1.5654  0.0684 -2.2008
 5866WAT    EPW24186   4.476   6.009   1.285 -0.5445  0.3265 -1.1015
 5867WAT      O24187   6.378   5.686   1.098 -0.0452 -0.3232 -0.1446
 5867WAT     H124188   6.328   5.632   1.146 -0.4241 -0.5029 -0.7342
 5867WAT     H224189   6.373   5.761   1.142 -1.1502 -0.2393 -0.3934
 5867WAT    EPW24190   6.370   5.689   1.112 -0.2644 -0.3374 -0.2685
 5868WAT      O24191   5.514   0.994   1.758  0.0070 -0.1303  0.4062
 5868WAT     H124192   5.484   1.022   1.836  0.4001 -0.9532  0.8618
 5868WAT     H224193   5.596   1.024   1.756  0.3849 -1.0948  0.8365
 5868WAT    EPW24194   5.522   1.003   1.769  0.1209 -0.3943  0.5371
 5869WAT      O24195   2.834   1.956   7.316 -0.0282 -0.1466  0.4679
 5869WAT     H124196   2.831   1.871   7.296 -1.0038  0.0744 -0.4161
 5869WAT     H224197   2.866   1.956   7.397 -0.2319 -1.3796  0.5822
 5869WAT    EPW24198   2.838   1.943   7.325 -0.2024 -0.2961  0.3542
 5870WAT      O24199   5.193   0.166   5.840 -0.4238  0.4594  0.3621
 5870WAT     H124200   5.113   0.133   5.852 -1.0511  1.6883 -0.2305
 5870WAT     H224201   5.228   0.114   5.779  0.5512 -2.1461  2.9102
 5870WAT    EPW24202   5.187   0.153   5.833 -0.3725  0.2560  0.6509
 5871WAT      O24203   6.246   6.681   0.736 -0.0694 -0.2375  0.0388
 5871WAT     H124204   6.321   6.689   0.781 -0.3968 -0.0231  0.5482
 5871WAT     H224205   6.220   6.600   0.754 -1.3755  0.5653  2.1075
 5871WAT    EPW24206   6.253   6.670   0.745 -0.3107 -0.0872  0.4196
 5872WAT      O24207   5.706   0.951   2.592  0.2696  0.6119  0.1980
 5872WAT     H124208   5.782   0.925   2.558  0.3232 -0.5785  1.1694
 5872WAT     H224209   5.713   0.931   2.676 -1.2546  0.1425  0.2403
 5872WAT    EPW24210   5.718   0.944   2.599  0.0523  0.3667  0.3478
 5873WAT      O24211   5.319   3.451   0.782  0.0981 -0.4979  0.0661
 5873WAT     H124212   5.244   3.416   0.809  0.5242 -1.2078  0.3430
 5873WAT     H224213   5.376   3.386   0.788  0.6294 -0.1164 -0.6595
 5873WAT    EPW24214   5.316   3.436   0.787  0.2395 -0.5464 -0.0002
 5874WAT      O24215   5.614   2.537   1.159  0.1226  0.5447  0.5793
 5874WAT     H124216   5.690   2.579   1.169  0.4981  0.5015 -1.5317
 5874WAT     H224217   5.554   2.600   1.166  0.4461  0.8264  0.8598
 5874WAT    EPW24218   5.617   2.552   1.161  0.2258  0.5800  0.3089
 5875WAT      O24219   5.853   2.037   3.450  0.3623 -0.1023 -0.0709
 5875WAT     H124220   5.936   2.061   3.441  0.1249  1.3492  1.1015
 5875WAT     H224221   5.823   2.089   3.513 -1.7535  0.2425 -1.2370
 5875WAT    EPW24222   5.861   2.048   3.458  0.0147  0.1630 -0.0699
 5876WAT      O24223   2.785   0.458   0.563 -0.4451 -0.1699 -0.0184
 5876WAT     H124224   2.758   0.540   0.576  0.6425  0.6458 -2.3787
 5876WAT     H224225   2.848   0.448   0.623 -1.0847  0.4362  0.7827
 5876WAT    EPW24226   2.791   0.469   0.574 -0.3789  0.0401 -0.2488
 5877WAT      O24227   2.840   4.742   1.235  0.4023 -0.0719  0.0541
 5877WAT     H124228   2.907   4.764   1.286 -0.5286  1.4722  0.6814
 5877WAT     H224229   2.814   4.665   1.267 -0.1832  0.8630  2.0015
 5877WAT    EPW24230   2.846   4.734   1.247  0.1783  0.2943  0.4345
 5878WAT      O24231   5.700   4.856   6.671  0.1769 -0.3484  0.6328
 5878WAT     H124232   5.736   4.934   6.689 -0.2652  0.1491 -0.5261
 5878WAT     H224233   5.753   4.822   6.611  0.3084 -0.9133  1.0573
 5878WAT    EPW24234   5.713   4.863   6.665  0.1310 -0.3583  0.5243
 5879WAT      O24235   4.364   2.953   2.102  0.2184  0.5225  0.8014
 5879WAT     H124236   4.439   2.931   2.142  0.1675  1.0627  1.2063
 5879WAT     H224237   4.390   2.973   2.021  0.6972  1.8505  1.2611
 5879WAT    EPW24238   4.379   2.952   2.096  0.2816  0.7985  0.9291
 5880WAT      O24239   3.110   0.210   3.327 -0.8004 -0.1908  0.3883
 5880WAT     H124240   3.120   0.297   3.325 -2.5511  0.0367 -0.3353
 5880WAT     H224241   3.105   0.188   3.243  0.5914 -1.1521  0.5283
 5880WAT    EPW24242   3.111   0.220   3.314 -0.8534 -0.2992  0.3021
 5881WAT      O24243   2.877   0.394   4.187  0.3601 -0.5538 -0.5542
 5881WAT     H124244   2.847   0.411   4.107 -0.9809 -2.3719 -0.5076
 5881WAT     H224245   2.951   0.351   4.173  1.4591  1.2866 -0.7225
 5881WAT    EPW24246   2.883   0.390   4.173  0.3244 -0.5505 -0.5722
 5882WAT      O24247   2.288   3.677   5.661  0.3896 -0.4554  0.0588
 5882WAT     H124248   2.370   3.697   5.684 -0.1403 -0.7813  2.4114
 5882WAT     H224249   2.243   3.684   5.735 -1.5617 -1.1923 -0.9869
 5882WAT    EPW24250   2.294   3.681   5.675  0.0231 -0.6124  0.2519
 5883WAT      O24251   4.683   6.200   5.475 -0.2791 -0.4402 -0.0604
 5883WAT     H124252   4.765   6.218   5.497  0.0034 -1.0940 -0.5343
 5883WAT     H224253   4.664   6.130   5.522 -0.1268 -1.0425 -0.8802
 5883WAT    EPW24254   4.692   6.193   5.485 -0.2148 -0.6258 -0.2515
 5884WAT      O24255   6.864   1.134   6.688 -0.1912  0.2482 -0.2773
 5884WAT     H124256   6.952   1.136   6.683 -0.2197  2.8904 -1.9416
 5884WAT     H224257   6.841   1.098   6.612 -0.6292 -2.1965  0.9279
 5884WAT    EPW24258   6.874   1.129   6.676 -0.2601  0.2774 -0.3452
 5885WAT      O24259   4.398   3.527   7.626 -0.2866  0.0890  0.2838
 5885WAT     H124260   4.411   3.452   7.584 -1.2914 -0.1523  0.3736
 5885WAT     H224261   4.352   3.575   7.568 -0.0939  0.4377  0.4188
 5885WAT    EPW24262   4.393   3.523   7.611 -0.4066  0.1048  0.3170
 5886WAT      O24263   1.763   1.064   6.222 -0.6410 -0.0297  0.3749
 5886WAT     H124264   1.758   1.014   6.293 -0.6388  1.7841  1.7245
 5886WAT     H224265   1.729   1.014   6.159  0.6095 -2.2226  1.3065
 5886WAT    EPW24266   1.758   1.049   6.223 -0.4560 -0.0857  0.7119
 5887WAT      O24267   5.201   7.624   0.246  0.2101  0.3717 -0.5181
 5887WAT     H124268   5.165   7.545   0.257  1.2214 -0.0303  0.0934
 5887WAT     H224269   5.148   7.663   0.189 -1.0705 -0.2468  0.2111
 5887WAT    EPW24270   5.188   7.618   0.239  0.1704  0.2210 -0.3200
 5888WAT      O24271   4.480   1.881   0.828  0.1815 -0.0084 -0.4282
 5888WAT     H124272   4.431   1.826   0.875  0.1000 -1.2892 -1.9053
 5888WAT     H224273   4.427   1.949   0.816  0.3827  0.5718  1.6733
 5888WAT    EPW24274   4.465   1.883   0.833  0.1992 -0.1119 -0.3360
 5889WAT      O24275   6.409   6.931   1.519 -0.1675  0.0088 -0.1535
 5889WAT     H124276   6.438   7.003   1.479  1.8422 -0.6465 -0.0282
 5889WAT     H224277   6.337   6.957   1.560  0.9401  2.1662  0.5654
 5889WAT    EPW24278   6.403   6.945   1.519  0.2930  0.2307 -0.0288
 5890WAT      O24279   5.731   0.748   5.855 -0.7450 -0.0941 -0.0060
 5890WAT     H124280   5.644   0.755   5.856 -0.7320  0.8655 -1.6940
 5890WAT     H224281   5.757   0.817   5.903 -0.9024  0.1834 -0.3183
 5890WAT    EPW24282   5.722   0.760   5.862 -0.7663  0.0886 -0.3015
 5891WAT      O24283   5.628   3.016   7.570  0.3113 -0.7215  0.8977
 5891WAT     H124284   5.568   3.036   7.630 -1.2673  0.7383 -1.0248
 5891WAT     H224285   5.597   2.943   7.533 -0.5766  0.2967 -0.4169
 5891WAT    EPW24286   5.615   3.008   7.573 -0.0531 -0.3555  0.4195
 5892WAT      O24287   6.666   3.115   6.777  0.1861 -0.1919  0.1669
 5892WAT     H124288   6.675   3.198   6.801 -1.0262  0.2625 -0.8323
 5892WAT     H224289   6.685   3.070   6.850 -1.4190  1.0359  1.4256
 5892WAT    EPW24290   6.670   3.120   6.791 -0.2301  0.0566  0.2053
 5893WAT      O24291   3.145   1.891   0.748 -0.0989 -0.5162 -0.3415
 5893WAT     H124292   3.228   1.863   0.743  0.4235  1.0055 -0.8235
 5893WAT     H224293   3.112   1.871   0.670  0.1135 -0.2886 -0.4932
 5893WAT    EPW24294   3.152   1.884   0.736  0.0097 -0.2578 -0.4351
 5894WAT      O24295   0.615   0.236   4.725 -0.0764 -0.2102 -0.0780
 5894WAT     H124296   0.658   0.267   4.794  0.1728 -0.8022  0.0389
 5894WAT     H224297   0.560   0.301   4.703  0.5675  0.3774  0.0398
 5894WAT    EPW24298   0.613   0.250   4.732  0.0555 -0.2108 -0.0433
 5895WAT      O24299   6.001   7.484   2.288  0.2845  0.2690  0.4201
 5895WAT     H124300   6.036   7.524   2.219  0.6502  1.0208  1.0303
 5895WAT     H224301   6.028   7.401   2.279  1.5952  0.6726  0.4651
 5895WAT    EPW24302   6.011   7.478   2.276  0.5321  0.4397  0.5169
 5896WAT      O24303   4.279   1.312   0.400 -0.1985  0.6014 -0.2582
 5896WAT     H124304   4.206   1.279   0.366 -0.4798 -0.2703  1.1392
 5896WAT     H224305   4.308   1.366   0.337 -2.5861  1.7919 -0.4696
 5896WAT    EPW24306   4.272   1.315   0.386 -0.5928  0.6485 -0.0830
 5897WAT      O24307   5.266   1.724   3.373  0.0846  0.1716 -0.1454
 5897WAT     H124308   5.309   1.707   3.299  0.5854 -0.0249  0.1852
 5897WAT     H224309   5.186   1.747   3.346  0.3053  0.2294 -0.7495
 5897WAT    EPW24310   5.260   1.725   3.358  0.1912  0.1511 -0.1858
 5898WAT      O24311   3.238   7.262   2.340  0.1106 -0.2402 -0.2154
 5898WAT     H124312   3.161   7.301   2.328 -0.2125 -0.4121  1.1470
 5898WAT     H224313   3.273   7.261   2.260 -0.6358  1.2076 -0.5873
 5898WAT    EPW24314   3.232   7.267   2.326 -0.0474 -0.0517 -0.0690
 5899WAT      O24315   3.280   1.797   5.265  0.6918  0.0911 -0.1782
 5899WAT     H124316   3.268   1.837   5.189 -2.3049  0.2494  0.2768
 5899WAT     H224317   3.304   1.716   5.242 -1.7582 -0.3676 -1.4257
 5899WAT    EPW24318   3.282   1.791   5.251 -0.1128  0.0467 -0.2953
 5900WAT      O24319   4.503   5.819   5.409 -0.7342 -0.1906  0.0365
 5900WAT     H124320   4.436   5.855   5.452  0.2196  0.0615  1.4035
 5900WAT     H224321   4.544   5.887   5.374  0.1037 -0.0526  1.1959
 5900WAT    EPW24322   4.499   5.834   5.410 -0.4695 -0.1330  0.4097
 5901WAT      O24323   0.818   0.496   7.202  0.4782 -0.0833  0.7615
 5901WAT     H124324   0.781   0.435   7.152 -0.9251  1.4962 -0.2629
 5901WAT     H224325   0.750   0.542   7.233  1.4676  1.1453  1.2239
 5901WAT    EPW24326   0.802   0.494   7.199  0.4171  0.3315  0.6785
 5902WAT      O24327   3.282   1.829   3.521 -0.0714 -0.0386 -0.0847
 5902WAT     H124328   3.333   1.792   3.582  0.3739 -1.1487 -1.0997
 5902WAT     H224329   3.282   1.913   3.543  0.2415 -0.3784  1.3284
 5902WAT    EPW24330   3.290   1.836   3.534  0.0406 -0.2528 -0.0259
 5903WAT      O24331   5.167   5.094   6.787  0.0372 -0.2736 -0.3827
 5903WAT     H124332   5.149   5.104   6.702  0.3023 -0.5520 -0.4733
 5903WAT     H224333   5.219   5.024   6.789 -0.5826 -0.7364  0.0788
 5903WAT    EPW24334   5.172   5.085   6.775 -0.0152 -0.3831 -0.3279
 5904WAT      O24335   3.174   6.932   3.401  0.6581 -0.2339 -0.0189
 5904WAT     H124336   3.144   7.010   3.427 -0.6030 -0.4864 -0.6524
 5904WAT     H224337   3.201   6.946   3.320 -1.2446 -0.8134 -0.8060
 5904WAT    EPW24338   3.174   6.945   3.393  0.1907 -0.3568 -0.2288
 5905WAT      O24339   2.133   2.301   2.946 -0.2780 -0.1708 -0.3800
 5905WAT     H124340   2.136   2.216   2.929 -0.3654  0.0999 -1.9259
 5905WAT     H224341   2.212   2.319   2.977 -0.4172 -0.8946  0.4147
 5905WAT    EPW24342   2.145   2.291   2.948 -0.3115 -0.2377 -0.4910
 5906WAT      O24343   6.076   2.777   3.854 -0.5846 -0.0724  0.3740
 5906WAT     H124344   6.121   2.847   3.881  1.0054 -0.3367 -1.3467
 5906WAT     H224345   6.134   2.734   3.804 -1.4510 -2.6975  1.4502
 5906WAT    EPW24346   6.091   2.781   3.851 -0.4777 -0.4992  0.2788
 5907WAT      O24347   2.921   4.248   2.155  0.5702 -0.7672 -0.2307
 5907WAT     H124348   3.007   4.246   2.165  0.9398 -0.5946 -2.8330
 5907WAT     H224349   2.908   4.301   2.087 -1.7142  0.2759  0.8739
 5907WAT    EPW24350   2.932   4.255   2.146  0.2873 -0.5876 -0.4520
 5908WAT      O24351   2.199   2.269   6.354  0.4927  0.2594 -0.3208
 5908WAT     H124352   2.261   2.318   6.318  0.2329  0.1499 -0.9311
 5908WAT     H224353   2.244   2.215   6.407  0.7374  1.4227  0.6959
 5908WAT    EPW24354   2.215   2.268   6.357  0.4905  0.4151 -0.2608
 5909WAT      O24355   2.545   2.521   1.988 -0.4877 -0.2297  0.3931
 5909WAT     H124356   2.609   2.528   1.929 -0.9209 -1.6739 -0.3095
 5909WAT     H224357   2.559   2.588   2.042  2.5805 -1.3926  1.2236
 5909WAT    EPW24358   2.557   2.532   1.987 -0.0984 -0.6148  0.4120
 5910WAT      O24359   4.843   1.573   4.480 -0.0200  0.6542 -0.1898
 5910WAT     H124360   4.775   1.554   4.532  0.0882 -0.4651 -0.4286
 5910WAT     H224361   4.810   1.631   4.423 -0.3072  1.4136  0.7233
 5910WAT    EPW24362   4.828   1.579   4.479 -0.0464  0.6010 -0.0902
 5911WAT      O24363   3.578   4.755   3.012  0.3925  0.1164  0.0829
 5911WAT     H124364   3.663   4.765   2.999  0.1651  0.4852 -1.3548
 5911WAT     H224365   3.558   4.685   2.964 -0.3046  0.7846 -0.6449
 5911WAT    EPW24366   3.587   4.746   3.003  0.2560  0.2696 -0.2370
 5912WAT      O24367   5.881   1.221   6.627  0.7262  0.1357  0.0595
 5912WAT     H124368   5.835   1.163   6.673  1.2114 -0.0206  0.3521
 5912WAT     H224369   5.954   1.178   6.606 -0.1335 -0.3435 -2.2298
 5912WAT    EPW24370   5.885   1.206   6.631  0.6709  0.0418 -0.2354
 5913WAT      O24371   4.395   1.372   5.261  0.0805  0.2139 -0.1129
 5913WAT     H124372   4.456   1.402   5.316  0.1255 -1.2030  0.6670
 5913WAT     H224373   4.428   1.390   5.182  0.4627  1.4408  0.3040
 5913WAT    EPW24374   4.409   1.379   5.257  0.1436  0.1858  0.0639
 5914WAT      O24375   4.838   4.019   1.867 -0.7618 -0.1557 -0.0130
 5914WAT     H124376   4.751   4.019   1.870 -0.7669 -1.5649  2.6705
 5914WAT     H224377   4.859   4.090   1.913 -0.5175 -0.2736  0.0561
 5914WAT    EPW24378   4.828   4.029   1.874 -0.7265 -0.3813  0.3936
 5915WAT      O24379   3.142   6.558   0.147  0.4508 -0.3231 -0.1730
 5915WAT     H124380   3.160   6.491   0.199 -0.5988 -0.5246 -0.0425
 5915WAT     H224381   3.125   6.521   0.070  0.6435 -0.1380 -0.3074
 5915WAT    EPW24382   3.142   6.543   0.143  0.3242 -0.3255 -0.1736
 5916WAT      O24383   6.678   1.376   4.302  0.2901 -0.1921 -0.2793
 5916WAT     H124384   6.648   1.353   4.380 -0.2158 -0.6010 -0.5825
 5916WAT     H224385   6.750   1.422   4.319  0.2879 -0.4449  0.4107
 5916WAT    EPW24386   6.684   1.380   4.316  0.2150 -0.2899 -0.2221
 5917WAT      O24387   2.844   0.314   3.540 -0.2462 -0.7050 -0.1157
 5917WAT     H124388   2.880   0.239   3.512 -1.6056 -1.4682  0.1026
 5917WAT     H224389   2.814   0.350   3.467 -2.6528 -2.0819  0.0919
 5917WAT    EPW24390   2.845   0.308   3.525 -0.8025 -1.0211 -0.0528
 5918WAT      O24391   3.408   2.632   5.576 -1.0190  0.4508  0.4818
 5918WAT     H124392   3.409   2.692   5.639 -0.3752 -1.1010  2.0422
 5918WAT     H224393   3.418   2.678   5.503  1.5668  2.1136  1.7335
 5918WAT    EPW24394   3.410   2.648   5.574 -0.5419  0.4672  0.8972
 5919WAT      O24395   5.681   5.209   0.542 -0.2821  0.5228 -0.0247
 5919WAT     H124396   5.759   5.244   0.527 -0.0804 -0.0547 -0.3621
 5919WAT     H224397   5.700   5.128   0.570 -0.7431  0.5465  0.3690
 5919WAT    EPW24398   5.695   5.202   0.544 -0.3204  0.4410 -0.0164
 5920WAT      O24399   6.263   4.068   7.165  0.3620 -0.1797  0.2145
 5920WAT     H124400   6.208   4.118   7.210  0.8119  0.5097  0.0140
 5920WAT     H224401   6.332   4.060   7.218  0.9728  0.7891 -0.3827
 5920WAT    EPW24402   6.265   4.074   7.179  0.5187  0.0653  0.0967
 5921WAT      O24403   2.639   3.325   2.982 -0.3298 -0.1172 -0.2434
 5921WAT     H124404   2.596   3.264   2.937  0.6911  0.1343 -1.6197
 5921WAT     H224405   2.723   3.307   2.968  0.0065  0.8634  0.3662
 5921WAT    EPW24406   2.645   3.314   2.974 -0.1293  0.0648 -0.3567
 5922WAT      O24407   2.924   3.220   2.976 -0.5797  0.2506 -0.0291
 5922WAT     H124408   2.966   3.184   2.909 -0.0923  0.8106 -0.0427
 5922WAT     H224409   2.928   3.306   2.958  1.2181  0.5951  1.6076
 5922WAT    EPW24410   2.931   3.228   2.963 -0.2421  0.3842  0.2107
 5923WAT      O24411   1.956   7.184   1.923  0.5981 -0.2474  0.2080
 5923WAT     H124412   1.987   7.253   1.879 -0.0950  0.1495  0.3314
 5923WAT     H224413   1.948   7.213   2.005  1.5696 -0.8873  0.5519
 5923WAT    EPW24414   1.959   7.199   1.928  0.6392 -0.2833  0.2770
 5924WAT      O24415   4.849   4.744   0.084 -0.2288 -0.1806  0.1428
 5924WAT     H124416   4.927   4.723   0.118 -0.4134  0.6564  1.1503
 5924WAT     H224417   4.793   4.723   0.147 -0.6471  0.7876  0.1120
 5924WAT    EPW24418   4.852   4.738   0.098 -0.3179  0.0861  0.2871
 5925WAT      O24419   2.173   3.548   0.786 -0.3626 -0.5382  0.3553
 5925WAT     H124420   2.106   3.568   0.838  0.2660 -0.4514  1.1553
 5925WAT     H224421   2.145   3.569   0.706 -0.6312  1.1850  0.8718
 5925WAT    EPW24422   2.159   3.554   0.782 -0.3094 -0.2708  0.5497
 5926WAT      O24423   6.566   7.658   7.657  0.3931  0.1576 -0.1892
 5926WAT     H124424   6.653   7.659   7.659  0.4021  0.8262 -0.6287
 5926WAT     H224425   6.543   7.729   7.702  0.0607 -0.2656  0.3200
 5926WAT    EPW24426   6.575   7.669   7.664  0.3453  0.1938 -0.1789
 5927WAT      O24427   4.481   6.512   1.833  0.1196  0.3526 -0.4256
 5927WAT     H124428   4.498   6.590   1.868 -1.6994  0.3239  0.6013
 5927WAT     H224429   4.530   6.457   1.880 -1.4849  0.4485  1.5036
 5927WAT    EPW24430   4.491   6.515   1.845 -0.3862  0.3625  0.0111
 5928WAT      O24431   5.228   0.784   6.142  0.6527  0.6909 -0.5995
 5928WAT     H124432   5.181   0.818   6.207 -1.1711 -0.7171 -1.0722
 5928WAT     H224433   5.209   0.835   6.074  1.3306  1.2333 -0.3964
 5928WAT    EPW24434   5.218   0.796   6.142  0.4834  0.5630 -0.6394
 5929WAT      O24435   1.371   7.145   1.773 -0.0792 -0.0832  0.3377
 5929WAT     H124436   1.413   7.112   1.843  0.9877  0.7634  0.1192
 5929WAT     H224437   1.383   7.085   1.712 -0.2917 -0.4339  0.6318
 5929WAT    EPW24438   1.379   7.131   1.774  0.0470 -0.0099  0.3489
 5930WAT      O24439   4.432   2.141   3.981  0.3594 -0.1010  0.0423
 5930WAT     H124440   4.477   2.196   3.931  0.2614 -0.3295 -0.3032
 5930WAT     H224441   4.367   2.189   4.013  1.4279  0.5073  1.3893
 5930WAT    EPW24442   4.429   2.156   3.979  0.5027 -0.0449  0.1902
 5931WAT      O24443   5.666   6.073   3.902 -0.1372 -0.1180  0.0177
 5931WAT     H124444   5.732   6.058   3.847 -2.0227  2.3997 -3.2950
 5931WAT     H224445   5.614   6.004   3.892 -0.5936  0.4453 -1.6532
 5931WAT    EPW24446   5.668   6.061   3.893 -0.4832  0.3371 -0.7184
 5932WAT      O24447   4.873   4.161   4.948 -0.0224  0.3384 -0.0151
 5932WAT     H124448   4.954   4.169   4.919 -0.0966 -0.7400 -0.5937
 5932WAT     H224449   4.829   4.132   4.878 -0.3255 -1.7647  0.9561
 5932WAT    EPW24450   4.878   4.158   4.933 -0.0781 -0.1316  0.0429
 5933WAT      O24451   3.371   0.914   5.010  1.0751  0.4102 -0.6260
 5933WAT     H124452   3.421   0.863   4.960  0.6414 -0.3400 -0.3149
 5933WAT     H224453   3.380   0.879   5.090 -1.5326 -1.0582 -0.8842
 5933WAT    EPW24454   3.380   0.901   5.015  0.6258  0.0825 -0.6182
 5934WAT      O24455   5.956   7.309   4.706  0.5748  0.4626  0.6203
 5934WAT     H124456   6.017   7.267   4.660 -0.0620  1.1182 -0.8933
 5934WAT     H224457   5.929   7.373   4.652 -0.0217  1.4444  2.0202
 5934WAT    EPW24458   5.961   7.312   4.691  0.3927  0.7045  0.6035
 5935WAT      O24459   6.275   4.210   7.563  0.2738 -0.2918  0.2054
 5935WAT     H124460   6.312   4.289   7.563 -0.8869  0.2683  0.1782
 5935WAT     H224461   6.238   4.205   7.642 -0.0220 -0.6286  0.0485
 5935WAT    EPW24462   6.275   4.221   7.575  0.0587 -0.2588  0.1782
 5936WAT      O24463   5.148   1.974   5.986  0.7459 -0.5309  0.3499
 5936WAT     H124464   5.196   2.034   5.944 -1.0470 -0.3016 -1.5549
 5936WAT     H224465   5.201   1.905   5.991  0.9341 -0.7693 -2.9337
 5936WAT    EPW24466   5.163   1.973   5.980  0.5088 -0.5323 -0.4165
 5937WAT      O24467   4.895   4.161   6.868  0.6493 -0.1680 -0.1772
 5937WAT     H124468   4.875   4.104   6.805  1.4076  0.6701 -1.2071
 5937WAT     H224469   4.857   4.127   6.939 -0.1088 -1.2083 -1.0464
 5937WAT    EPW24470   4.886   4.148   6.869  0.6493 -0.1978 -0.4577
 5938WAT      O24471   1.515   1.470   7.258  0.1421 -0.1323  0.0392
 5938WAT     H124472   1.448   1.476   7.202  0.3722  4.9044 -0.0662
 5938WAT     H224473   1.476   1.475   7.336  0.2270  1.4938  0.0072
 5938WAT    EPW24474   1.499   1.471   7.261  0.1886  0.8520  0.0189
 5939WAT      O24475   5.746   0.573   0.620 -0.2334  0.7162 -0.0691
 5939WAT     H124476   5.671   0.528   0.615  0.5797 -0.6783 -0.0369
 5939WAT     H224477   5.725   0.642   0.669 -1.4092  0.1713  0.2199
 5939WAT    EPW24478   5.732   0.577   0.626 -0.2869  0.4297 -0.0217
 5940WAT      O24479   2.784   2.592   2.365 -0.0279  0.6821  0.0607
 5940WAT     H124480   2.864   2.564   2.386  0.3562  2.8987  1.9487
 5940WAT     H224481   2.733   2.524   2.382  1.3315 -0.4109 -0.0954
 5940WAT    EPW24482   2.788   2.578   2.371  0.2297  0.8481  0.3165
 5941WAT      O24483   1.255   0.531   6.517  0.6982  0.4382 -0.0162
 5941WAT     H124484   1.328   0.558   6.557 -0.1083  0.2211  1.6530
 5941WAT     H224485   1.209   0.605   6.506  1.4601  0.6973 -1.7882
 5941WAT    EPW24486   1.259   0.546   6.521  0.6916  0.4444 -0.0314
 5942WAT      O24487   4.843   6.767   7.265 -0.0676 -0.2041  0.3448
 5942WAT     H124488   4.773   6.795   7.221 -0.1181 -0.0066  0.5480
 5942WAT     H224489   4.846   6.682   7.247  0.2479 -0.0243 -0.4982
 5942WAT    EPW24490   4.833   6.759   7.256 -0.0284 -0.1484  0.2503
 5943WAT      O24491   4.024   2.374   1.162  0.4649 -0.1356  0.4849
 5943WAT     H124492   3.954   2.410   1.199  0.2283 -1.0048  0.9124
 5943WAT     H224493   4.091   2.420   1.196  0.1151  0.6602  0.1143
 5943WAT    EPW24494   4.024   2.386   1.173  0.3782 -0.1464  0.4933
 5944WAT      O24495   3.128   1.337   3.477 -0.3882 -0.2525 -0.2153
 5944WAT     H124496   3.148   1.375   3.553 -1.2726 -1.2537  0.5474
 5944WAT     H224497   3.206   1.322   3.441  0.2381 -2.2477  1.7618
 5944WAT    EPW24498   3.143   1.341   3.483 -0.4263 -0.6951  0.1894
 5945WAT      O24499   4.362   1.461   4.937  0.6099  0.0318  0.2917
 5945WAT     H124500   4.295   1.515   4.929  1.8059  2.2179  3.0924
 5945WAT     H224501   4.330   1.384   4.913 -3.4758  0.5901  2.9893
 5945WAT    EPW24502   4.348   1.458   4.933  0.1830  0.4372  1.1039
 5946WAT      O24503   4.851   1.483   0.268  0.1111  0.1442 -0.1014
 5946WAT     H124504   4.888   1.561   0.259 -0.5623  0.5106  0.2204
 5946WAT     H224505   4.793   1.495   0.332  0.6683 -0.8720  0.6210
 5946WAT    EPW24506   4.848   1.496   0.276  0.0940  0.0482  0.0528
 5947WAT      O24507   6.073   3.706   2.756 -0.1061 -0.5427  0.2651
 5947WAT     H124508   6.152   3.699   2.793  0.0902 -1.9837 -0.3709
 5947WAT     H224509   6.084   3.770   2.698 -0.0203  0.7357  1.6262
 5947WAT    EPW24510   6.086   3.715   2.753 -0.0644 -0.5667  0.3722
 5948WAT      O24511   2.123   7.636   0.042 -0.3879  0.4210 -0.3984
 5948WAT     H124512   2.092   7.578   0.099 -1.2503  0.4313 -0.8515
 5948WAT     H224513   2.165   7.694   0.092 -0.4758  0.0118  0.1515
 5948WAT    EPW24514   2.125   7.636   0.057 -0.5283  0.3621 -0.3841
 5949WAT      O24515   3.743   7.414   4.140  0.7735 -0.1495  0.0091
 5949WAT     H124516   3.753   7.368   4.213  2.7607 -0.2610 -0.2938
 5949WAT     H224517   3.701   7.358   4.087 -1.1275  0.1002  1.1433
 5949WAT    EPW24518   3.738   7.399   4.143  0.7862 -0.1291  0.1319
 5950WAT      O24519   6.627   7.620   6.818 -0.1752  0.3177  0.4637
 5950WAT     H124520   6.578   7.625   6.889  0.2179  1.2864  0.6680
 5950WAT     H224521   6.702   7.657   6.841  0.1681  0.1097 -0.2757
 5950WAT    EPW24522   6.631   7.626   6.832 -0.0664  0.4301  0.3847
 5951WAT      O24523   1.062   6.092   5.960  0.0170 -0.0119 -0.0010
 5951WAT     H124524   1.066   6.028   6.019 -2.8404  0.8300  1.3161
 5951WAT     H224525   1.127   6.145   5.983  0.8813 -1.2132  0.4167
 5951WAT    EPW24526   1.072   6.090   5.972 -0.2775 -0.0650  0.2553
 5952WAT      O24527   7.590   6.901   5.509 -0.3558 -0.3515 -0.0515
 5952WAT     H124528   7.583   6.854   5.436  0.1779  0.6541 -0.7858
 5952WAT     H224529   7.654   6.958   5.491 -0.2687 -0.0243  1.1708
 5952WAT    EPW24530   7.598   6.903   5.496 -0.2641 -0.1546  0.0206
 5953WAT      O24531   3.813   2.173   7.446 -0.0375 -0.3248 -0.2517
 5953WAT     H124532   3.835   2.090   7.433 -2.9326 -1.2224 -0.2009
 5953WAT     H224533   3.872   2.218   7.401  1.7135 -2.3703 -0.1330
 5953WAT    EPW24534   3.825   2.167   7.438 -0.2065 -0.7595 -0.2266
 5954WAT      O24535   3.785   2.189   6.052  0.4548  0.0847 -0.4812
 5954WAT     H124536   3.719   2.245   6.061  1.4458  1.5184 -1.7291
 5954WAT     H224537   3.745   2.114   6.030 -0.7652  0.9093 -1.1683
 5954WAT    EPW24538   3.769   2.186   6.050  0.4210  0.4183 -0.7670
 5955WAT      O24539   6.130   2.518   6.410  0.1332  0.3271  0.6505
 5955WAT     H124540   6.153   2.434   6.403 -1.0143  0.0337  0.0503
 5955WAT     H224541   6.174   2.546   6.480 -0.5862 -1.1892  1.7641
 5955WAT    EPW24542   6.140   2.510   6.419 -0.1426  0.0598  0.7264
 5956WAT      O24543   4.450   4.450  -0.005  0.0528  0.1483 -0.3118
 5956WAT     H124544   4.508   4.509   0.022  1.3397  0.2794 -3.0584
 5956WAT     H224545   4.431   4.406   0.068  0.8025  2.4170  1.3856
 5956WAT    EPW24546   4.456   4.452   0.010  0.3537  0.5028 -0.4668
 5957WAT      O24547   3.979   2.888   2.642  0.9120  0.4407 -0.4382
 5957WAT     H124548   4.050   2.930   2.670 -1.0128  2.9231  1.1139
 5957WAT     H224549   3.946   2.941   2.581 -1.7997  1.6687  1.8559
 5957WAT    EPW24550   3.985   2.902   2.637  0.2271  0.9888  0.1299
 5958WAT      O24551   7.197   4.158   7.760  0.7245  0.2187 -1.2091
 5958WAT     H124552   7.247   4.229   7.746  0.8535  0.1734 -0.9795
 5958WAT     H224553   7.227   4.126   7.836 -0.6781  1.0682 -0.2548
 5958WAT    EPW24554   7.209   4.164   7.769  0.5363  0.3375 -1.0342
 5959WAT      O24555   0.823   1.174   3.747  0.3492  0.8961  0.3880
 5959WAT     H124556   0.864   1.156   3.821 -0.9324  1.1963  1.2072
 5959WAT     H224557   0.749   1.128   3.753  0.6866  0.0625 -1.2073
 5959WAT    EPW24558   0.818   1.165   3.759  0.2097  0.8173  0.2733
 5960WAT      O24559   6.166   1.597   7.051 -0.2375  0.3244  0.1907
 5960WAT     H124560   6.240   1.556   7.029 -1.2646 -0.7652 -1.4611
 5960WAT     H224561   6.144   1.640   6.978 -1.5815  0.0483  0.4162
 5960WAT    EPW24562   6.174   1.597   7.037 -0.5878  0.1226 -0.0200
 5961WAT      O24563   5.316   3.432   5.335  0.3473 -0.0384  0.6978
 5961WAT     H124564   5.350   3.480   5.400  1.5044  0.1217 -0.0064
 5961WAT     H224565   5.346   3.470   5.263 -1.3305  0.0852  0.0064
 5961WAT    EPW24566   5.325   3.445   5.334  0.2703  0.0035  0.4917
 5962WAT      O24567   5.993   5.016   2.511 -0.3405 -0.2974 -0.0079
 5962WAT     H124568   6.059   4.972   2.476 -0.8349 -1.3239  0.2978
 5962WAT     H224569   5.963   4.962   2.573 -2.8243 -0.8398 -1.5476
 5962WAT    EPW24570   5.998   5.001   2.515 -0.7804 -0.5291 -0.1902
 5963WAT      O24571   5.806   7.547   7.785 -0.2113  0.1513 -0.7734
 5963WAT     H124572   5.734   7.596   7.784  0.0270  0.5050 -2.0347
 5963WAT     H224573   5.812   7.522   7.868 -0.7593  1.6546 -0.2374
 5963WAT    EPW24574   5.796   7.551   7.797 -0.2571  0.4256 -0.8805
 5964WAT      O24575   2.794   1.230   0.221  0.1361 -0.1045 -0.8030
 5964WAT     H124576   2.829   1.189   0.289  0.9742  2.5634  0.5152
 5964WAT     H224577   2.746   1.293   0.258 -1.0084  0.2037 -2.6916
 5964WAT    EPW24578   2.792   1.233   0.236  0.0908  0.3352 -0.8872
 5965WAT      O24579   5.163   1.054   0.291 -0.0125 -0.5108 -0.9487
 5965WAT     H124580   5.089   1.029   0.253  0.3524  0.6130 -2.5108
 5965WAT     H224581   5.151   1.139   0.305  0.6650 -0.4924 -0.4496
 5965WAT    EPW24582   5.151   1.063   0.287  0.1415 -0.3421 -1.1057
 5966WAT      O24583   3.634   5.950   4.642  0.0940 -0.5282 -0.3924
 5966WAT     H124584   3.677   5.883   4.676 -0.4126 -0.4782  0.3737
 5966WAT     H224585   3.638   6.012   4.704 -1.0136 -0.5087 -0.3112
 5966WAT    EPW24586   3.641   5.950   4.656 -0.1445 -0.5179 -0.2673
 5967WAT      O24587   4.987   0.893   6.722  0.0932 -0.5740 -0.0164
 5967WAT     H124588   4.997   0.946   6.790 -1.1170 -0.2968 -0.0404
 5967WAT     H224589   5.010   0.815   6.753 -0.1338 -0.3920  0.6193
 5967WAT    EPW24590   4.992   0.889   6.737 -0.1191 -0.5062  0.0739
 5968WAT      O24591   5.502   3.243   0.827  0.1818 -0.6641  0.0441
 5968WAT     H124592   5.570   3.261   0.877 -0.7054  0.4774  0.8905
 5968WAT     H224593   5.535   3.239   0.746  1.5535 -2.1074  0.6276
 5968WAT    EPW24594   5.517   3.245   0.822  0.2533 -0.7087  0.2553
 5969WAT      O24595   5.421   0.596   3.842  0.5989  0.0133 -0.1036
 5969WAT     H124596   5.403   0.680   3.824 -0.0299 -0.2510 -0.7646
 5969WAT     H224597   5.469   0.601   3.915  0.4436  0.9385 -0.0454
 5969WAT    EPW24598   5.426   0.609   3.850  0.4831  0.1109 -0.1927
 5970WAT      O24599   4.595   1.532   5.635  0.2579  0.0741 -0.1749
 5970WAT     H124600   4.653   1.518   5.699 -0.6088 -0.9352  0.4154
 5970WAT     H224601   4.592   1.619   5.629  1.5862  0.1471  0.0012
 5970WAT    EPW24602   4.603   1.543   5.644  0.3261 -0.0642 -0.0617
 5971WAT      O24603   7.629   6.978   5.097  0.2157  0.3371 -0.1759
 5971WAT     H124604   7.591   6.902   5.078  0.9390 -0.2693  0.6862
 5971WAT     H224605   7.627   7.022   5.022 -0.8912 -0.2330 -0.5002
 5971WAT    EPW24606   7.623   6.973   5.083  0.1590  0.1633 -0.0965
 5972WAT      O24607   0.237   1.781   5.978 -0.2252 -0.6749 -0.4545
 5972WAT     H124608   0.191   1.733   6.035  0.2064 -0.8789 -0.2789
 5972WAT     H224609   0.319   1.772   6.005 -0.0385 -0.6121 -0.9948
 5972WAT    EPW24610   0.242   1.773   5.991 -0.1339 -0.6957 -0.5083
 5973WAT      O24611   4.407   7.498   7.382  0.0213 -0.0225 -0.2439
 5973WAT     H124612   4.491   7.482   7.367  0.2385  1.4923 -0.8944
 5973WAT     H224613   4.382   7.434   7.436  1.4093 -0.8719 -0.5694
 5973WAT    EPW24614   4.416   7.486   7.388  0.2584  0.0758 -0.3880
 5974WAT      O24615   3.979   1.732   2.712  0.7085 -0.1736 -0.0812
 5974WAT     H124616   3.951   1.815   2.708  1.7627  0.2347  0.6327
 5974WAT     H224617   3.954   1.699   2.635 -1.8384  0.0907  0.5562
 5974WAT    EPW24618   3.971   1.740   2.700  0.4880 -0.0742  0.1184
 5975WAT      O24619   7.025   2.664   4.595 -0.1127 -0.4909  0.3966
 5975WAT     H124620   6.987   2.662   4.517 -0.7111 -0.1183  0.6693
 5975WAT     H224621   7.001   2.742   4.627  0.2576 -0.5728  0.8822
 5975WAT    EPW24622   7.016   2.675   4.588 -0.1464 -0.4479  0.5086
 5976WAT      O24623   5.887   1.001   7.603  0.4409 -0.1007  0.1899
 5976WAT     H124624   5.923   0.985   7.525  0.6590  1.0964  0.0326
 5976WAT     H224625   5.951   1.038   7.648 -0.4797  1.8776 -0.0290
 5976WAT    EPW24626   5.902   1.004   7.598  0.3371  0.3684  0.1343
 5977WAT      O24627   3.390   0.349   2.469 -0.4287  0.0672 -0.0866
 5977WAT     H124628   3.422   0.326   2.391  0.3627  2.0284 -0.4026
 5977WAT     H224629   3.319   0.395   2.450  0.4506  1.6358  0.2214
 5977WAT    EPW24630   3.385   0.353   2.455 -0.1819  0.5886 -0.0878
 5978WAT      O24631   3.388   0.214   5.943  0.3415 -0.0835  0.0762
 5978WAT     H124632   3.329   0.182   5.887 -1.3741  0.4090  1.4973
 5978WAT     H224633   3.451   0.246   5.891 -0.6510 -0.6167 -1.5163
 5978WAT    EPW24634   3.389   0.214   5.927 -0.0586 -0.0896  0.0509
 5979WAT      O24635   0.167   7.682   7.650  0.9136 -0.4600 -0.0055
 5979WAT     H124636   0.177   7.598   7.669  1.1049 -0.9034 -1.8528
 5979WAT     H224637   0.205   7.690   7.571  2.3370  1.6930  0.8074
 5979WAT    EPW24638   0.174   7.671   7.641  1.1521 -0.2075 -0.1583
 5980WAT      O24639   5.844   4.112   7.197 -0.8332 -0.1311 -0.5693
 5980WAT     H124640   5.794   4.047   7.227 -1.8451  1.6020  1.7368
 5980WAT     H224641   5.908   4.119   7.256 -0.9438  1.1824 -0.5785
 5980WAT    EPW24642   5.846   4.103   7.210 -0.9990  0.3190 -0.2300
 5981WAT      O24643   6.189   0.544   4.825 -0.2480 -0.1179 -0.5057
 5981WAT     H124644   6.216   0.487   4.764 -1.2650  0.7341 -1.7942
 5981WAT     H224645   6.142   0.494   4.879  2.4818 -1.3255  0.9249
 5981WAT    EPW24646   6.186   0.528   4.824  0.0050 -0.1704 -0.4847
 5982WAT      O24647   2.519   2.275   7.079 -0.3797 -0.0175  0.1568
 5982WAT     H124648   2.493   2.207   7.031 -0.6883 -0.8445  1.4429
 5982WAT     H224649   2.489   2.344   7.035  0.2038 -0.6599 -1.3396
 5982WAT    EPW24650   2.511   2.275   7.065 -0.3391 -0.2346  0.1257
 5983WAT      O24651   5.906   5.799   0.550  0.1610  1.1736  0.1982
 5983WAT     H124652   5.885   5.810   0.466  1.6042  0.2213 -0.3413
 5983WAT     H224653   5.829   5.799   0.591 -0.6073  1.2284 -1.1750
 5983WAT    EPW24654   5.892   5.800   0.544  0.2607  1.0410 -0.0843
 5984WAT      O24655   2.795   1.255   2.630  0.3873 -0.2769  0.3446
 5984WAT     H124656   2.867   1.301   2.611 -1.0255  1.4990 -0.9552
 5984WAT     H224657   2.797   1.188   2.573  0.9165 -0.1678  0.2290
 5984WAT    EPW24658   2.806   1.252   2.619  0.2568  0.0015  0.1355
 5985WAT      O24659   2.071   5.007   7.251 -0.5273  0.0002  0.2064
 5985WAT     H124660   2.156   4.998   7.234 -0.3419 -0.4454  1.2936
 5985WAT     H224661   2.038   5.036   7.175  0.3419 -1.2764 -0.6954
 5985WAT    EPW24662   2.079   5.010   7.237 -0.3715 -0.2542  0.2338
 5986WAT      O24663   2.161   7.700   6.254 -0.1269  0.1030 -0.4554
 5986WAT     H124664   2.227   7.718   6.200 -0.0023  0.4464 -0.1899
 5986WAT     H224665   2.184   7.623   6.289 -1.3600 -1.4180 -2.6892
 5986WAT    EPW24666   2.174   7.691   6.251 -0.2906 -0.0709 -0.7462
 5987WAT      O24667   7.132   2.914   4.016  0.3605 -0.3100 -0.4170
 5987WAT     H124668   7.184   2.844   4.026  0.1321 -0.3998  0.2207
 5987WAT     H224669   7.137   2.931   3.931  1.4334 -0.3178 -0.3704
 5987WAT    EPW24670   7.141   2.906   4.005  0.4853 -0.3244 -0.3159
 5988WAT      O24671   3.469   0.182   6.311  0.7172 -0.0350  0.6061
 5988WAT     H124672   3.386   0.172   6.288  0.1604  1.8789  1.5381
 5988WAT     H224673   3.491   0.259   6.274  1.8588 -0.1651  0.9570
 5988WAT    EPW24674   3.460   0.192   6.302  0.8036  0.2285  0.7956
 5989WAT      O24675   2.523   6.622   2.774  0.8378 -0.5861  0.2349
 5989WAT     H124676   2.545   6.625   2.690  0.5212  0.6310  0.1751
 5989WAT     H224677   2.464   6.558   2.777  0.5985 -0.4173 -0.5371
 5989WAT    EPW24678   2.517   6.613   2.762  0.7557 -0.3814  0.1120
 5990WAT      O24679   3.650   6.637   5.884  0.6927  0.5226  0.1174
 5990WAT     H124680   3.721   6.672   5.920  0.8117 -1.5832  2.1537
 5990WAT     H224681   3.682   6.568   5.840  0.1490  1.0072 -1.0691
 5990WAT    EPW24682   3.665   6.632   5.883  0.6300  0.2831  0.2430
 5991WAT      O24683   0.801   2.309   5.336  0.0810 -0.0911  0.3277
 5991WAT     H124684   0.789   2.224   5.349  0.2951 -0.0209  1.0325
 5991WAT     H224685   0.720   2.339   5.322 -0.2154 -0.1423  1.7807
 5991WAT    EPW24686   0.787   2.301   5.336  0.0688 -0.0883  0.6465
 5992WAT      O24687   3.668   6.381   5.534 -0.8568 -0.4826  0.4517
 5992WAT     H124688   3.627   6.416   5.465  0.8379  2.8181  0.9096
 5992WAT     H224689   3.712   6.314   5.498 -0.0800  1.0714 -1.7748
 5992WAT    EPW24690   3.669   6.376   5.518 -0.4917  0.2346  0.1905
 5993WAT      O24691   4.690   0.992   3.749  0.0636 -0.2895  0.1123
 5993WAT     H124692   4.636   0.981   3.816  0.8228 -1.4625  0.5664
 5993WAT     H224693   4.643   1.039   3.692 -1.2496 -0.8571  0.6871
 5993WAT    EPW24694   4.675   0.997   3.750 -0.0182 -0.5466  0.2643
 5994WAT      O24695   4.609   3.754   6.299 -0.6250  0.1764  0.5962
 5994WAT     H124696   4.560   3.797   6.356 -0.2285  2.1849 -0.4844
 5994WAT     H224697   4.551   3.716   6.246 -1.0076  0.6811  0.6519
 5994WAT    EPW24698   4.594   3.754   6.299 -0.6229  0.5477  0.4448
 5995WAT      O24699   2.854   7.135   6.748  0.1596 -0.6406  0.0010
 5995WAT     H124700   2.887   7.071   6.698  0.6858 -1.2724  1.1306
 5995WAT     H224701   2.835   7.094   6.823 -0.1749  0.3938  0.4904
 5995WAT    EPW24702   2.856   7.119   6.751  0.1879 -0.5811  0.2401
 5996WAT      O24703   1.853   2.866   4.110  0.1920  0.6047 -0.2496
 5996WAT     H124704   1.827   2.873   4.027  0.6729  0.5060 -0.4123
 5996WAT     H224705   1.889   2.944   4.127 -0.4218  0.8282  0.0520
 5996WAT    EPW24706   1.855   2.879   4.101  0.1724  0.6232 -0.2291
 5997WAT      O24707   5.353   6.554   4.495 -0.0606 -0.0676  0.3307
 5997WAT     H124708   5.286   6.562   4.551  0.1202  0.3449  0.4930
 5997WAT     H224709   5.412   6.609   4.527  0.5103 -0.7204  0.4124
 5997WAT    EPW24710   5.351   6.564   4.508  0.0505 -0.1031  0.3667
 5998WAT      O24711   1.412   3.379   5.558  0.5248  0.5794  0.6870
 5998WAT     H124712   1.442   3.374   5.640  0.1313  1.1294  0.8729
 5998WAT     H224713   1.473   3.424   5.516  2.0878 -1.9696 -0.0170
 5998WAT    EPW24714   1.425   3.385   5.564  0.6976  0.2841  0.6105
 5999WAT      O24715   5.201   7.315   4.231  0.2702 -0.1603 -0.5289
 5999WAT     H124716   5.127   7.320   4.185  1.1343  2.0031 -1.8720
 5999WAT     H224717   5.187   7.369   4.298 -0.1193 -1.4688  0.4826
 5999WAT    EPW24718   5.188   7.324   4.234  0.3403 -0.0340 -0.5779
 6000WAT      O24719   5.900   3.042   3.672 -0.0468  0.1256  0.2797
 6000WAT     H124720   5.826   3.036   3.627 -0.4990 -1.9091  1.2263
 6000WAT     H224721   5.876   3.029   3.755  1.2881 -0.0508  0.6682
 6000WAT    EPW24722   5.886   3.039   3.678  0.0836 -0.2010  0.4769
 6001WAT      O24723   1.058   2.158   0.424 -0.5554  0.2719  0.1917
 6001WAT     H124724   1.117   2.146   0.487 -1.7554 -0.2123  1.2738
 6001WAT     H224725   1.069   2.241   0.399 -1.4875  1.1931  2.6073
 6001WAT    EPW24726   1.068   2.168   0.429 -0.8704  0.3364  0.7084
 6002WAT      O24727   6.416   6.465   6.115 -0.3103 -0.2546  0.2752
 6002WAT     H124728   6.428   6.497   6.196 -0.3222 -3.5058  1.7047
 6002WAT     H224729   6.329   6.464   6.106 -0.3678 -1.3177  0.8795
 6002WAT    EPW24730   6.405   6.470   6.126 -0.3205 -0.8919  0.5756
 6003WAT      O24731   2.457   7.698   0.075 -0.2594  0.4975  0.3224
 6003WAT     H124732   2.443   7.665   0.155  0.6788 -0.4250  0.1277
 6003WAT     H224733   2.508   7.638   0.037 -1.1823  0.6344 -1.1873
 6003WAT    EPW24734   2.463   7.684   0.082 -0.2571  0.3815  0.0706
 6004WAT      O24735   5.420   2.220   1.718 -0.4660  0.3498 -0.0668
 6004WAT     H124736   5.503   2.228   1.695 -0.4779 -0.3129 -0.3465
 6004WAT     H224737   5.423   2.209   1.804 -0.3954  2.3648  0.2351
 6004WAT    EPW24738   5.433   2.220   1.727 -0.4573  0.5496 -0.0635
 6005WAT      O24739   3.274   3.173   6.372 -0.1953 -0.1063 -0.5901
 6005WAT     H124740   3.294   3.142   6.293  0.3141  0.2333 -0.5981
 6005WAT     H224741   3.261   3.259   6.357 -1.3014 -0.2389 -0.5189
 6005WAT    EPW24742   3.275   3.181   6.358 -0.2834 -0.0757 -0.5808
 6006WAT      O24743   6.675   0.333   5.069 -0.5888 -0.3028  0.2238
 6006WAT     H124744   6.666   0.255   5.107  0.0193 -0.3817  0.2253
 6006WAT     H224745   6.629   0.325   4.995 -0.6975 -0.5960  0.3225
 6006WAT    EPW24746   6.667   0.320   5.063 -0.5150 -0.3578  0.2386
 6007WAT      O24747   4.901   0.573   5.208  0.1356  0.6901  0.4063
 6007WAT     H124748   4.826   0.589   5.251 -0.0101  0.3581  0.2879
 6007WAT     H224749   4.963   0.591   5.267 -0.0770 -0.7998  1.1566
 6007WAT    EPW24750   4.899   0.578   5.223  0.0827  0.4210  0.4996
 6008WAT      O24751   5.684   6.085   7.238 -0.1010 -0.4390 -0.3312
 6008WAT     H124752   5.612   6.080   7.189 -1.1323  0.2350  1.0494
 6008WAT     H224753   5.747   6.101   7.180 -1.1207 -0.6398 -1.5361
 6008WAT    EPW24754   5.682   6.087   7.223 -0.4039 -0.3691 -0.3052
 6009WAT      O24755   4.452   7.110   4.577  0.2618 -0.2956 -0.0109
 6009WAT     H124756   4.432   7.077   4.499  0.7185 -0.6799  0.0340
 6009WAT     H224757   4.509   7.053   4.610  1.6426  0.8755 -0.2408
 6009WAT    EPW24758   4.457   7.097   4.571  0.5333 -0.1794 -0.0383
 6010WAT      O24759   1.399   5.899   1.946  0.0424  0.7444 -0.0847
 6010WAT     H124760   1.324   5.887   1.989  0.8406  2.2716  1.8975
 6010WAT     H224761   1.457   5.854   1.993  0.4560 -0.1392 -1.4044
 6010WAT    EPW24762   1.396   5.891   1.959  0.2214  0.8395  0.0132
 6011WAT      O24763   1.985   2.650   0.823  0.2715 -0.4499  0.5140
 6011WAT     H124764   1.977   2.736   0.836  1.1679 -0.3737  0.6600
 6011WAT     H224765   2.070   2.636   0.835  0.8503 -0.7776 -2.8332
 6011WAT    EPW24766   1.996   2.660   0.827  0.4894 -0.4871  0.0412
 6012WAT      O24767   5.135   2.304   1.679  0.1713 -0.3986 -0.2123
 6012WAT     H124768   5.221   2.310   1.692  0.2982 -1.9381 -0.0678
 6012WAT     H224769   5.103   2.286   1.758  0.1285 -2.9219 -0.7157
 6012WAT    EPW24770   5.143   2.302   1.693  0.1837 -0.9988 -0.2653
 6013WAT      O24771   6.249   1.352   6.748  0.9149 -0.1831 -0.0074
 6013WAT     H124772   6.308   1.412   6.772  0.8980 -0.7357  1.5367
 6013WAT     H224773   6.296   1.292   6.705  2.0535 -1.8223  3.2025
 6013WAT    EPW24774   6.264   1.352   6.745  1.0806 -0.5069  0.6949
 6014WAT      O24775   4.228   0.892   5.928  0.3831  0.3153 -0.3546
 6014WAT     H124776   4.249   0.974   5.947 -0.1754  0.5656 -0.8110
 6014WAT     H224777   4.285   0.845   5.976 -0.1929  0.9307  0.9704
 6014WAT    EPW24778   4.240   0.897   5.938  0.2155  0.4432 -0.2263
 6015WAT      O24779   1.374   0.428   4.188  0.6236  0.2103 -0.2957
 6015WAT     H124780   1.351   0.510   4.169  1.7422  0.5545 -0.2574
 6015WAT     H224781   1.330   0.380   4.131 -2.7903  0.5022  1.8235
 6015WAT    EPW24782   1.364   0.433   4.177  0.2845  0.3043  0.0230
 6016WAT      O24783   4.201   5.500   5.893  0.2440 -0.1042 -0.1236
 6016WAT     H124784   4.156   5.563   5.853  0.0783  0.6424  1.1839
 6016WAT     H224785   4.278   5.538   5.911 -0.2861  0.1967  1.7754
 6016WAT    EPW24786   4.206   5.515   5.890  0.1412  0.0505  0.3501
 6017WAT      O24787   4.881   2.872   4.094 -0.0761 -0.0304 -0.0269
 6017WAT     H124788   4.823   2.832   4.147  1.0419 -0.8857  0.5939
 6017WAT     H224789   4.831   2.921   4.042 -1.3992 -1.0524  0.2244
 6017WAT    EPW24790   4.865   2.873   4.094 -0.1064 -0.3077  0.1019
 6018WAT      O24791   2.707   1.477   0.305  0.3608 -0.0135  0.1103
 6018WAT     H124792   2.705   1.541   0.247  0.3948  0.4150  0.5712
 6018WAT     H224793   2.759   1.508   0.368 -1.1174  0.2988  1.2374
 6018WAT    EPW24794   2.715   1.491   0.306  0.1475  0.0959  0.3449
 6019WAT      O24795   3.592   0.377   7.517  0.2226  0.1650  0.1234
 6019WAT     H124796   3.581   0.399   7.433 -2.1562  0.8082  0.5345
 6019WAT     H224797   3.671   0.409   7.537  0.4571  0.7439 -1.6217
 6019WAT    EPW24798   3.602   0.385   7.508 -0.0941  0.3455 -0.0736
 6020WAT      O24799   1.395   2.146   7.260 -0.8397  0.0952 -0.0088
 6020WAT     H124800   1.326   2.188   7.292 -1.3235 -1.0726  0.5357
 6020WAT     H224801   1.451   2.144   7.327 -0.5330  0.4535 -0.2464
 6020WAT    EPW24802   1.393   2.152   7.275 -0.8659 -0.0244  0.0366
 6021WAT      O24803   6.342   4.268   7.001 -0.2700 -1.0363  0.1033
 6021WAT     H124804   6.309   4.204   7.050  0.5599 -0.3427  1.6185
 6021WAT     H224805   6.423   4.278   7.032 -0.7951  1.6077  0.8456
 6021WAT    EPW24806   6.349   4.260   7.013 -0.2249 -0.5432  0.4367
 6022WAT      O24807   0.931   0.451   6.716 -0.4411  0.4574  0.2119
 6022WAT     H124808   0.856   0.405   6.716 -0.4267  0.4317 -0.0607
 6022WAT     H224809   0.915   0.516   6.660 -0.1439  0.2574 -0.1131
 6022WAT    EPW24810   0.917   0.453   6.708 -0.3951  0.4241  0.1236
 6023WAT      O24811   1.587   0.971   5.737 -0.6256  0.0500  0.1526
 6023WAT     H124812   1.573   0.967   5.651  1.0107  0.4479 -0.1597
 6023WAT     H224813   1.618   1.052   5.750 -1.5757  0.2758  1.2546
 6023WAT    EPW24814   1.589   0.982   5.727 -0.5242  0.1422  0.2693
 6024WAT      O24815   4.719   7.445   5.453  0.3906  0.5161  0.1888
 6024WAT     H124816   4.780   7.402   5.498 -1.5827 -3.8935 -0.8390
 6024WAT     H224817   4.681   7.496   5.513 -0.9975 -3.7739  3.4774
 6024WAT    EPW24818   4.722   7.446   5.468 -0.1059 -0.7690  0.5228
 6025WAT      O24819   5.393   2.721   6.570  0.3157  0.1221  0.4634
 6025WAT     H124820   5.470   2.762   6.570  0.9573 -1.0287  1.1069
 6025WAT     H224821   5.397   2.671   6.641 -0.7630 -0.4473  0.1404
 6025WAT    EPW24822   5.405   2.720   6.581  0.2511 -0.1320  0.5107
 6026WAT      O24823   6.073   5.989   4.165 -0.1969 -0.6959  0.0288
 6026WAT     H124824   6.044   6.024   4.240 -0.0245  1.5512 -0.8547
 6026WAT     H224825   6.068   6.056   4.109  7.2117  0.4374 -0.2287
 6026WAT    EPW24826   6.068   6.004   4.168  0.9230 -0.1965 -0.1397
 6027WAT      O24827   3.553   6.403   3.665 -0.7153  0.6740  0.3508
 6027WAT     H124828   3.540   6.383   3.581  0.3363  0.5422  0.1964
 6027WAT     H224829   3.504   6.346   3.708  0.5001 -0.8289 -0.1452
 6027WAT    EPW24830   3.544   6.392   3.659 -0.3804  0.4325  0.2547
 6028WAT      O24831   5.470   2.986   6.285 -0.9294 -0.3887 -0.2536
 6028WAT     H124832   5.498   3.065   6.308 -0.6996 -0.3843 -0.5388
 6028WAT     H224833   5.543   2.944   6.263 -1.2429  0.2319 -2.8803
 6028WAT    EPW24834   5.485   2.992   6.285 -0.9418 -0.2963 -0.6838
 6029WAT      O24835   4.259   7.452   1.432  0.1080 -0.0674  0.3136
 6029WAT     H124836   4.300   7.486   1.363 -0.3635  0.6739  0.3961
 6029WAT     H224837   4.201   7.512   1.454 -0.0774 -0.5052  1.0708
 6029WAT    EPW24838   4.257   7.466   1.425  0.0110 -0.0226  0.4376
 6030WAT      O24839   6.645   2.442   5.696  0.2130  0.2808 -0.7663
 6030WAT     H124840   6.674   2.367   5.731 -2.2129  0.5708  2.2954
 6030WAT     H224841   6.613   2.417   5.619  1.3745 -1.4250 -0.7487
 6030WAT    EPW24842   6.644   2.427   5.690  0.0262  0.0716 -0.3115
 6031WAT      O24843   4.126   7.533   0.439  0.2993 -0.5705 -0.0817
 6031WAT     H124844   4.068   7.596   0.424  0.9414 -0.3845 -2.0643
 6031WAT     H224845   4.184   7.542   0.374  0.4372 -3.1282 -0.4217
 6031WAT    EPW24846   4.126   7.543   0.427  0.4145 -0.9208 -0.4248
 6032WAT      O24847   1.381   6.840   5.580 -0.7024  0.4735 -0.2792
 6032WAT     H124848   1.389   6.927   5.574  1.3179  0.2781 -1.2218
 6032WAT     H224849   1.388   6.824   5.665  0.2078  1.1392 -0.2202
 6032WAT    EPW24850   1.383   6.851   5.592 -0.2695  0.5430 -0.4097
 6033WAT      O24851   2.701   3.684   7.843 -0.4527 -0.2332  0.0357
 6033WAT     H124852   2.733   3.751   7.888  2.0263 -0.9945 -0.4352
 6033WAT     H224853   2.710   3.616   7.897  0.9694 -0.8545 -0.9207
 6033WAT    EPW24854   2.707   3.684   7.857  0.1235 -0.4374 -0.1751
 6034WAT      O24855   4.560   7.336   5.051  0.2399 -0.3310  0.0725
 6034WAT     H124856   4.505   7.316   4.987  1.9240 -0.1772 -1.5254
 6034WAT     H224857   4.517   7.397   5.097 -1.3408 -1.0547 -0.4005
 6034WAT    EPW24858   4.546   7.342   5.049  0.2552 -0.4152 -0.2334
 6035WAT      O24859   4.372   4.921   6.617 -0.2479 -0.3123 -0.0862
 6035WAT     H124860   4.295   4.912   6.657  0.0116 -2.2327  0.1112
 6035WAT     H224861   4.400   4.838   6.608  1.1919  0.2521 -1.3307
 6035WAT    EPW24862   4.365   4.907   6.622  0.0031 -0.5126 -0.2409
 6036WAT      O24863   6.487   0.975   7.253 -0.0206 -0.6008 -0.2219
 6036WAT     H124864   6.427   1.020   7.208 -0.5782 -1.6643 -0.5568
 6036WAT     H224865   6.483   0.895   7.219  2.4565 -0.4420 -1.1163
 6036WAT    EPW24866   6.477   0.970   7.241  0.2629 -0.7345 -0.4035
 6037WAT      O24867   4.247   7.292   7.478  0.0334 -0.9185  0.4233
 6037WAT     H124868   4.210   7.288   7.557  0.9730  0.3840  0.9799
 6037WAT     H224869   4.292   7.217   7.473 -1.2534 -1.7134  0.4612
 6037WAT    EPW24870   4.248   7.281   7.489 -0.0179 -0.8435  0.5111
 6038WAT      O24871   5.469   0.827   3.497  0.4854  0.4051  0.1047
 6038WAT     H124872   5.427   0.843   3.572 -0.0595  0.5372 -0.2185
 6038WAT     H224873   5.442   0.892   3.445 -0.5325 -0.6474 -0.7468
 6038WAT    EPW24874   5.459   0.839   3.501  0.2545  0.2692 -0.0689
 6039WAT      O24875   3.229   0.717   4.235  0.1777 -0.2315 -0.2575
 6039WAT     H124876   3.146   0.691   4.241  0.6222 -1.7130 -0.2005
 6039WAT     H224877   3.263   0.664   4.175  1.5175 -0.9080  1.0382
 6039WAT    EPW24878   3.221   0.706   4.227  0.4413 -0.5503 -0.0577
 6040WAT      O24879   3.703   0.642   6.649 -0.3224  0.2422 -0.0505
 6040WAT     H124880   3.662   0.595   6.710 -0.1169  0.2699  0.1088
 6040WAT     H224881   3.701   0.723   6.681 -0.6116  0.3342 -0.2911
 6040WAT    EPW24882   3.696   0.647   6.663 -0.3348  0.2599 -0.0625
 6041WAT      O24883   4.635   4.145   0.249  0.3689 -0.5642  0.2375
 6041WAT     H124884   4.648   4.147   0.335 -0.1601  1.7875  0.3343
 6041WAT     H224885   4.693   4.201   0.217 -0.2350 -0.4819 -0.7919
 6041WAT    EPW24886   4.645   4.154   0.257  0.2015 -0.2047  0.0997
 6042WAT      O24887   0.163   6.642   7.039 -0.3592 -0.1113  0.0095
 6042WAT     H124888   0.082   6.634   7.070 -0.4452  1.4209  0.2759
 6042WAT     H224889   0.151   6.669   6.957 -0.1073 -2.3790 -0.8428
 6042WAT    EPW24890   0.149   6.645   7.031 -0.3347 -0.2199 -0.0771
 6043WAT      O24891   0.098   4.002   5.123 -0.0720 -0.2537  0.1725
 6043WAT     H124892   0.146   4.037   5.187  1.6656  0.7801 -1.5724
 6043WAT     H224893   0.098   3.916   5.142 -1.6064  0.2026  2.7429
 6043WAT    EPW24894   0.105   3.994   5.135 -0.0420 -0.0336  0.2945
 6044WAT      O24895   4.958   6.231   5.546  0.8656 -0.4773 -0.1669
 6044WAT     H124896   4.956   6.317   5.562 -1.4027 -0.4658 -0.2171
 6044WAT     H224897   5.034   6.220   5.503  0.7248  1.6712 -1.0801
 6044WAT    EPW24898   4.969   6.242   5.542  0.5097 -0.1583 -0.3092
 6045WAT      O24899   5.611   3.683   1.206  0.3198  0.0211  0.1678
 6045WAT     H124900   5.620   3.609   1.250  1.6923  0.9740  1.6155
 6045WAT     H224901   5.558   3.731   1.255 -0.6699 -0.0235 -0.8202
 6045WAT    EPW24902   5.605   3.679   1.219  0.3764  0.1553  0.2357
 6046WAT      O24903   4.764   4.864   4.835  0.2361 -0.5884  0.0788
 6046WAT     H124904   4.692   4.839   4.793  0.0615  0.0973 -0.0500
 6046WAT     H224905   4.828   4.850   4.777 -0.0311  0.5586 -0.5283
 6046WAT    EPW24906   4.763   4.859   4.820  0.1708 -0.3176 -0.0299
 6047WAT      O24907   1.459   0.560   0.568  0.0301 -0.3223 -0.1891
 6047WAT     H124908   1.458   0.633   0.617 -0.7082  0.2379 -0.9958
 6047WAT     H224909   1.543   0.550   0.547  0.2925 -0.3236  0.8205
 6047WAT    EPW24910   1.471   0.569   0.572 -0.0402 -0.2397 -0.1591
 6048WAT      O24911   7.580   2.980   6.861 -0.6107 -0.1720  0.2327
 6048WAT     H124912   7.525   3.008   6.923 -1.0219 -0.3994 -0.0241
 6048WAT     H224913   7.548   2.902   6.839 -1.6767  0.7136 -1.6774
 6048WAT    EPW24914   7.567   2.973   6.867 -0.8289 -0.0747 -0.0874
 6049WAT      O24915   1.694   0.044   0.111  0.1027  0.3660 -0.0226
 6049WAT     H124916   1.692   0.003   0.034  1.1737  0.8061 -0.3105
 6049WAT     H224917   1.610   0.058   0.129 -0.1611  0.5440 -1.2729
 6049WAT    EPW24918   1.682   0.040   0.102  0.2219  0.4573 -0.2498
 6050WAT      O24919   2.197   5.479   6.323  0.4553  0.4011 -0.2662
 6050WAT     H124920   2.157   5.408   6.354 -1.1833  0.5512 -1.8545
 6050WAT     H224921   2.281   5.459   6.330  0.1255 -0.6688  1.5810
 6050WAT    EPW24922   2.203   5.465   6.329  0.1646  0.2652 -0.2280
 6051WAT      O24923   0.798   1.771   5.716 -0.2764 -0.1529  0.3689
 6051WAT     H124924   0.855   1.722   5.671  1.3593  1.1321  0.9149
 6051WAT     H224925   0.728   1.720   5.722  0.3197 -1.3154 -1.4863
 6051WAT    EPW24926   0.796   1.756   5.710  0.0533 -0.1348  0.1755
 6052WAT      O24927   2.634   4.716   6.922 -0.5103  0.1855  0.1169
 6052WAT     H124928   2.638   4.634   6.894 -0.4809 -0.0149  0.6925
 6052WAT     H224929   2.578   4.712   6.988  0.7917  0.2898  1.2728
 6052WAT    EPW24930   2.627   4.703   6.928 -0.3136  0.1713  0.3727
 6053WAT      O24931   2.846   5.750   4.107 -0.6827  0.2805  0.0810
 6053WAT     H124932   2.886   5.792   4.173 -0.9750 -0.8666  1.0265
 6053WAT     H224933   2.900   5.761   4.040 -0.2215  1.2204  0.5925
 6053WAT    EPW24934   2.860   5.758   4.107 -0.6577  0.2499  0.2962
 6054WAT      O24935   4.649   5.325   7.147 -0.2232  0.4106 -0.3899
 6054WAT     H124936   4.711   5.359   7.197 -2.4403  1.4434  1.8591
 6054WAT     H224937   4.580   5.376   7.161 -1.3886 -0.0149 -3.5765
 6054WAT    EPW24938   4.648   5.337   7.156 -0.7228  0.5003 -0.5284
 6055WAT      O24939   1.932   3.402   4.892  0.4243 -0.0582 -0.2921
 6055WAT     H124940   1.906   3.481   4.866  1.4005  0.4601  0.2372
 6055WAT     H224941   1.957   3.363   4.818  2.8067  1.2478 -0.2704
 6055WAT    EPW24942   1.932   3.408   4.877  0.9204  0.2113 -0.2107
 6056WAT      O24943   2.284   3.496   7.249  0.4324  0.2900  0.3085
 6056WAT     H124944   2.297   3.581   7.232  2.9087 -0.3210 -1.2860
 6056WAT     H224945   2.309   3.488   7.332  0.6306  1.0449  0.3320
 6056WAT    EPW24946   2.289   3.507   7.259  0.8275  0.3113  0.0764
 6057WAT      O24947   6.910   7.255   0.771  0.2127 -0.5077  0.4030
 6057WAT     H124948   6.868   7.331   0.777  1.0000  0.2435 -2.3152
 6057WAT     H224949   6.846   7.195   0.779 -0.4542  0.3792  2.2775
 6057WAT    EPW24950   6.894   7.257   0.773  0.2305 -0.2657  0.2783
 6058WAT      O24951   5.528   5.674   5.908  0.4114 -0.3265  0.2817
 6058WAT     H124952   5.590   5.616   5.887 -0.0420 -0.5232 -0.5740
 6058WAT     H224953   5.454   5.629   5.898 -0.0043  0.6626 -1.4321
 6058WAT    EPW24954   5.526   5.659   5.903  0.2830 -0.2094 -0.0978
 6059WAT      O24955   0.167   3.690   6.793  0.2686  0.2233  0.1140
 6059WAT     H124956   0.116   3.629   6.758 -1.1153  1.0711  0.5849
 6059WAT     H224957   0.246   3.652   6.795 -0.4908 -1.4303  0.1375
 6059WAT    EPW24958   0.171   3.676   6.788 -0.0480  0.1042  0.1870
 6060WAT      O24959   2.809   7.349   0.908  0.0578 -0.5405 -0.2515
 6060WAT     H124960   2.869   7.288   0.893 -0.8982 -1.6285  0.1557
 6060WAT     H224961   2.810   7.358   0.995 -0.9665 -1.2376 -0.1482
 6060WAT    EPW24962   2.818   7.341   0.919 -0.2347 -0.8042 -0.1761
 6061WAT      O24963   4.029   1.882   6.116  0.0530 -0.5207 -0.4260
 6061WAT     H124964   3.951   1.851   6.094 -0.1942  1.2412 -2.4474
 6061WAT     H224965   4.012   1.964   6.140  1.2979  0.0720 -1.4390
 6061WAT    EPW24966   4.015   1.890   6.116  0.2004 -0.1729 -0.8743
 6062WAT      O24967   3.569   1.640   6.398 -0.1168  0.3827 -0.7418
 6062WAT     H124968   3.625   1.654   6.332  1.5888  1.9731  0.8984
 6062WAT     H224969   3.597   1.695   6.460 -0.1839 -2.5942  2.1817
 6062WAT    EPW24970   3.582   1.651   6.398  0.1253  0.1779 -0.0677
 6063WAT      O24971   0.233   6.188   7.250 -0.4303  0.5532 -0.3507
 6063WAT     H124972   0.234   6.274   7.236 -0.8213  0.8505  1.2977
 6063WAT     H224973   0.151   6.171   7.274  0.2801  0.2578  2.1377
 6063WAT    EPW24974   0.221   6.198   7.252 -0.3831  0.5535  0.2604
 6064WAT      O24975   3.285   2.161   5.471  0.4159  0.3056  0.0224
 6064WAT     H124976   3.257   2.084   5.502 -0.9492  0.0275 -1.7378
 6064WAT     H224977   3.372   2.155   5.478  0.2595 -0.4340  2.0171
 6064WAT    EPW24978   3.294   2.149   5.477  0.1912  0.1553  0.0570
 6065WAT      O24979   6.951   1.893   4.725  0.3472  0.3342 -0.2209
 6065WAT     H124980   6.982   1.955   4.672  0.7336 -0.9348 -1.5469
 6065WAT     H224981   6.932   1.827   4.671  0.2189 -0.8150  1.1583
 6065WAT    EPW24982   6.953   1.892   4.709  0.3853 -0.0230 -0.2130
 6066WAT      O24983   4.843   4.422   6.788  0.7429  0.1346 -0.1700
 6066WAT     H124984   4.847   4.338   6.811  0.1444  0.0102 -0.4995
 6066WAT     H224985   4.894   4.427   6.717  2.6181  0.5255  1.1365
 6066WAT    EPW24986   4.851   4.410   6.781  0.9315  0.1740 -0.0257
 6067WAT      O24987   2.056   1.484   1.071 -0.2611 -0.7285  0.2645
 6067WAT     H124988   2.071   1.403   1.041 -2.0490 -0.4602 -1.6347
 6067WAT     H224989   1.971   1.482   1.092  0.1375  0.1352  2.1497
 6067WAT    EPW24990   2.046   1.472   1.069 -0.4664 -0.5613  0.2624
 6068WAT      O24991   5.183   2.379   6.524  0.0693  0.1629 -0.5860
 6068WAT     H124992   5.158   2.363   6.441  3.4785  3.9504 -2.7244
 6068WAT     H224993   5.141   2.452   6.544 -0.0725 -0.2687  0.7770
 6068WAT    EPW24994   5.173   2.387   6.514  0.5520  0.6587 -0.7005
 6069WAT      O24995   3.099   3.022   2.782  0.3482 -0.2950  0.0125
 6069WAT     H124996   3.127   2.948   2.745  0.6625  0.4287 -1.2674
 6069WAT     H224997   3.165   3.045   2.834  1.5487  0.5727 -1.7893
 6069WAT    EPW24998   3.113   3.014   2.784  0.5720 -0.0599 -0.4427
 6070WAT      O24999   5.036   3.478   5.944 -0.1924  0.1028 -0.1234
 6070WAT     H125000   5.042   3.393   5.960 -1.2078  0.4287  2.3997
 6070WAT     H225001   4.959   3.487   5.905 -1.0875  0.0600  1.5716
 6070WAT    EPW25002   5.026   3.467   5.940 -0.4747  0.1447  0.4997
 6071WAT      O25003   6.631   5.993   3.577  0.2868  0.1394  0.0175
 6071WAT     H125004   6.708   6.021   3.545 -0.0303  0.9246 -0.0817
 6071WAT     H225005   6.608   6.056   3.633  0.7395 -1.1266  1.7079
 6071WAT    EPW25006   6.639   6.007   3.580  0.3068  0.0684  0.2525
 6072WAT      O25007   3.034   4.607   5.612  0.3901  0.2586  0.4404
 6072WAT     H125008   3.045   4.565   5.537  1.0817  0.5750  0.3574
 6072WAT     H225009   2.966   4.567   5.649 -0.1596  0.3120 -0.4941
 6072WAT    EPW25010   3.025   4.595   5.607  0.4110  0.3132  0.2901
 6073WAT      O25011   7.673   5.967   7.559 -0.1159 -0.0129 -0.2502
 6073WAT     H125012   7.634   6.007   7.626  1.6646  0.6309  0.4804
 6073WAT     H225013   7.755   5.956   7.587  0.8821  0.8776 -2.5628
 6073WAT    EPW25014   7.679   5.971   7.573  0.2945  0.2138 -0.4839
 6074WAT      O25015   3.952   7.556   0.793  0.2666  0.5909  0.5054
 6074WAT     H125016   4.030   7.568   0.830  0.4190  0.7247  0.1488
 6074WAT     H225017   3.967   7.492   0.735  1.2520  3.5507 -2.8269
 6074WAT    EPW25018   3.966   7.548   0.790  0.4347  1.0479 -0.0395
 6075WAT      O25019   0.038   5.326   6.713  0.2178 -0.5058 -0.1727
 6075WAT     H125020   0.031   5.407   6.745 -0.2315 -0.5476 -0.1665
 6075WAT     H225021   0.002   5.332   6.634 -2.1918 -1.2817  0.7883
 6075WAT    EPW25022   0.032   5.339   6.706 -0.2045 -0.6266 -0.0298
 6076WAT      O25023   4.073   7.106   5.996  0.2344 -0.3517  0.1351
 6076WAT     H125024   4.113   7.110   6.073  0.6869 -1.1549 -0.0483
 6076WAT     H225025   4.081   7.186   5.963  0.7112 -0.2155  0.5877
 6076WAT    EPW25026   4.080   7.118   6.002  0.3717 -0.4502  0.1749
 6077WAT      O25027   6.840   3.063   4.293 -0.0895 -0.1133  0.0858
 6077WAT     H125028   6.904   3.018   4.330  1.0275  2.5228  1.6786
 6077WAT     H225029   6.770   3.044   4.342 -0.5759 -2.6740 -1.4088
 6077WAT    EPW25030   6.839   3.054   4.306  0.0036 -0.1022  0.1003
 6078WAT      O25031   4.317   6.593   7.418 -0.9680 -0.1556  0.1544
 6078WAT     H125032   4.288   6.663   7.462  0.6323  0.6549  0.0001
 6078WAT     H225033   4.347   6.540   7.480 -1.5236 -0.3952  0.2235
 6078WAT    EPW25034   4.317   6.596   7.433 -0.8137 -0.0713  0.1418
 6079WAT      O25035   1.949   7.129   0.197  0.2414 -0.0451  0.0739
 6079WAT     H125036   1.888   7.174   0.240  1.1210  0.0778  1.2438
 6079WAT     H225037   1.911   7.053   0.180 -0.9779  0.8072 -1.1684
 6079WAT    EPW25038   1.934   7.124   0.201  0.1912  0.0990  0.0632
 6080WAT      O25039   0.964   1.614   6.305 -0.5713 -0.0322 -0.0301
 6080WAT     H125040   1.007   1.682   6.339  0.4984 -0.4841 -0.4243
 6080WAT     H225041   0.933   1.573   6.376 -1.6113  1.0747  0.1950
 6080WAT    EPW25042   0.966   1.618   6.321 -0.5669  0.0645 -0.0551
 6081WAT      O25043   2.414   2.800   3.647  0.0222 -0.5226  0.1644
 6081WAT     H125044   2.375   2.726   3.625 -0.2105 -0.2046 -0.5179
 6081WAT     H225045   2.498   2.784   3.636  0.0453 -0.9660  0.8974
 6081WAT    EPW25046   2.420   2.787   3.642 -0.0087 -0.5411  0.1719
 6082WAT      O25047   4.062   6.871   1.551 -0.1510  0.4170  0.0451
 6082WAT     H125048   4.028   6.889   1.630 -0.9418  0.8674 -0.3823
 6082WAT     H225049   4.147   6.859   1.568 -0.4518 -0.4813  1.1131
 6082WAT    EPW25050   4.069   6.872   1.565 -0.3123  0.3508  0.1398
 6083WAT      O25051   5.510   7.177   3.877  0.6747 -0.5518 -0.1471
 6083WAT     H125052   5.595   7.169   3.861  0.6551 -1.0444 -0.0256
 6083WAT     H225053   5.473   7.118   3.825  0.4599 -0.7829  0.2637
 6083WAT    EPW25054   5.517   7.167   3.867  0.6401 -0.6587 -0.0684
 6084WAT      O25055   1.680   6.305   1.644 -0.2054 -0.2842 -0.1940
 6084WAT     H125056   1.694   6.238   1.590  2.5902 -0.3113  0.3918
 6084WAT     H225057   1.708   6.374   1.599  2.1082 -0.3020  1.0856
 6084WAT    EPW25058   1.686   6.305   1.630  0.5493 -0.2909  0.0816
 6085WAT      O25059   4.818   7.245   6.963  0.3915 -0.2106 -0.6845
 6085WAT     H125060   4.743   7.211   6.991  0.1388 -2.3984 -3.5077
 6085WAT     H225061   4.794   7.292   6.893  1.4138  1.2403 -0.1028
 6085WAT    EPW25062   4.804   7.247   6.957  0.5052 -0.3195 -1.0156
 6086WAT      O25063   2.714   1.955   4.605 -0.1208  0.0680 -0.2785
 6086WAT     H125064   2.720   1.944   4.519  2.5534  0.3566 -0.2089
 6086WAT     H225065   2.761   2.027   4.620 -3.1700  1.9727  1.1425
 6086WAT    EPW25066   2.722   1.964   4.594 -0.1762  0.3920 -0.0583
 6087WAT      O25067   7.146   6.084   7.329  0.1379 -0.1119 -0.0118
 6087WAT     H125068   7.159   6.012   7.282 -0.3060 -0.1508 -0.0778
 6087WAT     H225069   7.203   6.141   7.296  0.9657 -0.6348  0.4829
 6087WAT    EPW25070   7.156   6.082   7.317  0.1946 -0.1949  0.0515
 6088WAT      O25071   1.042   3.628   5.053  0.7821 -0.4624  0.1807
 6088WAT     H125072   1.121   3.640   5.016  0.4935 -0.0896 -0.3306
 6088WAT     H225073   1.037   3.692   5.111  0.5637 -0.0413 -0.2951
 6088WAT    EPW25074   1.053   3.639   5.056  0.7072 -0.3451  0.0349
 6089WAT      O25075   1.974   1.498   5.635 -0.7221  0.7998  0.5385
 6089WAT     H125076   2.021   1.427   5.650 -0.7890  0.5719 -0.2821
 6089WAT     H225077   1.937   1.516   5.712 -1.8592 -0.8821  0.4215
 6089WAT    EPW25078   1.975   1.490   5.648 -0.9000  0.5177  0.4000
 6090WAT      O25079   4.616   5.928   2.980 -0.1181 -0.3216 -0.2202
 6090WAT     H125080   4.591   5.991   3.035  2.4829  0.5239  0.1293
 6090WAT     H225081   4.579   5.952   2.904  0.5901  1.5292 -0.0416
 6090WAT    EPW25082   4.607   5.941   2.976  0.3707  0.0767 -0.1422
 6091WAT      O25083   0.561   1.014   5.482 -0.4181  0.4240  0.5835
 6091WAT     H125084   0.549   1.050   5.560 -3.6626  2.0621 -0.4750
 6091WAT     H225085   0.608   1.074   5.439  1.7297 -0.6629  1.3044
 6091WAT    EPW25086   0.566   1.028   5.487 -0.5801  0.5054  0.5336
 6092WAT      O25087   2.702   1.815   3.033  0.0689  0.2368  0.0638
 6092WAT     H125088   2.684   1.730   3.020  1.4893 -0.3734  1.7086
 6092WAT     H225089   2.633   1.843   3.079  0.6714 -0.6751  1.5951
 6092WAT    EPW25090   2.689   1.807   3.038  0.3677  0.0119  0.5330
 6093WAT      O25091   3.888   1.045   3.283  0.0332 -0.3902 -0.0201
 6093WAT     H125092   3.847   1.056   3.359  0.0203 -0.6951  0.0165
 6093WAT     H225093   3.871   1.119   3.240 -3.2323 -1.6914 -1.2630
 6093WAT    EPW25094   3.880   1.058   3.288 -0.4511 -0.6274 -0.1983
 6094WAT      O25095   5.155   4.381   4.343 -0.1004  0.4495  0.0323
 6094WAT     H125096   5.224   4.429   4.367  0.4360 -0.5581  0.5650
 6094WAT     H225097   5.148   4.321   4.406  1.3861 -2.3069 -2.1939
 6094WAT    EPW25098   5.164   4.379   4.355  0.1984 -0.1065 -0.2178
 6095WAT      O25099   2.737   6.970   2.878 -0.4445 -0.2283 -0.3270
 6095WAT     H125100   2.806   6.956   2.930 -0.5722  1.5098  0.3655
 6095WAT     H225101   2.750   7.051   2.849 -1.3392 -0.5025 -1.5628
 6095WAT    EPW25102   2.749   6.980   2.881 -0.5955 -0.0120 -0.4073
 6096WAT      O25103   5.552   1.609   6.840 -0.1625 -0.1638  0.4761
 6096WAT     H125104   5.593   1.566   6.777 -0.7629  1.8600 -1.4160
 6096WAT     H225105   5.481   1.560   6.855  0.5112 -1.2087  0.3687
 6096WAT    EPW25106   5.547   1.595   6.833 -0.1516 -0.0192  0.1808
 6097WAT      O25107   3.403   1.326   0.636 -0.5532 -0.2953 -0.0109
 6097WAT     H125108   3.386   1.295   0.716 -0.0140 -1.4586 -0.3258
 6097WAT     H225109   3.332   1.374   0.618  0.3638  2.1066  2.1285
 6097WAT    EPW25110   3.390   1.329   0.645 -0.3381 -0.1123  0.2586
 6098WAT      O25111   6.910   4.431   6.319 -0.2482  0.1056 -0.3962
 6098WAT     H125112   6.873   4.353   6.304 -0.3133  0.3713 -1.7574
 6098WAT     H225113   6.982   4.429   6.270 -0.4811  1.0544 -0.8059
 6098WAT    EPW25114   6.915   4.419   6.309 -0.2922  0.2850 -0.6578
 6099WAT      O25115   0.594   6.032   3.875  1.0685  0.2522  0.4771
 6099WAT     H125116   0.606   5.949   3.852  1.8553  0.6774 -0.7607
 6099WAT     H225117   0.515   6.033   3.911 -0.6393 -0.3879 -2.8955
 6099WAT    EPW25118   0.584   6.020   3.877  0.9325  0.2204 -0.2039
 6100WAT      O25119   3.277   0.579   6.886 -0.6188  0.3528 -0.4014
 6100WAT     H125120   3.234   0.532   6.946 -0.3715  2.8404  1.9183
 6100WAT     H225121   3.214   0.607   6.833 -2.0098  3.1523  2.3852
 6100WAT    EPW25122   3.261   0.576   6.887 -0.7877  1.1338  0.3529
 6101WAT      O25123   1.882   1.465   5.325 -0.0454  0.9516  0.5886
 6101WAT     H125124   1.927   1.532   5.358  0.0745 -0.2059  2.9724
 6101WAT     H225125   1.943   1.408   5.301 -0.1721  0.4914  1.3293
 6101WAT    EPW25126   1.897   1.466   5.327 -0.0464  0.7126  1.0502
 6102WAT      O25127   3.759   1.108   5.869  1.1142 -0.0093  0.3124
 6102WAT     H125128   3.715   1.178   5.898  1.1766 -0.3065  1.1494
 6102WAT     H225129   3.765   1.057   5.939 -1.7498 -2.3813 -0.9272
 6102WAT    EPW25130   3.753   1.111   5.883  0.7003 -0.4036  0.2529
 6103WAT      O25131   5.927   1.735   3.590  0.0690  0.2477 -0.1088
 6103WAT     H125132   5.973   1.808   3.583 -2.2318  1.7555 -0.2561
 6103WAT     H225133   5.851   1.753   3.550 -0.6064 -2.1911 -0.1115
 6103WAT    EPW25134   5.922   1.748   3.583 -0.3706  0.1102 -0.1310
 6104WAT      O25135   3.689   7.575   6.286 -0.2988 -0.8882 -0.3791
 6104WAT     H125136   3.638   7.639   6.257  1.1004 -0.7859 -2.8846
 6104WAT     H225137   3.641   7.538   6.349 -2.0156  1.2651 -0.2845
 6104WAT    EPW25138   3.674   7.579   6.291 -0.3457 -0.5550 -0.7352
 6105WAT      O25139   2.113   6.462   3.840  0.5012  0.0849  0.3047
 6105WAT     H125140   2.070   6.393   3.808  1.4651 -0.2520 -0.3251
 6105WAT     H225141   2.102   6.456   3.926 -1.4974  0.5561  0.1261
 6105WAT    EPW25142   2.105   6.451   3.848  0.3484  0.1047  0.1853
 6106WAT      O25143   6.051   2.617   4.493  0.2657 -0.3261  0.5361
 6106WAT     H125144   6.090   2.540   4.508  2.9054  0.7138 -0.3485
 6106WAT     H225145   6.102   2.674   4.535  0.4132  1.2482 -1.5934
 6106WAT    EPW25146   6.064   2.614   4.501  0.6775  0.0601  0.0908
 6107WAT      O25147   5.015   5.766   3.512 -0.2265  0.2831 -0.6318
 6107WAT     H125148   5.018   5.729   3.433 -1.7526 -1.3378  0.0203
 6107WAT     H225149   5.055   5.708   3.564 -1.0003  0.3772  0.0996
 6107WAT    EPW25150   5.021   5.752   3.508 -0.5662  0.0576 -0.4274
 6108WAT      O25151   1.204   0.589   3.979  0.2426 -0.2084 -0.3528
 6108WAT     H125152   1.251   0.563   3.911  1.9811 -1.5314  1.2482
 6108WAT     H225153   1.124   0.599   3.946  1.0851 -0.4686 -2.6220
 6108WAT    EPW25154   1.199   0.586   3.964  0.6239 -0.4423 -0.4515
 6109WAT      O25155   6.822   7.200   5.615  0.2971 -0.0858 -0.5527
 6109WAT     H125156   6.884   7.261   5.623 -1.4100  1.5314  1.3349
 6109WAT     H225157   6.753   7.244   5.584 -0.5056 -1.4148 -0.7378
 6109WAT    EPW25158   6.821   7.215   5.611 -0.0736 -0.0432 -0.3012
 6110WAT      O25159   0.401   1.415   5.061  0.1890  0.2932 -0.2952
 6110WAT     H125160   0.386   1.446   5.142 -0.9183  0.2436 -0.4630
 6110WAT     H225161   0.436   1.483   5.019  1.9250 -0.0355  0.5426
 6110WAT    EPW25162   0.404   1.430   5.067  0.2819  0.2373 -0.1962
 6111WAT      O25163   4.639   6.542   4.716 -0.6437  0.2884  0.2043
 6111WAT     H125164   4.631   6.609   4.771 -2.4485  1.1295 -1.0083
 6111WAT     H225165   4.577   6.555   4.657 -0.5185 -2.0258 -0.5663
 6111WAT    EPW25166   4.629   6.554   4.715 -0.8918  0.0708 -0.0887
 6112WAT      O25167   3.991   2.107   3.510 -0.1139 -0.5026  0.3882
 6112WAT     H125168   3.973   2.035   3.555 -2.7089 -1.5289 -2.0192
 6112WAT     H225169   4.078   2.107   3.506  0.0122 -2.7492  1.6132
 6112WAT    EPW25170   4.001   2.096   3.516 -0.4786 -0.9861  0.2136
 6113WAT      O25171   5.902   1.319   7.420 -0.1280 -0.6039 -0.1982
 6113WAT     H125172   5.954   1.329   7.490 -0.4880  1.2464 -0.1444
 6113WAT     H225173   5.822   1.331   7.452 -0.5387 -2.4751 -0.4648
 6113WAT    EPW25174   5.898   1.323   7.435 -0.2418 -0.6070 -0.2297
 6114WAT      O25175   1.961   4.504   1.321  0.7866  0.2508 -0.0309
 6114WAT     H125176   1.987   4.584   1.341  0.4272  0.1023  1.1231
 6114WAT     H225177   2.016   4.479   1.259  3.2857  0.0290  2.1033
 6114WAT    EPW25178   1.973   4.512   1.315  1.1027  0.1961  0.4548
 6115WAT      O25179   5.736   3.481   0.667 -0.3985 -0.1576 -0.1759
 6115WAT     H125180   5.690   3.407   0.661 -1.5245  0.4963  0.0765
 6115WAT     H225181   5.686   3.539   0.625 -0.6030  0.9221  1.4520
 6115WAT    EPW25182   5.721   3.478   0.660 -0.5950  0.0985  0.1019
 6116WAT      O25183   5.190   7.473   4.480  0.5167  0.4852  0.1381
 6116WAT     H125184   5.154   7.431   4.547 -0.5458  0.3045 -0.5299
 6116WAT     H225185   5.148   7.550   4.479 -2.3481 -0.8887 -2.6068
 6116WAT    EPW25186   5.178   7.478   4.490 -0.0634  0.2556 -0.3660
 6117WAT      O25187   2.131   6.587   4.792 -0.3383  0.1675  0.5624
 6117WAT     H125188   2.057   6.623   4.761 -0.2719 -0.0080  0.1936
 6117WAT     H225189   2.188   6.601   4.728 -0.3987 -0.8982  0.2623
 6117WAT    EPW25190   2.128   6.595   4.778 -0.3374 -0.0158  0.4636
 6118WAT      O25191   1.300   2.121   6.367 -0.1970  0.8622 -0.0762
 6118WAT     H125192   1.385   2.122   6.345 -0.5818 -0.3150 -1.8497
 6118WAT     H225193   1.298   2.068   6.436  0.3098 -0.8936 -1.3326
 6118WAT    EPW25194   1.312   2.113   6.374 -0.1790  0.4290 -0.5238
 6119WAT      O25195   5.515   4.585   2.373  0.1427 -0.0756  0.5864
 6119WAT     H125196   5.589   4.599   2.328  0.8071  2.1067  2.1793
 6119WAT     H225197   5.532   4.512   2.417  1.2416  0.2078  0.6675
 6119WAT    EPW25198   5.529   4.577   2.373  0.4032  0.2886  0.8337
 6120WAT      O25199   5.948   6.198   5.098  0.1259 -0.4040  0.0650
 6120WAT     H125200   5.897   6.269   5.098  1.3929  0.6354 -2.3032
 6120WAT     H225201   6.002   6.212   5.166 -1.0597 -0.2634  1.0139
 6120WAT    EPW25202   5.949   6.211   5.108  0.1379 -0.2297 -0.1446
 6121WAT      O25203   1.065   0.119   5.606  0.7120 -0.2252  0.1899
 6121WAT     H125204   1.137   0.082   5.638  2.4602  2.0829 -0.7324
 6121WAT     H225205   1.092   0.154   5.531 -1.6862 -0.1788 -0.7343
 6121WAT    EPW25206   1.080   0.119   5.600  0.6160  0.1226 -0.0829
 6122WAT      O25207   3.939   0.306   5.022 -0.1231 -0.3004 -0.3647
 6122WAT     H125208   3.917   0.379   5.065  0.0943 -0.8513  0.7247
 6122WAT     H225209   3.996   0.333   4.962 -0.4231  0.4939 -0.3007
 6122WAT    EPW25210   3.944   0.321   5.020 -0.1353 -0.2644 -0.1943
 6123WAT      O25211   3.779   0.054   6.024 -0.0553  0.4777 -0.5785
 6123WAT     H125212   3.696   0.039   6.043  0.2349 -0.1676  0.2415
 6123WAT     H225213   3.823   0.008   6.084  0.9039  2.3232  0.2371
 6123WAT    EPW25214   3.773   0.045   6.035  0.1293  0.6550 -0.3369
 6124WAT      O25215   6.793   7.638   3.673  0.2328  0.4880  0.0772
 6124WAT     H125216   6.801   7.646   3.759  1.5544  0.4447 -0.0344
 6124WAT     H225217   6.814   7.717   3.643 -1.4735  0.8911 -0.1565
 6124WAT    EPW25218   6.797   7.651   3.681  0.1760  0.5411  0.0262
 6125WAT      O25219   3.660   0.353   0.106 -0.4865  0.3504  0.4651
 6125WAT     H125220   3.664   0.274   0.143  2.5183  0.2668  0.2502
 6125WAT     H225221   3.741   0.363   0.073 -1.6951  2.2126 -2.2623
 6125WAT    EPW25222   3.673   0.342   0.106 -0.2212  0.6131  0.0304
 6126WAT      O25223   5.999   1.243   5.330  0.6285  0.0426 -0.0570
 6126WAT     H125224   6.071   1.260   5.377  0.1742 -3.1553  2.1300
 6126WAT     H225225   6.017   1.168   5.290 -1.0654 -0.2133 -0.4364
 6126WAT    EPW25226   6.012   1.234   5.331  0.3112 -0.4676  0.2100
 6127WAT      O25227   1.594   0.038   3.535 -0.4924  0.7848  0.5263
 6127WAT     H125228   1.528   0.008   3.584 -0.2357 -1.2560 -0.2832
 6127WAT     H225229   1.592   0.124   3.549 -1.3565  0.4379  2.9121
 6127WAT    EPW25230   1.584   0.046   3.544 -0.5822  0.4321  0.7592
 6128WAT      O25231   3.811   5.686   2.090  0.4313 -0.2431 -0.3970
 6128WAT     H125232   3.826   5.729   2.164  0.0383 -0.2706 -0.3002
 6128WAT     H225233   3.878   5.630   2.085  0.3341 -0.3997  0.0498
 6128WAT    EPW25234   3.823   5.684   2.100  0.3589 -0.2703 -0.3167
 6129WAT      O25235   4.513   0.329   1.943  0.0901 -0.0902  0.1149
 6129WAT     H125236   4.437   0.289   1.932 -0.0056  0.5455 -1.8729
 6129WAT     H225237   4.523   0.330   2.029 -2.2723  0.0585  0.4533
 6129WAT    EPW25238   4.503   0.323   1.954 -0.2730  0.0257 -0.1288
 6130WAT      O25239   1.542   3.549   3.965  0.3737  0.6596  0.0708
 6130WAT     H125240   1.480   3.502   4.004  0.9035 -0.2037 -0.0964
 6130WAT     H225241   1.502   3.580   3.893  0.1860 -0.0559 -0.1438
 6130WAT    EPW25242   1.527   3.546   3.960  0.4242  0.4264  0.0144
 6131WAT      O25243   0.908   6.829   5.951 -1.0089  0.1835 -0.2110
 6131WAT     H125244   0.887   6.877   6.021  0.1489  0.1380  0.1832
 6131WAT     H225245   0.885   6.748   5.975  3.1871 -0.6613  1.9715
 6131WAT    EPW25246   0.901   6.824   5.965 -0.2181  0.0520  0.1697
 6132WAT      O25247   1.826   1.988   1.532 -0.7225 -0.0365 -0.0416
 6132WAT     H125248   1.753   2.029   1.558 -0.9067 -0.2585 -0.2045
 6132WAT     H225249   1.885   2.012   1.591 -1.2986 -1.0816  1.0041
 6132WAT    EPW25250   1.824   1.998   1.545 -0.8348 -0.2236  0.0888
 6133WAT      O25251   7.466   7.632   5.007 -0.1282 -0.1610 -0.2913
 6133WAT     H125252   7.433   7.551   5.001  0.0618 -0.2959  0.4583
 6133WAT     H225253   7.406   7.676   5.052  0.5610 -0.3334  0.8235
 6133WAT    EPW25254   7.452   7.627   5.013  0.0017 -0.2064 -0.0159
 6134WAT      O25255   6.327   1.395   5.151  0.5167  0.4681 -0.1452
 6134WAT     H125256   6.371   1.416   5.223  0.7459  0.0284 -0.1570
 6134WAT     H225257   6.303   1.473   5.119  0.2499  0.6597  0.4970
 6134WAT    EPW25258   6.330   1.410   5.157  0.5111  0.4315 -0.0521
 6135WAT      O25259   4.399   5.959   3.671 -0.3236 -0.0741  0.1317
 6135WAT     H125260   4.437   5.897   3.623 -1.8992  1.1756 -2.9880
 6135WAT     H225261   4.466   6.006   3.702  0.7723 -1.0324 -0.6917
 6135WAT    EPW25262   4.414   5.957   3.668 -0.3945 -0.0311 -0.4508
 6136WAT      O25263   0.034   0.050   4.899  0.3314  0.1539  0.2606
 6136WAT     H125264   0.047  -0.033   4.877 -1.2100 -0.6095  1.9773
 6136WAT     H225265   0.109   0.072   4.938 -0.0387 -1.2316  1.8742
 6136WAT    EPW25266   0.047   0.041   4.902  0.0491 -0.1635  0.7525
 6137WAT      O25267   4.576   7.241   5.352  0.4751 -0.3856  0.3473
 6137WAT     H125268   4.628   7.307   5.378 -2.3976  2.3026 -0.1829
 6137WAT     H225269   4.597   7.231   5.268 -2.2980  3.6527 -1.1795
 6137WAT    EPW25270   4.587   7.250   5.343 -0.3589  0.6080  0.0435
 6138WAT      O25271   5.199   0.337   4.505  0.2267 -0.2814  0.2103
 6138WAT     H125272   5.168   0.367   4.582 -1.7148 -1.7194  0.0745
 6138WAT     H225273   5.245   0.267   4.528 -1.4056 -1.4649  0.0376
 6138WAT    EPW25274   5.201   0.331   4.520 -0.3012 -0.6686  0.1647
 6139WAT      O25275   4.877   2.048   5.379 -0.4632  0.3333 -0.2209
 6139WAT     H125276   4.922   2.104   5.329  2.5750 -1.2748  0.5107
 6139WAT     H225277   4.854   2.097   5.448  1.6395  0.9135  0.1483
 6139WAT    EPW25278   4.880   2.064   5.382  0.2962  0.1815 -0.0583
 6140WAT      O25279   1.022   2.276   4.320  0.2069 -0.0803 -0.5762
 6140WAT     H125280   1.103   2.255   4.297  0.8999  0.9044  0.7973
 6140WAT     H225281   0.973   2.216   4.281  1.7907 -2.1387  0.4394
 6140WAT    EPW25282   1.027   2.264   4.311  0.5432 -0.2389 -0.2233
 6141WAT      O25283   4.637   2.617   6.493  0.1635 -0.3072 -0.3325
 6141WAT     H125284   4.714   2.588   6.464  0.3563 -1.4198  1.1455
 6141WAT     H225285   4.645   2.704   6.489  0.7168 -0.3924 -2.0820
 6141WAT    EPW25286   4.650   2.625   6.488  0.2737 -0.4841 -0.3726
 6142WAT      O25287   4.068   0.447   4.835  0.1166 -0.1942  0.4418
 6142WAT     H125288   4.053   0.511   4.892 -0.5149  1.9004 -1.8747
 6142WAT     H225289   4.152   0.427   4.848  0.6716  1.9091  0.5801
 6142WAT    EPW25290   4.078   0.454   4.845  0.1053  0.4260  0.1201
 6143WAT      O25291   6.996   2.264   3.961  0.4453  0.3604  0.1535
 6143WAT     H125292   7.067   2.222   3.932  1.0241  1.7850 -0.5995
 6143WAT     H225293   6.993   2.243   4.045  0.3212 -1.6808 -0.3017
 6143WAT    EPW25294   7.006   2.254   3.969  0.5124  0.2693 -0.0250
 6144WAT      O25295   6.719   0.172   4.441 -0.1580 -0.3389  0.1143
 6144WAT     H125296   6.780   0.198   4.498 -0.8252  2.7328 -0.4091
 6144WAT     H225297   6.760   0.175   4.364 -0.2235 -1.0898  0.0412
 6144WAT    EPW25298   6.734   0.176   4.438 -0.2663  0.0039  0.0262
 6145WAT      O25299   4.030   5.230   6.658  0.1695 -0.2622  0.1149
 6145WAT     H125300   4.062   5.186   6.590  0.3417  1.0809 -0.7117
 6145WAT     H225301   4.101   5.264   6.696 -0.0509  0.5977 -0.2057
 6145WAT    EPW25302   4.045   5.229   6.654  0.1624  0.0632 -0.0546
 6146WAT      O25303   5.025   1.510   1.831 -0.8115 -0.6783 -0.2188
 6146WAT     H125304   4.974   1.485   1.897 -1.2115  0.0163 -0.2564
 6146WAT     H225305   4.969   1.519   1.764 -0.9820  1.9087  0.1962
 6146WAT    EPW25306   5.009   1.507   1.831 -0.8958 -0.1935 -0.1631
 6147WAT      O25307   0.888   7.051   4.103  0.2968 -0.3633  0.1301
 6147WAT     H125308   0.897   7.105   4.171  0.6496  0.0225 -0.2252
 6147WAT     H225309   0.809   7.072   4.071  1.0002  0.9136 -0.8456
 6147WAT    EPW25310   0.877   7.062   4.109  0.4528 -0.1177 -0.0665
 6148WAT      O25311   5.431   0.731   5.903  0.3690 -0.2313  0.1600
 6148WAT     H125312   5.347   0.754   5.895  0.8102  0.9368 -1.6522
 6148WAT     H225313   5.442   0.724   5.989 -1.9002 -1.6980  0.4154
 6148WAT    EPW25314   5.420   0.733   5.914  0.0989 -0.2754 -0.0699
 6149WAT      O25315   2.771   7.673   7.121  0.7827  0.0822 -0.0488
 6149WAT     H125316   2.692   7.698   7.095  0.6534 -1.6308 -1.4286
 6149WAT     H225317   2.824   7.733   7.085  0.1827  0.8431  0.3166
 6149WAT    EPW25318   2.767   7.686   7.112  0.6749 -0.0584 -0.1987
 6150WAT      O25319   6.382   3.259   7.451 -0.3358 -0.1562  0.0603
 6150WAT     H125320   6.414   3.335   7.422  2.1442 -1.8914 -2.3123
 6150WAT     H225321   6.312   3.246   7.401  0.2347 -0.1887 -0.7505
 6150WAT    EPW25322   6.377   3.268   7.439  0.1148 -0.4173 -0.4100
 6151WAT      O25323   6.643   4.971   4.400  0.2914 -0.7526  0.0293
 6151WAT     H125324   6.592   4.979   4.471 -0.3128 -1.5082 -0.3095
 6151WAT     H225325   6.591   4.933   4.342  0.6595  0.2140 -0.9645
 6151WAT    EPW25326   6.628   4.966   4.402  0.2565 -0.7215 -0.1676
 6152WAT      O25327   3.530   5.781   4.428 -0.1036  0.3813 -0.5792
 6152WAT     H125328   3.522   5.826   4.502 -2.6894  0.4899 -0.8435
 6152WAT     H225329   3.594   5.724   4.446  0.5372  1.5588  1.0945
 6152WAT    EPW25330   3.538   5.779   4.442 -0.3909  0.5713 -0.3710
 6153WAT      O25331   5.303   7.273   1.250  0.1757 -0.5601  0.2002
 6153WAT     H125332   5.316   7.359   1.252  1.2101 -0.7130  1.6169
 6153WAT     H225333   5.350   7.247   1.181 -0.4709  0.0473 -0.4784
 6153WAT    EPW25334   5.312   7.282   1.240  0.2330 -0.4929  0.3092
 6154WAT      O25335   4.615   0.050   6.342 -0.3819  0.1654  0.1565
 6154WAT     H125336   4.537   0.039   6.379 -0.6227 -0.9307 -0.6289
 6154WAT     H225337   4.607   0.125   6.298 -0.7612  0.4014  0.6197
 6154WAT    EPW25338   4.602   0.059   6.341 -0.4735  0.0384  0.1089
 6155WAT      O25339   4.781   5.858   3.622 -0.9001  0.4742 -0.0447
 6155WAT     H125340   4.798   5.871   3.707  0.4846  2.1929 -0.5201
 6155WAT     H225341   4.847   5.809   3.595 -1.5423 -0.3927 -0.0762
 6155WAT    EPW25342   4.793   5.853   3.631 -0.7904  0.6000 -0.1196
 6156WAT      O25343   3.417   0.026   5.599 -0.1281  0.0267 -0.3117
 6156WAT     H125344   3.398  -0.035   5.540 -1.0791 -0.8542  0.8565
 6156WAT     H225345   3.353   0.019   5.657  0.8636  0.7560  0.9253
 6156WAT    EPW25346   3.405   0.016   5.599 -0.1221  0.0043  0.0436
 6157WAT      O25347   1.539   0.158   5.660 -0.0144 -0.2014 -0.0101
 6157WAT     H125348   1.519   0.242   5.649 -0.3783 -0.3278 -0.3663
 6157WAT     H225349   1.558   0.131   5.579 -0.9478 -0.7181 -0.0664
 6157WAT    EPW25350   1.539   0.166   5.646 -0.2060 -0.2964 -0.0710
 6158WAT      O25351   1.062   1.663   4.322  0.4529 -0.4749  0.0126
 6158WAT     H125352   1.062   1.611   4.392  1.4185 -0.6255 -0.0941
 6158WAT     H225353   0.987   1.642   4.282  0.9809 -2.0611 -0.2224
 6158WAT    EPW25354   1.051   1.652   4.326  0.6736 -0.7315 -0.0379
 6159WAT      O25355   2.910   2.581   1.121  0.5057 -0.3604  0.3261
 6159WAT     H125356   2.992   2.575   1.152  0.7857  1.0427 -0.0438
 6159WAT     H225357   2.918   2.639   1.056 -0.4589 -1.6093 -0.9541
 6159WAT    EPW25358   2.924   2.589   1.116  0.4046 -0.3376  0.0823
 6160WAT      O25359   4.798   1.386   3.747  0.0909 -0.3557 -0.3501
 6160WAT     H125360   4.834   1.464   3.731  2.0039 -0.5671  2.2868
 6160WAT     H225361   4.834   1.335   3.687  1.0735  0.2412 -0.2919
 6160WAT    EPW25362   4.808   1.390   3.736  0.5187 -0.2988  0.0480
 6161WAT      O25363   5.478   1.026   6.088 -0.0303 -0.2873 -0.9269
 6161WAT     H125364   5.480   1.090   6.147  0.1810 -0.4996 -0.7011
 6161WAT     H225365   5.398   0.991   6.098  0.1378 -0.5561 -0.5122
 6161WAT    EPW25366   5.466   1.030   6.098  0.0257 -0.3584 -0.8323
 6162WAT      O25367   7.057   7.604   5.740 -0.3232 -0.2026 -0.0581
 6162WAT     H125368   7.025   7.554   5.677 -1.3849 -1.2464  1.2318
 6162WAT     H225369   6.987   7.646   5.771  0.2602  0.6869  0.1022
 6162WAT    EPW25370   7.042   7.603   5.736 -0.3938 -0.2254  0.1561
 6163WAT      O25371   3.595   0.420   2.259 -0.0957  0.5152  0.3315
 6163WAT     H125372   3.579   0.434   2.174 -0.6311  0.3891  0.4088
 6163WAT     H225373   3.648   0.351   2.259 -1.0531 -0.2481  0.1412
 6163WAT    EPW25374   3.600   0.412   2.246 -0.3162  0.3838  0.3148
 6164WAT      O25375   5.988   0.033   3.868  0.5818  0.1832  0.0294
 6164WAT     H125376   5.939   0.088   3.915 -0.4097 -0.4008 -0.2933
 6164WAT     H225377   5.993   0.072   3.790  1.6477  0.8159  0.3935
 6164WAT    EPW25378   5.981   0.047   3.863  0.5928  0.1904  0.0355
 6165WAT      O25379   4.332   6.872   5.237  0.0987  0.2267 -0.4328
 6165WAT     H125380   4.275   6.914   5.288 -0.8841 -1.3474 -0.1280
 6165WAT     H225381   4.367   6.813   5.291 -1.0018 -1.5084 -1.5124
 6165WAT    EPW25382   4.329   6.869   5.253 -0.2091 -0.2621 -0.5473
 6166WAT      O25383   4.329   6.126   7.385 -0.2768  0.3790  0.0983
 6166WAT     H125384   4.244   6.143   7.381 -0.4084 -0.2762  0.0563
 6166WAT     H225385   4.358   6.179   7.448 -0.4381  1.7153 -0.9148
 6166WAT    EPW25386   4.321   6.136   7.394 -0.3201  0.4796 -0.0575
 6167WAT      O25387   3.433   2.324   7.375 -0.4025 -0.2059 -0.9936
 6167WAT     H125388   3.353   2.351   7.397 -0.6105 -1.4613 -0.0739
 6167WAT     H225389   3.425   2.301   7.292 -1.0909 -0.5964 -0.8262
 6167WAT    EPW25390   3.420   2.324   7.366 -0.5349 -0.4491 -0.8330
 6168WAT      O25391   1.465   5.990   3.378 -0.5951 -0.0957  0.0969
 6168WAT     H125392   1.492   6.030   3.305  2.7181 -1.2987  0.4741
 6168WAT     H225393   1.447   5.909   3.352 -2.8753  0.3582  0.0971
 6168WAT    EPW25394   1.466   5.984   3.364 -0.4425 -0.2064  0.1526
 6169WAT      O25395   6.158   1.898   3.059 -0.0250 -0.0095  0.5480
 6169WAT     H125396   6.171   1.829   3.111 -2.9232 -1.3688 -0.3370
 6169WAT     H225397   6.071   1.902   3.052  0.1291  2.5597 -1.0452
 6169WAT    EPW25398   6.147   1.889   3.066 -0.4303  0.1692  0.1819
 6170WAT      O25399   4.247   5.086   5.849 -0.0494 -0.1951 -0.1559
 6170WAT     H125400   4.189   5.097   5.913  2.0119  1.0399  1.6239
 6170WAT     H225401   4.226   5.147   5.791 -0.9853 -0.2975  0.0574
 6170WAT    EPW25402   4.235   5.096   5.849  0.1168 -0.0278  0.1385
 6171WAT      O25403   0.135   0.326   5.590  0.5069 -0.1095 -0.0558
 6171WAT     H125404   0.199   0.379   5.616  2.0905 -1.0367 -1.7419
 6171WAT     H225405   0.173   0.279   5.526 -0.1819 -4.4460  2.2995
 6171WAT    EPW25406   0.150   0.327   5.584  0.6391 -0.8870  0.0431
 6172WAT      O25407   4.409   3.887   0.383  0.0650 -0.1650  0.2499
 6172WAT     H125408   4.484   3.895   0.426  0.4312 -1.6040 -0.0710
 6172WAT     H225409   4.429   3.911   0.302  0.2466 -0.8011  0.1055
 6172WAT    EPW25410   4.423   3.892   0.378  0.1459 -0.4715  0.1812
 6173WAT      O25411   3.961   1.190   7.195 -0.1051  0.9077  0.3173
 6173WAT     H125412   3.957   1.210   7.280  1.3442 -2.0254  1.1848
 6173WAT     H225413   4.032   1.233   7.168  1.4640 -0.8242  1.4970
 6173WAT    EPW25414   3.971   1.199   7.204  0.3408  0.2186  0.6197
 6174WAT      O25415   4.331   6.403   6.139 -0.1150 -0.1774  0.1144
 6174WAT     H125416   4.285   6.477   6.144  0.3628  0.1732 -0.5028
 6174WAT     H225417   4.350   6.385   6.222 -0.4611  0.2440  0.2912
 6174WAT    EPW25418   4.327   6.412   6.152 -0.0955 -0.0634  0.0494
 6175WAT      O25419   6.430   0.690   0.650  0.6542  0.4240  0.2178
 6175WAT     H125420   6.345   0.677   0.634  0.8016  0.6198 -0.8370
 6175WAT     H225421   6.445   0.767   0.612  1.7922 -0.6277 -1.5817
 6175WAT    EPW25422   6.419   0.700   0.642  0.8441  0.2975 -0.2038
 6176WAT      O25423   7.074   4.901   0.485 -0.1229  0.0724 -0.5637
 6176WAT     H125424   7.130   4.845   0.522  0.2692  0.6289 -0.2977
 6176WAT     H225425   7.077   4.880   0.401  0.5910  0.1660 -0.5720
 6176WAT    EPW25426   7.083   4.890   0.478  0.0405  0.1684 -0.5256
 6177WAT      O25427   6.777   6.673   6.854  0.1892 -0.1160 -0.6708
 6177WAT     H125428   6.771   6.672   6.767  0.4460  0.9524 -0.7126
 6177WAT     H225429   6.794   6.590   6.874 -0.4111 -0.4848 -1.5977
 6177WAT    EPW25430   6.778   6.660   6.844  0.1385 -0.0127 -0.8139
 6178WAT      O25431   4.535   2.185   3.118 -0.4338  0.3415  0.3939
 6178WAT     H125432   4.493   2.215   3.188 -1.3953  0.4790 -0.2228
 6178WAT     H225433   4.506   2.103   3.111  0.1030  0.1381  0.4830
 6178WAT    EPW25434   4.524   2.177   3.127 -0.4966  0.3318  0.3159
 6179WAT      O25435   6.159   6.564   3.154  0.2054  0.1103 -0.1587
 6179WAT     H125436   6.139   6.486   3.187  4.1130 -0.6522  0.9036
 6179WAT     H225437   6.190   6.545   3.074 -0.2483  0.7573 -0.4933
 6179WAT    EPW25438   6.161   6.549   3.147  0.7156  0.0932 -0.0512
 6180WAT      O25439   0.081   0.611   4.429  0.6987 -0.0121 -0.5375
 6180WAT     H125440   0.045   0.597   4.507  2.3485  1.5337  0.5718
 6180WAT     H225441   0.014   0.604   4.374 -0.7732  0.1372  1.1503
 6180WAT    EPW25442   0.066   0.608   4.432  0.7250  0.2383 -0.1243
 6181WAT      O25443   1.215   5.954   4.551  0.3676 -0.2717  0.0890
 6181WAT     H125444   1.174   5.897   4.603 -0.4242  1.3267  1.2675
 6181WAT     H225445   1.294   5.918   4.540  0.7645 -0.4340  2.8616
 6181WAT    EPW25446   1.220   5.940   4.557  0.3093 -0.0595  0.6726
 6182WAT      O25447   2.797   3.808   1.007 -0.5667 -0.3791 -0.4070
 6182WAT     H125448   2.832   3.741   0.962  2.7382  0.6229  0.4016
 6182WAT     H225449   2.825   3.794   1.089 -1.1579  1.1643  0.0854
 6182WAT    EPW25450   2.807   3.796   1.012 -0.1658 -0.0031 -0.2148
 6183WAT      O25451   2.559   4.063   5.376 -0.3508 -0.1097  0.5580
 6183WAT     H125452   2.541   3.978   5.369 -0.1265 -0.4132  2.7921
 6183WAT     H225453   2.633   4.072   5.331 -1.0769 -0.7799 -0.8407
 6183WAT    EPW25454   2.567   4.052   5.368 -0.4249 -0.2535  0.6814
 6184WAT      O25455   1.826   7.011   6.014 -0.2297  0.1412 -0.6325
 6184WAT     H125456   1.769   6.963   5.969  1.0063 -0.1821 -1.9248
 6184WAT     H225457   1.790   7.091   6.016 -0.7882 -0.0937 -1.2835
 6184WAT    EPW25458   1.812   7.016   6.008 -0.1296  0.0588 -0.9196
 6185WAT      O25459   4.154   1.362   3.772  0.5740 -0.1858  0.2605
 6185WAT     H125460   4.209   1.297   3.792 -0.2557 -0.6455  1.1144
 6185WAT     H225461   4.206   1.427   3.747  1.4948 -0.6177  1.0420
 6185WAT    EPW25462   4.170   1.362   3.771  0.5874 -0.3175  0.5021
 6186WAT      O25463   4.298   4.099   7.245 -0.0650  0.0654  0.9820
 6186WAT     H125464   4.358   4.113   7.307 -0.1428  1.2444  0.8040
 6186WAT     H225465   4.247   4.037   7.279  1.9103 -1.8956  0.6764
 6186WAT    EPW25466   4.299   4.092   7.259  0.2153 -0.0502  0.9106
 6187WAT      O25467   4.933   1.222   4.684  0.5178  0.0150  0.4986
 6187WAT     H125468   4.977   1.164   4.636  0.8237 -0.4512  1.3205
 6187WAT     H225469   4.978   1.296   4.674  0.8361 -0.1882  0.4266
 6187WAT    EPW25470   4.946   1.225   4.675  0.6100 -0.0839  0.6093
 6188WAT      O25471   7.109   0.474   5.228 -0.5571  0.1336  0.3280
 6188WAT     H125472   7.100   0.388   5.218  0.8164  0.1508 -1.3940
 6188WAT     H225473   7.029   0.500   5.252 -1.9627 -1.2052 -2.4513
 6188WAT    EPW25474   7.096   0.465   5.230 -0.5618 -0.0616 -0.3369
 6189WAT      O25475   4.500   6.408   2.967  0.2586  0.8564  0.4441
 6189WAT     H125476   4.496   6.363   2.892  0.1191 -0.2619  1.0960
 6189WAT     H225477   4.554   6.473   2.949 -1.1014  1.6111 -1.1256
 6189WAT    EPW25478   4.508   6.411   2.953  0.0371  0.8027  0.3085
 6190WAT      O25479   5.274   7.510   7.293 -0.4110  0.2863  0.3580
 6190WAT     H125480   5.286   7.549   7.216  0.5303 -0.1025  0.2957
 6190WAT     H225481   5.302   7.569   7.351  1.3590 -0.3886  0.2443
 6190WAT    EPW25482   5.280   7.524   7.290 -0.0105  0.1292  0.3320
 6191WAT      O25483   4.999   3.264   6.853  0.1445 -0.0109  0.6103
 6191WAT     H125484   5.034   3.225   6.784 -1.1473 -1.2515  0.6199
 6191WAT     H225485   5.020   3.348   6.842  0.8287 -0.3402 -0.7372
 6191WAT    EPW25486   5.008   3.271   6.841  0.0548 -0.2428  0.4127
 6192WAT      O25487   4.271   5.827   4.638  0.1184  0.1313  0.0424
 6192WAT     H125488   4.356   5.832   4.653  0.3827 -0.0751 -1.3021
 6192WAT     H225489   4.262   5.860   4.557 -1.0036 -0.2957 -0.0253
 6192WAT    EPW25490   4.282   5.833   4.628 -0.0083  0.0377 -0.1662
 6193WAT      O25491   3.111   7.175   4.599 -0.2364 -0.5208  0.0742
 6193WAT     H125492   3.036   7.195   4.639 -0.1940  0.1409 -0.1791
 6193WAT     H225493   3.140   7.251   4.569  1.4908 -0.4392  1.7658
 6193WAT    EPW25494   3.104   7.189   4.601  0.0250 -0.4110  0.2867
 6194WAT      O25495   2.419   2.710   7.080 -0.0820  0.3116 -0.2525
 6194WAT     H125496   2.372   2.779   7.054  1.0870  1.5220  0.6835
 6194WAT     H225497   2.501   2.732   7.059  0.3406 -0.7412  0.2125
 6194WAT    EPW25498   2.424   2.724   7.073  0.1531  0.3349 -0.0455
 6195WAT      O25499   4.391   0.101   0.973 -0.6943 -0.2384 -0.3263
 6195WAT     H125500   4.397   0.132   0.892  0.0152 -0.1547 -0.2481
 6195WAT     H225501   4.418   0.168   1.022 -3.0816  0.4696  0.1520
 6195WAT    EPW25502   4.396   0.116   0.968 -0.9422 -0.1214 -0.2441
 6196WAT      O25503   1.906   3.402   4.184  0.0363 -0.0607 -0.6282
 6196WAT     H125504   1.834   3.390   4.233  1.2287  0.3109  1.3542
 6196WAT     H225505   1.941   3.322   4.180  1.6418  0.3516  2.1211
 6196WAT    EPW25506   1.901   3.388   4.191  0.4496  0.0551  0.0708
 6197WAT      O25507   2.919   0.958   2.872  0.6454  0.0290 -0.1674
 6197WAT     H125508   2.899   1.030   2.917 -1.2033 -1.0725  0.9448
 6197WAT     H225509   2.844   0.937   2.833  0.7232 -2.0009  0.6573
 6197WAT    EPW25510   2.905   0.965   2.873  0.3838 -0.4336  0.1187
 6198WAT      O25511   4.370   0.730   4.073  0.0717 -0.0176  0.1141
 6198WAT     H125512   4.321   0.760   4.138 -1.3926  1.2552 -1.4883
 6198WAT     H225513   4.329   0.657   4.048  0.7766 -0.6474  0.7351
 6198WAT    EPW25514   4.357   0.724   4.079 -0.0405  0.0774 -0.0309
 6199WAT      O25515   5.467   0.394   4.796 -0.8537  0.1797 -0.1741
 6199WAT     H125516   5.458   0.307   4.798  0.0478  0.0832 -0.1756
 6199WAT     H225517   5.388   0.422   4.819 -2.0021 -0.6056 -2.7324
 6199WAT    EPW25518   5.454   0.385   4.800 -0.8902  0.0495 -0.5522
 6200WAT      O25519   0.044   6.257   6.265  0.4038 -0.0125  0.2730
 6200WAT     H125520   0.123   6.292   6.265 -0.7132  3.0071 -2.0454
 6200WAT     H225521   0.059   6.171   6.258  3.3845  0.3305  1.2957
 6200WAT    EPW25522   0.058   6.249   6.264  0.6791  0.4842  0.0816
 6201WAT      O25523   5.032   4.628   7.679  0.1502 -0.6773 -0.3894
 6201WAT     H125524   5.085   4.694   7.702 -1.2240  0.5452 -0.5119
 6201WAT     H225525   4.967   4.669   7.638  0.4621 -2.3819 -2.7697
 6201WAT    EPW25526   5.030   4.644   7.676 -0.0067 -0.7485 -0.7591
 6202WAT      O25527   5.198   1.766   3.846  0.5339  0.0791  0.4275
 6202WAT     H125528   5.218   1.820   3.911  1.2497  0.2327  0.0832
 6202WAT     H225529   5.275   1.732   3.822  0.1758 -0.6081  0.2139
 6202WAT    EPW25530   5.212   1.769   3.852  0.5867  0.0003  0.3451
 6203WAT      O25531   0.905   0.938   5.389  0.3241  0.2889  0.0250
 6203WAT     H125532   0.988   0.939   5.416  0.6517  0.4401 -0.9489
 6203WAT     H225533   0.860   0.965   5.459  1.0130 -0.5176  0.8024
 6203WAT    EPW25534   0.910   0.942   5.404  0.4743  0.1921 -0.0040
 6204WAT      O25535   2.268   6.755   7.669  0.3276 -0.1635 -0.2770
 6204WAT     H125536   2.301   6.800   7.736  0.5240 -0.0213 -0.4676
 6204WAT     H225537   2.212   6.700   7.707 -0.4507  0.7258 -0.0922
 6204WAT    EPW25538   2.264   6.754   7.684  0.2416 -0.0111 -0.2778
 6205WAT      O25539   3.452   2.158   2.515  0.9229  0.2847 -0.2879
 6205WAT     H125540   3.457   2.145   2.429 -1.7624 -0.9308 -0.3626
 6205WAT     H225541   3.444   2.077   2.547 -1.4800  0.8043  0.6972
 6205WAT    EPW25542   3.451   2.144   2.507  0.1713  0.1819 -0.1534
 6206WAT      O25543   0.889   1.645   3.581 -0.0096  0.0256 -0.0477
 6206WAT     H125544   0.930   1.577   3.618 -0.5047  0.7622  1.9980
 6206WAT     H225545   0.951   1.707   3.578  0.6678 -0.6218 -2.6126
 6206WAT    EPW25546   0.904   1.644   3.586  0.0173  0.0387 -0.1244
 6207WAT      O25547   3.082   3.045   5.984  0.3370  0.2270  0.3780
 6207WAT     H125548   3.072   2.959   5.992 -0.1998  0.3015  0.5270
 6207WAT     H225549   3.118   3.053   5.905  0.0119 -0.1138  0.1875
 6207WAT    EPW25550   3.086   3.033   5.973  0.2097  0.1876  0.3718
 6208WAT      O25551   4.607   0.573   4.538 -0.0067  0.3423  0.1230
 6208WAT     H125552   4.636   0.631   4.480  0.4370  1.0948  1.0657
 6208WAT     H225553   4.537   0.538   4.499  0.6761  0.3102 -1.1413
 6208WAT    EPW25554   4.601   0.576   4.523  0.1597  0.4487  0.0755
 6209WAT      O25555   2.832   2.676   6.889  0.2657  0.0383  0.2654
 6209WAT     H125556   2.893   2.734   6.912  1.1275 -0.5634 -0.4353
 6209WAT     H225557   2.812   2.699   6.808 -0.1993  0.0262  0.3764
 6209WAT    EPW25558   2.838   2.688   6.881  0.3243 -0.0524  0.1783
 6210WAT      O25559   5.376   0.903   2.543 -0.2740 -0.3631 -0.4778
 6210WAT     H125560   5.421   0.978   2.547 -2.8333  1.2355  2.4733
 6210WAT     H225561   5.347   0.901   2.461  1.5243  0.7802 -1.2020
 6210WAT    EPW25562   5.378   0.914   2.531 -0.3864  0.0420 -0.1488
 6211WAT      O25563   2.466   3.236   3.195 -0.3407  0.1898  0.3835
 6211WAT     H125564   2.506   3.185   3.254  0.5320  0.9058  0.4229
 6211WAT     H225565   2.531   3.267   3.147 -0.9190  0.7984 -0.0228
 6211WAT    EPW25566   2.481   3.233   3.197 -0.2972  0.3854  0.3293
 6212WAT      O25567   3.942   1.569   3.880  0.0288  0.0638 -0.1738
 6212WAT     H125568   4.000   1.611   3.829  0.1100  0.2779  0.0957
 6212WAT     H225569   3.973   1.487   3.882 -0.5345 -0.2019 -1.3118
 6212WAT    EPW25570   3.955   1.563   3.873 -0.0424  0.0562 -0.3021
 6213WAT      O25571   5.517   1.548   7.209 -0.1300  0.6549  0.3516
 6213WAT     H125572   5.438   1.523   7.237 -0.1470  0.8038  0.4353
 6213WAT     H225573   5.536   1.489   7.148 -1.3823  2.0253 -1.4766
 6213WAT    EPW25574   5.508   1.535   7.204 -0.3175  0.8793  0.0939
 6214WAT      O25575   2.299   2.941   4.815  0.1594 -0.1863  0.1692
 6214WAT     H125576   2.245   2.969   4.877  0.7958 -1.2386  1.2273
 6214WAT     H225577   2.246   2.900   4.759 -0.4469  0.9581 -0.1327
 6214WAT    EPW25578   2.283   2.939   4.816  0.1639 -0.1727  0.2809
 6215WAT      O25579   4.933   6.122   3.830  0.4665  0.2036 -0.0776
 6215WAT     H125580   4.968   6.184   3.779  1.1732 -0.2458 -0.1560
 6215WAT     H225581   5.002   6.088   3.871 -0.0491  0.2682  0.8677
 6215WAT    EPW25582   4.949   6.126   3.828  0.4947  0.1467  0.0505
 6216WAT      O25583   2.600   2.363   0.215 -0.6483  0.1678  0.0015
 6216WAT     H125584   2.658   2.299   0.226  0.9296  1.6878  0.9154
 6216WAT     H225585   2.608   2.383   0.130  1.3102  1.3511  0.4170
 6216WAT    EPW25586   2.610   2.356   0.204 -0.1259  0.5672  0.1979
 6217WAT      O25587   2.844   0.668   3.746  0.6212  0.1095 -0.0159
 6217WAT     H125588   2.880   0.732   3.793  2.5311  0.4826 -1.8404
 6217WAT     H225589   2.910   0.613   3.731 -0.1802 -0.5691 -1.2633
 6217WAT    EPW25590   2.859   0.670   3.751  0.7850  0.0644 -0.4697
 6218WAT      O25591   4.444   0.590   2.244  0.2716  0.1767  0.3120
 6218WAT     H125592   4.378   0.637   2.212  0.7436 -0.4039 -1.6846
 6218WAT     H225593   4.424   0.581   2.328 -0.5571  2.6803  0.4483
 6218WAT    EPW25594   4.431   0.595   2.252  0.2189  0.4608  0.0372
 6219WAT      O25595   3.307   6.395   2.715  0.4798  0.0990  0.1099
 6219WAT     H125596   3.361   6.462   2.703 -0.2106  0.5536 -0.5471
 6219WAT     H225597   3.232   6.433   2.740  0.6448 -0.5628  1.7447
 6219WAT    EPW25598   3.304   6.410   2.717  0.4022  0.0684  0.2544
 6220WAT      O25599   3.832   2.113   2.744  0.1345 -0.0189  0.2938
 6220WAT     H125600   3.897   2.144   2.695 -0.5056 -0.1004 -0.6355
 6220WAT     H225601   3.817   2.034   2.711 -1.7790  0.7601 -0.9070
 6220WAT    EPW25602   3.840   2.106   2.732 -0.2427  0.0841 -0.0208
 6221WAT      O25603   7.620   3.617   4.894  0.8079  0.3444 -0.0175
 6221WAT     H125604   7.654   3.653   4.966  1.4250 -0.1134 -0.0697
 6221WAT     H225605   7.690   3.586   4.852  0.7244  2.5440 -1.9437
 6221WAT    EPW25606   7.635   3.618   4.898  0.8867  0.6017 -0.3098
 6222WAT      O25607   1.264   7.076   0.297  0.4435  0.3312  0.4377
 6222WAT     H125608   1.270   7.013   0.238 -0.8072  0.2625  0.3527
 6222WAT     H225609   1.346   7.087   0.324  0.6606 -1.5797  0.7174
 6222WAT    EPW25610   1.277   7.068   0.292  0.2908  0.0387  0.4665
 6223WAT      O25611   2.427   5.575   3.555 -0.3032  0.1404  0.5831
 6223WAT     H125612   2.394   5.534   3.485 -2.2830  0.2927  1.3740
 6223WAT     H225613   2.358   5.586   3.607  0.3077  3.5146  0.9068
 6223WAT    EPW25614   2.412   5.571   3.552 -0.5054  0.6613  0.7478
 6224WAT      O25615   5.445   2.350   2.682  0.2117 -0.5177  0.0026
 6224WAT     H125616   5.378   2.295   2.694 -0.1126  0.1460  1.4254
 6224WAT     H225617   5.409   2.429   2.685  1.0497 -0.1455  0.7849
 6224WAT    EPW25618   5.430   2.353   2.684  0.2876 -0.3646  0.3284
 6225WAT      O25619   2.826   4.814   7.375  0.0349  0.1684 -0.1430
 6225WAT     H125620   2.891   4.766   7.342  1.5404  1.2589  1.1219
 6225WAT     H225621   2.756   4.788   7.328  1.5308 -0.2598 -2.3046
 6225WAT    EPW25622   2.825   4.803   7.363  0.4783  0.2662 -0.2754
 6226WAT      O25623   1.974   5.715   2.759  0.1364  0.1867 -0.7544
 6226WAT     H125624   2.026   5.777   2.728  0.9748 -0.5268 -0.7989
 6226WAT     H225625   1.922   5.697   2.691  1.1960 -0.5430 -1.4036
 6226WAT    EPW25626   1.974   5.721   2.744  0.4168 -0.0265 -0.8569
 6227WAT      O25627   5.819   0.524   3.369 -0.2648  0.2619 -0.0607
 6227WAT     H125628   5.831   0.471   3.300  0.5642  0.2488  0.0862
 6227WAT     H225629   5.831   0.471   3.437  2.2582  0.9344  0.1158
 6227WAT    EPW25630   5.822   0.508   3.369  0.2304  0.3593 -0.0129
 6228WAT      O25631   3.876   2.101   1.247 -0.0785  0.3450 -0.2993
 6228WAT     H125632   3.866   2.179   1.286  0.1109  0.6169 -0.7884
 6228WAT     H225633   3.904   2.050   1.312  2.2214  1.2592 -0.4576
 6228WAT    EPW25634   3.879   2.105   1.262  0.2892  0.5202 -0.3949
 6229WAT      O25635   5.109   2.593   5.323  0.3573  0.2591 -0.6701
 6229WAT     H125636   5.186   2.633   5.320  1.8415 -2.3936 -0.5725
 6229WAT     H225637   5.095   2.569   5.241 -0.0693  0.2105 -0.5847
 6229WAT    EPW25638   5.118   2.595   5.311  0.5135 -0.1399 -0.6430
 6230WAT      O25639   2.017   5.786   3.837 -0.7723 -0.2787  0.6529
 6230WAT     H125640   2.034   5.780   3.752 -1.4049 -0.2049  0.5163
 6230WAT     H225641   2.090   5.819   3.871 -0.8510  0.5990 -0.0022
 6230WAT    EPW25642   2.030   5.790   3.830 -0.8774 -0.1382  0.5359
 6231WAT      O25643   6.040   1.569   1.811 -0.1219 -0.2796  0.0327
 6231WAT     H125644   6.014   1.607   1.737  0.4111 -0.2728 -0.1609
 6231WAT     H225645   6.074   1.634   1.857  0.1278 -0.3898  0.0090
 6231WAT    EPW25646   6.042   1.584   1.807 -0.0063 -0.2949  0.0006
 6232WAT      O25647   3.724   0.027   3.006  0.5679 -0.2935  0.5229
 6232WAT     H125648   3.715   0.103   2.963 -0.0267  0.2677  1.5882
 6232WAT     H225649   3.742  -0.030   2.943 -2.6646  0.0022 -0.8789
 6232WAT    EPW25650   3.725   0.030   2.990  0.0025 -0.1669  0.4732
 6233WAT      O25651   5.842   1.373   1.912  0.1799  0.2724 -0.3760
 6233WAT     H125652   5.895   1.308   1.939 -0.2352  0.7903  1.8803
 6233WAT     H225653   5.897   1.435   1.887  0.5845 -0.7306 -2.1025
 6233WAT    EPW25654   5.858   1.372   1.912  0.1783  0.2008 -0.2977
 6234WAT      O25655   5.252   1.193   0.791  0.0473 -0.0528 -0.3090
 6234WAT     H125656   5.190   1.227   0.739 -1.1687 -0.4009  0.8489
 6234WAT     H225657   5.274   1.260   0.843  0.2492 -0.0758 -0.3643
 6234WAT    EPW25658   5.246   1.208   0.791 -0.1025 -0.1077 -0.1461
 6235WAT      O25659   1.943   0.901   5.239 -0.3607  0.3205  0.2814
 6235WAT     H125660   1.920   0.956   5.302  0.8815 -0.2104  1.2407
 6235WAT     H225661   2.017   0.865   5.269 -0.6089 -1.1428 -0.7522
 6235WAT    EPW25662   1.950   0.903   5.252 -0.2138  0.0259  0.2704
 6236WAT      O25663   2.616   4.620   3.361 -0.1745  0.5628 -1.0244
 6236WAT     H125664   2.641   4.538   3.342 -0.2165  0.5218 -0.8992
 6236WAT     H225665   2.664   4.642   3.430 -0.5163  0.4648 -0.7515
 6236WAT    EPW25666   2.627   4.611   3.368 -0.2312  0.5423 -0.9656
 6237WAT      O25667   3.363   0.431   0.682  0.0739 -0.4647 -0.1153
 6237WAT     H125668   3.324   0.404   0.608  0.1340 -0.3846 -0.1771
 6237WAT     H225669   3.303   0.482   0.719  0.5975  0.7576 -0.8757
 6237WAT    EPW25670   3.349   0.434   0.676  0.1601 -0.2723 -0.2368
 6238WAT      O25671   6.463   4.860   4.219  0.3507  0.2803  0.4685
 6238WAT     H125672   6.436   4.843   4.138  1.1108  2.1668 -0.2362
 6238WAT     H225673   6.394   4.841   4.269 -0.8069  0.9587 -0.8287
 6238WAT    EPW25674   6.449   4.855   4.215  0.2920  0.6592  0.1728
 6239WAT      O25675   3.807   1.092   7.469 -0.0766  0.0894 -0.4837
 6239WAT     H125676   3.759   1.025   7.497 -0.6122  0.7385  0.1892
 6239WAT     H225677   3.782   1.101   7.386  0.1806 -0.6851 -0.6564
 6239WAT    EPW25678   3.796   1.084   7.461 -0.1177  0.0708 -0.4098
 6240WAT      O25679   6.383   3.921   5.467 -0.4333 -0.0447 -0.3186
 6240WAT     H125680   6.401   3.892   5.547  2.3341 -0.7027 -1.0725
 6240WAT     H225681   6.350   4.001   5.482 -0.1905 -0.2253  1.4738
 6240WAT    EPW25682   6.381   3.929   5.481  0.0113 -0.1686 -0.1652
 6241WAT      O25683   4.200   0.633   3.029 -0.3910  0.6057  0.1062
 6241WAT     H125684   4.205   0.653   2.944  0.5590  0.7307  0.1853
 6241WAT     H225685   4.128   0.584   3.034 -0.3737  0.4694 -0.7961
 6241WAT    EPW25686   4.190   0.629   3.017 -0.2481  0.6041 -0.0154
 6242WAT      O25687   5.093   5.784   2.822  0.2736 -0.6471  0.5589
 6242WAT     H125688   5.151   5.746   2.874  1.0711 -0.2697 -0.0293
 6242WAT     H225689   5.118   5.868   2.821 -0.8241 -0.2960  1.0040
 6242WAT    EPW25690   5.105   5.791   2.829  0.2293 -0.5395  0.5377
 6243WAT      O25691   5.525   7.058   4.934 -0.2218 -0.3823  0.0939
 6243WAT     H125692   5.518   6.978   4.900 -0.0679 -0.5655  0.4737
 6243WAT     H225693   5.607   7.082   4.914 -0.7190  0.2639 -1.2278
 6243WAT    EPW25694   5.536   7.050   4.926 -0.2725 -0.3139 -0.0452
 6244WAT      O25695   3.758   0.044   2.645 -0.1646 -0.5497  0.4528
 6244WAT     H125696   3.809   0.110   2.621  1.1926 -1.9958 -0.8767
 6244WAT     H225697   3.805   0.002   2.705 -1.6506  0.4834  2.4257
 6244WAT    EPW25698   3.772   0.047   2.650 -0.1836 -0.6107  0.5478
 6245WAT      O25699   5.302   4.101   0.934  0.3845  0.5763 -0.1150
 6245WAT     H125700   5.221   4.088   0.904  0.8617  1.0143 -1.7152
 6245WAT     H225701   5.307   4.188   0.939  0.8006  0.5530 -0.1472
 6245WAT    EPW25702   5.291   4.112   0.930  0.5165  0.6375 -0.3561
 6246WAT      O25703   5.072   1.282   3.121 -0.3107  0.0530  0.1638
 6246WAT     H125704   5.092   1.358   3.083  0.6657  0.5623  1.6209
 6246WAT     H225705   5.114   1.223   3.073 -1.1535  0.3984 -1.0432
 6246WAT    EPW25706   5.081   1.284   3.109 -0.2909  0.1793  0.2008
 6247WAT      O25707   2.896   1.321   4.990 -0.3046  0.2689  0.1023
 6247WAT     H125708   2.911   1.311   5.076 -1.8151 -2.0756  0.1912
 6247WAT     H225709   2.816   1.354   4.987 -0.5470 -0.3360 -0.3803
 6247WAT    EPW25710   2.886   1.324   5.002 -0.5635 -0.1668  0.0441
 6248WAT      O25711   5.723   3.493   6.060 -0.2389 -0.1977  0.7191
 6248WAT     H125712   5.689   3.500   5.980 -0.7317  0.2451  0.9623
 6248WAT     H225713   5.686   3.559   6.104  0.9158  0.2966  0.9982
 6248WAT    EPW25714   5.713   3.504   6.054 -0.1411 -0.0593  0.7963
 6249WAT      O25715   5.281   6.868   4.559  0.3799  0.0160 -0.3667
 6249WAT     H125716   5.250   6.850   4.639  0.7387 -0.7959 -0.4022
 6249WAT     H225717   5.218   6.917   4.523 -0.1297 -0.2610  0.1324
 6249WAT    EPW25718   5.267   6.873   4.566  0.3576 -0.1448 -0.2982
 6250WAT      O25719   7.034   4.714   3.801  0.4095 -0.5431  0.7793
 6250WAT     H125720   7.120   4.709   3.813  1.0081  3.0105 -0.8135
 6250WAT     H225721   7.022   4.682   3.721  0.4584  0.0027  0.5475
 6250WAT    EPW25722   7.045   4.708   3.791  0.5051  0.0624  0.5098
 6251WAT      O25723   4.181   3.643   5.158  0.5189  0.0891 -0.2562
 6251WAT     H125724   4.130   3.671   5.093  0.3077 -0.1828 -0.2126
 6251WAT     H225725   4.154   3.690   5.226 -0.6430 -1.0155  0.0829
 6251WAT    EPW25726   4.169   3.654   5.158  0.3161 -0.1143 -0.1997
 6252WAT      O25727   7.574   2.280   5.373  0.1641 -0.3952 -0.3880
 6252WAT     H125728   7.565   2.196   5.350 -1.8951 -0.3625  0.1458
 6252WAT     H225729   7.527   2.323   5.314 -0.8034  0.1374  0.7297
 6252WAT    EPW25730   7.566   2.274   5.361 -0.2830 -0.3117 -0.1440
 6253WAT      O25731   5.748   0.030   4.651 -0.0990  0.6858 -0.5735
 6253WAT     H125732   5.732  -0.015   4.724 -2.6165  0.7749 -0.9922
 6253WAT     H225733   5.812   0.084   4.674 -0.4545  0.3412  1.4221
 6253WAT    EPW25734   5.755   0.031   4.665 -0.5234  0.6481 -0.3406
 6254WAT      O25735   3.033   1.833   6.312  0.2241  0.7187  0.4977
 6254WAT     H125736   3.031   1.901   6.257 -0.2822  1.1827  1.0780
 6254WAT     H225737   3.002   1.767   6.264  3.1068  0.2272 -0.9087
 6254WAT    EPW25738   3.028   1.833   6.297  0.5751  0.7146  0.3757
 6255WAT      O25739   5.484   4.588   4.685  0.2024 -0.0652  0.3789
 6255WAT     H125740   5.448   4.623   4.613  0.4804 -0.0032  0.2656
 6255WAT     H225741   5.537   4.651   4.713 -2.1175  1.1353  2.3821
 6255WAT    EPW25742   5.487   4.602   4.678 -0.0992  0.1213  0.6581
 6256WAT      O25743   2.099   7.156   1.580 -0.4600  0.6379 -0.2001
 6256WAT     H125744   2.090   7.199   1.655  1.5928 -0.1242  0.5575
 6256WAT     H225745   2.079   7.216   1.520 -3.1490  0.9864  0.9110
 6256WAT    EPW25746   2.095   7.171   1.582 -0.5540  0.5768  0.0759
 6257WAT      O25747   1.161   5.457   4.876  0.4448 -0.2904  0.0490
 6257WAT     H125748   1.247   5.448   4.886  0.1609 -0.5520  3.3186
 6257WAT     H225749   1.152   5.531   4.831  2.3607  0.1550  0.3465
 6257WAT    EPW25750   1.172   5.466   4.871  0.6859 -0.2632  0.5759
 6258WAT      O25751   4.131   2.134   7.117 -0.1438  0.2062 -0.7621
 6258WAT     H125752   4.115   2.062   7.071 -0.1961 -1.5167  1.7426
 6258WAT     H225753   4.062   2.185   7.100 -1.9866 -1.8239 -0.0048
 6258WAT    EPW25754   4.118   2.131   7.108 -0.4237 -0.3482 -0.2803
 6259WAT      O25755   2.848   5.131   3.658  0.4361  0.5112  0.4424
 6259WAT     H125756   2.871   5.109   3.739  0.3415 -0.9838  0.0938
 6259WAT     H225757   2.771   5.171   3.669  1.0422  1.5037  1.1932
 6259WAT    EPW25758   2.840   5.133   3.672  0.5117  0.4370  0.5018
 6260WAT      O25759   5.616   5.632   0.129  0.4908 -0.1052  0.5296
 6260WAT     H125760   5.561   5.606   0.066 -0.0199 -1.0973  1.3650
 6260WAT     H225761   5.679   5.572   0.129  0.0367 -0.5989  1.5345
 6260WAT    EPW25762   5.617   5.619   0.119  0.3483 -0.3247  0.8015
 6261WAT      O25763   0.449   3.056   7.010  0.0586  0.2617  0.4673
 6261WAT     H125764   0.435   3.108   7.079 -1.0595 -2.2007  2.2437
 6261WAT     H225765   0.418   2.979   7.036  3.4572 -1.8969 -1.1972
 6261WAT    EPW25766   0.442   3.052   7.024  0.3955 -0.4209  0.4839
 6262WAT      O25767   4.385   0.554   6.699 -0.4784  0.5413  0.2488
 6262WAT     H125768   4.469   0.530   6.692 -0.9139 -0.7116 -1.4386
 6262WAT     H225769   4.387   0.640   6.685  0.4520  0.3796 -0.8433
 6262WAT    EPW25770   4.398   0.563   6.696 -0.4053  0.3324 -0.1617
 6263WAT      O25771   4.324   3.233   5.066  0.3594  0.5909  0.1177
 6263WAT     H125772   4.242   3.207   5.079  0.6113  0.3447  1.2976
 6263WAT     H225773   4.324   3.261   4.983 -0.4079 -1.3790 -0.6061
 6263WAT    EPW25774   4.312   3.233   5.056  0.2833  0.2635  0.1851
 6264WAT      O25775   4.584   2.330   3.826 -0.1719  0.4813  0.2582
 6264WAT     H125776   4.543   2.337   3.749  1.3265  0.6954 -0.5530
 6264WAT     H225777   4.597   2.413   3.850  2.8272  0.5694 -1.2342
 6264WAT    EPW25778   4.580   2.343   3.818  0.4925  0.5259 -0.0821
 6265WAT      O25779   0.919   2.879   5.635 -0.2170 -0.7354  0.1541
 6265WAT     H125780   0.902   2.808   5.587  2.3090 -0.6178 -1.0770
 6265WAT     H225781   0.894   2.945   5.583 -1.2040 -0.6568  0.7025
 6265WAT    EPW25782   0.913   2.878   5.620  0.0103 -0.7064  0.0533
 6266WAT      O25783   1.124   0.692   0.418  0.2809 -0.0052  0.1612
 6266WAT     H125784   1.112   0.733   0.494  1.0465 -0.1130  0.3465
 6266WAT     H225785   1.144   0.610   0.441  2.4324  0.3934 -0.0490
 6266WAT    EPW25786   1.125   0.686   0.433  0.7119  0.0377  0.1575
 6267WAT      O25787   2.756   5.381   4.784  0.3441  0.0692  0.6999
 6267WAT     H125788   2.814   5.438   4.754 -1.3193  2.5013  1.7415
 6267WAT     H225789   2.684   5.397   4.736 -0.2925 -0.8744  1.2972
 6267WAT    EPW25790   2.754   5.391   4.773  0.0044  0.2891  0.9420
 6268WAT      O25791   6.366   1.038   7.731 -0.0969  0.1940 -0.1129
 6268WAT     H125792   6.329   0.986   7.790  0.5522  0.3667  0.4682
 6268WAT     H225793   6.379   0.986   7.662  0.5163 -0.4215  0.4446
 6268WAT    EPW25794   6.362   1.023   7.730  0.0896  0.1286  0.0553
 6269WAT      O25795   4.850   5.342   0.871 -0.0023 -0.2693 -0.4236
 6269WAT     H125796   4.800   5.299   0.814 -1.7115  2.5468 -1.1942
 6269WAT     H225797   4.921   5.363   0.825 -0.5093  0.3227 -0.9422
 6269WAT    EPW25798   4.853   5.338   0.856 -0.3297  0.2341 -0.6140
 6270WAT      O25799   4.917   0.470   0.335  0.2691 -0.0631  0.4447
 6270WAT     H125800   4.915   0.556   0.349 -1.3014  0.0827 -0.4712
 6270WAT     H225801   4.833   0.446   0.341  0.5724 -1.3707 -0.1867
 6270WAT    EPW25802   4.904   0.479   0.338  0.0819 -0.2348  0.2161
 6271WAT      O25803   3.160   0.661   4.538 -0.0620  0.0896 -0.1356
 6271WAT     H125804   3.228   0.639   4.589  0.2316  0.4946 -0.3550
 6271WAT     H225805   3.196   0.677   4.461 -0.4112  0.2764 -0.2620
 6271WAT    EPW25806   3.176   0.660   4.534 -0.0702  0.1770 -0.1867
 6272WAT      O25807   6.646   2.848   4.408  0.0145 -0.2600  0.0380
 6272WAT     H125808   6.650   2.858   4.495 -1.5277  2.1263 -0.0847
 6272WAT     H225809   6.723   2.812   4.388  2.3303  3.0132  1.9794
 6272WAT    EPW25810   6.658   2.844   4.418  0.1288  0.5760  0.3066
 6273WAT      O25811   5.764   0.562   6.823 -0.1997 -0.5467  0.1537
 6273WAT     H125812   5.840   0.520   6.821 -0.7155 -1.5091 -0.1317
 6273WAT     H225813   5.707   0.500   6.847 -0.7804  0.3366  1.1558
 6273WAT    EPW25814   5.767   0.547   6.826 -0.3617 -0.5584  0.2595
 6274WAT      O25815   6.784   4.741   4.503  0.4917  0.2661 -0.0749
 6274WAT     H125816   6.740   4.742   4.579 -0.3091 -1.1817 -0.4885
 6274WAT     H225817   6.751   4.809   4.460 -1.1845 -0.5907 -0.2422
 6274WAT    EPW25818   6.773   4.751   4.508  0.1258 -0.0743 -0.1607
 6275WAT      O25819   6.618   3.676   0.144  0.0484  0.5996 -0.5846
 6275WAT     H125820   6.538   3.710   0.148  0.4581  1.7154 -1.2605
 6275WAT     H225821   6.607   3.602   0.099 -0.9161 -0.3921  1.2197
 6275WAT    EPW25822   6.605   3.670   0.138 -0.0336  0.6180 -0.4179
 6276WAT      O25823   4.214   0.345   1.962  0.4460  0.1290 -0.2834
 6276WAT     H125824   4.215   0.299   1.888 -0.7536 -0.4151  0.0138
 6276WAT     H225825   4.151   0.404   1.950  1.7359  1.5180 -0.5245
 6276WAT    EPW25826   4.205   0.347   1.949  0.4594  0.2538 -0.2751
 6277WAT      O25827   2.965   2.513   5.870  0.4460 -0.0878 -0.5849
 6277WAT     H125828   2.887   2.512   5.832  0.6569 -2.4034 -1.1045
 6277WAT     H225829   3.019   2.543   5.808  0.0587  1.1178 -0.3573
 6277WAT    EPW25830   2.962   2.517   5.855  0.4200 -0.2518 -0.6280
 6278WAT      O25831   6.457   5.438   5.703 -0.2832 -0.6101 -0.1800
 6278WAT     H125832   6.381   5.475   5.724  0.4676  2.3266 -1.9257
 6278WAT     H225833   6.437   5.385   5.636 -0.9042 -0.4613 -0.1144
 6278WAT    EPW25834   6.443   5.436   5.696 -0.2640 -0.1543 -0.4282
 6279WAT      O25835   5.831   0.241   0.622  0.2810  0.2701 -0.3573
 6279WAT     H125836   5.786   0.279   0.558 -0.2794 -0.7716 -0.5888
 6279WAT     H225837   5.855   0.164   0.589  0.9744  0.1912  0.2794
 6279WAT    EPW25838   5.828   0.235   0.608  0.3006  0.1046 -0.2975
 6280WAT      O25839   3.185   2.211   5.225  0.3547  0.1102  0.1853
 6280WAT     H125840   3.221   2.186   5.301  1.0398 -0.9035 -0.4564
 6280WAT     H225841   3.218   2.156   5.167 -0.5632  0.5447 -0.7886
 6280WAT    EPW25842   3.195   2.199   5.228  0.3203  0.0246 -0.0534
 6281WAT      O25843   6.294   0.632   3.377 -0.6589 -0.2719  0.1098
 6281WAT     H125844   6.297   0.682   3.448  0.2338 -0.2253  0.0490
 6281WAT     H225845   6.240   0.675   3.324  1.4568  1.6521 -0.6625
 6281WAT    EPW25846   6.287   0.646   3.380 -0.2145  0.0192 -0.0132
 6282WAT      O25847   4.074   0.452   1.543  0.1616  0.1020 -0.7718
 6282WAT     H125848   4.108   0.487   1.615 -1.2796  0.9450 -0.4596
 6282WAT     H225849   4.075   0.518   1.485  0.3353 -0.2652 -1.1939
 6282WAT    EPW25850   4.079   0.467   1.545 -0.0256  0.1723 -0.7880
 6283WAT      O25851   4.931   4.942   1.021 -0.0083  0.2005 -0.1333
 6283WAT     H125852   5.003   4.984   0.997 -0.0066  0.8902  1.0014
 6283WAT     H225853   4.942   4.928   1.107 -0.1103 -1.9503 -0.4193
 6283WAT    EPW25854   4.943   4.946   1.030 -0.0231 -0.0154 -0.0079
 6284WAT      O25855   5.631   0.826   2.838 -0.6166  0.5433  0.0209
 6284WAT     H125856   5.601   0.761   2.787 -1.0834  0.2907  0.6115
 6284WAT     H225857   5.572   0.889   2.828 -1.9396 -0.3060  1.9415
 6284WAT    EPW25858   5.618   0.825   2.829 -0.8810  0.3805  0.3919
 6285WAT      O25859   6.518   1.256   0.061  0.0561  0.2378  0.5178
 6285WAT     H125860   6.525   1.342   0.049  1.8464  0.0182 -0.3606
 6285WAT     H225861   6.510   1.224  -0.019  2.5914 -0.5759  0.4832
 6285WAT    EPW25862   6.518   1.264   0.048  0.6951  0.0852  0.3830
 6286WAT      O25863   3.184   3.760   0.316 -0.3853  0.0497  0.3803
 6286WAT     H125864   3.241   3.814   0.277 -1.6012 -0.1638 -1.8630
 6286WAT     H225865   3.137   3.813   0.366 -0.4162  0.8031 -0.4237
 6286WAT    EPW25866   3.186   3.776   0.317 -0.5695  0.1294 -0.0698
 6287WAT      O25867   5.326   1.823   1.381  0.0822  0.0221 -0.2430
 6287WAT     H125868   5.272   1.876   1.425 -1.7709  0.0482 -2.3356
 6287WAT     H225869   5.359   1.875   1.319  0.1523 -0.6662 -0.8039
 6287WAT    EPW25870   5.323   1.839   1.378 -0.1812 -0.0757 -0.6350
 6288WAT      O25871   2.125   6.432   2.495  0.2296 -0.4052  0.1812
 6288WAT     H125872   2.172   6.465   2.561 -0.7023  0.0083  0.6464
 6288WAT     H225873   2.154   6.475   2.425 -0.0128  0.4111  0.5802
 6288WAT    EPW25874   2.136   6.443   2.495  0.0561 -0.2236  0.3089
 6289WAT      O25875   5.972   6.331   0.335 -0.3801  0.3882  0.1669
 6289WAT     H125876   5.984   6.289   0.259 -0.6709  0.6533 -0.0285
 6289WAT     H225877   6.046   6.316   0.379 -0.1268  0.4013 -0.2503
 6289WAT    EPW25878   5.984   6.322   0.330 -0.3857  0.4293  0.0764
 6290WAT      O25879   4.738   6.566   2.142 -0.2241  0.1522  0.1547
 6290WAT     H125880   4.752   6.598   2.062 -1.6554 -0.1341 -0.2311
 6290WAT     H225881   4.791   6.613   2.192  0.1960  0.8020 -0.8646
 6290WAT    EPW25882   4.748   6.578   2.138 -0.3735  0.2059 -0.0528
 6291WAT      O25883   6.518   2.254   4.236 -0.3107  0.5360 -0.3129
 6291WAT     H125884   6.544   2.208   4.306  0.9679  0.5805 -0.7330
 6291WAT     H225885   6.468   2.317   4.270 -1.9839 -1.0329  0.2975
 6291WAT    EPW25886   6.514   2.256   4.251 -0.3690  0.3108 -0.2848
 6292WAT      O25887   2.642   7.593   3.034  0.1833 -0.2108  0.1500
 6292WAT     H125888   2.641   7.678   3.014 -0.1201 -0.4237 -0.7986
 6292WAT     H225889   2.584   7.558   2.978  0.4937 -1.0718  0.3510
 6292WAT    EPW25890   2.633   7.600   3.023  0.1843 -0.3694  0.0396
 6293WAT      O25891   4.960   1.081   5.768 -0.0162 -0.5594 -0.0304
 6293WAT     H125892   5.011   1.117   5.707  0.9255 -2.6525 -0.5611
 6293WAT     H225893   5.003   1.097   5.843 -0.4414  0.7500 -0.0348
 6293WAT    EPW25894   4.973   1.089   5.770  0.0601 -0.6752 -0.1094
 6294WAT      O25895   4.094   5.968   1.114 -0.2457  0.1150 -0.0915
 6294WAT     H125896   4.163   5.921   1.138 -0.4814 -0.5175 -0.6274
 6294WAT     H225897   4.035   5.908   1.090  0.3303  0.6326 -3.2776
 6294WAT    EPW25898   4.096   5.952   1.114 -0.1954  0.0980 -0.6413
 6295WAT      O25899   1.456   3.549   3.699  0.0714  0.1515 -0.5499
 6295WAT     H125900   1.395   3.493   3.727 -0.3777  0.2007 -1.4257
 6295WAT     H225901   1.520   3.496   3.670 -0.2727  0.0870 -1.2008
 6295WAT    EPW25902   1.457   3.533   3.699 -0.0458  0.1492 -0.7754
 6296WAT      O25903   0.043   2.057   6.325  0.0793 -0.8472 -0.0290
 6296WAT     H125904   0.061   2.035   6.408  0.9966  0.3835  0.1344
 6296WAT     H225905   0.115   2.100   6.299 -1.3713  1.5758 -0.3847
 6296WAT    EPW25906   0.056   2.060   6.334  0.0005 -0.3074 -0.0574
 6297WAT      O25907   3.149   3.796   1.008 -0.2546  0.1111  0.4620
 6297WAT     H125908   3.233   3.817   1.019  0.3849 -2.0850  0.2289
 6297WAT     H225909   3.136   3.810   0.923  0.4104 -1.2224  0.1273
 6297WAT    EPW25910   3.159   3.801   0.997 -0.0619 -0.4103  0.3782
 6298WAT      O25911   0.296   6.821   7.793  0.1364 -0.0961 -0.2375
 6298WAT     H125912   0.256   6.895   7.816 -0.2345 -0.7077  1.2050
 6298WAT     H225913   0.374   6.847   7.765  0.6873  0.7397  1.9113
 6298WAT    EPW25914   0.302   6.835   7.792  0.1630 -0.0630  0.2930
 6299WAT      O25915   7.219   2.422   7.627 -0.1173  0.2696  0.3170
 6299WAT     H125916   7.147   2.376   7.613 -1.0221  1.4374  1.0003
 6299WAT     H225917   7.237   2.457   7.549  1.0777 -1.8472 -0.4363
 6299WAT    EPW25918   7.211   2.421   7.613 -0.0744  0.1294  0.3067
 6300WAT      O25919   7.408   2.342   7.208  0.2749  0.9150 -0.1297
 6300WAT     H125920   7.454   2.369   7.138  0.7095  0.2810 -0.0954
 6300WAT     H225921   7.339   2.302   7.173  0.6420  0.3404 -0.2049
 6300WAT    EPW25922   7.405   2.340   7.192  0.3933  0.7365 -0.1357
 6301WAT      O25923   6.433   6.304   0.374  0.1313  0.4670 -0.5641
 6301WAT     H125924   6.365   6.281   0.423 -0.6685  0.0264 -1.8288
 6301WAT     H225925   6.422   6.390   0.363  1.1699  0.8828  1.2469
 6301WAT    EPW25926   6.421   6.314   0.380  0.1665  0.4633 -0.4834
 6302WAT      O25927   2.992   0.000   1.673 -0.2066  0.5711  0.2939
 6302WAT     H125928   2.981   0.021   1.757  1.9162  0.2857  0.6996
 6302WAT     H225929   3.061   0.048   1.649 -0.7933  0.6489 -1.2988
 6302WAT    EPW25930   3.001   0.010   1.682  0.0203  0.5404  0.1185
 6303WAT      O25931   1.048   2.817   0.251 -0.1208  0.0418  0.1522
 6303WAT     H125932   1.115   2.873   0.256  0.3476 -0.5590  0.9524
 6303WAT     H225933   1.038   2.804   0.165  1.5679 -0.7319  0.0311
 6303WAT    EPW25934   1.056   2.823   0.239  0.1979 -0.1613  0.2525
 6304WAT      O25935   5.647   7.691   3.797 -0.7494  0.0586  0.4205
 6304WAT     H125936   5.656   7.690   3.710 -0.3147  0.1590  0.4607
 6304WAT     H225937   5.568   7.658   3.810 -0.9085  0.2581 -0.0267
 6304WAT    EPW25938   5.637   7.686   3.786 -0.7087  0.1029  0.3604
 6305WAT      O25939   4.833   2.303   1.710 -0.1057 -0.2104  0.0991
 6305WAT     H125940   4.818   2.319   1.794  1.2496  1.4616  0.0730
 6305WAT     H225941   4.855   2.219   1.708  0.9482  0.0059  1.5858
 6305WAT    EPW25942   4.834   2.293   1.722  0.2502  0.0686  0.3149
 6306WAT      O25943   7.110   1.989   6.202 -0.1693  0.2938  0.3624
 6306WAT     H125944   7.118   1.911   6.163  1.0724  0.5261  0.1185
 6306WAT     H225945   7.171   2.037   6.163 -0.0071  1.0048  1.4742
 6306WAT    EPW25946   7.120   1.984   6.190  0.0381  0.4331  0.4906
 6307WAT      O25947   6.857   4.432   7.694 -0.1482  0.6083 -0.1001
 6307WAT     H125948   6.879   4.472   7.620  0.9641  1.8417  0.8618
 6307WAT     H225949   6.904   4.359   7.692  0.6618  1.1181 -0.1491
 6307WAT    EPW25950   6.867   4.427   7.683  0.1358  0.8658  0.0348
 6308WAT      O25951   2.109   6.314   5.214  0.5216  0.2012  0.3136
 6308WAT     H125952   2.067   6.345   5.144 -0.3101  0.6129  0.9821
 6308WAT     H225953   2.110   6.228   5.201 -3.1044 -0.1941  1.5995
 6308WAT    EPW25954   2.103   6.306   5.202 -0.1369  0.2036  0.6023
 6309WAT      O25955   5.123   3.217   1.759 -0.1329 -0.1330 -0.5534
 6309WAT     H125956   5.067   3.261   1.809  0.5902  1.2619 -0.9253
 6309WAT     H225957   5.083   3.213   1.681 -0.6108 -1.0060 -0.2790
 6309WAT    EPW25958   5.109   3.223   1.755 -0.0967 -0.0559 -0.5678
 6310WAT      O25959   4.496   1.813   7.189  0.1655  0.5463 -0.0103
 6310WAT     H125960   4.542   1.859   7.247 -0.2033  2.3248 -1.0742
 6310WAT     H225961   4.414   1.839   7.202  0.0315  0.7179 -1.0887
 6310WAT    EPW25962   4.491   1.823   7.199  0.0913  0.8344 -0.3268
 6311WAT      O25963   2.739   2.627   0.182  0.1866 -0.1803 -0.1464
 6311WAT     H125964   2.724   2.693   0.237 -0.2987  0.6255 -1.2132
 6311WAT     H225965   2.706   2.558   0.224 -1.2009  0.5970  0.1043
 6311WAT    EPW25966   2.732   2.627   0.196 -0.0901  0.0536 -0.2670
 6312WAT      O25967   3.653   6.561   2.847  0.0969 -0.2066 -0.4642
 6312WAT     H125968   3.633   6.610   2.916  0.0870 -0.3154 -0.3891
 6312WAT     H225969   3.703   6.497   2.881  1.3166  0.5444 -0.7789
 6312WAT    EPW25970   3.658   6.559   2.862  0.2756 -0.1117 -0.4996
 6313WAT      O25971   7.058   1.681   7.587  0.4111 -0.2350 -0.2117
 6313WAT     H125972   6.991   1.717   7.630  0.0544 -0.9036 -0.1970
 6313WAT     H225973   7.024   1.657   7.511  1.0083  0.8055 -0.8221
 6313WAT    EPW25974   7.043   1.683   7.582  0.4466 -0.1800 -0.2997
 6314WAT      O25975   4.566   6.596   6.351 -0.2471 -0.0765 -0.1349
 6314WAT     H125976   4.642   6.636   6.364 -0.2820 -0.4541  1.4934
 6314WAT     H225977   4.581   6.546   6.281 -0.1175  2.4481 -2.0407
 6314WAT    EPW25978   4.579   6.594   6.342 -0.2331  0.2407 -0.1759
 6315WAT      O25979   3.714   2.462   6.481  0.3589 -0.0602  0.2770
 6315WAT     H125980   3.744   2.541   6.462 -0.2112 -0.0739 -0.7611
 6315WAT     H225981   3.655   2.446   6.418 -0.7989 -0.6040  1.4348
 6315WAT    EPW25982   3.710   2.471   6.469  0.1037 -0.1425  0.2947
 6316WAT      O25983   5.189   7.038   3.485 -0.0526 -0.0729  0.3764
 6316WAT     H125984   5.126   7.093   3.510 -0.0245  0.3962 -0.5300
 6316WAT     H225985   5.234   7.084   3.426  2.1856  0.2411  2.1610
 6316WAT    EPW25986   5.187   7.053   3.480  0.2821  0.0428  0.5061
 6317WAT      O25987   6.517   4.685   5.436  0.1116  0.1195 -0.0734
 6317WAT     H125988   6.539   4.606   5.406 -1.5357 -1.1882  1.8587
 6317WAT     H225989   6.589   4.732   5.427  1.3583 -1.8100 -0.6871
 6317WAT    EPW25990   6.531   4.681   5.430  0.0524 -0.3587  0.1214
 6318WAT      O25991   3.469   5.430   4.177  0.3258  0.3476  0.0277
 6318WAT     H125992   3.424   5.497   4.143 -0.1546 -0.4380 -0.9148
 6318WAT     H225993   3.407   5.374   4.201  0.7668 -0.2400 -0.2031
 6318WAT    EPW25994   3.453   5.432   4.175  0.3200  0.1448 -0.1456
 6319WAT      O25995   5.586   2.956   5.687 -0.6476  0.0118  0.0958
 6319WAT     H125996   5.607   3.032   5.649 -1.9832  0.7961  0.8467
 6319WAT     H225997   5.526   2.922   5.633 -0.1920 -0.4436 -0.1385
 6319WAT    EPW25998   5.580   2.962   5.673 -0.7776  0.0604  0.1721
 6320WAT      O25999   3.835   1.682   2.462  0.0794 -0.5476 -0.4878
 6320WAT     H126000   3.767   1.632   2.439  0.1737 -0.0796 -1.8916
 6320WAT     H226001   3.865   1.712   2.386  0.9444  0.4539  0.2180
 6320WAT    EPW26002   3.829   1.679   2.448  0.2211 -0.3305 -0.5909
 6321WAT      O26003   6.221   6.236   5.505  0.0099  0.2250 -0.4911
 6321WAT     H126004   6.198   6.208   5.426  0.4992 -0.1950 -0.4916
 6321WAT     H226005   6.170   6.191   5.559 -0.1487  0.3277 -0.5551
 6321WAT    EPW26006   6.210   6.226   5.502  0.0587  0.1782 -0.5006
 6322WAT      O26007   4.653   0.514   6.882 -0.0510  0.0979 -0.0505
 6322WAT     H126008   4.611   0.486   6.953  0.7360  0.6517  0.6483
 6322WAT     H226009   4.652   0.601   6.890  2.2179  0.1263  0.6132
 6322WAT    EPW26010   4.647   0.523   6.894  0.4004  0.1839  0.1507
 6323WAT      O26011   2.817   6.755   3.940 -0.1860 -0.0854  0.0649
 6323WAT     H126012   2.872   6.697   3.906 -0.8534 -1.8725  1.8011
 6323WAT     H226013   2.753   6.760   3.881  0.6688  0.2125 -0.8708
 6323WAT    EPW26014   2.816   6.747   3.927 -0.1583 -0.3054  0.1832
 6324WAT      O26015   6.751   3.806   3.735  0.0833 -0.3431 -0.6460
 6324WAT     H126016   6.727   3.887   3.755 -0.4550 -0.4042 -1.0156
 6324WAT     H226017   6.829   3.797   3.774 -1.3623 -0.8457  2.4390
 6324WAT    EPW26018   6.759   3.816   3.744 -0.2098 -0.4264 -0.2449
 6325WAT      O26019   0.137   5.066   0.141 -0.1811 -0.3621  0.7270
 6325WAT     H126020   0.197   5.064   0.078  2.8437  0.9154  3.3469
 6325WAT     H226021   0.144   4.987   0.178 -2.0893 -1.1831 -0.4471
 6325WAT    EPW26022   0.147   5.054   0.137 -0.0161 -0.2947  0.9405
 6326WAT      O26023   5.624   2.542   3.633 -1.4251  0.0065 -0.3875
 6326WAT     H126024   5.632   2.541   3.720 -2.1107 -0.1335 -0.3184
 6326WAT     H226025   5.564   2.604   3.619 -0.2535  1.0691 -0.8649
 6326WAT    EPW26026   5.616   2.551   3.644 -1.3533  0.1428 -0.4478
 6327WAT      O26027   0.363   5.001   6.062 -0.1552  0.4232  0.2053
 6327WAT     H126028   0.412   5.035   6.125 -0.8814  1.2161  0.3644
 6327WAT     H226029   0.344   4.921   6.091  1.7833 -0.2621 -0.2883
 6327WAT    EPW26030   0.367   4.995   6.075  0.0239  0.4391  0.1559
 6328WAT      O26031   5.141   0.756   1.044 -0.2286 -0.6529  0.1032
 6328WAT     H126032   5.106   0.811   1.102 -1.8261 -0.6781 -0.7660
 6328WAT     H226033   5.193   0.808   0.996  1.3300 -0.6905  1.6649
 6328WAT    EPW26034   5.144   0.772   1.045 -0.2343 -0.6622  0.2055
 6329WAT      O26035   5.740   1.262   6.322  0.1601  0.1826 -0.5940
 6329WAT     H126036   5.781   1.328   6.281  2.0387 -0.9831 -0.6979
 6329WAT     H226037   5.742   1.286   6.406  0.6184  0.3671 -0.6550
 6329WAT    EPW26038   5.746   1.275   6.329  0.5053  0.0377 -0.6184
 6330WAT      O26039   6.599   5.071   0.699 -0.1074  0.1403  0.4167
 6330WAT     H126040   6.656   5.094   0.760  0.0704  1.4310 -0.2049
 6330WAT     H226041   6.631   5.107   0.626 -1.5162  0.5849 -0.0146
 6330WAT    EPW26042   6.612   5.080   0.697 -0.2892  0.3967  0.2611
 6331WAT      O26043   1.708   2.415   5.201  0.0882  0.0941  0.2137
 6331WAT     H126044   1.769   2.452   5.252 -0.5583 -0.0088  1.0886
 6331WAT     H226045   1.688   2.478   5.144 -0.7294  1.0102  1.4455
 6331WAT    EPW26046   1.714   2.430   5.200 -0.1281  0.2142  0.5249
 6332WAT      O26047   0.801   1.100   4.593 -0.1051 -0.3041 -0.5635
 6332WAT     H126048   0.813   1.186   4.583 -0.1371 -0.2897 -0.4771
 6332WAT     H226049   0.732   1.084   4.543  2.2703 -1.0125 -4.0278
 6332WAT    EPW26050   0.793   1.111   4.584  0.2411 -0.4066 -1.0625
 6333WAT      O26051   3.769   2.321   0.390 -0.9240 -0.0462 -0.3584
 6333WAT     H126052   3.725   2.396   0.383  0.0799  0.6015  0.0754
 6333WAT     H226053   3.846   2.345   0.421 -0.0876 -1.0945 -1.5241
 6333WAT    EPW26054   3.774   2.335   0.393 -0.6521 -0.1054 -0.4666
 6334WAT      O26055   6.129   3.855   5.887 -0.1063  0.3391  0.1730
 6334WAT     H126056   6.054   3.814   5.903 -0.1222 -0.0382 -0.8144
 6334WAT     H226057   6.114   3.937   5.911 -0.4021 -0.0103  1.2217
 6334WAT    EPW26058   6.116   3.861   5.893 -0.1523  0.2318  0.1821
 6335WAT      O26059   2.265   5.116   0.863  0.5816 -0.3426  0.0581
 6335WAT     H126060   2.271   5.157   0.940  0.1341  1.3096 -0.7509
 6335WAT     H226061   2.181   5.123   0.842  0.8902  0.2887 -1.1057
 6335WAT    EPW26062   2.254   5.123   0.871  0.5611 -0.0053 -0.2333
 6336WAT      O26063   2.117   0.151   7.199 -0.6338 -0.1976 -0.0899
 6336WAT     H126064   2.117   0.210   7.134 -0.0384 -0.7610 -0.6143
 6336WAT     H226065   2.052   0.096   7.177 -1.4939  0.4831  0.6332
 6336WAT    EPW26066   2.107   0.152   7.186 -0.6729 -0.1803 -0.0606
 6337WAT      O26067   4.801   3.086   5.634  0.0517 -0.0095  0.3599
 6337WAT     H126068   4.767   3.011   5.662 -1.5331  0.6046  0.2061
 6337WAT     H226069   4.761   3.099   5.557  2.2346 -0.2744 -0.8829
 6337WAT    EPW26070   4.790   3.077   5.627  0.1401  0.0421  0.1536
 6338WAT      O26071   5.526   3.628   0.022  0.6827  0.0874 -0.4574
 6338WAT     H126072   5.509   3.564  -0.035 -2.2156  1.8845 -1.8789
 6338WAT     H226073   5.612   3.637   0.019  1.0381 -2.6646 -1.3413
 6338WAT    EPW26074   5.536   3.620   0.013  0.3070 -0.0537 -0.7980
 6339WAT      O26075   5.181   1.086   5.986  0.3413  0.1236 -0.0743
 6339WAT     H126076   5.249   1.085   5.931  0.3369  1.0300 -0.1040
 6339WAT     H226077   5.192   1.160   6.031 -0.3431  0.0158  0.2794
 6339WAT    EPW26078   5.193   1.097   5.984  0.2395  0.2415 -0.0265
 6340WAT      O26079   3.318   3.638   0.568  0.4303 -0.0398 -0.8323
 6340WAT     H126080   3.250   3.610   0.614  0.2336  2.1195  0.3572
 6340WAT     H226081   3.282   3.674   0.497  0.3486  0.5651 -0.4936
 6340WAT    EPW26082   3.303   3.639   0.564  0.3892  0.3685 -0.6065
 6341WAT      O26083   3.410   5.875   7.179  0.1034  0.3626 -0.3042
 6341WAT     H126084   3.332   5.863   7.141  0.1406  0.0706 -0.2948
 6341WAT     H226085   3.461   5.818   7.138  0.1471  0.0526  0.1667
 6341WAT    EPW26086   3.406   5.865   7.168  0.1154  0.2737 -0.2332
 6342WAT      O26087   4.626   0.937   2.102 -0.3278  0.0100 -0.1180
 6342WAT     H126088   4.622   0.851   2.086  0.1914 -0.0292 -0.0463
 6342WAT     H226089   4.698   0.946   2.151  0.5268  0.6919 -1.4589
 6342WAT    EPW26090   4.636   0.925   2.107 -0.1249  0.1049 -0.3055
 6343WAT      O26091   2.423   1.509   7.107 -0.2604 -0.2963 -0.0726
 6343WAT     H126092   2.398   1.443   7.157  1.0525 -0.9174 -0.1898
 6343WAT     H226093   2.511   1.505   7.111 -0.1430  1.4791 -0.0049
 6343WAT    EPW26094   2.433   1.499   7.115 -0.0491 -0.1258 -0.0799
 6344WAT      O26095   3.243   1.651   6.842 -0.5607  0.5443 -0.1664
 6344WAT     H126096   3.295   1.616   6.781 -0.8888  0.1019 -0.1887
 6344WAT     H226097   3.181   1.691   6.795 -1.0397 -0.1369 -0.1225
 6344WAT    EPW26098   3.242   1.652   6.826 -0.6800  0.3783 -0.1632
 6345WAT      O26099   7.340   5.607   6.548 -0.5852 -0.0814  0.0834
 6345WAT     H126100   7.374   5.587   6.626 -2.3443  1.4241  1.3030
 6345WAT     H226101   7.391   5.672   6.520  0.4249 -1.0216 -0.3676
 6345WAT    EPW26102   7.353   5.614   6.555 -0.6959  0.0021  0.1969
 6346WAT      O26103   2.682   2.699   0.846  0.0418  0.1140  0.4943
 6346WAT     H126104   2.717   2.700   0.766  0.1558  0.8227  0.5504
 6346WAT     H226105   2.667   2.614   0.860  0.9504 -0.1175  0.1260
 6346WAT    EPW26106   2.685   2.686   0.836  0.1929  0.1845  0.4482
 6347WAT      O26107   4.007   6.756   6.545  0.0564 -0.3845 -0.4427
 6347WAT     H126108   3.959   6.816   6.504  1.2205  0.1013 -1.1254
 6347WAT     H226109   3.981   6.762   6.628 -1.0403 -0.1247 -0.7895
 6347WAT    EPW26110   3.996   6.766   6.551  0.0663 -0.2743 -0.5948
 6348WAT      O26111   3.783   1.197   2.950 -0.6194  0.1686 -0.4576
 6348WAT     H126112   3.725   1.203   3.014  0.3807 -0.9328  0.6114
 6348WAT     H226113   3.801   1.111   2.946 -0.5911  0.2064 -2.1725
 6348WAT    EPW26114   3.777   1.185   2.959 -0.4675  0.0115 -0.5530
 6349WAT      O26115   5.472   0.601   2.738  0.7103  0.0562  0.3704
 6349WAT     H126116   5.506   0.612   2.658 -0.7713  0.6518 -0.2224
 6349WAT     H226117   5.460   0.515   2.743  1.4291 -0.0550  0.2148
 6349WAT    EPW26118   5.475   0.590   2.727  0.5976  0.1278  0.2599
 6350WAT      O26119   2.985   4.935   2.418  0.1235 -0.6379 -0.1769
 6350WAT     H126120   3.012   4.941   2.335 -3.0556 -0.0003 -1.3169
 6350WAT     H226121   2.977   4.849   2.431 -0.5384 -0.7227 -1.0312
 6350WAT    EPW26122   2.988   4.923   2.408 -0.4439 -0.5563 -0.4715
 6351WAT      O26123   5.325   0.783   0.191 -0.3096  0.2180 -0.7507
 6351WAT     H126124   5.347   0.702   0.214  0.9990  0.0900 -2.2324
 6351WAT     H226125   5.251   0.772   0.146 -0.3018 -0.1071 -0.6882
 6351WAT    EPW26126   5.317   0.769   0.188 -0.1151  0.1511 -0.9603
 6352WAT      O26127   1.199   7.004   5.350 -0.3914  0.1966 -0.6802
 6352WAT     H126128   1.198   6.917   5.348 -1.5929  0.1784 -2.4460
 6352WAT     H226129   1.283   7.025   5.347  0.1114 -0.8352  2.7341
 6352WAT    EPW26130   1.211   6.994   5.349 -0.4946  0.0415 -0.4367
 6353WAT      O26131   5.806   3.872   1.484  0.1968  0.0819  0.2860
 6353WAT     H126132   5.884   3.883   1.447 -0.1158  0.4279 -0.2751
 6353WAT     H226133   5.824   3.820   1.552  1.0828  1.0288  0.8119
 6353WAT    EPW26134   5.820   3.866   1.488  0.2815  0.2729  0.2808
 6354WAT      O26135   3.665   2.798   7.574  0.3233 -0.0362 -0.0253
 6354WAT     H126136   3.711   2.833   7.508  1.0058  0.4007  0.6744
 6354WAT     H226137   3.586   2.783   7.538  0.7699 -0.0853 -1.0217
 6354WAT    EPW26138   3.660   2.801   7.559  0.4901  0.0211 -0.0692
 6355WAT      O26139   5.632   5.106   7.147  0.2708  0.1866 -0.1629
 6355WAT     H126140   5.672   5.041   7.104 -1.7600 -1.4736  0.2651
 6355WAT     H226141   5.669   5.178   7.114 -0.0837 -1.0078 -3.6260
 6355WAT    EPW26142   5.643   5.107   7.136 -0.0815 -0.2351 -0.6112
 6356WAT      O26143   1.548   1.611   0.760 -0.4411  0.4050  0.0042
 6356WAT     H126144   1.520   1.531   0.782 -0.1963  0.4645  0.5713
 6356WAT     H226145   1.480   1.663   0.778 -0.2044  0.4679  0.7765
 6356WAT    EPW26146   1.534   1.607   0.766 -0.3700  0.4231  0.2021
 6357WAT      O26147   2.387   0.746   0.513  0.1207 -0.8508 -0.2079
 6357WAT     H126148   2.406   0.678   0.461  1.8429  1.0719 -2.3135
 6357WAT     H226149   2.300   0.751   0.508  0.1932 -0.8284 -2.9660
 6357WAT    EPW26150   2.377   0.737   0.504  0.3858 -0.5634 -0.9264
 6358WAT      O26151   0.998   0.160   3.684  0.3198 -0.1974 -0.0144
 6358WAT     H126152   0.928   0.139   3.732  1.6162 -0.3171  1.9515
 6358WAT     H226153   0.990   0.109   3.613 -1.6354 -0.0691  0.0557
 6358WAT    EPW26154   0.986   0.149   3.681  0.2225 -0.1962  0.2863
 6359WAT      O26155   4.634   7.309   1.110 -0.2598  0.1713 -0.1429
 6359WAT     H126156   4.640   7.382   1.063 -1.6478  0.1400 -0.4030
 6359WAT     H226157   4.549   7.304   1.130 -0.4272 -1.9868 -1.1440
 6359WAT    EPW26158   4.623   7.319   1.106 -0.4895 -0.1521 -0.3292
 6360WAT      O26159   3.133   7.576   6.744  0.7517  0.4369  0.0112
 6360WAT     H126160   3.063   7.531   6.769  1.1180 -0.2218 -0.1355
 6360WAT     H226161   3.197   7.547   6.796  1.3326 -0.3426 -1.0856
 6360WAT    EPW26162   3.132   7.565   6.755  0.8916  0.2245 -0.1725
 6361WAT      O26163   3.957   5.936   4.220  0.4166 -0.1229  0.2438
 6361WAT     H126164   4.011   5.931   4.288 -0.4003 -1.2501  0.8500
 6361WAT     H226165   3.878   5.941   4.257  0.0190  0.2588 -0.6206
 6361WAT    EPW26166   3.953   5.936   4.235  0.2372 -0.2330  0.2056
 6362WAT      O26167   2.728   7.682   4.096  0.2463  0.6294 -0.2004
 6362WAT     H126168   2.801   7.694   4.049  2.2777 -1.8551  1.9908
 6362WAT     H226169   2.752   7.706   4.176 -1.8973  1.1990  0.3228
 6362WAT    EPW26170   2.743   7.687   4.101  0.2297  0.3465  0.2006
 6363WAT      O26171   5.563   6.945   5.820 -0.3423  0.2471  0.5283
 6363WAT     H126172   5.529   7.025   5.831  0.7386  0.9189 -0.7564
 6363WAT     H226173   5.570   6.915   5.902  1.5514  2.4888  1.3073
 6363WAT    EPW26174   5.559   6.952   5.834  0.0971  0.6775  0.4536
 6364WAT      O26175   6.558   1.848   4.682  0.1676 -0.2961 -0.3245
 6364WAT     H126176   6.575   1.927   4.715  1.7241 -1.3204  1.5431
 6364WAT     H226177   6.573   1.857   4.597 -0.0050  1.4816 -0.1932
 6364WAT    EPW26178   6.563   1.861   4.675  0.3721 -0.1848 -0.0293
 6365WAT      O26179   3.383   2.009   6.076 -0.2765  0.6421 -0.0283
 6365WAT     H126180   3.417   2.048   6.146 -1.0672 -0.5232  1.0298
 6365WAT     H226181   3.450   2.006   6.020  0.7827  0.2595  1.2161
 6365WAT    EPW26182   3.398   2.015   6.078 -0.2368  0.4135  0.3119
 6366WAT      O26183   1.086   1.843   6.063  0.0714  0.0753 -0.0626
 6366WAT     H126184   1.136   1.912   6.045 -1.5986  1.0202 -1.3877
 6366WAT     H226185   1.069   1.852   6.148  1.3430  0.2395  0.1983
 6366WAT    EPW26186   1.091   1.855   6.073  0.0125  0.2392 -0.2198
 6367WAT      O26187   4.865   1.548   2.471 -0.4691 -0.0626 -0.2103
 6367WAT     H126188   4.952   1.550   2.465 -0.5060 -0.2602 -0.9044
 6367WAT     H226189   4.841   1.629   2.449 -0.5210 -0.3749 -1.3963
 6367WAT    EPW26190   4.874   1.560   2.467 -0.4822 -0.1379 -0.4880
 6368WAT      O26191   1.113   7.336   4.845 -0.0793  0.4487 -0.4406
 6368WAT     H126192   1.184   7.336   4.895  0.1679  0.1571 -0.7874
 6368WAT     H226193   1.127   7.270   4.789 -0.2547  0.8936 -1.0246
 6368WAT    EPW26194   1.125   7.326   4.844 -0.0687  0.4713 -0.5781
 6369WAT      O26195   4.506   6.043   4.589  0.5253  0.0490  0.3355
 6369WAT     H126196   4.549   6.013   4.519 -1.6874 -0.7110 -0.7610
 6369WAT     H226197   4.570   6.053   4.648  2.1256 -1.7193 -0.9516
 6369WAT    EPW26198   4.522   6.040   4.587  0.4349 -0.3245 -0.0166
 6370WAT      O26199   1.011   7.366   3.361  0.0386  0.0499  0.1941
 6370WAT     H126200   0.954   7.300   3.363  0.0179  0.0694  0.2431
 6370WAT     H226201   1.055   7.353   3.287  1.6523 -1.3917  1.3449
 6370WAT    EPW26202   1.009   7.355   3.351  0.2739 -0.1602  0.3714
 6371WAT      O26203   4.922   3.268   2.414  0.2488  0.1232  0.2101
 6371WAT     H126204   4.891   3.186   2.408  2.6780 -0.8026 -0.8886
 6371WAT     H226205   4.869   3.314   2.361 -1.0060 -0.7423  0.6516
 6371WAT    EPW26206   4.909   3.263   2.405  0.4223 -0.1414  0.1130
 6372WAT      O26207   4.326   1.472   6.924  0.1344  0.0479  0.3645
 6372WAT     H126208   4.399   1.503   6.886 -0.0729 -1.5536 -1.4999
 6372WAT     H226209   4.264   1.527   6.896  0.5367  1.4471  1.9964
 6372WAT    EPW26210   4.328   1.485   6.914  0.1632  0.0180  0.3302
 6373WAT      O26211   4.143   2.770   0.493  0.1982 -0.3407 -0.2422
 6373WAT     H126212   4.108   2.703   0.536  0.6558 -0.4653 -0.0551
 6373WAT     H226213   4.132   2.748   0.409  0.8817 -0.9437 -0.1823
 6373WAT    EPW26214   4.136   2.756   0.487  0.3668 -0.4482 -0.2057
 6374WAT      O26215   3.902   6.222   6.079  0.4825  0.0930 -0.0110
 6374WAT     H126216   3.846   6.174   6.032  0.2116 -0.9454  1.2935
 6374WAT     H226217   3.915   6.293   6.030 -0.6598 -0.4174 -1.1108
 6374WAT    EPW26218   3.896   6.225   6.065  0.2737 -0.1358  0.0192
 6375WAT      O26219   3.093   5.740   2.689  0.0301  0.2616  0.1692
 6375WAT     H126220   3.061   5.661   2.708  0.4919  0.1091  0.3238
 6375WAT     H226221   3.170   5.741   2.729  0.7916  0.1452 -1.2033
 6375WAT    EPW26222   3.099   5.728   2.697  0.2108  0.2219 -0.0107
 6376WAT      O26223   2.407   5.091   1.249 -0.1341  0.0616  0.2587
 6376WAT     H126224   2.483   5.058   1.222  0.2584  0.1932  1.1892
 6376WAT     H226225   2.349   5.061   1.190  1.0439  2.4492 -2.3672
 6376WAT    EPW26226   2.409   5.082   1.236  0.0979  0.4337  0.0082
 6377WAT      O26227   0.748   0.707   7.509 -0.3217  0.5593  0.5164
 6377WAT     H126228   0.692   0.739   7.450 -1.5677 -2.3737 -0.0782
 6377WAT     H226229   0.822   0.748   7.492 -1.1651  1.2437 -1.8041
 6377WAT    EPW26230   0.750   0.717   7.498 -0.6304  0.2271  0.0858
 6378WAT      O26231   5.627   5.789   0.555  0.4392 -0.2089  0.2508
 6378WAT     H126232   5.632   5.853   0.497 -1.9036 -0.5679 -0.4734
 6378WAT     H226233   5.567   5.818   0.612  1.1525 -0.7511  1.3070
 6378WAT    EPW26234   5.619   5.803   0.555  0.1985 -0.3420  0.2999
 6379WAT      O26235   4.737   5.835   0.786  0.1502 -0.0711  0.1252
 6379WAT     H126236   4.660   5.836   0.745  0.9116 -0.1263 -1.3581
 6379WAT     H226237   4.733   5.763   0.835 -1.3902  0.8328  1.4364
 6379WAT    EPW26238   4.725   5.824   0.787  0.0352  0.0543  0.0998
 6380WAT      O26239   5.706   2.628   4.699  0.5672  0.1555  0.4990
 6380WAT     H126240   5.750   2.637   4.774  0.7473 -1.1762  0.5856
 6380WAT     H226241   5.699   2.709   4.668  0.0786  0.8022  2.1932
 6380WAT    EPW26242   5.711   2.641   4.706  0.5216  0.0543  0.7621
 6381WAT      O26243   5.198   5.535   4.557  0.6734  0.1799 -0.1122
 6381WAT     H126244   5.160   5.612   4.539  0.6720 -0.2545 -2.2375
 6381WAT     H226245   5.150   5.478   4.513  2.0164 -0.7510 -0.4379
 6381WAT    EPW26246   5.185   5.538   4.548  0.8716 -0.0218 -0.4742
 6382WAT      O26247   1.235   0.358   3.303  0.0086 -0.2279  0.0542
 6382WAT     H126248   1.318   0.368   3.278 -0.0720  0.3288 -0.0028
 6382WAT     H226249   1.224   0.272   3.305  0.6985 -0.3100  0.4126
 6382WAT    EPW26250   1.245   0.347   3.300  0.0986 -0.1578  0.0987
 6383WAT      O26251   5.026   7.383   2.588  0.1269 -0.5567 -1.1700
 6383WAT     H126252   5.068   7.433   2.529 -0.8292  2.6938  0.6139
 6383WAT     H226253   4.944   7.382   2.560  0.0508 -0.7539 -0.9424
 6383WAT    EPW26254   5.020   7.391   2.575 -0.0256 -0.1057 -0.8729
 6384WAT      O26255   1.240   7.602   4.085 -0.0545  0.3687 -0.0283
 6384WAT     H126256   1.217   7.553   4.154 -0.1597  1.6015  0.8364
 6384WAT     H226257   1.197   7.564   4.019 -0.9034 -0.1374  0.7780
 6384WAT    EPW26258   1.230   7.589   4.086 -0.1955  0.4760  0.2185
 6385WAT      O26259   7.248   1.009   4.879 -0.0019 -0.3596 -0.5849
 6385WAT     H126260   7.327   0.987   4.907 -0.2927 -0.0854  0.5226
 6385WAT     H226261   7.247   0.984   4.796  1.7187  0.8806 -1.0315
 6385WAT    EPW26262   7.259   1.002   4.871  0.2093 -0.1359 -0.4873
 6386WAT      O26263   0.075   0.293   0.063 -0.3713  0.1261  0.4930
 6386WAT     H126264   0.073   0.360   0.007 -0.9368 -1.4314 -1.4514
 6386WAT     H226265   0.149   0.307   0.108 -0.8773  2.4466  0.7255
 6386WAT    EPW26266   0.086   0.305   0.061 -0.5296  0.2388  0.2401
 6387WAT      O26267   2.228   0.502   7.342 -0.1402  0.6719 -0.5966
 6387WAT     H126268   2.256   0.551   7.408 -0.1166  1.3697 -1.1203
 6387WAT     H226269   2.142   0.518   7.340 -0.2452  0.1591 -0.3327
 6387WAT    EPW26270   2.219   0.511   7.351 -0.1522  0.6992 -0.6350
 6388WAT      O26271   7.638   6.977   0.529 -0.0288 -0.5981  0.0006
 6388WAT     H126272   7.619   7.038   0.588 -1.4778 -1.5340  0.5689
 6388WAT     H226273   7.564   6.971   0.482 -0.4321 -2.7758  0.7762
 6388WAT    EPW26274   7.624   6.985   0.531 -0.3024 -1.0581  0.1992
 6389WAT      O26275   4.798   3.294   7.065  0.0391 -0.5404  0.5363
 6389WAT     H126276   4.783   3.211   7.086 -0.2024 -0.5712  0.2511
 6389WAT     H226277   4.858   3.290   7.002  0.6149 -0.4574  1.0676
 6389WAT    EPW26278   4.804   3.281   7.059  0.0885 -0.5327  0.5727
 6390WAT      O26279   5.251   1.477   7.232 -0.2711  0.0444  0.7780
 6390WAT     H126280   5.189   1.429   7.194 -0.1105 -0.1069  0.7038
 6390WAT     H226281   5.221   1.559   7.225  1.5082  0.6196 -3.3658
 6390WAT    EPW26282   5.238   1.482   7.225  0.0155  0.1070  0.1549
 6391WAT      O26283   3.605   3.626   0.518 -0.4651 -0.3915  0.1815
 6391WAT     H126284   3.518   3.626   0.513 -0.6866  1.8914  2.3854
 6391WAT     H226285   3.623   3.546   0.549 -1.7579 -0.7931 -0.0247
 6391WAT    EPW26286   3.595   3.614   0.522 -0.6888 -0.1136  0.4766
 6392WAT      O26287   1.516   6.495   7.724  0.1626 -0.2974  0.4283
 6392WAT     H126288   1.468   6.422   7.715 -0.1768 -0.3769  2.4848
 6392WAT     H226289   1.457   6.559   7.716  0.2892 -0.2534 -0.2892
 6392WAT    EPW26290   1.500   6.493   7.721  0.1311 -0.3026  0.6261
 6393WAT      O26291   2.894   0.405   2.226 -0.8150 -0.2481  1.0349
 6393WAT     H126292   2.889   0.427   2.310 -2.7345  1.7521  0.4888
 6393WAT     H226293   2.961   0.452   2.197  0.0185 -1.1406  1.4629
 6393WAT    EPW26294   2.903   0.415   2.234 -0.9754 -0.0845  1.0175
 6394WAT      O26295   2.408   1.731   7.286  0.1033  0.3191  0.0402
 6394WAT     H126296   2.325   1.756   7.278  0.5355  2.2968  1.0638
 6394WAT     H226297   2.413   1.661   7.235 -2.0258  0.5163 -0.5545
 6394WAT    EPW26298   2.396   1.725   7.277 -0.1474  0.6404  0.1035
 6395WAT      O26299   6.657   3.744   7.152  0.2536 -0.3457 -0.0016
 6395WAT     H126300   6.654   3.658   7.140 -0.3029 -0.1226 -1.8213
 6395WAT     H226301   6.728   3.768   7.108  1.1735  0.0217  1.5991
 6395WAT    EPW26302   6.667   3.735   7.144  0.3073 -0.2585 -0.0339
 6396WAT      O26303   0.003   3.167   6.920  0.4066  0.6735  0.3561
 6396WAT     H126304   0.075   3.184   6.873  0.9481 -0.6534  0.6470
 6396WAT     H226305  -0.032   3.098   6.878 -0.9667  1.5928 -0.0491
 6396WAT    EPW26306   0.008   3.159   6.907  0.2837  0.6133  0.3392
 6397WAT      O26307   5.820   3.650   0.019  0.3959  0.1101  0.2471
 6397WAT     H126308   5.804   3.732  -0.007 -1.0590  0.0038  0.7078
 6397WAT     H226309   5.883   3.622  -0.035 -0.3355  0.9333 -1.0523
 6397WAT    EPW26310   5.827   3.658   0.007  0.0730  0.2160  0.1232
 6398WAT      O26311   6.714   2.703   4.976 -0.4184 -0.0752 -0.5995
 6398WAT     H126312   6.780   2.673   4.927 -0.9074 -1.1672 -0.6341
 6398WAT     H226313   6.753   2.756   5.032  0.3460  0.1311 -1.2963
 6398WAT    EPW26314   6.730   2.706   4.977 -0.3777 -0.2061 -0.7076
 6399WAT      O26315   0.331   1.494   5.324  0.3901 -0.1648  0.1967
 6399WAT     H126316   0.294   1.570   5.302 -0.4543 -1.2034 -2.2525
 6399WAT     H226317   0.285   1.469   5.394  0.6063  1.4752  0.9768
 6399WAT    EPW26318   0.319   1.502   5.331  0.2973 -0.0760 -0.0498
 6400WAT      O26319   7.716   5.592   6.796 -0.2906 -0.5785  0.4773
 6400WAT     H126320   7.729   5.605   6.881 -0.1127 -2.6400  0.8241
 6400WAT     H226321   7.630   5.575   6.791 -0.7985  1.7512 -0.1471
 6400WAT    EPW26322   7.705   5.591   6.808 -0.3394 -0.5389  0.4363
 6401WAT      O26323   0.663   6.858   5.624 -0.4105  0.0430 -0.0793
 6401WAT     H126324   0.656   6.787   5.574 -0.4757 -0.1107  0.1458
 6401WAT     H226325   0.668   6.924   5.567 -0.5991 -0.1226 -0.2844
 6401WAT    EPW26326   0.663   6.857   5.608 -0.4480 -0.0041 -0.0763
 6402WAT      O26327   1.289   6.562   6.848 -0.1822  0.4856  0.4107
 6402WAT     H126328   1.213   6.567   6.892  0.4332  1.5367  1.4063
 6402WAT     H226329   1.320   6.483   6.871 -1.0090 -0.0046 -0.0947
 6402WAT    EPW26330   1.282   6.551   6.858 -0.2134  0.5685  0.4831
 6403WAT      O26331   3.955   5.717   4.060  0.7516 -0.2708 -0.6177
 6403WAT     H126332   3.981   5.644   4.100 -1.5029 -0.7712  0.0496
 6403WAT     H226333   3.978   5.781   4.115  3.5662 -0.3035 -1.6173
 6403WAT    EPW26334   3.962   5.716   4.074  0.8343 -0.3496 -0.6668
 6404WAT      O26335   3.313   4.085   0.804  0.5165  0.7084  0.8952
 6404WAT     H126336   3.336   4.002   0.790 -1.2825  0.5234 -1.6200
 6404WAT     H226337   3.382   4.130   0.775  0.8518  0.1003  0.7235
 6404WAT    EPW26338   3.326   4.079   0.798  0.3003  0.5912  0.4983
 6405WAT      O26339   3.441   1.807   2.043 -0.2371 -0.2221  0.4241
 6405WAT     H126340   3.429   1.731   2.085  1.1665 -0.1887  0.9183
 6405WAT     H226341   3.508   1.843   2.084  0.6976  0.1735 -1.3526
 6405WAT    EPW26342   3.449   1.801   2.055  0.1083 -0.1587  0.2346
 6406WAT      O26343   4.210   6.073   6.436 -0.4087 -0.2587  0.6443
 6406WAT     H126344   4.221   6.023   6.365  1.5512  1.0703 -0.0752
 6406WAT     H226345   4.146   6.128   6.413  0.1991  0.1477 -0.0977
 6406WAT    EPW26346   4.202   6.073   6.422 -0.0294 -0.0023  0.4284
 6407WAT      O26347   4.681   5.255   6.524 -0.3141 -0.0317 -0.0072
 6407WAT     H126348   4.755   5.287   6.558  0.3807  0.0104 -1.4936
 6407WAT     H226349   4.682   5.285   6.442  0.1515 -3.4062 -1.3899
 6407WAT    EPW26350   4.692   5.264   6.517 -0.1427 -0.5240 -0.4310
 6408WAT      O26351   5.663   6.445   4.979 -0.3267  0.2379  0.1949
 6408WAT     H126352   5.700   6.483   4.910  0.7552  1.4994  1.3905
 6408WAT     H226353   5.731   6.428   5.032 -1.0788 -0.9864  0.8393
 6408WAT    EPW26354   5.679   6.448   4.977 -0.2780  0.2434  0.4667
 6409WAT      O26355   2.848   7.358   6.484 -0.0762 -0.2577 -0.3325
 6409WAT     H126356   2.849   7.274   6.459 -1.3140 -0.5900  0.6288
 6409WAT     H226357   2.765   7.372   6.504  0.2177  1.0659  0.0168
 6409WAT    EPW26358   2.836   7.348   6.483 -0.2156 -0.1113 -0.1389
 6410WAT      O26359   6.329   2.158   7.181 -0.1082 -0.0367  0.1888
 6410WAT     H126360   6.262   2.195   7.223  0.3773  0.6761  0.3534
 6410WAT     H226361   6.367   2.109   7.242  0.6081  1.0134  0.6134
 6410WAT    EPW26362   6.325   2.156   7.196  0.0693  0.2237  0.2759
 6411WAT      O26363   1.783   6.907   7.030 -0.5240 -0.2226 -0.2451
 6411WAT     H126364   1.739   6.932   6.959  1.6552 -2.4192 -2.5736
 6411WAT     H226365   1.765   6.822   7.036  2.2264 -0.9036 -0.5088
 6411WAT    EPW26366   1.774   6.898   7.020  0.2042 -0.6477 -0.6280
 6412WAT      O26367   0.224   7.128   7.175  0.2903 -0.1123  0.0645
 6412WAT     H126368   0.265   7.187   7.126 -1.0683  2.0696  1.4059
 6412WAT     H226369   0.279   7.114   7.241 -0.8380  2.6976  1.7856
 6412WAT    EPW26370   0.238   7.135   7.178 -0.0770  0.6251  0.5169
 6413WAT      O26371   4.706   1.074   0.345 -1.0183 -0.6408 -0.2921
 6413WAT     H126372   4.772   1.063   0.288  0.1688  1.8388  0.4581
 6413WAT     H226373   4.723   1.014   0.406  3.5119  2.6102  2.2892
 6413WAT    EPW26374   4.718   1.063   0.345 -0.1738  0.2057  0.2000
 6414WAT      O26375   5.751   2.827   1.826 -0.0254 -0.1184  0.5226
 6414WAT     H126376   5.801   2.896   1.844  1.1120 -1.0957  1.2874
 6414WAT     H226377   5.737   2.791   1.905 -3.0301  0.8148  0.5179
 6414WAT    EPW26378   5.756   2.832   1.841 -0.3012 -0.1249  0.6349
 6415WAT      O26379   2.605   7.238   6.742 -0.1184  0.2266  0.4816
 6415WAT     H126380   2.606   7.306   6.797 -0.1325  1.3433 -0.8308
 6415WAT     H226381   2.689   7.217   6.734  0.0306  1.0304 -0.1888
 6415WAT    EPW26382   2.617   7.245   6.749 -0.0984  0.5103  0.1887
 6416WAT      O26383   2.134   0.137   5.438 -0.1366 -0.4030 -0.1139
 6416WAT     H126384   2.121   0.058   5.473  0.2584 -1.3430 -1.9611
 6416WAT     H226385   2.087   0.190   5.488  1.6541 -1.3649  2.8199
 6416WAT    EPW26386   2.125   0.133   5.450  0.1863 -0.6839  0.0466
 6417WAT      O26387   7.158   6.191   6.270 -0.4327 -0.1041  0.2319
 6417WAT     H126388   7.086   6.176   6.318 -0.0604 -2.5060  0.1547
 6417WAT     H226389   7.222   6.156   6.317  0.7556  1.9329  0.2579
 6417WAT    EPW26390   7.157   6.184   6.284 -0.2021 -0.1580  0.2243
 6418WAT      O26391   3.483   0.900   2.355  0.2369  0.3359 -0.1946
 6418WAT     H126392   3.567   0.916   2.372  0.1361 -0.6226  1.3294
 6418WAT     H226393   3.447   0.979   2.351  0.8152  0.7179  1.4150
 6418WAT    EPW26394   3.490   0.914   2.357  0.3074  0.2508  0.2683
 6419WAT      O26395   6.567   4.699   7.104 -0.4450  0.0058  0.0866
 6419WAT     H126396   6.596   4.773   7.139  1.2056 -1.0581  1.0674
 6419WAT     H226397   6.629   4.678   7.047 -1.0222 -0.5228 -0.3630
 6419WAT    EPW26398   6.580   4.707   7.100 -0.2864 -0.2295  0.1651
 6420WAT      O26399   2.814   4.921   3.461 -0.2349  0.2079  0.6054
 6420WAT     H126400   2.822   4.977   3.528 -0.1020  1.3370 -0.3266
 6420WAT     H226401   2.815   4.843   3.500  3.1535  0.6441  1.7129
 6420WAT    EPW26402   2.816   4.917   3.477  0.2853  0.4391  0.6314
 6421WAT      O26403   4.917   2.805   5.806  0.0850 -0.4058  0.0642
 6421WAT     H126404   4.983   2.794   5.861 -1.5986 -0.5907  2.1395
 6421WAT     H226405   4.849   2.825   5.857 -1.4345  0.1107 -1.9841
 6421WAT    EPW26406   4.917   2.807   5.821 -0.3881 -0.3568  0.0682
 6422WAT      O26407   5.501   3.785   6.758 -0.3499  0.0770 -0.1976
 6422WAT     H126408   5.416   3.803   6.750 -0.4376 -0.4100 -0.4603
 6422WAT     H226409   5.505   3.699   6.740  0.1927  0.0919 -0.1662
 6422WAT    EPW26410   5.489   3.775   6.754 -0.2827  0.0073 -0.2318
 6423WAT      O26411   2.844   5.490   7.834 -0.0484 -0.2873  0.3140
 6423WAT     H126412   2.877   5.568   7.854  0.3602 -0.8580  2.0497
 6423WAT     H226413   2.806   5.503   7.756 -2.3669  2.3456  1.7054
 6423WAT    EPW26414   2.843   5.504   7.825 -0.3306  0.0173  0.7759
 6424WAT      O26415   3.297   7.560   3.620 -0.6703  0.4453  0.7892
 6424WAT     H126416   3.232   7.517   3.660 -0.6954 -1.3449 -1.0452
 6424WAT     H226417   3.357   7.498   3.606  1.1649  1.8872  1.7241
 6424WAT    EPW26418   3.296   7.544   3.624 -0.4029  0.3939  0.6563
 6425WAT      O26419   6.581   5.740   0.915  0.1622 -0.0223 -0.0323
 6425WAT     H126420   6.549   5.712   0.991  0.9019 -1.3520 -0.1891
 6425WAT     H226421   6.529   5.703   0.856  0.3930 -0.0713 -0.2063
 6425WAT    EPW26422   6.569   5.731   0.918  0.3056 -0.2260 -0.0811
 6426WAT      O26423   3.539   6.140   5.604 -0.4168  0.7561 -0.0828
 6426WAT     H126424   3.552   6.223   5.580  0.8302  0.7359  0.4266
 6426WAT     H226425   3.620   6.107   5.606 -1.0084 -1.3363 -3.2309
 6426WAT    EPW26426   3.553   6.147   5.600 -0.3200  0.4440 -0.4726
 6427WAT      O26427   5.863   6.598   4.784  0.4210 -0.2285 -0.2077
 6427WAT     H126428   5.811   6.664   4.807  0.0382 -0.4956 -0.2950
 6427WAT     H226429   5.938   6.617   4.823 -0.0627 -0.3957  0.8424
 6427WAT    EPW26430   5.866   6.611   4.793  0.2930 -0.2926 -0.0655
 6428WAT      O26431   1.705   0.910   6.454  0.3408 -0.3819 -0.2774
 6428WAT     H126432   1.749   0.851   6.501 -0.5444 -0.7175  0.1684
 6428WAT     H226433   1.707   0.982   6.503 -0.7207 -0.7782  0.3750
 6428WAT    EPW26434   1.712   0.912   6.468  0.0532 -0.4900 -0.1151
 6429WAT      O26435   0.567   6.702   4.906  0.2662 -0.2053  0.5876
 6429WAT     H126436   0.551   6.774   4.859 -1.8282 -0.0594  1.4190
 6429WAT     H226437   0.644   6.675   4.876 -0.6009  0.2951 -2.4263
 6429WAT    EPW26438   0.576   6.708   4.894 -0.1712 -0.1098  0.2652
 6430WAT      O26439   1.435   2.646   3.589 -0.0229 -0.2362 -0.3193
 6430WAT     H126440   1.401   2.715   3.547  0.6164  1.2325  1.4455
 6430WAT     H226441   1.516   2.642   3.559  0.1958  0.3182  0.1919
 6430WAT    EPW26442   1.442   2.656   3.579  0.1038  0.0627  0.0169
 6431WAT      O26443   4.622   6.432   6.110  0.2301 -0.0018 -0.5802
 6431WAT     H126444   4.536   6.420   6.106 -0.1441  1.4938  1.3751
 6431WAT     H226445   4.652   6.362   6.152 -0.2937  0.2721  0.2673
 6431WAT    EPW26446   4.614   6.420   6.116  0.0975  0.2596 -0.1661
 6432WAT      O26447   3.016   6.142   1.354 -0.3513 -0.1931 -0.0592
 6432WAT     H126448   2.955   6.091   1.319 -3.2147  2.7443  0.1542
 6432WAT     H226449   3.007   6.130   1.440 -0.0795 -0.2913 -0.0418
 6432WAT    EPW26450   3.006   6.133   1.361 -0.7341  0.2263 -0.0251
 6433WAT      O26451   2.143   2.762   6.218  0.0437  0.2578 -0.1703
 6433WAT     H126452   2.096   2.820   6.172  0.3595  3.0536  2.6649
 6433WAT     H226453   2.225   2.791   6.210  0.2470  0.0872  1.1190
 6433WAT    EPW26454   2.148   2.775   6.210  0.1204  0.6456  0.4390
 6434WAT      O26455   0.528   7.627   5.519 -0.8064 -0.3821  0.2025
 6434WAT     H126456   0.450   7.589   5.513 -0.3143 -1.4104  0.0727
 6434WAT     H226457   0.549   7.646   5.437 -1.8091  1.8321  0.3956
 6434WAT    EPW26458   0.520   7.625   5.506 -0.8818 -0.2069  0.2118
 6435WAT      O26459   3.354   6.055   5.406 -0.6435 -0.3712  0.3869
 6435WAT     H126460   3.334   5.972   5.422  1.2794 -0.9091  0.1839
 6435WAT     H226461   3.405   6.077   5.474  1.4368 -0.3823 -1.0699
 6435WAT    EPW26462   3.359   6.046   5.418 -0.0522 -0.4523  0.1417
 6436WAT      O26463   0.454   1.317   7.782 -0.3693  0.0239 -0.2229
 6436WAT     H126464   0.368   1.307   7.792 -0.3420  1.0057  1.2076
 6436WAT     H226465   0.488   1.251   7.827 -0.3552  1.5455  2.1547
 6436WAT    EPW26466   0.446   1.306   7.790 -0.3632  0.3937  0.3396
 6437WAT      O26467   1.375   5.497   7.468 -0.1807 -0.3792  0.0449
 6437WAT     H126468   1.432   5.554   7.503  1.5422 -1.0735 -1.4909
 6437WAT     H226469   1.360   5.442   7.534 -1.0304  1.1705  1.2272
 6437WAT    EPW26470   1.381   5.497   7.483 -0.0517 -0.2528 -0.0073
 6438WAT      O26471   3.985   6.759   6.838 -0.1731 -0.5823  0.4883
 6438WAT     H126472   4.056   6.778   6.884 -1.3327  1.5169  1.5841
 6438WAT     H226473   3.930   6.824   6.857 -1.8556 -1.2934 -1.4895
 6438WAT    EPW26474   3.987   6.771   6.847 -0.5929 -0.3773  0.3580
 6439WAT      O26475   6.991   6.266   5.914  0.1107 -0.1894  0.0801
 6439WAT     H126476   7.007   6.323   5.850  1.2154 -0.7423 -0.1662
 6439WAT     H226477   7.071   6.238   5.936 -0.3899 -1.3957  0.4169
 6439WAT    EPW26478   7.006   6.270   5.908  0.1999 -0.4493  0.0935
 6440WAT      O26479   4.265   6.447   5.092 -0.3952 -0.2435  0.2912
 6440WAT     H126480   4.352   6.437   5.094 -0.4571 -0.8722 -0.0394
 6440WAT     H226481   4.245   6.464   5.175 -0.1439 -1.8002  0.6931
 6440WAT    EPW26482   4.275   6.448   5.105 -0.3672 -0.5663  0.3017
 6441WAT      O26483   0.886   4.272   6.414 -0.0149 -0.5248 -0.4397
 6441WAT     H126484   0.945   4.313   6.364 -0.7141  0.9857 -0.0590
 6441WAT     H226485   0.858   4.334   6.468 -0.8100 -1.6200  0.4410
 6441WAT    EPW26486   0.891   4.287   6.414 -0.2357 -0.4634 -0.2534
 6442WAT      O26487   2.303   0.641   6.040  0.0401  0.7001  0.5765
 6442WAT     H126488   2.371   0.622   5.989 -0.0488 -2.5385  1.4595
 6442WAT     H226489   2.237   0.647   5.984  0.1086 -1.8744  0.1180
 6442WAT    EPW26490   2.303   0.639   6.024  0.0371 -0.1586  0.6392
 6443WAT      O26491   4.790   5.542   0.180 -0.5597  0.0016  0.4287
 6443WAT     H126492   4.841   5.596   0.226  1.6544 -1.1022 -0.5750
 6443WAT     H226493   4.728   5.595   0.149 -0.2481  1.3662  1.9535
 6443WAT    EPW26494   4.789   5.558   0.182 -0.1866  0.0402  0.5056
 6444WAT      O26495   7.270   7.243   5.635 -0.1771 -0.3985 -0.1086
 6444WAT     H126496   7.271   7.246   5.722 -0.1416  0.3408 -0.1264
 6444WAT     H226497   7.275   7.158   5.617  1.6519 -0.4802  0.6039
 6444WAT    EPW26498   7.271   7.231   5.645  0.0983 -0.3014 -0.0059
 6445WAT      O26499   4.899   0.007   4.221 -0.3671 -0.1863 -0.0817
 6445WAT     H126500   4.828   0.056   4.231  0.0648  0.3207  0.5316
 6445WAT     H226501   4.875  -0.070   4.253 -0.3701  0.2246  0.9243
 6445WAT    EPW26502   4.885   0.003   4.227 -0.3038 -0.0507  0.1575
 6446WAT      O26503   6.223   1.298   7.838 -0.0957 -0.3908 -0.2521
 6446WAT     H126504   6.303   1.269   7.860  0.5256  1.1241 -0.4127
 6446WAT     H226505   6.232   1.323   7.755 -1.6181 -3.1569 -1.3836
 6446WAT    EPW26506   6.236   1.297   7.829 -0.2288 -0.5757 -0.4430
 6447WAT      O26507   1.745   6.213   5.630 -0.1564 -0.2586  0.3471
 6447WAT     H126508   1.748   6.254   5.554 -1.4723 -0.7548 -0.0026
 6447WAT     H226509   1.749   6.128   5.608  0.9270 -0.3723  0.9387
 6447WAT    EPW26510   1.746   6.206   5.616 -0.1907 -0.3487  0.3828
 6448WAT      O26511   1.909   4.381   6.445 -0.0113 -0.7083 -0.1865
 6448WAT     H126512   1.987   4.344   6.461 -0.2110 -0.4155  1.7405
 6448WAT     H226513   1.903   4.442   6.507 -1.4449 -0.2108 -0.7959
 6448WAT    EPW26514   1.920   4.384   6.457 -0.2526 -0.5916  0.0081
 6449WAT      O26515   4.249   2.281   4.820 -0.2574  0.1245  0.5972
 6449WAT     H126516   4.233   2.197   4.806 -0.7887  0.3962 -0.6080
 6449WAT     H226517   4.191   2.304   4.880 -0.1692 -0.3516  0.8621
 6449WAT    EPW26518   4.238   2.272   4.827 -0.3229  0.0943  0.4583
 6450WAT      O26519   5.317   3.343   1.938 -0.4016  0.8201 -0.0957
 6450WAT     H126520   5.277   3.420   1.945 -1.1728  0.3689  0.6081
 6450WAT     H226521   5.284   3.309   1.865 -1.2630  0.4910  0.4314
 6450WAT    EPW26522   5.306   3.349   1.929 -0.6428  0.7048  0.0862
 6451WAT      O26523   2.936   7.556   6.052  0.1259  0.8760 -0.1218
 6451WAT     H126524   2.900   7.634   6.036  0.7267  1.2448  0.2956
 6451WAT     H226525   2.876   7.500   6.023  0.2388  1.4855 -1.6237
 6451WAT    EPW26526   2.922   7.559   6.046  0.2313  1.0206 -0.2820
 6452WAT      O26527   3.287   6.767   0.303  0.3281  0.0085  0.1971
 6452WAT     H126528   3.232   6.713   0.262 -0.8187  0.7333  0.7168
 6452WAT     H226529   3.257   6.846   0.282  0.6467  0.4091  1.1752
 6452WAT    EPW26530   3.274   6.771   0.294  0.2058  0.1748  0.4184
 6453WAT      O26531   0.947   0.586   3.904 -0.0262  0.0973  0.4765
 6453WAT     H126532   0.947   0.561   3.820  0.0017  1.1604  0.1503
 6453WAT     H226533   0.887   0.649   3.906  0.0325  0.1353  1.2482
 6453WAT    EPW26534   0.938   0.592   3.892 -0.0134  0.2600  0.5423
 6454WAT      O26535   5.332   0.260   3.237 -0.1111  0.3289 -0.1245
 6454WAT     H126536   5.348   0.344   3.221 -0.9036  0.3874 -0.6704
 6454WAT     H226537   5.378   0.244   3.310 -0.5945  1.4485  0.4580
 6454WAT    EPW26538   5.341   0.270   3.246 -0.2996  0.5029 -0.1191
 6455WAT      O26539   2.651   7.509   5.394  0.4404  0.0538 -0.1219
 6455WAT     H126540   2.733   7.508   5.365 -0.0085 -1.0444 -1.4586
 6455WAT     H226541   2.611   7.567   5.343  0.5813  1.3354  1.1843
 6455WAT    EPW26542   2.657   7.517   5.382  0.3949  0.0809 -0.1264
 6456WAT      O26543   2.831   1.298   7.287 -0.1259 -0.1974 -0.0699
 6456WAT     H126544   2.791   1.221   7.290  0.4446 -0.5656 -1.1960
 6456WAT     H226545   2.907   1.280   7.249  0.7097  0.6503  1.1332
 6456WAT    EPW26546   2.836   1.284   7.282  0.0818 -0.1266 -0.0585
 6457WAT      O26547   6.780   3.546   6.879  0.1599  0.1080 -0.1142
 6457WAT     H126548   6.702   3.567   6.845  1.0789 -0.0221 -2.5014
 6457WAT     H226549   6.779   3.458   6.881  0.5646  0.0700 -1.0547
 6457WAT    EPW26550   6.768   3.536   6.874  0.3555  0.0832 -0.6058
 6458WAT      O26551   6.620   3.997   6.247  0.4500 -0.7638  0.2745
 6458WAT     H126552   6.584   3.957   6.316  1.1865  0.4868  1.4439
 6458WAT     H226553   6.669   4.059   6.284 -1.9534  2.3909 -1.4290
 6458WAT    EPW26554   6.622   4.000   6.263  0.2037 -0.1130  0.1956
 6459WAT      O26555   1.394   0.235   4.400 -0.1200  0.2674  0.3384
 6459WAT     H126556   1.375   0.280   4.328  1.4721 -1.3212 -1.1518
 6459WAT     H226557   1.417   0.297   4.457 -2.4826  1.6647 -0.0482
 6459WAT    EPW26558   1.394   0.251   4.398 -0.2338  0.2391  0.0612
 6460WAT      O26559   4.292   5.082   1.660 -0.4734 -0.2020  0.4884
 6460WAT     H126560   4.369   5.059   1.695 -0.4824 -0.1126  0.5648
 6460WAT     H226561   4.308   5.079   1.574 -0.5399 -0.7367  0.4921
 6460WAT    EPW26562   4.306   5.078   1.652 -0.4846 -0.2678  0.5002
 6461WAT      O26563   0.975   2.427   7.600  0.0529  0.2062 -0.0815
 6461WAT     H126564   0.891   2.411   7.614  0.7316 -2.0430  2.2459
 6461WAT     H226565   0.998   2.477   7.668  0.7964 -0.0894 -0.1005
 6461WAT    EPW26566   0.966   2.432   7.612  0.2630 -0.1697  0.2595
 6462WAT      O26567   4.150   7.637   5.050  0.8240 -0.0684 -0.5621
 6462WAT     H126568   4.125   7.556   5.070  1.5295 -0.0250  0.6038
 6462WAT     H226569   4.115   7.685   5.114  1.6294  0.3357 -0.4142
 6462WAT    EPW26570   4.141   7.632   5.063  1.0472 -0.0023 -0.3680
 6463WAT      O26571   6.356   2.168   5.795  0.5393 -0.2059  0.2181
 6463WAT     H126572   6.345   2.249   5.765 -0.7282 -1.0040 -1.6264
 6463WAT     H226573   6.438   2.150   5.772  0.1218 -0.2028 -1.4079
 6463WAT    EPW26574   6.367   2.178   5.787  0.2904 -0.3233 -0.2946
 6464WAT      O26575   4.531   7.324   2.760 -0.3618 -0.5907  0.0079
 6464WAT     H126576   4.468   7.271   2.731 -1.8610  0.7538  0.6938
 6464WAT     H226577   4.497   7.404   2.751  0.7416  0.1038  1.5883
 6464WAT    EPW26578   4.517   7.328   2.754 -0.4203 -0.2895  0.3427
 6465WAT      O26579   0.472   0.888   0.160  0.3341 -0.3245 -0.0682
 6465WAT     H126580   0.507   0.808   0.162 -0.4573 -0.7107 -0.9943
 6465WAT     H226581   0.394   0.875   0.123  0.0305  0.8149  0.1539
 6465WAT    EPW26582   0.466   0.874   0.155  0.1723 -0.2132 -0.1722
 6466WAT      O26583   0.402   6.851   0.242  0.7976 -0.1649  0.0904
 6466WAT     H126584   0.323   6.842   0.206  0.0190 -1.2476  1.9599
 6466WAT     H226585   0.408   6.937   0.257 -0.0147 -0.0794 -0.0573
 6466WAT    EPW26586   0.392   6.863   0.239  0.5626 -0.3122  0.3448
 6467WAT      O26587   3.426   0.162   5.110  0.4038  0.3126 -0.2803
 6467WAT     H126588   3.507   0.162   5.077 -0.2119  0.5085 -1.8847
 6467WAT     H226589   3.392   0.087   5.081 -0.0389  0.2788  0.3028
 6467WAT    EPW26590   3.433   0.151   5.101  0.2475  0.3365 -0.4312
 6468WAT      O26591   0.646   5.530   6.617 -1.1940  0.3376  0.0787
 6468WAT     H126592   0.656   5.484   6.543  1.5562  0.5769  0.1775
 6468WAT     H226593   0.671   5.474   6.679 -0.6082  1.0605  0.5004
 6468WAT    EPW26594   0.651   5.515   6.615 -0.7012  0.4797  0.1556
 6469WAT      O26595   6.669   6.058   4.825  0.3523 -0.2692  0.3798
 6469WAT     H126596   6.603   6.007   4.850  0.8366 -1.0188  0.1765
 6469WAT     H226597   6.723   6.057   4.893 -0.2169  1.0308  0.8768
 6469WAT    EPW26598   6.667   6.050   4.839  0.3397 -0.1879  0.4232
 6470WAT      O26599   7.527   2.187   4.333 -0.1607 -0.0751 -0.1748
 6470WAT     H126600   7.542   2.215   4.415  1.3951 -0.0912 -0.4264
 6470WAT     H226601   7.475   2.249   4.300 -1.1964 -0.2988  0.9395
 6470WAT    EPW26602   7.521   2.200   4.340 -0.0839 -0.1105 -0.0474
 6471WAT      O26603   2.821   5.369   7.309  0.3933 -0.1474  0.3736
 6471WAT     H126604   2.899   5.388   7.275  0.5624 -1.0590  0.2262
 6471WAT     H226605   2.835   5.293   7.351 -0.3624 -0.2071  0.5310
 6471WAT    EPW26606   2.835   5.360   7.310  0.3067 -0.2909  0.3751
 6472WAT      O26607   0.374   6.440   7.631 -0.3013  0.3565  0.3386
 6472WAT     H126608   0.323   6.464   7.698 -0.6036 -0.6219  0.4717
 6472WAT     H226609   0.389   6.515   7.589  0.2989  1.0883  1.7700
 6472WAT    EPW26610   0.369   6.455   7.635 -0.2573  0.3200  0.5697
 6473WAT      O26611   2.297   6.821   5.815 -0.1016 -0.5628  0.5961
 6473WAT     H126612   2.263   6.751   5.855  0.5353 -0.2091  1.7968
 6473WAT     H226613   2.237   6.883   5.829  1.0790  0.1476  2.9974
 6473WAT    EPW26614   2.283   6.819   5.823  0.1669 -0.4056  1.1282
 6474WAT      O26615   7.087   7.342   5.007  0.4739  0.3504  0.0716
 6474WAT     H126616   7.057   7.422   4.990 -2.3932 -0.3595  1.1783
 6474WAT     H226617   7.087   7.303   4.929 -0.9483  0.6091 -0.0902
 6474WAT    EPW26618   7.083   7.348   4.993 -0.1597  0.2837  0.2112
 6475WAT      O26619   1.398   7.116   5.613 -0.2751  0.1441 -0.1371
 6475WAT     H126620   1.461   7.106   5.673 -2.2921 -2.3070  1.7957
 6475WAT     H226621   1.341   7.169   5.652 -0.8890 -0.2045 -0.5545
 6475WAT    EPW26622   1.399   7.123   5.628 -0.6637 -0.2695  0.0868
 6476WAT      O26623   0.353   0.472   5.027  0.3953 -0.1789 -0.0491
 6476WAT     H126624   0.345   0.498   5.110  0.1345 -0.4638  0.0175
 6476WAT     H226625   0.437   0.450   5.021  0.1179 -1.4838  0.5423
 6476WAT    EPW26626   0.364   0.472   5.038  0.3158 -0.4137  0.0481
 6477WAT      O26627   5.574   5.134   4.594  0.6640 -0.4344  0.0279
 6477WAT     H126628   5.662   5.132   4.597  0.8678  3.3320  1.0221
 6477WAT     H226629   5.551   5.129   4.677  0.0297  0.0437 -0.1156
 6477WAT    EPW26630   5.584   5.133   4.606  0.6004  0.1926  0.1536
 6478WAT      O26631   6.040   1.812   5.907 -0.1046  0.2858  0.4946
 6478WAT     H126632   6.076   1.861   5.970  0.2436  0.5120  0.1288
 6478WAT     H226633   5.957   1.839   5.905  0.4167  2.0253 -0.7580
 6478WAT    EPW26634   6.033   1.824   5.916  0.0239  0.5761  0.2555
 6479WAT      O26635   1.267   1.245   7.664  0.6130  0.1407  0.6159
 6479WAT     H126636   1.323   1.200   7.715  1.5785  1.0668  0.4087
 6479WAT     H226637   1.308   1.251   7.588  0.5763  1.4670  0.6708
 6479WAT    EPW26638   1.281   1.239   7.661  0.7502  0.4734  0.5934
 6480WAT      O26639   3.295   2.009   2.212  0.1127 -0.1574  0.3418
 6480WAT     H126640   3.222   1.974   2.245 -0.6901  1.0489 -0.0692
 6480WAT     H226641   3.323   1.949   2.156  0.1515 -1.1829  1.4060
 6480WAT    EPW26642   3.288   1.995   2.209 -0.0001 -0.1307  0.4383
 6481WAT      O26643   2.047   4.461   0.907  0.7236  0.6339  0.1039
 6481WAT     H126644   2.091   4.400   0.950  1.3882  0.5095 -0.7148
 6481WAT     H226645   1.965   4.451   0.934  0.7115 -0.9882 -0.3988
 6481WAT    EPW26646   2.041   4.451   0.917  0.8200  0.3759 -0.0913
 6482WAT      O26647   2.979   0.623   6.063  0.2915  0.1733 -0.3006
 6482WAT     H126648   2.957   0.652   6.142 -0.9479 -0.9287 -0.2144
 6482WAT     H226649   2.943   0.544   6.059  2.0212 -0.6330 -1.2162
 6482WAT    EPW26650   2.971   0.616   6.074  0.3639 -0.1086 -0.4231
 6483WAT      O26651   4.798   7.210   1.303 -0.6436 -0.0000  0.2169
 6483WAT     H126652   4.875   7.251   1.311  1.1870 -2.8799 -1.0028
 6483WAT     H226653   4.765   7.245   1.230  0.9126 -0.6215 -0.8589
 6483WAT    EPW26654   4.805   7.221   1.294 -0.1433 -0.5172 -0.1222
 6484WAT      O26655   1.538   1.118   4.514  0.4122 -0.2696  0.3256
 6484WAT     H126656   1.475   1.161   4.472 -0.7806 -1.5966  0.7112
 6484WAT     H226657   1.607   1.126   4.461 -0.8496 -1.2762 -1.5622
 6484WAT    EPW26658   1.539   1.126   4.500  0.0496 -0.6143  0.1037
 6485WAT      O26659   2.200   1.172   7.678  0.0417  0.0186  0.0542
 6485WAT     H126660   2.194   1.229   7.744 -0.2942 -0.3991  0.3944
 6485WAT     H226661   2.172   1.218   7.609  0.1772  0.3900  0.2429
 6485WAT    EPW26662   2.195   1.188   7.677  0.0121  0.0118  0.1324
 6486WAT      O26663   4.640   6.076   7.643 -0.3680 -0.0524 -0.4015
 6486WAT     H126664   4.677   6.078   7.564 -1.6504  0.4104 -1.0228
 6486WAT     H226665   4.607   6.156   7.652 -1.1562 -0.4238  0.1341
 6486WAT    EPW26666   4.641   6.088   7.633 -0.6739 -0.0389 -0.4142
 6487WAT      O26667   6.277   3.849   0.074  0.2446 -0.4838 -0.2942
 6487WAT     H126668   6.337   3.912   0.073  0.5946 -0.8126 -0.2287
 6487WAT     H226669   6.202   3.892   0.088  0.4766 -0.0838 -0.2719
 6487WAT    EPW26670   6.275   3.865   0.076  0.3306 -0.4733 -0.2812
 6488WAT      O26671   3.682   1.370   7.269  0.6563  0.6992 -0.3133
 6488WAT     H126672   3.760   1.381   7.231  1.5942 -0.1620  1.2644
 6488WAT     H226673   3.649   1.451   7.271  0.1316  0.7308 -3.6367
 6488WAT    EPW26674   3.689   1.383   7.264  0.7173  0.5767 -0.5711
 6489WAT      O26675   2.185   2.023   7.438  0.5946 -0.4156  0.1089
 6489WAT     H126676   2.189   2.046   7.354 -1.0209 -0.0517  0.1068
 6489WAT     H226677   2.119   2.071   7.469  0.4275 -1.3937  1.3142
 6489WAT    EPW26678   2.176   2.034   7.430  0.3313 -0.5063  0.2866
 6490WAT      O26679   4.355   2.681   0.738 -0.3518  0.1906 -0.2019
 6490WAT     H126680   4.310   2.689   0.812 -0.8014 -0.6016 -0.3745
 6490WAT     H226681   4.310   2.731   0.682  0.7650  1.9141  0.3604
 6490WAT    EPW26682   4.342   2.690   0.740 -0.2532  0.3282 -0.1443
 6491WAT      O26683   6.552   0.466   5.976 -0.1728 -0.3435 -0.0835
 6491WAT     H126684   6.604   0.410   6.017  1.0163  0.3654 -0.5762
 6491WAT     H226685   6.595   0.486   5.903 -0.6698  1.0067 -0.0487
 6491WAT    EPW26686   6.566   0.461   5.972 -0.0706 -0.0393 -0.1512
 6492WAT      O26687   5.786   3.450   6.627 -0.3262 -0.2927  0.0723
 6492WAT     H126688   5.850   3.391   6.619 -0.7028 -1.2128  2.8358
 6492WAT     H226689   5.781   3.486   6.547  3.5296 -0.2318 -0.3395
 6492WAT    EPW26690   5.795   3.447   6.614  0.1878 -0.4196  0.4197
 6493WAT      O26691   1.462   5.398   4.802  0.1507  0.3946 -0.1690
 6493WAT     H126692   1.472   5.480   4.828 -0.5753 -0.1749  2.1201
 6493WAT     H226693   1.465   5.352   4.876 -1.9317 -1.3790 -1.0514
 6493WAT    EPW26694   1.464   5.403   4.816 -0.2641  0.0485  0.0388
 6494WAT      O26695   2.042   5.594   1.445 -0.4558 -0.1649 -0.2153
 6494WAT     H126696   2.028   5.643   1.516  3.0692 -1.7864  1.8606
 6494WAT     H226697   2.065   5.653   1.384  2.6247  1.1149  1.8915
 6494WAT    EPW26698   2.044   5.610   1.446  0.5199 -0.2154  0.4026
 6495WAT      O26699   4.547   5.701   6.590  0.2967  0.1221 -0.3303
 6495WAT     H126700   4.530   5.783   6.568 -0.5908 -0.4786 -2.0317
 6495WAT     H226701   4.566   5.662   6.514 -0.7994 -1.5733  0.2014
 6495WAT    EPW26702   4.547   5.707   6.576  0.0037 -0.2171 -0.5031
 6496WAT      O26703   0.948   1.946   7.225 -0.0343  0.2077 -0.2696
 6496WAT     H126704   0.975   2.016   7.181  0.1904  0.2976  0.0002
 6496WAT     H226705   1.002   1.944   7.294  0.3598 -0.5809 -0.5906
 6496WAT    EPW26706   0.960   1.956   7.229  0.0571  0.1045 -0.2772
 6497WAT      O26707   0.448   6.292   0.158 -0.4381 -0.3329  0.6556
 6497WAT     H126708   0.511   6.353   0.159 -0.4084 -0.3658  1.1471
 6497WAT     H226709   0.434   6.278   0.073 -0.7883  0.7088  0.5278
 6497WAT    EPW26710   0.456   6.299   0.146 -0.4854 -0.1839  0.7093
 6498WAT      O26711   5.838   6.881   0.816 -0.2287  0.9234 -0.0343
 6498WAT     H126712   5.840   6.847   0.736  0.2262  0.7142  0.0592
 6498WAT     H226713   5.920   6.870   0.844 -1.1385 -2.5417  1.9272
 6498WAT    EPW26714   5.851   6.874   0.808 -0.2959  0.3806  0.2693
 6499WAT      O26715   2.770   4.589   5.979 -0.4048  0.2305  0.0736
 6499WAT     H126716   2.734   4.591   6.058 -4.0313  0.3249 -1.3996
 6499WAT     H226717   2.815   4.665   5.975 -0.9945  0.7005  1.6547
 6499WAT    EPW26718   2.772   4.601   5.990 -1.0276  0.3139  0.0895
 6500WAT      O26719   6.140   4.696   1.597  0.9536 -0.3684 -0.1918
 6500WAT     H126720   6.089   4.766   1.608 -2.5310 -2.8555  1.4800
 6500WAT     H226721   6.208   4.711   1.651  0.6616  1.9235 -0.3770
 6500WAT    EPW26722   6.143   4.708   1.607  0.3957 -0.3972  0.0278
 6501WAT      O26723   5.936   6.922   4.545 -0.1495  0.0834  0.0143
 6501WAT     H126724   5.963   6.943   4.626  0.4743  2.0043 -0.6320
 6501WAT     H226725   5.850   6.938   4.547 -0.4513 -1.4784  0.7351
 6501WAT    EPW26726   5.928   6.927   4.557 -0.1019  0.1364  0.0253
 6502WAT      O26727   1.478   0.414   4.620  0.8131  0.6373  0.0277
 6502WAT     H126728   1.424   0.376   4.678 -2.0328  1.2005 -2.0451
 6502WAT     H226729   1.458   0.499   4.625  0.8081  0.7458 -1.4616
 6502WAT    EPW26730   1.467   0.421   4.629  0.3920  0.7365 -0.4985
 6503WAT      O26731   6.039   5.365   0.830  1.1276  0.2027 -0.2033
 6503WAT     H126732   6.059   5.290   0.791 -0.3536 -0.0515 -0.5196
 6503WAT     H226733   6.024   5.343   0.913 -0.2298 -0.0350 -0.4913
 6503WAT    EPW26734   6.040   5.351   0.836  0.7083  0.1301 -0.2926
 6504WAT      O26735   0.897   4.604   0.210 -0.8241  0.2119  0.1494
 6504WAT     H126736   0.897   4.596   0.124  0.2848 -3.1147  0.3210
 6504WAT     H226737   0.959   4.664   0.225 -0.2889  0.0686 -1.3266
 6504WAT    EPW26738   0.906   4.611   0.200 -0.5812 -0.3007 -0.0433
 6505WAT      O26739   3.107   7.356   6.571 -0.2658  0.0772 -0.5213
 6505WAT     H126740   3.020   7.356   6.562 -0.6592  1.8111  2.0427
 6505WAT     H226741   3.123   7.429   6.616  2.5018 -0.3562 -0.6323
 6505WAT    EPW26742   3.097   7.367   6.577  0.0849  0.2693 -0.1589
 6506WAT      O26743   1.212   6.298   7.365 -0.0625  0.2479 -0.6467
 6506WAT     H126744   1.298   6.300   7.355  0.1991  0.8855  1.3690
 6506WAT     H226745   1.198   6.339   7.441 -1.9598 -1.4012  0.0172
 6506WAT    EPW26746   1.223   6.304   7.375 -0.3041  0.0985 -0.2508
 6507WAT      O26747   3.761   6.686   1.343  0.0842 -0.1846  0.0600
 6507WAT     H126748   3.752   6.769   1.370  1.5175  0.1480 -0.4144
 6507WAT     H226749   3.797   6.646   1.411 -0.3808 -0.3672  0.2008
 6507WAT    EPW26750   3.765   6.692   1.357  0.2272 -0.1624  0.0107
 6508WAT      O26751   5.117   3.881   3.171  0.3398 -0.1562 -0.4356
 6508WAT     H126752   5.050   3.910   3.217 -0.1837 -1.7998 -0.0784
 6508WAT     H226753   5.181   3.874   3.230 -0.3505 -2.3290  0.1531
 6508WAT    EPW26754   5.117   3.884   3.186  0.1605 -0.7199 -0.2959
 6509WAT      O26755   5.309   6.364   3.359 -0.5629  0.1879  0.1254
 6509WAT     H126756   5.311   6.421   3.425 -1.1315  0.8136 -0.3723
 6509WAT     H226757   5.224   6.348   3.349 -0.5392  0.5997 -0.8589
 6509WAT    EPW26758   5.297   6.370   3.367 -0.6434  0.3412 -0.0935
 6510WAT      O26759   6.486   6.297   5.586  0.0697 -0.1402 -0.0760
 6510WAT     H126760   6.404   6.276   5.564  0.2256  0.3115 -1.1451
 6510WAT     H226761   6.507   6.239   5.648 -1.0530 -0.2628  0.2091
 6510WAT    EPW26762   6.477   6.286   5.592 -0.0731 -0.0916 -0.1919
 6511WAT      O26763   5.373   1.614   3.712 -0.0989  0.5740  0.1684
 6511WAT     H126764   5.443   1.597   3.760 -0.1978 -0.2208  0.0411
 6511WAT     H226765   5.390   1.575   3.636 -0.8287  0.0426  0.2600
 6511WAT    EPW26766   5.385   1.606   3.708 -0.2213  0.3781  0.1631
 6512WAT      O26767   6.022   6.413   7.461  0.2273 -0.5534 -0.1573
 6512WAT     H126768   6.002   6.479   7.408 -0.1610 -0.4390  0.1257
 6512WAT     H226769   6.020   6.343   7.409 -3.7985 -1.0299  0.3039
 6512WAT    EPW26770   6.019   6.412   7.446 -0.4248 -0.6069 -0.0473
 6513WAT      O26771   6.182   5.133   0.156  0.2552  0.0148  0.4932
 6513WAT     H126772   6.160   5.217   0.170  0.6607  0.3827 -0.8532
 6513WAT     H226773   6.248   5.139   0.099 -0.8099 -1.2393 -0.9653
 6513WAT    EPW26774   6.188   5.147   0.150  0.1577 -0.1161  0.0788
 6514WAT      O26775   3.778   2.019   6.694 -0.1239 -0.2862 -0.6123
 6514WAT     H126776   3.814   2.098   6.698  1.6467 -1.0730 -0.1915
 6514WAT     H226777   3.722   2.019   6.761 -0.6111  0.7969 -0.9908
 6514WAT    EPW26778   3.775   2.030   6.705  0.0657 -0.2424 -0.6061
 6515WAT      O26779   6.880   5.727   6.115  0.2299  0.4376 -0.0417
 6515WAT     H126780   6.945   5.673   6.135  1.0781  1.4123 -0.1015
 6515WAT     H226781   6.891   5.795   6.169 -0.6534  0.6877 -0.1481
 6515WAT    EPW26782   6.891   5.730   6.126  0.2248  0.6185 -0.0662
 6516WAT      O26783   4.875   1.244   7.609 -0.1608  0.1914  0.2320
 6516WAT     H126784   4.946   1.239   7.660  0.3394  3.2528  0.0227
 6516WAT     H226785   4.834   1.315   7.638 -0.2580  1.6501 -3.0485
 6516WAT    EPW26786   4.880   1.254   7.621 -0.1013  0.8592 -0.2835
 6517WAT      O26787   7.326   2.199   4.638  0.7434  0.4761 -0.4979
 6517WAT     H126788   7.300   2.248   4.705  2.4923 -0.8338  1.2585
 6517WAT     H226789   7.336   2.120   4.673 -0.9744 -0.9673 -2.9996
 6517WAT    EPW26790   7.324   2.195   4.653  0.7480  0.0694 -0.6080
 6518WAT      O26791   7.105   3.381   4.470 -0.3826 -0.1358  0.3066
 6518WAT     H126792   7.073   3.334   4.535 -1.9946 -1.0492 -1.0498
 6518WAT     H226793   7.167   3.430   4.507 -0.7805 -1.1049  2.3441
 6518WAT    EPW26794   7.110   3.382   4.485 -0.6795 -0.4139  0.4072
 6519WAT      O26795   7.549   0.579   4.298 -0.3746 -0.8600 -0.1177
 6519WAT     H126796   7.468   0.556   4.274 -0.3968  1.9039 -3.4413
 6519WAT     H226797   7.598   0.513   4.268 -1.1513 -1.3516 -0.3561
 6519WAT    EPW26798   7.544   0.566   4.290 -0.4926 -0.5243 -0.6439
 6520WAT      O26799   2.728   7.207   4.511  0.4337 -0.1218  0.0304
 6520WAT     H126800   2.756   7.127   4.492  0.0230 -0.5326  1.0540
 6520WAT     H226801   2.744   7.253   4.438 -0.6427 -1.4660 -1.1108
 6520WAT    EPW26802   2.734   7.202   4.497  0.2140 -0.3811  0.0130
 6521WAT      O26803   6.110   0.549   0.563 -0.6934  0.7162 -0.0997
 6521WAT     H126804   6.064   0.516   0.630 -0.6097  0.1661 -0.3074
 6521WAT     H226805   6.167   0.486   0.546 -0.7579  0.8296 -0.7348
 6521WAT    EPW26806   6.111   0.534   0.571 -0.6906  0.6517 -0.2242
 6522WAT      O26807   2.761   4.886   5.593  0.2728 -0.0526  0.6186
 6522WAT     H126808   2.759   4.799   5.599 -2.2164 -0.1130  0.1324
 6522WAT     H226809   2.764   4.900   5.507 -0.8047  0.2776  0.6174
 6522WAT    EPW26810   2.761   4.875   5.581 -0.2541 -0.0128  0.5466
 6523WAT      O26811   2.554   1.407   6.771 -0.2385  0.0188 -0.0052
 6523WAT     H126812   2.605   1.370   6.711  0.0665 -1.4470  1.0835
 6523WAT     H226813   2.592   1.485   6.785  0.6683 -0.3134 -0.5087
 6523WAT    EPW26814   2.567   1.413   6.764 -0.0595 -0.2468  0.0812
 6524WAT      O26815   2.735   2.014   6.734  0.1745  0.6305 -0.6175
 6524WAT     H126816   2.727   1.977   6.812 -0.6469  1.1844 -0.4353
 6524WAT     H226817   2.786   1.958   6.690 -1.4981 -1.0316 -0.5513
 6524WAT    EPW26818   2.742   2.000   6.739 -0.1939  0.4668 -0.5808
 6525WAT      O26819   2.651   1.269   6.542 -0.3216 -0.0016 -0.0688
 6525WAT     H126820   2.590   1.229   6.494 -0.7530  1.8789 -1.1989
 6525WAT     H226821   2.725   1.256   6.497 -0.2678 -0.3687  0.1175
 6525WAT    EPW26822   2.653   1.261   6.528 -0.3774  0.2219 -0.2082
 6526WAT      O26823   3.529   1.156   4.625 -0.3249  0.4367  0.2281
 6526WAT     H126824   3.444   1.136   4.630 -1.0970  1.5902 -3.9618
 6526WAT     H226825   3.569   1.081   4.645 -2.3105 -0.4349  1.3034
 6526WAT    EPW26826   3.522   1.142   4.629 -0.7322  0.4784 -0.2320
 6527WAT      O26827   0.242   0.519   6.021  0.0008 -0.5232 -0.0040
 6527WAT     H126828   0.172   0.491   6.064 -0.4858  1.1578  0.3894
 6527WAT     H226829   0.211   0.543   5.943  0.2947 -0.5469 -0.1310
 6527WAT    EPW26830   0.227   0.519   6.016 -0.0276 -0.2784  0.0354
 6528WAT      O26831   3.968   5.644   7.835 -0.7428 -0.2865  0.0893
 6528WAT     H126832   3.895   5.606   7.806 -0.3786 -0.5917 -0.4417
 6528WAT     H226833   3.983   5.604   7.911 -1.2393 -0.0709  0.3091
 6528WAT    EPW26834   3.959   5.633   7.842 -0.7623 -0.2997  0.0433
 6529WAT      O26835   2.302   0.955   6.439  0.3290 -0.4140 -0.0188
 6529WAT     H126836   2.342   1.017   6.485  0.1484 -1.1756  1.2267
 6529WAT     H226837   2.350   0.883   6.457 -0.7966 -1.0790  0.4612
 6529WAT    EPW26838   2.315   0.953   6.449  0.1360 -0.6248  0.2361
 6530WAT      O26839   0.621   4.201   4.350  0.2252  0.4537 -0.3961
 6530WAT     H126840   0.708   4.203   4.337  0.1966  1.2372 -0.4757
 6530WAT     H226841   0.613   4.221   4.434  0.0733  1.3103 -0.6092
 6530WAT    EPW26842   0.633   4.204   4.360  0.1985  0.6959 -0.4393
 6531WAT      O26843   3.524   6.648   4.413  0.2218 -0.3668 -0.0645
 6531WAT     H126844   3.474   6.590   4.371  0.4108 -0.3776 -0.2777
 6531WAT     H226845   3.469   6.684   4.471  0.2820 -1.2814  0.5823
 6531WAT    EPW26846   3.508   6.644   4.415  0.2586 -0.5035 -0.0005
 6532WAT      O26847   2.778   2.805   5.810 -0.2142 -0.5560  0.4119
 6532WAT     H126848   2.710   2.756   5.836  0.1739 -0.8297  0.9365
 6532WAT     H226849   2.745   2.852   5.744 -0.9388 -0.6225  0.7102
 6532WAT    EPW26850   2.763   2.804   5.804 -0.2639 -0.6063  0.5334
 6533WAT      O26851   2.732   2.378   5.257  0.3304  0.5399  0.0772
 6533WAT     H126852   2.793   2.319   5.279  0.9952  1.2909  0.3128
 6533WAT     H226853   2.658   2.342   5.286  0.8656  0.3539  1.3206
 6533WAT    EPW26854   2.730   2.364   5.265  0.5077  0.6234  0.2957
 6534WAT      O26855   5.550   1.763   4.716  0.1743 -0.1590  0.3569
 6534WAT     H126856   5.631   1.790   4.735  1.1087 -1.8169 -0.9469
 6534WAT     H226857   5.555   1.739   4.632 -2.2179  1.4582 -0.3340
 6534WAT    EPW26858   5.563   1.763   4.707 -0.0410 -0.1650  0.0623
 6535WAT      O26859   2.158   4.424   2.649  0.4193  0.1594  0.3287
 6535WAT     H126860   2.224   4.480   2.665 -0.8326  1.1034  2.7814
 6535WAT     H226861   2.118   4.418   2.726  0.0333 -3.6421  0.0066
 6535WAT    EPW26862   2.162   4.432   2.663  0.1774 -0.2627  0.6435
 6536WAT      O26863   4.602   0.400   3.809 -0.3029 -0.2714 -0.3540
 6536WAT     H126864   4.609   0.480   3.844 -0.5970 -0.4025  0.0130
 6536WAT     H226865   4.631   0.348   3.872  0.4455 -0.4180 -0.8066
 6536WAT    EPW26866   4.607   0.404   3.823 -0.2358 -0.3124 -0.3666
 6537WAT      O26867   0.102   0.193   4.618 -0.1561 -0.3231  0.1057
 6537WAT     H126868   0.098   0.253   4.681 -0.6009 -0.8981  0.6335
 6537WAT     H226869   0.038   0.215   4.564 -0.7023 -0.6614  0.6077
 6537WAT    EPW26870   0.092   0.205   4.619 -0.3025 -0.4580  0.2578
 6538WAT      O26871   0.841   2.412   4.496 -0.4414 -0.2720  0.6722
 6538WAT     H126872   0.885   2.401   4.570  0.4969 -0.2091  0.1392
 6538WAT     H226873   0.901   2.397   4.434 -1.0935  0.1306 -0.0728
 6538WAT    EPW26874   0.856   2.408   4.498 -0.3991 -0.2032  0.4834
 6539WAT      O26875   1.774   6.882   3.729  0.0368  0.3257 -0.0856
 6539WAT     H126876   1.820   6.900   3.658  0.0728 -3.2610 -1.1336
 6539WAT     H226877   1.817   6.816   3.766 -0.9239  0.9542  2.3488
 6539WAT    EPW26878   1.787   6.875   3.724 -0.0998 -0.1113  0.1192
 6540WAT      O26879   5.359   3.987   7.115  0.2245 -0.4566  0.1556
 6540WAT     H126880   5.298   4.007   7.055 -0.6329 -1.1396  0.7750
 6540WAT     H226881   5.363   4.059   7.164  0.1234 -0.3044 -0.0543
 6540WAT    EPW26882   5.350   4.001   7.113  0.0829 -0.5350  0.2161
 6541WAT      O26883   0.678   3.911   3.791  0.2538 -0.2662  0.1298
 6541WAT     H126884   0.670   3.959   3.864  1.1245 -2.3662  1.7126
 6541WAT     H226885   0.757   3.933   3.762  0.0939  0.2462  0.0721
 6541WAT    EPW26886   0.689   3.921   3.798  0.3588 -0.5007  0.3551
 6542WAT      O26887   6.138   7.689   4.855 -0.0927 -0.3521  0.2349
 6542WAT     H126888   6.107   7.608   4.869  1.2307 -0.9790 -0.2471
 6542WAT     H226889   6.147   7.693   4.768 -0.2327  0.3533  0.2485
 6542WAT    EPW26890   6.135   7.678   4.844  0.0821 -0.3405  0.1657
 6543WAT      O26891   5.611   4.591   7.801 -0.0891  0.2822  0.2467
 6543WAT     H126892   5.567   4.666   7.796 -1.8309 -0.7770 -1.3704
 6543WAT     H226893   5.569   4.538   7.746  0.0292 -2.4195  2.4911
 6543WAT    EPW26894   5.598   4.594   7.792 -0.3289 -0.2734  0.3394
 6544WAT      O26895   2.066   7.010   4.633 -0.3820 -0.0623  0.2192
 6544WAT     H126896   1.982   7.010   4.609 -0.0910  0.0470 -0.8784
 6544WAT     H226897   2.063   6.998   4.719 -1.6835  3.2455  0.7947
 6544WAT    EPW26898   2.053   7.008   4.642 -0.5313  0.4425  0.1421
 6545WAT      O26899   3.785   3.403   7.433 -0.2703  0.0301 -0.4534
 6545WAT     H126900   3.843   3.405   7.498 -0.4556 -1.0094 -0.2420
 6545WAT     H226901   3.827   3.442   7.367  1.3352 -2.1178 -0.8151
 6545WAT    EPW26902   3.799   3.409   7.433 -0.0605 -0.4408 -0.4756
 6546WAT      O26903   3.284   5.651   6.906  0.4306  0.6556  0.2722
 6546WAT     H126904   3.255   5.643   6.824 -0.1317 -0.0613  0.5266
 6546WAT     H226905   3.321   5.573   6.922  0.2356  0.6711  0.8087
 6546WAT    EPW26906   3.285   5.638   6.896  0.3187  0.5520  0.3891
 6547WAT      O26907   4.609   5.525   4.320  0.1233  0.0409  0.1055
 6547WAT     H126908   4.669   5.555   4.264 -0.0880  1.0475  0.3811
 6547WAT     H226909   4.592   5.444   4.293  0.5285  0.2745 -0.8632
 6547WAT    EPW26910   4.615   5.518   4.308  0.1519  0.2241  0.0031
 6548WAT      O26911   5.131   1.261   7.711  0.1196 -0.1958  0.1988
 6548WAT     H126912   5.109   1.344   7.730 -1.2012 -0.2881 -0.7940
 6548WAT     H226913   5.167   1.267   7.632 -1.6940 -0.7468 -0.7337
 6548WAT    EPW26914   5.133   1.274   7.702 -0.3434 -0.2908 -0.0856
 6549WAT      O26915   2.632   0.584   2.987 -0.5261  0.1733  0.1058
 6549WAT     H126916   2.692   0.610   2.930 -0.4146  0.7652  0.4851
 6549WAT     H226917   2.675   0.525   3.036 -0.8031 -0.8058 -0.8044
 6549WAT    EPW26918   2.647   0.579   2.986 -0.5505  0.1161  0.0273
 6550WAT      O26919   7.170   4.370   5.918 -0.4317 -0.0770  0.1885
 6550WAT     H126920   7.243   4.323   5.907 -0.0352  0.6620 -0.4880
 6550WAT     H226921   7.174   4.396   6.001  0.6459  0.8478 -0.1283
 6550WAT    EPW26922   7.181   4.367   5.928 -0.2139  0.1688  0.0418
 6551WAT      O26923   3.618   5.592   3.497  0.3888 -0.1731  0.0760
 6551WAT     H126924   3.686   5.558   3.538  0.6907  1.8509  1.4290
 6551WAT     H226925   3.582   5.644   3.557 -2.0020 -0.6866 -0.7913
 6551WAT    EPW26926   3.622   5.595   3.512  0.0802  0.0500  0.1478
 6552WAT      O26927   2.510   7.296   3.615 -0.1011  0.2908 -0.2253
 6552WAT     H126928   2.556   7.238   3.661  0.7428  0.0561 -1.3252
 6552WAT     H226929   2.495   7.361   3.672 -1.2165 -1.0445  1.0876
 6552WAT    EPW26930   2.514   7.297   3.630 -0.1412  0.0589 -0.1939
 6553WAT      O26931   7.245   3.300   3.970 -0.0120  0.4667  0.2364
 6553WAT     H126932   7.265   3.285   4.054 -0.3415 -0.1491  0.2118
 6553WAT     H226933   7.270   3.382   3.957 -1.0340  0.9588  1.2726
 6553WAT    EPW26934   7.252   3.310   3.980 -0.2116  0.4484  0.3858
 6554WAT      O26935   2.588   3.858   4.882 -0.7902  0.5550  0.3570
 6554WAT     H126936   2.651   3.911   4.911  0.3038 -0.4206 -0.1916
 6554WAT     H226937   2.556   3.901   4.813  1.2711 -0.2098 -1.1775
 6554WAT    EPW26938   2.593   3.872   4.876 -0.3241  0.2979  0.0493
 6555WAT      O26939   2.696   6.610   2.536  0.1761  0.1599 -0.0835
 6555WAT     H126940   2.683   6.636   2.454  1.0964  0.6023 -0.1044
 6555WAT     H226941   2.728   6.681   2.576  0.8269 -0.3649  0.3604
 6555WAT    EPW26942   2.699   6.624   2.530  0.4082  0.1477 -0.0210
 6556WAT      O26943   2.833   4.867   5.293 -0.2044 -0.7489 -0.3352
 6556WAT     H126944   2.886   4.798   5.283 -0.1654 -0.5968 -1.3057
 6556WAT     H226945   2.793   4.874   5.215 -1.7205 -0.9025  0.3992
 6556WAT    EPW26946   2.835   4.858   5.280 -0.4226 -0.7491 -0.3701
 6557WAT      O26947   5.887   5.912   1.284  0.0173 -0.4928  0.0574
 6557WAT     H126948   5.871   5.997   1.281  2.5043  0.0275 -1.5357
 6557WAT     H226949   5.959   5.905   1.333  0.2210 -1.5890 -0.3495
 6557WAT    EPW26950   5.896   5.923   1.291  0.4148 -0.5779 -0.2380
 6558WAT      O26951   0.699   6.423   5.724 -0.7578 -0.0111 -0.1249
 6558WAT     H126952   0.698   6.466   5.648  2.2235 -0.0309 -0.3118
 6558WAT     H226953   0.692   6.339   5.700 -0.6712  0.0358 -0.3216
 6558WAT    EPW26954   0.698   6.417   5.709 -0.3046 -0.0071 -0.1816
 6559WAT      O26955   0.590   6.554   3.744 -0.5136  0.1976 -0.2523
 6559WAT     H126956   0.591   6.468   3.755  0.2029  0.0308 -1.5214
 6559WAT     H226957   0.652   6.582   3.798 -2.2230  0.1892  1.8674
 6559WAT    EPW26958   0.599   6.546   3.754 -0.6603  0.1717 -0.1267
 6560WAT      O26959   2.729   5.509   0.825 -0.7077  0.1793 -0.1209
 6560WAT     H126960   2.745   5.581   0.871 -0.7767 -1.3402  2.5673
 6560WAT     H226961   2.802   5.496   0.779  0.2135  0.7976  1.1074
 6560WAT    EPW26962   2.742   5.517   0.825 -0.5818  0.0462  0.4577
 6561WAT      O26963   3.820   7.348   6.157  0.8356  0.0164  0.4567
 6561WAT     H126964   3.818   7.374   6.074 -3.0264 -0.5537  0.1661
 6561WAT     H226965   3.768   7.404   6.198 -0.0598 -1.6415  1.7421
 6561WAT    EPW26966   3.812   7.360   6.151  0.1328 -0.3127  0.6037
 6562WAT      O26967   4.860   2.664   1.392 -0.3204 -0.5800  0.4773
 6562WAT     H126968   4.824   2.604   1.341 -0.5589 -0.1757  0.1565
 6562WAT     H226969   4.945   2.661   1.370 -0.2208 -1.2484  0.9379
 6562WAT    EPW26970   4.867   2.655   1.381 -0.3409 -0.6190  0.4979
 6563WAT      O26971   2.427   6.390   6.571  0.2908 -0.0623  0.0752
 6563WAT     H126972   2.427   6.474   6.549 -0.5343 -0.2582 -0.7272
 6563WAT     H226973   2.349   6.361   6.545  1.3269 -1.5655 -1.6090
 6563WAT    EPW26974   2.416   6.398   6.564  0.3220 -0.3133 -0.2921
 6564WAT      O26975   2.720   1.799   0.827  0.5031  0.6204  0.2986
 6564WAT     H126976   2.748   1.763   0.902 -2.6717  0.8174  1.7316
 6564WAT     H226977   2.652   1.848   0.852 -0.5160  0.9084 -2.6982
 6564WAT    EPW26978   2.714   1.801   0.842 -0.1164  0.6921  0.0676
 6565WAT      O26979   7.255   2.636   4.747  0.2449  0.7195  0.2390
 6565WAT     H126980   7.188   2.635   4.691 -0.4155  0.9017  1.0245
 6565WAT     H226981   7.321   2.668   4.699 -0.6268  2.0740 -0.0921
 6565WAT    EPW26982   7.255   2.641   4.731  0.0186  0.9465  0.3061
 6566WAT      O26983   4.512   7.479   4.683 -0.2594  0.0738 -0.5637
 6566WAT     H126984   4.550   7.420   4.631  1.1544  0.1635  0.2817
 6566WAT     H226985   4.457   7.431   4.731 -0.8689 -0.1552 -1.4667
 6566WAT    EPW26986   4.510   7.463   4.683 -0.1406  0.0532 -0.5722
 6567WAT      O26987   1.214   1.435   5.555  0.2705 -0.1940 -0.0289
 6567WAT     H126988   1.245   1.403   5.631 -0.1658 -0.6470 -0.0356
 6567WAT     H226989   1.137   1.396   5.547 -0.6023  1.3741  0.2860
 6567WAT    EPW26990   1.207   1.424   5.565  0.0771 -0.0293  0.0166
 6568WAT      O26991   0.084   4.668   6.602  0.2541 -0.3519 -0.0432
 6568WAT     H126992   0.081   4.743   6.646  0.1159 -0.4084  0.0441
 6568WAT     H226993   0.164   4.637   6.620  0.2673 -0.2852  0.0151
 6568WAT    EPW26994   0.096   4.675   6.611  0.2356 -0.3504 -0.0217
 6569WAT      O26995   2.330   5.938   7.854  0.1778 -0.3826 -0.7243
 6569WAT     H126996   2.417   5.943   7.863  0.2175 -0.3846 -1.0717
 6569WAT     H226997   2.320   5.923   7.768 -0.1852  0.2067 -0.7850
 6569WAT    EPW26998   2.342   5.936   7.843  0.1300 -0.2959 -0.7846
 6570WAT      O26999   3.678   1.065   4.909 -0.2992  0.0207 -0.3622
 6570WAT     H127000   3.642   1.128   4.958 -1.9503 -1.2940  0.2109
 6570WAT     H227001   3.680   0.996   4.962  0.5984 -0.6684 -1.2579
 6570WAT    EPW27002   3.673   1.064   4.924 -0.4105 -0.2753 -0.4099
 6571WAT      O27003   3.097   1.427   7.412  0.3337  0.4599  0.5528
 6571WAT     H127004   3.020   1.393   7.388  0.2830  0.2845  0.9536
 6571WAT     H227005   3.123   1.470   7.341  0.1497  0.0151  0.2110
 6571WAT    EPW27006   3.089   1.428   7.398  0.2990  0.3683  0.5615
 6572WAT      O27007   2.994   3.511   0.153  0.1525 -0.1370 -0.3167
 6572WAT     H127008   3.015   3.426   0.153 -1.7971 -0.6497 -0.8637
 6572WAT     H227009   2.907   3.511   0.149  0.1551  1.8981 -1.5956
 6572WAT    EPW27010   2.985   3.498   0.152 -0.1351  0.0879 -0.5864
 6573WAT      O27011   1.908   5.679   6.122  0.5006 -0.0710 -0.4958
 6573WAT     H127012   1.868   5.704   6.196  1.2179  1.7695 -0.6751
 6573WAT     H227013   1.863   5.609   6.097 -2.0244  1.3435 -0.2097
 6573WAT    EPW27014   1.896   5.672   6.129  0.2335  0.4098 -0.4800
 6574WAT      O27015   4.688   6.498   3.873 -0.4362 -0.3720  0.1078
 6574WAT     H127016   4.774   6.482   3.875 -0.3677  0.0479  1.2684
 6574WAT     H227017   4.670   6.499   3.788  1.3852  2.8370 -0.4304
 6574WAT    EPW27018   4.698   6.496   3.861 -0.1570  0.1640  0.1997
 6575WAT      O27019   2.259   1.976   3.520  0.2841  0.0312  0.4131
 6575WAT     H127020   2.263   2.036   3.457 -0.9090 -0.7598 -0.4693
 6575WAT     H227021   2.340   1.973   3.552  1.4011 -0.7868 -2.2844
 6575WAT    EPW27022   2.272   1.984   3.516  0.2729 -0.2065 -0.1157
 6576WAT      O27023   6.767   6.825   0.408 -0.4214 -0.5665  0.2287
 6576WAT     H127024   6.741   6.896   0.364 -0.5568 -1.5786 -1.3984
 6576WAT     H227025   6.778   6.765   0.346  0.4465 -1.7680  1.4825
 6576WAT    EPW27026   6.765   6.827   0.393 -0.3132 -0.8935  0.1735
 6577WAT      O27027   1.768   7.558   0.288 -0.0500  0.6207 -0.5666
 6577WAT     H127028   1.745   7.610   0.221  1.0537  2.2545  0.2662
 6577WAT     H227029   1.855   7.555   0.283  0.2158  2.0368  1.5949
 6577WAT    EPW27030   1.777   7.566   0.277  0.1523  1.0713 -0.1243
 6578WAT      O27031   2.533   0.937   6.071  0.0357  0.3355 -0.1494
 6578WAT     H127032   2.575   0.880   6.018 -0.4027 -0.6261  0.5078
 6578WAT     H227033   2.465   0.963   6.023 -0.9113 -1.2741  0.2402
 6578WAT    EPW27034   2.529   0.932   6.056 -0.1689 -0.0443  0.0052
 6579WAT      O27035   3.701   7.684   4.457 -0.2248  0.1307  0.2222
 6579WAT     H127036   3.689   7.617   4.511 -2.6726  0.0111 -0.3381
 6579WAT     H227037   3.731   7.747   4.508 -1.3395 -0.3369  1.5119
 6579WAT    EPW27038   3.704   7.683   4.472 -0.7511  0.0440  0.3299
 6580WAT      O27039   3.082   7.102   6.133  0.3713 -0.0093  0.1342
 6580WAT     H127040   3.070   7.020   6.162  0.2697 -0.0581 -0.0422
 6580WAT     H227041   3.131   7.091   6.062  0.4629  0.0933  0.1831
 6580WAT    EPW27042   3.087   7.088   6.127  0.3698 -0.0013  0.1154
 6581WAT      O27043   7.573   0.799   4.676  0.0460 -0.6564  0.1164
 6581WAT     H127044   7.542   0.810   4.757  1.6637 -0.3784  0.7399
 6581WAT     H227045   7.612   0.875   4.659 -0.4951 -0.6163 -1.0547
 6581WAT    EPW27046   7.574   0.812   4.685  0.2050 -0.6094  0.0355
 6582WAT      O27047   2.318   6.010   7.356  0.5947 -0.2078  0.3828
 6582WAT     H127048   2.297   5.966   7.428 -1.5291  1.0763  0.6495
 6582WAT     H227049   2.270   5.971   7.294 -0.6627  1.1048  0.4706
 6582WAT    EPW27050   2.308   5.998   7.358  0.0952  0.1758  0.4351
 6583WAT      O27051   0.977   5.489   6.117 -0.6303  0.0646 -0.3151
 6583WAT     H127052   1.046   5.443   6.145 -0.1885 -1.2638 -3.1547
 6583WAT     H227053   0.974   5.557   6.171  0.9287 -1.4796  1.8651
 6583WAT    EPW27054   0.987   5.492   6.129 -0.3347 -0.3597 -0.4125
 6584WAT      O27055   2.483   1.305   3.486  0.2513  0.6049  0.2531
 6584WAT     H127056   2.514   1.278   3.563 -0.5808 -0.3484  0.2818
 6584WAT     H227057   2.461   1.388   3.500 -0.3140  0.3211  1.1959
 6584WAT    EPW27058   2.484   1.313   3.500  0.0449  0.4222  0.3966
 6585WAT      O27059   4.638   6.510   5.392  0.3837  0.4283 -0.2506
 6585WAT     H127060   4.623   6.425   5.379 -1.6983  0.3755  1.8142
 6585WAT     H227061   4.690   6.511   5.463 -3.2652  0.7459  2.7127
 6585WAT    EPW27062   4.644   6.497   5.401 -0.4629  0.4674  0.4922
 6586WAT      O27063   4.852   5.370   3.970  0.0023 -0.0288  0.7216
 6586WAT     H127064   4.773   5.364   3.934 -1.7861 -1.1149  4.3642
 6586WAT     H227065   4.867   5.456   3.973 -1.3920  0.2329  0.6689
 6586WAT    EPW27066   4.843   5.382   3.965 -0.4678 -0.1506  1.2519
 6587WAT      O27067   2.683   3.895   3.580  1.0265  0.4701  0.0389
 6587WAT     H127068   2.729   3.894   3.654 -0.2107  2.1885  0.9280
 6587WAT     H227069   2.743   3.906   3.518  1.9121  1.5619  1.0486
 6587WAT    EPW27070   2.699   3.897   3.582  0.9746  0.8852  0.3194
 6588WAT      O27071   5.556   3.012   4.221 -0.0640 -0.6598 -0.0131
 6588WAT     H127072   5.566   3.097   4.205  0.0665 -0.2293  2.0286
 6588WAT     H227073   5.474   2.996   4.194 -0.5912  0.4809  0.7875
 6588WAT    EPW27074   5.545   3.022   4.215 -0.1226 -0.4277  0.4068
 6589WAT      O27075   5.311   0.897   7.270 -0.0309  0.4283  0.2363
 6589WAT     H127076   5.295   0.850   7.342 -0.0299  0.0078 -0.0330
 6589WAT     H227077   5.391   0.872   7.247 -0.0205  0.5831  0.1078
 6589WAT    EPW27078   5.321   0.886   7.277 -0.0292  0.3890  0.1775
 6590WAT      O27079   1.298   1.485   4.624  0.4149  0.6857 -0.0203
 6590WAT     H127080   1.365   1.498   4.570  1.9744  0.2547  1.7007
 6590WAT     H227081   1.313   1.541   4.690 -0.3778 -0.0780  0.8464
 6590WAT    EPW27082   1.310   1.495   4.626  0.5281  0.5092  0.3620
 6591WAT      O27083   0.801   6.936   7.403 -0.3062 -0.3528 -0.2570
 6591WAT     H127084   0.886   6.936   7.422 -0.0763  1.0162 -1.1507
 6591WAT     H227085   0.768   6.994   7.459 -0.3322  0.4945 -1.1340
 6591WAT    EPW27086   0.808   6.944   7.414 -0.2761 -0.0254 -0.5186
 6592WAT      O27087   5.238   5.889   4.430 -0.9311 -0.4755 -0.4967
 6592WAT     H127088   5.250   5.917   4.512  1.3961 -0.5944 -0.7336
 6592WAT     H227089   5.213   5.961   4.388 -0.9389 -0.1311  0.0795
 6592WAT    EPW27090   5.236   5.904   4.436 -0.5884 -0.4422 -0.4466
 6593WAT      O27091   0.991   7.155   6.127  0.1543 -0.2574 -0.0792
 6593WAT     H127092   1.015   7.200   6.198  0.7346 -0.9699  0.1943
 6593WAT     H227093   1.057   7.168   6.072  1.8432 -3.0719  1.0499
 6593WAT    EPW27094   1.005   7.164   6.130  0.4895 -0.7784  0.1280
 6594WAT      O27095   7.677   6.865   6.557 -0.2857  0.4038 -0.0175
 6594WAT     H127096   7.660   6.820   6.485 -0.7800  3.4358 -1.9922
 6594WAT     H227097   7.628   6.827   6.618  0.6248 -2.6540 -1.0320
 6594WAT    EPW27098   7.668   6.853   6.555 -0.2242  0.4000 -0.4591
 6595WAT      O27099   7.000   7.260   6.814 -0.8868 -0.5244 -0.1971
 6595WAT     H127100   6.983   7.195   6.757 -0.5654 -3.2086  2.5083
 6595WAT     H227101   6.921   7.286   6.839 -1.0218  0.3449 -1.4382
 6595WAT    EPW27102   6.986   7.254   6.809 -0.8593 -0.7925  0.0192
 6596WAT      O27103   1.460   5.678   5.733 -0.2010 -0.2222 -0.3513
 6596WAT     H127104   1.407   5.670   5.802  0.0675  1.1483  0.0434
 6596WAT     H227105   1.424   5.742   5.687 -1.5198 -2.4080 -2.6146
 6596WAT    EPW27106   1.447   5.686   5.737 -0.3562 -0.3426 -0.6273
 6597WAT      O27107   4.018   6.246   0.921 -0.1669  0.1619 -0.1342
 6597WAT     H127108   4.007   6.172   0.877  2.0248 -0.1694 -0.2688
 6597WAT     H227109   4.031   6.219   1.003 -0.7129  0.4991  0.0643
 6597WAT    EPW27110   4.019   6.232   0.927  0.0762  0.1628 -0.1248
 6598WAT      O27111   5.727   0.003   1.986 -0.5023 -0.1637 -0.0700
 6598WAT     H127112   5.641  -0.006   1.978 -0.6164 -0.7213  1.4792
 6598WAT     H227113   5.736   0.053   2.057  0.4470  0.5873 -0.6884
 6598WAT    EPW27114   5.715   0.009   1.996 -0.3789 -0.1351  0.0675
 6599WAT      O27115   2.524   5.013   6.281  0.5465 -0.6152 -0.3306
 6599WAT     H127116   2.588   4.956   6.296 -0.5232 -1.5890  0.7912
 6599WAT     H227117   2.479   5.013   6.355 -0.5853  0.2675 -0.9804
 6599WAT    EPW27118   2.527   5.005   6.294  0.2213 -0.6287 -0.2608
 6600WAT      O27119   5.871   6.291   7.068 -0.4418 -0.8453 -0.0390
 6600WAT     H127120   5.820   6.360   7.079  0.5852  0.3733 -2.2384
 6600WAT     H227121   5.838   6.252   6.997  0.7980 -0.8388 -0.6475
 6600WAT    EPW27122   5.858   6.295   7.059 -0.1069 -0.6643 -0.4538
 6601WAT      O27123   5.625   7.165   2.897  0.1924  0.1058 -0.1410
 6601WAT     H127124   5.678   7.234   2.898  0.1159  0.1962 -1.2000
 6601WAT     H227125   5.679   7.097   2.909  0.3515  0.2927  0.2211
 6601WAT    EPW27126   5.641   7.165   2.899  0.2046  0.1468 -0.2439
 6602WAT      O27127   1.057   4.873   3.451  0.2580  0.2417  0.1077
 6602WAT     H127128   1.065   4.815   3.386  0.7472 -0.8102  1.0856
 6602WAT     H227129   1.136   4.909   3.457  1.0494 -1.6428  1.9035
 6602WAT    EPW27130   1.070   4.870   3.442  0.4471 -0.1921  0.5174
 6603WAT      O27131   2.508   1.159   6.876 -0.0542 -0.7324  0.3907
 6603WAT     H127132   2.437   1.187   6.919 -0.6067 -0.1688 -0.8351
 6603WAT     H227133   2.532   1.229   6.829 -0.5676 -1.8260 -1.5923
 6603WAT    EPW27134   2.501   1.174   6.876 -0.2116 -0.8107 -0.0833
 6604WAT      O27135   2.301   0.700   2.423 -0.6554 -0.3548 -0.2333
 6604WAT     H127136   2.246   0.704   2.355 -1.2591 -1.7279  0.1414
 6604WAT     H227137   2.277   0.626   2.464 -0.5506  0.6320  1.6917
 6604WAT    EPW27138   2.289   0.689   2.419 -0.7291 -0.4119  0.1064
 6605WAT      O27139   5.594   0.628   1.525  0.4756 -0.3186  0.3175
 6605WAT     H127140   5.626   0.581   1.458 -3.4483  0.0993 -2.1982
 6605WAT     H227141   5.628   0.707   1.512  0.5458 -0.4839 -0.6027
 6605WAT    EPW27142   5.604   0.632   1.513 -0.0937 -0.2813 -0.1901
 6606WAT      O27143   3.177   6.481   5.026 -0.5690  0.4701 -0.2252
 6606WAT     H127144   3.127   6.505   5.094 -0.8040  0.1914 -0.2961
 6606WAT     H227145   3.252   6.456   5.063 -0.6064  0.5614 -0.0884
 6606WAT    EPW27146   3.180   6.481   5.041 -0.6093  0.4424 -0.2155
 6607WAT      O27147   1.516   7.006   1.588  0.2761  0.1848  0.1894
 6607WAT     H127148   1.548   6.926   1.604  2.8686  1.2600  0.7566
 6607WAT     H227149   1.537   7.020   1.505  0.2952  0.4871  0.2468
 6607WAT    EPW27150   1.524   6.996   1.578  0.6619  0.3883  0.2817
 6608WAT      O27151   2.216   1.821   1.552  0.0407  0.2505  0.7214
 6608WAT     H127152   2.213   1.807   1.466 -2.0591 -1.2795  0.9654
 6608WAT     H227153   2.301   1.836   1.567  0.5856 -0.1550 -1.4882
 6608WAT    EPW27154   2.228   1.821   1.541 -0.1890 -0.0354  0.4311
 6609WAT      O27155   5.256   0.353   3.771  0.3353  0.4529 -0.2953
 6609WAT     H127156   5.228   0.398   3.701  1.4387 -0.9943 -1.7551
 6609WAT     H227157   5.302   0.411   3.816  1.1449  0.9996 -1.7578
 6609WAT    EPW27158   5.259   0.368   3.767  0.6179  0.3199 -0.7270
 6610WAT      O27159   4.681   3.874   1.480 -0.1706 -0.0722  0.2192
 6610WAT     H127160   4.663   3.797   1.517  0.5990 -0.4021 -0.0910
 6610WAT     H227161   4.728   3.854   1.410  0.6827  0.7243  0.5417
 6610WAT    EPW27162   4.685   3.860   1.475  0.0691 -0.0033  0.2210
 6611WAT      O27163   4.760   6.565   2.942 -0.0529  0.1962  0.3418
 6611WAT     H127164   4.829   6.527   2.905 -0.6336  0.4089 -1.0353
 6611WAT     H227165   4.729   6.617   2.879 -1.5725 -0.0273  0.8535
 6611WAT    EPW27166   4.766   6.567   2.927 -0.3632  0.1946  0.2140
 6612WAT      O27167   2.244   0.073   4.526 -0.4713  0.3450  0.5194
 6612WAT     H127168   2.281   0.017   4.470 -0.4528  0.2074  0.6692
 6612WAT     H227169   2.286   0.148   4.511 -1.4491  0.7007 -0.6949
 6612WAT    EPW27170   2.256   0.076   4.515 -0.6130  0.3772  0.3622
 6613WAT      O27171   3.385   5.518   6.059 -0.0512 -0.2555 -0.6415
 6613WAT     H127172   3.374   5.593   6.101  1.6890 -0.0789 -0.4087
 6613WAT     H227173   3.472   5.505   6.063  0.0527 -0.8590 -3.0765
 6613WAT    EPW27174   3.397   5.527   6.065  0.2212 -0.3186 -0.9668
 6614WAT      O27175   3.522   0.567   1.107 -0.1465  0.3850 -0.3412
 6614WAT     H127176   3.600   0.537   1.083  0.6457  2.7060 -0.9575
 6614WAT     H227177   3.484   0.498   1.144  2.9220 -0.4342  1.7449
 6614WAT    EPW27178   3.528   0.553   1.109  0.4238  0.6069 -0.1241
 6615WAT      O27179   2.815   1.652   4.277  0.4906 -0.0454  0.3429
 6615WAT     H127180   2.767   1.724   4.292 -0.2804 -0.4409 -0.1725
 6615WAT     H227181   2.897   1.681   4.284  0.1919  0.8495  0.3055
 6615WAT    EPW27182   2.820   1.667   4.281  0.3326  0.0284  0.2613
 6616WAT      O27183   0.909   5.369   4.989  0.4378 -0.4218 -0.1063
 6616WAT     H127184   0.977   5.420   4.969  0.2950 -0.9250 -2.1030
 6616WAT     H227185   0.840   5.423   4.982  0.4784 -0.3670 -0.0767
 6616WAT    EPW27186   0.909   5.385   4.985  0.4227 -0.4880 -0.3969
 6617WAT      O27187   0.702   1.658   6.661 -0.1190  0.3967  0.2961
 6617WAT     H127188   0.719   1.723   6.716 -0.6749  0.5313  0.3083
 6617WAT     H227189   0.675   1.698   6.589  0.8350  0.2301 -0.1728
 6617WAT    EPW27190   0.701   1.673   6.659 -0.0602  0.3920  0.2286
 6618WAT      O27191   2.058   6.789   3.460 -0.4642 -0.4831 -0.0545
 6618WAT     H127192   1.999   6.760   3.402 -0.2316 -0.6824 -0.1901
 6618WAT     H227193   2.130   6.744   3.440 -0.0067  0.4082 -0.4872
 6618WAT    EPW27194   2.060   6.778   3.448 -0.3623 -0.3809 -0.1385
 6619WAT      O27195   1.060   7.278   2.595  0.0675  0.0617 -0.4487
 6619WAT     H127196   1.139   7.261   2.562 -0.1107  1.5776 -1.7633
 6619WAT     H227197   1.061   7.364   2.608 -0.8090 -0.1242  1.1235
 6619WAT    EPW27198   1.072   7.288   2.592 -0.0883  0.2582 -0.4106
 6620WAT      O27199   1.216   6.991   3.550 -0.4653 -0.2142  0.2029
 6620WAT     H127200   1.173   6.990   3.626  1.8326  0.1569  1.6114
 6620WAT     H227201   1.284   6.938   3.564 -0.3119 -0.6580 -1.8565
 6620WAT    EPW27202   1.220   6.983   3.563 -0.1032 -0.2249  0.1068
 6621WAT      O27203   3.202   6.485   6.534 -0.3613 -0.0534  0.1001
 6621WAT     H127204   3.257   6.446   6.589 -0.6328  0.1330  0.5114
 6621WAT     H227205   3.163   6.418   6.493 -0.6454 -0.2232  0.6240
 6621WAT    EPW27206   3.204   6.469   6.536 -0.4434 -0.0510  0.2382
 6622WAT      O27207   7.313   5.797   7.347  0.6606 -0.0434 -0.0299
 6622WAT     H127208   7.348   5.721   7.370  0.9061 -0.0584 -0.4473
 6622WAT     H227209   7.328   5.802   7.261  0.4215  0.3575 -0.0526
 6622WAT    EPW27210   7.321   5.786   7.338  0.6615  0.0136 -0.0949
 6623WAT      O27211   2.758   1.620   3.884 -0.5031  0.2798  0.0205
 6623WAT     H127212   2.795   1.699   3.884 -0.5593  0.3568  2.0491
 6623WAT     H227213   2.677   1.636   3.913 -0.8005 -0.4072 -0.4313
 6623WAT    EPW27214   2.752   1.634   3.888 -0.5554  0.1897  0.2534
 6624WAT      O27215   5.695   6.276   2.463  0.4260  0.7771  0.4354
 6624WAT     H127216   5.714   6.212   2.520 -0.3341  1.5349  1.5658
 6624WAT     H227217   5.698   6.348   2.511 -0.6550  1.4029 -0.3968
 6624WAT    EPW27218   5.698   6.277   2.478  0.1540  0.9815  0.4794
 6625WAT      O27219   4.237   4.986   7.297 -0.2759  0.1585  0.3078
 6625WAT     H127220   4.289   5.004   7.230  1.6763 -0.7081  1.5159
 6625WAT     H227221   4.208   4.906   7.279 -2.3097  1.1072 -0.9825
 6625WAT    EPW27222   4.240   4.977   7.284 -0.2880  0.1706  0.2957
 6626WAT      O27223   4.057   5.017   2.575 -0.2663  0.1983 -0.3553
 6626WAT     H127224   4.046   5.035   2.660 -0.8932  0.8496 -0.5650
 6626WAT     H227225   4.006   4.947   2.562 -0.1576  0.0879 -0.1923
 6626WAT    EPW27226   4.048   5.009   2.586 -0.3428  0.2782 -0.3622
 6627WAT      O27227   4.519   1.127   4.482 -0.0033  0.7866 -0.1725
 6627WAT     H127228   4.529   1.104   4.565  1.3146  0.3509 -0.4249
 6627WAT     H227229   4.443   1.170   4.481 -0.8725 -0.6204  0.9418
 6627WAT    EPW27230   4.509   1.130   4.494  0.0629  0.5144 -0.0452
 6628WAT      O27231   5.678   6.254   7.457  0.5126 -0.3483  0.0640
 6628WAT     H127232   5.684   6.336   7.429  0.2505  0.0227  1.0396
 6628WAT     H227233   5.677   6.207   7.384 -1.2013  0.6331 -0.5870
 6628WAT    EPW27234   5.679   6.259   7.442  0.2207 -0.1485  0.1119
 6629WAT      O27235   0.040   2.333   6.012 -0.6120 -0.8039  0.1333
 6629WAT     H127236   0.125   2.318   6.026 -0.8640 -1.3418  1.1534
 6629WAT     H227237   0.009   2.254   5.992 -0.9430 -0.6738  0.1317
 6629WAT    EPW27238   0.048   2.319   6.011 -0.6981 -0.8642  0.2838
 6630WAT      O27239   5.731   7.164   5.434  0.1702  0.6077 -0.0959
 6630WAT     H127240   5.741   7.092   5.483 -1.1165  1.1460  1.0006
 6630WAT     H227241   5.691   7.134   5.362  2.3873 -0.2469 -1.0518
 6630WAT    EPW27242   5.727   7.149   5.431  0.3076  0.5610 -0.0751
 6631WAT      O27243   3.868   1.526   4.747  0.2141 -0.0389  0.1665
 6631WAT     H127244   3.915   1.585   4.790  0.6301  0.3064 -0.7347
 6631WAT     H227245   3.809   1.499   4.806  0.5605  0.6521  0.8382
 6631WAT    EPW27246   3.866   1.530   4.762  0.3267  0.1142  0.1326
 6632WAT      O27247   0.311   7.406   4.398  0.3671  0.2355 -0.6015
 6632WAT     H127248   0.267   7.477   4.424  0.1890 -0.0246 -0.1726
 6632WAT     H227249   0.290   7.398   4.314 -2.6857 -1.4663  0.1610
 6632WAT    EPW27250   0.301   7.416   4.389 -0.1102 -0.0543 -0.4255
 6633WAT      O27251   2.592   7.642   4.571  0.0329  0.6075  0.5499
 6633WAT     H127252   2.634   7.717   4.555  0.5401 -0.3205 -3.4135
 6633WAT     H227253   2.523   7.645   4.518 -0.8769 -1.0602  1.5659
 6633WAT    EPW27254   2.588   7.654   4.561 -0.0266  0.2241  0.1145
 6634WAT      O27255   6.622   0.139   5.269  0.0592  0.0807 -0.0457
 6634WAT     H127256   6.587   0.070   5.311  1.3394  0.0102  0.9661
 6634WAT     H227257   6.564   0.203   5.283 -1.1483 -0.7588 -0.9943
 6634WAT    EPW27258   6.608   0.138   5.278  0.0699 -0.0537 -0.0363
 6635WAT      O27259   4.129   6.690   0.022 -0.3308  0.1303 -0.5631
 6635WAT     H127260   4.150   6.613  -0.014  0.0332 -0.0385 -0.0092
 6635WAT     H227261   4.061   6.671   0.073 -1.5847  0.5828 -1.9776
 6635WAT    EPW27262   4.122   6.676   0.024 -0.4622  0.1722 -0.6902
 6636WAT      O27263   0.952   7.009   6.569  0.1663 -0.2949 -0.2602
 6636WAT     H127264   0.959   6.969   6.492  1.9041 -0.2402 -0.1831
 6636WAT     H227265   1.032   6.999   6.604  0.1749  1.8306  0.4461
 6636WAT    EPW27266   0.965   7.001   6.563  0.4243  0.0271 -0.1445
 6637WAT      O27267   4.540   1.721   7.515 -0.0719 -0.2420 -0.2968
 6637WAT     H127268   4.523   1.636   7.522 -0.5341 -0.1381 -0.1693
 6637WAT     H227269   4.619   1.722   7.477 -0.0729 -0.7250 -0.3236
 6637WAT    EPW27270   4.549   1.709   7.510 -0.1403 -0.2980 -0.2819
 6638WAT      O27271   4.874   3.547   1.089  0.0666 -0.4963 -0.2314
 6638WAT     H127272   4.843   3.583   1.162  0.1122 -1.6414  0.3867
 6638WAT     H227273   4.849   3.602   1.027 -1.2900 -0.2417  0.4847
 6638WAT    EPW27274   4.866   3.560   1.091 -0.1270 -0.6278 -0.0343
 6639WAT      O27275   5.382   6.952   0.628 -0.6007 -0.5738  0.4726
 6639WAT     H127276   5.438   6.896   0.592 -0.6967  0.8154 -2.0719
 6639WAT     H227277   5.422   6.977   0.701  0.3457 -2.4158  0.6211
 6639WAT    EPW27278   5.396   6.948   0.633 -0.4751 -0.6407  0.1186
 6640WAT      O27279   5.040   6.230   1.409  0.0558 -0.6197  0.2034
 6640WAT     H127280   5.035   6.277   1.483  1.9937 -0.1378  0.0945
 6640WAT     H227281   5.049   6.291   1.347 -1.2926 -1.0316 -0.4433
 6640WAT    EPW27282   5.041   6.246   1.411  0.1429 -0.6093  0.0918
 6641WAT      O27283   7.231   7.071   4.241 -0.3599  0.1352 -0.2283
 6641WAT     H127284   7.314   7.060   4.266 -0.6957  0.2062  0.9509
 6641WAT     H227285   7.219   7.008   4.182  0.2182 -0.5661  0.3930
 6641WAT    EPW27286   7.241   7.060   4.236 -0.3241  0.0421  0.0377
 6642WAT      O27287   4.685   6.387   6.498  0.2467 -0.1688  0.0182
 6642WAT     H127288   4.753   6.432   6.532  2.2387 -1.7817 -1.5586
 6642WAT     H227289   4.648   6.445   6.445  0.1412  0.8645  1.1752
 6642WAT    EPW27290   4.690   6.403   6.496  0.5254 -0.2544 -0.0438
 6643WAT      O27291   4.492   3.583   5.855  0.7473  0.0487 -0.3334
 6643WAT     H127292   4.471   3.568   5.772 -0.7154  2.1641 -0.4199
 6643WAT     H227293   4.578   3.600   5.852  1.2482 -2.1876 -0.9857
 6643WAT    EPW27294   4.502   3.583   5.842  0.6053  0.0309 -0.4425
 6644WAT      O27295   1.587   3.686   2.898 -0.2403 -0.5425  0.2717
 6644WAT     H127296   1.577   3.747   2.959 -1.7265  0.9669 -1.3533
 6644WAT     H227297   1.515   3.637   2.906 -0.1702 -0.6778  0.0859
 6644WAT    EPW27298   1.575   3.688   2.908 -0.4495 -0.3395  0.0042
 6645WAT      O27299   2.850   0.866   4.095  0.2026  0.3838 -0.5192
 6645WAT     H127300   2.881   0.791   4.128 -2.5615 -0.0935  1.3028
 6645WAT     H227301   2.879   0.926   4.150  0.6533  0.4093 -0.7744
 6645WAT    EPW27302   2.859   0.864   4.108 -0.1391  0.3171 -0.2878
 6646WAT      O27303   7.683   6.323   0.564 -0.1088 -0.2095 -0.5046
 6646WAT     H127304   7.743   6.386   0.559 -0.6603  0.2536 -1.6132
 6646WAT     H227305   7.730   6.251   0.576  0.4926  0.4662  1.4608
 6646WAT    EPW27306   7.699   6.321   0.565 -0.1014 -0.0413 -0.3780
 6647WAT      O27307   2.302   7.402   3.458  0.2259  0.0612  0.5363
 6647WAT     H127308   2.366   7.384   3.514 -0.2603 -1.8500  0.5253
 6647WAT     H227309   2.335   7.468   3.411  1.8137 -0.2560  1.1278
 6647WAT    EPW27310   2.317   7.409   3.459  0.3886 -0.2680  0.6220
 6648WAT      O27311   5.088   3.353   4.501  0.1591  0.3804 -0.1138
 6648WAT     H127312   5.148   3.291   4.513  0.3416  0.3343 -1.1720
 6648WAT     H227313   5.014   3.317   4.530  0.3228 -0.2338 -0.4494
 6648WAT    EPW27314   5.086   3.339   4.507  0.2103  0.2828 -0.3197
 6649WAT      O27315   5.262   6.970   1.566  0.1058  0.0068 -0.1490
 6649WAT     H127316   5.243   7.002   1.645  0.5211  0.1669 -0.1122
 6649WAT     H227317   5.205   6.904   1.556  0.5621 -0.5092  0.6096
 6649WAT    EPW27318   5.250   6.965   1.576  0.2345 -0.0458 -0.0315
 6650WAT      O27319   2.801   5.200   0.625  0.2130 -0.7474 -0.1917
 6650WAT     H127320   2.827   5.180   0.706 -1.3803 -1.7088  0.1324
 6650WAT     H227321   2.859   5.160   0.574  1.6131  0.3976  0.4365
 6650WAT    EPW27322   2.814   5.191   0.629  0.1845 -0.7203 -0.0510
 6651WAT      O27323   3.324   1.303   6.715 -0.0703  0.1101 -0.3083
 6651WAT     H127324   3.345   1.237   6.662  1.3848 -0.0412  0.4223
 6651WAT     H227325   3.358   1.372   6.675 -0.5852  0.2654 -0.4860
 6651WAT    EPW27326   3.332   1.303   6.701  0.0686  0.1107 -0.2267
 6652WAT      O27327   2.389   7.277   1.920 -0.1570 -0.0539 -0.6801
 6652WAT     H127328   2.381   7.357   1.885 -1.2005 -0.1274 -0.6187
 6652WAT     H227329   2.309   7.258   1.947 -0.0182 -1.3185 -1.1025
 6652WAT    EPW27330   2.376   7.286   1.919 -0.2906 -0.2516 -0.7335
 6653WAT      O27331   3.988   3.059   6.033  0.1099 -0.0613 -0.4839
 6653WAT     H127332   3.988   2.995   5.974 -3.4001  0.1854 -0.9567
 6653WAT     H227333   4.015   3.129   5.988  0.2627 -0.4257 -0.9682
 6653WAT    EPW27334   3.992   3.060   6.017 -0.3861 -0.0787 -0.6253
 6654WAT      O27335   5.466   1.245   6.273  0.2636  1.1200  0.0137
 6654WAT     H127336   5.552   1.255   6.286  0.2308 -0.0689  1.3941
 6654WAT     H227337   5.441   1.197   6.342 -1.3338  0.6371 -0.8712
 6654WAT    EPW27338   5.475   1.239   6.285  0.0228  0.8731  0.0869
 6655WAT      O27339   4.364   0.538   2.491  0.3514  0.1486 -0.9191
 6655WAT     H127340   4.306   0.527   2.555  0.2518 -0.3008 -1.0847
 6655WAT     H227341   4.428   0.482   2.511  0.4659  0.2325 -1.0480
 6655WAT    EPW27342   4.365   0.528   2.503  0.3536  0.0946 -0.9626
 6656WAT      O27343   4.314   2.438   6.391  0.4265 -0.3604 -0.4401
 6656WAT     H127344   4.318   2.522   6.368 -1.8148 -0.3020 -0.8400
 6656WAT     H227345   4.239   2.431   6.434  0.1240 -2.3231 -1.1635
 6656WAT    EPW27346   4.304   2.449   6.394  0.0507 -0.6417 -0.6061
 6657WAT      O27347   3.506   7.415   2.405  0.4810 -0.1933  0.3858
 6657WAT     H127348   3.452   7.370   2.353 -3.1412  3.9548 -0.0035
 6657WAT     H227349   3.461   7.424   2.478  2.1902  0.6151  1.3990
 6657WAT    EPW27350   3.491   7.410   2.408  0.1984  0.5389  0.4780
 6658WAT      O27351   3.390   3.602   7.551 -0.0733 -0.5838 -0.2602
 6658WAT     H127352   3.394   3.526   7.592  0.5590 -0.1964  0.4140
 6658WAT     H227353   3.414   3.660   7.611  0.7218  0.0195 -1.1291
 6658WAT    EPW27354   3.394   3.600   7.566  0.1376 -0.4375 -0.2890
 6659WAT      O27355   5.980   5.437   7.378  0.1364  0.1640  0.1120
 6659WAT     H127356   5.940   5.500   7.423 -0.6479 -0.2962  0.0849
 6659WAT     H227357   5.971   5.367   7.429 -1.2415 -0.4863 -0.9464
 6659WAT    EPW27358   5.973   5.436   7.392 -0.1830 -0.0000 -0.0484
 6660WAT      O27359   1.009   1.897   3.997  0.1606  0.3502  0.5827
 6660WAT     H127360   1.057   1.826   3.979  0.5054  0.5100  0.8565
 6660WAT     H227361   1.001   1.937   3.920 -2.6657 -1.5482 -0.2749
 6660WAT    EPW27362   1.015   1.892   3.983 -0.2060  0.0934  0.4965
 6661WAT      O27363   3.578   3.463   5.979 -0.1171  0.4865 -0.5678
 6661WAT     H127364   3.631   3.422   5.924 -0.0044 -1.4478  0.8767
 6661WAT     H227365   3.584   3.547   5.955 -0.1872 -0.2581 -3.5067
 6661WAT    EPW27366   3.587   3.470   5.968 -0.1108  0.0908 -0.7886
 6662WAT      O27367   7.555   3.923   4.961  0.0032  0.4804 -0.2101
 6662WAT     H127368   7.621   3.902   4.909  0.5169  0.1065  0.5644
 6662WAT     H227369   7.595   3.942   5.037 -0.8171 -0.3413  0.4450
 6662WAT    EPW27370   7.571   3.923   4.965 -0.0421  0.3038  0.0011
 6663WAT      O27371   2.606   5.240   7.685  0.2679 -0.1981  0.4729
 6663WAT     H127372   2.654   5.290   7.632  0.3080  0.0522  0.7477
 6663WAT     H227373   2.653   5.166   7.690  1.7384  0.7894  2.4510
 6663WAT    EPW27374   2.620   5.236   7.678  0.4911 -0.0153  0.8057
 6664WAT      O27375   2.287   5.980   0.862  0.0441 -0.2411  0.2537
 6664WAT     H127376   2.340   6.020   0.805 -0.4584  0.0033 -0.0504
 6664WAT     H227377   2.292   6.030   0.933 -0.0599 -0.0134  0.1018
 6664WAT    EPW27378   2.295   5.994   0.864 -0.0455 -0.1714  0.1863
 6665WAT      O27379   2.067   7.301   6.998  0.5243  0.1489 -0.3415
 6665WAT     H127380   2.000   7.343   6.960 -1.1193 -2.5961 -0.7328
 6665WAT     H227381   2.089   7.354   7.064 -1.5521  1.5326 -0.6474
 6665WAT    EPW27382   2.060   7.315   7.002 -0.0252 -0.0522 -0.4445
 6666WAT      O27383   1.852   7.638   3.451  0.1500 -0.0331  0.0592
 6666WAT     H127384   1.826   7.555   3.455 -0.0948 -0.0120 -0.8712
 6666WAT     H227385   1.781   7.683   3.475 -0.1515 -0.0462 -0.7792
 6666WAT    EPW27386   1.838   7.633   3.455  0.0693 -0.0319 -0.2021
 6667WAT      O27387   4.147   7.323   5.820  0.2630 -0.3586 -0.3055
 6667WAT     H127388   4.222   7.280   5.835  0.1466  0.0411  1.5963
 6667WAT     H227389   4.174   7.403   5.799  0.3917 -0.3517 -0.1225
 6667WAT    EPW27390   4.162   7.328   5.819  0.2648 -0.2985  0.0025
 6668WAT      O27391   1.466   7.110   5.347  0.0453  0.2685 -0.3803
 6668WAT     H127392   1.449   7.110   5.432 -1.2178  0.5126 -0.6228
 6668WAT     H227393   1.496   7.029   5.332 -1.8779 -0.5440 -0.0954
 6668WAT    EPW27394   1.468   7.098   5.357 -0.4254  0.1846 -0.3740
 6669WAT      O27395   4.311   1.179   5.565  0.8934  0.2674  0.1575
 6669WAT     H127396   4.305   1.266   5.564  1.1998  0.3342 -1.9420
 6669WAT     H227397   4.231   1.153   5.588  0.4373  1.1169 -0.4024
 6669WAT    EPW27398   4.298   1.188   5.568  0.8713  0.4027 -0.2353
 6670WAT      O27399   6.174   0.216   3.156  0.0982 -0.4458  0.1437
 6670WAT     H127400   6.170   0.238   3.240  0.2800 -0.2922  0.1139
 6670WAT     H227401   6.140   0.285   3.115  0.0990 -0.4790  0.0866
 6670WAT    EPW27402   6.168   0.229   3.162  0.1252 -0.4280  0.1308
 6671WAT      O27403   5.129   0.136   1.286  0.0814 -0.4496 -0.0181
 6671WAT     H127404   5.133   0.205   1.340 -0.7378  2.4145 -3.2807
 6671WAT     H227405   5.181   0.158   1.220  0.6496 -3.5414 -0.7573
 6671WAT    EPW27406   5.137   0.150   1.284  0.0443 -0.4832 -0.6093
 6672WAT      O27407   0.921   5.178   6.446  0.4428 -0.1102 -0.6832
 6672WAT     H127408   0.909   5.179   6.532  1.1449 -1.1212 -0.5536
 6672WAT     H227409   1.007   5.178   6.437  0.4279 -1.8370 -1.3014
 6672WAT    EPW27410   0.932   5.178   6.457  0.5443 -0.5146 -0.7553
 6673WAT      O27411   0.277   0.791   7.619  0.2875 -0.6246  0.4230
 6673WAT     H127412   0.246   0.800   7.700 -0.1506  1.3240  0.0915
 6673WAT     H227413   0.344   0.848   7.617 -0.8568  0.7535 -1.0899
 6673WAT    EPW27414   0.282   0.801   7.631  0.0537 -0.1332  0.1506
 6674WAT      O27415   3.094   0.466   1.241  0.6003  0.1559  0.0740
 6674WAT     H127416   3.046   0.463   1.168  1.2770  1.3179 -0.4388
 6674WAT     H227417   3.036   0.448   1.304 -0.0482 -0.6020 -0.7156
 6674WAT    EPW27418   3.079   0.463   1.239  0.6044  0.2156 -0.1184
 6675WAT      O27419   3.186   4.161   1.073  0.5511  0.2388  0.2348
 6675WAT     H127420   3.219   4.097   1.023 -1.5866 -1.1632  0.4534
 6675WAT     H227421   3.115   4.124   1.108  0.2067  2.2178  1.7858
 6675WAT    EPW27422   3.180   4.146   1.070  0.1844  0.3240  0.4962
 6676WAT      O27423   3.450   6.944   4.901  0.4786  0.0102 -0.0677
 6676WAT     H127424   3.528   6.946   4.940 -0.0615 -0.3281  1.0950
 6676WAT     H227425   3.422   6.862   4.916 -0.6827  0.5341  0.7931
 6676WAT    EPW27426   3.457   6.932   4.909  0.2273  0.0376  0.2312
 6677WAT      O27427   1.731   0.333   2.039  0.4058 -0.1028 -0.7851
 6677WAT     H127428   1.670   0.379   2.082 -0.1642 -1.7216  0.2347
 6677WAT     H227429   1.691   0.311   1.965 -0.3500 -1.2617 -0.0710
 6677WAT    EPW27430   1.716   0.337   2.034  0.2100 -0.5131 -0.5290
 6678WAT      O27431   5.213   2.028   1.568 -0.0219 -0.1560 -0.6798
 6678WAT     H127432   5.293   2.051   1.593  0.0285 -0.1775 -0.8248
 6678WAT     H227433   5.164   2.098   1.589 -0.1008 -0.4347  0.1102
 6678WAT    EPW27434   5.217   2.042   1.575 -0.0261 -0.2004 -0.5845
 6679WAT      O27435   7.689   0.074   6.736  0.5245 -0.1544  0.3603
 6679WAT     H127436   7.760   0.026   6.719  0.2113 -0.0626 -1.4927
 6679WAT     H227437   7.711   0.121   6.806  2.1018 -0.4984  0.1204
 6679WAT    EPW27438   7.703   0.074   6.744  0.7113 -0.1917  0.0511
 6680WAT      O27439   2.528   1.141   6.306  0.1161 -0.2620 -0.2396
 6680WAT     H127440   2.525   1.182   6.229 -0.2480 -0.8891 -0.5644
 6680WAT     H227441   2.516   1.057   6.285 -1.0844 -0.3179  0.6179
 6680WAT    EPW27442   2.526   1.134   6.292 -0.1150 -0.3629 -0.1609
 6681WAT      O27443   3.657   6.673   7.633 -0.0872  0.0927 -0.4410
 6681WAT     H127444   3.708   6.623   7.683 -1.0253  0.5237  1.0194
 6681WAT     H227445   3.600   6.617   7.598  0.3150 -0.1594 -0.6948
 6681WAT    EPW27446   3.656   6.657   7.635 -0.1664  0.1191 -0.2628
 6682WAT      O27447   4.339   3.189   1.159 -0.3301 -0.3184  0.4193
 6682WAT     H127448   4.420   3.206   1.133 -1.0810  0.7840 -1.4212
 6682WAT     H227449   4.316   3.119   1.112 -0.5864 -0.3733  0.6211
 6682WAT    EPW27450   4.348   3.181   1.149 -0.4789 -0.1637  0.1772
 6683WAT      O27451   3.819   7.431   5.881 -0.3412  0.6147 -0.4194
 6683WAT     H127452   3.844   7.404   5.802 -0.9870 -0.0611 -0.3971
 6683WAT     H227453   3.769   7.501   5.863  0.5578  1.2403 -0.5281
 6683WAT    EPW27454   3.815   7.438   5.867 -0.3038  0.6073 -0.4322
 6684WAT      O27455   3.286   7.192   2.769 -0.0567 -0.0965  0.5844
 6684WAT     H127456   3.360   7.198   2.725 -0.3453  1.2047  0.2313
 6684WAT     H227457   3.311   7.195   2.853  0.4159 -1.6895  0.5381
 6684WAT    EPW27458   3.301   7.193   2.775 -0.0295 -0.1396  0.5254
 6685WAT      O27459   2.886   6.720   7.498  0.2151 -0.2062 -0.1945
 6685WAT     H127460   2.937   6.766   7.445 -0.5821 -0.2631 -1.0406
 6685WAT     H227461   2.892   6.638   7.467 -1.0402 -0.0725 -0.8521
 6685WAT    EPW27462   2.894   6.714   7.486 -0.0881 -0.1949 -0.4167
 6686WAT      O27463   6.590   2.109   4.545  0.3755 -0.4184 -0.6813
 6686WAT     H127464   6.566   2.189   4.570 -0.3911 -0.5508 -0.9489
 6686WAT     H227465   6.514   2.068   4.535  0.7741 -1.4520  0.2985
 6686WAT    EPW27466   6.575   2.115   4.547  0.3211 -0.5907 -0.5761
 6687WAT      O27467   0.946   4.741   3.698  0.1671  0.5044  0.0243
 6687WAT     H127468   0.870   4.784   3.692 -0.7432 -0.5577  2.5540
 6687WAT     H227469   1.001   4.789   3.651 -1.7747  2.0258 -0.8243
 6687WAT    EPW27470   0.943   4.755   3.690 -0.2542  0.5723  0.2726
 6688WAT      O27471   4.645   5.236   3.757 -0.0667  0.5034  0.2265
 6688WAT     H127472   4.709   5.203   3.707 -0.3233  2.9631 -1.9510
 6688WAT     H227473   4.585   5.173   3.758  1.4049 -0.9577  0.3911
 6688WAT    EPW27474   4.646   5.222   3.749  0.1128  0.6509 -0.0708
 6689WAT      O27475   3.194   7.296   6.305  0.0605 -0.5038  0.4400
 6689WAT     H127476   3.148   7.294   6.379 -0.2538 -0.2943  0.2552
 6689WAT     H227477   3.144   7.252   6.249 -0.6290  0.9380 -0.1505
 6689WAT    EPW27478   3.179   7.290   6.308 -0.0877 -0.2599  0.3255
 6690WAT      O27479   1.222   5.905   6.748  0.3061  0.0062  0.1872
 6690WAT     H127480   1.185   5.976   6.780  2.6543  1.9793 -1.1286
 6690WAT     H227481   1.182   5.893   6.671  1.3575  1.3449 -0.6235
 6690WAT    EPW27482   1.211   5.914   6.741  0.8083  0.4954 -0.1270
 6691WAT      O27483   2.291   1.127   0.812  0.1897  0.0805 -0.5384
 6691WAT     H127484   2.358   1.071   0.808 -0.3904 -0.5615 -1.6232
 6691WAT     H227485   2.307   1.184   0.748  0.5407  0.9128  0.2679
 6691WAT    EPW27486   2.303   1.127   0.802  0.1559  0.1086 -0.5796
 6692WAT      O27487   5.059   3.739   2.569 -0.0206  0.1113 -0.1608
 6692WAT     H127488   5.118   3.684   2.535  0.4612  0.7591 -0.3808
 6692WAT     H227489   5.106   3.810   2.588 -0.8731  0.9531 -1.1136
 6692WAT    EPW27490   5.075   3.741   2.566 -0.0754  0.3314 -0.3341
 6693WAT      O27491   3.177   6.298   1.194  0.0558  0.1379 -0.0319
 6693WAT     H127492   3.251   6.312   1.237  0.1110  1.4996 -0.4979
 6693WAT     H227493   3.116   6.299   1.256  0.0016  3.1856  0.0353
 6693WAT    EPW27494   3.179   6.300   1.209  0.0560  0.7892 -0.0908
 6694WAT      O27495   2.411   0.276   3.549 -0.3562 -0.2878 -0.1519
 6694WAT     H127496   2.420   0.339   3.489 -1.6663  0.8603  0.8116
 6694WAT     H227497   2.336   0.238   3.528 -0.6567 -0.0975  0.5544
 6694WAT    EPW27498   2.401   0.280   3.537 -0.5941 -0.0901  0.0948
 6695WAT      O27499   2.735   6.082   5.212  0.2125 -0.4104  0.3922
 6695WAT     H127500   2.764   6.160   5.186 -0.6448  0.3206  1.5093
 6695WAT     H227501   2.797   6.055   5.268  1.7962 -1.7506 -1.8668
 6695WAT    EPW27502   2.748   6.089   5.217  0.3198 -0.5004  0.2235
 6696WAT      O27503   1.254   6.351   3.454 -0.4153 -0.2594  0.3563
 6696WAT     H127504   1.290   6.420   3.494  1.9620 -1.5637  0.7128
 6696WAT     H227505   1.287   6.355   3.374  0.8139 -1.5949  0.7435
 6696WAT    EPW27506   1.264   6.362   3.448  0.1174 -0.6494  0.4661
 6697WAT      O27507   4.319   0.408   3.730 -0.2354 -0.5321 -0.0581
 6697WAT     H127508   4.404   0.400   3.745 -0.4044 -0.9013  0.7684
 6697WAT     H227509   4.309   0.371   3.651  0.2414 -1.2910  0.2221
 6697WAT    EPW27510   4.330   0.401   3.720 -0.1899 -0.6987  0.1054
 6698WAT      O27511   3.612   7.091   3.501 -0.3549 -0.4791  0.5409
 6698WAT     H127512   3.571   7.112   3.575 -1.4287 -0.4345 -0.0506
 6698WAT     H227513   3.655   7.164   3.481 -0.6635 -0.2432  0.7250
 6698WAT    EPW27514   3.613   7.105   3.509 -0.5591 -0.4377  0.4807
 6699WAT      O27515   1.092   0.814   7.809 -0.8185 -0.0747 -0.0227
 6699WAT     H127516   1.119   0.841   7.888  0.7794  0.5174 -0.7346
 6699WAT     H227517   1.057   0.736   7.826 -0.0249 -0.1985  1.2079
 6699WAT    EPW27518   1.090   0.806   7.823 -0.4652 -0.0055  0.0539
 6700WAT      O27519   6.056   6.707   4.420  0.0376 -0.2641  0.7730
 6700WAT     H127520   6.124   6.696   4.474  0.6752  0.4409  0.1527
 6700WAT     H227521   6.027   6.787   4.440 -1.2251 -0.9286  1.6822
 6700WAT    EPW27522   6.062   6.717   4.431 -0.0547 -0.2581  0.8157
 6701WAT      O27523   6.562   5.748   4.476 -0.0067 -0.0559 -0.5028
 6701WAT     H127524   6.538   5.787   4.402  0.7137  0.1831 -0.6144
 6701WAT     H227525   6.556   5.663   4.457 -0.0960  0.0032 -0.7451
 6701WAT    EPW27526   6.557   5.741   4.462  0.0865 -0.0119 -0.5551
 6702WAT      O27527   3.224   6.384   3.453  0.4052 -0.0203  0.3430
 6702WAT     H127528   3.206   6.299   3.444 -0.0300  0.1221 -0.1568
 6702WAT     H227529   3.300   6.393   3.413  0.4001 -0.1519  0.3030
 6702WAT    EPW27530   3.232   6.373   3.446  0.3402 -0.0187  0.2633
 6703WAT      O27531   3.537   0.467   5.152  0.0216 -0.2298  0.0415
 6703WAT     H127532   3.552   0.469   5.066  1.4810 -0.2167  0.2671
 6703WAT     H227533   3.579   0.396   5.178  0.5801  0.3945  0.8986
 6703WAT    EPW27534   3.545   0.457   5.143  0.3197 -0.1356  0.2014
 6704WAT      O27535   5.046   7.694   0.009  0.3319 -0.2329 -0.6316
 6704WAT     H127536   5.048   7.666  -0.074  1.4388  2.7938 -1.8088
 6704WAT     H227537   5.001   7.769   0.004  2.6145  1.4131  0.8792
 6704WAT    EPW27538   5.040   7.701  -0.004  0.8326  0.4574 -0.5823
 6705WAT      O27539   7.716   2.070   5.952 -0.2726  0.2230  0.1314
 6705WAT     H127540   7.771   2.035   5.894 -2.0236 -0.8145 -1.0127
 6705WAT     H227541   7.696   2.004   6.005 -0.2091  0.6541  0.7002
 6705WAT    EPW27542   7.721   2.055   5.951 -0.5219  0.1334  0.0464
 6706WAT      O27543   3.349   4.498   1.036 -0.2955 -0.2200 -0.3098
 6706WAT     H127544   3.382   4.488   0.956  0.7329 -0.0142  0.0758
 6706WAT     H227545   3.339   4.416   1.064  1.0824 -0.2946  0.0318
 6706WAT    EPW27546   3.352   4.484   1.028  0.0600 -0.2006 -0.2024
 6707WAT      O27547   1.245   6.516   0.066  0.0258 -0.6288 -0.6229
 6707WAT     H127548   1.249   6.552  -0.014  0.0660 -1.8701 -1.2017
 6707WAT     H227549   1.175   6.553   0.101 -0.8473 -1.0988 -1.7805
 6707WAT    EPW27550   1.235   6.527   0.059 -0.0973 -0.8816 -0.8794
 6708WAT      O27551   7.690   7.031   7.792  0.2815  0.0664  0.1829
 6708WAT     H127552   7.770   7.067   7.793 -0.3847  1.6550  0.3110
 6708WAT     H227553   7.705   6.947   7.806  2.0202  0.1503 -0.8620
 6708WAT    EPW27554   7.704   7.024   7.794  0.4399  0.3134  0.0474
 6709WAT      O27555   7.004   5.119   0.106  0.0839  0.4496 -0.3267
 6709WAT     H127556   6.985   5.203   0.119  0.8775  1.0993 -2.7400
 6709WAT     H227557   6.997   5.109   0.019 -0.3642 -2.0942 -0.0952
 6709WAT    EPW27558   7.000   5.130   0.095  0.1349  0.1698 -0.6490
 6710WAT      O27559   1.624   7.270   1.687 -0.6444  0.0970  0.3453
 6710WAT     H127560   1.655   7.283   1.606 -0.0930  1.8360  0.7992
 6710WAT     H227561   1.561   7.211   1.675 -0.3209  0.0369 -1.3009
 6710WAT    EPW27562   1.619   7.264   1.673 -0.5152  0.3450  0.1692
 6711WAT      O27563   3.092   5.636   0.298  0.2989  0.4568 -0.0929
 6711WAT     H127564   3.030   5.639   0.359 -0.9153 -0.7821 -1.2034
 6711WAT     H227565   3.084   5.556   0.264  1.0814  1.0226 -1.7231
 6711WAT    EPW27566   3.082   5.625   0.302  0.2351  0.3573 -0.4978
 6712WAT      O27567   5.007   4.519   6.983  0.1353 -0.3873  0.0465
 6712WAT     H127568   4.949   4.532   7.047  0.0692  1.5386 -0.3239
 6712WAT     H227569   4.959   4.485   6.918 -0.5978  1.0703 -0.2106
 6712WAT    EPW27570   4.991   4.516   6.983  0.0173  0.1125 -0.0462
 6713WAT      O27571   4.932   4.191   5.918 -0.1532 -0.3177  0.1186
 6713WAT     H127572   4.851   4.184   5.951 -0.0353 -2.0926  0.1012
 6713WAT     H227573   4.983   4.186   5.989  0.0019 -1.4002 -0.0564
 6713WAT    EPW27574   4.927   4.189   5.934 -0.1129 -0.7398  0.0902
 6714WAT      O27575   2.080   0.144   2.292  0.7429 -0.7376 -0.2344
 6714WAT     H127576   2.098   0.110   2.370  3.3031  0.5039 -0.1874
 6714WAT     H227577   2.097   0.229   2.301  0.8071 -0.5111 -2.0468
 6714WAT    EPW27578   2.085   0.151   2.305  1.1305 -0.5208 -0.4952
 6715WAT      O27579   3.093   1.411   0.997 -0.0296  0.0170  0.9229
 6715WAT     H127580   3.156   1.358   0.968 -1.4387 -1.1959 -0.1247
 6715WAT     H227581   3.129   1.490   0.995  2.0863 -0.8261  2.3231
 6715WAT    EPW27582   3.108   1.415   0.992  0.0748 -0.2867  0.9750
 6716WAT      O27583   4.736   1.726   1.768  0.0454  0.5432 -0.0292
 6716WAT     H127584   4.757   1.656   1.720 -0.5262  1.1993 -1.3019
 6716WAT     H227585   4.664   1.701   1.810 -0.6637  0.5944 -1.1436
 6716WAT    EPW27586   4.728   1.712   1.767 -0.1438  0.6477 -0.3818
 6717WAT      O27587   1.318   3.559   7.470  0.3170 -0.1943 -0.3891
 6717WAT     H127588   1.355   3.523   7.399  1.5341  1.0613 -0.4183
 6717WAT     H227589   1.327   3.645   7.457 -1.0614  0.1155  0.4561
 6717WAT    EPW27590   1.325   3.566   7.457  0.2932  0.0369 -0.2685
 6718WAT      O27591   4.824   4.188   0.974 -0.4066  0.2386 -0.2155
 6718WAT     H127592   4.844   4.185   1.059  0.3452 -0.5334 -0.4004
 6718WAT     H227593   4.895   4.155   0.936 -1.1528 -0.4059 -1.0780
 6718WAT    EPW27594   4.837   4.183   0.981 -0.4058  0.0293 -0.3702
 6719WAT      O27595   2.637   0.254   3.742 -0.4174 -0.4612 -0.0488
 6719WAT     H127596   2.569   0.224   3.697 -1.6332  1.6548  0.2533
 6719WAT     H227597   2.701   0.259   3.682 -1.5735  0.8876 -1.2562
 6719WAT    EPW27598   2.637   0.250   3.726 -0.7678  0.0506 -0.1825
 6720WAT      O27599   4.698   5.586   0.924 -0.2733  0.4160 -0.0190
 6720WAT     H127600   4.615   5.568   0.944  0.4023 -0.9261  1.8547
 6720WAT     H227601   4.739   5.511   0.939  1.4780  1.3839  0.2750
 6720WAT    EPW27602   4.692   5.572   0.929  0.0852  0.3607  0.3012
 6721WAT      O27603   6.826   7.277   6.568 -0.0585  0.7142  0.4135
 6721WAT     H127604   6.907   7.276   6.535 -0.9953  1.5313 -2.1825
 6721WAT     H227605   6.804   7.362   6.566 -2.1570  0.2681 -2.4692
 6721WAT    EPW27606   6.835   7.290   6.563 -0.5069  0.7690 -0.3958
 6722WAT      O27607   2.414   2.440   6.282  0.3962 -0.4558 -0.4255
 6722WAT     H127608   2.429   2.404   6.204  0.7408 -0.0285 -0.5606
 6722WAT     H227609   2.476   2.405   6.333  0.3293 -0.5427 -0.4042
 6722WAT    EPW27610   2.426   2.430   6.278  0.4372 -0.4055 -0.4423
 6723WAT      O27611   5.204   7.070   6.984 -0.2092  0.6995  0.1581
 6723WAT     H127612   5.284   7.083   7.017  0.0326  0.9470 -0.5144
 6723WAT     H227613   5.172   7.151   6.974 -0.2790  0.6254 -0.2190
 6723WAT    EPW27614   5.211   7.084   6.988 -0.1838  0.7251  0.0031
 6724WAT      O27615   2.076   1.011   6.592  0.0498 -0.1270 -0.0411
 6724WAT     H127616   2.101   1.062   6.659  0.6987  1.1198 -1.1796
 6724WAT     H227617   2.150   0.993   6.551  0.2075 -3.9642  1.5078
 6724WAT    EPW27618   2.091   1.016   6.596  0.1689 -0.5096  0.0195
 6725WAT      O27619   5.580   5.952   0.314 -0.1592  0.3126 -0.3979
 6725WAT     H127620   5.534   6.020   0.343  0.7462  0.6904  0.2315
 6725WAT     H227621   5.661   5.985   0.306  0.3005 -0.6955 -0.0343
 6725WAT    EPW27622   5.585   5.967   0.317  0.0424  0.2195 -0.2512
 6726WAT      O27623   3.092   3.604   1.706  0.1703  0.6593  0.1813
 6726WAT     H127624   3.173   3.605   1.674  0.2891 -0.9605  0.3220
 6726WAT     H227625   3.104   3.594   1.792 -0.1786  1.8627  0.3813
 6726WAT    EPW27626   3.106   3.602   1.714  0.1363  0.5978  0.2316
 6727WAT      O27627   2.155   1.789   7.595 -0.3798 -0.4926 -0.0491
 6727WAT     H127628   2.179   1.855   7.543 -0.2957 -0.3165  0.2092
 6727WAT     H227629   2.080   1.761   7.560 -0.0693 -0.7090 -0.5629
 6727WAT    EPW27630   2.147   1.794   7.582 -0.3215 -0.4986 -0.0868
 6728WAT      O27631   1.906   0.471   7.048 -0.1489 -0.8025 -0.0812
 6728WAT     H127632   1.919   0.554   7.022 -2.5164  0.4680  2.3168
 6728WAT     H227633   1.973   0.428   7.013  2.2318  2.4487  0.0170
 6728WAT    EPW27634   1.918   0.477   7.039 -0.1469 -0.1345  0.2876
 6729WAT      O27635   4.639   5.095   2.341  0.3125 -0.2278  0.0314
 6729WAT     H127636   4.603   5.132   2.411  0.2811 -0.3252  0.0667
 6729WAT     H227637   4.604   5.139   2.274 -1.0174 -1.2795 -0.0192
 6729WAT    EPW27638   4.629   5.107   2.342  0.1114 -0.3975  0.0292
 6730WAT      O27639   1.876   2.291   6.441  0.7038 -0.0081 -0.1770
 6730WAT     H127640   1.929   2.241   6.394 -1.7121 -0.4062 -2.7466
 6730WAT     H227641   1.891   2.371   6.410  0.5900  0.0383 -0.1146
 6730WAT    EPW27642   1.886   2.296   6.430  0.3301 -0.0600 -0.5474
 6731WAT      O27643   6.777   4.722   6.689  0.0844 -0.3736 -0.4050
 6731WAT     H127644   6.778   4.806   6.665  2.1484 -0.4768 -0.7875
 6731WAT     H227645   6.700   4.694   6.660 -0.5961  1.3299 -0.3971
 6731WAT    EPW27646   6.765   4.730   6.681  0.2888 -0.1372 -0.4604
 6732WAT      O27647   4.256   2.722   0.990  0.3650 -0.1737 -0.0567
 6732WAT     H127648   4.333   2.688   1.013 -0.4013 -1.6179  0.4745
 6732WAT     H227649   4.274   2.806   0.976  1.6824 -0.0737  1.8790
 6732WAT    EPW27650   4.270   2.730   0.992  0.4464 -0.3723  0.3077
 6733WAT      O27651   4.872   5.405   6.234  0.0367  0.0483 -0.5059
 6733WAT     H127652   4.793   5.392   6.200 -0.2493  1.3062 -0.3889
 6733WAT     H227653   4.900   5.477   6.193  1.3983 -0.7238 -0.9972
 6733WAT    EPW27654   4.864   5.414   6.223  0.1956  0.1201 -0.5612
 6734WAT      O27655   1.897   0.182   6.819 -0.2069  0.0013 -0.7273
 6734WAT     H127656   1.858   0.148   6.890 -0.3960  2.7750  0.6676
 6734WAT     H227657   1.895   0.117   6.761  0.3037 -2.5976  1.8901
 6734WAT    EPW27658   1.891   0.167   6.821 -0.1594  0.0271 -0.1346
 6735WAT      O27659   1.395   0.663   4.672 -0.1455 -0.3732  0.5515
 6735WAT     H127660   1.436   0.719   4.620 -1.1337  0.1315  0.2901
 6735WAT     H227661   1.311   0.684   4.663 -0.5837 -2.1586  0.1459
 6735WAT    EPW27662   1.388   0.675   4.663 -0.3562 -0.5624  0.4530
 6736WAT      O27663   6.643   3.707   5.966 -0.3595  0.1469  0.3748
 6736WAT     H127664   6.632   3.629   6.004  0.0890  0.2664  0.7516
 6736WAT     H227665   6.563   3.741   5.965 -0.4801 -0.1269  0.6194
 6736WAT    EPW27666   6.630   3.700   5.971 -0.3110  0.1241  0.4666
 6737WAT      O27667   2.962   7.570   0.233 -0.9976 -0.3858 -0.1511
 6737WAT     H127668   3.045   7.553   0.254 -0.7934  0.6039 -0.1082
 6737WAT     H227669   2.963   7.572   0.146 -0.0671  3.5184 -0.2195
 6737WAT    EPW27670   2.974   7.568   0.223 -0.8300  0.3372 -0.1549
 6738WAT      O27671   1.806   5.991   3.801  0.2727 -0.1340  0.2882
 6738WAT     H127672   1.883   5.950   3.810  0.7151  0.9624  2.0896
 6738WAT     H227673   1.749   5.934   3.831  0.6961 -0.0688  1.2535
 6738WAT    EPW27674   1.809   5.977   3.807  0.4006  0.0376  0.6969
 6739WAT      O27675   4.197   6.155   1.732 -0.6921 -0.0149 -0.2248
 6739WAT     H127676   4.205   6.233   1.771  1.4444  0.2264 -1.0502
 6739WAT     H227677   4.139   6.169   1.669 -1.5612  0.4582  0.6474
 6739WAT    EPW27678   4.189   6.168   1.729 -0.5049  0.0907 -0.2179
 6740WAT      O27679   1.881   7.276   2.868 -0.1545 -0.2528 -0.2846
 6740WAT     H127680   1.854   7.193   2.875  2.4302 -1.2342 -0.4865
 6740WAT     H227681   1.900   7.284   2.783  1.6377 -0.2149  0.0853
 6740WAT    EPW27682   1.880   7.265   2.856  0.4921 -0.3922 -0.2598
 6741WAT      O27683   1.179   7.171   4.367 -0.3589  0.2060  0.1866
 6741WAT     H127684   1.266   7.180   4.365  0.0223 -2.6091 -0.6546
 6741WAT     H227685   1.168   7.084   4.369 -3.1662  0.4337 -1.0752
 6741WAT    EPW27686   1.190   7.160   4.367 -0.7173 -0.1762 -0.1240
 6742WAT      O27687   5.083   6.945   1.801 -0.5691  0.0355  0.1793
 6742WAT     H127688   5.063   7.003   1.863  0.5447  0.9645 -0.2700
 6742WAT     H227689   5.103   6.873   1.845  0.2243  0.6914  0.9206
 6742WAT    EPW27690   5.083   6.943   1.816 -0.2874  0.2696  0.2224
 6743WAT      O27691   3.354   7.576   5.027 -0.2855  0.1950  0.3728
 6743WAT     H127692   3.297   7.556   4.964 -0.2959  1.2117  0.0353
 6743WAT     H227693   3.391   7.500   5.047 -1.3279 -0.3827  0.1681
 6743WAT    EPW27694   3.351   7.562   5.020 -0.4410  0.2599  0.2927
 6744WAT      O27695   3.351   6.761   4.600 -0.0395 -0.3788  0.9346
 6744WAT     H127696   3.278   6.796   4.567  0.4606 -0.5229 -0.3792
 6744WAT     H227697   3.323   6.718   4.671 -1.4287 -1.5690 -0.2926
 6744WAT    EPW27698   3.336   6.760   4.606 -0.1709 -0.5759  0.5592
 6745WAT      O27699   5.387   6.825   1.255  0.1778  0.0414 -0.6152
 6745WAT     H127700   5.458   6.787   1.223  1.0194  1.1279 -0.1033
 6745WAT     H227701   5.413   6.907   1.272 -1.0232  0.2948  0.1431
 6745WAT    EPW27702   5.401   6.832   1.253  0.1247  0.2393 -0.4275
 6746WAT      O27703   4.103   0.686   6.612 -0.3227  0.0591  0.2784
 6746WAT     H127704   4.118   0.708   6.529  0.5118 -1.2420  0.0632
 6746WAT     H227705   4.170   0.721   6.655  0.5276 -1.2378  0.0565
 6746WAT    EPW27706   4.115   0.695   6.606 -0.0739 -0.3247  0.2139
 6747WAT      O27707   4.228   0.096   0.037 -0.4243  0.2521  0.2624
 6747WAT     H127708   4.146   0.068   0.025 -0.2611 -0.0456 -0.1861
 6747WAT     H227709   4.225   0.179   0.010 -0.9209  0.7044  1.6447
 6747WAT    EPW27710   4.215   0.104   0.031 -0.4735  0.2749  0.4004
 6748WAT      O27711   3.639   0.578   0.282 -0.1085 -0.1232  0.1107
 6748WAT     H127712   3.630   0.503   0.237  3.3428  0.0423 -1.1983
 6748WAT     H227713   3.716   0.568   0.323  0.7360  2.8109 -0.5040
 6748WAT    EPW27714   3.649   0.565   0.281  0.5261  0.3347 -0.1734
 6749WAT      O27715   4.283   2.885   5.994  0.1740 -0.5857 -0.0423
 6749WAT     H127716   4.234   2.929   5.937  1.7604 -1.0563 -1.8854
 6749WAT     H227717   4.325   2.947   6.037 -0.9215 -0.2267  0.5626
 6749WAT    EPW27718   4.282   2.901   5.992  0.2465 -0.6022 -0.2252
 6750WAT      O27719   5.116   3.272   0.852  0.8017  0.1025  0.1035
 6750WAT     H127720   5.080   3.322   0.790 -0.5658 -0.7534  0.1738
 6750WAT     H227721   5.092   3.191   0.830  1.8409 -0.4020  0.7471
 6750WAT    EPW27722   5.107   3.268   0.840  0.7532 -0.0985  0.2090
 6751WAT      O27723   0.777   3.357   0.200  0.9969  0.2165  0.7981
 6751WAT     H127724   0.742   3.413   0.143  0.2386 -0.5991  0.4549
 6751WAT     H227725   0.733   3.283   0.187  1.5905 -0.3073  1.6539
 6751WAT    EPW27726   0.766   3.354   0.189  0.9726  0.0186  0.8738
 6752WAT      O27727   2.585   4.566   4.778 -0.3809  0.1807 -0.0227
 6752WAT     H127728   2.542   4.595   4.848 -0.1382  0.5810 -0.0360
 6752WAT     H227729   2.655   4.526   4.813 -1.0030 -0.9196  0.0240
 6752WAT    EPW27730   2.589   4.564   4.794 -0.4369  0.0773 -0.0178
 6753WAT      O27731   3.317   7.206   5.260  0.0472 -0.5923  0.0880
 6753WAT     H127732   3.273   7.146   5.214  0.7793 -1.0136 -0.0735
 6753WAT     H227733   3.352   7.257   5.199 -1.2530  0.5415  0.2212
 6753WAT    EPW27734   3.315   7.204   5.244 -0.0367 -0.4870  0.0838
 6754WAT      O27735   7.248   7.334   7.715 -0.2802 -0.2716  0.3527
 6754WAT     H127736   7.320   7.334   7.764  0.3808  1.4420 -0.5257
 6754WAT     H227737   7.252   7.257   7.674  1.9054  0.3792 -0.8145
 6754WAT    EPW27738   7.259   7.322   7.716  0.1403  0.0777  0.0505
 6755WAT      O27739   4.717   1.097   3.310 -0.0706  0.4243  0.1821
 6755WAT     H127740   4.675   1.104   3.386  2.0313  1.2116  1.3401
 6755WAT     H227741   4.801   1.109   3.331  0.6971 -0.2832 -2.1314
 6755WAT    EPW27742   4.723   1.099   3.325  0.3533  0.4361  0.0114
 6756WAT      O27743   2.019   5.594   2.083 -0.0826 -0.6661 -0.3584
 6756WAT     H127744   2.027   5.616   2.167  0.1229  1.6924 -0.9179
 6756WAT     H227745   1.938   5.622   2.063 -0.0800 -1.0944 -0.9938
 6756WAT    EPW27746   2.008   5.601   2.093 -0.0519 -0.3809 -0.5349
 6757WAT      O27747   4.069   5.136   7.671  0.2621  0.0779  0.6688
 6757WAT     H127748   3.990   5.110   7.698  0.7384 -2.7693 -0.3944
 6757WAT     H227749   4.051   5.190   7.605 -0.8163 -0.3174  0.6105
 6757WAT    EPW27750   4.055   5.140   7.665  0.1732 -0.4011  0.5031
 6758WAT      O27751   5.641   6.200   6.463  0.1001 -0.1762 -0.7006
 6758WAT     H127752   5.634   6.233   6.544 -2.0107 -0.8387 -0.5664
 6758WAT     H227753   5.657   6.270   6.414 -0.7832  0.5700  0.0304
 6758WAT    EPW27754   5.643   6.216   6.468 -0.3422 -0.1638 -0.5728
 6759WAT      O27755   2.938   1.117   6.692  0.2929  0.1330  0.2822
 6759WAT     H127756   2.868   1.135   6.741  0.9712  0.1154  1.2687
 6759WAT     H227757   2.993   1.182   6.709  0.3565  0.4011 -0.8499
 6759WAT    EPW27758   2.935   1.129   6.702  0.4025  0.1700  0.2607
 6760WAT      O27759   3.557   0.530   6.858 -0.5661 -0.0955 -0.4682
 6760WAT     H127760   3.581   0.475   6.922  0.9887  1.2300  0.1608
 6760WAT     H227761   3.477   0.554   6.880 -0.1420  0.1666  0.8787
 6760WAT    EPW27762   3.549   0.525   6.871 -0.2738  0.1390 -0.1763
 6761WAT      O27763   2.686   3.076   1.111  0.1477  0.4594  0.4728
 6761WAT     H127764   2.634   3.007   1.098 -1.7415  1.7822  0.5054
 6761WAT     H227765   2.651   3.138   1.060  2.1648  1.2630 -0.0554
 6761WAT    EPW27766   2.673   3.075   1.101  0.1666  0.7735  0.3996
 6762WAT      O27767   2.638   6.058   5.877 -0.8646 -0.1194 -0.5132
 6762WAT     H127768   2.623   5.974   5.897 -0.1013 -0.1756 -0.1167
 6762WAT     H227769   2.583   6.101   5.929  0.0452 -0.3268  0.6770
 6762WAT    EPW27770   2.628   6.052   5.888 -0.6175 -0.1583 -0.2788
 6763WAT      O27771   1.598   0.741   0.340 -0.2276 -0.0707  0.2085
 6763WAT     H127772   1.550   0.712   0.407  0.1403 -0.0499  0.4795
 6763WAT     H227773   1.618   0.668   0.297  0.6004 -0.2211  0.8267
 6763WAT    EPW27774   1.594   0.726   0.343 -0.0510 -0.0899  0.3399
 6764WAT      O27775   3.835   6.686   7.412 -0.5662 -0.2414  0.5401
 6764WAT     H127776   3.870   6.766   7.408  1.1665 -1.0047 -0.7932
 6764WAT     H227777   3.778   6.692   7.478  1.4201  1.3724  2.2709
 6764WAT    EPW27778   3.832   6.699   7.421 -0.0168 -0.1157  0.5988
 6765WAT      O27779   5.041   5.375   4.415  0.5940  0.2804  0.3713
 6765WAT     H127780   4.989   5.304   4.410  0.0201  0.5293  2.0020
 6765WAT     H227781   5.084   5.374   4.340 -1.2247 -0.3931 -0.7426
 6765WAT    EPW27782   5.039   5.364   4.403  0.2406  0.2177  0.4477
 6766WAT      O27783   6.148   0.345   1.066 -0.3047 -0.9958  0.3336
 6766WAT     H127784   6.099   0.336   1.137  0.3968  0.3895  1.0406
 6766WAT     H227785   6.094   0.381   1.008 -0.3767 -0.3092  0.8175
 6766WAT    EPW27786   6.133   0.349   1.068 -0.2117 -0.6898  0.5095
 6767WAT      O27787   3.034   0.153   0.719  0.2958  0.5937  0.1704
 6767WAT     H127788   3.076   0.159   0.795 -2.3187  1.3649  1.6979
 6767WAT     H227789   3.015   0.236   0.699 -0.5961  0.2820 -0.3666
 6767WAT    EPW27790   3.037   0.166   0.727 -0.2222  0.6616  0.3167
 6768WAT      O27791   4.022   5.103   2.838 -0.1466  0.4462  0.5461
 6768WAT     H127792   4.059   5.181   2.849 -0.0255  0.3604  0.7376
 6768WAT     H227793   3.963   5.099   2.903 -0.9744  0.8686 -0.1463
 6768WAT    EPW27794   4.019   5.114   2.849 -0.2510  0.4959  0.4721
 6769WAT      O27795   1.212   5.307   2.124  0.0514  0.2203  0.6475
 6769WAT     H127796   1.253   5.256   2.066  1.9175  1.3023  0.9488
 6769WAT     H227797   1.173   5.367   2.074  2.2781  1.6069  0.4241
 6769WAT    EPW27798   1.212   5.308   2.108  0.6560  0.5850  0.6590
 6770WAT      O27799   4.185   1.338   7.136  0.1484 -0.4454 -0.1779
 6770WAT     H127800   4.231   1.272   7.169  0.2375 -0.3983 -0.2050
 6770WAT     H227801   4.237   1.369   7.073  0.7644  0.5768  0.7996
 6770WAT    EPW27802   4.200   1.333   7.131  0.2525 -0.2874 -0.0375
 6771WAT      O27803   7.384   7.387   5.054  0.3320  0.2986 -0.3629
 6771WAT     H127804   7.436   7.331   5.096  0.1001  0.5511  0.2745
 6771WAT     H227805   7.310   7.342   5.042  0.5821  0.0420 -0.9990
 6771WAT    EPW27806   7.380   7.372   5.058  0.3347  0.2980 -0.3627
 6772WAT      O27807   3.698   0.289   5.315  0.8213 -0.4037  0.5707
 6772WAT     H127808   3.624   0.253   5.343  1.0281  0.1299  1.8733
 6772WAT     H227809   3.721   0.239   5.247 -1.0393 -0.1969 -0.2560
 6772WAT    EPW27810   3.690   0.276   5.309  0.5770 -0.2943  0.6410
 6773WAT      O27811   4.701   0.279   1.580  0.0811 -0.1219  0.0408
 6773WAT     H127812   4.619   0.309   1.580  0.4359  0.9772 -1.3325
 6773WAT     H227813   4.719   0.269   1.665 -0.8724  1.4053  0.4654
 6773WAT    EPW27814   4.692   0.282   1.592 -0.0073  0.2661 -0.0994
 6774WAT      O27815   2.059   0.332   4.847  1.0591  0.0100  0.3496
 6774WAT     H127816   2.104   0.349   4.920  1.5325 -2.4001  0.6984
 6774WAT     H227817   2.039   0.248   4.855 -1.5312  0.4152 -0.9252
 6774WAT    EPW27818   2.063   0.322   4.859  0.7464 -0.2862  0.2128
 6775WAT      O27819   4.652   5.337   7.700  0.2569 -0.5658  0.3085
 6775WAT     H127820   4.725   5.383   7.710  1.0116 -1.5640 -0.4964
 6775WAT     H227821   4.591   5.388   7.737  0.9785  1.2614 -0.8601
 6775WAT    EPW27822   4.653   5.351   7.707  0.4750 -0.4433  0.0170
 6776WAT      O27823   2.133   5.652   0.008 -0.1656  0.7725 -0.2618
 6776WAT     H127824   2.107   5.735   0.015 -1.2325  0.5400 -1.1318
 6776WAT     H227825   2.205   5.649   0.056 -0.5954  1.9888  0.5129
 6776WAT    EPW27826   2.140   5.664   0.016 -0.3867  0.9178 -0.2759
 6777WAT      O27827   0.895   6.546   5.897  0.7641  0.2308 -0.5951
 6777WAT     H127828   0.975   6.563   5.867  1.4977 -0.8834  0.6037
 6777WAT     H227829   0.862   6.492   5.837  0.9177  0.6909 -1.0970
 6777WAT    EPW27830   0.902   6.541   5.884  0.8952  0.1341 -0.4921
 6778WAT      O27831   5.409   5.684   1.284  0.2965 -0.3648  0.1009
 6778WAT     H127832   5.378   5.646   1.355 -0.0308  0.7164  0.5644
 6778WAT     H227833   5.348   5.669   1.224 -0.1228 -0.0652  0.4442
 6778WAT    EPW27834   5.395   5.676   1.285  0.1862 -0.1608  0.2201
 6779WAT      O27835   3.275   0.538   4.972  0.6670  0.0017 -0.4355
 6779WAT     H127836   3.196   0.512   4.946  0.0977  1.0414  0.1622
 6779WAT     H227837   3.319   0.547   4.897 -0.4033  1.2485 -0.9689
 6779WAT    EPW27838   3.270   0.536   4.957  0.4248  0.3395 -0.4260
 6780WAT      O27839   2.959   4.470   3.636  0.0709  0.2436  0.4338
 6780WAT     H127840   3.030   4.505   3.598  0.3083  1.9642  2.3030
 6780WAT     H227841   2.990   4.439   3.711 -0.6648 -1.6609 -0.0070
 6780WAT    EPW27842   2.974   4.471   3.641 -0.0027  0.2164  0.6448
 6781WAT      O27843   5.008   7.674   2.040  0.0605 -0.3798 -0.2010
 6781WAT     H127844   5.068   7.729   2.007  0.5133 -1.1972 -0.7760
 6781WAT     H227845   5.022   7.677   2.126  0.9400 -0.5551 -0.3305
 6781WAT    EPW27846   5.019   7.682   2.048  0.2573 -0.5265 -0.3051
 6782WAT      O27847   3.843   7.582   0.124 -0.1294  0.5114  0.4123
 6782WAT     H127848   3.919   7.540   0.112 -0.6458  0.1450 -2.4351
 6782WAT     H227849   3.783   7.523   0.099 -1.2495  1.3177  1.1160
 6782WAT    EPW27850   3.846   7.567   0.118 -0.3711  0.5764  0.0956
 6783WAT      O27851   2.465   7.658   0.357  0.1945 -0.1135  0.3316
 6783WAT     H127852   2.523   7.601   0.328  3.5145  2.4330  1.3822
 6783WAT     H227853   2.451   7.633   0.439  1.1987  0.2270  0.6156
 6783WAT    EPW27854   2.471   7.646   0.365  0.8333  0.3130  0.5288
 6784WAT      O27855   2.169   3.917   5.266 -0.2039  0.4382  0.1615
 6784WAT     H127856   2.177   3.924   5.352 -0.0349  0.8664  0.1109
 6784WAT     H227857   2.193   3.995   5.236 -1.1426  0.5982 -0.2138
 6784WAT    EPW27858   2.173   3.929   5.274 -0.3176  0.5251  0.0986
 6785WAT      O27859   1.764   4.830   6.270 -0.0105 -0.1447  0.4500
 6785WAT     H127860   1.818   4.801   6.207  0.5474 -0.1564  0.9182
 6785WAT     H227861   1.808   4.812   6.343 -0.6706 -0.1696  0.8468
 6785WAT    EPW27862   1.779   4.823   6.272 -0.0256 -0.1501  0.5778
 6786WAT      O27863   3.479   1.442   4.313  0.1560 -0.2196  0.2139
 6786WAT     H127864   3.397   1.435   4.283  0.7608 -0.3877 -1.4613
 6786WAT     H227865   3.468   1.467   4.396 -1.6202 -1.5066  0.4130
 6786WAT    EPW27866   3.465   1.445   4.321 -0.0170 -0.4346 -0.0041
 6787WAT      O27867   1.763   6.925   2.599  0.2411  0.3109 -0.3789
 6787WAT     H127868   1.805   6.940   2.524  0.0049 -1.6245 -0.9312
 6787WAT     H227869   1.776   6.840   2.613 -1.3035  0.2392  0.7946
 6787WAT    EPW27870   1.771   6.915   2.590 -0.0220  0.0144 -0.2871
 6788WAT      O27871   3.051   6.460   2.403 -0.0826  0.2400  0.6481
 6788WAT     H127872   3.088   6.532   2.437 -1.3660  1.1015  0.2835
 6788WAT     H227873   3.021   6.486   2.326 -0.0079 -0.8797  0.2156
 6788WAT    EPW27874   3.052   6.474   2.397 -0.2611  0.2019  0.5303
 6789WAT      O27875   7.738   1.308   6.521  0.4046  0.1150 -0.3527
 6789WAT     H127876   7.725   1.225   6.496 -0.5042  0.3671 -0.7630
 6789WAT     H227877   7.658   1.343   6.516  1.0683  1.4974 -1.9479
 6789WAT    EPW27878   7.724   1.301   6.516  0.3684  0.3564 -0.6490
 6790WAT      O27879   4.010   7.657   2.350  1.2696 -0.0142  0.4135
 6790WAT     H127880   4.059   7.586   2.336 -0.3519 -1.1357  0.1026
 6790WAT     H227881   3.934   7.624   2.377  1.5470  1.7125  3.9684
 6790WAT    EPW27882   4.006   7.641   2.352  1.0710  0.0752  0.8927
 6791WAT      O27883   2.381   7.348   7.486  0.5104  0.1574  0.0289
 6791WAT     H127884   2.332   7.282   7.515  0.7806  0.5244  1.3426
 6791WAT     H227885   2.322   7.412   7.472  0.4862  0.2862  0.6893
 6791WAT    EPW27886   2.365   7.348   7.488  0.5468  0.2306  0.3205
 6792WAT      O27887   3.950   3.344   1.357 -0.0933 -0.0838 -0.7026
 6792WAT     H127888   4.014   3.380   1.310  0.6395  0.4027  0.6143
 6792WAT     H227889   3.985   3.336   1.436 -0.0355 -4.0823 -0.9363
 6792WAT    EPW27890   3.965   3.348   1.361  0.0234 -0.6026 -0.5426
 6793WAT      O27891   1.694   6.704   7.246  0.3532 -0.1310 -0.2519
 6793WAT     H127892   1.656   6.782   7.252  2.1546  0.6679  2.7386
 6793WAT     H227893   1.764   6.711   7.297  0.0949 -4.0202  0.9678
 6793WAT    EPW27894   1.699   6.717   7.254  0.5811 -0.5875  0.3700
 6794WAT      O27895   3.408   0.426   1.470 -0.0806 -0.3275  0.2347
 6794WAT     H127896   3.342   0.434   1.527  1.3094 -0.8043  2.0039
 6794WAT     H227897   3.368   0.405   1.395 -1.8948 -1.1213  1.3525
 6794WAT    EPW27898   3.392   0.424   1.467 -0.1432 -0.5152  0.6612
 6795WAT      O27899   6.776   2.705   6.323  0.8591 -0.2835 -0.4075
 6795WAT     H127900   6.712   2.691   6.266 -1.1273  0.4788  1.4809
 6795WAT     H227901   6.807   2.784   6.302  1.9553 -1.0850 -1.9650
 6795WAT    EPW27902   6.771   2.715   6.312  0.7276 -0.2893 -0.3586
 6796WAT      O27903   4.033   6.800   4.480 -0.3170 -0.0535  0.3802
 6796WAT     H127904   3.975   6.865   4.474  1.0511  1.1537 -0.2522
 6796WAT     H227905   4.042   6.772   4.398 -0.7548 -0.9439  0.6196
 6796WAT    EPW27906   4.026   6.805   4.467 -0.1796 -0.0067  0.3221
 6797WAT      O27907   0.567   2.542   3.831  0.6096  0.0869  0.0907
 6797WAT     H127908   0.543   2.467   3.793  1.4674  0.9356 -2.3767
 6797WAT     H227909   0.648   2.525   3.860 -0.2467 -0.7304  2.2111
 6797WAT    EPW27910   0.575   2.528   3.829  0.6098  0.0915  0.0395
 6798WAT      O27911   1.121   6.499   6.105  0.2284  0.3341  0.0298
 6798WAT     H127912   1.158   6.431   6.065 -0.6951  0.2592 -0.7292
 6798WAT     H227913   1.180   6.564   6.094  1.1805 -0.3541  0.8930
 6798WAT    EPW27914   1.135   6.499   6.097  0.2327  0.2214  0.0452
 6799WAT      O27915   6.190   2.730   0.713 -0.3511 -0.5308  0.2563
 6799WAT     H127916   6.164   2.648   0.726  1.3933 -0.8882  2.0447
 6799WAT     H227917   6.169   2.770   0.788 -1.6917  0.8329 -0.8021
 6799WAT    EPW27918   6.183   2.724   0.726 -0.2914 -0.3821  0.3641
 6800WAT      O27919   1.587   7.080   6.498  0.5359  0.7234 -0.2097
 6800WAT     H127920   1.567   7.005   6.537 -0.4222  0.7688 -0.5887
 6800WAT     H227921   1.572   7.140   6.560  2.5150  0.5431  0.5149
 6800WAT    EPW27922   1.581   7.078   6.513  0.6868  0.7035 -0.1586
 6801WAT      O27923   3.767   6.735   0.597  0.1582 -0.2284 -0.1461
 6801WAT     H127924   3.780   6.809   0.552 -0.1857 -0.2087 -0.2178
 6801WAT     H227925   3.720   6.686   0.542  0.0938 -0.3681  0.0320
 6801WAT    EPW27926   3.762   6.739   0.582  0.0979 -0.2461 -0.1304
 6802WAT      O27927   4.523   5.231   2.571  0.1980 -0.2441 -0.0880
 6802WAT     H127928   4.470   5.297   2.549  1.5609  0.9758  0.1330
 6802WAT     H227929   4.597   5.271   2.596  0.2215 -1.7397  2.5620
 6802WAT    EPW27930   4.526   5.247   2.571  0.4028 -0.2848  0.3361
 6803WAT      O27931   4.651   0.077   7.020 -0.0109  0.2258  0.4506
 6803WAT     H127932   4.689   0.156   7.019  1.6065 -0.4436  2.1757
 6803WAT     H227933   4.602   0.079   7.092 -0.1742 -0.2394  0.3523
 6803WAT    EPW27934   4.649   0.089   7.031  0.2039  0.0582  0.6909
 6804WAT      O27935   7.724   0.561   7.387  0.0292 -0.1582 -0.0719
 6804WAT     H127936   7.801   0.600   7.401  0.8508 -1.5064 -0.6068
 6804WAT     H227937   7.687   0.557   7.466 -0.3958  2.2303 -0.0795
 6804WAT    EPW27938   7.730   0.566   7.400  0.0878 -0.0045 -0.1520
 6805WAT      O27939   7.329   1.598   7.585  0.1471 -0.2423 -0.0488
 6805WAT     H127940   7.245   1.617   7.595  0.0455 -0.9208  0.4053
 6805WAT     H227941   7.369   1.675   7.596 -0.4223  0.1355 -0.5515
 6805WAT    EPW27942   7.323   1.613   7.588  0.0480 -0.2867 -0.0560
 6806WAT      O27943   7.636   6.487   5.978  0.3118 -0.4953 -0.2080
 6806WAT     H127944   7.709   6.529   5.999  1.0278 -2.6733  2.2273
 6806WAT     H227945   7.572   6.542   6.000  1.0143  2.0464 -3.7012
 6806WAT    EPW27946   7.637   6.501   5.984  0.5213 -0.4416 -0.3642
 6807WAT      O27947   0.489   2.357   5.415  0.3649  0.4591 -0.6042
 6807WAT     H127948   0.478   2.325   5.496 -0.5927  1.7498 -0.1806
 6807WAT     H227949   0.443   2.302   5.365  2.3065 -1.3215 -0.5635
 6807WAT    EPW27950   0.480   2.344   5.420  0.5103  0.3867 -0.5356
 6808WAT      O27951   2.082   6.453   4.114  0.5305 -0.9098  0.1471
 6808WAT     H127952   2.135   6.454   4.184  1.4610 -0.8984 -0.5415
 6808WAT     H227953   2.047   6.532   4.114  0.5198 -0.9083  0.5999
 6808WAT    EPW27954   2.085   6.465   4.124  0.6664 -0.9079  0.1123
 6809WAT      O27955   3.119   2.586   5.653 -0.1395  0.5079 -0.5143
 6809WAT     H127956   3.204   2.570   5.646 -0.1752 -0.7646  1.2309
 6809WAT     H227957   3.081   2.520   5.611 -0.2686  0.5906 -0.5304
 6809WAT    EPW27958   3.126   2.574   5.646 -0.1638  0.3321 -0.2589
 6810WAT      O27959   3.562   1.818   5.260  0.0755 -0.4701  0.1960
 6810WAT     H127960   3.565   1.764   5.328 -0.0928  1.3614  1.7485
 6810WAT     H227961   3.477   1.835   5.251  0.0777 -0.8503 -0.6309
 6810WAT    EPW27962   3.550   1.813   5.268  0.0510 -0.2557  0.3032
 6811WAT      O27963   3.908   5.951   5.407 -0.5013 -0.1126 -0.3443
 6811WAT     H127964   3.915   5.946   5.320 -2.6845 -0.4733 -0.5585
 6811WAT     H227965   3.902   5.867   5.431 -0.9492  0.0230  0.0254
 6811WAT    EPW27966   3.908   5.938   5.398 -0.8900 -0.1458 -0.3213
 6812WAT      O27967   2.633   7.555   2.133  0.3588  0.5087  0.7161
 6812WAT     H127968   2.641   7.470   2.149  0.1372  0.2674 -0.3643
 6812WAT     H227969   2.626   7.591   2.213 -0.8499 -0.6242  1.1556
 6812WAT    EPW27970   2.633   7.548   2.147  0.1475  0.3057  0.6214
 6813WAT      O27971   1.687   6.626   4.023 -0.1191  0.5178 -0.4251
 6813WAT     H127972   1.698   6.578   3.951  0.9512 -0.6800  0.5109
 6813WAT     H227973   1.762   6.669   4.031 -0.5199  1.2309 -0.4331
 6813WAT    EPW27974   1.699   6.625   4.013 -0.0202  0.4462 -0.2880
 6814WAT      O27975   6.653   0.577   4.674  0.4546 -0.3087  0.0396
 6814WAT     H127976   6.696   0.588   4.749 -0.5170  0.7612  0.4708
 6814WAT     H227977   6.611   0.502   4.686  0.3732 -0.1903  0.5336
 6814WAT    EPW27978   6.653   0.568   4.687  0.2990 -0.1332  0.1763
 6815WAT      O27979   6.088   0.005   1.459 -0.1978  0.3236  0.2630
 6815WAT     H127980   6.172   0.011   1.439 -0.6188  0.8279 -1.6115
 6815WAT     H227981   6.068   0.084   1.489 -0.1391  0.4112  0.0740
 6815WAT    EPW27982   6.097   0.017   1.460 -0.2513  0.4110 -0.0418
 6816WAT      O27983   2.704   3.899   1.374 -0.2476  0.4435  0.0964
 6816WAT     H127984   2.722   3.905   1.289 -0.9505  1.7960  0.0209
 6816WAT     H227985   2.761   3.953   1.411  0.3892 -0.5154  0.5640
 6816WAT    EPW27986   2.715   3.908   1.367 -0.2574  0.5016  0.1543
 6817WAT      O27987   1.279   7.046   5.919  0.0108  1.3926  0.4345
 6817WAT     H127988   1.289   7.022   6.002 -0.1317  2.0466  0.6465
 6817WAT     H227989   1.291   6.972   5.875  1.2312  1.2570  0.9586
 6817WAT    EPW27990   1.282   7.031   5.925  0.1700  1.4692  0.5432
 6818WAT      O27991   1.742   7.421   7.194  0.9370  0.0097  0.4615
 6818WAT     H127992   1.705   7.366   7.137  0.7827  1.1389 -0.5512
 6818WAT     H227993   1.807   7.373   7.228 -0.6139 -1.5863  1.3608
 6818WAT    EPW27994   1.746   7.406   7.190  0.6851 -0.0592  0.4447
 6819WAT      O27995   0.385   6.671   7.432 -0.1019 -0.4927 -0.5183
 6819WAT     H127996   0.468   6.697   7.435 -0.7185  1.7237 -0.8386
 6819WAT     H227997   0.361   6.689   7.350 -1.4575  0.8631  0.1304
 6819WAT    EPW27998   0.394   6.677   7.420 -0.3932  0.0350 -0.4698
 6820WAT      O27999   1.875   5.825   1.304 -0.0267 -0.0159 -0.3947
 6820WAT     H128000   1.894   5.750   1.262 -0.3711 -0.0019 -0.5776
 6820WAT     H228001   1.832   5.798   1.374 -1.0429  0.0662 -0.9749
 6820WAT    EPW28002   1.872   5.810   1.308 -0.2277 -0.0017 -0.5074
 6821WAT      O28003   2.465   7.386   6.982  0.1123 -0.2504  0.1184
 6821WAT     H128004   2.438   7.442   7.043 -0.6042 -1.3838  0.8896
 6821WAT     H228005   2.401   7.388   6.922 -0.4768 -1.0604  0.7029
 6821WAT    EPW28006   2.451   7.395   6.982 -0.0806 -0.5375  0.3187
 6822WAT      O28007   4.413   3.714   1.863 -0.7424 -0.6287  0.8411
 6822WAT     H128008   4.423   3.790   1.820  0.2515 -1.3110 -0.2007
 6822WAT     H228009   4.474   3.717   1.925 -1.1819 -0.2849  1.2673
 6822WAT    EPW28010   4.423   3.726   1.866 -0.6605 -0.6787  0.7502
 6823WAT      O28011   1.159   6.977   6.750  0.0233  0.2237  0.5049
 6823WAT     H128012   1.146   6.968   6.836  2.9107 -0.8410  0.9565
 6823WAT     H228013   1.166   6.895   6.722 -0.4873  0.5746 -0.6719
 6823WAT    EPW28014   1.158   6.963   6.759  0.3744  0.1182  0.3978
 6824WAT      O28015   2.080   4.173   7.848 -0.0922 -0.6134 -0.0505
 6824WAT     H128016   2.008   4.126   7.836  0.4302 -1.1657 -1.2731
 6824WAT     H228017   2.077   4.195   7.932 -0.9683 -1.8220  0.2576
 6824WAT    EPW28018   2.069   4.169   7.859 -0.1445 -0.8735 -0.1856
 6825WAT      O28019   6.790   3.706   6.469 -0.2347 -0.1002 -0.3670
 6825WAT     H128020   6.848   3.725   6.407  0.5070  0.4623  0.4729
 6825WAT     H228021   6.766   3.624   6.451  0.4312 -0.1544 -1.0320
 6825WAT    EPW28022   6.795   3.696   6.457 -0.0267 -0.0251 -0.3411
 6826WAT      O28023   1.729   5.709   5.797  0.1423 -0.2535  0.2516
 6826WAT     H128024   1.650   5.694   5.764 -0.1004  1.7798 -0.2006
 6826WAT     H228025   1.777   5.731   5.728  0.4884  0.7542  0.7790
 6826WAT    EPW28026   1.725   5.710   5.782  0.1576  0.1958  0.2627
 6827WAT      O28027   2.548   1.847   1.186  0.0644 -0.1703  0.0832
 6827WAT     H128028   2.559   1.876   1.104  1.3239 -0.4643  0.1285
 6827WAT     H228029   2.462   1.851   1.197 -0.0689  0.5653 -1.0037
 6827WAT    EPW28030   2.537   1.852   1.176  0.2308 -0.1051 -0.0707
 6828WAT      O28031   4.416   1.970   6.488  0.1806  0.2351 -0.7410
 6828WAT     H128032   4.374   1.927   6.425 -1.7145 -3.0663  2.3564
 6828WAT     H228033   4.469   1.910   6.522  1.0403  1.8074  0.8576
 6828WAT    EPW28034   4.418   1.954   6.484  0.0276 -0.0203 -0.0473
 6829WAT      O28035   6.067   0.523   1.623 -0.1447 -0.0064  0.7698
 6829WAT     H128036   6.130   0.539   1.566  0.2276 -1.9750  0.5933
 6829WAT     H228037   5.994   0.546   1.580  0.3076  0.8547  0.4394
 6829WAT    EPW28038   6.065   0.529   1.608 -0.0229 -0.1700  0.6949
 6830WAT      O28039   5.914   7.463   7.123  0.3659 -0.2031  0.0881
 6830WAT     H128040   5.854   7.522   7.103  0.5746  1.0718  2.8283
 6830WAT     H228041   5.987   7.496   7.090  0.0438 -0.3710 -0.8232
 6830WAT    EPW28042   5.916   7.476   7.115  0.3492 -0.0396  0.3582
 6831WAT      O28043   2.066   5.197   5.109  0.5467  0.4878  0.7296
 6831WAT     H128044   2.120   5.263   5.093  0.7753  0.5720  1.8002
 6831WAT     H228045   2.076   5.182   5.195  0.4120 -0.8419  0.5402
 6831WAT    EPW28046   2.076   5.204   5.119  0.5606  0.3038  0.8598
 6832WAT      O28047   6.510   7.108   7.761 -0.0757  0.3505  0.0575
 6832WAT     H128048   6.506   7.046   7.823 -0.7191  1.2256  0.9098
 6832WAT     H228049   6.452   7.081   7.702  0.4360 -0.4171 -0.1120
 6832WAT    EPW28050   6.501   7.094   7.762 -0.0951  0.3664  0.1584
 6833WAT      O28051   2.162   0.323   7.674  0.0643  0.5523  0.2813
 6833WAT     H128052   2.192   0.317   7.755 -0.4462  2.3651  0.6364
 6833WAT     H228053   2.212   0.267   7.629 -0.2514 -1.1773  1.9764
 6833WAT    EPW28054   2.174   0.313   7.679 -0.0577  0.5646  0.5842
 6834WAT      O28055   5.644   0.285   5.464 -0.1986 -0.4339 -0.6158
 6834WAT     H128056   5.692   0.315   5.530 -1.1052 -1.1918  0.4171
 6834WAT     H228057   5.682   0.320   5.393  1.3005 -0.2891  0.2261
 6834WAT    EPW28058   5.657   0.295   5.463 -0.1111 -0.5245 -0.3389
 6835WAT      O28059   0.695   1.251   7.476  0.6273 -0.4719 -0.5403
 6835WAT     H128060   0.664   1.328   7.451  1.9337  0.7334  1.3038
 6835WAT     H228061   0.767   1.240   7.428 -0.3727 -1.3774 -1.9394
 6835WAT    EPW28062   0.701   1.261   7.465  0.6726 -0.4276 -0.4745
 6836WAT      O28063   3.508   3.852   6.774  0.4613  0.4606 -0.8356
 6836WAT     H128064   3.469   3.827   6.700 -0.5200  2.1652 -0.9396
 6836WAT     H228065   3.573   3.903   6.746  0.1802  0.9886 -0.5318
 6836WAT    EPW28066   3.512   3.856   6.759  0.2748  0.7904 -0.8061
 6837WAT      O28067   6.419   4.901   7.464 -0.5510 -0.2644 -0.2838
 6837WAT     H128068   6.392   4.841   7.521  0.8724 -0.4452  0.2589
 6837WAT     H228069   6.393   4.976   7.499 -1.1418 -0.4764 -0.2608
 6837WAT    EPW28070   6.411   4.903   7.478 -0.4280 -0.3224 -0.2002
 6838WAT      O28071   2.988   3.534   7.511 -0.1620 -0.2550 -0.2886
 6838WAT     H128072   2.926   3.592   7.491  1.6052  0.6098 -4.1589
 6838WAT     H228073   3.021   3.564   7.585 -0.5231  2.7131 -1.1928
 6838WAT    EPW28074   2.983   3.547   7.519  0.0457  0.3112 -0.9939
 6839WAT      O28075   2.810   0.725   6.918  0.0001  0.8147  0.2206
 6839WAT     H128076   2.809   0.731   7.005 -0.5672  0.0754  0.2722
 6839WAT     H228077   2.740   0.771   6.893  1.3595  2.9005 -0.0073
 6839WAT    EPW28078   2.800   0.733   6.927  0.1171  1.0136  0.1946
 6840WAT      O28079   3.813   7.021   0.527  0.1879  0.0204 -0.2017
 6840WAT     H128080   3.806   7.045   0.611  0.8725  1.5403 -0.5429
 6840WAT     H228081   3.893   7.047   0.505  0.3723 -1.2164 -1.0841
 6840WAT    EPW28082   3.824   7.029   0.537  0.3163  0.0622 -0.3825
 6841WAT      O28083   4.848   6.898   4.300  0.0803  0.0028  0.4711
 6841WAT     H128084   4.890   6.822   4.285  0.4983  0.1276  0.9638
 6841WAT     H228085   4.771   6.873   4.332  0.4506 -0.2244  1.2308
 6841WAT    EPW28086   4.843   6.883   4.303  0.1967 -0.0123  0.6561
 6842WAT      O28087   1.512   1.340   5.130 -0.0627 -0.5414  0.2008
 6842WAT     H128088   1.554   1.416   5.121 -0.0655 -0.6636 -1.0843
 6842WAT     H228089   1.485   1.340   5.213  1.3609  0.1108  0.6900
 6842WAT    EPW28090   1.514   1.351   5.141  0.1472 -0.4631  0.0832
 6843WAT      O28091   0.468   7.433   7.284 -0.1589  0.5179 -0.3877
 6843WAT     H128092   0.524   7.432   7.351 -0.2041 -3.0213 -0.1966
 6843WAT     H228093   0.507   7.483   7.224  1.7927  0.5510  0.8386
 6843WAT    EPW28094   0.482   7.440   7.285  0.1227 -0.0000 -0.1783
 6844WAT      O28095   2.341   6.780   5.548  0.1912 -0.1061 -0.1610
 6844WAT     H128096   2.313   6.793   5.630  1.0737 -0.2062  0.1643
 6844WAT     H228097   2.418   6.741   5.558  0.2989 -0.1477 -1.0443
 6844WAT    EPW28098   2.348   6.776   5.562  0.3375 -0.1270 -0.2434
 6845WAT      O28099   5.976   0.941   3.974 -0.6877  0.2087 -0.0390
 6845WAT     H128100   5.984   0.855   3.979 -0.9024  0.2397  1.1483
 6845WAT     H228101   5.942   0.955   3.895  0.3923 -0.7016 -0.6912
 6845WAT    EPW28102   5.972   0.930   3.963 -0.5599  0.0788  0.0400
 6846WAT      O28103   5.164   3.042   0.017 -0.1044  0.1375  0.1980
 6846WAT     H128104   5.146   2.958   0.000  0.0575  0.4050 -1.4269
 6846WAT     H228105   5.086   3.079   0.023 -0.1938 -0.2147  1.5320
 6846WAT    EPW28106   5.150   3.035   0.015 -0.0937  0.1250  0.1550
 6847WAT      O28107   6.918   6.432   7.483 -0.2729  0.0977 -0.4638
 6847WAT     H128108   6.945   6.395   7.409 -0.3048 -1.0631  0.0826
 6847WAT     H228109   6.858   6.376   7.513 -1.1335  1.1443 -0.1515
 6847WAT    EPW28110   6.913   6.418   7.476 -0.4047  0.0808 -0.3370
 6848WAT      O28111   2.540   0.608   5.846 -0.0459  0.4153  0.1363
 6848WAT     H128112   2.545   0.625   5.761 -0.5076 -0.9932 -0.1946
 6848WAT     H228113   2.507   0.527   5.850  1.4827 -0.2172  1.6171
 6848WAT    EPW28114   2.536   0.599   5.834  0.1117  0.1138  0.3061
 6849WAT      O28115   3.574   5.819   6.824 -0.2609 -0.6480 -0.2826
 6849WAT     H128116   3.581   5.732   6.817  0.9911 -0.5064 -1.0581
 6849WAT     H228117   3.597   5.848   6.746  1.7753  0.4866  0.6624
 6849WAT    EPW28118   3.578   5.810   6.812  0.2248 -0.4595 -0.2575
 6850WAT      O28119   2.151   6.695   6.640 -0.1520 -0.1209 -0.5785
 6850WAT     H128120   2.146   6.776   6.672 -0.5992  0.2620 -1.5587
 6850WAT     H228121   2.228   6.693   6.599  0.4496 -0.6307  0.5304
 6850WAT    EPW28122   2.161   6.707   6.639 -0.1292 -0.1397 -0.5595
 6851WAT      O28123   0.302   6.107   7.812  0.2086  0.1709  0.1243
 6851WAT     H128124   0.219   6.134   7.808  0.4104  1.2005  1.8453
 6851WAT     H228125   0.336   6.134   7.737 -0.6859  0.9771 -0.0111
 6851WAT    EPW28126   0.295   6.115   7.801  0.1063  0.4421  0.3585
 6852WAT      O28127   5.138   2.898   1.533 -0.1133 -0.1771  0.2403
 6852WAT     H128128   5.172   2.973   1.504 -1.9735  0.7450  0.2965
 6852WAT     H228129   5.141   2.846   1.462 -0.5487  0.6038 -0.3740
 6852WAT    EPW28130   5.143   2.901   1.518 -0.4524  0.0745  0.1579
 6853WAT      O28131   7.104   6.378   6.590 -0.0727  0.0680  0.4186
 6853WAT     H128132   7.186   6.407   6.583 -0.1614  0.3284  0.4726
 6853WAT     H228133   7.089   6.375   6.676 -0.7797  1.8868  0.4011
 6853WAT    EPW28134   7.114   6.381   6.602 -0.1902  0.3752  0.4240
 6854WAT      O28135   3.984   0.275   7.628 -0.4453  0.3953  0.2627
 6854WAT     H128136   4.057   0.321   7.642 -0.2826  0.4604 -0.7257
 6854WAT     H228137   3.983   0.217   7.694  0.2835  0.6475  0.5062
 6854WAT    EPW28138   3.995   0.273   7.640 -0.3136  0.4422  0.1527
 6855WAT      O28139   2.958   2.663   4.542 -0.1750 -0.0192 -0.1373
 6855WAT     H128140   2.894   2.672   4.602 -0.5572 -0.0139 -0.5427
 6855WAT     H228141   2.965   2.743   4.508 -2.1105 -0.6401 -2.2576
 6855WAT    EPW28142   2.949   2.676   4.546 -0.5173 -0.1101 -0.5104
 6856WAT      O28143   3.433   5.861   0.173 -0.1941  0.1002 -0.1526
 6856WAT     H128144   3.509   5.902   0.185 -0.3793  0.4371 -0.1267
 6856WAT     H228145   3.428   5.852   0.087 -0.6552  1.0967 -0.2400
 6856WAT    EPW28146   3.443   5.866   0.162 -0.2896  0.2972 -0.1617
 6857WAT      O28147   4.514   2.968   7.027  0.5654 -0.7350 -0.2220
 6857WAT     H128148   4.504   2.963   6.941 -1.1909 -2.0436  0.0250
 6857WAT     H228149   4.531   2.886   7.051  2.3816 -0.1771  0.5699
 6857WAT    EPW28150   4.515   2.955   7.018  0.5743 -0.8459 -0.0686
 6858WAT      O28151   1.487   3.956   0.287 -0.1927  0.0404 -0.5831
 6858WAT     H128152   1.509   3.961   0.203 -0.1283  0.8393 -0.5300
 6858WAT     H228153   1.489   4.040   0.313 -0.2305 -0.2013  0.2054
 6858WAT    EPW28154   1.490   3.969   0.278 -0.1888  0.1227 -0.4588
 6859WAT      O28155   1.384   7.576   3.356 -0.6123 -0.2694  0.7010
 6859WAT     H128156   1.445   7.636   3.375 -1.2363  1.3687 -1.8123
 6859WAT     H228157   1.412   7.504   3.395  2.1124  0.8010  0.9293
 6859WAT    EPW28158   1.397   7.574   3.364 -0.3020  0.1307  0.3635
 6860WAT      O28159   5.040   1.586   0.702 -0.1863  0.4658 -0.1148
 6860WAT     H128160   5.055   1.500   0.707  1.0964  0.6718 -0.0522
 6860WAT     H228161   4.957   1.594   0.726  0.0194 -0.6478  1.0849
 6860WAT    EPW28162   5.030   1.574   0.706  0.0336  0.3317  0.0717
 6861WAT      O28163   1.705   4.698   3.664  0.3878 -0.3600 -0.5580
 6861WAT     H128164   1.700   4.766   3.719  0.2528  0.7205 -1.8392
 6861WAT     H228165   1.628   4.699   3.623 -0.3810 -2.5011  0.6884
 6861WAT    EPW28166   1.693   4.708   3.666  0.2543 -0.5167 -0.5631
 6862WAT      O28167   3.227   7.014   3.145 -0.3257 -0.2548  0.1171
 6862WAT     H128168   3.223   6.998   3.059  0.0287  0.4247 -0.0333
 6862WAT     H228169   3.312   7.030   3.158 -0.5136  0.4876  0.4376
 6862WAT    EPW28170   3.239   7.014   3.134 -0.3011 -0.0448  0.1422
 6863WAT      O28171   2.812   7.093   6.377  0.2082 -0.1212  0.3660
 6863WAT     H128172   2.861   7.033   6.418 -1.0478 -0.6257  1.2000
 6863WAT     H228173   2.796   7.057   6.299 -1.2491 -1.3209  1.1636
 6863WAT    EPW28174   2.817   7.079   6.372 -0.1926 -0.3730  0.6070
 6864WAT      O28175   5.782   4.806   7.620  0.8335  0.3386 -0.5999
 6864WAT     H128176   5.723   4.863   7.591 -1.1983 -1.0679  0.5675
 6864WAT     H228177   5.740   4.730   7.618  2.8598 -0.8660 -0.3682
 6864WAT    EPW28178   5.767   4.803   7.615  0.8327 -0.0471 -0.3932
 6865WAT      O28179   2.262   6.761   2.308 -0.3541 -0.3433 -0.1241
 6865WAT     H128180   2.299   6.685   2.287  0.0281 -0.1208 -0.2578
 6865WAT     H228181   2.199   6.771   2.249  0.8415  0.3818 -1.3382
 6865WAT    EPW28182   2.258   6.751   2.296 -0.1210 -0.2033 -0.3232
 6866WAT      O28183   4.016   4.531   7.756 -0.1718 -0.3830  0.0286
 6866WAT     H128184   4.002   4.548   7.672 -0.0477  1.3026  0.3305
 6866WAT     H228185   4.082   4.583   7.778  1.6580 -2.7271  0.5460
 6866WAT    EPW28186   4.023   4.541   7.747  0.1169 -0.4803  0.1496
 6867WAT      O28187   4.128   6.480   1.295 -0.3386  0.4174  0.0398
 6867WAT     H128188   4.211   6.455   1.304 -0.2018 -0.0394 -1.9561
 6867WAT     H228189   4.087   6.406   1.274 -0.8020  0.9970 -1.2178
 6867WAT    EPW28190   4.134   6.466   1.293 -0.3868  0.4355 -0.4408
 6868WAT      O28191   4.526   5.005   4.965 -0.2360 -0.5062 -0.3359
 6868WAT     H128192   4.520   5.066   5.027 -1.7914 -1.2696  0.3240
 6868WAT     H228193   4.610   5.009   4.940  0.9971 -1.4794  3.1504
 6868WAT    EPW28194   4.538   5.015   4.971 -0.2836 -0.7628  0.2766
 6869WAT      O28195   4.501   0.283   1.201  0.0286  0.3437  0.3362
 6869WAT     H128196   4.432   0.270   1.253  1.2222  0.0670  1.9329
 6869WAT     H228197   4.562   0.231   1.235  0.5308 -0.8747 -2.1512
 6869WAT    EPW28198   4.500   0.273   1.214  0.2791  0.1228  0.2047
 6870WAT      O28199   1.012   4.579   4.271  0.2939  0.7182  0.0563
 6870WAT     H128200   0.938   4.625   4.272 -0.7354 -0.8657 -0.0763
 6870WAT     H228201   1.022   4.557   4.188  1.1757  1.2611 -0.0030
 6870WAT    EPW28202   1.003   4.583   4.259  0.2721  0.5644  0.0280
 6871WAT      O28203   4.612   6.825   4.411  0.4436  0.4824 -0.7633
 6871WAT     H128204   4.583   6.750   4.378  1.9466  0.2277 -1.5432
 6871WAT     H228205   4.544   6.879   4.401 -0.8581 -0.8612  0.2921
 6871WAT    EPW28206   4.598   6.822   4.405  0.4733  0.2463 -0.7226
 6872WAT      O28207   0.911   7.064   0.140 -0.3313 -0.1676  0.5141
 6872WAT     H128208   0.865   7.119   0.191  0.6043  0.2897  0.8756
 6872WAT     H228209   0.968   7.116   0.100 -1.4598 -0.3962 -1.5501
 6872WAT    EPW28210   0.912   7.080   0.141 -0.3598 -0.1338  0.2626
 6873WAT      O28211   3.525   6.837   7.044 -0.5394 -0.0454 -0.4464
 6873WAT     H128212   3.464   6.781   7.016  2.0504 -1.8025 -3.1340
 6873WAT     H228213   3.552   6.802   7.119 -2.4006  0.5233  0.5558
 6873WAT    EPW28214   3.520   6.824   7.051 -0.4318 -0.2209 -0.6954
 6874WAT      O28215   1.685   6.649   3.584 -0.8456  0.4751  0.0615
 6874WAT     H128216   1.655   6.666   3.504  1.7819 -1.6621 -1.5700
 6874WAT     H228217   1.732   6.719   3.605 -0.0071  0.2972 -1.1577
 6874WAT    EPW28218   1.688   6.662   3.575 -0.3336  0.1331 -0.3596
 6875WAT      O28219   4.899   0.103   0.844 -0.4472  0.0716  0.0135
 6875WAT     H128220   4.968   0.132   0.798 -0.9822  1.4909  0.0363
 6875WAT     H228221   4.917   0.129   0.926 -0.2619 -1.0082  0.3327
 6875WAT    EPW28222   4.912   0.111   0.849 -0.4989  0.1218  0.0640
 6876WAT      O28223   1.187   2.587   4.518  0.5019  0.3632 -0.7332
 6876WAT     H128224   1.208   2.615   4.439  1.1862 -0.2591 -0.7768
 6876WAT     H228225   1.217   2.505   4.520 -0.2062  0.1055 -0.1104
 6876WAT    EPW28226   1.194   2.579   4.507  0.4984  0.2332 -0.6476
 6877WAT      O28227   3.867   2.288   6.636 -0.1229  0.3747  1.1364
 6877WAT     H128228   3.951   2.312   6.636  0.2978 -0.9771  1.9719
 6877WAT     H228229   3.833   2.333   6.569  1.2752  0.8791  0.7174
 6877WAT    EPW28230   3.874   2.299   6.626  0.1458  0.2495  1.1979
 6878WAT      O28231   5.820   4.641   5.113 -0.2536 -0.5402 -0.9066
 6878WAT     H128232   5.900   4.659   5.143 -0.9120  0.9220  0.1096
 6878WAT     H228233   5.830   4.564   5.073  1.5924 -0.5306 -0.5691
 6878WAT    EPW28234   5.833   4.632   5.112 -0.0782 -0.3228 -0.7066
 6879WAT      O28235   2.056   4.143   1.741 -0.2332  0.1493 -0.3096
 6879WAT     H128236   2.091   4.191   1.677 -1.1308  1.6234  0.2549
 6879WAT     H228237   1.987   4.190   1.766 -1.2018 -1.5093  0.2258
 6879WAT    EPW28238   2.051   4.157   1.735 -0.5089  0.1220 -0.1471
 6880WAT      O28239   2.573   7.068   5.233 -0.1322  1.0589  0.5715
 6880WAT     H128240   2.562   7.137   5.180  0.1335  1.0843  0.5475
 6880WAT     H228241   2.660   7.056   5.232 -0.3349 -1.8058 -2.6862
 6880WAT    EPW28242   2.584   7.077   5.225 -0.1229  0.6394  0.0867
 6881WAT      O28243   2.156   7.477   7.216  0.3251  0.2357 -0.3659
 6881WAT     H128244   2.228   7.502   7.173  2.2522 -1.0504  1.8490
 6881WAT     H228245   2.161   7.520   7.292 -2.3464  1.5680 -0.8163
 6881WAT    EPW28246   2.167   7.487   7.221  0.2151  0.2425 -0.1053
 6882WAT      O28247   1.212   1.253   6.924  0.6172 -0.4850 -0.5567
 6882WAT     H128248   1.166   1.204   6.868  0.7608  0.2945 -1.3912
 6882WAT     H228249   1.293   1.220   6.919  0.6081 -0.4816 -0.7435
 6882WAT    EPW28250   1.217   1.241   6.915  0.6370 -0.3693 -0.7076
 6883WAT      O28251   4.737   5.234   5.598 -0.0171 -0.0775  0.0821
 6883WAT     H128252   4.664   5.186   5.598 -0.2551  0.2616  0.9276
 6883WAT     H228253   4.781   5.204   5.667  0.1664  0.4283  0.1870
 6883WAT    EPW28254   4.733   5.222   5.608 -0.0252  0.0473  0.2225
 6884WAT      O28255   1.875   7.637   6.244 -0.6736 -0.2064 -0.2377
 6884WAT     H128256   1.868   7.571   6.188 -1.4207  1.6170 -2.4235
 6884WAT     H228257   1.959   7.662   6.237 -0.3795 -0.8824  0.6209
 6884WAT    EPW28258   1.886   7.631   6.235 -0.7405 -0.0369 -0.4338
 6885WAT      O28259   3.479   6.217   4.586 -0.3795 -0.0270  0.8158
 6885WAT     H128260   3.548   6.167   4.567 -1.7377 -2.0840  0.9788
 6885WAT     H228261   3.514   6.296   4.600  1.5956 -0.2027 -2.1714
 6885WAT    EPW28262   3.495   6.221   4.585 -0.2884 -0.3568  0.3986
 6886WAT      O28263   3.428   1.981   6.557  0.2620  0.9647  0.6304
 6886WAT     H128264   3.359   2.004   6.605  0.2893 -1.1135  1.7614
 6886WAT     H228265   3.489   2.039   6.580 -0.9236  2.6112 -0.1264
 6886WAT    EPW28266   3.427   1.993   6.567  0.0909  0.9009  0.6857
 6887WAT      O28267   0.722   5.837   4.985 -0.4535  0.4082 -0.2911
 6887WAT     H128268   0.637   5.840   5.000 -0.3771 -0.0861  0.2796
 6887WAT     H228269   0.745   5.921   4.977 -0.9632  0.5468 -0.2968
 6887WAT    EPW28270   0.713   5.850   4.986 -0.5175  0.3557 -0.2077
 6888WAT      O28271   5.863   5.348   5.464  0.4896  0.2204 -0.0366
 6888WAT     H128272   5.872   5.267   5.493 -4.6835 -0.3761  0.7727
 6888WAT     H228273   5.847   5.338   5.379  0.0296  0.3769  0.0266
 6888WAT    EPW28274   5.862   5.335   5.455 -0.3426  0.1554  0.0923
 6889WAT      O28275   7.269   5.195   5.804  0.1483  0.1729 -0.5690
 6889WAT     H128276   7.310   5.123   5.831 -0.5073  0.1913  0.5660
 6889WAT     H228277   7.329   5.257   5.811 -0.1641  0.3174  1.6764
 6889WAT    EPW28278   7.284   5.193   5.809  0.0053  0.1970 -0.0696
 6890WAT      O28279   5.562   5.508   4.892  0.4051  0.6713 -0.1331
 6890WAT     H128280   5.549   5.506   4.806 -2.6419 -0.5863  0.2418
 6890WAT     H228281   5.489   5.543   4.924  0.3457 -1.1922  2.0530
 6890WAT    EPW28282   5.549   5.513   4.884 -0.0538  0.2102  0.2452
 6891WAT      O28283   6.351   2.966   6.928  0.0920  0.4448 -0.3132
 6891WAT     H128284   6.419   2.918   6.953 -0.8593 -0.6169  0.3015
 6891WAT     H228285   6.349   2.956   6.842  0.5626  0.2915 -0.3091
 6891WAT    EPW28286   6.361   2.958   6.919  0.0210  0.2653 -0.2218
 6892WAT      O28287   2.040   6.426   6.377 -0.5748  0.8231  0.3831
 6892WAT     H128288   1.972   6.398   6.329  0.2617  1.5158 -1.2455
 6892WAT     H228289   2.077   6.351   6.404 -1.0602  0.4227 -0.0310
 6892WAT    EPW28290   2.035   6.411   6.374 -0.5229  0.8663  0.0813
 6893WAT      O28291   5.979   6.917   7.336 -0.1490  0.1294 -0.1729
 6893WAT     H128292   5.925   6.965   7.287 -0.0759 -0.2334 -0.6124
 6893WAT     H228293   5.987   6.963   7.410 -3.0085 -0.9510  0.9343
 6893WAT    EPW28294   5.972   6.931   7.340 -0.5606 -0.0838 -0.0743
 6894WAT      O28295   2.136   4.204   6.823  0.6275 -0.0863 -0.0769
 6894WAT     H128296   2.058   4.229   6.794  0.6496 -1.1811 -1.1546
 6894WAT     H228297   2.191   4.259   6.783  0.4142  0.9159  0.9596
 6894WAT    EPW28298   2.133   4.216   6.813  0.5993 -0.1000 -0.0830
 6895WAT      O28299   3.893   0.006   3.885 -0.3734  0.4876 -0.0759
 6895WAT     H128300   3.927   0.067   3.833 -0.4323 -0.5436 -1.4082
 6895WAT     H228301   3.828  -0.027   3.837  1.2928 -2.4027 -0.6366
 6895WAT    EPW28302   3.889   0.010   3.870 -0.1360 -0.0917 -0.3555
 6896WAT      O28303   5.087   2.017   4.991  0.0546  0.4931  0.0682
 6896WAT     H128304   5.088   1.931   5.009 -0.4752  0.5076  0.1793
 6896WAT     H228305   5.077   2.054   5.070  0.0804  0.6509 -0.0028
 6896WAT    EPW28306   5.086   2.009   5.005 -0.0198  0.5185  0.0741
 6897WAT      O28307   3.069   1.207   4.801  0.3053 -0.3225  0.6526
 6897WAT     H128308   2.996   1.232   4.841  1.1273  1.4436  1.1531
 6897WAT     H228309   3.132   1.233   4.856  1.4368  1.1599 -1.2300
 6897WAT    EPW28310   3.067   1.215   4.815  0.5939  0.1574  0.4484
 6898WAT      O28311   5.983   5.095   6.116  0.0372  0.4124 -0.2401
 6898WAT     H128312   5.970   5.050   6.189  0.5973 -0.2042 -0.5154
 6898WAT     H228313   6.056   5.061   6.083  0.0925  1.0537 -0.8088
 6898WAT    EPW28314   5.992   5.084   6.122  0.1281  0.4161 -0.3648
 6899WAT      O28315   7.291   7.508   3.942  0.0566  0.0796  0.0021
 6899WAT     H128316   7.371   7.517   3.908  0.1435  1.7591  0.5548
 6899WAT     H228317   7.307   7.486   4.025 -0.1214 -1.4779 -0.3405
 6899WAT    EPW28318   7.306   7.506   3.949  0.0431  0.0976  0.0332
 6900WAT      O28319   6.288   6.424   7.829 -0.1930  0.1418  0.2064
 6900WAT     H128320   6.291   6.411   7.742 -1.6758 -0.2550  0.1930
 6900WAT     H228321   6.204   6.440   7.844  0.0222  0.0264  1.6179
 6900WAT    EPW28322   6.276   6.425   7.818 -0.3803  0.0661  0.4129
 6901WAT      O28323   2.663   5.831   5.527 -0.0809  1.0935 -0.0934
 6901WAT     H128324   2.619   5.762   5.557 -0.5036  1.5713  0.4165
 6901WAT     H228325   2.630   5.898   5.573 -1.5093  2.0227 -2.2984
 6901WAT    EPW28326   2.652   5.831   5.538 -0.3544  1.3014 -0.3438
 6902WAT      O28327   4.973   6.381   6.987 -0.2995 -0.6504  0.1595
 6902WAT     H128328   4.955   6.418   7.064  0.9466  2.3409 -0.8441
 6902WAT     H228329   5.054   6.348   6.999 -0.9020 -2.0525  0.6569
 6902WAT    EPW28330   4.982   6.381   7.000 -0.2044 -0.4156  0.0847
 6903WAT      O28331   7.296   4.673   3.833 -0.4018 -0.2545 -0.7385
 6903WAT     H128332   7.379   4.701   3.835 -1.0497  1.8610 -1.4679
 6903WAT     H228333   7.294   4.612   3.896  1.0968  1.4399  1.0923
 6903WAT    EPW28334   7.308   4.668   3.843 -0.2761  0.3083 -0.5758
 6904WAT      O28335   1.116   5.918   5.123  0.1245 -0.2547 -0.0874
 6904WAT     H128336   1.076   5.927   5.046 -2.6547 -1.9810  0.9883
 6904WAT     H228337   1.057   5.948   5.180  1.1969 -1.0082  1.5028
 6904WAT    EPW28338   1.101   5.924   5.120 -0.1276 -0.6210  0.3064
 6905WAT      O28339   3.511   3.866   1.316  0.0676 -0.3542  0.1139
 6905WAT     H128340   3.558   3.938   1.325 -2.1894  1.5552 -1.9043
 6905WAT     H228341   3.489   3.844   1.398  2.5451 -0.0953  0.9157
 6905WAT    EPW28342   3.515   3.873   1.329  0.1002 -0.0339 -0.0658
 6906WAT      O28343   4.055   2.323   0.435 -0.1077  0.0487  0.0114
 6906WAT     H128344   4.111   2.262   0.462 -0.8909 -0.7003 -0.0025
 6906WAT     H228345   4.077   2.337   0.352 -0.1462 -0.4878 -0.0947
 6906WAT    EPW28346   4.066   2.316   0.427 -0.2291 -0.1412 -0.0063
 6907WAT      O28347   3.311   7.177   0.365 -0.4014  0.4701 -0.1495
 6907WAT     H128348   3.383   7.127   0.370 -1.9074 -1.8149 -0.1205
 6907WAT     H228349   3.339   7.255   0.393  1.9829 -0.4028  0.1575
 6907WAT    EPW28350   3.326   7.181   0.370 -0.2716  0.0036 -0.0999
 6908WAT      O28351   1.254   1.692   5.377 -0.0404  0.4844 -0.9102
 6908WAT     H128352   1.294   1.635   5.431  1.3384  0.0481 -2.3081
 6908WAT     H228353   1.230   1.642   5.309  0.3778  1.4091 -1.7597
 6908WAT    EPW28354   1.256   1.676   5.375  0.2251  0.5565 -1.2422
 6909WAT      O28355   1.171   4.848   4.775  0.3256  0.2443 -0.2482
 6909WAT     H128356   1.102   4.900   4.764  0.5236  0.4862 -0.3428
 6909WAT     H228357   1.136   4.773   4.803  0.1666  0.9114  1.3953
 6909WAT    EPW28358   1.156   4.844   4.777  0.3314  0.3785 -0.0194
 6910WAT      O28359   1.089   4.557   7.302  0.0497  0.1300  0.2963
 6910WAT     H128360   1.167   4.570   7.266 -0.2057  0.9565  0.0213
 6910WAT     H228361   1.035   4.601   7.251 -0.6934 -0.9098  0.1477
 6910WAT    EPW28362   1.093   4.565   7.289 -0.0978  0.0985  0.2337
 6911WAT      O28363   4.415   2.118   5.947 -0.2154  0.0307  0.5152
 6911WAT     H128364   4.358   2.056   5.926 -0.4786  0.3033  0.4166
 6911WAT     H228365   4.433   2.156   5.871 -0.1896  0.1902  0.5997
 6911WAT    EPW28366   4.409   2.115   5.933 -0.2505  0.0945  0.5131
 6912WAT      O28367   3.603   4.448   5.575 -0.5973  0.4148 -0.0237
 6912WAT     H128368   3.588   4.533   5.589 -1.3645  0.4897 -1.1691
 6912WAT     H228369   3.547   4.409   5.629 -0.6902  0.6372  0.0456
 6912WAT    EPW28370   3.593   4.455   5.585 -0.7244  0.4587 -0.1827
 6913WAT      O28371   5.791   0.979   4.868 -0.1024  0.0472 -0.3898
 6913WAT     H128372   5.805   1.045   4.924 -2.1908 -0.7699  1.1995
 6913WAT     H228373   5.817   1.012   4.792 -1.2319  2.8019  0.2981
 6913WAT    EPW28374   5.797   0.994   4.865 -0.5777  0.3334 -0.0534
 6914WAT      O28375   2.063   7.637   2.489 -0.5203  0.1353 -0.0352
 6914WAT     H128376   1.997   7.590   2.458  0.9342 -1.2891 -1.2183
 6914WAT     H228377   2.066   7.615   2.574  0.1133 -2.0589 -0.5425
 6914WAT    EPW28378   2.054   7.627   2.497 -0.2118 -0.3993 -0.2849
 6915WAT      O28379   6.048   5.201   5.811  0.1115  0.4205 -0.2318
 6915WAT     H128380   6.001   5.170   5.744 -0.7491 -0.2570  0.6481
 6915WAT     H228381   6.099   5.133   5.832  1.6622  1.1988 -1.2777
 6915WAT    EPW28382   6.049   5.186   5.804  0.2134  0.4354 -0.2563
 6916WAT      O28383   3.489   3.657   0.999 -0.0431  0.4564 -0.3816
 6916WAT     H128384   3.469   3.621   1.076  2.4413 -0.5400 -0.0870
 6916WAT     H228385   3.573   3.678   1.008  0.4461 -0.0737 -2.9475
 6916WAT    EPW28386   3.499   3.655   1.011  0.3961  0.2309 -0.7171
 6917WAT      O28387   5.820   4.937   7.037 -0.6173  0.4455  0.2298
 6917WAT     H128388   5.883   4.888   7.073 -0.6392  0.3427  0.1280
 6917WAT     H228389   5.862   4.982   6.976 -0.3508  1.4791  1.1494
 6917WAT    EPW28390   5.835   4.936   7.034 -0.5811  0.5830  0.3506
 6918WAT      O28391   4.241   5.344   5.661  0.1314  0.0054 -0.7542
 6918WAT     H128392   4.176   5.366   5.607 -0.9953 -0.0716  0.5058
 6918WAT     H228393   4.215   5.375   5.738  1.5461 -0.1559 -0.1827
 6918WAT    EPW28394   4.227   5.352   5.665  0.1739 -0.0298 -0.4836
 6919WAT      O28395   5.426   7.581   2.986  0.1550  0.1423 -0.7284
 6919WAT     H128396   5.432   7.507   2.939 -2.1587 -0.2464 -0.4886
 6919WAT     H228397   5.440   7.554   3.068  0.1412  0.1206 -0.7330
 6919WAT    EPW28398   5.429   7.566   2.991 -0.1889  0.0817 -0.6937
 6920WAT      O28399   3.816   3.079   1.908  0.0017 -0.0751  0.1437
 6920WAT     H128400   3.857   3.150   1.937 -2.0827  0.9626  0.7409
 6920WAT     H228401   3.813   3.091   1.821 -0.2760  0.5471  0.2333
 6920WAT    EPW28402   3.821   3.091   1.899 -0.3472  0.1701  0.2452
 6921WAT      O28403   6.154   2.141   0.464 -0.6356  0.2044  0.1047
 6921WAT     H128404   6.234   2.110   0.477 -1.3143 -0.8590  2.3738
 6921WAT     H228405   6.134   2.114   0.384 -0.0908 -2.8491  0.8948
 6921WAT    EPW28406   6.163   2.133   0.454 -0.6554 -0.4038  0.5566
 6922WAT      O28407   2.567   5.821   2.772 -0.0279  0.0244 -0.2500
 6922WAT     H128408   2.637   5.798   2.725 -1.1376 -1.1700 -1.3976
 6922WAT     H228409   2.584   5.788   2.851  1.1752  0.7006 -0.2079
 6922WAT    EPW28410   2.580   5.813   2.777 -0.0141 -0.0522 -0.4133
 6923WAT      O28411   3.996   4.727   7.152 -0.1799 -0.5182 -0.1272
 6923WAT     H128412   3.981   4.647   7.120  0.9430 -0.6647 -0.3238
 6923WAT     H228413   3.974   4.719   7.236 -0.1978 -1.0093 -0.1727
 6923WAT    EPW28414   3.991   4.714   7.160 -0.0167 -0.6124 -0.1629
 6924WAT      O28415   4.440   5.510   0.975 -0.7194  0.7801  0.1398
 6924WAT     H128416   4.378   5.516   0.914 -0.4134 -0.8924 -0.4035
 6924WAT     H228417   4.443   5.424   0.992  2.9182  0.4410 -1.4165
 6924WAT    EPW28418   4.431   5.498   0.969 -0.1369  0.4829 -0.1703
 6925WAT      O28419   7.462   4.701   6.789  0.2168  0.0297 -0.0665
 6925WAT     H128420   7.441   4.783   6.772 -0.9992  0.6605  3.4582
 6925WAT     H228421   7.428   4.656   6.722 -4.0212  1.9830  0.4425
 6925WAT    EPW28422   7.454   4.706   6.777 -0.5889  0.4114  0.5293
 6926WAT      O28423   0.058   1.032   4.775 -0.0625  0.7343  0.6206
 6926WAT     H128424   0.054   1.102   4.827 -1.3012  0.3295  1.1130
 6926WAT     H228425  -0.005   1.046   4.717  2.2850  1.9321 -1.8383
 6926WAT    EPW28426   0.048   1.044   4.774  0.1013  0.8514  0.3301
 6927WAT      O28427   4.026   6.277   0.515 -0.0009 -0.5519  0.1892
 6927WAT     H128428   3.977   6.325   0.569 -2.9819 -1.0957 -1.7637
 6927WAT     H228429   4.067   6.337   0.467 -0.1706 -0.0257  0.6836
 6927WAT    EPW28430   4.025   6.293   0.516 -0.4663 -0.5545 -0.0263
 6928WAT      O28431   4.550   5.672   1.316  0.3458  0.6871 -0.0466
 6928WAT     H128432   4.507   5.596   1.317  2.5049 -0.6518 -1.8038
 6928WAT     H228433   4.554   5.694   1.400 -0.0500 -1.3137  0.5488
 6928WAT    EPW28434   4.544   5.664   1.329  0.6063  0.1938 -0.2183
 6929WAT      O28435   6.167   7.522   7.698  0.2097 -0.0252 -0.0664
 6929WAT     H128436   6.106   7.580   7.676  0.2333 -0.3324 -1.0046
 6929WAT     H228437   6.183   7.539   7.782  0.2961  1.3751 -0.3456
 6929WAT    EPW28438   6.160   7.533   7.707  0.2260  0.1363 -0.2462
 6930WAT      O28439   4.202   0.321   6.625 -0.4507 -0.6996 -0.4945
 6930WAT     H128440   4.249   0.368   6.681  1.7269 -1.1358 -1.8529
 6930WAT     H228441   4.183   0.249   6.669 -1.1995  0.1141  0.5786
 6930WAT    EPW28442   4.206   0.318   6.640 -0.2396 -0.6438 -0.5366
 6931WAT      O28443   4.976   6.796   3.691 -0.3194  0.4827 -0.7546
 6931WAT     H128444   5.030   6.738   3.728  0.1846  2.1912  1.4404
 6931WAT     H228445   5.015   6.814   3.615  0.5666 -0.5708 -0.5740
 6931WAT    EPW28446   4.990   6.790   3.686 -0.1141  0.5795 -0.4037
 6932WAT      O28447   1.866   5.580   4.274  0.4823  0.4816  0.2734
 6932WAT     H128448   1.868   5.628   4.200  0.1956 -2.2477 -1.6485
 6932WAT     H228449   1.782   5.585   4.299  0.9283  2.8853  1.5584
 6932WAT    EPW28450   1.854   5.588   4.267  0.5059  0.4335  0.1793
 6933WAT      O28451   1.916   3.599   6.718 -0.7698 -0.2719  0.0481
 6933WAT     H128452   1.976   3.608   6.655 -0.7347 -0.8719 -0.0043
 6933WAT     H228453   1.936   3.663   6.774 -1.0724  0.5569 -0.7533
 6933WAT    EPW28454   1.928   3.610   6.717 -0.8093 -0.2381 -0.0780
 6934WAT      O28455   2.712   3.721   5.983 -0.3446 -0.2124  0.7488
 6934WAT     H128456   2.729   3.675   6.055 -3.2921 -0.4990  1.3961
 6934WAT     H228457   2.639   3.764   6.002 -0.7196  0.4447 -1.7527
 6934WAT    EPW28458   2.704   3.720   5.996 -0.8354 -0.1577  0.4749
 6935WAT      O28459   1.689   4.825   0.376  0.6926 -0.2065 -0.3099
 6935WAT     H128460   1.605   4.845   0.365  0.8736  0.5536 -0.4485
 6935WAT     H228461   1.712   4.871   0.446  1.0678 -0.1426 -0.4714
 6935WAT    EPW28462   1.680   4.835   0.384  0.7748 -0.0847 -0.3542
 6936WAT      O28463   6.241   4.410   1.213 -0.0736  0.2153  0.3041
 6936WAT     H128464   6.299   4.451   1.161 -0.3246  1.3481  0.8741
 6936WAT     H228465   6.203   4.476   1.256 -2.9260 -0.3235 -1.1611
 6936WAT    EPW28466   6.244   4.426   1.211 -0.5320  0.3030  0.1719
 6937WAT      O28467   6.271   4.801   4.413 -0.4465  0.1221  0.6505
 6937WAT     H128468   6.194   4.766   4.390  0.2866  0.1002 -2.1792
 6937WAT     H228469   6.257   4.887   4.406  0.2838  0.0889 -2.0754
 6937WAT    EPW28470   6.258   4.809   4.409 -0.2303  0.1139 -0.1702
 6938WAT      O28471   3.401   3.952   1.056 -0.2103  0.7461 -0.1895
 6938WAT     H128472   3.397   3.942   1.143 -0.7112  2.0102 -0.0442
 6938WAT     H228473   3.455   3.888   1.031 -0.6671 -0.1292  0.9577
 6938WAT    EPW28474   3.408   3.941   1.065 -0.3518  0.8035  0.0015
 6939WAT      O28475   1.125   5.924   0.387  0.3172  0.2859 -0.3210
 6939WAT     H128476   1.067   5.924   0.322 -1.2498 -0.2112  0.9905
 6939WAT     H228477   1.127   6.008   0.412 -0.3406  0.2086  0.0230
 6939WAT    EPW28478   1.117   5.936   0.381 -0.0115  0.2011 -0.0765
 6940WAT      O28479   3.870   3.536   7.188 -0.2719 -0.5779 -0.6727
 6940WAT     H128480   3.900   3.609   7.226 -0.7131 -1.2917  1.1456
 6940WAT     H228481   3.942   3.493   7.165 -0.0032  0.1349 -1.1800
 6940WAT    EPW28482   3.885   3.541   7.190 -0.2974 -0.5781 -0.4790
 6941WAT      O28483   6.079   1.922   7.352  0.4542 -0.4203 -0.1784
 6941WAT     H128484   6.035   1.975   7.299 -0.4500 -1.8542 -0.9216
 6941WAT     H228485   6.021   1.905   7.415  1.3325  0.8255  1.0313
 6941WAT    EPW28486   6.064   1.927   7.354  0.4504 -0.4481 -0.1095
 6942WAT      O28487   4.209   4.145   6.454  0.2697 -0.4546 -0.4107
 6942WAT     H128488   4.208   4.170   6.538  0.8081  0.7721 -0.7493
 6942WAT     H228489   4.201   4.221   6.410 -0.0481 -1.0787 -1.4723
 6942WAT    EPW28490   4.207   4.160   6.460  0.3023 -0.3656 -0.6176
 6943WAT      O28491   4.150   7.500   6.578  0.0643  0.2380 -0.1976
 6943WAT     H128492   4.160   7.427   6.625  3.3333  2.1042  2.3883
 6943WAT     H228493   4.072   7.529   6.604 -0.8262 -1.7050 -0.4777
 6943WAT    EPW28494   4.140   7.493   6.589  0.4157  0.2266  0.1430
 6944WAT      O28495   1.077   4.524   4.543  0.0174 -0.2645  0.1356
 6944WAT     H128496   1.157   4.489   4.537 -0.8992 -2.5770  0.6517
 6944WAT     H228497   1.045   4.517   4.462  0.4766  1.1879 -0.2133
 6944WAT    EPW28498   1.084   4.518   4.530 -0.0502 -0.3915  0.1603
 6945WAT      O28499   0.117   3.198   7.322 -0.1246 -0.1456 -0.0727
 6945WAT     H128500   0.092   3.135   7.266  0.1608 -0.3999  0.0857
 6945WAT     H228501   0.147   3.154   7.390 -2.7271  0.0988  1.3778
 6945WAT    EPW28502   0.118   3.182   7.324 -0.4669 -0.1470  0.1649
 6946WAT      O28503   5.762   7.399   2.953  0.1027  0.0819  0.5348
 6946WAT     H128504   5.761   7.458   2.888  0.5843 -2.0314 -1.5393
 6946WAT     H228505   5.844   7.369   2.951  0.6214  1.0076  3.2753
 6946WAT    EPW28506   5.774   7.403   2.943  0.2505 -0.0935  0.6332
 6947WAT      O28507   3.546   6.161   6.639 -0.3049 -0.1386 -0.2818
 6947WAT     H128508   3.522   6.082   6.611 -0.3664 -0.9100  1.7822
 6947WAT     H228509   3.626   6.149   6.671  0.5166  1.1145 -1.7408
 6947WAT    EPW28510   3.554   6.148   6.640 -0.1926 -0.0674 -0.1924
 6948WAT      O28511   7.744   6.511   7.824  0.6084  0.2184 -0.1299
 6948WAT     H128512   7.828   6.526   7.842  1.3593  0.3327 -3.1585
 6948WAT     H228513   7.703   6.583   7.851  1.6338  0.6227  0.3898
 6948WAT    EPW28514   7.750   6.524   7.831  0.8708  0.2950 -0.5005
 6949WAT      O28515   2.114   5.900   5.938 -0.6758  0.5362  0.6361
 6949WAT     H128516   2.029   5.908   5.920 -0.7462 -1.6134 -0.2172
 6949WAT     H228517   2.122   5.819   5.968  1.0342  0.8362  1.1223
 6949WAT    EPW28518   2.102   5.889   5.940 -0.4336  0.2630  0.5819
 6950WAT      O28519   3.306   0.127   3.968 -0.6011  0.0029 -0.4731
 6950WAT     H128520   3.242   0.183   3.950 -1.1987 -0.2977  0.5825
 6950WAT     H228521   3.379   0.170   3.945 -1.1783  0.2601 -1.9047
 6950WAT    EPW28522   3.308   0.142   3.962 -0.7746 -0.0035 -0.5286
 6951WAT      O28523   2.978   3.611   2.175  0.2556  0.1770  0.5248
 6951WAT     H128524   2.979   3.698   2.174  1.8208  0.1874 -0.9952
 6951WAT     H228525   3.019   3.589   2.101  0.2427 -1.8483  1.0672
 6951WAT    EPW28526   2.984   3.621   2.164  0.4849 -0.1207  0.3804
 6952WAT      O28527   2.758   2.218   4.878 -0.1046  0.2145 -0.3574
 6952WAT     H128528   2.793   2.285   4.922  0.5637 -1.8866  2.6431
 6952WAT     H228529   2.805   2.214   4.805  1.2845  1.6714  0.3954
 6952WAT    EPW28530   2.770   2.227   4.874  0.1993  0.1193  0.1971
 6953WAT      O28531   1.840   6.705   1.796  0.2301  0.0525 -0.1986
 6953WAT     H128532   1.873   6.785   1.803 -0.0090  0.0560  0.9574
 6953WAT     H228533   1.754   6.717   1.803  0.2193 -0.3545  0.3865
 6953WAT    EPW28534   1.832   6.718   1.798  0.1932 -0.0071  0.0586
 6954WAT      O28535   5.431   3.826   6.073 -0.6318  0.5666  0.5638
 6954WAT     H128536   5.379   3.760   6.050 -1.0358  0.7492  0.9338
 6954WAT     H228537   5.484   3.835   6.005 -0.5500 -0.1623  0.5176
 6954WAT    EPW28538   5.431   3.817   6.060 -0.6794  0.4859  0.6116
 6955WAT      O28539   6.923   1.496   4.325  0.3364  0.6414 -0.4264
 6955WAT     H128540   6.904   1.541   4.252 -0.9583 -0.2934 -0.7041
 6955WAT     H228541   6.994   1.451   4.304  0.7623  1.3912 -0.6457
 6955WAT    EPW28542   6.931   1.496   4.311  0.2081  0.6140 -0.4998
 6956WAT      O28543   1.236   6.030   7.415  0.1706  0.0306 -0.2292
 6956WAT     H128544   1.238   6.117   7.418  0.0403  0.1072 -1.6591
 6956WAT     H228545   1.216   6.007   7.497 -1.0470  1.4018 -0.0970
 6956WAT    EPW28546   1.233   6.039   7.427 -0.0286  0.2445 -0.4209
 6957WAT      O28547   4.354   3.855   6.751 -0.6536 -0.3326 -0.2613
 6957WAT     H128548   4.355   3.771   6.776  0.0065 -0.5750 -1.0619
 6957WAT     H228549   4.408   3.893   6.809  0.0257 -0.6936 -0.6466
 6957WAT    EPW28550   4.362   3.848   6.763 -0.4558 -0.4218 -0.4365
 6958WAT      O28551   3.170   5.414   7.562  0.3565  0.0390  0.1758
 6958WAT     H128552   3.170   5.400   7.648  2.9677 -0.6340  0.1570
 6958WAT     H228553   3.180   5.334   7.529 -1.5984  0.1729 -0.8488
 6958WAT    EPW28554   3.172   5.400   7.570  0.4535 -0.0406  0.0217
 6959WAT      O28555   1.677   6.770   1.579  0.0855 -0.0391 -0.1177
 6959WAT     H128556   1.732   6.786   1.644 -0.6201 -0.0611  0.4939
 6959WAT     H228557   1.712   6.814   1.512 -0.5798  2.2888  0.9347
 6959WAT    EPW28558   1.690   6.779   1.579 -0.1170  0.3015  0.1281
 6960WAT      O28559   2.481   1.636   3.956 -0.1151  0.2394 -0.4922
 6960WAT     H128560   2.423   1.583   3.917 -0.6443  0.4253  0.0285
 6960WAT     H228561   2.487   1.602   4.037  0.1545  0.4961 -0.4067
 6960WAT    EPW28562   2.473   1.623   3.962 -0.1534  0.3048 -0.4027
 6961WAT      O28563   4.303   5.740   1.115  0.4083 -0.5106 -0.4730
 6961WAT     H128564   4.367   5.704   1.069 -0.5631 -0.9774 -1.5021
 6961WAT     H228565   4.285   5.681   1.176  2.1258  0.3728  0.9917
 6961WAT    EPW28566   4.310   5.726   1.117  0.5185 -0.4490 -0.4087
 6962WAT      O28567   2.926   1.612   1.491 -0.2580 -0.3764  0.3149
 6962WAT     H128568   2.933   1.644   1.410 -0.2387  0.7413  0.7421
 6962WAT     H228569   3.004   1.574   1.504  0.0968  0.2692  0.1406
 6962WAT    EPW28570   2.939   1.611   1.481 -0.2028 -0.1159  0.3522
 6963WAT      O28571   0.671   6.468   0.202  0.5211 -0.7960 -0.5292
 6963WAT     H128572   0.723   6.454   0.134  2.2463  0.5109  0.4267
 6963WAT     H228573   0.663   6.555   0.205 -0.8018 -0.9033  0.0561
 6963WAT    EPW28574   0.677   6.479   0.193  0.5805 -0.6188 -0.3016
 6964WAT      O28575   2.701   4.630   6.250 -0.0911 -0.2189 -0.2262
 6964WAT     H128576   2.770   4.604   6.297 -1.0499 -1.4890  0.5663
 6964WAT     H228577   2.642   4.567   6.266 -1.6254  1.1212 -0.4178
 6964WAT    EPW28578   2.703   4.617   6.260 -0.4594 -0.2086 -0.1374
 6965WAT      O28579   5.344   0.222   7.586  0.1965  0.3265  0.3154
 6965WAT     H128580   5.330   0.204   7.670  1.6427  0.3565  0.5892
 6965WAT     H228581   5.321   0.148   7.545  0.9478 -0.2558  0.9054
 6965WAT    EPW28582   5.338   0.208   7.592  0.5211  0.2449  0.4430
 6966WAT      O28583   2.153   2.290   0.843 -0.5446 -0.0192  0.1552
 6966WAT     H128584   2.086   2.294   0.787 -1.3591 -1.4588  0.9752
 6966WAT     H228585   2.120   2.247   0.911  0.3888  1.7473  1.8167
 6966WAT    EPW28586   2.138   2.284   0.844 -0.5270  0.0291  0.5218
 6967WAT      O28587   3.315   4.335   6.202  0.0229  0.0843  0.0598
 6967WAT     H128588   3.296   4.418   6.183 -0.3445  0.1145  0.5430
 6967WAT     H228589   3.287   4.291   6.132 -1.6476  0.1519  0.6473
 6967WAT    EPW28590   3.308   4.341   6.189 -0.2781  0.0987  0.2180
 6968WAT      O28591   3.670   6.992   6.670  0.5032  0.4719  0.2595
 6968WAT     H128592   3.727   7.038   6.622  3.1704 -2.0301  0.7466
 6968WAT     H228593   3.658   6.919   6.624 -2.6324  0.9406  0.0904
 6968WAT    EPW28594   3.677   6.988   6.656  0.4340  0.1716  0.3065
 6969WAT      O28595   5.240   7.054   4.306  0.5720  0.3623  0.4707
 6969WAT     H128596   5.216   7.118   4.251 -1.1971 -0.2965  0.3948
 6969WAT     H228597   5.177   7.055   4.367  1.2604 -0.4102  1.2160
 6969WAT    EPW28598   5.227   7.064   4.307  0.4123  0.1508  0.5696
 6970WAT      O28599   3.442   7.385   4.637  0.5386 -0.4730  0.1000
 6970WAT     H128600   3.365   7.414   4.607  0.1587  0.2244  1.6473
 6970WAT     H228601   3.427   7.300   4.653  1.1973 -1.3234 -2.9347
 6970WAT    EPW28602   3.428   7.376   4.635  0.5798 -0.4956 -0.1197
 6971WAT      O28603   2.145   6.753   5.107  0.4201  0.0962  0.7180
 6971WAT     H128604   2.179   6.673   5.097  0.9421  0.3893  0.0802
 6971WAT     H228605   2.210   6.799   5.143 -0.2508 -0.0345  2.1381
 6971WAT    EPW28606   2.160   6.748   5.110  0.3981  0.1202  0.8335
 6972WAT      O28607   2.194   6.271   5.750 -0.4760 -0.3707 -0.5424
 6972WAT     H128608   2.266   6.319   5.739 -0.8282 -0.2213 -2.4246
 6972WAT     H228609   2.144   6.293   5.683 -3.3049  1.2050  1.8488
 6972WAT    EPW28610   2.197   6.281   5.738 -0.9459 -0.1159 -0.4672
 6973WAT      O28611   3.991   2.386   0.859 -0.0005 -0.1404 -0.2759
 6973WAT     H128612   4.002   2.381   0.945 -0.5037 -0.2187 -0.2107
 6973WAT     H228613   4.008   2.305   0.831  1.9289  0.2941 -0.4820
 6973WAT    EPW28614   3.995   2.373   0.867  0.2102 -0.0878 -0.2967
 6974WAT      O28615   1.299   7.229   7.562  0.0704  0.0238 -0.0539
 6974WAT     H128616   1.293   7.179   7.490  0.4242 -0.5607  0.3184
 6974WAT     H228617   1.228   7.279   7.557  0.8531  1.0685 -1.6082
 6974WAT    EPW28618   1.288   7.229   7.550  0.2383  0.0918 -0.2285
 6975WAT      O28619   5.346   6.499   4.213 -1.0577  0.0512  0.1370
 6975WAT     H128620   5.331   6.545   4.285  0.4572 -0.6014  0.9230
 6975WAT     H228621   5.429   6.472   4.223 -0.4117  0.8621 -2.3720
 6975WAT    EPW28622   5.356   6.501   4.225 -0.7385  0.0746 -0.1175
 6976WAT      O28623   4.085   2.750   5.586  0.4998  0.2473 -0.5940
 6976WAT     H128624   4.131   2.676   5.583 -1.3162 -0.9174 -1.1506
 6976WAT     H228625   4.121   2.800   5.523  2.3402  0.2686  0.4034
 6976WAT    EPW28626   4.097   2.747   5.576  0.5034  0.0784 -0.5289
 6977WAT      O28627   6.318   4.833   5.310 -0.3078  0.5502  0.1346
 6977WAT     H128628   6.353   4.836   5.231 -0.9755  0.9140 -0.1548
 6977WAT     H228629   6.372   4.781   5.355 -0.9406 -1.2554 -1.0778
 6977WAT    EPW28630   6.331   4.826   5.305 -0.4999  0.3372 -0.0873
 6978WAT      O28631   4.823   0.756   3.633  0.0234  0.2704  0.3076
 6978WAT     H128632   4.790   0.767   3.553  1.8336  0.9918 -0.3973
 6978WAT     H228633   4.764   0.794   3.685 -1.3381 -0.4891 -0.6138
 6978WAT    EPW28634   4.810   0.763   3.629  0.0897  0.2648  0.0674
 6979WAT      O28635   3.382   6.725   6.546  0.0583 -0.2475 -0.1438
 6979WAT     H128636   3.349   6.804   6.563  1.1998  0.5439 -1.4070
 6979WAT     H228637   3.312   6.673   6.549 -0.9283  0.9949 -0.4120
 6979WAT    EPW28638   3.367   6.729   6.549  0.0812  0.0529 -0.3700
 6980WAT      O28639   5.953   2.411   0.052  0.6020  0.1152 -0.4577
 6980WAT     H128640   6.022   2.452   0.019  0.3791  0.5905 -0.3444
 6980WAT     H228641   5.956   2.430   0.137  0.4126  0.0258 -0.4296
 6980WAT    EPW28642   5.963   2.420   0.060  0.5411  0.1722 -0.4369
 6981WAT      O28643   5.171   2.095   0.423 -0.0493 -0.5192  0.0522
 6981WAT     H128644   5.098   2.049   0.435  0.1740 -1.4500 -1.7041
 6981WAT     H228645   5.181   2.139   0.497 -3.3320  1.0054 -0.2670
 6981WAT    EPW28646   5.162   2.095   0.436 -0.5012 -0.4315 -0.2544
 6982WAT      O28647   5.853   4.645   1.046  0.2083  0.2294  0.7586
 6982WAT     H128648   5.780   4.631   1.000 -0.5694  1.2180  1.6268
 6982WAT     H228649   5.840   4.599   1.119  0.0039  1.1444  1.3229
 6982WAT    EPW28650   5.840   4.636   1.050  0.0632  0.5106  0.9702
 6983WAT      O28651   6.195   6.369   6.566 -0.0282  0.1290 -0.4447
 6983WAT     H128652   6.204   6.428   6.502 -3.2589  0.1104 -1.0464
 6983WAT     H228653   6.265   6.318   6.556  0.9488  1.6679 -2.2562
 6983WAT    EPW28654   6.207   6.370   6.555 -0.3611  0.3536 -0.8012
 6984WAT      O28655   2.911   2.573   7.321 -0.5550  0.1795  0.1813
 6984WAT     H128656   2.832   2.541   7.303 -0.2649 -0.0828 -0.6721
 6984WAT     H228657   2.964   2.532   7.265  0.3636 -0.4167  1.4183
 6984WAT    EPW28658   2.907   2.562   7.310 -0.3765  0.0527  0.2379
 6985WAT      O28659   2.699   2.770   7.098  0.2177 -0.1548 -0.3520
 6985WAT     H128660   2.690   2.691   7.135 -0.3229  0.4186  0.7822
 6985WAT     H228661   2.730   2.752   7.019 -2.1738 -1.6745 -1.0250
 6985WAT    EPW28662   2.703   2.756   7.092 -0.2154 -0.2946 -0.2839
 6986WAT      O28663   2.924   3.921   4.097  0.4654 -0.6978  0.2286
 6986WAT     H128664   2.890   3.889   4.171  0.5049 -0.5187  0.3234
 6986WAT     H228665   2.901   3.862   4.037 -2.9363  1.0034 -0.3813
 6986WAT    EPW28666   2.916   3.907   4.099 -0.0312 -0.4200  0.1525
 6987WAT      O28667   1.114   1.656   7.169 -0.1706 -0.2736  0.0644
 6987WAT     H128668   1.173   1.592   7.181  0.2113  0.2095  0.8279
 6987WAT     H228669   1.146   1.722   7.215 -0.1135  0.7753 -1.4018
 6987WAT    EPW28670   1.128   1.656   7.177 -0.1058 -0.0473 -0.0394
 6988WAT      O28671   2.269   3.974   4.821 -0.0780  0.7589  0.3330
 6988WAT     H128672   2.205   3.919   4.844  0.7752 -1.2208 -1.5893
 6988WAT     H228673   2.323   3.972   4.889  0.0746 -1.1063  0.2256
 6988WAT    EPW28674   2.267   3.965   4.834  0.0706  0.1909  0.0332
 6989WAT      O28675   1.532   7.183   4.864 -0.6778  0.2479  0.5539
 6989WAT     H128676   1.512   7.240   4.802 -0.2202 -0.1805  0.0016
 6989WAT     H228677   1.492   7.110   4.838  0.6246 -0.3059  0.0359
 6989WAT    EPW28678   1.523   7.180   4.851 -0.4178  0.1028  0.3958
 6990WAT      O28679   0.992   4.908   7.833 -0.3025 -0.6691 -0.2407
 6990WAT     H128680   1.031   4.867   7.900  0.8885  0.8268  0.0334
 6990WAT     H228681   0.911   4.922   7.862 -0.4748 -2.0204 -0.0093
 6990WAT    EPW28682   0.986   4.904   7.847 -0.1520 -0.6477 -0.1660
 6991WAT      O28683   2.783   5.324   1.153  0.0187  0.1461  0.3421
 6991WAT     H128684   2.745   5.348   1.228  1.7241  0.7275  1.0806
 6991WAT     H228685   2.716   5.317   1.097 -1.2571  0.1141  1.7964
 6991WAT    EPW28686   2.767   5.326   1.156  0.0822  0.2273  0.6660
 6992WAT      O28687   2.768   3.885   0.177 -0.0057  0.1604 -0.7926
 6992WAT     H128688   2.756   3.866   0.261  1.6445  2.4425  0.0572
 6992WAT     H228689   2.722   3.958   0.165 -0.8610 -0.5463 -2.1360
 6992WAT    EPW28690   2.759   3.893   0.188  0.1117  0.3931 -0.8655
 6993WAT      O28691   3.609   7.574   5.761  0.2023  0.3406 -0.2334
 6993WAT     H128692   3.557   7.505   5.773  0.5450 -0.1164 -1.3006
 6993WAT     H228693   3.564   7.625   5.707  0.8802 -0.1006 -1.2383
 6993WAT    EPW28694   3.594   7.571   5.755  0.3531  0.2079 -0.5395
 6994WAT      O28695   0.429   2.957   7.375  0.4803 -0.1218  0.1647
 6994WAT     H128696   0.350   2.994   7.369  0.9903  0.9403 -0.2179
 6994WAT     H228697   0.418   2.879   7.337 -0.8251 -0.7549  1.7238
 6994WAT    EPW28698   0.416   2.951   7.369  0.3628 -0.0584  0.3385
 6995WAT      O28699   5.486   5.870   5.549 -0.1909  0.2782  0.4522
 6995WAT     H128700   5.455   5.918   5.483 -0.1661  1.4054  1.2428
 6995WAT     H228701   5.486   5.789   5.516  0.7343  0.9170 -1.2851
 6995WAT    EPW28702   5.481   5.865   5.534 -0.0506  0.5391  0.3123
 6996WAT      O28703   6.129   6.765   7.595 -0.1295 -0.4108  0.3564
 6996WAT     H128704   6.069   6.702   7.604 -0.8011 -0.4557 -3.0451
 6996WAT     H228705   6.192   6.726   7.550  0.3021  0.8479 -0.1723
 6996WAT    EPW28706   6.129   6.750   7.590 -0.1650 -0.2315 -0.2242
 6997WAT      O28707   2.272   1.152   5.228 -0.3735  0.4516 -0.1387
 6997WAT     H128708   2.249   1.165   5.311 -1.0824  0.5649 -0.3518
 6997WAT     H228709   2.326   1.219   5.212  2.3488 -1.2292  1.1647
 6997WAT    EPW28710   2.277   1.164   5.238 -0.0761  0.2201  0.0224
 6998WAT      O28711   5.130   4.644   5.976 -0.0099  0.6224 -0.0267
 6998WAT     H128712   5.144   4.706   5.916  0.2250  0.2131 -0.4045
 6998WAT     H228713   5.045   4.652   5.995 -0.0634  0.8187 -0.3379
 6998WAT    EPW28714   5.120   4.655   5.970  0.0169  0.5909 -0.1285
 6999WAT      O28715   6.515   6.031   6.303  0.2104  0.0924 -0.8019
 6999WAT     H128716   6.460   6.008   6.240  1.6258 -1.3446 -1.5858
 6999WAT     H228717   6.554   6.102   6.272  0.1726 -0.0199 -1.1116
 6999WAT    EPW28718   6.512   6.038   6.289  0.4139 -0.1365 -0.9634
 7000WAT      O28719   2.646   5.555   1.330 -0.1100  0.1748  0.0827
 7000WAT     H128720   2.600   5.615   1.373  2.2532  2.2210 -0.0095
 7000WAT     H228721   2.635   5.577   1.246 -0.9491 -0.8873 -0.0982
 7000WAT    EPW28722   2.638   5.567   1.324  0.1151  0.3201  0.0424
 7001WAT      O28723   3.867   5.839   6.472 -0.1481 -0.0398  0.4263
 7001WAT     H128724   3.920   5.787   6.519 -1.1014 -1.4639 -0.0038
 7001WAT     H228725   3.868   5.803   6.393 -0.2445  1.0749 -0.1008
 7001WAT    EPW28726   3.875   5.826   6.467 -0.3031 -0.0855  0.2849
 7002WAT      O28727   0.351   2.067   7.527 -0.0541 -0.6085 -0.0568
 7002WAT     H128728   0.432   2.098   7.535 -0.4923  0.2069  1.8352
 7002WAT     H228729   0.301   2.130   7.561 -1.5359 -0.9771 -1.4188
 7002WAT    EPW28730   0.356   2.081   7.534 -0.3377 -0.5425  0.0215
 7003WAT      O28731   2.190   3.900   6.030  0.1714 -0.3155  0.4908
 7003WAT     H128732   2.146   3.828   6.006  1.2190 -1.3106  1.4338
 7003WAT     H228733   2.272   3.871   6.040  0.7495  1.1634  0.2545
 7003WAT    EPW28734   2.195   3.885   6.028  0.4116 -0.2440  0.5952
 7004WAT      O28735   0.636   0.100   7.626 -0.3561  0.3266 -0.5169
 7004WAT     H128736   0.694   0.040   7.600  1.9514  1.6951  1.1098
 7004WAT     H228737   0.685   0.160   7.667 -2.9406  1.6299  0.9302
 7004WAT    EPW28738   0.652   0.100   7.628 -0.3970  0.7213 -0.0628
 7005WAT      O28739   4.255   6.285   0.724  0.0632 -0.2053  0.3687
 7005WAT     H128740   4.208   6.252   0.658 -0.3141 -1.7962  1.3693
 7005WAT     H228741   4.197   6.329   0.772  0.3027  0.8001 -0.2430
 7005WAT    EPW28742   4.240   6.286   0.721  0.0428 -0.2918  0.4262
 7006WAT      O28743   3.764   6.899   3.658  0.4462  0.5093  0.0258
 7006WAT     H128744   3.712   6.956   3.618 -0.7393 -1.0861 -0.7893
 7006WAT     H228745   3.825   6.881   3.598  0.0493 -0.0758 -0.2066
 7006WAT    EPW28746   3.765   6.905   3.643  0.2124  0.1872 -0.1289
 7007WAT      O28747   1.870   5.334   4.110  0.5755 -0.1971  0.6865
 7007WAT     H128748   1.884   5.402   4.164  0.1666 -0.1581  0.7469
 7007WAT     H228749   1.788   5.347   4.082  0.6733 -0.3931  0.3073
 7007WAT    EPW28750   1.860   5.346   4.114  0.5295 -0.2203  0.6394
 7008WAT      O28751   2.729   6.170   4.733  0.0807  0.7385  0.0871
 7008WAT     H128752   2.700   6.110   4.789  0.6837  1.5331  1.2969
 7008WAT     H228753   2.659   6.222   4.722  0.4468  1.6124  1.5684
 7008WAT    EPW28754   2.714   6.169   4.740  0.2238  0.9850  0.4846
 7009WAT      O28755   1.979   4.235   4.698 -0.0244 -0.5648 -0.2688
 7009WAT     H128756   1.975   4.284   4.770 -0.0668  2.6468 -2.3096
 7009WAT     H228757   2.065   4.232   4.681  0.1815 -2.8438  0.7494
 7009WAT    EPW28758   1.991   4.242   4.706 -0.0003 -0.4270 -0.4199
 7010WAT      O28759   1.577   4.502   7.311  0.6295  0.3570 -0.5430
 7010WAT     H128760   1.585   4.499   7.398 -0.6616  0.6315 -0.3829
 7010WAT     H228761   1.639   4.557   7.287  1.1762  0.0773  0.1794
 7010WAT    EPW28762   1.587   4.510   7.321  0.5196  0.3562 -0.4126
 7011WAT      O28763   4.472   3.279   7.452 -0.0768  0.0181  0.2123
 7011WAT     H128764   4.460   3.257   7.368  1.2939  0.0668 -0.0169
 7011WAT     H228765   4.496   3.204   7.489  1.7653  0.4819  0.0272
 7011WAT    EPW28766   4.474   3.265   7.445  0.3978  0.0938  0.1511
 7012WAT      O28767   2.497   6.146   2.185 -0.4969 -0.3851  0.5818
 7012WAT     H128768   2.558   6.189   2.230 -1.4761  0.3745  1.2122
 7012WAT     H228769   2.473   6.203   2.123  0.5963 -1.2927 -0.7527
 7012WAT    EPW28770   2.502   6.161   2.182 -0.4801 -0.4070  0.4778
 7013WAT      O28771   5.977   3.248   7.451 -0.2793 -0.1813  0.2090
 7013WAT     H128772   5.933   3.181   7.486 -0.3214  0.4031  1.3142
 7013WAT     H228773   6.045   3.210   7.413  0.3428 -0.7841  1.8388
 7013WAT    EPW28774   5.980   3.233   7.451 -0.1936 -0.1840  0.6130
 7014WAT      O28775   2.010   0.348   5.588  0.3237  0.6063 -0.2452
 7014WAT     H128776   1.972   0.309   5.655 -0.5521  0.9525 -0.5176
 7014WAT     H228777   1.944   0.391   5.549  0.8691  0.6895 -1.1187
 7014WAT    EPW28778   1.995   0.349   5.592  0.2749  0.6697 -0.4145
 7015WAT      O28779   6.308   0.552   4.078 -0.2074 -0.0965 -0.1627
 7015WAT     H128780   6.306   0.465   4.072 -2.2066 -0.1926  1.2700
 7015WAT     H228781   6.294   0.568   4.162 -2.8509  1.6108 -0.7871
 7015WAT    EPW28782   6.306   0.542   4.089 -0.8933  0.1415 -0.0433
 7016WAT      O28783   6.656   3.128   3.880 -0.3359  0.2127 -0.1305
 7016WAT     H128784   6.680   3.178   3.948 -0.3144  0.2338 -0.1537
 7016WAT     H228785   6.732   3.104   3.844 -0.3632  1.3946 -1.0235
 7016WAT    EPW28786   6.671   3.132   3.885 -0.3367  0.3904 -0.2658
 7017WAT      O28787   4.719   7.363   2.557  0.4149  0.1022  0.4066
 7017WAT     H128788   4.668   7.393   2.622 -1.6690 -0.4266 -0.8875
 7017WAT     H228789   4.689   7.282   2.544  0.3385  0.4126 -1.6111
 7017WAT    EPW28790   4.707   7.356   2.565  0.0957  0.0700 -0.0826
 7018WAT      O28791   1.433   0.566   5.896  0.4039  0.0595 -0.0034
 7018WAT     H128792   1.448   0.505   5.957  0.3992 -0.0288 -0.0900
 7018WAT     H228793   1.379   0.621   5.935  0.8839  0.3363  0.2884
 7018WAT    EPW28794   1.427   0.565   5.911  0.4741  0.0874  0.0269
 7019WAT      O28795   4.703   4.174   6.102 -0.5000 -0.0667  0.2793
 7019WAT     H128796   4.770   4.155   6.155 -0.6919 -1.4319  0.0925
 7019WAT     H228797   4.634   4.171   6.155 -0.4452  1.0798  0.4215
 7019WAT    EPW28798   4.703   4.171   6.117 -0.5203 -0.0990  0.2727
 7020WAT      O28799   2.165   6.947   6.750  0.1848  0.5697 -0.4279
 7020WAT     H128800   2.114   6.956   6.821  1.3879 -0.3750  0.6120
 7020WAT     H228801   2.242   6.979   6.775  1.0559 -1.1257 -0.7442
 7020WAT    EPW28802   2.169   6.953   6.764  0.4912  0.1797 -0.3210
 7021WAT      O28803   3.755   4.224   1.878 -0.6418  0.3384 -0.3061
 7021WAT     H128804   3.801   4.268   1.938  0.7142 -1.7203  0.2599
 7021WAT     H228805   3.704   4.173   1.926 -1.8370  0.8687 -0.9569
 7021WAT    EPW28806   3.754   4.223   1.894 -0.6180  0.1126 -0.3186
 7022WAT      O28807   1.550   3.143   6.203 -0.1119 -0.4494 -0.0094
 7022WAT     H128808   1.525   3.060   6.209 -0.3107 -0.3739  0.2571
 7022WAT     H228809   1.505   3.174   6.135  0.0423 -0.5891 -0.1730
 7022WAT    EPW28810   1.539   3.136   6.194 -0.1185 -0.4589  0.0058
 7023WAT      O28811   0.610   3.266   5.125 -0.1169 -0.3001 -0.1954
 7023WAT     H128812   0.645   3.293   5.050 -2.7828  0.0773 -1.4412
 7023WAT     H228813   0.606   3.338   5.174  0.9284 -0.3835  0.0268
 7023WAT    EPW28814   0.615   3.280   5.121 -0.3563 -0.2567 -0.3466
 7024WAT      O28815   0.828   0.356   5.333 -0.3543 -0.4261 -0.0231
 7024WAT     H128816   0.902   0.401   5.345  1.4596 -3.4297  1.1745
 7024WAT     H228817   0.806   0.333   5.414 -2.9457  0.7018 -0.3148
 7024WAT    EPW28818   0.836   0.360   5.347 -0.4692 -0.7032  0.1107
 7025WAT      O28819   1.884   0.643   6.292  0.2673 -0.1829  0.7726
 7025WAT     H128820   1.814   0.646   6.240  1.3548 -0.7579 -0.7802
 7025WAT     H228821   1.890   0.559   6.315 -0.3114  0.0952  2.0299
 7025WAT    EPW28822   1.875   0.631   6.288  0.3424 -0.2267  0.7289
 7026WAT      O28823   2.242   5.226   1.838 -0.2489  0.3248  0.0245
 7026WAT     H128824   2.257   5.299   1.793  0.7263 -0.6671 -1.3673
 7026WAT     H228825   2.155   5.219   1.839 -0.3148  0.2363 -2.0347
 7026WAT    EPW28826   2.232   5.236   1.832 -0.1146  0.1652 -0.4853
 7027WAT      O28827   5.084   1.422   6.338 -0.1534 -0.4725  0.1332
 7027WAT     H128828   5.151   1.431   6.393  1.2404  2.2722 -1.8050
 7027WAT     H228829   5.030   1.487   6.359 -0.8131 -0.9076 -0.1735
 7027WAT    EPW28830   5.086   1.433   6.349 -0.0450 -0.1313 -0.1984
 7028WAT      O28831   1.934   0.937   2.646  0.5321 -0.2119  0.0458
 7028WAT     H128832   1.997   0.963   2.700  1.7603 -1.6778 -0.5922
 7028WAT     H228833   1.961   0.967   2.568 -1.2469  1.9370  0.1475
 7028WAT    EPW28834   1.947   0.945   2.642  0.4507 -0.1110 -0.0334
 7029WAT      O28835   3.153   4.180   5.609 -0.2304 -0.0581  0.0757
 7029WAT     H128836   3.117   4.225   5.543  0.2547  1.0713  0.5643
 7029WAT     H228837   3.089   4.125   5.633 -1.2079  1.0771  0.1452
 7029WAT    EPW28838   3.138   4.178   5.603 -0.3032  0.2764  0.1581
 7030WAT      O28839   3.779   1.501   5.514  0.3348  0.3817 -0.4202
 7030WAT     H128840   3.722   1.464   5.460  0.6171  1.3894 -1.4330
 7030WAT     H228841   3.842   1.441   5.521 -0.0630 -0.0648 -0.5794
 7030WAT    EPW28842   3.780   1.487   5.507  0.3178  0.4646 -0.5933
 7031WAT      O28843   2.238   4.908   1.112 -0.0782  0.0982  0.0161
 7031WAT     H128844   2.202   4.844   1.065 -0.6979 -0.5170  1.2627
 7031WAT     H228845   2.257   4.869   1.188 -0.7893  1.4575  0.9421
 7031WAT    EPW28846   2.235   4.893   1.117 -0.2748  0.2081  0.3371
 7032WAT      O28847   3.056   6.156   3.407  0.1458  0.4145  0.2134
 7032WAT     H128848   2.971   6.141   3.421  0.2588  0.3729  0.9016
 7032WAT     H228849   3.056   6.226   3.356 -0.3058  0.5918  0.4472
 7032WAT    EPW28850   3.044   6.164   3.402  0.0957  0.4345  0.3496
 7033WAT      O28851   1.111   4.764   6.377 -0.5306 -0.1872  0.1861
 7033WAT     H128852   1.166   4.802   6.322 -0.0327  0.2982  1.0010
 7033WAT     H228853   1.128   4.803   6.453 -2.2754  0.2708  0.3889
 7033WAT    EPW28854   1.122   4.775   6.380 -0.7148 -0.0478  0.3364
 7034WAT      O28855   1.950   1.158   3.274  0.0152  0.0660 -1.0851
 7034WAT     H128856   1.951   1.103   3.206 -0.7309 -0.6890 -0.5165
 7034WAT     H228857   1.907   1.113   3.335  1.6366  0.2812  0.2688
 7034WAT    EPW28858   1.944   1.143   3.273  0.1445 -0.0138 -0.8011
 7035WAT      O28859   4.212   5.825   6.596 -0.1045  0.3067  0.3959
 7035WAT     H128860   4.296   5.846   6.611 -0.1632  0.2244  0.8643
 7035WAT     H228861   4.177   5.900   6.566  0.5231 -0.1054 -1.4939
 7035WAT    EPW28862   4.219   5.839   6.594 -0.0205  0.2337  0.1860
 7036WAT      O28863   6.716   5.234   4.560 -0.4665  0.1281 -0.1395
 7036WAT     H128864   6.753   5.282   4.623  1.1355 -1.1625 -0.0421
 7036WAT     H228865   6.693   5.160   4.601 -0.7451 -0.1431 -0.7691
 7036WAT    EPW28866   6.718   5.230   4.575 -0.2710 -0.1026 -0.2181
 7037WAT      O28867   3.458   0.015   6.863  0.0032 -0.0509  0.0801
 7037WAT     H128868   3.379   0.052   6.861  0.3871  0.9045  1.1928
 7037WAT     H228869   3.441  -0.070   6.867 -0.9484  0.0967 -0.4726
 7037WAT    EPW28870   3.444   0.008   6.863 -0.0807  0.1120  0.1628
 7038WAT      O28871   4.573   7.641   6.008 -0.8046 -0.1280  0.0125
 7038WAT     H128872   4.635   7.603   6.056 -1.9413 -2.7408 -0.4346
 7038WAT     H228873   4.514   7.667   6.066 -0.8748 -0.7581  0.2275
 7038WAT    EPW28874   4.574   7.639   6.023 -0.9829 -0.6071 -0.0218
 7039WAT      O28875   4.110   0.097   4.824  0.5162  0.3861  0.0079
 7039WAT     H128876   4.119   0.039   4.889 -0.0487  0.5900  0.2728
 7039WAT     H228877   4.153   0.061   4.758 -1.9136 -1.5864 -0.6553
 7039WAT    EPW28878   4.118   0.083   4.824  0.0738  0.1248 -0.0509
 7040WAT      O28879   6.015   2.826   7.848 -0.2285  0.2748  0.0283
 7040WAT     H128880   5.991   2.817   7.765  0.3021 -0.0018 -0.1018
 7040WAT     H228881   5.941   2.842   7.890 -0.5098  0.3217 -0.4874
 7040WAT    EPW28882   6.001   2.827   7.842 -0.1917  0.2409 -0.0671
 7041WAT      O28883   6.327   6.835   4.206 -0.3106 -0.2824  0.0422
 7041WAT     H128884   6.359   6.755   4.195  0.3167 -0.0685  0.2727
 7041WAT     H228885   6.244   6.827   4.180 -0.5123 -1.2174  0.8908
 7041WAT    EPW28886   6.319   6.822   4.201 -0.2477 -0.3889  0.2016
 7042WAT      O28887   5.507   3.922   1.000  0.1407 -0.2873 -0.0338
 7042WAT     H128888   5.447   3.977   0.969 -0.1915  0.0216  1.1085
 7042WAT     H228889   5.471   3.844   0.987 -0.4020 -0.1158  0.3912
 7042WAT    EPW28890   5.493   3.919   0.994  0.0114 -0.2164  0.1977
 7043WAT      O28891   3.225   2.163   0.806 -0.2064  0.1492 -0.0257
 7043WAT     H128892   3.281   2.177   0.741 -0.6775  0.9475 -0.2844
 7043WAT     H228893   3.201   2.080   0.796  1.1909 -0.3148  0.3191
 7043WAT    EPW28894   3.229   2.153   0.795 -0.0696  0.1986 -0.0130
 7044WAT      O28895   1.926   0.465   3.350 -0.0258 -0.1076 -0.5199
 7044WAT     H128896   1.920   0.536   3.401 -1.6979  0.3562 -1.2830
 7044WAT     H228897   1.925   0.498   3.269  0.9376 -0.9270 -0.8734
 7044WAT    EPW28898   1.925   0.481   3.346 -0.1305 -0.1601 -0.6849
 7045WAT      O28899   4.990   0.338   1.970  0.5122  0.2541  0.1851
 7045WAT     H128900   4.925   0.284   1.950  0.9828 -0.5910  0.8638
 7045WAT     H228901   4.980   0.404   1.913 -1.4658  0.5958  0.8314
 7045WAT    EPW28902   4.979   0.340   1.959  0.2895  0.1797  0.3808
 7046WAT      O28903   4.580   5.794   4.097  0.0181  0.0611 -0.9377
 7046WAT     H128904   4.629   5.735   4.056 -1.2149 -2.1664  0.5686
 7046WAT     H228905   4.503   5.790   4.055 -0.5046 -0.4768  0.0391
 7046WAT    EPW28906   4.575   5.785   4.085 -0.2412 -0.3474 -0.5709
 7047WAT      O28907   3.353   1.184   5.032 -0.5593 -0.3716 -0.1529
 7047WAT     H128908   3.352   1.108   4.990  1.0502  0.3441 -1.6142
 7047WAT     H228909   3.434   1.191   5.062 -0.7391  0.6583  0.1431
 7047WAT    EPW28910   3.365   1.174   5.030 -0.3481 -0.1137 -0.3251
 7048WAT      O28911   2.480   2.182   1.092 -0.4059 -0.1792 -0.0676
 7048WAT     H128912   2.442   2.160   1.168  2.6795  1.1565  2.0837
 7048WAT     H228913   2.439   2.256   1.069 -1.9557 -1.0547 -0.2335
 7048WAT    EPW28914   2.468   2.190   1.100 -0.1790 -0.1113  0.2257
 7049WAT      O28915   0.687   7.166   0.005 -0.3032 -0.3232 -0.6694
 7049WAT     H128916   0.690   7.252  -0.005 -0.4775 -0.4990 -2.4609
 7049WAT     H228917   0.771   7.142   0.006 -0.1983 -0.4516 -3.8319
 7049WAT    EPW28918   0.699   7.175   0.004 -0.3135 -0.3681 -1.4012
 7050WAT      O28919   2.546   3.713   3.291 -0.3239 -0.3941 -0.0167
 7050WAT     H128920   2.605   3.686   3.232  0.3563 -2.6595  1.5781
 7050WAT     H228921   2.588   3.776   3.333 -0.3025  0.2817 -1.0034
 7050WAT    EPW28922   2.561   3.718   3.288 -0.2202 -0.6289  0.0731
 7051WAT      O28923   1.335   6.542   4.358  0.1225  0.4693 -0.3428
 7051WAT     H128924   1.259   6.506   4.335 -0.3337  0.4743  1.0804
 7051WAT     H228925   1.360   6.496   4.427  0.2908  1.8528  0.5687
 7051WAT    EPW28926   1.327   6.530   4.365  0.0800  0.6744  0.0021
 7052WAT      O28927   6.809   5.975   7.145 -0.0728 -0.0658 -0.2065
 7052WAT     H128928   6.759   5.924   7.195  0.7318 -0.3423  0.3471
 7052WAT     H228929   6.890   5.944   7.159  0.4364  1.3346  0.1320
 7052WAT    EPW28930   6.814   5.963   7.155  0.1212  0.1002 -0.0747
 7053WAT      O28931   5.249   6.309   5.045  0.4030 -0.2097 -0.3053
 7053WAT     H128932   5.330   6.280   5.031  0.8353 -0.8868  2.8029
 7053WAT     H228933   5.260   6.382   5.090 -0.7067 -0.1993 -0.0113
 7053WAT    EPW28934   5.262   6.315   5.049  0.3029 -0.3082  0.1972
 7054WAT      O28935   4.058   7.207   0.482 -0.2521 -0.5723  0.0140
 7054WAT     H128936   4.131   7.255   0.477  1.1705 -2.6612 -0.7458
 7054WAT     H228937   4.024   7.213   0.402  0.0156 -0.9420 -0.1300
 7054WAT    EPW28938   4.064   7.215   0.470 -0.0024 -0.9355 -0.1195
 7055WAT      O28939   5.737   0.966   6.034 -0.8207 -0.1374  0.0872
 7055WAT     H128940   5.658   0.983   6.065 -0.1540  1.4673  1.0510
 7055WAT     H228941   5.790   0.982   6.102  1.0164  6.0849 -2.0123
 7055WAT    EPW28942   5.733   0.971   6.049 -0.4508  1.0188 -0.0805
 7056WAT      O28943   2.233   6.155   5.996  0.0447  0.1277  0.0820
 7056WAT     H128944   2.213   6.074   5.974  2.1065 -0.1756 -0.9661
 7056WAT     H228945   2.224   6.200   5.921  3.2921 -0.1234 -0.5999
 7056WAT    EPW28946   2.229   6.150   5.982  0.8290  0.0458 -0.1736
 7057WAT      O28947   6.352   7.500   5.866  0.0306 -0.6713  0.2316
 7057WAT     H128948   6.395   7.427   5.849  1.5734  0.1210  0.6014
 7057WAT     H228949   6.290   7.474   5.923  1.5389 -1.4547  1.6002
 7057WAT    EPW28950   6.349   7.486   5.872  0.4813 -0.6700  0.4884
 7058WAT      O28951   6.165   1.447   3.112  0.6104 -0.6379  0.5827
 7058WAT     H128952   6.193   1.415   3.188  1.7498  0.1688  0.5302
 7058WAT     H228953   6.090   1.405   3.099 -1.1974  1.3517  3.5926
 7058WAT    EPW28954   6.158   1.436   3.121  0.5117 -0.2248  1.0196
 7059WAT      O28955   1.167   2.538   5.531 -0.1081 -0.1965  0.6571
 7059WAT     H128956   1.229   2.556   5.472 -0.7711  1.6171  0.4559
 7059WAT     H228957   1.174   2.452   5.543  1.2815 -0.2984 -0.6611
 7059WAT    EPW28958   1.177   2.528   5.524 -0.0008  0.0564  0.4326
 7060WAT      O28959   2.742   5.938   6.180 -0.3441  0.2407 -0.2791
 7060WAT     H128960   2.714   5.962   6.259 -1.1778  0.5176 -0.6514
 7060WAT     H228961   2.811   5.990   6.166  0.2043 -0.2404  0.5175
 7060WAT    EPW28962   2.748   5.949   6.190 -0.3862  0.2105 -0.2164
 7061WAT      O28963   2.779   6.736   6.597  0.3426 -0.2583  0.7062
 7061WAT     H128964   2.845   6.685   6.622  0.3361 -0.7435 -0.1953
 7061WAT     H228965   2.776   6.723   6.510  0.8707  1.9016  0.3232
 7061WAT    EPW28966   2.789   6.726   6.588  0.4197 -0.0109  0.5165
 7062WAT      O28967   3.297   5.988   3.717 -0.4097 -0.1241  0.4956
 7062WAT     H128968   3.244   6.057   3.717 -0.0669  0.1441  1.4257
 7062WAT     H228969   3.377   6.022   3.718 -0.2228 -0.5347  0.1898
 7062WAT    EPW28970   3.301   6.003   3.717 -0.3314 -0.1451  0.5878
 7063WAT      O28971   6.438   5.362   3.619  0.0568  0.0094 -0.0138
 7063WAT     H128972   6.376   5.353   3.680 -0.4346 -1.6516 -0.6976
 7063WAT     H228973   6.513   5.358   3.665 -0.3081  0.3540  0.6290
 7063WAT    EPW28974   6.440   5.360   3.635 -0.0697 -0.1850 -0.0199
 7064WAT      O28975   0.780   0.713   4.490 -0.1351 -0.1615  0.4616
 7064WAT     H128976   0.775   0.644   4.437  0.7986  0.8574 -1.0256
 7064WAT     H228977   0.845   0.691   4.545  1.6856  0.3535 -1.3742
 7064WAT    EPW28978   0.789   0.699   4.491  0.2718  0.0651 -0.0293
 7065WAT      O28979   3.769   6.259   2.392  0.4682 -0.0772 -0.5826
 7065WAT     H128980   3.790   6.288   2.471  1.9467  0.1400 -1.0131
 7065WAT     H228981   3.831   6.200   2.375  0.1592 -0.1373 -1.5634
 7065WAT    EPW28982   3.781   6.255   2.401  0.6409 -0.0540 -0.7911
 7066WAT      O28983   7.197   6.264   4.776 -0.4723 -0.4004  0.0919
 7066WAT     H128984   7.117   6.289   4.753 -0.8665 -1.3553  0.3745
 7066WAT     H228985   7.200   6.280   4.861 -0.6302 -1.0420  0.2219
 7066WAT    EPW28986   7.186   6.270   4.785 -0.5539 -0.6362  0.1528
 7067WAT      O28987   6.214   5.543   7.287 -0.5335  0.1168 -0.7160
 7067WAT     H128988   6.249   5.586   7.354 -1.2265 -1.3710  0.6624
 7067WAT     H228989   6.131   5.533   7.311 -0.9338  0.0310 -2.0765
 7067WAT    EPW28990   6.207   5.548   7.301 -0.6950 -0.1156 -0.7134
 7068WAT      O28991   3.505   4.205   6.423 -0.3829 -0.3224  0.1582
 7068WAT     H128992   3.458   4.262   6.378 -1.1300 -0.5373  0.6346
 7068WAT     H228993   3.451   4.137   6.432  1.1514 -1.9960 -2.1334
 7068WAT    EPW28994   3.490   4.203   6.418 -0.2666 -0.6013 -0.1099
 7069WAT      O28995   2.119   6.688   5.427 -0.0018 -0.2884 -0.1676
 7069WAT     H128996   2.130   6.741   5.359  0.2448 -0.7167 -0.4665
 7069WAT     H228997   2.190   6.700   5.476 -0.5010  0.5472  0.3946
 7069WAT    EPW28998   2.131   6.697   5.424 -0.0391 -0.2283 -0.1287
 7070WAT      O28999   2.682   4.379   3.282  0.0745  0.4041  0.6855
 7070WAT     H129000   2.643   4.341   3.350 -1.8543 -1.3532 -1.2458
 7070WAT     H229001   2.754   4.332   3.270  0.2258  0.4860  1.2657
 7070WAT    EPW29002   2.686   4.367   3.290 -0.1881  0.1566  0.4859
 7071WAT      O29003   4.765   7.126   3.282 -0.7547 -0.4911 -0.4898
 7071WAT     H129004   4.768   7.041   3.299  0.5025 -0.3822 -0.0023
 7071WAT     H229005   4.816   7.135   3.212  0.6380  0.0384  0.5201
 7071WAT    EPW29006   4.773   7.115   3.274 -0.3632 -0.3968 -0.2686
 7072WAT      O29007   5.292   4.370   1.024  0.5217  0.1318  0.5430
 7072WAT     H129008   5.345   4.440   1.032  0.3150  0.2356  1.0158
 7072WAT     H229009   5.213   4.405   1.013  0.0696  0.0203  2.8731
 7072WAT    EPW29010   5.288   4.386   1.023  0.4244  0.1307  0.9571
 7073WAT      O29011   2.340   0.956   7.172  0.0535  0.0175  0.0733
 7073WAT     H129012   2.384   0.906   7.229  1.4808 -1.1714 -1.9281
 7073WAT     H229013   2.338   0.907   7.099 -2.3829  1.1303 -0.7267
 7073WAT    EPW29014   2.346   0.941   7.170 -0.0956  0.0062 -0.3405
 7074WAT      O29015   4.660   5.078   5.990 -0.1909  0.1626 -0.6884
 7074WAT     H129016   4.698   5.009   6.028 -0.9688 -1.1474 -2.1329
 7074WAT     H229017   4.658   5.138   6.053  0.5741 -1.1190  0.6294
 7074WAT    EPW29018   4.665   5.077   6.005 -0.1928 -0.2203 -0.7071
 7075WAT      O29019   5.939   5.914   5.859  0.0985  0.6238 -0.2538
 7075WAT     H129020   5.870   5.910   5.806  0.3220 -0.9151 -0.4857
 7075WAT     H229021   5.958   5.830   5.875  2.0087  0.9706 -0.3586
 7075WAT    EPW29022   5.932   5.901   5.853  0.4137  0.4477 -0.3036
 7076WAT      O29023   1.456   5.138   6.470  0.2228  0.1672  0.5084
 7076WAT     H129024   1.538   5.161   6.486  0.7365 -2.0677  1.5529
 7076WAT     H229025   1.421   5.128   6.549 -1.3065  1.6825  0.0871
 7076WAT    EPW29026   1.463   5.140   6.484  0.0728  0.0609  0.6004
 7077WAT      O29027   3.728   1.974   7.192 -0.9598  0.1036 -0.3599
 7077WAT     H129028   3.761   2.052   7.171 -0.4105  0.4960  1.7593
 7077WAT     H229029   3.652   1.994   7.230 -0.6764 -0.3792  0.4579
 7077WAT    EPW29030   3.721   1.989   7.194 -0.8368  0.0903  0.0740
 7078WAT      O29031   7.685   4.254   7.743  0.2484 -0.3646 -0.3552
 7078WAT     H129032   7.628   4.209   7.791  1.3342  1.9642  3.6635
 7078WAT     H229033   7.761   4.216   7.761  0.4815 -0.8342 -2.2082
 7078WAT    EPW29034   7.688   4.242   7.753  0.4432 -0.0899 -0.0353
 7079WAT      O29035   4.967   0.225   5.536  0.2083 -0.5652  0.6653
 7079WAT     H129036   5.046   0.250   5.562  0.2179 -1.5355  1.6440
 7079WAT     H229037   4.982   0.175   5.466  0.1830  2.0705 -1.3974
 7079WAT    EPW29038   4.981   0.222   5.529  0.2060 -0.3192  0.5052
 7080WAT      O29039   4.944   2.019   4.727 -0.1982 -0.0557 -0.3390
 7080WAT     H129040   4.976   2.050   4.652 -1.6855 -0.8191 -1.3357
 7080WAT     H229041   5.015   2.005   4.776  1.0405 -1.6676 -2.4256
 7080WAT    EPW29042   4.960   2.021   4.723 -0.2349 -0.4066 -0.7944
 7081WAT      O29043   0.585   7.652   5.231 -0.0159 -0.2498  0.1848
 7081WAT     H129044   0.512   7.616   5.203 -0.6959  2.1977 -1.5238
 7081WAT     H229045   0.584   7.732   5.196  2.9550  0.2797  0.9692
 7081WAT    EPW29046   0.574   7.659   5.222  0.3225  0.1900  0.0483
 7082WAT      O29047   6.774   1.296   4.022 -0.1997  0.4734 -0.1395
 7082WAT     H129048   6.754   1.372   3.984 -3.1821 -1.2104 -2.2850
 7082WAT     H229049   6.763   1.313   4.107 -2.1967  2.1019 -0.6455
 7082WAT    EPW29050   6.770   1.310   4.029 -0.9353  0.4652 -0.5312
 7083WAT      O29051   2.308   1.798   6.153  0.2196  0.2923  0.1636
 7083WAT     H129052   2.379   1.850   6.149  0.0922  0.4025 -1.1923
 7083WAT     H229053   2.314   1.761   6.231  0.4580  2.1621  1.0784
 7083WAT    EPW29054   2.320   1.800   6.164  0.2360  0.5848  0.0985
 7084WAT      O29055   5.437   4.474   7.095  0.7186 -0.3298 -0.3752
 7084WAT     H129056   5.512   4.499   7.131  0.9956 -0.3920 -0.8989
 7084WAT     H229057   5.398   4.549   7.073  1.3485 -0.3212 -1.5417
 7084WAT    EPW29058   5.442   4.488   7.097  0.8526 -0.3377 -0.6249
 7085WAT      O29059   4.945   4.747   3.604  0.3413 -0.2092  0.6348
 7085WAT     H129060   4.983   4.795   3.542  1.3174 -0.6960  0.8419
 7085WAT     H229061   4.912   4.679   3.561  0.3307 -0.1526  0.5531
 7085WAT    EPW29062   4.945   4.744   3.589  0.4839 -0.2728  0.6533
 7086WAT      O29063   2.763   5.789   0.898 -0.5344 -0.5171  0.2061
 7086WAT     H129064   2.730   5.817   0.822  0.8856 -0.5274 -0.4636
 7086WAT     H229065   2.847   5.814   0.894 -0.3466 -0.8299  1.6247
 7086WAT    EPW29066   2.771   5.797   0.886 -0.2969 -0.5648  0.3167
 7087WAT      O29067   2.441   7.359   3.931 -0.9419 -0.3200 -0.1105
 7087WAT     H129068   2.526   7.380   3.940 -0.3841 -2.1894 -0.4881
 7087WAT     H229069   2.415   7.347   4.013 -0.5345 -0.7806 -0.0430
 7087WAT    EPW29070   2.450   7.360   3.945 -0.7993 -0.6642 -0.1563
 7088WAT      O29071   2.238   5.692   5.043 -0.0907 -0.3029 -0.0840
 7088WAT     H129072   2.221   5.772   5.015 -1.3361 -0.7858 -0.7706
 7088WAT     H229073   2.325   5.691   5.050 -0.0538  1.0767 -0.0990
 7088WAT    EPW29074   2.248   5.703   5.040 -0.2692 -0.1705 -0.1876
 7089WAT      O29075   2.912   6.097   0.217 -0.0100  0.1350 -0.3351
 7089WAT     H129076   2.880   6.026   0.257 -0.2186 -1.2574 -2.7500
 7089WAT     H229077   2.958   6.064   0.151 -0.7358  2.2512 -2.0117
 7089WAT    EPW29078   2.914   6.082   0.213 -0.1480  0.2419 -0.9395
 7090WAT      O29079   2.203   6.783   0.307 -0.1355 -0.2621  0.2049
 7090WAT     H129080   2.141   6.742   0.261 -0.4166  2.3007 -1.9795
 7090WAT     H229081   2.161   6.852   0.340  1.4595  1.7411 -1.6262
 7090WAT    EPW29082   2.187   6.787   0.305  0.0586  0.4124 -0.3883
 7091WAT      O29083   5.279   6.595   5.151 -0.0608 -0.0404  0.6252
 7091WAT     H129084   5.358   6.584   5.186  0.5008 -2.7574 -1.1453
 7091WAT     H229085   5.296   6.599   5.065 -1.7720  0.4790  0.2775
 7091WAT    EPW29086   5.293   6.594   5.143 -0.2306 -0.3651  0.3123
 7092WAT      O29087   4.399   7.544   5.157 -0.0215  0.0132 -0.4204
 7092WAT     H129088   4.325   7.563   5.114 -1.2035  0.1758  1.5469
 7092WAT     H229089   4.457   7.600   5.124 -1.0902  0.6883 -1.2060
 7092WAT    EPW29090   4.397   7.555   5.146 -0.3540  0.1370 -0.2459
 7093WAT      O29091   2.202   6.053   5.258 -0.2825  0.0455 -0.3568
 7093WAT     H129092   2.275   6.096   5.279 -0.2382  0.7157 -1.8286
 7093WAT     H229093   2.192   5.997   5.325  1.4983  0.0247 -0.0542
 7093WAT    EPW29094   2.212   6.051   5.271 -0.0129  0.1415 -0.5295
 7094WAT      O29095   3.576   5.666   1.845  0.0854  0.4402  0.5634
 7094WAT     H129096   3.611   5.710   1.912  1.4538  0.4219 -0.1178
 7094WAT     H229097   3.490   5.676   1.857  0.3287  1.3977  1.6784
 7094WAT    EPW29098   3.568   5.674   1.857  0.3235  0.5789  0.6275
 7095WAT      O29099   0.648   3.294   6.806 -0.3322 -0.3378 -0.4782
 7095WAT     H129100   0.562   3.286   6.793 -0.6605  2.2740 -0.4592
 7095WAT     H229101   0.679   3.316   6.727  0.4676 -1.8417 -0.6284
 7095WAT    EPW29102   0.640   3.296   6.792 -0.2625 -0.1742 -0.4975
 7096WAT      O29103   2.540   5.880   3.063  0.1092 -0.7495 -0.1956
 7096WAT     H129104   2.532   5.964   3.039  1.6731 -0.9473 -1.6008
 7096WAT     H229105   2.601   5.882   3.125  1.0456 -0.9397 -1.0819
 7096WAT    EPW29106   2.548   5.893   3.068  0.4785 -0.8068 -0.5341
 7097WAT      O29107   2.607   0.061   2.536  0.1100  0.5350 -0.1849
 7097WAT     H129108   2.679   0.023   2.507 -0.1412 -1.0182  1.0812
 7097WAT     H229109   2.546   0.000   2.527 -0.5519  0.9951  0.8798
 7097WAT    EPW29110   2.608   0.047   2.530 -0.0249  0.3735  0.1594
 7098WAT      O29111   4.707   3.796   2.712 -0.1862  0.3061  0.9508
 7098WAT     H129112   4.629   3.820   2.682 -0.1021 -0.7213 -0.1689
 7098WAT     H229113   4.689   3.738   2.775 -0.3436 -0.0963  0.5438
 7098WAT    EPW29114   4.693   3.791   2.717 -0.1970  0.0949  0.7253
 7099WAT      O29115   3.173   5.099   2.539 -0.2325  0.3648  0.0283
 7099WAT     H129116   3.118   5.040   2.507 -0.9148 -0.4631  2.5582
 7099WAT     H229117   3.175   5.082   2.624  2.0285  1.9776  0.3901
 7099WAT    EPW29118   3.165   5.088   2.547  0.0007  0.4807  0.4554
 7100WAT      O29119   0.923   0.441   3.626  0.1823  0.2514  1.0730
 7100WAT     H129120   0.963   0.483   3.561 -0.5170  0.6069  0.8682
 7100WAT     H229121   0.972   0.369   3.636 -1.0357 -1.0566 -1.5074
 7100WAT    EPW29122   0.936   0.436   3.618 -0.1010  0.1107  0.6616
 7101WAT      O29123   3.726   1.707   3.580 -0.2624 -0.3056  0.2289
 7101WAT     H129124   3.674   1.648   3.618 -1.4810 -0.2083 -1.1916
 7101WAT     H229125   3.685   1.724   3.505  1.6330  0.0768 -0.7701
 7101WAT    EPW29126   3.712   1.701   3.575 -0.1624 -0.2348 -0.1285
 7102WAT      O29127   0.742   6.405   0.499  0.0205  0.0289  0.1150
 7102WAT     H129128   0.717   6.440   0.424  0.6692  0.9362  0.3030
 7102WAT     H229129   0.726   6.469   0.557 -0.9192 -0.8286  0.8223
 7102WAT    EPW29130   0.736   6.420   0.497 -0.0225  0.0362  0.2472
 7103WAT      O29131   1.284   1.527   7.738 -0.0479  0.2233 -0.1786
 7103WAT     H129132   1.279   1.440   7.738  0.6503 -0.0854  4.5408
 7103WAT     H229133   1.355   1.544   7.786 -1.4833  3.3074  1.1295
 7103WAT    EPW29134   1.294   1.517   7.745 -0.1568  0.6333  0.7118
 7104WAT      O29135   6.095   1.997   2.581  0.1188 -0.8544  0.1903
 7104WAT     H129136   6.155   2.020   2.641 -0.9846 -0.4569  1.1762
 7104WAT     H229137   6.092   1.910   2.588  0.4009 -0.8546  0.3254
 7104WAT    EPW29138   6.103   1.988   2.591 -0.0025 -0.7957  0.3559
 7105WAT      O29139   1.695   1.255   5.826 -0.0085 -0.2635 -0.3157
 7105WAT     H129140   1.711   1.333   5.862 -2.4543  0.4836 -0.6585
 7105WAT     H229141   1.702   1.269   5.741 -0.4954 -0.3915 -0.3805
 7105WAT    EPW29142   1.698   1.269   5.819 -0.4417 -0.1720 -0.3759
 7106WAT      O29143   2.908   1.180   6.428 -0.1785  0.0005 -0.0288
 7106WAT     H129144   2.923   1.146   6.507  0.0882  0.4365  0.1135
 7106WAT     H229145   2.880   1.112   6.381 -4.1146  0.3266  1.4315
 7106WAT    EPW29146   2.906   1.165   6.433 -0.7206  0.1131  0.2079
 7107WAT      O29147   3.487   4.674   3.500  0.7132  0.0560  0.7892
 7107WAT     H129148   3.493   4.635   3.423  1.2339  0.1304  0.7905
 7107WAT     H229149   3.505   4.758   3.482  1.5944 -0.0542  1.1059
 7107WAT    EPW29150   3.490   4.681   3.486  0.9203  0.0507  0.8362
 7108WAT      O29151   5.340   3.814   3.572  0.0318  0.1459 -0.1902
 7108WAT     H129152   5.348   3.890   3.615  1.3234 -0.6084  0.9720
 7108WAT     H229153   5.254   3.801   3.569 -0.2766  2.0645 -1.1792
 7108WAT    EPW29154   5.329   3.823   3.578  0.1770  0.3179 -0.1646
 7109WAT      O29155   2.671   2.659   4.352  0.1574 -0.3758 -0.1755
 7109WAT     H129156   2.629   2.704   4.414 -3.6141 -2.0455 -1.2360
 7109WAT     H229157   2.744   2.632   4.393 -0.6276  1.1640  2.5101
 7109WAT    EPW29158   2.675   2.662   4.367 -0.5157 -0.3950  0.0645
 7110WAT      O29159   4.656   0.651   5.310 -0.4086 -0.5469  0.2231
 7110WAT     H129160   4.594   0.621   5.256 -0.7871  0.5177  0.0418
 7110WAT     H229161   4.619   0.721   5.347  0.6873  0.1448  0.0632
 7110WAT    EPW29162   4.641   0.657   5.307 -0.3026 -0.2874  0.1727
 7111WAT      O29163   5.906   4.538   6.743  0.3129  0.0708  0.2113
 7111WAT     H129164   5.934   4.514   6.823  1.1931 -0.2775 -0.1926
 7111WAT     H229165   5.820   4.549   6.755  0.3948 -0.1666  1.1660
 7111WAT    EPW29166   5.897   4.536   6.757  0.4550 -0.0157  0.2927
 7112WAT      O29167   3.565   5.650   6.264  0.2512  0.1113 -0.4632
 7112WAT     H129168   3.506   5.708   6.293 -0.9227 -1.1607 -0.1932
 7112WAT     H229169   3.632   5.700   6.240 -0.3848  1.5194  0.5228
 7112WAT    EPW29170   3.566   5.666   6.265 -0.0162  0.1314 -0.2776
 7113WAT      O29171   1.946   6.028   1.670  0.2802  0.2145  0.3476
 7113WAT     H129172   1.894   6.078   1.620  0.1340  0.1726  0.4577
 7113WAT     H229173   1.890   5.986   1.722  0.1619 -1.7676 -1.2247
 7113WAT    EPW29174   1.930   6.029   1.670  0.2411 -0.0845  0.1316
 7114WAT      O29175   2.035   5.606   2.371  0.0422  0.1215  0.0002
 7114WAT     H129176   1.962   5.589   2.415 -0.0294  0.7461  0.1289
 7114WAT     H229177   2.042   5.693   2.375  0.1691  0.1702 -0.9925
 7114WAT    EPW29178   2.025   5.617   2.378  0.0504  0.2210 -0.1275
 7115WAT      O29179   2.672   2.651   3.306  0.0056  0.1590 -0.3114
 7115WAT     H129180   2.700   2.715   3.254 -1.7156  1.2316  0.0479
 7115WAT     H229181   2.702   2.673   3.385 -0.5494  0.4988 -0.1955
 7115WAT    EPW29182   2.681   2.663   3.310 -0.3306  0.3676 -0.2412
 7116WAT      O29183   3.648   1.371   0.512 -0.0872 -0.1873 -0.0849
 7116WAT     H129184   3.573   1.326   0.521  0.1523 -0.9470 -1.5704
 7116WAT     H229185   3.707   1.321   0.552 -0.3287  0.3780  1.0264
 7116WAT    EPW29186   3.645   1.357   0.519 -0.0875 -0.2160 -0.1402
 7117WAT      O29187   4.178   7.340   4.645  0.3877 -0.4152 -0.9483
 7117WAT     H129188   4.142   7.272   4.604 -2.2060  0.6922 -0.6577
 7117WAT     H229189   4.116   7.401   4.643  1.8813  1.2634  0.5655
 7117WAT    EPW29190   4.164   7.339   4.639  0.2252 -0.0036 -0.6818
 7118WAT      O29191   1.696   4.533   0.397 -0.3576  0.5442 -0.2572
 7118WAT     H129192   1.687   4.620   0.391  0.4412  0.8239  1.7472
 7118WAT     H229193   1.778   4.519   0.373 -0.7215  0.2009 -1.3765
 7118WAT    EPW29194   1.707   4.544   0.393 -0.2933  0.5348 -0.1264
 7119WAT      O29195   1.659   6.807   5.919 -0.6698 -0.0740  0.0754
 7119WAT     H129196   1.647   6.786   6.003  2.0578 -0.1260  0.5460
 7119WAT     H229197   1.696   6.736   5.885 -1.0027  0.2415 -0.9869
 7119WAT    EPW29198   1.663   6.793   5.926 -0.3161 -0.0351 -0.0120
 7120WAT      O29199   3.369   6.724   5.344 -0.0537  0.2860  0.2680
 7120WAT     H129200   3.325   6.764   5.409 -0.8433 -0.1694  0.0344
 7120WAT     H229201   3.371   6.784   5.281  1.1826  0.9223  0.8855
 7120WAT    EPW29202   3.363   6.739   5.344  0.0123  0.3127  0.3247
 7121WAT      O29203   4.938   0.431   1.493  0.7397 -0.5289  0.4113
 7121WAT     H129204   4.952   0.420   1.407 -0.1377  1.3828 -0.0394
 7121WAT     H229205   4.866   0.383   1.507 -1.0176  1.5877 -0.7100
 7121WAT    EPW29206   4.929   0.422   1.482  0.3505  0.0662  0.1791
 7122WAT      O29207   4.671   2.879   6.540 -0.1882  0.2030 -0.9566
 7122WAT     H129208   4.724   2.942   6.510 -0.6657 -0.1228 -2.6126
 7122WAT     H229209   4.599   2.888   6.490  0.1165 -2.2626 -1.9689
 7122WAT    EPW29210   4.668   2.890   6.528 -0.2137 -0.2093 -1.3508
 7123WAT      O29211   4.905   6.085   0.465  0.1841 -0.2647  0.2089
 7123WAT     H129212   4.937   6.146   0.410 -0.8815 -0.7238 -0.9498
 7123WAT     H229213   4.823   6.110   0.477 -0.8817 -2.4378 -1.8115
 7123WAT    EPW29214   4.898   6.098   0.458 -0.1308 -0.6535 -0.2607
 7124WAT      O29215   2.363   5.523   3.086 -0.0341  0.0387  0.1718
 7124WAT     H129216   2.398   5.485   3.156  2.3697  3.3735  1.0741
 7124WAT     H229217   2.316   5.589   3.119 -1.9132 -0.4715 -1.3156
 7124WAT    EPW29218   2.361   5.527   3.101  0.0434  0.4560  0.0854
 7125WAT      O29219   6.095   7.165   4.504  0.0074 -0.0613  0.1362
 7125WAT     H129220   6.082   7.078   4.499 -1.9412  0.2071 -0.4583
 7125WAT     H229221   6.072   7.193   4.424  1.1540  0.9772  0.1418
 7125WAT    EPW29222   6.090   7.156   4.491 -0.1111  0.1318  0.0492
 7126WAT      O29223   7.165   5.917   7.567 -0.3329 -0.0224 -0.7652
 7126WAT     H129224   7.137   5.973   7.506 -0.2832  1.7723  0.7845
 7126WAT     H229225   7.226   5.871   7.525 -0.7331  0.7126 -2.2439
 7126WAT    EPW29226   7.170   5.919   7.552 -0.3847  0.3513 -0.7547
 7127WAT      O29227   7.104   4.241   6.475  0.2284  0.3662  0.5181
 7127WAT     H129228   7.050   4.309   6.468  0.0520  0.1429 -0.4210
 7127WAT     H229229   7.097   4.201   6.397  1.3127  0.0148  0.5848
 7127WAT    EPW29230   7.095   4.245   6.462  0.3625  0.2813  0.3892
 7128WAT      O29231   5.047   3.309   5.495  0.3533  0.0532  0.3872
 7128WAT     H129232   5.026   3.231   5.461 -1.6424  0.5354  0.3929
 7128WAT     H229233   5.057   3.359   5.424 -0.5509  0.2913  0.4208
 7128WAT    EPW29234   5.046   3.305   5.479 -0.0751  0.1596  0.3930
 7129WAT      O29235   1.600   4.514   5.088  0.8215  0.1394  0.4614
 7129WAT     H129236   1.657   4.494   5.152  0.6885 -2.1767 -0.0599
 7129WAT     H229237   1.544   4.568   5.127  2.4386  1.2246  1.4280
 7129WAT    EPW29238   1.600   4.519   5.103  1.0407 -0.0424  0.5272
 7130WAT      O29239   1.774   5.780   6.356 -0.0185  0.0904 -0.2866
 7130WAT     H129240   1.729   5.840   6.312  1.2043  1.2086 -0.0719
 7130WAT     H229241   1.849   5.821   6.377  0.6950 -1.3785  0.2035
 7130WAT    EPW29242   1.779   5.795   6.352  0.2675  0.0386 -0.1825
 7131WAT      O29243   7.553   6.085   7.767  0.4008 -0.6931 -0.5512
 7131WAT     H129244   7.568   6.060   7.849 -0.3397 -0.2989 -0.2766
 7131WAT     H229245   7.466   6.078   7.759  0.1473  1.5480 -0.5006
 7131WAT    EPW29246   7.542   6.081   7.778  0.2540 -0.3038 -0.5032
 7132WAT      O29247   5.891   5.748   5.117  0.8366  0.0419 -0.4081
 7132WAT     H129248   5.932   5.739   5.040  0.9792  1.3273 -0.5068
 7132WAT     H229249   5.820   5.699   5.108  1.7396 -1.2485 -0.6857
 7132WAT    EPW29250   5.886   5.740   5.104  0.9911  0.0411 -0.4637
 7133WAT      O29251   5.734   4.920   1.096  0.0318 -0.2289  0.4348
 7133WAT     H129252   5.762   4.998   1.124 -0.2799 -0.2591  0.8441
 7133WAT     H229253   5.794   4.864   1.127  1.2294  0.0061 -1.3464
 7133WAT    EPW29254   5.747   4.924   1.105  0.1626 -0.1986  0.2321
 7134WAT      O29255   2.525   7.282   7.257  0.5255 -0.2040  0.6680
 7134WAT     H129256   2.456   7.287   7.310  0.3468  0.4326  0.3815
 7134WAT     H229257   2.492   7.251   7.183  1.0011 -2.3984  1.3014
 7134WAT    EPW29258   2.510   7.278   7.254  0.5693 -0.4341  0.7192
 7135WAT      O29259   3.865   1.490   5.081 -0.0525  0.1217 -0.0234
 7135WAT     H129260   3.901   1.421   5.042  3.2375  1.6374  0.0370
 7135WAT     H229261   3.790   1.500   5.038 -1.1248 -3.8530  0.5013
 7135WAT    EPW29262   3.859   1.481   5.069  0.2751 -0.2416  0.0630
 7136WAT      O29263   2.429   7.532   4.804  0.0866 -0.1222 -0.0265
 7136WAT     H129264   2.479   7.566   4.741  0.8122 -1.7280 -0.3490
 7136WAT     H229265   2.453   7.448   4.808 -1.0116 -0.4216  1.3586
 7136WAT    EPW29266   2.440   7.525   4.795  0.0315 -0.4036  0.1305
 7137WAT      O29267   6.481   2.878   5.258 -0.0323  0.2328  0.2875
 7137WAT     H129268   6.449   2.863   5.179  2.5404 -1.8725 -0.4921
 7137WAT     H229269   6.451   2.958   5.278 -0.9294  0.7392 -2.6706
 7137WAT    EPW29270   6.472   2.888   5.249  0.2153 -0.0034 -0.2647
 7138WAT      O29271   0.837   6.615   4.829 -0.6896 -0.2471  0.3887
 7138WAT     H129272   0.898   6.575   4.781 -0.6594  0.2273  0.0169
 7138WAT     H229273   0.884   6.661   4.887 -0.6689  0.4923 -0.2005
 7138WAT    EPW29274   0.853   6.616   4.830 -0.6821 -0.0678  0.2468
 7139WAT      O29275   3.802   0.299   7.196  0.7755  0.2792  0.0863
 7139WAT     H129276   3.864   0.359   7.206  0.3591  0.6291  0.6156
 7139WAT     H229277   3.815   0.244   7.262  0.7110  0.1753  0.0146
 7139WAT    EPW29278   3.813   0.300   7.207  0.7045  0.3156  0.1539
 7140WAT      O29279   4.676   7.026   5.505  0.2259  0.1649  1.0292
 7140WAT     H129280   4.616   6.975   5.542  0.1450  0.2503  1.0164
 7140WAT     H229281   4.631   7.070   5.445  0.7381 -1.6003 -0.7998
 7140WAT    EPW29282   4.661   7.025   5.502  0.2896 -0.0832  0.7571
 7141WAT      O29283   0.955   3.029   5.055  0.2933 -0.0356 -0.3201
 7141WAT     H129284   1.025   2.977   5.058  0.5326  0.3085  0.2448
 7141WAT     H229285   0.974   3.092   5.112 -0.7848 -0.3127  0.3644
 7141WAT    EPW29286   0.968   3.031   5.063  0.1694 -0.0257 -0.1355
 7142WAT      O29287   4.320   4.980   7.034 -0.4989  0.4408  0.5739
 7142WAT     H129288   4.353   4.908   6.997 -1.0786 -0.5185  1.8657
 7142WAT     H229289   4.381   5.040   7.019 -1.1920  0.4887 -2.9965
 7142WAT    EPW29290   4.334   4.978   7.026 -0.6869  0.3061  0.2373
 7143WAT      O29291   5.367   7.008   3.721 -0.5105  0.8935 -0.8863
 7143WAT     H129292   5.431   6.952   3.704 -0.2795  1.6059 -2.5693
 7143WAT     H229293   5.331   7.023   3.643 -1.7293  1.6974 -0.2080
 7143WAT    EPW29294   5.371   7.002   3.707 -0.6564  1.1175 -1.0347
 7144WAT      O29295   1.504   0.838   4.492 -0.4346  0.3856 -0.2222
 7144WAT     H129296   1.511   0.922   4.514 -0.0118 -0.0355  1.3674
 7144WAT     H229297   1.585   0.814   4.472 -0.3334  0.0733  0.5113
 7144WAT    EPW29298   1.517   0.847   4.493 -0.3572  0.2772  0.1210
 7145WAT      O29299   7.305   6.971   7.796  0.3696  0.0679  0.3418
 7145WAT     H129300   7.249   6.905   7.781  0.3698 -0.0704  0.9258
 7145WAT     H229301   7.331   6.994   7.716  1.4647 -1.5746  0.1840
 7145WAT    EPW29302   7.300   6.965   7.782  0.5314 -0.1952  0.4048
 7146WAT      O29303   3.050   7.015   5.108  0.2588  0.4496 -0.3447
 7146WAT     H129304   3.046   6.948   5.163 -2.4841 -1.2264 -2.3572
 7146WAT     H229305   2.980   7.063   5.128  0.4270  0.9920 -0.9821
 7146WAT    EPW29306   3.039   7.012   5.119 -0.1215  0.2822 -0.7361
 7147WAT      O29307   2.700   4.873   2.434  0.0827  0.1298 -0.1793
 7147WAT     H129308   2.781   4.902   2.446  0.5645 -0.8636 -0.8862
 7147WAT     H229309   2.697   4.800   2.481 -0.2735 -0.0594 -0.4919
 7147WAT    EPW29310   2.711   4.867   2.442  0.1012 -0.0449 -0.3299
 7148WAT      O29311   1.157   7.417   6.929 -0.1774  0.6557  0.1921
 7148WAT     H129312   1.211   7.484   6.918  0.0931  0.6221  1.1559
 7148WAT     H229313   1.087   7.438   6.882  1.0012  0.2836 -1.8494
 7148WAT    EPW29314   1.155   7.430   6.920  0.0366  0.5958  0.0329
 7149WAT      O29315   0.905   2.662   5.451 -0.3044 -0.6114  1.0796
 7149WAT     H129316   0.907   2.669   5.364 -0.9333 -0.0560  1.1047
 7149WAT     H229317   0.958   2.594   5.467 -0.4347 -0.9209  0.2481
 7149WAT    EPW29318   0.913   2.653   5.440 -0.4166 -0.5751  0.9604
 7150WAT      O29319   1.836   7.040   0.578 -0.3617 -0.2198 -0.5856
 7150WAT     H129320   1.790   6.980   0.533 -0.5274 -1.2440  0.8987
 7150WAT     H229321   1.816   7.024   0.661  0.5194  1.1586 -0.0665
 7150WAT    EPW29322   1.826   7.029   0.583 -0.2560 -0.1675 -0.2896
 7151WAT      O29323   7.496   1.845   5.868 -0.1785  0.2814 -0.8678
 7151WAT     H129324   7.528   1.793   5.807 -0.7068 -0.1351 -0.7961
 7151WAT     H229325   7.535   1.818   5.941 -0.1992  0.2107 -0.8835
 7151WAT    EPW29326   7.506   1.834   5.870 -0.2596  0.2094 -0.8595
 7152WAT      O29327   1.694   5.735   3.484 -0.0634  0.8458 -1.2398
 7152WAT     H129328   1.610   5.718   3.470 -0.4135 -0.0348  1.4304
 7152WAT     H229329   1.727   5.744   3.404 -2.7144  1.4234 -2.3622
 7152WAT    EPW29330   1.687   5.734   3.470 -0.5067  0.8011 -1.0111
 7153WAT      O29331   3.106   6.121   4.231 -0.3334 -0.5156 -0.1420
 7153WAT     H129332   3.045   6.176   4.201  1.1046  0.6087 -1.1731
 7153WAT     H229333   3.161   6.172   4.274  1.5991 -0.8900 -1.9891
 7153WAT    EPW29334   3.105   6.136   4.233  0.1645 -0.4048 -0.5672
 7154WAT      O29335   0.953   0.087   0.363 -0.0434  0.8048 -0.0530
 7154WAT     H129336   1.003   0.015   0.369 -1.2076  0.0825  1.9886
 7154WAT     H229337   1.006   0.151   0.388  0.7472  0.5459 -1.0003
 7154WAT    EPW29338   0.968   0.086   0.368 -0.0986  0.6598  0.1086
 7155WAT      O29339   0.478   3.306   7.173  0.1445 -0.2765 -0.0772
 7155WAT     H129340   0.536   3.364   7.145 -0.7349  0.7845  0.2440
 7155WAT     H229341   0.497   3.297   7.258 -0.9115  1.0154  0.3201
 7155WAT    EPW29342   0.490   3.313   7.182 -0.1414  0.0711  0.0290
 7156WAT      O29343   3.353   4.854   1.336  0.1811  0.0567  0.1546
 7156WAT     H129344   3.363   4.906   1.405 -0.3922  0.1356  0.1853
 7156WAT     H229345   3.359   4.909   1.268  1.8020 -0.1707  0.0753
 7156WAT    EPW29346   3.355   4.870   1.336  0.3358  0.0347  0.1475
 7157WAT      O29347   4.319   5.061   2.666  0.3453  0.4113  0.6103
 7157WAT     H129348   4.257   5.053   2.605  1.2700 -0.1829 -0.2780
 7157WAT     H229349   4.382   5.105   2.626  0.5354  0.9590  1.4880
 7157WAT    EPW29350   4.319   5.066   2.651  0.5099  0.4044  0.6087
 7158WAT      O29351   0.037   6.217   7.765 -0.3606 -0.5268  0.4009
 7158WAT     H129352  -0.043   6.188   7.747  0.0234 -2.1041  1.0976
 7158WAT     H229353   0.034   6.301   7.741 -1.8310 -0.8609 -0.7403
 7158WAT    EPW29354   0.025   6.225   7.759 -0.5211 -0.8092  0.3352
 7159WAT      O29355   3.000   0.171   6.383 -0.0912 -0.2142 -0.0638
 7159WAT     H129356   3.063   0.152   6.440  0.6001  0.6485 -0.5077
 7159WAT     H229357   2.971   0.093   6.357 -1.0662 -0.6360  2.1163
 7159WAT    EPW29358   3.005   0.156   6.388 -0.1331 -0.1491  0.1927
 7160WAT      O29359   7.462   3.335   5.969 -0.2278 -0.9159  0.5410
 7160WAT     H129360   7.390   3.344   6.017 -0.1246 -1.4674  0.8153
 7160WAT     H229361   7.504   3.269   6.008 -0.0432 -1.2411 -0.1943
 7160WAT    EPW29362   7.458   3.327   5.982 -0.1853 -1.0454  0.4729
 7161WAT      O29363   6.997   3.736   3.924 -0.1477 -0.2932 -0.1605
 7161WAT     H129364   7.073   3.724   3.882 -0.1460  0.0572 -0.2604
 7161WAT     H229365   6.970   3.655   3.942  1.3796 -0.4426  1.8859
 7161WAT    EPW29366   7.004   3.723   3.921  0.0782 -0.2635  0.1270
 7162WAT      O29367   2.078   5.114   5.381 -0.8076  0.1223 -0.4244
 7162WAT     H129368   2.086   5.038   5.424 -0.0426 -0.2484 -1.2016
 7162WAT     H229369   2.142   5.163   5.414 -2.2218  1.0287  1.1930
 7162WAT    EPW29370   2.089   5.110   5.392 -0.9035  0.2014 -0.3003
 7163WAT      O29371   4.888   1.784   5.300 -0.0774 -1.0320 -0.2920
 7163WAT     H129372   4.891   1.870   5.318  2.1464 -1.3366  1.2802
 7163WAT     H229373   4.809   1.773   5.264 -1.0514  1.4039  0.8622
 7163WAT    EPW29374   4.877   1.795   5.297  0.1072 -0.7172  0.1108
 7164WAT      O29375   3.251   5.956   4.031 -0.1534  0.3555  0.5489
 7164WAT     H129376   3.262   6.017   3.969 -1.9884 -0.7994 -1.0430
 7164WAT     H229377   3.191   5.991   4.084 -0.3795  0.3827  0.2765
 7164WAT    EPW29378   3.244   5.970   4.029 -0.4579  0.1889  0.2735
 7165WAT      O29379   0.596   0.441   5.584  0.6640  0.0407 -0.0374
 7165WAT     H129380   0.626   0.359   5.585 -2.3429 -1.1972 -0.1310
 7165WAT     H229381   0.513   0.433   5.609  0.8670  3.4272  2.5182
 7165WAT    EPW29382   0.588   0.428   5.588  0.2498  0.3581  0.3263
 7166WAT      O29383   1.360   0.151   7.711 -0.2694  0.4380  0.0660
 7166WAT     H129384   1.413   0.142   7.780 -0.0246 -1.3463 -0.2998
 7166WAT     H229385   1.405   0.202   7.657  1.1129 -0.9415 -0.1901
 7166WAT    EPW29386   1.375   0.157   7.713 -0.0291 -0.0293 -0.0259
 7167WAT      O29387   2.570   3.332   5.293 -0.4246  0.1465  0.4135
 7167WAT     H129388   2.562   3.389   5.358 -0.6550  1.1701 -0.4825
 7167WAT     H229389   2.510   3.271   5.311 -0.7533  0.6211  0.9572
 7167WAT    EPW29390   2.560   3.331   5.305 -0.5072  0.3678  0.3615
 7168WAT      O29391   3.828   7.346   3.172 -0.0426 -0.1724  0.2845
 7168WAT     H129392   3.798   7.266   3.153  0.5201 -0.4232  0.4259
 7168WAT     H229393   3.817   7.391   3.098 -0.6051 -0.3059  0.2853
 7168WAT    EPW29394   3.822   7.341   3.158 -0.0426 -0.2292  0.3055
 7169WAT      O29395   2.211   5.242   3.155 -0.3603  0.1482 -0.2904
 7169WAT     H129396   2.282   5.247   3.104  0.3985 -1.2675  0.5633
 7169WAT     H229397   2.243   5.246   3.236 -1.4996  1.7708  0.1402
 7169WAT    EPW29398   2.226   5.243   3.159 -0.4165  0.1787 -0.1007
 7170WAT      O29399   4.833   1.563   7.452 -0.7816  0.0513  0.1083
 7170WAT     H129400   4.837   1.570   7.365 -0.3396  2.8161  0.2692
 7170WAT     H229401   4.916   1.561   7.477 -0.9039 -0.3982  0.4978
 7170WAT    EPW29402   4.846   1.564   7.443 -0.7344  0.3933  0.1896
 7171WAT      O29403   3.087   6.377   5.532 -0.0105 -0.2225  0.0157
 7171WAT     H129404   3.023   6.346   5.582  0.0797  0.6065  0.6609
 7171WAT     H229405   3.136   6.423   5.587 -1.0640  2.4833 -1.1552
 7171WAT    EPW29406   3.085   6.379   5.547 -0.1528  0.2997 -0.0619
 7172WAT      O29407   0.782   4.727   7.619 -0.5180  0.1206 -0.0949
 7172WAT     H129408   0.726   4.762   7.676  0.8836 -0.6910  1.8785
 7172WAT     H229409   0.835   4.794   7.598 -1.2343  0.4992 -0.7536
 7172WAT    EPW29410   0.782   4.742   7.624 -0.4167  0.0567  0.0993
 7173WAT      O29411   6.027   0.149   3.609 -0.2935  0.2029 -0.3986
 7173WAT     H129412   5.995   0.117   3.534  2.8906  1.3611 -2.4717
 7173WAT     H229413   6.110   0.123   3.607  0.4577  2.2558  1.5891
 7173WAT    EPW29414   6.034   0.140   3.597  0.2878  0.6772 -0.4112
 7174WAT      O29415   4.609   7.202   3.025  0.4516 -0.9763  0.2125
 7174WAT     H129416   4.594   7.245   2.951 -0.2074  0.0495  0.9213
 7174WAT     H229417   4.651   7.130   2.999  1.8335  0.2145 -0.9559
 7174WAT    EPW29418   4.613   7.198   3.011  0.5584 -0.6489  0.1446
 7175WAT      O29419   3.023   5.826   3.888  0.2328 -0.1393  0.3092
 7175WAT     H129420   3.013   5.850   3.805  1.8354 -0.2097  0.0656
 7175WAT     H229421   3.091   5.874   3.915 -0.9477  0.6941  1.9255
 7175WAT    EPW29422   3.032   5.837   3.880  0.2951 -0.0266  0.5120
 7176WAT      O29423   5.608   3.421   7.433  0.3601  0.4864  0.2060
 7176WAT     H129424   5.623   3.506   7.418  0.2998  0.2809 -1.1831
 7176WAT     H229425   5.578   3.419   7.515  1.2178  1.6988  0.5797
 7176WAT    EPW29426   5.606   3.433   7.443  0.4779  0.6351  0.0560
 7177WAT      O29427   2.497   3.689   3.675  0.0193 -0.7267  0.4787
 7177WAT     H129428   2.549   3.665   3.741 -0.6145  0.4555  1.4423
 7177WAT     H229429   2.547   3.744   3.629  0.6800 -2.0261 -0.4370
 7177WAT    EPW29430   2.512   3.694   3.678  0.0232 -0.7440  0.4858
 7178WAT      O29431   6.287   7.372   0.957 -0.0563 -0.1792 -0.1731
 7178WAT     H129432   6.201   7.384   0.948  0.1214  1.3103 -0.0193
 7178WAT     H229433   6.322   7.434   0.907  0.9357 -0.2502  0.4023
 7178WAT    EPW29434   6.280   7.383   0.948  0.1165  0.0304 -0.0654
 7179WAT      O29435   4.878   5.797   4.700  0.2207  0.1484 -0.5269
 7179WAT     H129436   4.849   5.878   4.712  0.4051  0.2185 -0.5423
 7179WAT     H229437   4.806   5.747   4.706  0.0610  0.3412 -0.8083
 7179WAT    EPW29438   4.863   5.801   4.702  0.2243  0.1872 -0.5707
 7180WAT      O29439   1.173   3.370   5.005  0.0642  0.1678 -0.2294
 7180WAT     H129440   1.119   3.436   5.019  0.8624  0.8129 -0.1323
 7180WAT     H229441   1.120   3.304   4.982 -0.7900  0.6557  0.2921
 7180WAT    EPW29442   1.157   3.370   5.004  0.0559  0.3352 -0.1380
 7181WAT      O29443   2.568   3.436   7.327  0.2667 -0.1140  0.4189
 7181WAT     H129444   2.597   3.391   7.395  1.3190  0.0732  0.1108
 7181WAT     H229445   2.555   3.375   7.266 -1.2767 -0.3667  0.9415
 7181WAT    EPW29446   2.570   3.421   7.328  0.1941 -0.1237  0.4506
 7182WAT      O29447   2.903   2.218   1.525 -0.1173  0.1439  0.0973
 7182WAT     H129448   2.823   2.190   1.547 -0.3004 -0.2101 -0.9160
 7182WAT     H229449   2.888   2.296   1.490 -0.2424 -0.5089 -1.4070
 7182WAT    EPW29450   2.889   2.225   1.523 -0.1628 -0.0048 -0.2746
 7183WAT      O29451   7.068   5.546   6.159  0.5384  0.2381  0.0011
 7183WAT     H129452   7.130   5.502   6.202  2.4610  0.1939 -2.5979
 7183WAT     H229453   7.011   5.484   6.135  2.3942 -0.7047 -2.2538
 7183WAT    EPW29454   7.068   5.530   6.162  1.0966  0.0923 -0.7159
 7184WAT      O29455   1.527   4.826   5.738 -0.1194  0.3859  0.4739
 7184WAT     H129456   1.449   4.790   5.752  0.3618 -0.5454  0.8360
 7184WAT     H229457   1.515   4.910   5.759 -1.1014  0.3218  0.2097
 7184WAT    EPW29458   1.514   4.833   5.743 -0.1934  0.2388  0.4884
 7185WAT      O29459   2.312   1.971   0.744 -0.7988  0.2476 -0.2710
 7185WAT     H129460   2.327   2.044   0.698 -0.9762  0.3957 -0.0968
 7185WAT     H229461   2.335   1.907   0.689  0.3340  0.4544 -0.0722
 7185WAT    EPW29462   2.318   1.972   0.729 -0.6577  0.3000 -0.2159
 7186WAT      O29463   4.211   4.636   3.942 -0.5370  0.2835 -0.1932
 7186WAT     H129464   4.207   4.717   3.976  0.0991  0.0080  0.5688
 7186WAT     H229465   4.254   4.648   3.867  0.5052  0.5172  0.4197
 7186WAT    EPW29466   4.217   4.650   3.936 -0.2891  0.2773  0.0099
 7187WAT      O29467   2.211   5.949   1.699 -0.2734 -0.0660 -0.0852
 7187WAT     H129468   2.136   5.986   1.676  0.2801  0.2256 -1.5319
 7187WAT     H229469   2.214   5.876   1.651 -0.0164 -0.5042  0.5836
 7187WAT    EPW29470   2.200   5.943   1.688 -0.1536 -0.0876 -0.2001
 7188WAT      O29471   2.320   1.053   3.778  0.1402 -0.0627  0.1071
 7188WAT     H129472   2.374   1.025   3.715  1.3353  0.5852  0.8071
 7188WAT     H229473   2.288   1.127   3.746  0.0952 -0.1596 -0.0769
 7188WAT    EPW29474   2.324   1.060   3.764  0.3101  0.0187  0.1833
 7189WAT      O29475   2.449   5.452   0.235 -0.3412 -0.0865  0.5524
 7189WAT     H129476   2.535   5.446   0.246 -0.4028 -1.9553  0.3041
 7189WAT     H229477   2.436   5.420   0.155 -1.2014  0.9795  0.2393
 7189WAT    EPW29478   2.460   5.447   0.225 -0.4774 -0.2051  0.4695
 7190WAT      O29479   4.029   7.081   2.019  0.1487  0.4304 -0.7237
 7190WAT     H129480   4.003   7.139   2.079  0.6239  0.9123 -0.9699
 7190WAT     H229481   4.116   7.081   2.026  0.1391 -2.9849  1.7925
 7190WAT    EPW29482   4.038   7.090   2.029  0.2175 -0.0029 -0.3883
 7191WAT      O29483   2.741   4.471   4.062  0.7560 -0.2672 -0.0026
 7191WAT     H129484   2.662   4.495   4.088  0.1455  0.2024 -2.1676
 7191WAT     H229485   2.795   4.517   4.113 -0.3832  2.8028 -1.3672
 7191WAT    EPW29486   2.738   4.481   4.074  0.4975  0.2557 -0.5240
 7192WAT      O29487   0.572   6.624   7.131 -0.0542  0.0829  0.3555
 7192WAT     H129488   0.619   6.561   7.167 -0.7501  0.1228  1.3748
 7192WAT     H229489   0.553   6.594   7.051  1.8810  0.1819 -0.1743
 7192WAT    EPW29490   0.576   6.610   7.124  0.1289  0.1034  0.4278
 7193WAT      O29491   2.770   2.220   7.194 -0.1833 -0.8674 -0.4443
 7193WAT     H129492   2.753   2.151   7.245  1.4669 -2.4485 -1.8943
 7193WAT     H229493   2.700   2.225   7.142 -0.9166 -0.5552  0.5365
 7193WAT    EPW29494   2.757   2.211   7.194 -0.0478 -1.0548 -0.5136
 7194WAT      O29495   2.370   1.637   2.925  0.7349 -0.2296 -0.1373
 7194WAT     H129496   2.344   1.709   2.966  1.8000  1.2548 -1.9117
 7194WAT     H229497   2.347   1.651   2.842  3.5704 -0.5110 -1.0820
 7194WAT    EPW29498   2.363   1.650   2.919  1.3111 -0.0519 -0.5389
 7195WAT      O29499   2.981   6.433   2.919 -1.0068 -0.3947 -0.5307
 7195WAT     H129500   2.901   6.430   2.886 -0.5017  0.8328 -1.9552
 7195WAT     H229501   3.015   6.507   2.886  0.2949 -0.2475  0.9998
 7195WAT    EPW29502   2.975   6.443   2.909 -0.7399 -0.1916 -0.5151
 7196WAT      O29503   3.222   0.736   6.192  0.2223 -0.0529  0.0666
 7196WAT     H129504   3.178   0.705   6.124  1.0831 -0.9323 -0.1012
 7196WAT     H229505   3.263   0.666   6.224  0.8487  0.5944  0.7163
 7196WAT    EPW29506   3.221   0.721   6.187  0.4420 -0.0872  0.1378
 7197WAT      O29507   6.243   3.527   3.148  0.1479  0.4266 -0.6780
 7197WAT     H129508   6.181   3.559   3.201 -0.5964  0.9796 -1.8436
 7197WAT     H229509   6.222   3.443   3.140 -0.7361  0.7028 -1.4171
 7197WAT    EPW29510   6.231   3.519   3.155 -0.0927  0.5491 -0.9594
 7198WAT      O29511   5.676   1.397   1.192  0.1452  0.2125  0.3401
 7198WAT     H129512   5.634   1.355   1.256  0.8047 -0.3219  0.4327
 7198WAT     H229513   5.624   1.465   1.175 -2.0620 -1.7278 -1.2821
 7198WAT    EPW29514   5.662   1.401   1.199 -0.0834 -0.1531  0.1141
 7199WAT      O29515   3.121   6.102   6.891  0.2818  0.2066 -0.7997
 7199WAT     H129516   3.063   6.058   6.843  0.9351 -0.5629 -0.9057
 7199WAT     H229517   3.195   6.096   6.844  0.9789 -0.7004  0.3352
 7199WAT    EPW29518   3.124   6.094   6.877  0.4812 -0.0410 -0.6477
 7200WAT      O29519   1.551   1.752   4.634 -0.7989  0.2265  0.4307
 7200WAT     H129520   1.579   1.760   4.552  0.2608  1.7745  0.9047
 7200WAT     H229521   1.594   1.683   4.664  0.9646  1.3039  0.4936
 7200WAT    EPW29522   1.561   1.743   4.626 -0.3819  0.6143  0.5100
 7201WAT      O29523   4.205   7.357   2.725  0.5400 -0.5064  0.1674
 7201WAT     H129524   4.207   7.375   2.811 -0.1546 -0.5310  0.1934
 7201WAT     H229525   4.208   7.435   2.687 -2.0968 -0.2494  0.2727
 7201WAT    EPW29526   4.205   7.371   2.732  0.0479 -0.4720  0.1868
 7202WAT      O29527   0.507   0.667   4.495  0.3576  0.0905  0.4794
 7202WAT     H129528   0.491   0.620   4.567  0.7052 -0.3882  0.2523
 7202WAT     H229529   0.592   0.686   4.502  0.1633  0.9421  0.7066
 7202WAT    EPW29530   0.518   0.663   4.507  0.3802  0.1456  0.4794
 7203WAT      O29531   5.420   5.566   3.181  0.3051  0.1347 -0.3694
 7203WAT     H129532   5.439   5.490   3.144  0.0961 -0.2813  0.3485
 7203WAT     H229533   5.359   5.546   3.240  0.8011  0.7117  0.3800
 7203WAT    EPW29534   5.414   5.552   3.184  0.3475  0.1585 -0.1526
 7204WAT      O29535   1.871   5.386   2.674  0.2404  0.3863  0.8103
 7204WAT     H129536   1.832   5.329   2.622 -0.0133  2.6457 -1.6712
 7204WAT     H229537   1.956   5.369   2.664  0.1454 -0.1770  0.9166
 7204WAT    EPW29538   1.878   5.375   2.665  0.1889  0.6368  0.4594
 7205WAT      O29539   5.367   6.167   3.927 -0.1281  0.1041  0.2587
 7205WAT     H129540   5.325   6.243   3.925  0.1409  0.4012  2.5581
 7205WAT     H229541   5.411   6.165   3.852 -1.8231  1.1814 -0.8263
 7205WAT    EPW29542   5.367   6.178   3.916 -0.3388  0.3071  0.4381
 7206WAT      O29543   3.790   6.927   6.919  0.5352  0.4400 -0.5005
 7206WAT     H129544   3.750   6.948   6.844  0.5665  0.2032 -0.5819
 7206WAT     H229545   3.725   6.899   6.970  0.6620 -0.3681 -0.7833
 7206WAT    EPW29546   3.775   6.926   6.916  0.5586  0.2856 -0.5543
 7207WAT      O29547   3.426   7.152   1.394  0.0472  0.1395 -0.0770
 7207WAT     H129548   3.386   7.160   1.471 -1.3811  3.2018 -0.9728
 7207WAT     H229549   3.511   7.149   1.415 -0.3273  0.1767  1.5968
 7207WAT    EPW29550   3.433   7.152   1.409 -0.2191  0.5973  0.0379
 7208WAT      O29551   3.524   7.114   4.425 -0.0619 -0.1797  0.6140
 7208WAT     H129552   3.564   7.085   4.497 -1.8043  0.0228  1.7142
 7208WAT     H229553   3.503   7.041   4.382 -0.0148 -0.3461  0.8735
 7208WAT    EPW29554   3.527   7.099   4.429 -0.3124 -0.1744  0.8148
 7209WAT      O29555   5.762   0.633   2.982  0.4892  0.1044  0.2333
 7209WAT     H129556   5.720   0.605   3.053 -1.7730 -1.0826 -1.4422
 7209WAT     H229557   5.715   0.701   2.956  0.0914 -0.6637 -1.1711
 7209WAT    EPW29558   5.749   0.639   2.988  0.0962 -0.1844 -0.2217
 7210WAT      O29559   4.157   6.999   5.394 -0.0100 -0.1888 -0.0794
 7210WAT     H129560   4.194   7.072   5.424  0.1974 -0.1828 -0.3440
 7210WAT     H229561   4.079   7.024   5.367 -0.1288 -0.1584  0.2846
 7210WAT    EPW29562   4.151   7.013   5.395  0.0031 -0.1835 -0.0647
 7211WAT      O29563   2.630   3.990   4.158 -0.4060 -0.0691  0.0510
 7211WAT     H129564   2.715   3.969   4.156 -0.2365  0.5223  0.5357
 7211WAT     H229565   2.590   3.913   4.155  0.0500 -0.2904 -3.0239
 7211WAT    EPW29566   2.637   3.976   4.157 -0.3136 -0.0145 -0.3316
 7212WAT      O29567   6.810   0.905   3.647  0.4467 -0.0840  0.4110
 7212WAT     H129568   6.843   0.933   3.722  2.3578  1.2920 -0.8390
 7212WAT     H229569   6.829   0.819   3.647  1.8095  0.1906  0.8662
 7212WAT    EPW29570   6.818   0.896   3.658  0.9303  0.1599  0.2936
 7213WAT      O29571   3.305   5.691   3.741  0.6730  0.0200  0.6048
 7213WAT     H129572   3.312   5.777   3.755  2.4342 -0.1638  1.0542
 7213WAT     H229573   3.273   5.661   3.817 -0.4690  0.3127  0.2606
 7213WAT    EPW29574   3.301   5.699   3.754  0.7645  0.0361  0.6204
 7214WAT      O29575   0.764   1.015   6.566 -0.3278  0.4964  0.5353
 7214WAT     H129576   0.805   0.993   6.640 -0.1890 -1.9007 -0.1625
 7214WAT     H229577   0.813   1.079   6.534 -1.2237  2.6974  3.1663
 7214WAT    EPW29578   0.777   1.021   6.572 -0.4396  0.4675  0.8209
 7215WAT      O29579   4.656   5.444   2.347  0.3328  0.1077  0.5997
 7215WAT     H129580   4.669   5.394   2.416  0.2061 -0.2609  0.3624
 7215WAT     H229581   4.602   5.506   2.376  0.9609  0.4594  1.0472
 7215WAT    EPW29582   4.650   5.446   2.361  0.4069  0.1052  0.6307
 7216WAT      O29583   3.532   5.319   1.629 -0.5165 -0.1381  0.1122
 7216WAT     H129584   3.586   5.321   1.697  0.9371  0.5860 -1.0014
 7216WAT     H229585   3.473   5.380   1.648  0.4151  0.7332  0.3288
 7216WAT    EPW29586   3.531   5.328   1.642 -0.1641  0.0976 -0.0203
 7217WAT      O29587   5.974   4.631   3.454 -0.2159  0.4046 -0.0411
 7217WAT     H129588   5.958   4.637   3.369  2.4446  0.8597 -0.5887
 7217WAT     H229589   5.961   4.547   3.472 -3.1641  0.6901 -0.2545
 7217WAT    EPW29590   5.970   4.620   3.444 -0.2584  0.5140 -0.1535
 7218WAT      O29591   4.934   0.072   7.151 -0.7052 -0.0749 -0.1142
 7218WAT     H129592   4.991   0.065   7.085 -1.6700 -0.7342 -0.8973
 7218WAT     H229593   4.861   0.100   7.112 -0.8134  1.2533  0.9547
 7218WAT    EPW29594   4.932   0.075   7.135 -0.8637  0.0239 -0.0720
 7219WAT      O29595   6.234   3.944   6.759 -0.2151  0.1414 -0.1098
 7219WAT     H129596   6.202   3.931   6.839  1.3259  0.2506  0.5611
 7219WAT     H229597   6.168   3.983   6.717 -0.9087  0.4982  1.2381
 7219WAT    EPW29598   6.219   3.948   6.765 -0.0899  0.2102  0.1884
 7220WAT      O29599   2.093   5.382   4.584  0.3966 -0.1612  0.1494
 7220WAT     H129600   2.106   5.466   4.566  1.6566 -0.2034  0.7638
 7220WAT     H229601   2.048   5.383   4.659  2.1556 -0.0157  1.2456
 7220WAT    EPW29602   2.088   5.395   4.592  0.8425 -0.1460  0.4021
 7221WAT      O29603   0.740   2.720   4.940 -0.3155  0.3967  0.0732
 7221WAT     H129604   0.683   2.783   4.960 -0.9535  0.0703 -0.6798
 7221WAT     H229605   0.690   2.649   4.932  0.0465  0.2927 -1.5450
 7221WAT    EPW29606   0.724   2.718   4.942 -0.3563  0.3331 -0.2771
 7222WAT      O29607   1.902   4.885   2.243  0.0957  0.2193  0.2371
 7222WAT     H129608   1.945   4.940   2.295  0.3072 -1.4126  1.9061
 7222WAT     H229609   1.818   4.902   2.259  0.1562 -0.4276  1.3588
 7222WAT    EPW29610   1.896   4.895   2.253  0.1359 -0.1173  0.6494
 7223WAT      O29611   6.533   6.363   3.997 -0.2751 -0.3854 -0.1226
 7223WAT     H129612   6.477   6.301   4.022 -1.9943  0.6915 -1.1286
 7223WAT     H229613   6.497   6.396   3.925  1.1697  1.0361 -0.2602
 7223WAT    EPW29614   6.520   6.359   3.990 -0.3157 -0.0164 -0.2915
 7224WAT      O29615   2.641   4.976   1.186  0.2141 -0.5652 -0.4446
 7224WAT     H129616   2.650   4.889   1.180 -2.0753 -0.8943 -0.0460
 7224WAT     H229617   2.718   5.002   1.218  0.8961 -2.4639 -0.3816
 7224WAT    EPW29618   2.654   4.967   1.190 -0.0233 -0.8943 -0.3764
 7225WAT      O29619   4.351   7.320   4.863  0.0263  0.2268  0.4408
 7225WAT     H129620   4.299   7.280   4.920  0.5170  0.4496  1.0637
 7225WAT     H229621   4.298   7.340   4.797 -0.9021  1.2575  1.4512
 7225WAT    EPW29622   4.335   7.317   4.862 -0.0384  0.4120  0.6821
 7226WAT      O29623   1.227   5.497   0.284  0.6215 -0.3326  0.5313
 7226WAT     H129624   1.173   5.551   0.325 -0.5612 -1.3173  0.3146
 7226WAT     H229625   1.297   5.493   0.336 -0.0622 -0.0840  1.4741
 7226WAT    EPW29626   1.230   5.504   0.298  0.3458 -0.4413  0.6385
 7227WAT      O29627   6.741   4.538   6.913 -0.5939  0.4221 -0.4128
 7227WAT     H129628   6.727   4.588   6.843 -1.1262  1.2151  0.2381
 7227WAT     H229629   6.828   4.534   6.918 -0.5255  1.5273 -0.3326
 7227WAT    EPW29630   6.751   4.545   6.903 -0.6624  0.7025 -0.3048
 7228WAT      O29631   3.559   2.539   1.200  0.1056  0.2901 -0.9928
 7228WAT     H129632   3.530   2.588   1.134  2.4028  0.4980 -1.9295
 7228WAT     H229633   3.487   2.526   1.248 -1.0633  2.6242 -1.9239
 7228WAT    EPW29634   3.544   2.544   1.198  0.2723  0.6656 -1.2687
 7229WAT      O29635   7.632   5.135   6.278 -0.6719 -0.2507 -0.3768
 7229WAT     H129636   7.713   5.160   6.258 -0.4279  0.8929  1.8048
 7229WAT     H229637   7.600   5.107   6.202  1.0545  1.2268 -1.7239
 7229WAT    EPW29638   7.639   5.135   6.264 -0.3808  0.1365 -0.2535
 7230WAT      O29639   3.851   4.711   3.046  0.0336  0.1660 -0.1363
 7230WAT     H129640   3.879   4.715   3.128  1.0960  0.3004 -0.4964
 7230WAT     H229641   3.837   4.626   3.033 -1.0420  0.2306  0.4588
 7230WAT    EPW29642   3.853   4.699   3.056  0.0316  0.1954 -0.1016
 7231WAT      O29643   3.019   6.593   3.861 -0.8151  0.1468  0.4488
 7231WAT     H129644   3.009   6.540   3.793 -1.4406  0.2961  0.4213
 7231WAT     H229645   3.069   6.658   3.831 -0.4665 -0.1673  0.3454
 7231WAT    EPW29646   3.025   6.595   3.847 -0.8560  0.1225  0.4295
 7232WAT      O29647   3.645   5.208   7.404 -0.3621 -0.2091  0.0342
 7232WAT     H129648   3.690   5.169   7.340  0.2916  0.2490  0.2097
 7232WAT     H229649   3.605   5.274   7.363 -1.3868 -0.9721 -0.2429
 7232WAT    EPW29650   3.645   5.212   7.388 -0.4169 -0.2542  0.0192
 7233WAT      O29651   3.213   0.457   2.794  0.2709 -0.1679  0.4306
 7233WAT     H129652   3.197   0.441   2.879 -2.0683 -1.1223 -0.1238
 7233WAT     H229653   3.181   0.537   2.782  0.1816 -0.2180  0.3386
 7233WAT    EPW29654   3.206   0.467   2.805 -0.0878 -0.3163  0.3351
 7234WAT      O29655   0.253   5.295   4.384 -0.0848 -0.5829 -0.0345
 7234WAT     H129656   0.189   5.324   4.435  1.3962  0.4865  1.3027
 7234WAT     H229657   0.282   5.225   4.426  2.4248  1.3734  1.8508
 7234WAT    EPW29658   0.248   5.289   4.398  0.5047 -0.1360  0.4416
 7235WAT      O29659   5.185   3.289   2.472  0.4473  0.4079 -0.2403
 7235WAT     H129660   5.223   3.368   2.474  0.5114  0.3636  1.1566
 7235WAT     H229661   5.103   3.307   2.446  0.8580  0.7297 -1.3988
 7235WAT    EPW29662   5.179   3.304   2.468  0.5174  0.4489 -0.2051
 7236WAT      O29663   3.389   1.923   7.598 -0.5460 -1.0872 -0.4213
 7236WAT     H129664   3.437   1.990   7.626 -0.9491  0.4033 -2.9887
 7236WAT     H229665   3.343   1.900   7.668 -0.5098  1.4343  0.5421
 7236WAT    EPW29666   3.389   1.929   7.613 -0.6002 -0.4945 -0.6582
 7237WAT      O29667   0.622   0.524   6.905  0.0402  0.2145  0.2270
 7237WAT     H129668   0.601   0.534   6.989  0.2341  0.8259  0.2114
 7237WAT     H229669   0.617   0.605   6.872  1.7694  0.3148  0.0906
 7237WAT    EPW29670   0.618   0.538   6.912  0.3243  0.3196  0.2045
 7238WAT      O29671   4.642   7.564   2.376 -0.5635  0.2928 -0.2414
 7238WAT     H129672   4.685   7.578   2.302  0.0454 -0.3349 -0.0074
 7238WAT     H229673   4.670   7.486   2.403 -1.4991  0.0740  0.1541
 7238WAT    EPW29674   4.652   7.555   2.369 -0.6117  0.1677 -0.1484
 7239WAT      O29675   4.260   6.382   2.055  0.1240  0.0024  0.2124
 7239WAT     H129676   4.206   6.315   2.070 -2.1099  1.9442  1.4747
 7239WAT     H229677   4.253   6.394   1.969  0.7630 -1.5003 -0.0788
 7239WAT    EPW29678   4.251   6.374   2.045 -0.1116  0.0673  0.3558
 7240WAT      O29679   2.294   6.052   2.564  0.6719  0.4246  0.2914
 7240WAT     H129680   2.360   6.087   2.608  1.1548  0.9808 -0.8537
 7240WAT     H229681   2.268   5.986   2.615  1.0900  1.1550  1.4888
 7240WAT    EPW29682   2.300   6.048   2.578  0.8050  0.6146  0.2991
 7241WAT      O29683   0.525   1.315   3.794  0.1287 -0.4842 -0.1734
 7241WAT     H129684   0.555   1.296   3.874  1.9738  0.2546 -0.6421
 7241WAT     H229685   0.545   1.244   3.747  0.3876 -0.3221 -0.3074
 7241WAT    EPW29686   0.533   1.302   3.799  0.4395 -0.3512 -0.2625
 7242WAT      O29687   6.997   0.435   3.484 -0.3557  0.1890 -0.3164
 7242WAT     H129688   6.969   0.398   3.410  0.8226 -2.0253  0.2633
 7242WAT     H229689   7.074   0.470   3.461 -1.4297  2.4159 -0.8439
 7242WAT    EPW29690   7.004   0.435   3.470 -0.3403  0.1909 -0.3087
 7243WAT      O29691   1.865   0.580   1.362 -0.0091  1.1341  0.1396
 7243WAT     H129692   1.852   0.525   1.295 -0.5468 -0.1010  1.2295
 7243WAT     H229693   1.822   0.652   1.337  0.1955  0.8791 -1.0385
 7243WAT    EPW29694   1.857   0.583   1.348 -0.0583  0.9140  0.1266
 7244WAT      O29695   2.925   4.226   3.308  0.0687  0.6672  0.0801
 7244WAT     H129696   2.892   4.235   3.388 -0.3036  0.2045 -0.0141
 7244WAT     H229697   2.964   4.148   3.310 -0.6184  0.2991 -0.4101
 7244WAT    EPW29698   2.926   4.216   3.320 -0.0878  0.5445 -0.0062
 7245WAT      O29699   6.720   7.581   4.150  0.1798  0.2960 -0.0983
 7245WAT     H129700   6.696   7.550   4.072 -1.1308  0.0164  0.3927
 7245WAT     H229701   6.646   7.579   4.197  0.8617  0.8004  1.0443
 7245WAT    EPW29702   6.705   7.576   4.145  0.0870  0.3292  0.1430
 7246WAT      O29703   3.537   6.978   5.598  0.2063 -0.2064 -0.0153
 7246WAT     H129704   3.452   6.998   5.601  0.2690  0.0968 -0.2819
 7246WAT     H229705   3.538   6.891   5.603 -0.0760 -0.1654  1.0072
 7246WAT    EPW29706   3.525   6.968   5.599  0.1739 -0.1556  0.0963
 7247WAT      O29707   5.531   1.606   5.221 -0.0516  0.0784  0.3379
 7247WAT     H129708   5.449   1.636   5.229  0.1148  0.5840  0.1710
 7247WAT     H229709   5.575   1.647   5.284 -0.1534 -1.0631  1.1849
 7247WAT    EPW29710   5.525   1.617   5.231 -0.0421 -0.0155  0.4384
 7248WAT      O29711   6.290   6.213   4.078 -0.6310  0.5754 -0.2201
 7248WAT     H129712   6.232   6.262   4.121 -0.8840  0.0190  0.0898
 7248WAT     H229713   6.249   6.193   4.004 -0.1085  1.7204 -0.8322
 7248WAT    EPW29714   6.275   6.217   4.073 -0.5912  0.6623 -0.2647
 7249WAT      O29715   2.613   4.605   5.738  0.4895  0.6516 -0.8762
 7249WAT     H129716   2.536   4.576   5.769  0.7454  0.5499 -0.3202
 7249WAT     H229717   2.646   4.650   5.806  0.6765  1.1581 -1.2967
 7249WAT    EPW29718   2.606   4.608   5.753  0.5549  0.7114 -0.8562
 7250WAT      O29719   6.283   4.153   4.055 -0.5317  0.2481  0.4042
 7250WAT     H129720   6.250   4.234   4.053 -0.7278  0.1623  0.1238
 7250WAT     H229721   6.252   4.117   3.982  2.1425  0.9290 -1.1901
 7250WAT    EPW29722   6.273   4.160   4.044 -0.1657  0.3360  0.1272
 7251WAT      O29723   5.582   3.696   4.058  0.3099 -0.1975  0.0186
 7251WAT     H129724   5.564   3.643   4.124 -0.1373 -0.8299 -0.5908
 7251WAT     H229725   5.524   3.673   3.997 -0.5062  1.6031  0.0470
 7251WAT    EPW29726   5.571   3.685   4.058  0.1233 -0.0249 -0.0672
 7252WAT      O29727   3.242   5.146   3.237  0.1406 -0.2019 -0.1746
 7252WAT     H129728   3.279   5.212   3.193 -0.2025  0.4657  0.5206
 7252WAT     H229729   3.286   5.076   3.210  0.8545  0.3742 -0.5398
 7252WAT    EPW29730   3.254   5.146   3.226  0.1954 -0.0182 -0.1258
 7253WAT      O29731   3.360   1.303   0.914  0.2772  0.2505 -1.0197
 7253WAT     H129732   3.392   1.331   0.990  1.5627  0.3046 -1.5583
 7253WAT     H229733   3.341   1.220   0.929 -2.2127  0.9425  0.1734
 7253WAT    EPW29734   3.362   1.295   0.927  0.0993  0.3607 -0.9230
 7254WAT      O29735   2.350   4.353   4.152  0.4885 -0.1137  0.0436
 7254WAT     H129736   2.269   4.383   4.160 -0.6719 -3.0784  1.1201
 7254WAT     H229737   2.392   4.385   4.221  0.4334  1.8251 -0.7771
 7254WAT    EPW29738   2.344   4.362   4.163  0.3090 -0.2653  0.0814
 7255WAT      O29739   6.133   7.233   1.273  0.3548 -0.0878  0.3405
 7255WAT     H129740   6.096   7.154   1.267  0.6248 -0.2270  0.4725
 7255WAT     H229741   6.144   7.257   1.190 -0.5290  0.1974  0.2935
 7255WAT    EPW29742   6.129   7.225   1.260  0.2641 -0.0662  0.3531
 7256WAT      O29743   3.605   1.793   4.989 -0.0947  0.0484 -0.7304
 7256WAT     H129744   3.528   1.816   4.955 -0.9187 -1.8400 -0.2992
 7256WAT     H229745   3.591   1.799   5.075  0.5565  0.6040 -0.6614
 7256WAT    EPW29746   3.591   1.797   4.996 -0.1202 -0.1485 -0.6565
 7257WAT      O29747   4.779   5.395   2.576  0.2758  0.4476 -0.1655
 7257WAT     H129748   4.779   5.446   2.647 -1.7263  1.7544 -0.9908
 7257WAT     H229749   4.862   5.395   2.550  0.6636  1.7990  0.9419
 7257WAT    EPW29750   4.791   5.403   2.582  0.0373  0.8403 -0.1238
 7258WAT      O29751   7.751   1.230   5.164 -0.4346 -0.6036  0.0758
 7258WAT     H129752   7.797   1.231   5.090  0.2924  0.3632  0.5139
 7258WAT     H229753   7.676   1.191   5.142  0.1609 -1.2052 -0.9197
 7258WAT    EPW29754   7.747   1.225   5.150 -0.2392 -0.5497 -0.0065
 7259WAT      O29755   3.778   5.436   2.344 -0.2205 -0.1845 -0.2645
 7259WAT     H129756   3.800   5.371   2.398 -0.6497 -0.1966 -0.0971
 7259WAT     H229757   3.818   5.505   2.378  0.6178 -0.4374 -0.7056
 7259WAT    EPW29758   3.787   5.436   2.357 -0.1601 -0.2236 -0.3049
 7260WAT      O29759   4.286   0.225   2.484  0.0685 -0.2554 -0.0256
 7260WAT     H129760   4.248   0.299   2.457 -0.8933 -0.6068  0.3307
 7260WAT     H229761   4.306   0.185   2.409 -0.3000 -0.0790 -0.2220
 7260WAT    EPW29762   4.284   0.230   2.469 -0.1280 -0.2813 -0.0020
 7261WAT      O29763   5.300   5.620   5.218 -0.3959 -0.2469 -0.4740
 7261WAT     H129764   5.261   5.546   5.242 -1.7213  0.6277  0.1818
 7261WAT     H229765   5.374   5.621   5.264 -2.1024  0.5909  2.4922
 7261WAT    EPW29766   5.305   5.609   5.228 -0.8438  0.0061  0.0610
 7262WAT      O29767   0.570   0.295   4.356  0.8764 -0.1184  0.2662
 7262WAT     H129768   0.533   0.217   4.366 -0.1102  0.3100  0.0508
 7262WAT     H229769   0.511   0.351   4.388  0.9339  0.6638 -0.9436
 7262WAT    EPW29770   0.556   0.292   4.362  0.7392  0.0604  0.0557
 7263WAT      O29771   4.106   4.670   0.773  0.4175  0.2032  0.0372
 7263WAT     H129772   4.180   4.658   0.817  1.0985  0.2223 -1.0772
 7263WAT     H229773   4.084   4.752   0.793  0.6294  0.1618  0.4591
 7263WAT    EPW29774   4.114   4.680   0.783  0.5494  0.1999 -0.0651
 7264WAT      O29775   6.895   1.585   4.057 -0.4156 -0.0071  0.4601
 7264WAT     H129776   6.937   1.639   4.003 -0.2924 -2.0080 -1.5581
 7264WAT     H229777   6.810   1.600   4.039 -0.3739 -0.7581 -0.4427
 7264WAT    EPW29778   6.888   1.596   4.046 -0.3913 -0.4136  0.0286
 7265WAT      O29779   6.260   6.933   3.694  0.1666 -0.1093  0.2115
 7265WAT     H129780   6.216   6.877   3.743  1.5718 -0.6302  0.9304
 7265WAT     H229781   6.314   6.883   3.647  0.2930  0.5275 -0.3521
 7265WAT    EPW29782   6.261   6.917   3.694  0.3928 -0.0922  0.2344
 7266WAT      O29783   2.668   7.038   1.546 -0.2162  0.3453 -0.3983
 7266WAT     H129784   2.673   6.959   1.582 -1.2099 -0.2281 -1.4484
 7266WAT     H229785   2.594   7.071   1.580 -1.2072 -0.2342 -1.9120
 7266WAT    EPW29786   2.658   7.031   1.556 -0.5093  0.1750 -0.7770
 7267WAT      O29787   2.236   6.804   6.998  0.5383 -0.5524 -0.3063
 7267WAT     H129788   2.176   6.867   7.000  0.7992 -0.3169  0.7298
 7267WAT     H229789   2.194   6.736   6.962 -0.4003 -0.4374  0.5156
 7267WAT    EPW29790   2.221   6.803   6.993  0.4382 -0.5006 -0.0319
 7268WAT      O29791   2.150   6.395   5.500  0.5669  0.2967  0.1457
 7268WAT     H129792   2.147   6.482   5.499  0.0159  0.3035  0.9792
 7268WAT     H229793   2.179   6.374   5.421  0.5882  1.2342 -0.1042
 7268WAT    EPW29794   2.154   6.405   5.488  0.4886  0.4362  0.2319
 7269WAT      O29795   4.353   6.294   4.550 -0.2140 -0.4432  0.5628
 7269WAT     H129796   4.282   6.277   4.597 -0.9963  0.3264 -0.3114
 7269WAT     H229797   4.403   6.223   4.562 -0.9327 -0.8083  1.5244
 7269WAT    EPW29798   4.350   6.281   4.559 -0.4357 -0.3834  0.5757
 7270WAT      O29799   4.477   4.713   2.855  0.4244 -0.9021  0.4310
 7270WAT     H129800   4.411   4.755   2.816 -2.1948 -3.1785  2.0874
 7270WAT     H229801   4.451   4.631   2.859  3.0554 -1.8073  1.9150
 7270WAT    EPW29802   4.464   4.707   2.850  0.4262 -1.3721  0.8949
 7271WAT      O29803   7.573   6.043   5.151  0.3351 -0.6026 -0.3013
 7271WAT     H129804   7.632   6.020   5.211  0.5256 -0.7065 -0.5259
 7271WAT     H229805   7.557   5.969   5.108  0.5298 -0.4389 -0.6625
 7271WAT    EPW29806   7.579   6.029   5.153  0.3920 -0.5938 -0.3878
 7272WAT      O29807   3.314   3.242   0.684  0.5921 -0.1865  0.3042
 7272WAT     H129808   3.246   3.284   0.721  1.3805  0.9916  0.4580
 7272WAT     H229809   3.276   3.174   0.645 -0.9588  1.4104 -1.1800
 7272WAT    EPW29810   3.298   3.238   0.684  0.4795  0.2234  0.1077
 7273WAT      O29811   3.095   5.973   2.540 -0.0864 -0.7276 -0.5135
 7273WAT     H129812   3.091   6.022   2.612  0.9028  1.5182 -1.8739
 7273WAT     H229813   3.095   5.892   2.571  2.5849  0.1071  2.2413
 7273WAT    EPW29814   3.095   5.969   2.555  0.4543 -0.2725 -0.3075
 7274WAT      O29815   4.487   5.550   7.212 -0.1743  0.3855 -0.1073
 7274WAT     H129816   4.441   5.526   7.282  0.8426  0.2350  0.5339
 7274WAT     H229817   4.426   5.564   7.152 -1.0528  0.1272  0.6868
 7274WAT    EPW29818   4.471   5.548   7.214 -0.1538  0.3251  0.1047
 7275WAT      O29819   4.794   6.982   2.895  0.1472 -0.0713 -0.2496
 7275WAT     H129820   4.821   6.940   2.967  1.3217 -1.0854 -1.2368
 7275WAT     H229821   4.748   6.922   2.852  0.0393  0.3105 -0.6728
 7275WAT    EPW29822   4.791   6.967   2.900  0.3047 -0.1647 -0.4579
 7276WAT      O29823   4.897   6.877   0.811 -0.0614 -0.0420 -0.2395
 7276WAT     H129824   4.891   6.909   0.892  2.1870  0.7186 -0.3057
 7276WAT     H229825   4.823   6.831   0.801  0.2895 -1.4814  2.8075
 7276WAT    EPW29826   4.885   6.875   0.821  0.3226 -0.1423  0.2008
 7277WAT      O29827   5.463   1.904   6.234  0.0768  0.1237  0.1012
 7277WAT     H129828   5.544   1.872   6.236  0.5665  0.7982 -3.1592
 7277WAT     H229829   5.475   1.988   6.211 -1.5176  0.4583  0.3996
 7277WAT    EPW29830   5.477   1.912   6.231 -0.0864  0.2727 -0.3363
 7278WAT      O29831   3.437   5.471   7.508  0.0493 -0.5852 -0.4566
 7278WAT     H129832   3.477   5.434   7.575  1.5141  1.3868 -0.1635
 7278WAT     H229833   3.352   5.466   7.529  0.4074 -1.0642  0.9592
 7278WAT    EPW29834   3.430   5.465   7.521  0.3186 -0.3647 -0.2042
 7279WAT      O29835   5.549   5.205   1.564 -0.3779 -0.2893  0.1063
 7279WAT     H129836   5.556   5.157   1.637  1.0199 -0.0575  0.1670
 7279WAT     H229837   5.506   5.154   1.509 -0.9692 -0.6847  0.9213
 7279WAT    EPW29838   5.544   5.191   1.567 -0.2588 -0.3135  0.2357
 7280WAT      O29839   3.158   4.619   1.588  0.4306 -0.0202  0.7814
 7280WAT     H129840   3.106   4.632   1.656 -0.4973 -0.6369  0.2103
 7280WAT     H229841   3.129   4.544   1.554 -0.0281  0.9288 -1.0667
 7280WAT    EPW29842   3.146   4.610   1.593  0.2258  0.0289  0.4240
 7281WAT      O29843   1.924   3.104   3.213 -0.0134  0.0523  0.4719
 7281WAT     H129844   1.898   3.146   3.285 -1.4733 -0.3063  0.1934
 7281WAT     H229845   1.866   3.129   3.153  1.5339  0.8208 -0.7592
 7281WAT    EPW29846   1.912   3.114   3.215 -0.0005  0.1128  0.2489
 7282WAT      O29847   2.313   2.500   2.481 -0.7906  0.0329 -0.1185
 7282WAT     H129848   2.292   2.490   2.565 -0.7202  0.2079 -0.0787
 7282WAT     H229849   2.268   2.572   2.458 -1.6722 -0.6300 -0.5261
 7282WAT    EPW29850   2.303   2.509   2.490 -0.9104 -0.0391 -0.1729
 7283WAT      O29851   2.410   3.423   6.368  0.5727 -0.1066  0.0840
 7283WAT     H129852   2.442   3.488   6.417 -1.4500  0.6595  0.5265
 7283WAT     H229853   2.426   3.352   6.415 -0.4507  0.5145  1.4322
 7283WAT    EPW29854   2.417   3.422   6.382  0.1227  0.0983  0.3485
 7284WAT      O29855   4.596   3.155   1.641  0.1047 -0.1553 -0.5736
 7284WAT     H129856   4.545   3.136   1.573 -0.0257 -0.4248 -0.4038
 7284WAT     H229857   4.670   3.111   1.624  0.9701  1.6246 -1.6977
 7284WAT    EPW29858   4.600   3.146   1.628  0.2133  0.0678 -0.7146
 7285WAT      O29859   5.756   3.845   6.018  0.1681 -0.0229  0.0822
 7285WAT     H129860   5.826   3.875   5.975  1.1800  0.7036  2.1311
 7285WAT     H229861   5.785   3.835   6.100 -2.0914  0.1416  0.9540
 7285WAT    EPW29862   5.771   3.848   6.024 -0.0162  0.1087  0.5137
 7286WAT      O29863   3.012   0.892   4.551 -0.0249  0.5504 -0.5746
 7286WAT     H129864   3.014   0.950   4.616  2.0192  2.0529 -1.8221
 7286WAT     H229865   3.073   0.834   4.573  1.4876  1.6799 -1.5667
 7286WAT    EPW29866   3.021   0.892   4.564  0.5005  0.9392 -0.9055
 7287WAT      O29867   7.337   5.770   7.047 -0.0582 -0.1336  0.4020
 7287WAT     H129868   7.350   5.684   7.043 -0.3483 -0.1402 -0.9715
 7287WAT     H229869   7.274   5.784   6.988  2.0282  1.3517 -1.7096
 7287WAT    EPW29870   7.330   5.760   7.037  0.2072  0.0848 -0.1128
 7288WAT      O29871   5.390   7.368   4.032  0.3871  0.2101 -0.3731
 7288WAT     H129872   5.398   7.298   3.980 -0.3640  1.1330 -1.7807
 7288WAT     H229873   5.324   7.348   4.085 -0.8770  0.4564 -1.8198
 7288WAT    EPW29874   5.382   7.355   4.032  0.0894  0.3828 -0.7947
 7289WAT      O29875   3.342   5.522   1.720  0.7346 -0.1813  0.4798
 7289WAT     H129876   3.321   5.605   1.733  2.6806  0.5607 -0.6507
 7289WAT     H229877   3.285   5.478   1.769 -1.1423  1.7359  0.1450
 7289WAT    EPW29878   3.330   5.528   1.729  0.7448  0.2115  0.2633
 7290WAT      O29879   5.374   4.926   6.927  0.4040  0.5305 -0.6323
 7290WAT     H129880   5.338   4.849   6.945 -0.0525  1.0037  0.5726
 7290WAT     H229881   5.453   4.905   6.895  0.4561 -0.4248  0.0940
 7290WAT    EPW29882   5.381   4.912   6.925  0.3443  0.4593 -0.3471
 7291WAT      O29883   4.068   4.835   2.907 -0.3525  0.9325  0.5032
 7291WAT     H129884   4.010   4.813   2.968  0.6382 -0.4308  1.0038
 7291WAT     H229885   4.073   4.922   2.914 -0.0731  0.7988  2.5421
 7291WAT    EPW29886   4.060   4.845   2.917 -0.1649  0.7114  0.8783
 7292WAT      O29887   3.501   7.679   6.076 -0.1231  0.4714  0.2507
 7292WAT     H129888   3.521   7.617   6.018 -2.5049  0.3945 -0.5806
 7292WAT     H229889   3.469   7.743   6.027  0.5327  1.6168  1.2692
 7292WAT    EPW29890   3.499   7.679   6.061 -0.3780  0.6292  0.2783
 7293WAT      O29891   0.285   1.739   5.607  0.2963 -0.3974  0.1257
 7293WAT     H129892   0.251   1.661   5.626 -0.3903 -0.1299  0.0261
 7293WAT     H229893   0.276   1.745   5.520  0.6277 -0.3354  0.0950
 7293WAT    EPW29894   0.279   1.729   5.597  0.2438 -0.3487  0.1064
 7294WAT      O29895   3.490   1.566   4.553 -0.2894 -0.8695 -0.4099
 7294WAT     H129896   3.572   1.590   4.539 -0.6246 -0.7661 -2.5414
 7294WAT     H229897   3.457   1.630   4.602  0.2751  0.3008 -1.5128
 7294WAT    EPW29898   3.497   1.579   4.558 -0.2555 -0.6814 -0.8877
 7295WAT      O29899   4.110   3.922   3.193 -0.1809 -0.2345  0.1406
 7295WAT     H129900   4.117   3.901   3.109 -0.7772  0.1150 -0.0027
 7295WAT     H229901   4.056   3.990   3.192 -1.8980 -1.5031  0.9737
 7295WAT    EPW29902   4.103   3.929   3.180 -0.5227 -0.3703  0.2425
 7296WAT      O29903   1.889   4.204   0.789 -0.1593  0.0511  0.3286
 7296WAT     H129904   1.974   4.213   0.803 -0.4095  1.0274  1.3877
 7296WAT     H229905   1.859   4.176   0.866 -0.8968  0.4859  0.2057
 7296WAT    EPW29906   1.897   4.201   0.803 -0.3052  0.2595  0.4669
 7297WAT      O29907   0.760   0.504   4.295 -0.6083 -0.0835  0.2939
 7297WAT     H129908   0.805   0.467   4.231  1.5061  1.1503  0.9775
 7297WAT     H229909   0.720   0.437   4.334  0.8575 -1.2882 -0.1863
 7297WAT    EPW29910   0.760   0.489   4.292 -0.0794 -0.0792  0.3239
 7298WAT      O29911   3.569   5.367   0.931  0.7169 -0.4091  0.0060
 7298WAT     H129912   3.595   5.448   0.946 -0.3396 -0.5353  3.0925
 7298WAT     H229913   3.539   5.339   1.008  1.2154 -3.8206 -0.8424
 7298WAT    EPW29914   3.568   5.375   0.944  0.6344 -0.9317  0.3367
 7299WAT      O29915   2.848   7.114   5.299 -0.1135  0.1865  0.3386
 7299WAT     H129916   2.882   7.055   5.353  0.0615 -1.4932 -1.5051
 7299WAT     H229917   2.818   7.176   5.353  0.0148 -1.3976  2.3530
 7299WAT    EPW29918   2.848   7.115   5.315 -0.0687 -0.2956  0.3638
 7300WAT      O29919   7.394   2.583   6.539 -0.4477  0.5453  0.1055
 7300WAT     H129920   7.333   2.534   6.578 -1.7919  2.4017  0.4136
 7300WAT     H229921   7.371   2.581   6.455 -0.5394  0.7055  0.1273
 7300WAT    EPW29922   7.382   2.575   6.532 -0.6598  0.8432  0.1542
 7301WAT      O29923   5.396   6.892   2.060  0.4087  0.5301 -0.1500
 7301WAT     H129924   5.397   6.821   2.010 -0.0854  1.5638 -1.6845
 7301WAT     H229925   5.475   6.894   2.096  0.3147 -0.9547  0.1729
 7301WAT    EPW29926   5.408   6.882   2.058  0.3218  0.4634 -0.3290
 7302WAT      O29927   3.156   4.330   1.923  0.3067 -0.1957  0.3859
 7302WAT     H129928   3.162   4.415   1.941  3.7650  0.0794 -1.2299
 7302WAT     H229929   3.105   4.328   1.852  0.7978  0.6122 -0.0006
 7302WAT    EPW29930   3.149   4.342   1.915  0.8901 -0.0357  0.0901
 7303WAT      O29931   4.126   7.492   4.233  0.1662  0.0251  0.3364
 7303WAT     H129932   4.121   7.410   4.204 -0.0783 -0.1907  0.9779
 7303WAT     H229933   4.155   7.537   4.163 -0.3268 -0.4942 -0.2089
 7303WAT    EPW29934   4.130   7.487   4.218  0.0573 -0.0835  0.3506
 7304WAT      O29935   4.156   4.931   3.791  0.1321  0.3292 -0.3423
 7304WAT     H129936   4.087   4.902   3.746  0.1925  0.1624 -0.3290
 7304WAT     H229937   4.132   4.920   3.874  0.5474 -0.6456 -0.3328
 7304WAT    EPW29938   4.142   4.925   3.796  0.2023  0.1606 -0.3390
 7305WAT      O29939   2.039   3.641   4.245 -0.5529  0.2484 -0.1309
 7305WAT     H129940   1.991   3.568   4.239  0.1818 -0.3890  1.2321
 7305WAT     H229941   2.109   3.616   4.290 -0.2354  1.7847  0.2990
 7305WAT    EPW29942   2.042   3.626   4.251 -0.3975  0.3812  0.1339
 7306WAT      O29943   5.011   6.672   3.977 -0.0911  0.2980 -0.3863
 7306WAT     H129944   4.996   6.587   3.966  0.9054  0.1749 -0.8864
 7306WAT     H229945   5.078   6.689   3.924 -0.0587  1.3295 -0.0540
 7306WAT    EPW29946   5.019   6.662   3.968  0.0609  0.4321 -0.4111
 7307WAT      O29947   1.435   7.516   4.976  0.0212  0.1230  0.1744
 7307WAT     H129948   1.392   7.481   5.043  3.2694 -1.0423  1.8640
 7307WAT     H229949   1.514   7.480   4.981  1.6754  3.0497 -1.8454
 7307WAT    EPW29950   1.440   7.506   4.986  0.7454  0.3832  0.1256
 7308WAT      O29951   1.415   5.640   1.590  0.0198  0.7716  0.7099
 7308WAT     H129952   1.422   5.567   1.638  0.7867  0.7154  0.5323
 7308WAT     H229953   1.336   5.633   1.554 -0.6661  0.9214  2.1178
 7308WAT    EPW29954   1.404   5.628   1.592  0.0318  0.7854  0.8917
 7309WAT      O29955   5.730   5.063   3.881  0.4830  0.3145 -0.0522
 7309WAT     H129956   5.769   5.130   3.921  2.6839 -1.2137  0.6143
 7309WAT     H229957   5.749   5.076   3.797  1.5756  0.2088  0.1500
 7309WAT    EPW29958   5.739   5.075   3.874  0.9695  0.0731  0.0761
 7310WAT      O29959   2.787   0.131   3.297  0.1533 -0.2608 -0.3013
 7310WAT     H129960   2.845   0.066   3.305  0.0437 -0.5147 -1.4587
 7310WAT     H229961   2.745   0.113   3.223 -0.7692  0.4379  0.0278
 7310WAT    EPW29962   2.789   0.119   3.287  0.0009 -0.1951 -0.4237
 7311WAT      O29963   5.768   6.640   4.351 -0.3250 -0.2008 -0.5605
 7311WAT     H129964   5.710   6.695   4.316  0.7238  0.9271 -0.5880
 7311WAT     H229965   5.837   6.691   4.368 -0.2655 -0.9622  1.8757
 7311WAT    EPW29966   5.770   6.656   4.349 -0.1612 -0.1467 -0.2047
 7312WAT      O29967   4.779   5.651   4.967 -0.2788 -0.0387  0.2056
 7312WAT     H129968   4.804   5.680   5.045 -1.3093 -0.1221  0.5754
 7312WAT     H229969   4.849   5.608   4.938  0.9550  1.9083  0.0714
 7312WAT    EPW29970   4.793   5.649   4.974 -0.2487  0.2366  0.2404
 7313WAT      O29971   0.058   6.265   4.623 -0.2485  0.5911 -0.1310
 7313WAT     H129972   0.033   6.188   4.592 -0.5130  0.5099  0.2610
 7313WAT     H229973   0.052   6.255   4.710  0.7377  0.7167 -0.0392
 7313WAT    EPW29974   0.053   6.252   4.632 -0.1419  0.5977 -0.0596
 7314WAT      O29975   2.991   5.955   7.386 -0.7732 -0.0573  0.4664
 7314WAT     H129976   2.971   5.886   7.336  0.3884 -0.8945  1.1290
 7314WAT     H229977   2.982   6.022   7.331  0.2287 -0.9245 -0.8352
 7314WAT    EPW29978   2.987   5.954   7.370 -0.4536 -0.3091  0.3720
 7315WAT      O29979   1.943   5.453   7.224  0.1489 -0.2429  0.2305
 7315WAT     H129980   2.030   5.449   7.223  0.2388  0.7936  1.2702
 7315WAT     H229981   1.921   5.443   7.140  1.3111  0.1588 -0.1431
 7315WAT    EPW29982   1.952   5.451   7.211  0.3338 -0.0305  0.3289
 7316WAT      O29983   4.701   6.046   4.773  0.1415 -0.0954  0.5581
 7316WAT     H129984   4.672   6.004   4.844  0.3795 -3.7707 -1.2376
 7316WAT     H229985   4.787   6.055   4.788  0.2016 -0.9116  0.7475
 7316WAT    EPW29986   4.710   6.041   4.786  0.1855 -0.7589  0.3208
 7317WAT      O29987   4.134   1.658   4.960 -0.2746  0.0199 -1.0041
 7317WAT     H129988   4.048   1.669   4.961 -0.5355 -1.7519 -0.5966
 7317WAT     H229989   4.165   1.739   4.970 -1.9005  0.4538  1.7382
 7317WAT    EPW29990   4.126   1.672   4.962 -0.5533 -0.1778 -0.5388
 7318WAT      O29991   4.200   6.944   3.562 -0.5523  0.0954  0.8811
 7318WAT     H129992   4.165   6.889   3.621  1.1294 -0.5535  1.3295
 7318WAT     H229993   4.248   6.892   3.511 -1.3396  0.7622 -0.6188
 7318WAT    EPW29994   4.202   6.928   3.563 -0.4202  0.0981  0.7257
 7319WAT      O29995   3.081   5.958   5.874  0.3655 -0.0232  0.2265
 7319WAT     H129996   3.107   5.882   5.907  0.5798  0.2063  0.6010
 7319WAT     H229997   3.154   5.990   5.838  0.3466  0.1344  0.3281
 7319WAT    EPW29998   3.096   5.952   5.873  0.3944  0.0340  0.2968
 7320WAT      O29999   3.585   6.725   7.273 -0.0050  0.0202  0.4488
 7320WAT     H130000   3.649   6.721   7.332  1.1547  0.3434 -0.7388
 7320WAT     H230001   3.596   6.652   7.226 -0.8026 -0.1529  0.5287
 7320WAT    EPW30002   3.596   6.713   7.275  0.0485  0.0423  0.2852
 7321WAT      O30003   2.102   2.725   1.665  0.1822  0.0012 -0.0669
 7321WAT     H130004   2.044   2.750   1.605  0.9799  0.5907 -0.5974
 7321WAT     H230005   2.089   2.638   1.670 -0.7657  0.1257 -0.1462
 7321WAT    EPW30006   2.092   2.716   1.657  0.1600  0.1067 -0.1570
 7322WAT      O30007   1.929   4.486   2.499  0.1643  0.3816 -0.1982
 7322WAT     H130008   1.894   4.406   2.498 -0.0708  0.4554 -2.0749
 7322WAT     H230009   2.004   4.475   2.542  0.4523 -1.0271 -0.9891
 7322WAT    EPW30010   1.935   4.472   2.505  0.1721  0.1844 -0.5922
 7323WAT      O30011   2.497   5.580   0.697 -0.0446 -0.3866 -0.3526
 7323WAT     H130012   2.455   5.504   0.689 -0.1512 -0.6875  2.1131
 7323WAT     H230013   2.574   5.557   0.730  0.4856  0.4885 -0.9482
 7323WAT    EPW30014   2.502   5.565   0.701  0.0180 -0.3018 -0.0763
 7324WAT      O30015   7.636   4.499   4.751  0.0816  0.5266 -0.2774
 7324WAT     H130016   7.680   4.465   4.684 -0.4387 -1.7714  0.4512
 7324WAT     H230017   7.576   4.549   4.712 -3.2511 -4.1517 -2.1620
 7324WAT    EPW30018   7.633   4.501   4.735 -0.4876 -0.5039 -0.4482
 7325WAT      O30019   7.500   0.296   0.380 -0.8742  0.4537  0.2734
 7325WAT     H130020   7.494   0.213   0.406 -1.6912  0.4606  0.1326
 7325WAT     H230021   7.556   0.292   0.313 -0.7560  0.0498  0.3916
 7325WAT    EPW30022   7.507   0.283   0.374 -0.9774  0.3950  0.2701
 7326WAT      O30023   2.170   3.449   2.445  0.2268  0.0420  0.0270
 7326WAT     H130024   2.136   3.441   2.524 -0.5717  0.6066 -0.2477
 7326WAT     H230025   2.178   3.367   2.417 -0.6660 -0.1154  0.2096
 7326WAT    EPW30026   2.167   3.436   2.452 -0.0231  0.1021  0.0134
 7327WAT      O30027   7.071   0.972   4.022  0.4440  0.0920 -0.1754
 7327WAT     H130028   7.012   0.965   4.085  1.6326  0.5433  1.0384
 7327WAT     H230029   7.023   0.980   3.950 -0.9594 -0.1283  0.6951
 7327WAT    EPW30030   7.056   0.972   4.021  0.4122  0.1261  0.1325
 7328WAT      O30031   2.053   1.482   6.037  0.2484  0.1865  0.1459
 7328WAT     H130032   2.071   1.433   5.967  1.6452  0.2867  0.4076
 7328WAT     H230033   2.050   1.423   6.102  3.0356  0.4764  0.6510
 7328WAT    EPW30034   2.055   1.466   6.037  0.8665  0.2441  0.2591
 7329WAT      O30035   1.117   6.751   5.527  0.5528  0.0520  0.1678
 7329WAT     H130036   1.189   6.796   5.547 -0.0813  0.8036  0.8464
 7329WAT     H230037   1.055   6.791   5.573 -0.2681 -0.7069 -0.2522
 7329WAT    EPW30038   1.119   6.763   5.537  0.3379  0.0509  0.2060
 7330WAT      O30039   2.807   0.711   4.486  0.7338 -0.2126 -0.2442
 7330WAT     H130040   2.861   0.777   4.506  0.4820  0.1659 -0.7784
 7330WAT     H230041   2.742   0.750   4.444 -0.4557 -0.5322  1.2186
 7330WAT    EPW30042   2.805   0.727   4.483  0.5209 -0.2039 -0.1070
 7331WAT      O30043   2.280   1.334   0.597 -0.9717  0.2497 -0.2921
 7331WAT     H130044   2.218   1.312   0.540 -0.3517 -0.5182 -0.6917
 7331WAT     H230045   2.340   1.373   0.548  0.4637 -2.1031 -0.5742
 7331WAT    EPW30046   2.280   1.336   0.581 -0.6681 -0.2113 -0.3928
 7332WAT      O30047   4.330   5.216   4.349  0.5196  0.3735  0.4015
 7332WAT     H130048   4.418   5.213   4.348  0.5216  0.5348  0.1309
 7332WAT     H230049   4.308   5.156   4.289  0.4486  0.4923  0.3097
 7332WAT    EPW30050   4.340   5.206   4.340  0.5094  0.4149  0.3480
 7333WAT      O30051   4.248   1.769   2.088  1.0104 -0.2607 -0.5637
 7333WAT     H130052   4.161   1.764   2.085  0.9954  0.1852 -1.1701
 7333WAT     H230053   4.264   1.854   2.074  1.5674 -0.4540 -1.1407
 7333WAT    EPW30054   4.238   1.781   2.085  1.0905 -0.2234 -0.7385
 7334WAT      O30055   1.674   0.362   2.936 -0.9160 -0.4443 -0.0775
 7334WAT     H130056   1.652   0.302   2.996 -0.3109 -0.4275  0.1748
 7334WAT     H230057   1.681   0.316   2.863 -2.3684 -0.3450 -0.2998
 7334WAT    EPW30058   1.672   0.346   2.934 -1.0411 -0.4271 -0.0731
 7335WAT      O30059   5.034   4.280   7.126  0.2971 -0.7180  0.3754
 7335WAT     H130060   4.983   4.251   7.061  0.3115 -1.2466  0.5927
 7335WAT     H230061   5.038   4.366   7.113  0.3866 -0.8323 -0.3868
 7335WAT    EPW30062   5.027   4.288   7.114  0.3125 -0.8130  0.2949
 7336WAT      O30063   1.770   5.481   1.613  0.2132  0.2963  0.8297
 7336WAT     H130064   1.743   5.408   1.573  0.4751  0.0677  1.0654
 7336WAT     H230065   1.755   5.543   1.553 -1.0743  0.2241  1.0541
 7336WAT    EPW30066   1.764   5.479   1.598  0.0617  0.2518  0.8977
 7337WAT      O30067   3.782   0.612   1.699 -0.3731  0.3632 -0.2980
 7337WAT     H130068   3.793   0.548   1.757 -1.1309  0.5993  0.1246
 7337WAT     H230069   3.855   0.610   1.651  0.6986  0.7996  1.2718
 7337WAT    EPW30070   3.794   0.602   1.700 -0.3268  0.4626 -0.0037
 7338WAT      O30071   5.105   0.581   2.280 -0.6176  0.2338 -0.1095
 7338WAT     H130072   5.087   0.652   2.328  0.3594  0.2927  0.1752
 7338WAT     H230073   5.036   0.576   2.226 -0.1701  2.0925 -0.9462
 7338WAT    EPW30074   5.092   0.591   2.279 -0.4072  0.5171 -0.1911
 7339WAT      O30075   1.891   6.685   4.699 -0.1031  0.6465  0.4172
 7339WAT     H130076   1.896   6.729   4.624  1.4713  0.7468  0.5468
 7339WAT     H230077   1.872   6.746   4.758  1.5360  1.0987  0.5140
 7339WAT    EPW30078   1.889   6.700   4.697  0.3716  0.7281  0.4506
 7340WAT      O30079   4.517   4.814   4.716 -0.1748 -0.1495  0.4217
 7340WAT     H130080   4.472   4.828   4.789 -0.1932 -0.4237  0.4656
 7340WAT     H230081   4.464   4.763   4.669 -0.9347  1.4585 -0.5524
 7340WAT    EPW30082   4.502   4.808   4.720 -0.2898  0.0476  0.2843
 7341WAT      O30083   1.508   5.313   5.056  0.6407  0.3218 -0.3439
 7341WAT     H130084   1.451   5.291   5.119 -1.3764  2.7275 -1.1458
 7341WAT     H230085   1.585   5.312   5.097 -0.4095  0.4233  1.7764
 7341WAT    EPW30086   1.511   5.309   5.072  0.1876  0.6922 -0.1491
 7342WAT      O30087   4.177   4.462   4.170  0.0635 -0.1241 -0.5505
 7342WAT     H130088   4.235   4.470   4.234 -1.1023 -0.4987  0.5714
 7342WAT     H230089   4.193   4.532   4.120  1.4474 -0.2077 -0.2645
 7342WAT    EPW30090   4.188   4.474   4.172  0.0957 -0.1918 -0.3425
 7343WAT      O30091   2.226   3.845   0.229 -0.5341 -0.3060 -0.0185
 7343WAT     H130092   2.177   3.894   0.283 -1.5617  0.6944 -1.7511
 7343WAT     H230093   2.170   3.783   0.202  0.3540 -1.6242  1.0366
 7343WAT    EPW30094   2.210   3.843   0.233 -0.5547 -0.3530 -0.1186
 7344WAT      O30095   2.023   0.902   3.683  0.4129  0.3570  0.2817
 7344WAT     H130096   2.107   0.884   3.694  0.2698 -1.1788 -0.7978
 7344WAT     H230097   2.008   0.967   3.739  2.7072  1.8562 -0.6851
 7344WAT    EPW30098   2.033   0.909   3.693  0.7307  0.3516 -0.0206
 7345WAT      O30099   7.396   3.134   5.093  0.0463 -0.7234 -0.1576
 7345WAT     H130100   7.431   3.179   5.027 -1.1616 -1.1453 -1.1468
 7345WAT     H230101   7.372   3.195   5.150 -1.7076 -0.0079 -1.5378
 7345WAT    EPW30102   7.398   3.149   5.091 -0.3912 -0.6800 -0.5076
 7346WAT      O30103   5.035   5.514   1.154 -0.8960 -0.0171  0.4173
 7346WAT     H130104   4.959   5.558   1.152  0.3525  2.3330  0.7906
 7346WAT     H230105   5.076   5.542   1.081  0.2651  0.0891  1.0924
 7346WAT    EPW30106   5.030   5.525   1.143 -0.5400  0.3457  0.5722
 7347WAT      O30107   3.123   4.363   0.235  0.0352 -0.0833  0.2283
 7347WAT     H130108   3.157   4.439   0.208 -0.3718 -0.0690 -0.2570
 7347WAT     H230109   3.120   4.315   0.163 -0.1086 -0.4142  0.4514
 7347WAT    EPW30110   3.128   4.367   0.221 -0.0462 -0.1301  0.1895
 7348WAT      O30111   1.734   2.887   3.024 -0.0539 -0.2881  0.1070
 7348WAT     H130112   1.724   2.869   2.940  0.6365 -0.3023  0.0223
 7348WAT     H230113   1.779   2.819   3.055  1.4954  0.6549  0.0442
 7348WAT    EPW30114   1.739   2.874   3.016  0.2769 -0.1509  0.0852
 7349WAT      O30115   3.347   2.325   1.694  0.0461 -0.2983  0.1480
 7349WAT     H130116   3.372   2.249   1.730  1.3866 -0.3838 -0.9120
 7349WAT     H230117   3.351   2.381   1.761  0.3343 -0.9045  0.6478
 7349WAT    EPW30118   3.351   2.322   1.710  0.2867 -0.4005  0.0653
 7350WAT      O30119   4.820   2.171   3.845  0.2874  0.1990 -0.0803
 7350WAT     H130120   4.856   2.091   3.844  0.7212  0.3848  0.1422
 7350WAT     H230121   4.736   2.156   3.825  0.5471 -0.2120 -0.9146
 7350WAT    EPW30122   4.813   2.157   3.842  0.3898  0.1657 -0.1707
 7351WAT      O30123   3.611   1.732   7.707 -0.6953 -0.7907 -0.1342
 7351WAT     H130124   3.549   1.770   7.659 -0.8135 -1.3690 -0.4519
 7351WAT     H230125   3.629   1.659   7.663 -0.5292 -1.1368  0.4953
 7351WAT    EPW30126   3.604   1.726   7.694 -0.6882 -0.9273 -0.0881
 7352WAT      O30127   4.823   2.182   4.346  0.1223  0.2090 -0.2181
 7352WAT     H130128   4.820   2.268   4.331 -0.0160  0.1429 -0.5772
 7352WAT     H230129   4.739   2.159   4.350  0.1189  0.4103  1.7900
 7352WAT    EPW30130   4.810   2.191   4.344  0.1014  0.2290  0.0255
 7353WAT      O30131   1.495   0.844   4.864 -0.1740  0.5018 -0.3506
 7353WAT     H130132   1.469   0.779   4.812  1.1511 -0.8212  0.5755
 7353WAT     H230133   1.421   0.885   4.883 -0.8359  0.3055 -2.3001
 7353WAT    EPW30134   1.480   0.840   4.859 -0.0760  0.2774 -0.5018
 7354WAT      O30135   7.541   6.424   4.418  0.3740 -0.5145 -0.4201
 7354WAT     H130136   7.523   6.369   4.482 -1.2955 -0.8789 -1.1525
 7354WAT     H230137   7.482   6.487   4.427  1.5939  0.6484 -0.2269
 7354WAT    EPW30138   7.530   6.425   4.429  0.3076 -0.3966 -0.4997
 7355WAT      O30139   3.923   2.210   5.411 -0.3603 -0.2872  0.3452
 7355WAT     H130140   3.941   2.289   5.443 -0.0383 -0.3930  0.4266
 7355WAT     H230141   3.981   2.200   5.347  0.2856 -0.8885  1.0190
 7355WAT    EPW30142   3.934   2.220   5.406 -0.2173 -0.3917  0.4568
 7356WAT      O30143   2.037   4.796   4.616 -0.1440  0.5300 -0.3836
 7356WAT     H130144   1.987   4.865   4.636  1.1559  1.5198 -0.3798
 7356WAT     H230145   2.014   4.778   4.533 -2.8463 -1.2019  0.5879
 7356WAT    EPW30146   2.026   4.804   4.607 -0.3511  0.4204 -0.2395
 7357WAT      O30147   4.774   0.041   4.755 -0.5255  0.2842 -0.0767
 7357WAT     H130148   4.762  -0.037   4.792 -1.2851  0.1147 -0.6462
 7357WAT     H230149   4.775   0.096   4.823 -0.1565 -0.1956  0.3156
 7357WAT    EPW30150   4.772   0.037   4.771 -0.5832  0.1882 -0.1029
 7358WAT      O30151   1.228   0.953   6.541 -0.3870 -0.4860 -0.0540
 7358WAT     H130152   1.263   0.994   6.472 -0.9780 -1.2630 -0.8317
 7358WAT     H230153   1.295   0.907   6.574  0.2391  0.9066  0.7209
 7358WAT    EPW30154   1.243   0.952   6.536 -0.3818 -0.3950 -0.0544
 7359WAT      O30155   4.675   4.380   7.186  0.1050 -0.1942 -0.1473
 7359WAT     H130156   4.655   4.302   7.153  0.5635 -0.6648  0.6557
 7359WAT     H230157   4.620   4.435   7.146 -2.1263 -1.2847  1.2571
 7359WAT    EPW30158   4.664   4.377   7.176 -0.1569 -0.4248  0.1788
 7360WAT      O30159   2.772   4.686   3.589  0.8963  0.4185 -0.0494
 7360WAT     H130160   2.711   4.660   3.645  0.2251  1.2068 -0.3973
 7360WAT     H230161   2.827   4.618   3.586 -0.2553 -0.5426 -0.1692
 7360WAT    EPW30162   2.771   4.672   3.597  0.6271  0.3930 -0.1185
 7361WAT      O30163   2.292   2.184   1.802  0.5286 -0.0313  0.5677
 7361WAT     H130164   2.310   2.231   1.731 -0.5892  0.2627  0.4686
 7361WAT     H230165   2.269   2.244   1.861  3.8577  0.0045  2.0442
 7361WAT    EPW30166   2.291   2.200   1.800  0.8553  0.0174  0.7712
 7362WAT      O30167   5.439   6.274   7.621 -0.2302  0.1602 -0.1366
 7362WAT     H130168   5.508   6.297   7.572 -1.1184  4.2262  0.1054
 7362WAT     H230169   5.371   6.282   7.567 -0.7431 -2.4044  0.0035
 7362WAT    EPW30170   5.439   6.279   7.606 -0.4372  0.3820 -0.0802
 7363WAT      O30171   1.571   5.822   2.513  0.2215  0.2225  0.2870
 7363WAT     H130172   1.550   5.808   2.596 -0.5961 -0.0116  0.0466
 7363WAT     H230173   1.527   5.761   2.469  0.2153  0.6731 -0.3593
 7363WAT    EPW30174   1.561   5.811   2.519  0.0998  0.2545  0.1560
 7364WAT      O30175   4.109   5.520   6.935  0.1830 -0.1761 -0.0360
 7364WAT     H130176   4.029   5.511   6.966  0.4530 -1.4619  0.3430
 7364WAT     H230177   4.154   5.553   7.003 -0.1686  1.4071 -0.5125
 7364WAT    EPW30178   4.104   5.524   6.950  0.1710 -0.1321 -0.0504
 7365WAT      O30179   2.912   5.439   5.854  0.0827 -0.5176  0.5969
 7365WAT     H130180   2.932   5.483   5.927 -1.2195  2.2525 -0.5452
 7365WAT     H230181   2.829   5.462   5.838  0.0580 -1.6877 -1.2959
 7365WAT    EPW30182   2.903   5.449   5.862 -0.1133 -0.2813  0.1486
 7366WAT      O30183   5.503   1.946   2.132  0.3495 -0.5629  0.1518
 7366WAT     H130184   5.502   2.019   2.084  1.8129  0.0200  0.9609
 7366WAT     H230185   5.420   1.938   2.159 -0.1159  0.0455 -1.0072
 7366WAT    EPW30186   5.490   1.955   2.129  0.4969 -0.3869  0.1001
 7367WAT      O30187   6.708   6.839   5.479 -0.2833  0.6762 -0.4055
 7367WAT     H130188   6.682   6.898   5.537  1.2310  1.5692 -0.5715
 7367WAT     H230189   6.657   6.854   5.410 -0.0142  1.7185 -0.3932
 7367WAT    EPW30190   6.697   6.850   5.477 -0.0198  0.9621 -0.4282
 7368WAT      O30191   4.954   3.508   6.507  0.5310  1.0012 -0.2521
 7368WAT     H130192   4.868   3.493   6.512  0.5534  1.1705  0.7602
 7368WAT     H230193   4.966   3.577   6.559  1.8679 -1.6269  3.3373
 7368WAT    EPW30194   4.943   3.516   6.515  0.7318  0.6380  0.4277
 7369WAT      O30195   1.179   3.905   6.959 -0.7018 -0.3052 -0.1343
 7369WAT     H130196   1.165   3.952   7.031  0.2166 -0.7598  0.3757
 7369WAT     H230197   1.107   3.916   6.912 -0.1625  2.3362 -0.4767
 7369WAT    EPW30198   1.167   3.913   6.963 -0.4865  0.0178 -0.1095
 7370WAT      O30199   2.591   1.263   0.958  0.4113 -0.1598 -0.2592
 7370WAT     H130200   2.533   1.327   0.947 -1.0861 -1.5445 -0.7218
 7370WAT     H230201   2.550   1.192   0.930  2.2074 -1.2789 -0.2512
 7370WAT    EPW30202   2.577   1.262   0.952  0.4554 -0.5297 -0.3263
 7371WAT      O30203   2.372   3.365   1.401  1.0990 -0.9004  0.0645
 7371WAT     H130204   2.451   3.331   1.386  0.5145 -2.5648  0.5670
 7371WAT     H230205   2.389   3.437   1.446  2.3808 -0.5784 -0.8799
 7371WAT    EPW30206   2.386   3.370   1.405  1.2020 -1.0987 -0.0008
 7372WAT      O30207   2.546   4.270   3.484  0.4608 -0.4231  0.1136
 7372WAT     H130208   2.466   4.300   3.502 -0.0257 -0.8245 -1.2181
 7372WAT     H230209   2.590   4.280   3.559  0.0358  2.5647  0.0918
 7372WAT    EPW30210   2.541   4.276   3.498  0.3262 -0.0411 -0.0863
 7373WAT      O30211   4.267   0.856   3.861  1.0555  0.0245  0.2720
 7373WAT     H130212   4.310   0.809   3.921  0.2262 -1.2446 -0.0759
 7373WAT     H230213   4.305   0.831   3.786  1.0018  0.3755  0.1276
 7373WAT    EPW30214   4.279   0.845   3.859  0.9250 -0.1111  0.1993
 7374WAT      O30215   1.792   5.071   3.294 -0.1612 -0.1671  0.0341
 7374WAT     H130216   1.776   5.107   3.217 -0.9081 -0.5952 -0.0179
 7374WAT     H230217   1.834   5.134   3.338 -1.6022  0.8687  0.0092
 7374WAT    EPW30218   1.796   5.085   3.289 -0.4844 -0.0773  0.0227
 7375WAT      O30219   3.275   6.445   5.948 -0.3060  0.1600 -0.6060
 7375WAT     H130220   3.248   6.508   6.002 -1.6965 -0.5241 -0.4555
 7375WAT     H230221   3.353   6.423   5.979 -0.9116  0.0533  0.8914
 7375WAT    EPW30222   3.282   6.451   5.960 -0.6009  0.0432 -0.3626
 7376WAT      O30223   1.601   6.857   7.813  0.1758 -0.0001  0.0105
 7376WAT     H130224   1.559   6.929   7.790  1.5979  0.9181  0.1278
 7376WAT     H230225   1.659   6.885   7.872  0.5170 -1.2956  0.3325
 7376WAT    EPW30226   1.603   6.872   7.818  0.4363 -0.0559  0.0754
 7377WAT      O30227   4.385   3.136   1.425  0.1129 -0.4851  0.4239
 7377WAT     H130228   4.385   3.164   1.343  2.2635  0.1531  0.6016
 7377WAT     H230229   4.365   3.051   1.418 -0.7496 -0.2131 -0.6213
 7377WAT    EPW30230   4.382   3.127   1.412  0.3032 -0.3506  0.2957
 7378WAT      O30231   4.432   2.794   0.393 -0.0184 -0.2279  0.3343
 7378WAT     H130232   4.381   2.735   0.431  0.3500  0.2697  1.6375
 7378WAT     H230233   4.507   2.789   0.437  0.0525  1.1328  0.4227
 7378WAT    EPW30234   4.436   2.785   0.405  0.0465  0.0466  0.5399
 7379WAT      O30235   5.323   4.033   2.267 -0.1915  0.0460  0.3222
 7379WAT     H130236   5.346   3.953   2.241  0.4438  0.6558 -1.0892
 7379WAT     H230237   5.399   4.075   2.273 -0.5748  0.7591  0.2643
 7379WAT    EPW30238   5.337   4.027   2.264 -0.1543  0.2414  0.1052
 7380WAT      O30239   4.572   1.485   1.333  0.6440 -0.1539 -0.5387
 7380WAT     H130240   4.572   1.572   1.340  1.8774 -0.1177 -0.7712
 7380WAT     H230241   4.520   1.459   1.397  1.5635  0.6952  0.5903
 7380WAT    EPW30242   4.564   1.494   1.343  0.9620 -0.0231 -0.4063
 7381WAT      O30243   1.583   6.675   2.373  0.0480 -0.5099  0.4714
 7381WAT     H130244   1.555   6.639   2.299 -1.8136  1.9127 -0.1333
 7381WAT     H230245   1.624   6.748   2.346  2.5774 -1.3454  1.6839
 7381WAT    EPW30246   1.585   6.681   2.358  0.1466 -0.2755  0.5612
 7382WAT      O30247   5.297   6.157   1.426  0.6288  0.9609 -0.1814
 7382WAT     H130248   5.217   6.179   1.402  1.1651  0.3194 -2.8652
 7382WAT     H230249   5.285   6.109   1.498 -1.4387  0.3482 -0.8795
 7382WAT    EPW30250   5.284   6.154   1.433  0.4026  0.7757 -0.6810
 7383WAT      O30251   1.148   3.091   0.497 -0.1476 -0.2809 -0.3446
 7383WAT     H130252   1.119   3.017   0.462 -0.5424 -0.9899  1.3436
 7383WAT     H230253   1.203   3.065   0.559  0.3642  0.8733 -0.2796
 7383WAT    EPW30254   1.152   3.076   0.501 -0.1303 -0.2152 -0.0856
 7384WAT      O30255   4.996   0.394   3.877  0.1292  0.4601 -0.0596
 7384WAT     H130256   5.081   0.403   3.859 -0.0262 -0.7389 -1.6337
 7384WAT     H230257   4.957   0.448   3.820 -0.1653  2.1793  1.6658
 7384WAT    EPW30258   5.003   0.403   3.866  0.0627  0.5370 -0.0372
 7385WAT      O30259   4.712   6.698   6.048 -0.4881  0.6206  0.8024
 7385WAT     H130260   4.677   6.618   6.047 -1.9053  1.2038 -1.0655
 7385WAT     H230261   4.662   6.740   6.107 -0.2084  0.3352  1.2488
 7385WAT    EPW30262   4.699   6.692   6.057 -0.6561  0.6646  0.5924
 7386WAT      O30263   5.944   5.057   6.541  0.4157 -0.3619  0.2270
 7386WAT     H130264   6.001   4.999   6.511  1.6042  1.4138 -1.1633
 7386WAT     H230265   5.880   5.056   6.482  1.9126  1.8476 -1.6165
 7386WAT    EPW30266   5.943   5.048   6.528  0.8124  0.2268 -0.2507
 7387WAT      O30267   2.655   4.712   1.024 -0.2509  0.1115  0.3915
 7387WAT     H130268   2.657   4.644   0.969 -0.9482  0.3752  0.0269
 7387WAT     H230269   2.732   4.708   1.064  0.5316  0.2674 -1.0369
 7387WAT    EPW30270   2.667   4.701   1.022 -0.2383  0.1734  0.1266
 7388WAT      O30271   5.761   5.792   7.178  0.4769  0.1578 -0.1209
 7388WAT     H130272   5.677   5.782   7.159  0.5157 -1.0794  0.2761
 7388WAT     H230273   5.764   5.868   7.220 -0.5183 -0.0079  0.2636
 7388WAT    EPW30274   5.749   5.802   7.182  0.3356 -0.0494 -0.0054
 7389WAT      O30275   4.678   2.738   2.046 -0.1967  0.1719  0.1312
 7389WAT     H130276   4.749   2.690   2.061  0.0882  0.6919  0.4587
 7389WAT     H230277   4.692   2.772   1.967 -0.3963 -0.2694 -0.0990
 7389WAT    EPW30278   4.690   2.736   2.037 -0.1841  0.1835  0.1455
 7390WAT      O30279   3.463   1.915   0.662 -0.3640 -0.2662  0.3424
 7390WAT     H130280   3.480   1.933   0.746 -1.8730 -0.2059  0.6593
 7390WAT     H230281   3.462   1.827   0.660  0.5654 -0.2823  0.1797
 7390WAT    EPW30282   3.465   1.904   0.674 -0.4496 -0.2597  0.3652
 7391WAT      O30283   5.243   4.763   4.110 -0.4465  0.4933 -0.1074
 7391WAT     H130284   5.205   4.835   4.081 -0.8494  1.0477  1.6737
 7391WAT     H230285   5.272   4.785   4.189  0.7225 -0.8735 -0.1044
 7391WAT    EPW30286   5.242   4.777   4.117 -0.3333  0.3733  0.1562
 7392WAT      O30287   3.996   6.169   7.728 -0.1471  0.2328 -0.3270
 7392WAT     H130288   4.037   6.243   7.751  0.2748  0.3079 -1.2893
 7392WAT     H230289   3.915   6.181   7.757  0.5435 -0.0726  1.9887
 7392WAT    EPW30290   3.990   6.182   7.736  0.0172  0.1988 -0.1271
 7393WAT      O30291   0.507   0.952   7.012 -0.3864  0.6353 -0.1533
 7393WAT     H130292   0.505   0.898   6.944 -1.2570  1.4610 -0.7923
 7393WAT     H230293   0.564   1.013   6.989 -0.7061  0.9347 -0.1498
 7393WAT    EPW30294   0.515   0.953   6.999 -0.5623  0.8015 -0.2472
 7394WAT      O30295   3.802   2.671   2.353  0.0529  0.1587  0.0583
 7394WAT     H130296   3.783   2.628   2.426  0.9342 -1.9580 -0.8719
 7394WAT     H230297   3.736   2.728   2.345 -0.5104 -0.1350  2.0252
 7394WAT    EPW30298   3.789   2.673   2.362  0.0998 -0.1974  0.2114
 7395WAT      O30299   2.391   6.555   4.620 -0.3046 -0.3075  0.1193
 7395WAT     H130300   2.414   6.626   4.576 -3.0463  0.4004 -0.3925
 7395WAT     H230301   2.436   6.491   4.581  1.0892  0.9187 -0.3837
 7395WAT    EPW30302   2.401   6.556   4.608 -0.5037 -0.0218 -0.0306
 7396WAT      O30303   6.697   6.650   0.175 -0.0307 -0.4860 -0.4552
 7396WAT     H130304   6.657   6.692   0.110 -1.0132 -0.2334  0.2949
 7396WAT     H230305   6.634   6.638   0.234  0.9514 -0.2359  0.6931
 7396WAT    EPW30306   6.682   6.654   0.174 -0.0307 -0.4118 -0.1748
 7397WAT      O30307   0.531   1.785   5.983 -0.1159  0.5100  0.0344
 7397WAT     H130308   0.585   1.738   6.032 -0.0180 -0.2433 -0.7814
 7397WAT     H230309   0.520   1.736   5.911 -1.3968  0.9312 -0.0729
 7397WAT    EPW30310   0.537   1.771   5.979 -0.2906  0.4609 -0.1020
 7398WAT      O30311   3.341   5.981   2.378 -0.1906  0.0599  0.3690
 7398WAT     H130312   3.284   6.019   2.431  0.7819 -0.3053  1.7384
 7398WAT     H230313   3.297   5.914   2.343 -0.4605 -0.5346  1.8004
 7398WAT    EPW30314   3.326   5.977   2.380 -0.0868 -0.0818  0.7827
 7399WAT      O30315   5.927   1.719   0.262 -0.3126 -0.2166 -0.0023
 7399WAT     H130316   5.957   1.801   0.270  0.1835 -0.4960  1.2948
 7399WAT     H230317   5.984   1.681   0.210  0.6986 -0.2888  1.1108
 7399WAT    EPW30318   5.940   1.726   0.256 -0.0900 -0.2686  0.3537
 7400WAT      O30319   3.669   3.356   1.531  0.0707  0.0636  0.2368
 7400WAT     H130320   3.586   3.361   1.557 -0.2468  1.2282 -0.9558
 7400WAT     H230321   3.663   3.340   1.446  1.0621  0.9565 -0.0121
 7400WAT    EPW30322   3.656   3.354   1.522  0.1703  0.3675  0.0239
 7401WAT      O30323   4.979   5.926   1.834  0.1904  0.1797  0.1097
 7401WAT     H130324   5.049   5.928   1.783 -0.3761 -1.9184 -0.8739
 7401WAT     H230325   5.010   5.944   1.913  1.7902 -0.3771 -0.3562
 7401WAT    EPW30326   4.994   5.929   1.838  0.3431 -0.2125 -0.1044
 7402WAT      O30327   6.084   5.603   6.555  0.3811  0.3187  0.9816
 7402WAT     H130328   6.008   5.581   6.518  0.1529  0.9269  1.0691
 7402WAT     H230329   6.126   5.527   6.563  0.9999  0.2649 -1.7424
 7402WAT    EPW30330   6.079   5.589   6.551  0.4388  0.4006  0.5921
 7403WAT      O30331   2.961   6.628   1.149  0.4083 -0.3652 -0.4579
 7403WAT     H130332   2.910   6.570   1.109  1.0638 -2.0471  0.9683
 7403WAT     H230333   3.026   6.641   1.092 -0.0260 -0.6135 -1.0182
 7403WAT    EPW30334   2.963   6.621   1.135  0.4410 -0.6503 -0.3300
 7404WAT      O30335   3.265   5.665   1.353 -0.1890  0.4264  0.0958
 7404WAT     H130336   3.347   5.693   1.346  0.2026 -0.8944 -1.4515
 7404WAT     H230337   3.223   5.708   1.290 -0.4437  0.3121  0.1851
 7404WAT    EPW30338   3.271   5.675   1.343 -0.1688  0.2144 -0.1196
 7405WAT      O30339   1.844   0.629   4.673 -0.5011  0.6754 -0.4527
 7405WAT     H130340   1.928   0.604   4.668 -0.6843  0.2455 -1.8344
 7405WAT     H230341   1.802   0.556   4.694 -0.4945  1.0236  0.8807
 7405WAT    EPW30342   1.850   0.614   4.676 -0.5272  0.6633 -0.4598
 7406WAT      O30343   2.873   6.154   5.790  0.5224  0.4730  0.0205
 7406WAT     H130344   2.809   6.134   5.845  0.5688  2.7960  1.0316
 7406WAT     H230345   2.932   6.092   5.803 -0.4737 -0.3399  0.8341
 7406WAT    EPW30346   2.872   6.142   5.800  0.3821  0.6961  0.2901
 7407WAT      O30347   4.486   0.728   3.418 -0.3842 -0.5808  0.2908
 7407WAT     H130348   4.509   0.644   3.418  0.0343 -0.4938  1.7484
 7407WAT     H230349   4.562   0.770   3.410 -0.6582 -0.3054 -1.3089
 7407WAT    EPW30350   4.500   0.722   3.416 -0.3628 -0.5273  0.2698
 7408WAT      O30351   3.641   1.195   0.883 -0.2433 -1.1096 -0.1531
 7408WAT     H130352   3.579   1.254   0.868 -1.2197 -2.4081 -1.5382
 7408WAT     H230353   3.638   1.184   0.970 -1.6791 -0.8373 -0.1373
 7408WAT    EPW30354   3.631   1.202   0.894 -0.5996 -1.2612 -0.3554
 7409WAT      O30355   4.419   5.961   5.873 -0.6970 -0.0900  0.0007
 7409WAT     H130356   4.409   6.030   5.820 -0.4887  0.6377  0.8848
 7409WAT     H230357   4.444   5.898   5.819 -1.3126  0.4144 -0.8967
 7409WAT    EPW30358   4.421   5.962   5.857 -0.7572  0.0920 -0.0013
 7410WAT      O30359   5.714   2.370   2.378  0.0904  0.0360  0.0358
 7410WAT     H130360   5.745   2.406   2.451 -0.7607  0.9990 -0.0543
 7410WAT     H230361   5.658   2.429   2.347 -0.3146 -0.7750 -0.8772
 7410WAT    EPW30362   5.710   2.384   2.384 -0.0951  0.0585 -0.1124
 7411WAT      O30363   3.602   1.592   1.169 -0.0802 -0.0037 -0.3320
 7411WAT     H130364   3.600   1.679   1.156  0.7500 -0.1000 -1.2297
 7411WAT     H230365   3.626   1.560   1.091  2.8194 -0.7963  0.7364
 7411WAT    EPW30366   3.605   1.600   1.155  0.4708 -0.1350 -0.3068
 7412WAT      O30367   1.481   3.472   4.788  0.2508  0.5245  0.1764
 7412WAT     H130368   1.483   3.480   4.701  0.7944  0.3632  0.1692
 7412WAT     H230369   1.437   3.397   4.800 -3.0280  2.2713  0.1819
 7412WAT    EPW30370   1.475   3.462   4.777 -0.1533  0.7587  0.1761
 7413WAT      O30371   2.904   5.897   0.563  0.0136 -0.4631 -0.0033
 7413WAT     H130372   2.956   5.887   0.633  0.8701  2.0124 -0.1815
 7413WAT     H230373   2.828   5.921   0.597  0.4734  0.8901  0.1139
 7413WAT    EPW30374   2.900   5.899   0.579  0.2080  0.1025 -0.0123
 7414WAT      O30375   4.365   0.109   3.342 -0.6537  0.0178 -0.1559
 7414WAT     H130376   4.349   0.060   3.412  1.4746 -0.2394  0.2346
 7414WAT     H230377   4.446   0.139   3.356 -0.7341  1.1838 -1.8181
 7414WAT    EPW30378   4.375   0.107   3.354 -0.3512  0.1521 -0.3437
 7415WAT      O30379   2.707   3.469   0.153 -0.2036  0.5965 -0.2197
 7415WAT     H130380   2.660   3.490   0.224 -0.2630  1.1064 -0.4052
 7415WAT     H230381   2.649   3.428   0.103 -0.7058  1.9350 -0.8012
 7415WAT    EPW30382   2.691   3.466   0.156 -0.2865  0.8695 -0.3330
 7416WAT      O30383   3.864   5.037   7.254  0.0116 -0.6778 -0.0093
 7416WAT     H130384   3.893   5.029   7.172  1.2420 -2.2915  0.5294
 7416WAT     H230385   3.798   4.980   7.258 -0.0125 -0.6385  0.1306
 7416WAT    EPW30386   3.859   5.027   7.242  0.1898 -0.9103  0.0910
 7417WAT      O30387   3.171   7.462   1.645  0.2728  0.0401  0.9820
 7417WAT     H130388   3.160   7.548   1.656  0.9767  0.0417  1.7990
 7417WAT     H230389   3.105   7.440   1.593  0.8922  1.3263 -0.4581
 7417WAT    EPW30390   3.160   7.472   1.639  0.4683  0.2303  0.8899
 7418WAT      O30391   5.481   4.612   1.279 -0.0177  0.2338  0.2214
 7418WAT     H130392   5.540   4.573   1.228 -0.0416  1.9030 -1.1954
 7418WAT     H230393   5.416   4.631   1.224 -1.2331 -0.2151  1.4448
 7418WAT    EPW30394   5.480   4.609   1.263 -0.2007  0.4141  0.1928
 7419WAT      O30395   0.928   6.658   5.324 -0.1452  0.3430  0.1169
 7419WAT     H130396   0.992   6.704   5.362 -0.9080  1.1112  0.4946
 7419WAT     H230397   0.966   6.626   5.252  0.5747  1.0465  0.1725
 7419WAT    EPW30398   0.943   6.660   5.319 -0.1516  0.5604  0.1809
 7420WAT      O30399   5.037   4.172   0.647 -0.4138  0.7607 -0.1605
 7420WAT     H130400   5.034   4.135   0.568  0.7784 -0.7077  0.4494
 7420WAT     H230401   5.062   4.254   0.630  1.9527 -0.0881 -1.2145
 7420WAT    EPW30402   5.040   4.179   0.633  0.1119  0.4184 -0.2261
 7421WAT      O30403   0.504   4.902   4.048  1.3293  0.7077 -0.6156
 7421WAT     H130404   0.428   4.883   4.087  0.9658 -0.2610 -1.7246
 7421WAT     H230405   0.489   4.978   4.009  0.1833 -0.3988 -2.5169
 7421WAT    EPW30406   0.491   4.910   4.048  1.1063  0.4011 -1.0603
 7422WAT      O30407   4.619   0.282   6.142  0.0689 -0.1703  0.0941
 7422WAT     H130408   4.675   0.327   6.190  0.5117 -0.8970  0.2728
 7422WAT     H230409   4.662   0.268   6.067  0.6433 -1.7630  0.6614
 7422WAT    EPW30410   4.634   0.286   6.138  0.2192 -0.5129  0.2043
 7423WAT      O30411   5.220   4.178   6.388 -0.5161  0.2792 -0.3069
 7423WAT     H130412   5.272   4.247   6.381 -1.1808  0.8484  0.1432
 7423WAT     H230413   5.267   4.112   6.356  0.0992  0.9569 -0.8087
 7423WAT    EPW30414   5.235   4.178   6.382 -0.5234  0.4634 -0.3145
 7424WAT      O30415   1.706   7.663   7.723 -0.4244  0.1586  0.2988
 7424WAT     H130416   1.742   7.586   7.741 -1.2896 -0.7737 -1.5867
 7424WAT     H230417   1.769   7.706   7.681 -0.1943  0.1477  0.6378
 7424WAT    EPW30418   1.721   7.658   7.719 -0.5182  0.0193  0.0703
 7425WAT      O30419   1.252   0.485   0.150  0.1742 -0.1233  0.8838
 7425WAT     H130420   1.196   0.533   0.103 -1.1825 -1.1400  1.3926
 7425WAT     H230421   1.327   0.492   0.105 -0.1490  1.8406  0.5566
 7425WAT    EPW30422   1.255   0.493   0.136 -0.0740  0.0167  0.9107
 7426WAT      O30423   6.085   7.558   3.135 -0.6103 -0.3021 -0.6391
 7426WAT     H130424   6.149   7.507   3.164 -0.1765  1.0974  1.0533
 7426WAT     H230425   6.124   7.607   3.074 -0.0624  0.4396  0.2759
 7426WAT    EPW30426   6.100   7.558   3.130 -0.4653  0.0142 -0.2540
 7427WAT      O30427   1.234   5.850   7.193 -0.9591  0.3562 -0.1960
 7427WAT     H130428   1.225   5.783   7.249 -1.3824  0.1151 -0.5440
 7427WAT     H230429   1.220   5.920   7.243  0.9263  0.2893  0.4953
 7427WAT    EPW30430   1.231   5.850   7.209 -0.7431  0.3107 -0.1453
 7428WAT      O30431   0.243   3.442   7.366  0.3105  0.1027  0.0753
 7428WAT     H130432   0.208   3.363   7.356 -0.0122  0.1037  1.1112
 7428WAT     H230433   0.314   3.426   7.415  0.6195  0.3695 -0.2821
 7428WAT    EPW30434   0.249   3.428   7.372  0.3085  0.1423  0.1755
 7429WAT      O30435   4.777   2.805   7.373  0.7931 -0.1024 -0.0238
 7429WAT     H130436   4.823   2.817   7.446  0.8269 -0.5206  0.0224
 7429WAT     H230437   4.739   2.883   7.360  0.1584 -0.2406  0.8678
 7429WAT    EPW30438   4.778   2.818   7.382  0.7044 -0.1846  0.1147
 7430WAT      O30439   2.332   4.208   1.929  0.6528  0.2423  0.3054
 7430WAT     H130440   2.367   4.167   1.998  1.6736  2.9293  1.5355
 7430WAT     H230441   2.248   4.216   1.951  1.0532  1.5099  1.5829
 7430WAT    EPW30442   2.325   4.203   1.943  0.8627  0.8265  0.6758
 7431WAT      O30443   4.377   4.259   0.313  0.2514 -0.2488  0.4865
 7431WAT     H130444   4.309   4.207   0.295 -1.0564  0.0975  3.7686
 7431WAT     H230445   4.446   4.210   0.293 -0.9519 -1.8144 -0.0395
 7431WAT    EPW30446   4.377   4.244   0.308 -0.1196 -0.4289  0.8936
 7432WAT      O30447   3.304   3.042   0.252  0.2317 -0.5878 -0.6732
 7432WAT     H130448   3.279   3.111   0.206 -0.7330 -0.9003 -0.6235
 7432WAT     H230449   3.254   2.977   0.222 -0.4270 -0.8064  0.7847
 7432WAT    EPW30450   3.293   3.042   0.241 -0.0081 -0.6663 -0.4505
 7433WAT      O30451   3.127   5.056   5.432 -0.0003 -0.0246 -0.0574
 7433WAT     H130452   3.211   5.034   5.424  0.0594 -0.0395  0.5645
 7433WAT     H230453   3.095   4.995   5.484 -0.1375  0.6125  0.6147
 7433WAT    EPW30454   3.135   5.044   5.438 -0.0118  0.0673  0.1337
 7434WAT      O30455   3.662   5.624   0.947  0.0777 -0.0385  1.0119
 7434WAT     H130456   3.597   5.676   0.975  1.2271  0.8283  2.1940
 7434WAT     H230457   3.663   5.638   0.861 -2.8961 -1.9875  0.4964
 7434WAT    EPW30458   3.652   5.634   0.939 -0.1918 -0.1984  1.1103
 7435WAT      O30459   3.437   2.404   5.328  0.0013  0.3073  0.0123
 7435WAT     H130460   3.415   2.398   5.412 -0.5603 -0.4381 -0.1786
 7435WAT     H230461   3.432   2.489   5.311 -2.4624  0.2286  0.0561
 7435WAT    EPW30462   3.433   2.416   5.338 -0.4456  0.1856 -0.0094
 7436WAT      O30463   2.650   5.584   3.021 -0.0259 -0.4219  0.3481
 7436WAT     H130464   2.681   5.576   3.103  2.5082 -1.1807 -0.5931
 7436WAT     H230465   2.564   5.575   3.031  0.1423  0.0198  2.9823
 7436WAT    EPW30466   2.642   5.582   3.035  0.3733 -0.4688  0.5982
 7437WAT      O30467   6.998   7.028   0.346 -0.1378  0.3870 -0.2571
 7437WAT     H130468   7.008   6.976   0.276  0.4144  0.5576 -0.3042
 7437WAT     H230469   6.911   7.030   0.356 -0.2757  0.8972 -1.3475
 7437WAT    EPW30470   6.987   7.021   0.337 -0.0766  0.4876 -0.4251
 7438WAT      O30471   3.814   5.336   2.965  0.2962  0.2773 -0.1867
 7438WAT     H130472   3.780   5.416   2.952  0.5053  0.5182  0.6965
 7438WAT     H230473   3.837   5.337   3.049 -0.9857 -1.2002  0.2284
 7438WAT    EPW30474   3.812   5.348   2.975  0.1378  0.0946  0.0051
 7439WAT      O30475   1.730   5.112   1.868  0.3904 -0.1686  0.2406
 7439WAT     H130476   1.685   5.085   1.798 -1.4424  1.5254  0.6636
 7439WAT     H230477   1.762   5.038   1.901 -0.4328 -1.2487 -1.2424
 7439WAT    EPW30478   1.728   5.097   1.862 -0.0019 -0.0779  0.0840
 7440WAT      O30479   3.051   4.966   2.156 -0.5176  0.0832  0.4880
 7440WAT     H130480   2.993   4.960   2.091 -0.8465  1.1991  0.6564
 7440WAT     H230481   3.092   5.042   2.141 -0.1750  0.0649  1.2439
 7440WAT    EPW30482   3.049   4.976   2.144 -0.5156  0.2454  0.6246
 7441WAT      O30483   4.351   3.599   0.379 -0.0321 -0.0410 -0.0999
 7441WAT     H130484   4.390   3.671   0.351 -0.1935  0.3887  0.7433
 7441WAT     H230485   4.321   3.621   0.458 -2.0278 -0.3159 -0.7101
 7441WAT    EPW30486   4.352   3.613   0.387 -0.3507 -0.0182 -0.0655
 7442WAT      O30487   2.678   6.132   3.042  0.1764  0.3299  0.1952
 7442WAT     H130488   2.757   6.102   3.065  0.1279  1.1223  1.5172
 7442WAT     H230489   2.695   6.190   2.979  0.6990  0.7511  0.7140
 7442WAT    EPW30490   2.692   6.136   3.037  0.2464  0.5092  0.4671
 7443WAT      O30491   1.670   1.288   0.001 -0.2590 -0.1081 -0.4243
 7443WAT     H130492   1.677   1.316   0.083  0.2700  0.6908 -0.7325
 7443WAT     H230493   1.598   1.238   0.002  1.7002 -3.1433  1.3408
 7443WAT    EPW30494   1.660   1.285   0.013  0.1086 -0.4384 -0.2091
 7444WAT      O30495   3.896   4.717   3.978 -0.1074 -0.2648 -0.1682
 7444WAT     H130496   3.914   4.724   3.893 -0.4757  0.8953 -0.1636
 7444WAT     H230497   3.967   4.750   4.017 -0.3819  0.2074 -0.0569
 7444WAT    EPW30498   3.909   4.723   3.971 -0.2024 -0.0237 -0.1511
 7445WAT      O30499   4.811   5.626   7.469  0.0977  0.6054 -0.2129
 7445WAT     H130500   4.736   5.663   7.444  1.1080  3.0123 -0.0097
 7445WAT     H230501   4.834   5.673   7.539  1.5279 -0.4369  0.0632
 7445WAT    EPW30502   4.803   5.639   7.476  0.4582  0.8070 -0.1421
 7446WAT      O30503   1.278   4.338   6.325  0.5958 -0.1127  0.1692
 7446WAT     H130504   1.202   4.321   6.287  0.5326  2.5492 -1.1955
 7446WAT     H230505   1.257   4.391   6.391  0.9964 -2.2904  2.1353
 7446WAT    EPW30506   1.264   4.343   6.329  0.6456 -0.0412  0.2580
 7447WAT      O30507   4.486   6.861   5.627  0.5031 -0.0813  0.3961
 7447WAT     H130508   4.526   6.802   5.677  0.3262 -1.0809 -0.6033
 7447WAT     H230509   4.412   6.878   5.671  0.1228 -1.2993  0.2632
 7447WAT    EPW30510   4.481   6.855   5.641  0.4208 -0.4089  0.2288
 7448WAT      O30511   2.435   4.066   2.142  0.4828  0.2110 -0.2205
 7448WAT     H130512   2.367   4.016   2.164 -0.9225  1.2811 -1.8492
 7448WAT     H230513   2.504   4.012   2.148 -0.2612 -0.5310  2.8018
 7448WAT    EPW30514   2.435   4.050   2.146  0.1653  0.2594 -0.0146
 7449WAT      O30515   2.400   4.107   1.681  0.0021  0.6900 -0.0667
 7449WAT     H130516   2.481   4.135   1.667  0.3647 -1.0765 -2.1809
 7449WAT     H230517   2.379   4.139   1.759  2.4533  1.7871  0.2144
 7449WAT    EPW30518   2.409   4.116   1.690  0.4177  0.5911 -0.3375
 7450WAT      O30519   4.338   1.589   2.291 -0.0114  0.4729 -0.0903
 7450WAT     H130520   4.401   1.634   2.332  0.4869 -0.1393 -0.1522
 7450WAT     H230521   4.308   1.645   2.232  1.1152  0.4882 -0.6787
 7450WAT    EPW30522   4.343   1.604   2.289  0.2287  0.3847 -0.1864
 7451WAT      O30523   2.323   0.145   6.056  0.4525  0.2497 -0.2963
 7451WAT     H130524   2.296   0.218   6.096 -0.2363  0.5674 -1.3048
 7451WAT     H230525   2.267   0.135   5.990  1.2682 -0.5202 -0.9069
 7451WAT    EPW30526   2.311   0.154   6.052  0.4712  0.1829 -0.5355
 7452WAT      O30527   5.693   7.458   1.704 -0.2706 -0.2052  0.2343
 7452WAT     H130528   5.630   7.410   1.741  0.8976 -0.8778  1.4532
 7452WAT     H230529   5.718   7.408   1.636  0.6045 -1.1501  1.2097
 7452WAT    EPW30530   5.687   7.443   1.699  0.0312 -0.4442  0.5585
 7453WAT      O30531   3.955   1.349   1.427 -0.1867 -0.1321  0.0026
 7453WAT     H130532   3.928   1.403   1.363  1.0571 -1.4629 -1.7636
 7453WAT     H230533   4.013   1.397   1.471 -0.5548  0.6057 -0.2995
 7453WAT    EPW30534   3.960   1.364   1.424 -0.0573 -0.2197 -0.3029
 7454WAT      O30535   4.037   1.907   2.988 -0.2716 -0.4630 -0.3554
 7454WAT     H130536   4.060   1.918   2.904  0.7160  0.4622  0.0135
 7454WAT     H230537   4.110   1.874   3.024 -0.5859 -0.5460  0.2035
 7454WAT    EPW30538   4.051   1.904   2.981 -0.1721 -0.3386 -0.2184
 7455WAT      O30539   0.545   0.158   5.716  0.4406  0.1616 -0.2274
 7455WAT     H130540   0.487   0.160   5.781 -0.7242 -0.9638 -1.1794
 7455WAT     H230541   0.513   0.097   5.662  1.7347  0.5717 -1.5136
 7455WAT    EPW30542   0.532   0.150   5.718  0.4597  0.0559 -0.5580
 7456WAT      O30543   2.928   1.734   2.242  0.1584 -0.5016 -0.2182
 7456WAT     H130544   2.908   1.791   2.179  1.1435  0.1889  0.0824
 7456WAT     H230545   2.994   1.772   2.285  0.3653 -1.5471  0.4294
 7456WAT    EPW30546   2.935   1.748   2.239  0.3345 -0.5540 -0.0781
 7457WAT      O30547   7.100   5.752   0.025  0.3595 -0.3244  0.3057
 7457WAT     H130548   7.145   5.683  -0.006  0.4899  0.0235 -0.2907
 7457WAT     H230549   7.025   5.717   0.053  0.1411 -0.6132 -0.6235
 7457WAT    EPW30550   7.096   5.736   0.025  0.3465 -0.3157  0.0803
 7458WAT      O30551   5.224   3.194   0.522 -0.2081  0.4296 -0.3965
 7458WAT     H130552   5.215   3.164   0.440  0.8183 -0.8088 -0.0923
 7458WAT     H230553   5.238   3.121   0.569  0.7220  1.2475  0.6426
 7458WAT    EPW30554   5.225   3.178   0.517  0.0809  0.3675 -0.1980
 7459WAT      O30555   4.843   3.708   4.249 -0.0002 -0.1436  0.1261
 7459WAT     H130556   4.770   3.670   4.278  0.9328 -2.2530 -0.1009
 7459WAT     H230557   4.840   3.693   4.163  0.7481 -0.3823  0.1377
 7459WAT    EPW30558   4.832   3.700   4.241  0.2482 -0.4905  0.0943
 7460WAT      O30559   3.647   3.791   2.440 -0.1195  0.2395 -0.0139
 7460WAT     H130560   3.571   3.833   2.438 -0.6585 -0.7244 -1.3933
 7460WAT     H230561   3.706   3.855   2.441 -0.9287  1.0023  0.5150
 7460WAT    EPW30562   3.645   3.806   2.440 -0.3187  0.2098 -0.1395
 7461WAT      O30563   1.599   0.088   5.409 -0.2858 -0.0802  0.7642
 7461WAT     H130564   1.669   0.114   5.365 -0.8101  1.6086  0.8541
 7461WAT     H230565   1.537   0.084   5.348 -0.6993  0.9883  1.0815
 7461WAT    EPW30566   1.600   0.091   5.393 -0.4243  0.3271  0.8244
 7462WAT      O30567   1.731   6.039   1.203 -0.2427 -0.5349 -0.0553
 7462WAT     H130568   1.772   5.964   1.220  0.1338 -0.7949 -1.8749
 7462WAT     H230569   1.673   6.017   1.142  0.0681  0.6905 -0.8303
 7462WAT    EPW30570   1.729   6.025   1.196 -0.1411 -0.3923 -0.4386
 7463WAT      O30571   3.232   5.510   7.831  0.8036  0.1341 -0.0798
 7463WAT     H130572   3.302   5.459   7.816 -0.7810 -2.1372 -0.2630
 7463WAT     H230573   3.208   5.487   7.912 -0.1069  0.4172 -0.2631
 7463WAT    EPW30574   3.239   5.499   7.841  0.4350 -0.1596 -0.1340
 7464WAT      O30575   3.292   5.540   2.913  0.0825  0.6563  0.3029
 7464WAT     H130576   3.333   5.484   2.860  1.0108 -0.3143  1.9683
 7464WAT     H230577   3.354   5.598   2.933  0.0043  0.5251  0.9603
 7464WAT    EPW30578   3.307   5.540   2.908  0.2081  0.4936  0.6461
 7465WAT      O30579   4.389   1.842   6.800 -0.3619 -0.1167 -0.4773
 7465WAT     H130580   4.405   1.786   6.866 -1.6046  0.6464  0.5245
 7465WAT     H230581   4.463   1.841   6.755  0.3567 -1.0742  0.6355
 7465WAT    EPW30582   4.402   1.833   6.803 -0.4393 -0.1454 -0.1649
 7466WAT      O30583   5.069   6.572   0.050  0.4305 -0.1153 -0.0283
 7466WAT     H130584   4.995   6.534   0.077 -0.3588  0.1976 -1.5725
 7466WAT     H230585   5.065   6.564  -0.037  2.0509  0.2430 -0.1641
 7466WAT    EPW30586   5.057   6.566   0.041  0.5533 -0.0161 -0.2765
 7467WAT      O30587   1.277   7.349   1.133 -0.0596 -0.1683  0.5123
 7467WAT     H130588   1.339   7.287   1.137  1.5563  1.2448 -1.1571
 7467WAT     H230589   1.273   7.378   1.216  1.2977 -0.5163  0.7308
 7467WAT    EPW30590   1.286   7.344   1.146  0.3796 -0.0110  0.2980
 7468WAT      O30591   1.201   5.151   7.486  0.1426 -0.1878  0.5188
 7468WAT     H130592   1.157   5.133   7.413  0.9245 -0.0182  0.0015
 7468WAT     H230593   1.170   5.092   7.543 -0.8045 -0.0192  0.1862
 7468WAT    EPW30594   1.190   5.139   7.484  0.1182 -0.1379  0.3933
 7469WAT      O30595   4.266   0.857   0.406  0.1472 -0.1981 -0.1434
 7469WAT     H130596   4.190   0.882   0.371 -1.2827 -2.5328  1.0463
 7469WAT     H230597   4.303   0.808   0.344  0.8675  1.1688 -0.8300
 7469WAT    EPW30598   4.260   0.854   0.392  0.0424 -0.3411 -0.0691
 7470WAT      O30599   0.496   0.066   0.329 -0.4779  0.5394  0.0745
 7470WAT     H130600   0.435   0.122   0.301 -0.4241  0.1762 -0.7706
 7470WAT     H230601   0.476   0.055   0.413 -0.8905  1.3080  0.0898
 7470WAT    EPW30602   0.484   0.073   0.338 -0.5309  0.5993 -0.0481
 7471WAT      O30603   1.594   1.928   0.705 -0.8328 -0.3775 -0.3084
 7471WAT     H130604   1.647   1.863   0.682 -0.2471  0.4903 -1.5111
 7471WAT     H230605   1.527   1.887   0.744  1.1822 -1.4559  2.3319
 7471WAT    EPW30606   1.592   1.912   0.707 -0.4486 -0.4086 -0.0960
 7472WAT      O30607   2.367   5.032   6.535  0.0782 -0.0544  0.6899
 7472WAT     H130608   2.284   5.026   6.562  0.4663 -1.8439  1.7445
 7472WAT     H230609   2.411   4.987   6.597  1.8472  0.9468  0.2280
 7472WAT    EPW30610   2.361   5.024   6.548  0.3969 -0.1709  0.7775
 7473WAT      O30611   2.499   5.622   5.619  0.7233  0.3586 -0.1155
 7473WAT     H130612   2.481   5.577   5.547 -0.4244  1.6318 -0.6601
 7473WAT     H230613   2.420   5.637   5.654  1.0827  1.8427  0.1006
 7473WAT    EPW30614   2.485   5.617   5.614  0.6068  0.7659 -0.1640
 7474WAT      O30615   5.979   0.413   4.298  0.2912  0.3664 -0.1988
 7474WAT     H130616   5.895   0.402   4.319  0.3394 -1.3704 -0.7316
 7474WAT     H230617   6.022   0.384   4.368  0.4389 -0.5592 -0.6643
 7474WAT    EPW30618   5.973   0.407   4.311  0.3201 -0.0269 -0.3463
 7475WAT      O30619   1.075   0.257   0.534 -0.3791  0.1742  0.8137
 7475WAT     H130620   1.138   0.312   0.510 -0.5118  0.6082  1.4348
 7475WAT     H230621   1.107   0.218   0.606 -1.5460  1.8204  2.3302
 7475WAT    EPW30622   1.089   0.259   0.541 -0.5711  0.4815  1.1294
 7476WAT      O30623   2.521   6.667   2.005 -0.0646 -0.0606 -0.1687
 7476WAT     H130624   2.540   6.750   1.987 -0.3533  0.2257  0.8085
 7476WAT     H230625   2.442   6.656   1.968 -0.1264  0.1689 -0.1041
 7476WAT    EPW30626   2.512   6.677   1.997 -0.1164  0.0156 -0.0148
 7477WAT      O30627   2.348   2.587   7.521 -0.4414 -0.5680  0.5296
 7477WAT     H130628   2.304   2.568   7.449  1.2585  1.2318 -1.1027
 7477WAT     H230629   2.307   2.658   7.552  1.1323  1.1368 -1.0165
 7477WAT    EPW30630   2.336   2.595   7.515  0.0422 -0.0503  0.0601
 7478WAT      O30631   4.118   4.927   6.236  0.3083  0.2979 -0.2173
 7478WAT     H130632   4.098   4.966   6.312  1.1254  0.5652 -0.1278
 7478WAT     H230633   4.202   4.908   6.245  0.3430  0.0947 -0.9645
 7478WAT    EPW30634   4.127   4.930   6.249  0.4341  0.3074 -0.3144
 7479WAT      O30635   4.607   4.452   6.003 -0.1100  0.5000 -0.0089
 7479WAT     H130636   4.646   4.377   6.022 -2.2209 -1.3884 -2.3655
 7479WAT     H230637   4.559   4.469   6.074  1.3690  0.4013  1.0620
 7479WAT    EPW30638   4.606   4.444   6.016 -0.2033  0.2065 -0.1988
 7480WAT      O30639   7.523   5.006   7.417  0.1262  0.1177  0.6827
 7480WAT     H130640   7.523   5.031   7.334  0.5336 -1.9592  0.0127
 7480WAT     H230641   7.444   5.030   7.445 -0.7546 -0.8449 -0.8565
 7480WAT    EPW30642   7.512   5.014   7.409  0.0563 -0.3313  0.3563
 7481WAT      O30643   4.899   7.544   3.329 -0.0826 -0.5204 -0.9644
 7481WAT     H130644   4.928   7.580   3.403  0.5226 -1.4055 -0.7458
 7481WAT     H230645   4.898   7.610   3.272 -1.6663  0.4416  0.1088
 7481WAT    EPW30646   4.903   7.559   3.332 -0.2271 -0.5090 -0.7736
 7482WAT      O30647   7.180   4.544   4.976  0.0217  0.0800  0.8456
 7482WAT     H130648   7.130   4.605   4.938  0.0798 -0.3605  0.0364
 7482WAT     H230649   7.251   4.589   5.000  0.0592  0.3409  0.2678
 7482WAT    EPW30650   7.183   4.560   4.974  0.0358  0.0535  0.6407
 7483WAT      O30651   2.575   5.428   4.545  0.0037 -0.0715 -0.2515
 7483WAT     H130652   2.501   5.464   4.517  0.3749 -0.6879 -2.1854
 7483WAT     H230653   2.577   5.351   4.505 -0.2309 -1.8893  2.9357
 7483WAT    EPW30654   2.565   5.422   4.535  0.0239 -0.4311 -0.0664
 7484WAT      O30655   3.032   1.692   1.248 -0.1842  0.1867 -0.5169
 7484WAT     H130656   3.046   1.769   1.211  1.2097 -0.1723 -0.7974
 7484WAT     H230657   3.110   1.653   1.244 -0.1781 -0.2323  1.9529
 7484WAT    EPW30658   3.046   1.698   1.242  0.0226  0.0718 -0.1935
 7485WAT      O30659   4.010   0.802   6.109  0.1457 -0.2691 -0.3346
 7485WAT     H130660   3.974   0.724   6.094  1.1787 -0.4739 -2.0120
 7485WAT     H230661   4.076   0.805   6.053  0.6787  1.4661  0.3225
 7485WAT    EPW30662   4.014   0.791   6.099  0.3770 -0.0430 -0.4853
 7486WAT      O30663   3.009   4.887   1.016  0.3396 -0.1049 -0.1652
 7486WAT     H130664   2.962   4.898   1.089  1.1041  0.2992  0.2808
 7486WAT     H230665   3.052   4.813   1.030  1.7686  0.8148  0.5400
 7486WAT    EPW30666   3.008   4.878   1.029  0.6637  0.0907  0.0048
 7487WAT      O30667   2.768   2.347   1.096  0.3977 -0.0876 -0.3801
 7487WAT     H130668   2.826   2.410   1.080  1.9672 -1.0428  1.1185
 7487WAT     H230669   2.731   2.372   1.171  0.3067 -0.4358 -0.3068
 7487WAT    EPW30670   2.771   2.360   1.105  0.6161 -0.2801 -0.1479
 7488WAT      O30671   3.697   1.200   2.322 -0.4013  0.1732 -0.5722
 7488WAT     H130672   3.754   1.240   2.375  0.7088  1.3268 -2.4989
 7488WAT     H230673   3.630   1.181   2.374 -0.0890  2.7261  0.9101
 7488WAT    EPW30674   3.695   1.203   2.337 -0.1912  0.7207 -0.6378
 7489WAT      O30675   5.103   1.923   6.271  0.8724 -0.4910  0.3138
 7489WAT     H130676   5.177   1.931   6.315  1.0104  1.0152 -0.1352
 7489WAT     H230677   5.129   1.910   6.189  0.6588  0.2085  0.1259
 7489WAT    EPW30678   5.117   1.922   6.265  0.8613 -0.1652  0.2197
 7490WAT      O30679   5.535   3.371   7.031 -0.4916 -0.3477  0.2549
 7490WAT     H130680   5.456   3.404   7.048 -0.6275 -0.9318  0.7707
 7490WAT     H230681   5.589   3.424   7.075 -0.4581  0.8780 -1.1802
 7490WAT    EPW30682   5.531   3.384   7.040 -0.5068 -0.2530  0.1191
 7491WAT      O30683   0.332   1.900   6.624  0.8615 -0.0363  0.2337
 7491WAT     H130684   0.317   1.815   6.610  0.4928 -0.0993  0.9616
 7491WAT     H230685   0.388   1.901   6.691  1.6424  0.2842 -0.4033
 7491WAT    EPW30686   0.338   1.888   6.632  0.9224  0.0017  0.2471
 7492WAT      O30687   1.803   1.005   1.475  0.2958 -0.0665 -0.4494
 7492WAT     H130688   1.736   1.005   1.531  1.1624 -1.1189  0.6503
 7492WAT     H230689   1.867   0.968   1.521  2.1846  2.4931 -0.8383
 7492WAT    EPW30690   1.802   1.000   1.490  0.7028  0.1562 -0.3444
 7493WAT      O30691   2.743   5.214   1.609 -0.0136 -0.1529  0.0638
 7493WAT     H130692   2.729   5.127   1.610  1.2188 -0.3904 -0.9272
 7493WAT     H230693   2.699   5.241   1.539  1.1710 -0.3037 -0.7682
 7493WAT    EPW30694   2.734   5.205   1.599  0.3435 -0.2103 -0.2055
 7494WAT      O30695   6.333   1.845   0.208 -0.5057 -0.3217  0.1230
 7494WAT     H130696   6.331   1.760   0.189 -0.5599 -1.0849  3.0593
 7494WAT     H230697   6.264   1.856   0.260 -1.2552  1.8713 -1.1743
 7494WAT    EPW30698   6.322   1.834   0.213 -0.6244 -0.1105  0.3651
 7495WAT      O30699   2.571   5.489   7.188 -0.6907 -0.3216 -0.2731
 7495WAT     H130700   2.646   5.465   7.225  0.2436  0.3108 -1.6627
 7495WAT     H230701   2.533   5.540   7.248  0.4763  0.1807  0.0502
 7495WAT    EPW30702   2.576   5.493   7.202 -0.3803 -0.1539 -0.4306
 7496WAT      O30703   3.473   5.615   0.286  0.7073  0.0959  0.1420
 7496WAT     H130704   3.451   5.691   0.251  0.6977  0.4697  0.9289
 7496WAT     H230705   3.441   5.620   0.367  0.8840 -0.6631  0.2702
 7496WAT    EPW30706   3.465   5.627   0.293  0.7320  0.0390  0.2772
 7497WAT      O30707   2.649   4.586   1.971  0.5757  0.4613 -0.2004
 7497WAT     H130708   2.568   4.554   1.976  1.7153 -2.5809  1.6018
 7497WAT     H230709   2.654   4.642   2.037 -0.0717  0.7713 -0.4068
 7497WAT    EPW30710   2.637   4.589   1.981  0.6484  0.0577  0.0354
 7498WAT      O30711   2.053   5.417   1.778 -0.2950 -0.4436  0.2475
 7498WAT     H130712   1.982   5.432   1.729  0.0017  1.4243  0.3201
 7498WAT     H230713   2.118   5.451   1.731  0.2283 -0.1483  1.1489
 7498WAT    EPW30714   2.052   5.425   1.764 -0.1738 -0.1240  0.3914
 7499WAT      O30715   4.913   5.955   6.007 -0.1639  0.2306 -0.1018
 7499WAT     H130716   4.853   5.938   6.068  0.2745 -0.2877  0.1871
 7499WAT     H230717   4.878   6.022   5.962 -1.5274 -0.8498 -0.7292
 7499WAT    EPW30718   4.899   5.962   6.009 -0.3006 -0.0055 -0.1518
 7500WAT      O30719   2.820   2.504   7.624  0.5405  0.3401 -0.0122
 7500WAT     H130720   2.774   2.531   7.693 -0.9124 -2.1615  0.1242
 7500WAT     H230721   2.759   2.493   7.562  0.9305 -2.5628 -0.0007
 7500WAT    EPW30722   2.804   2.507   7.625  0.3835 -0.4583  0.0096
 7501WAT      O30723   2.940   0.488   6.878  0.0758 -0.4688 -1.2960
 7501WAT     H130724   2.887   0.557   6.882 -0.2816 -0.6732 -2.2964
 7501WAT     H230725   2.949   0.473   6.793 -0.8037 -2.3601 -1.1124
 7501WAT    EPW30726   2.933   0.496   6.866 -0.1069 -0.7784 -1.4167
 7502WAT      O30727   4.220   0.396   7.790  0.2175  0.0588 -0.2521
 7502WAT     H130728   4.199   0.475   7.761  2.1420  1.5554  2.1122
 7502WAT     H230729   4.271   0.363   7.727 -0.4496  0.7306 -1.1639
 7502WAT    EPW30730   4.224   0.403   7.776  0.4032  0.3791 -0.0375
 7503WAT      O30731   1.147   7.205   2.874 -0.2219 -0.2993  0.1336
 7503WAT     H130732   1.123   7.131   2.915 -3.9618  0.6752  0.0926
 7503WAT     H230733   1.076   7.226   2.828  1.8604  1.6760 -2.4405
 7503WAT    EPW30734   1.133   7.197   2.873 -0.4668  0.1365 -0.2527
 7504WAT      O30735   2.525   2.877   1.018 -0.5583  0.5918 -0.5671
 7504WAT     H130736   2.502   2.809   1.067 -1.1363  1.9974  1.2254
 7504WAT     H230737   2.570   2.841   0.953 -1.3168 -1.5404 -0.0081
 7504WAT    EPW30738   2.528   2.861   1.015 -0.7557  0.4845 -0.2197
 7505WAT      O30739   0.643   3.859   7.454  0.1434  0.7176  0.1219
 7505WAT     H130740   0.692   3.815   7.396  1.8300  2.4499  0.1526
 7505WAT     H230741   0.670   3.828   7.531  0.5865  1.0597  0.1066
 7505WAT    EPW30742   0.654   3.848   7.457  0.4580  1.0240  0.1242
 7506WAT      O30743   3.358   5.076   7.254 -0.5947 -0.0326 -0.5492
 7506WAT     H130744   3.418   5.036   7.205 -0.4573  1.5261 -1.7400
 7506WAT     H230745   3.285   5.030   7.240  0.2582 -2.0119  0.9945
 7506WAT    EPW30746   3.356   5.063   7.245 -0.4484 -0.0948 -0.4971
 7507WAT      O30747   1.500   0.978   3.209  0.2004 -0.4554  0.1851
 7507WAT     H130748   1.533   1.008   3.134  0.9659 -2.2450 -0.2323
 7507WAT     H230749   1.531   1.034   3.268  0.7654  0.1508 -0.6611
 7507WAT    EPW30750   1.509   0.991   3.207  0.3969 -0.6302 -0.0015
 7508WAT      O30751   7.672   4.763   0.231  0.8509 -0.2827  0.1623
 7508WAT     H130752   7.589   4.783   0.249  1.1353 -0.6884  2.2110
 7508WAT     H230753   7.669   4.734   0.149 -0.9196  0.3210 -0.0295
 7508WAT    EPW30754   7.660   4.761   0.222  0.6314 -0.2535  0.4366
 7509WAT      O30755   5.440   1.137   7.294  0.3606 -0.1322  0.3420
 7509WAT     H130756   5.391   1.066   7.306 -1.7105  1.4288  1.9111
 7509WAT     H230757   5.418   1.165   7.215  0.5840 -0.7683  0.0518
 7509WAT    EPW30758   5.430   1.131   7.284  0.0877  0.0044  0.5309
 7510WAT      O30759   4.297   2.768   7.228  0.2950  0.2767  0.1225
 7510WAT     H130760   4.368   2.816   7.244 -1.3307  2.8875  0.2285
 7510WAT     H230761   4.235   2.809   7.274 -1.2448 -2.0741  0.2741
 7510WAT    EPW30762   4.298   2.781   7.237 -0.1726  0.3151  0.1606
 7511WAT      O30763   4.565   5.021   3.196 -0.0464  0.0551  0.3260
 7511WAT     H130764   4.500   4.987   3.150  1.3880 -0.7087 -1.2320
 7511WAT     H230765   4.626   4.958   3.195  1.6827  1.6502 -0.4166
 7511WAT    EPW30766   4.564   5.007   3.189  0.4209  0.1779 -0.0138
 7512WAT      O30767   0.792   5.656   5.255  0.0025  0.1664  0.2515
 7512WAT     H130768   0.784   5.742   5.240  1.9591  0.8851  2.6099
 7512WAT     H230769   0.731   5.620   5.203 -2.2939  3.0984  0.6309
 7512WAT    EPW30770   0.782   5.663   5.245 -0.0477  0.7057  0.6559
 7513WAT      O30771   3.915   5.804   7.525 -0.2149 -0.5535 -0.1361
 7513WAT     H130772   3.975   5.815   7.588 -1.2013 -0.8628  0.8761
 7513WAT     H230773   3.866   5.739   7.554 -0.6659 -0.7303 -1.2609
 7513WAT    EPW30774   3.917   5.796   7.538 -0.4273 -0.6253 -0.1527
 7514WAT      O30775   3.672   6.056   6.967 -0.1885 -0.2512 -0.2842
 7514WAT     H130776   3.682   5.988   7.022 -0.0471  0.7702  1.0126
 7514WAT     H230777   3.663   6.018   6.889  1.0713 -1.7142  0.2302
 7514WAT    EPW30778   3.672   6.040   6.964  0.0185 -0.3164 -0.0167
 7515WAT      O30779   4.368   5.568   0.617  0.2973  0.4006 -0.4009
 7515WAT     H130780   4.323   5.523   0.676  0.5170  0.3705 -0.2516
 7515WAT     H230781   4.362   5.651   0.645 -0.4018  0.5116 -0.8710
 7515WAT    EPW30782   4.361   5.574   0.630  0.2265  0.4125 -0.4483
 7516WAT      O30783   3.623   0.918   6.506 -0.8259 -0.1247  0.0137
 7516WAT     H130784   3.706   0.941   6.488 -0.1050  0.4543  3.3687
 7516WAT     H230785   3.616   0.838   6.472  1.5618 -0.6711  0.6236
 7516WAT    EPW30786   3.634   0.910   6.498 -0.3667 -0.1199  0.5994
 7517WAT      O30787   0.364   6.034   4.750  0.4900 -0.4061 -0.9314
 7517WAT     H130788   0.302   5.976   4.730 -0.1720 -0.8160  1.8928
 7517WAT     H230789   0.432   6.008   4.703 -0.6745 -1.6005 -2.0419
 7517WAT    EPW30790   0.365   6.022   4.740  0.2202 -0.6431 -0.6783
 7518WAT      O30791   1.860   2.522   5.817  0.3082 -0.6067  0.4189
 7518WAT     H130792   1.900   2.582   5.769 -0.2591  0.6810  1.4860
 7518WAT     H230793   1.790   2.501   5.769 -0.0688  0.4032  0.5073
 7518WAT    EPW30794   1.855   2.527   5.803  0.1687 -0.2673  0.5896
 7519WAT      O30795   1.306   2.241   7.638 -0.2565  0.1519  0.0572
 7519WAT     H130796   1.333   2.166   7.603  0.3645  0.2395  0.3323
 7519WAT     H230797   1.239   2.218   7.689  1.7500 -0.6855  2.4647
 7519WAT    EPW30798   1.300   2.227   7.640  0.1316  0.0411  0.4535
 7520WAT      O30799   4.299   6.179   0.010  0.0509 -0.1573 -0.2985
 7520WAT     H130800   4.230   6.151  -0.036  0.9662  0.7430 -2.3434
 7520WAT     H230801   4.348   6.218  -0.050  1.0574  1.6261  1.5909
 7520WAT    EPW30802   4.296   6.181  -0.005  0.3348  0.2391 -0.3214
 7521WAT      O30803   3.132   6.893   4.532  0.3184  0.1311 -0.1525
 7521WAT     H130804   3.141   6.972   4.568  1.1427  0.1673 -0.4240
 7521WAT     H230805   3.057   6.864   4.565 -0.8340  1.6845 -1.3311
 7521WAT    EPW30806   3.123   6.900   4.542  0.2699  0.3659 -0.3667
 7522WAT      O30807   3.593   2.969   0.058  0.1775  0.0678  0.1906
 7522WAT     H130808   3.526   2.915   0.070  1.0470 -1.7184 -2.2399
 7522WAT     H230809   3.592   2.986  -0.027  2.1891  0.8384  0.2506
 7522WAT    EPW30810   3.583   2.963   0.047  0.6031 -0.0822 -0.1596
 7523WAT      O30811   5.533   5.623   2.447 -0.0475 -0.0319 -0.3134
 7523WAT     H130812   5.477   5.562   2.419  0.0627 -0.3930  0.2397
 7523WAT     H230813   5.481   5.691   2.464 -0.1814  0.0077 -0.8585
 7523WAT    EPW30814   5.517   5.624   2.445 -0.0510 -0.0794 -0.3122
 7524WAT      O30815   5.226   5.327   4.764  0.4576  0.2410 -0.5202
 7524WAT     H130816   5.142   5.301   4.768  0.1608  1.2620  0.4199
 7524WAT     H230817   5.220   5.412   4.741  1.0731  1.0048  1.8976
 7524WAT    EPW30818   5.212   5.336   4.761  0.5047  0.5047 -0.0242
 7525WAT      O30819   3.056   6.417   1.471  0.3008  0.1135  0.2143
 7525WAT     H130820   3.023   6.339   1.491 -2.2267  0.2645 -2.6391
 7525WAT     H230821   2.989   6.459   1.436  1.9891  3.0405  0.1833
 7525WAT    EPW30822   3.042   6.412   1.469  0.1768  0.5682 -0.2118
 7526WAT      O30823   3.550   5.442   7.275  0.3649 -0.0340  0.5709
 7526WAT     H130824   3.522   5.450   7.358  1.0937 -0.5377  0.8754
 7526WAT     H230825   3.629   5.478   7.277  0.6366 -0.6045  0.2411
 7526WAT    EPW30826   3.557   5.449   7.288  0.5127 -0.1927  0.5672
 7527WAT      O30827   2.303   5.653   2.533 -0.4844  0.0656  0.1074
 7527WAT     H130828   2.284   5.712   2.594  0.3512  0.7642 -0.2719
 7527WAT     H230829   2.226   5.636   2.496 -1.0794 -0.6788  1.5858
 7527WAT    EPW30830   2.289   5.659   2.537 -0.4489  0.0588  0.2697
 7528WAT      O30831   3.330   1.130   5.304  0.4068  0.1941 -0.6272
 7528WAT     H130832   3.285   1.202   5.324 -0.6716 -0.6296 -0.0115
 7528WAT     H230833   3.325   1.126   5.217  1.0602  1.2156 -0.7294
 7528WAT    EPW30834   3.323   1.140   5.294  0.3440  0.2233 -0.5513
 7529WAT      O30835   2.647   3.599   0.672  0.1331  0.0191  0.4079
 7529WAT     H130836   2.563   3.624   0.672  0.4154  1.0830 -0.6628
 7529WAT     H230837   2.649   3.533   0.616 -0.0654 -0.3052  0.7818
 7529WAT    EPW30838   2.635   3.593   0.664  0.1455  0.1284  0.3049
 7530WAT      O30839   1.492   7.320   3.047  0.1811  0.3998  0.0898
 7530WAT     H130840   1.516   7.397   3.015  1.4883  0.1896  0.4961
 7530WAT     H230841   1.495   7.267   2.978 -2.2161  0.9638 -0.5312
 7530WAT    EPW30842   1.496   7.323   3.032  0.0201  0.4521  0.0581
 7531WAT      O30843   4.373   7.567   2.319  0.2297 -0.4714 -0.2149
 7531WAT     H130844   4.449   7.576   2.361 -1.8959  1.7070  3.7026
 7531WAT     H230845   4.360   7.644   2.281 -0.1100 -0.7959 -0.7860
 7531WAT    EPW30846   4.382   7.580   2.319 -0.1345 -0.1975  0.2794
 7532WAT      O30847   1.865   3.928   3.389  0.0131 -0.1878  0.1932
 7532WAT     H130848   1.849   3.900   3.470  0.8304 -1.8775 -0.1922
 7532WAT     H230849   1.847   4.013   3.393  0.9489 -0.0307  2.4123
 7532WAT    EPW30850   1.860   3.936   3.402  0.2721 -0.4142  0.4641
 7533WAT      O30851   3.777   4.769   2.345 -0.7486 -0.8119 -0.0631
 7533WAT     H130852   3.754   4.786   2.428 -1.1745  0.8672 -0.4940
 7533WAT     H230853   3.724   4.819   2.298 -0.2573 -1.4587 -1.3648
 7533WAT    EPW30854   3.766   4.779   2.350 -0.7389 -0.6594 -0.3190
 7534WAT      O30855   3.452   4.569   7.628 -0.0831  0.6375 -0.6557
 7534WAT     H130856   3.506   4.512   7.667 -1.1550  0.6040  0.8800
 7534WAT     H230857   3.389   4.518   7.596  0.4816  0.7270 -1.9436
 7534WAT    EPW30858   3.451   4.553   7.629 -0.1580  0.6457 -0.6191
 7535WAT      O30859   2.918   6.783   4.690  0.3629  0.6683  0.5286
 7535WAT     H130860   2.925   6.697   4.680 -1.7167  0.7160 -2.7425
 7535WAT     H230861   2.889   6.792   4.772  1.3923 -1.6538  1.2015
 7535WAT    EPW30862   2.914   6.772   4.701  0.2077  0.3323  0.1448
 7536WAT      O30863   3.190   3.872   7.560 -0.2560 -0.0721 -0.1295
 7536WAT     H130864   3.178   3.787   7.575 -0.9730 -0.3558 -2.0454
 7536WAT     H230865   3.218   3.902   7.637  0.5208 -2.1121  0.4576
 7536WAT    EPW30866   3.192   3.864   7.574 -0.2472 -0.4154 -0.3258
 7537WAT      O30867   5.409   6.034   7.731  0.1518  0.4138  0.5690
 7537WAT     H130868   5.460   6.027   7.801  1.3152  0.2597 -0.2625
 7537WAT     H230869   5.436   6.108   7.693  0.1075  0.0803 -0.1361
 7537WAT    EPW30870   5.421   6.044   7.736  0.3171  0.3417  0.3420
 7538WAT      O30871   4.326   5.554   3.265  0.2355  0.2098  0.4659
 7538WAT     H130872   4.346   5.588   3.187  0.4021  0.3365  0.5643
 7538WAT     H230873   4.403   5.548   3.305  0.2585 -0.5862  0.3300
 7538WAT    EPW30874   4.340   5.558   3.259  0.2635  0.1109  0.4604
 7539WAT      O30875   6.041   3.458   5.725  0.2806  0.0949  0.8973
 7539WAT     H130876   6.094   3.389   5.719  0.5724  0.4191 -0.8092
 7539WAT     H230877   5.961   3.424   5.718  0.4368 -0.0710 -0.3596
 7539WAT    EPW30878   6.037   3.443   5.723  0.3468  0.1183  0.4596
 7540WAT      O30879   6.008   6.592   1.654 -0.1128 -0.3382 -0.3232
 7540WAT     H130880   6.067   6.588   1.589 -1.9080  0.7269 -2.1345
 7540WAT     H230881   6.003   6.677   1.672 -1.4181 -0.3457 -0.5652
 7540WAT    EPW30882   6.016   6.604   1.647 -0.5708 -0.1820 -0.6265
 7541WAT      O30883   2.701   5.036   0.909  0.1326  0.0748  0.1751
 7541WAT     H130884   2.643   5.101   0.916 -0.4235  0.0274 -2.7831
 7541WAT     H230885   2.679   4.982   0.973 -0.4524  1.9733  1.6754
 7541WAT    EPW30886   2.689   5.038   0.919 -0.0360  0.3483 -0.0403
 7542WAT      O30887   5.449   1.311   1.393 -0.1143 -0.2203 -0.3207
 7542WAT     H130888   5.412   1.384   1.420 -2.1780 -2.0966  2.5192
 7542WAT     H230889   5.398   1.285   1.327 -1.8177 -0.9170  1.1757
 7542WAT    EPW30890   5.436   1.318   1.387 -0.6708 -0.6004  0.3198
 7543WAT      O30891   1.497   3.771   7.724  0.1545 -0.2569 -0.0756
 7543WAT     H130892   1.566   3.721   7.743 -0.2124 -0.2024  1.4886
 7543WAT     H230893   1.432   3.736   7.770 -0.8245 -0.1183 -1.2891
 7543WAT    EPW30894   1.498   3.758   7.734 -0.0443 -0.2284 -0.0238
 7544WAT      O30895   2.261   3.109   3.049  0.1998 -0.1712 -0.0934
 7544WAT     H130896   2.314   3.148   3.107 -1.8965  0.1256  1.7251
 7544WAT     H230897   2.286   3.144   2.973  3.0354 -0.5438  0.5207
 7544WAT    EPW30898   2.273   3.120   3.047  0.3091 -0.1824  0.2659
 7545WAT      O30899   4.247   6.740   4.643 -0.1029  0.0396 -0.0010
 7545WAT     H130900   4.188   6.765   4.584  1.4608  0.2300 -1.5618
 7545WAT     H230901   4.293   6.678   4.601 -0.1583 -1.2330  1.7192
 7545WAT    EPW30902   4.245   6.734   4.628  0.1199 -0.1202  0.0225
 7546WAT      O30903   1.424   4.878   1.859  0.2725  0.0855  0.0036
 7546WAT     H130904   1.362   4.839   1.813 -0.0963 -0.4250  0.8939
 7546WAT     H230905   1.477   4.812   1.882 -0.1425  0.1287  1.1914
 7546WAT    EPW30906   1.423   4.862   1.856  0.1567  0.0165  0.3105
 7547WAT      O30907   3.339   3.335   5.985  0.0608  0.0551 -0.3476
 7547WAT     H130908   3.423   3.337   6.007 -0.3119  0.3181  1.2119
 7547WAT     H230909   3.333   3.393   5.921  0.8919  0.8176  0.2413
 7547WAT    EPW30910   3.351   3.344   5.979  0.1285  0.2066 -0.0303
 7548WAT      O30911   4.662   3.688   4.573  0.5355 -0.2234 -0.0357
 7548WAT     H130912   4.589   3.728   4.599  0.1151 -0.7025 -0.4575
 7548WAT     H230913   4.720   3.709   4.635  0.0187  0.0867  0.3526
 7548WAT    EPW30914   4.659   3.697   4.586  0.3971 -0.2484 -0.0407
 7549WAT      O30915   2.201   7.061   1.997  0.1167  0.3550  0.1257
 7549WAT     H130916   2.243   7.018   1.934 -0.2254 -1.6336  1.1727
 7549WAT     H230917   2.117   7.048   1.978  0.0060  0.4205  0.5606
 7549WAT    EPW30918   2.195   7.053   1.985  0.0498  0.0709  0.3446
 7550WAT      O30919   0.351   3.462   5.415  0.6166 -0.3930  0.0981
 7550WAT     H130920   0.330   3.385   5.381  0.6450 -1.2026  1.8586
 7550WAT     H230921   0.283   3.482   5.466  1.0120  0.3257  0.3613
 7550WAT    EPW30922   0.338   3.454   5.417  0.6792 -0.4064  0.3970
 7551WAT      O30923   3.667   2.449   1.741  0.1868 -0.2417 -0.0342
 7551WAT     H130924   3.750   2.477   1.742  0.0002  0.5116 -1.6968
 7551WAT     H230925   3.669   2.384   1.682 -0.1825 -1.0695  0.8416
 7551WAT    EPW30926   3.680   2.443   1.732  0.1047 -0.2527 -0.1504
 7552WAT      O30927   2.083   1.314   7.440 -0.1330  0.1339 -0.2758
 7552WAT     H130928   2.080   1.400   7.454  0.5755  0.2237 -0.6198
 7552WAT     H230929   2.052   1.304   7.360 -3.1903 -0.2776  0.8310
 7552WAT    EPW30930   2.078   1.325   7.430 -0.4800  0.0864 -0.1631
 7553WAT      O30931   3.008   0.078   6.870  0.3235  0.0785  0.4857
 7553WAT     H130932   3.062   0.012   6.853 -0.4638 -0.5795  0.4352
 7553WAT     H230933   3.005   0.123   6.795 -0.1037 -0.5606  0.1092
 7553WAT    EPW30934   3.015   0.075   6.856  0.1441 -0.1131  0.4226
 7554WAT      O30935   2.139   7.527   4.004  1.0754 -0.4094  0.1192
 7554WAT     H130936   2.145   7.565   3.925 -1.3037  0.8388  0.4685
 7554WAT     H230937   2.208   7.560   4.047  0.6392  1.4024 -0.4693
 7554WAT    EPW30938   2.150   7.537   3.998  0.6595  0.0426  0.0839
 7555WAT      O30939   0.201   4.817   0.224  0.6980 -1.0305 -0.0650
 7555WAT     H130940   0.129   4.799   0.269  1.2169 -1.8901  0.4721
 7555WAT     H230941   0.196   4.765   0.154  1.0897 -1.5746  0.3009
 7555WAT    EPW30942   0.190   4.806   0.220  0.8325 -1.2379  0.0684
 7556WAT      O30943   3.053   1.979   3.147 -0.0226 -0.0123 -0.2281
 7556WAT     H130944   2.970   2.008   3.144 -0.3651 -0.7265  1.3547
 7556WAT     H230945   3.092   2.038   3.199  0.6364  0.6632 -1.4553
 7556WAT    EPW30946   3.046   1.992   3.154  0.0242 -0.0180 -0.1756
 7557WAT      O30947   3.418   3.353   1.952 -0.2311  0.5198 -0.0263
 7557WAT     H130948   3.475   3.304   1.997 -0.0199  1.2669  0.5386
 7557WAT     H230949   3.345   3.306   1.953  0.3072 -0.3588 -0.5828
 7557WAT    EPW30950   3.416   3.339   1.959 -0.1204  0.5004 -0.0250
 7558WAT      O30951   2.331   4.070   5.739 -0.1813  0.1679 -0.4992
 7558WAT     H130952   2.321   4.132   5.679 -0.5281 -0.2332 -0.8643
 7558WAT     H230953   2.270   4.011   5.718 -0.8600  0.4017  0.7441
 7558WAT    EPW30954   2.321   4.071   5.727 -0.3328  0.1432 -0.3695
 7559WAT      O30955   6.596   4.354   7.748 -0.6726  0.0439  0.3704
 7559WAT     H130956   6.622   4.326   7.826  0.4399  0.9614  0.3420
 7559WAT     H230957   6.670   4.368   7.704 -1.2699 -0.8670 -1.0284
 7559WAT    EPW30958   6.611   4.352   7.753 -0.5965  0.0449  0.1596
 7560WAT      O30959   4.207   4.838   5.112  0.6645 -0.6991 -0.3612
 7560WAT     H130960   4.154   4.803   5.173 -0.5772 -1.7869 -1.9955
 7560WAT     H230961   4.191   4.923   5.119  1.0322 -0.7116  1.2269
 7560WAT    EPW30962   4.197   4.845   5.122  0.5354 -0.8616 -0.3681
 7561WAT      O30963   1.415   6.461   5.677 -0.0367 -0.4957  0.1180
 7561WAT     H130964   1.340   6.487   5.713  0.1753 -0.6566  0.6897
 7561WAT     H230965   1.437   6.527   5.625  0.9875  0.9772  2.2576
 7561WAT    EPW30966   1.408   6.475   5.675  0.1459 -0.3019  0.5185
 7562WAT      O30967   3.887   4.161   3.373 -0.1296  0.1383  0.0381
 7562WAT     H130968   3.954   4.200   3.333  0.0483 -1.1764 -1.0322
 7562WAT     H230969   3.919   4.141   3.452 -0.2334  2.0804  0.6329
 7562WAT    EPW30970   3.902   4.164   3.379 -0.1186  0.2310 -0.0321
 7563WAT      O30971   1.733   5.134   3.024  0.0807  0.3714 -0.3056
 7563WAT     H130972   1.751   5.208   2.981 -1.5570  0.1065 -1.5635
 7563WAT     H230973   1.784   5.075   2.985  0.0209  0.5016 -0.5889
 7563WAT    EPW30974   1.743   5.136   3.012 -0.1700  0.3515 -0.5333
 7564WAT      O30975   5.181   4.915   2.606 -0.0680 -0.1997  0.3106
 7564WAT     H130976   5.258   4.952   2.589  0.1998 -0.5189  0.7879
 7564WAT     H230977   5.133   4.933   2.535 -0.0799  1.3823  0.6626
 7564WAT    EPW30978   5.186   4.923   2.593 -0.0302 -0.0132  0.4331
 7565WAT      O30979   3.939   1.337   3.238  0.4938  0.2609  0.0203
 7565WAT     H130980   3.897   1.413   3.227 -1.3337 -0.5647  0.8728
 7565WAT     H230981   3.986   1.329   3.165  0.3735  1.9875 -0.2874
 7565WAT    EPW30982   3.940   1.347   3.225  0.2061  0.3940  0.1008
 7566WAT      O30983   2.199   1.879   5.179  0.3091  0.1119 -0.0650
 7566WAT     H130984   2.209   1.956   5.139  1.3022  0.9104  1.6184
 7566WAT     H230985   2.231   1.822   5.121 -0.5922  0.9042 -1.4079
 7566WAT    EPW30986   2.205   1.882   5.165  0.3227  0.3469 -0.0147
 7567WAT      O30987   1.338   4.604   3.026  0.3524 -0.3491 -0.3417
 7567WAT     H130988   1.424   4.590   3.021  0.4581 -1.4012  2.4126
 7567WAT     H230989   1.306   4.558   2.959  1.9372  0.5646 -1.7924
 7567WAT    EPW30990   1.346   4.595   3.015  0.6022 -0.3696 -0.1491
 7568WAT      O30991   6.368   2.486   4.295 -0.9378  0.1990 -0.3900
 7568WAT     H130992   6.361   2.529   4.219  1.3667 -0.6067 -1.1422
 7568WAT     H230993   6.431   2.530   4.337 -0.7586 -0.5824  0.1672
 7568WAT    EPW30994   6.376   2.499   4.290 -0.5709 -0.0355 -0.4188
 7569WAT      O30995   5.470   2.212   2.043  0.3737 -0.4352  0.0992
 7569WAT     H130996   5.545   2.252   2.024 -1.1497  1.9082 -1.4636
 7569WAT     H230997   5.431   2.265   2.099  0.8218 -2.8627  2.9693
 7569WAT    EPW30998   5.476   2.225   2.048  0.2149 -0.4476  0.2923
 7570WAT      O30999   3.471   5.896   3.296 -0.3442  0.1055  0.1573
 7570WAT     H131000   3.425   5.931   3.361 -1.1652  0.4409 -0.5660
 7570WAT     H231001   3.418   5.906   3.227 -0.6592 -2.5792 -0.1036
 7570WAT    EPW31002   3.456   5.903   3.295 -0.5120 -0.2416  0.0119
 7571WAT      O31003   2.957   0.417   0.780  0.1342  0.1410 -0.3088
 7571WAT     H131004   3.031   0.464   0.777  3.5912 -4.5020  0.8740
 7571WAT     H231005   2.937   0.415   0.865 -0.3207 -0.0686 -0.4188
 7571WAT    EPW31006   2.965   0.424   0.792  0.5777 -0.5759 -0.1503
 7572WAT      O31007   2.583   2.461   7.807  0.0615  0.6466  0.0908
 7572WAT     H131008   2.518   2.433   7.756 -0.5395 -0.8926  1.6049
 7572WAT     H231009   2.560   2.542   7.828 -0.4690  0.7330 -0.7820
 7572WAT    EPW31010   2.570   2.469   7.803 -0.1057  0.4320  0.1855
 7573WAT      O31011   4.770   2.958   5.349 -0.1110 -0.4412 -0.3168
 7573WAT     H131012   4.690   2.923   5.350 -0.9114  1.2604 -0.1926
 7573WAT     H231013   4.777   2.990   5.268 -0.5044  1.3391  0.3010
 7573WAT    EPW31014   4.759   2.958   5.337 -0.2874  0.0732 -0.2072
 7574WAT      O31015   3.509   6.533   6.112 -0.7384 -0.0202 -0.5791
 7574WAT     H131016   3.550   6.585   6.055 -0.3906 -0.0211 -0.3292
 7574WAT     H231017   3.448   6.586   6.146  0.4444  0.6197  0.6137
 7574WAT    EPW31018   3.506   6.549   6.108 -0.5123  0.0742 -0.3660
 7575WAT      O31019   5.641   3.219   5.124  0.3201  1.0887  0.2124
 7575WAT     H131020   5.702   3.185   5.073 -0.1628  0.5578 -0.0240
 7575WAT     H231021   5.589   3.262   5.069  0.4307  1.4720  0.4016
 7575WAT    EPW31022   5.642   3.220   5.108  0.2651  1.0669  0.2054
 7576WAT      O31023   1.506   4.850   7.429 -0.2618  0.5567 -0.1829
 7576WAT     H131024   1.426   4.855   7.396 -0.7354  3.0384  1.0642
 7576WAT     H231025   1.527   4.933   7.446  1.8630 -0.1515  1.1823
 7576WAT    EPW31026   1.498   4.863   7.427 -0.0179  0.8187  0.2030
 7577WAT      O31027   6.485   3.407   6.973  0.1715 -0.1693 -0.1911
 7577WAT     H131028   6.473   3.466   6.910  1.8762  0.2038 -0.2240
 7577WAT     H231029   6.555   3.437   7.016  1.5887 -2.5214 -0.6534
 7577WAT    EPW31030   6.494   3.420   6.970  0.6327 -0.4616 -0.2643
 7578WAT      O31031   5.634   6.837   4.240 -0.6551  0.3099  0.1732
 7578WAT     H131032   5.551   6.859   4.223 -0.5739  1.1697  0.8372
 7578WAT     H231033   5.677   6.860   4.167 -0.8601  0.6664  0.1649
 7578WAT    EPW31034   5.628   6.843   4.226 -0.6734  0.4896  0.2700
 7579WAT      O31035   2.254   4.860   5.803 -0.5101  0.4032  0.4316
 7579WAT     H131036   2.185   4.829   5.761 -1.2075  1.9798  0.3567
 7579WAT     H231037   2.245   4.829   5.884 -2.6348  2.4742  1.0760
 7579WAT    EPW31038   2.243   4.851   5.809 -0.9270  0.9420  0.5157
 7580WAT      O31039   0.602   1.268   6.679 -0.2619  0.4709  0.6405
 7580WAT     H131040   0.564   1.346   6.671  1.5144  1.3700  0.4404
 7580WAT     H231041   0.581   1.228   6.605  0.8354  1.7465 -0.4196
 7580WAT    EPW31042   0.594   1.274   6.667  0.1626  0.7922  0.4543
 7581WAT      O31043   1.054   0.543   3.388 -0.1825 -0.5876  0.0029
 7581WAT     H131044   1.110   0.478   3.373  0.9767 -0.0344  1.6307
 7581WAT     H231045   1.106   0.614   3.389 -1.1537  0.1398  0.0115
 7581WAT    EPW31046   1.070   0.544   3.386 -0.1547 -0.3984  0.2446
 7582WAT      O31047   6.266   0.670   5.919 -0.0398  0.3573 -0.0618
 7582WAT     H131048   6.284   0.666   6.005 -1.1091  3.0003  0.3891
 7582WAT     H231049   6.219   0.597   5.905  0.7777 -0.5138  1.4016
 7582WAT    EPW31050   6.262   0.659   5.930 -0.0770  0.6191  0.2210
 7583WAT      O31051   3.263   2.919   5.386  0.2736 -0.1351  0.4558
 7583WAT     H131052   3.324   2.888   5.440  0.7059 -0.9004 -0.4307
 7583WAT     H231053   3.295   2.901   5.307 -0.7837  0.0746 -0.0427
 7583WAT    EPW31054   3.277   2.912   5.382  0.1813 -0.2172  0.2512
 7584WAT      O31055   5.051   1.596   6.922  0.2368  0.2778  0.6063
 7584WAT     H131056   5.069   1.677   6.947 -0.1792  0.3558  0.6579
 7584WAT     H231057   4.984   1.605   6.867  1.3013  0.1337 -0.7520
 7584WAT    EPW31058   5.044   1.609   6.918  0.3326  0.2681  0.4133
 7585WAT      O31059   1.593   3.774   0.645  0.5025  0.4000  0.0974
 7585WAT     H131060   1.590   3.821   0.571 -0.7539  1.5982  0.8462
 7585WAT     H231061   1.563   3.696   0.622  3.0596 -0.2997 -1.2855
 7585WAT    EPW31062   1.588   3.770   0.631  0.6946  0.4736  0.0038
 7586WAT      O31063   3.595   6.036   1.489 -0.1004 -0.3842  0.5235
 7586WAT     H131064   3.518   6.009   1.520 -0.1306 -1.3642 -0.3099
 7586WAT     H231065   3.621   5.968   1.441  0.4377  0.6291 -0.6637
 7586WAT    EPW31066   3.587   6.022   1.486 -0.0254 -0.3793  0.2250
 7587WAT      O31067   4.286   5.037   4.777 -0.1899  0.3109  0.0143
 7587WAT     H131068   4.266   4.953   4.778  0.6889  0.0833 -0.5019
 7587WAT     H231069   4.344   5.045   4.843  0.5900  0.2644 -0.6437
 7587WAT    EPW31070   4.292   5.026   4.787  0.0551  0.2704 -0.1592
 7588WAT      O31071   3.992   3.064   0.862  0.2701 -0.1238  0.7375
 7588WAT     H131072   3.939   3.002   0.832  1.0753 -1.6033  2.2425
 7588WAT     H231073   3.958   3.084   0.940  1.1418 -0.1259  1.1318
 7588WAT    EPW31074   3.979   3.058   0.869  0.5178 -0.3427  1.0180
 7589WAT      O31075   4.350   6.544   3.542  0.2284  0.0487  0.5818
 7589WAT     H131076   4.339   6.608   3.484 -0.4674 -0.4409  0.1662
 7589WAT     H231077   4.387   6.480   3.496 -0.2548 -0.3129  0.6885
 7589WAT    EPW31078   4.354   6.544   3.527  0.0542 -0.0771  0.5362
 7590WAT      O31079   5.663   6.968   4.485 -0.1296  0.5764 -0.3319
 7590WAT     H131080   5.673   6.945   4.402  2.4624  1.5159 -0.3950
 7590WAT     H231081   5.621   7.045   4.480 -1.1243  0.0338 -0.6428
 7590WAT    EPW31082   5.658   6.976   4.472  0.1063  0.6350 -0.3872
 7591WAT      O31083   5.047   2.885   5.316 -0.4522  0.0756  0.0917
 7591WAT     H131084   5.064   2.800   5.316 -0.5245  0.0177  2.3028
 7591WAT     H231085   4.962   2.889   5.332 -0.3742  0.5814  0.3809
 7591WAT    EPW31086   5.037   2.873   5.318 -0.4514  0.1418  0.4610
 7592WAT      O31087   2.599   0.959   5.270  0.4427  0.4097 -0.8385
 7592WAT     H131088   2.554   0.953   5.195  2.1435  0.9666 -1.9567
 7592WAT     H231089   2.671   0.912   5.255  1.2573  1.3112  0.1001
 7592WAT    EPW31090   2.603   0.951   5.257  0.8143  0.6252 -0.8650
 7593WAT      O31091   7.152   5.544   4.297 -0.0802 -0.4663  0.5963
 7593WAT     H131092   7.151   5.462   4.326  0.1853  0.1153  2.3901
 7593WAT     H231093   7.068   5.568   4.301 -0.3595 -0.9995 -1.1458
 7593WAT    EPW31094   7.139   5.536   4.302 -0.0823 -0.4591  0.6039
 7594WAT      O31095   2.888   3.547   0.411 -0.2470  0.1764  0.0098
 7594WAT     H131096   2.935   3.569   0.340 -0.3997  0.2489 -0.0680
 7594WAT     H231097   2.949   3.522   0.468 -0.1054  0.3464 -0.0652
 7594WAT    EPW31098   2.904   3.547   0.409 -0.2487  0.2122 -0.0128
 7595WAT      O31099   7.227   5.013   7.526  0.1155 -0.1151 -0.0650
 7595WAT     H131100   7.207   4.973   7.451  0.6204  1.5362 -1.1400
 7595WAT     H231101   7.258   4.948   7.576 -1.8347 -1.5721 -0.6076
 7595WAT    EPW31102   7.229   4.998   7.522 -0.0980 -0.0864 -0.3040
 7596WAT      O31103   6.473   3.720   6.969  0.6525 -0.1213  0.2485
 7596WAT     H131104   6.410   3.678   7.011  0.4178 -0.0953 -0.0754
 7596WAT     H231105   6.526   3.747   7.033  1.2178 -1.5472  0.4199
 7596WAT    EPW31106   6.471   3.718   6.985  0.7013 -0.3281  0.2260
 7597WAT      O31107   5.225   4.904   1.569  0.1797 -0.0676  0.1381
 7597WAT     H131108   5.217   4.963   1.633  1.1657  0.8047 -0.5092
 7597WAT     H231109   5.280   4.943   1.513 -0.4296 -0.9373 -1.0876
 7597WAT    EPW31110   5.232   4.919   1.570  0.2353 -0.0672 -0.1386
 7598WAT      O31111   7.484   1.734   5.392  0.6417 -0.6733  0.7691
 7598WAT     H131112   7.427   1.697   5.446  1.6062  0.4033  2.6673
 7598WAT     H231113   7.474   1.690   5.317 -2.2285 -0.8759  1.1582
 7598WAT    EPW31114   7.474   1.722   5.389  0.3602 -0.5442  1.1070
 7599WAT      O31115   1.532   2.089   5.415 -0.4699  0.5253  0.3807
 7599WAT     H131116   1.518   2.083   5.501 -0.5255  1.2988  0.4340
 7599WAT     H231117   1.566   2.011   5.394  2.8676  1.4448  1.7396
 7599WAT    EPW31118   1.535   2.076   5.425  0.0149  0.7754  0.5893
 7600WAT      O31119   1.888   0.966   7.661  0.6888 -0.1872 -0.3036
 7600WAT     H131120   1.891   0.998   7.742  1.0471  1.1337 -0.8194
 7600WAT     H231121   1.971   0.954   7.640  0.5707 -1.2105 -0.2321
 7600WAT    EPW31122   1.900   0.969   7.670  0.7243 -0.1432 -0.3693
 7601WAT      O31123   2.425   4.023   3.097 -0.0187  0.4349  0.1257
 7601WAT     H131124   2.410   3.939   3.076 -0.2168  0.6642 -0.6827
 7601WAT     H231125   2.473   4.017   3.170 -0.9847 -0.3640  0.7199
 7601WAT    EPW31126   2.430   4.010   3.104 -0.1907  0.3508  0.0941
 7602WAT      O31127   1.013   4.280   3.854  0.5016  0.2698 -0.0678
 7602WAT     H131128   1.090   4.257   3.890 -0.5403 -2.6334  0.6265
 7602WAT     H231129   1.031   4.289   3.770  1.4591 -1.4869 -0.0955
 7602WAT    EPW31130   1.027   4.278   3.847  0.4891 -0.4186  0.0307
 7603WAT      O31131   2.686   2.075   2.000  0.3381  0.9475 -0.8096
 7603WAT     H131132   2.743   2.131   1.964  1.3419  0.9627  0.6790
 7603WAT     H231133   2.637   2.126   2.051 -0.0182  0.7227 -0.9262
 7603WAT    EPW31134   2.687   2.091   2.003  0.4337  0.9165 -0.6069
 7604WAT      O31135   0.667   3.462   6.999 -0.1006  0.0307  0.2728
 7604WAT     H131136   0.640   3.408   6.936 -1.3345 -0.1834  0.9686
 7604WAT     H231137   0.722   3.515   6.957 -0.2203 -0.6588 -0.7967
 7604WAT    EPW31138   0.671   3.462   6.983 -0.3006 -0.1028  0.2176
 7605WAT      O31139   4.863   3.823   6.381 -0.3138  0.2972  0.9258
 7605WAT     H131140   4.796   3.793   6.335 -1.3602 -1.4303  3.4074
 7605WAT     H231141   4.932   3.782   6.347 -0.2433  2.5081 -2.0252
 7605WAT    EPW31142   4.863   3.813   6.369 -0.4579  0.3686  0.8565
 7606WAT      O31143   7.051   4.760   4.873  0.0898  0.1696  0.4765
 7606WAT     H131144   7.028   4.777   4.791  1.0008  0.1074  0.1940
 7606WAT     H231145   6.979   4.775   4.919 -0.5436 -0.1685 -0.3837
 7606WAT    EPW31146   7.037   4.765   4.867  0.1308  0.1105  0.3077
 7607WAT      O31147   4.823   2.728   4.343  0.1866  0.7923 -0.0039
 7607WAT     H131148   4.883   2.779   4.381  0.0298  0.6132  0.4886
 7607WAT     H231149   4.748   2.762   4.369  0.0715 -0.3509  1.2547
 7607WAT    EPW31150   4.821   2.740   4.352  0.1465  0.5970  0.2548
 7608WAT      O31151   5.284   3.923   5.681  0.5882 -0.0929 -0.3617
 7608WAT     H131152   5.341   3.883   5.735  1.4580  0.0378 -1.1528
 7608WAT     H231153   5.314   4.004   5.677  0.4086 -0.0538 -0.8867
 7608WAT    EPW31154   5.297   3.929   5.689  0.6901 -0.0678 -0.5561
 7609WAT      O31155   0.950   3.085   6.985 -0.0671  0.3766  0.2008
 7609WAT     H131156   0.911   3.139   7.042 -0.7253  1.3919 -1.1358
 7609WAT     H231157   0.889   3.074   6.923  0.8511 -0.1397 -0.6371
 7609WAT    EPW31158   0.935   3.091   6.984 -0.0287  0.4503 -0.1204
 7610WAT      O31159   5.465   2.340   3.079  0.6628 -0.0103  0.2294
 7610WAT     H131160   5.543   2.337   3.041  0.8314  2.2906  0.2333
 7610WAT     H231161   5.437   2.421   3.062 -0.8146 -0.0743  1.9897
 7610WAT    EPW31162   5.472   2.352   3.071  0.4695  0.3201  0.4900
 7611WAT      O31163   7.275   5.199   6.209 -0.2004 -0.0169 -0.0960
 7611WAT     H131164   7.220   5.149   6.255  0.1356 -0.2489  0.0554
 7611WAT     H231165   7.285   5.269   6.259 -1.3394  0.5941 -0.6913
 7611WAT    EPW31166   7.268   5.202   6.223 -0.3190  0.0391 -0.1616
 7612WAT      O31167   2.839   4.210   3.581 -0.2368 -0.0278 -0.2645
 7612WAT     H131168   2.870   4.157   3.644 -1.4727  0.2104  0.5778
 7612WAT     H231169   2.866   4.289   3.607 -1.5872  0.1979  0.5452
 7612WAT    EPW31170   2.848   4.214   3.594 -0.6189  0.0408 -0.0205
 7613WAT      O31171   6.013   1.742   4.888 -0.1812  0.4309 -0.3241
 7613WAT     H131172   5.984   1.685   4.828  0.5671 -0.9684  0.5727
 7613WAT     H231173   5.942   1.759   4.936 -0.3376 -0.0728 -0.3685
 7613WAT    EPW31174   5.999   1.736   4.887 -0.0938  0.1498 -0.1982
 7614WAT      O31175   5.427   1.953   5.207  0.4847 -0.1880  0.5879
 7614WAT     H131176   5.397   1.980   5.129 -1.3556  0.6829  1.5424
 7614WAT     H231177   5.512   1.938   5.191  0.1393 -0.2340 -1.6194
 7614WAT    EPW31178   5.435   1.955   5.193  0.1618 -0.0661  0.4028
 7615WAT      O31179   1.093   1.748   6.617  0.7534 -0.2046 -0.0950
 7615WAT     H131180   1.006   1.737   6.614  0.7580 -0.2896  0.0403
 7615WAT     H231181   1.117   1.698   6.685  0.8379  0.2425  0.2112
 7615WAT    EPW31182   1.083   1.739   6.627  0.7666 -0.1511 -0.0298
 7616WAT      O31183   3.872   3.186   7.020 -0.3573  1.0770  0.1827
 7616WAT     H131184   3.785   3.183   7.017 -0.3130 -0.5497 -0.5730
 7616WAT     H231185   3.891   3.264   6.988 -1.5391  1.4278  0.2828
 7616WAT    EPW31186   3.862   3.197   7.015 -0.5253  0.8885  0.0858
 7617WAT      O31187   3.216   2.686   6.790  0.7289  0.1654  0.1688
 7617WAT     H131188   3.283   2.725   6.830  2.6754 -2.8335  0.1449
 7617WAT     H231189   3.241   2.680   6.707  0.1555 -0.4726  0.0284
 7617WAT    EPW31190   3.229   2.691   6.784  0.9317 -0.3718  0.1445
 7618WAT      O31191   6.685   4.579   6.366 -0.0523  0.3493  0.0367
 7618WAT     H131192   6.752   4.541   6.325  0.5467 -0.6078  1.7580
 7618WAT     H231193   6.696   4.664   6.352  0.6468  0.1079 -0.9446
 7618WAT    EPW31194   6.696   4.586   6.358  0.1395  0.1723  0.1460
 7619WAT      O31195   6.361   3.568   3.620 -0.1336 -0.3184  0.1274
 7619WAT     H131196   6.328   3.500   3.663  0.3376 -0.6468 -0.0232
 7619WAT     H231197   6.411   3.532   3.559 -0.4446  0.1538 -0.4204
 7619WAT    EPW31198   6.364   3.553   3.617 -0.1099 -0.2972  0.0243
 7620WAT      O31199   1.632   1.065   5.120 -0.1111  0.6469 -0.1597
 7620WAT     H131200   1.683   1.047   5.051  1.1173 -0.0200  0.8984
 7620WAT     H231201   1.605   1.146   5.105  0.6080  0.7193 -1.1407
 7620WAT    EPW31202   1.636   1.074   5.107  0.1766  0.5591 -0.1483
 7621WAT      O31203   2.496   2.241   5.331 -0.0759  0.2303 -0.0665
 7621WAT     H131204   2.470   2.198   5.403 -2.0181  0.5600 -0.5180
 7621WAT     H231205   2.482   2.184   5.267 -0.2797  0.6492 -0.3972
 7621WAT    EPW31206   2.490   2.226   5.332 -0.3929  0.3409 -0.1821
 7622WAT      O31207   3.141   5.761   1.107  0.2952 -0.3389  0.2638
 7622WAT     H131208   3.084   5.811   1.150 -0.8372 -1.5689  0.2553
 7622WAT     H231209   3.106   5.752   1.028  0.1160 -1.7067  0.4804
 7622WAT    EPW31210   3.128   5.767   1.102  0.1014 -0.7226  0.2945
 7623WAT      O31211   0.225   6.476   3.889  0.1594 -0.3966  0.0341
 7623WAT     H131212   0.237   6.413   3.829 -1.3084  0.2393 -0.9901
 7623WAT     H231213   0.251   6.548   3.848 -2.1282  0.2527 -0.4307
 7623WAT    EPW31214   0.231   6.477   3.874 -0.3953 -0.2068 -0.1859
 7624WAT      O31215   1.352   1.117   0.590 -0.5066 -0.1298  0.1365
 7624WAT     H131216   1.389   1.158   0.523 -0.7732  0.1397  0.1507
 7624WAT     H231217   1.388   1.037   0.589 -0.8609 -0.2791 -0.6082
 7624WAT    EPW31218   1.363   1.111   0.580 -0.5983 -0.1120  0.0286
 7625WAT      O31219   0.471   0.823   6.280 -0.7611  0.0652 -0.1755
 7625WAT     H131220   0.507   0.759   6.234 -0.5947  0.6882 -0.9208
 7625WAT     H231221   0.387   0.820   6.257 -1.0326 -0.7370  0.8094
 7625WAT    EPW31222   0.464   0.813   6.270 -0.7766  0.0387 -0.1401
 7626WAT      O31223   7.223   4.077   4.834  0.0173  0.5702  0.1020
 7626WAT     H131224   7.236   4.035   4.909 -1.5262  1.1182  0.7136
 7626WAT     H231225   7.258   4.156   4.849  3.5266 -0.5003 -1.2713
 7626WAT    EPW31226   7.230   4.082   4.847  0.3077  0.4930 -0.0105
 7627WAT      O31227   1.427   2.202   0.086  0.2180 -0.4054 -0.1515
 7627WAT     H131228   1.389   2.280   0.080  0.7479 -0.2185 -1.1547
 7627WAT     H231229   1.502   2.219   0.128 -0.0150 -0.5027  0.3095
 7627WAT    EPW31230   1.432   2.216   0.091  0.2618 -0.3921 -0.2316
 7628WAT      O31231   3.707   3.828   7.554  0.0734 -0.0652 -0.3209
 7628WAT     H131232   3.695   3.846   7.470  0.0223 -0.0282 -0.3060
 7628WAT     H231233   3.626   3.828   7.587  0.2038  2.9698  0.3593
 7628WAT    EPW31234   3.693   3.831   7.547  0.0851  0.3886 -0.2182
 7629WAT      O31235   6.276   5.395   7.008 -0.2882 -0.4924 -0.0366
 7629WAT     H131236   6.238   5.448   7.066 -0.5484 -0.6285 -0.0831
 7629WAT     H231237   6.292   5.322   7.053  1.1546  0.0341  0.3579
 7629WAT    EPW31238   6.273   5.392   7.023 -0.1135 -0.4347  0.0148
 7630WAT      O31239   2.902   4.170   0.838 -0.2035 -0.2462  0.3928
 7630WAT     H131240   2.828   4.143   0.800  0.2068  1.0594 -1.5588
 7630WAT     H231241   2.961   4.162   0.774  0.7247  1.3227  0.9879
 7630WAT    EPW31242   2.900   4.165   0.823 -0.0058  0.1784  0.1924
 7631WAT      O31243   5.569   4.680   6.039  0.3394  0.4766 -0.6059
 7631WAT     H131244   5.655   4.666   6.036  0.4802 -1.1474  3.7729
 7631WAT     H231245   5.537   4.613   5.993  1.2312  1.8923 -3.5632
 7631WAT    EPW31246   5.577   4.668   6.032  0.4919  0.4458 -0.3959
 7632WAT      O31247   0.816   5.570   3.927  0.1128 -0.5860  0.0344
 7632WAT     H131248   0.843   5.606   4.002 -1.3002  0.2404  0.1735
 7632WAT     H231249   0.756   5.626   3.898  1.2966 -0.3675 -2.2410
 7632WAT    EPW31250   0.811   5.584   3.934  0.0789 -0.4316 -0.2812
 7633WAT      O31251   2.269   7.354   6.789 -0.1650 -0.0173 -0.4031
 7633WAT     H131252   2.296   7.291   6.735 -1.7109  1.2714 -2.9340
 7633WAT     H231253   2.202   7.318   6.832 -1.0235 -0.1915 -1.8132
 7633WAT    EPW31254   2.263   7.339   6.787 -0.5202  0.1473 -0.9852
 7634WAT      O31255   5.527   2.165   6.187 -0.4384 -0.3437  0.2660
 7634WAT     H131256   5.583   2.201   6.243 -0.9165  1.3541 -0.2934
 7634WAT     H231257   5.467   2.227   6.175 -0.2653 -0.5477 -2.2398
 7634WAT    EPW31258   5.527   2.179   6.193 -0.4835 -0.1230 -0.1868
 7635WAT      O31259   3.584   7.130   2.810 -0.0180 -0.4137  0.3330
 7635WAT     H131260   3.570   7.109   2.727  0.5636 -1.9001  0.5803
 7635WAT     H231261   3.567   7.215   2.813 -0.7280 -0.4785 -1.1500
 7635WAT    EPW31262   3.579   7.139   2.799 -0.0370 -0.6429  0.1504
 7636WAT      O31263   3.227   2.586   7.427  0.4910  0.2585 -0.2236
 7636WAT     H131264   3.177   2.620   7.364 -0.8355 -2.4501 -0.8057
 7636WAT     H231265   3.175   2.588   7.498  1.1640  1.2644  0.2645
 7636WAT    EPW31266   3.212   2.591   7.428  0.3945  0.0069 -0.2375
 7637WAT      O31267   1.142   3.173   3.761  0.0803 -0.2433 -0.3765
 7637WAT     H131268   1.059   3.191   3.781  0.1337 -1.7563  1.5317
 7637WAT     H231269   1.186   3.241   3.794 -0.1836 -0.9006  1.4190
 7637WAT    EPW31270   1.137   3.185   3.769  0.0492 -0.5639  0.1706
 7638WAT      O31271   3.587   0.534   3.902 -0.1216 -0.1963  0.6589
 7638WAT     H131272   3.573   0.456   3.940  1.5232 -1.0879 -0.4788
 7638WAT     H231273   3.544   0.527   3.826  0.6714 -0.3127  0.2136
 7638WAT    EPW31274   3.579   0.521   3.897  0.2385 -0.3452  0.4250
 7639WAT      O31275   4.137   3.911   1.606 -0.4156  0.0677 -0.1657
 7639WAT     H131276   4.141   3.830   1.637 -1.2697  0.3290  0.6569
 7639WAT     H231277   4.177   3.905   1.529  3.0515 -0.3347  1.4653
 7639WAT    EPW31278   4.144   3.898   1.599 -0.0296  0.0468  0.1967
 7640WAT      O31279   7.474   6.867   6.788 -0.2919 -0.3369 -0.0601
 7640WAT     H131280   7.483   6.924   6.852 -1.3836 -0.4899  0.2545
 7640WAT     H231281   7.491   6.790   6.826 -0.5347 -0.3869 -0.0496
 7640WAT    EPW31282   7.478   6.864   6.803 -0.4890 -0.3669 -0.0121
 7641WAT      O31283   1.719   1.996   0.943 -0.4775 -0.1723 -0.0812
 7641WAT     H131284   1.667   1.994   0.873  0.4230 -0.1988 -0.7718
 7641WAT     H231285   1.681   1.940   0.998  0.1226 -2.1553 -1.5482
 7641WAT    EPW31286   1.706   1.987   0.941 -0.2559 -0.4692 -0.3999
 7642WAT      O31287   6.787   2.311   5.949 -0.7305  0.2414  0.0652
 7642WAT     H131288   6.808   2.394   5.968  0.0946 -0.4736  2.7350
 7642WAT     H231289   6.824   2.265   6.014  0.2075 -2.4324 -2.1637
 7642WAT    EPW31290   6.796   2.317   5.962 -0.4701 -0.2592  0.1303
 7643WAT      O31291   7.493   2.485   5.156  0.0819 -0.1805  0.1360
 7643WAT     H131292   7.557   2.545   5.159 -0.1612  0.0353  2.2024
 7643WAT     H231293   7.505   2.446   5.078  0.5819  2.1593 -1.0509
 7643WAT    EPW31294   7.504   2.488   5.145  0.1199  0.1970  0.2659
 7644WAT      O31295   0.529   5.419   6.143  0.2802  0.0777  0.4955
 7644WAT     H131296   0.602   5.381   6.115  0.5495 -0.6439  2.0662
 7644WAT     H231297   0.466   5.374   6.103  0.6132  2.1205 -2.6592
 7644WAT    EPW31298   0.531   5.407   6.133  0.3692  0.2729  0.2615
 7645WAT      O31299   1.952   1.254   6.187  0.2275  0.5879 -0.4321
 7645WAT     H131300   2.023   1.204   6.195  0.4332  0.8771 -0.3998
 7645WAT     H231301   1.889   1.198   6.165  0.6239  0.4373 -1.2069
 7645WAT    EPW31302   1.953   1.239   6.185  0.3164  0.6084 -0.5418
 7646WAT      O31303   3.459   0.301   6.677 -0.5564  0.5605  0.0908
 7646WAT     H131304   3.408   0.329   6.612  0.4751  0.5936 -0.7191
 7646WAT     H231305   3.486   0.375   6.714 -1.7953  0.5439  1.1231
 7646WAT    EPW31306   3.455   0.316   6.673 -0.5870  0.5629  0.1237
 7647WAT      O31307   1.147   4.331   5.325  0.1827 -0.5863 -0.1172
 7647WAT     H131308   1.219   4.321   5.374  0.0952  2.5083  0.8661
 7647WAT     H231309   1.083   4.338   5.384 -0.6376 -1.2739 -0.9046
 7647WAT    EPW31310   1.148   4.330   5.341  0.0486 -0.2307 -0.0883
 7648WAT      O31311   4.230   2.726   6.388 -0.0583 -0.1150 -0.0089
 7648WAT     H131312   4.184   2.750   6.317 -1.1424  0.0434  0.7100
 7648WAT     H231313   4.176   2.746   6.454  1.2248  0.4437  0.9062
 7648WAT    EPW31314   4.215   2.733   6.387 -0.0289 -0.0091  0.2325
 7649WAT      O31315   2.052   1.970   3.756  0.5739 -0.2166  0.1603
 7649WAT     H131316   2.116   1.988   3.699  0.9624 -0.9001  0.3662
 7649WAT     H231317   1.981   2.004   3.719  1.3371  2.2641  0.8048
 7649WAT    EPW31318   2.051   1.978   3.742  0.7440  0.0489  0.2860
 7650WAT      O31319   1.147   1.649   0.566 -0.7726 -0.4630 -0.0620
 7650WAT     H131320   1.160   1.677   0.647 -0.1604 -0.3164 -0.2075
 7650WAT     H231321   1.195   1.577   0.560  1.0966  0.7934 -1.0006
 7650WAT    EPW31322   1.156   1.643   0.577 -0.4060 -0.2558 -0.2221
 7651WAT      O31323   5.924   3.044   1.902  0.7317  0.3645 -0.1584
 7651WAT     H131324   5.977   2.988   1.942 -1.4579 -1.8571 -0.1840
 7651WAT     H231325   5.903   3.101   1.965 -1.2079 -2.0160  1.5087
 7651WAT    EPW31326   5.929   3.044   1.917  0.1217 -0.3153  0.0841
 7652WAT      O31327   1.628   3.528   5.448  0.0064  0.4352  0.2232
 7652WAT     H131328   1.663   3.481   5.384  1.0556  0.5952  0.6684
 7652WAT     H231329   1.603   3.602   5.408  2.6895  1.5025  0.3337
 7652WAT    EPW31330   1.629   3.532   5.432  0.5578  0.6165  0.3053
 7653WAT      O31331   4.841   7.140   4.650 -0.0849  0.2019 -0.2254
 7653WAT     H131332   4.853   7.173   4.730 -1.4692 -0.1565  0.1649
 7653WAT     H231333   4.776   7.188   4.618 -1.8140 -1.7134  0.1713
 7653WAT    EPW31334   4.833   7.152   4.657 -0.5448 -0.1340 -0.1092
 7654WAT      O31335   1.323   4.654   0.212  0.4298  0.2641  0.3789
 7654WAT     H131336   1.356   4.589   0.259  1.1904  0.4913  0.1819
 7654WAT     H231337   1.325   4.624   0.130 -0.7648 -0.0801  0.4573
 7654WAT    EPW31338   1.328   4.640   0.207  0.3657  0.2468  0.3614
 7655WAT      O31339   7.438   5.500   6.783 -0.2543  0.2796  0.6682
 7655WAT     H131340   7.454   5.423   6.746 -2.9725  0.0039 -0.1390
 7655WAT     H231341   7.431   5.481   6.868 -1.7916 -0.5628  0.3794
 7655WAT    EPW31342   7.440   5.486   6.790 -0.8829  0.1144  0.5063
 7656WAT      O31343   4.898   3.298   2.964 -0.2655  0.1367 -0.4099
 7656WAT     H131344   4.893   3.244   2.896  2.8896  1.1206 -1.5837
 7656WAT     H231345   4.958   3.356   2.940 -0.3625  1.6188  2.5235
 7656WAT    EPW31346   4.906   3.298   2.951  0.1862  0.5010 -0.1500
 7657WAT      O31347   5.782   3.304   7.264  0.1482  0.3343 -0.3090
 7657WAT     H131348   5.856   3.279   7.304  0.4717  0.3384 -0.8938
 7657WAT     H231349   5.734   3.338   7.328  0.1706 -0.7398  0.3005
 7657WAT    EPW31350   5.786   3.305   7.279  0.1993  0.1762 -0.3053
 7658WAT      O31351   1.825   2.683   6.046 -0.6716  0.6046 -0.5373
 7658WAT     H131352   1.828   2.635   5.973  3.0319  1.2380 -0.9915
 7658WAT     H231353   1.826   2.765   6.016 -2.5547  0.9419  0.2587
 7658WAT    EPW31354   1.826   2.688   6.030 -0.4027  0.7480 -0.4868
 7659WAT      O31355   6.194   3.393   6.046 -0.1544  0.6892 -0.5314
 7659WAT     H131356   6.166   3.321   6.005  0.5077 -0.5426  1.1105
 7659WAT     H231357   6.130   3.410   6.103  0.3423  0.5598  0.0703
 7659WAT    EPW31358   6.180   3.385   6.048  0.0168  0.4881 -0.2000
 7660WAT      O31359   4.724   1.633   2.119  0.1425  0.0895  0.0850
 7660WAT     H131360   4.664   1.637   2.056  0.7699 -0.7859 -0.5969
 7660WAT     H231361   4.786   1.688   2.091  0.2879 -0.0743  0.0858
 7660WAT    EPW31362   4.724   1.642   2.105  0.2566 -0.0640 -0.0156
 7661WAT      O31363   5.433   2.980   7.041 -0.1636  0.5325  0.3862
 7661WAT     H131364   5.398   3.023   7.109  0.4124  0.3740  0.7941
 7661WAT     H231365   5.483   3.040   7.003 -1.1709  0.8748 -0.4368
 7661WAT    EPW31366   5.435   2.995   7.046 -0.2273  0.5597  0.3249
 7662WAT      O31367   0.804   3.289   7.174 -0.0675  0.1386 -0.0210
 7662WAT     H131368   0.750   3.331   7.119 -0.5359  0.8570  0.9591
 7662WAT     H231369   0.750   3.239   7.221  0.2756 -0.0905  0.1296
 7662WAT    EPW31370   0.788   3.288   7.173 -0.0860  0.2109  0.1460
 7663WAT      O31371   1.834   3.081   3.586  0.0859 -0.1512  0.4052
 7663WAT     H131372   1.878   3.053   3.656  0.9406 -0.0399 -0.0762
 7663WAT     H231373   1.887   3.140   3.550 -0.7621  0.5232  0.2050
 7663WAT    EPW31374   1.848   3.086   3.591  0.0869 -0.0352  0.3045
 7664WAT      O31375   4.193   6.625   6.189 -0.4625 -0.1347  0.2345
 7664WAT     H131376   4.240   6.649   6.259  1.0257 -2.0537 -0.0423
 7664WAT     H231377   4.122   6.589   6.224 -0.1882 -0.1901  0.7521
 7664WAT    EPW31378   4.190   6.624   6.205 -0.2021 -0.4263  0.2701
 7665WAT      O31379   4.220   3.143   6.972  0.9011 -0.3941 -0.0584
 7665WAT     H131380   4.293   3.171   6.933  2.2981 -2.4186  0.9290
 7665WAT     H231381   4.236   3.059   6.988 -1.3486 -0.7053  0.9575
 7665WAT    EPW31382   4.233   3.135   6.968  0.7752 -0.7391  0.2375
 7666WAT      O31383   1.148   4.649   6.894  0.3349 -0.0379  0.4490
 7666WAT     H131384   1.232   4.670   6.908  0.5401 -0.8489  0.4860
 7666WAT     H231385   1.144   4.565   6.917  0.2280 -0.9071 -2.3844
 7666WAT    EPW31386   1.160   4.640   6.900  0.3494 -0.2861  0.0359
 7667WAT      O31387   0.232   0.366   7.069 -0.8943  0.0152  0.4803
 7667WAT     H131388   0.317   0.374   7.051 -0.6837 -0.2661  1.3165
 7667WAT     H231389   0.199   0.444   7.050 -0.5916 -0.1064 -0.5952
 7667WAT    EPW31390   0.240   0.378   7.064 -0.8185 -0.0443  0.4450
 7668WAT      O31391   2.836   0.278   6.570  0.0915 -0.3740 -0.2285
 7668WAT     H131392   2.763   0.257   6.527  0.0445 -0.6181 -0.0329
 7668WAT     H231393   2.899   0.235   6.528  0.0226 -0.7515  0.0479
 7668WAT    EPW31394   2.835   0.268   6.558  0.0744 -0.4658 -0.1588
 7669WAT      O31395   2.382   3.735   7.125 -0.3647 -0.1055  0.0451
 7669WAT     H131396   2.420   3.689   7.061 -0.7106  0.3500 -0.5059
 7669WAT     H231397   2.449   3.771   7.167 -0.1321 -0.3952 -0.0753
 7669WAT    EPW31398   2.397   3.733   7.122 -0.3815 -0.0810 -0.0541
 7670WAT      O31399   5.608   4.267   3.613 -0.0326 -0.7663  0.4546
 7670WAT     H131400   5.590   4.336   3.563 -0.3793 -0.2400  1.2890
 7670WAT     H231401   5.530   4.242   3.642  0.2880 -0.1417  1.9259
 7670WAT    EPW31402   5.594   4.273   3.610 -0.0364 -0.5963  0.7952
 7671WAT      O31403   4.426   1.424   6.208  0.5391  0.1500 -0.0115
 7671WAT     H131404   4.443   1.441   6.292  0.2603 -0.1615  0.1120
 7671WAT     H231405   4.457   1.343   6.197 -1.4800 -0.7254  0.4158
 7671WAT    EPW31406   4.433   1.414   6.219  0.1996 -0.0253  0.0699
 7672WAT      O31407   7.294   3.760   4.534  0.1124 -0.2404 -0.7078
 7672WAT     H131408   7.292   3.689   4.585  0.5721  0.2047 -0.0481
 7672WAT     H231409   7.343   3.816   4.580  0.0966  0.3561 -1.4092
 7672WAT    EPW31410   7.301   3.758   4.549  0.1780 -0.0865 -0.7140
 7673WAT      O31411   4.728   4.949   2.869 -0.7092  0.1351  0.2693
 7673WAT     H131412   4.715   4.889   2.807 -0.0198  0.7704 -0.5283
 7673WAT     H231413   4.679   5.017   2.842 -0.5007  0.3724  0.4809
 7673WAT    EPW31414   4.718   4.950   2.856 -0.5766  0.2640  0.1827
 7674WAT      O31415   1.649   2.608   4.072 -0.2466 -0.7096  0.4933
 7674WAT     H131416   1.592   2.673   4.088  0.7037  1.1568 -2.7577
 7674WAT     H231417   1.698   2.606   4.144  0.0258  2.6714  0.5792
 7674WAT    EPW31418   1.648   2.617   4.085 -0.0659  0.0656  0.0258
 7675WAT      O31419   7.710   7.362   0.091 -0.4201 -0.1887 -0.3971
 7675WAT     H131420   7.640   7.345   0.042 -0.5787  0.1641 -0.2973
 7675WAT     H231421   7.721   7.289   0.137 -0.0263 -0.6708 -1.2419
 7675WAT    EPW31422   7.701   7.349   0.090 -0.3854 -0.2078 -0.5072
 7676WAT      O31423   2.871   7.251   6.057  0.3315 -0.4171  0.1644
 7676WAT     H131424   2.929   7.201   6.099 -0.6959 -0.4405  1.6388
 7676WAT     H231425   2.822   7.193   6.014  1.3298 -0.4002 -1.0484
 7676WAT    EPW31426   2.873   7.235   6.057  0.3272 -0.4181  0.2030
 7677WAT      O31427   4.752   0.242   4.006  0.0417 -0.1245 -0.2991
 7677WAT     H131428   4.831   0.268   3.982 -0.3006 -0.2930 -1.6725
 7677WAT     H231429   4.754   0.156   3.996 -0.1665 -0.1865  0.1417
 7677WAT    EPW31430   4.764   0.233   4.001 -0.0396 -0.1585 -0.4368
 7678WAT      O31431   4.596   5.264   0.502  0.1805  0.2435  0.0319
 7678WAT     H131432   4.607   5.349   0.514 -1.4646  0.3250  1.1948
 7678WAT     H231433   4.657   5.228   0.552  1.0130  0.7164 -0.6193
 7678WAT    EPW31434   4.607   5.271   0.511  0.0605  0.3254  0.1075
 7679WAT      O31435   5.067   3.900   4.777 -0.2596 -0.3890 -0.1801
 7679WAT     H131436   5.143   3.867   4.751 -0.2699 -0.5569 -0.0016
 7679WAT     H231437   5.028   3.924   4.703  0.7846  1.5374 -0.1784
 7679WAT    EPW31438   5.073   3.899   4.762 -0.1069 -0.1292 -0.1535
 7680WAT      O31439   2.793   6.323   5.080  0.2330 -0.6131 -0.3903
 7680WAT     H131440   2.869   6.298   5.045 -0.4305  0.0411 -2.4143
 7680WAT     H231441   2.755   6.370   5.017 -1.5376 -0.2808  0.8361
 7680WAT    EPW31442   2.799   6.326   5.066 -0.1266 -0.4674 -0.5081
 7681WAT      O31443   3.786   4.020   5.812 -0.2611  0.2022  0.2792
 7681WAT     H131444   3.845   3.958   5.832 -0.7495 -0.4124 -0.1317
 7681WAT     H231445   3.749   3.989   5.739 -1.5168  0.2781  0.8631
 7681WAT    EPW31446   3.789   4.006   5.804 -0.5187  0.1226  0.3047
 7682WAT      O31447   0.660   3.731   5.955 -0.3490 -0.1359 -0.2536
 7682WAT     H131448   0.599   3.679   5.920 -0.9594 -0.1017  0.7065
 7682WAT     H231449   0.659   3.709   6.039 -1.4316  2.1745  0.4268
 7682WAT    EPW31450   0.650   3.720   5.962 -0.5991  0.2104 -0.0113
 7683WAT      O31451   5.248   4.680   6.980  0.5259 -0.0654 -0.0454
 7683WAT     H131452   5.175   4.632   6.981  1.5816 -1.7503 -0.4768
 7683WAT     H231453   5.275   4.674   6.897  1.4654  0.0435  0.2490
 7683WAT    EPW31454   5.241   4.672   6.968  0.8207 -0.2982 -0.0657
 7684WAT      O31455   2.099   4.439   4.236  0.4010 -0.4623 -0.0711
 7684WAT     H131456   2.058   4.459   4.311  3.8538 -0.4967  2.0816
 7684WAT     H231457   2.062   4.492   4.178 -1.2110  0.9428  2.0644
 7684WAT    EPW31458   2.087   4.450   4.239  0.6730 -0.2598  0.5623
 7685WAT      O31459   3.309   5.971   7.728  0.3072 -0.0909  0.6260
 7685WAT     H131460   3.296   5.997   7.645  1.2966 -1.7898 -0.1097
 7685WAT     H231461   3.254   5.904   7.738 -0.7888  0.9344  1.8409
 7685WAT    EPW31462   3.299   5.965   7.717  0.2914 -0.1904  0.6968
 7686WAT      O31463   5.635   5.386   4.454 -0.0424 -0.3387 -0.2113
 7686WAT     H131464   5.607   5.316   4.498 -2.7329  0.6116 -0.2566
 7686WAT     H231465   5.603   5.453   4.500  3.0716  1.0024  0.2688
 7686WAT    EPW31466   5.626   5.385   4.468  0.0201 -0.0002 -0.1471
 7687WAT      O31467   5.264   0.900   1.664  0.1834  0.1125 -0.1587
 7687WAT     H131468   5.287   0.834   1.613  0.9210  0.5359 -0.3924
 7687WAT     H231469   5.341   0.935   1.688 -0.1707  0.2978  0.7291
 7687WAT    EPW31470   5.279   0.896   1.660  0.2400  0.2024 -0.0621
 7688WAT      O31471   4.987   2.870   6.922 -0.4998  0.2836 -0.0620
 7688WAT     H131472   4.933   2.815   6.882 -0.6241  0.3239  0.0537
 7688WAT     H231473   5.052   2.818   6.950 -2.0111 -0.3058  2.6625
 7688WAT    EPW31474   4.989   2.854   6.920 -0.7414  0.2025  0.3575
 7689WAT      O31475   3.162   1.435   0.555 -0.7541  0.1541 -0.3041
 7689WAT     H131476   3.142   1.493   0.617  0.0686 -2.0000  2.1613
 7689WAT     H231477   3.088   1.391   0.544 -0.4086 -0.7081  0.6529
 7689WAT    EPW31478   3.148   1.437   0.563 -0.5816 -0.2915  0.2014
 7690WAT      O31479   6.029   3.619   5.450 -0.6533 -0.2057  0.2754
 7690WAT     H131480   6.065   3.657   5.519 -1.8746 -0.3269  1.0071
 7690WAT     H231481   6.065   3.661   5.382  2.4367 -1.7252  0.8105
 7690WAT    EPW31482   6.039   3.631   5.450 -0.3773 -0.4480  0.4626
 7691WAT      O31483   6.828   0.156   4.187  0.1075  0.0921 -0.4299
 7691WAT     H131484   6.788   0.194   4.119 -1.1095 -2.3935 -1.2062
 7691WAT     H231485   6.815   0.071   4.174  2.2835 -0.6363  1.4548
 7691WAT    EPW31486   6.820   0.149   4.175  0.2492 -0.3827 -0.2662
 7692WAT      O31487   1.862   7.678   7.264  0.5235  0.2042  0.8841
 7692WAT     H131488   1.829   7.727   7.329  0.9103 -2.3617  3.1909
 7692WAT     H231489   1.816   7.605   7.268  0.2730  0.0977 -2.1457
 7692WAT    EPW31490   1.851   7.675   7.274  0.5436 -0.1906  0.7773
 7693WAT      O31491   0.834   4.537   3.560  0.1994 -0.0812  0.5422
 7693WAT     H131492   0.750   4.559   3.554  0.3614  0.4316  0.0796
 7693WAT     H231493   0.871   4.607   3.595  0.2711 -0.7213  1.7890
 7693WAT    EPW31494   0.827   4.551   3.564  0.2339 -0.1000  0.6581
 7694WAT      O31495   0.040   2.263   6.927 -0.3319 -0.4486 -0.4414
 7694WAT     H131496   0.073   2.306   6.859 -0.2907 -0.4458 -0.4193
 7694WAT     H231497  -0.020   2.210   6.891 -0.7439 -0.0050 -0.4094
 7694WAT    EPW31498   0.036   2.261   6.912 -0.3866 -0.3826 -0.4334
 7695WAT      O31499   4.682   0.704   2.328  0.3036 -0.2780  0.0518
 7695WAT     H131500   4.738   0.681   2.265  0.5758 -1.3831  0.6705
 7695WAT     H231501   4.604   0.695   2.291  0.4257 -1.7037  0.0951
 7695WAT    EPW31502   4.679   0.699   2.313  0.3618 -0.6518  0.1496
 7696WAT      O31503   4.072   3.994   6.071 -0.0584  0.2732 -0.2341
 7696WAT     H131504   4.037   4.071   6.049  1.5085  0.7011 -1.4158
 7696WAT     H231505   4.044   3.941   6.008 -0.2727  0.1183 -0.0090
 7696WAT    EPW31506   4.063   3.998   6.058  0.1414  0.3135 -0.3754
 7697WAT      O31507   1.840   0.997   3.468 -0.4942 -0.0584 -0.3084
 7697WAT     H131508   1.820   0.924   3.423  0.2900  0.8361 -2.2098
 7697WAT     H231509   1.898   0.969   3.528 -0.7687 -1.1149 -0.5204
 7697WAT    EPW31510   1.846   0.982   3.470 -0.4189 -0.0823 -0.6206
 7698WAT      O31511   6.081   1.421   7.603 -0.3687  0.0710  0.2760
 7698WAT     H131512   6.149   1.369   7.586  0.1832  0.2815  1.7185
 7698WAT     H231513   6.108   1.499   7.577  0.6381  0.4719  2.4041
 7698WAT    EPW31514   6.095   1.425   7.597 -0.1385  0.1613  0.8035
 7699WAT      O31515   3.796   3.909   0.964 -0.2043  0.0029 -0.0765
 7699WAT     H131516   3.864   3.908   0.910 -0.8472 -2.0253 -0.9560
 7699WAT     H231517   3.790   3.827   0.992 -1.5690  0.3975  0.9319
 7699WAT    EPW31518   3.805   3.897   0.960 -0.5008 -0.2384 -0.0574
 7700WAT      O31519   3.745   1.437   6.097 -0.1999  0.1208  0.1876
 7700WAT     H131520   3.757   1.366   6.146  1.3922  0.0602 -0.2395
 7700WAT     H231521   3.671   1.420   6.053  0.3435 -1.4391 -0.1695
 7700WAT    EPW31522   3.736   1.424   6.098  0.1156 -0.1186  0.0718
 7701WAT      O31523   3.059   6.037   7.865  0.0197 -0.3281 -0.6257
 7701WAT     H131524   3.142   6.053   7.842  0.2435 -2.0763 -1.2426
 7701WAT     H231525   3.018   6.030   7.788 -0.8176  0.9766 -0.3149
 7701WAT    EPW31526   3.065   6.038   7.850 -0.0709 -0.3937 -0.6709
 7702WAT      O31527   5.584   4.538   6.741 -0.6128  0.1714 -0.0127
 7702WAT     H131528   5.566   4.466   6.785 -0.2455  1.0843  1.7141
 7702WAT     H231529   5.506   4.573   6.725 -0.7866 -0.5423 -0.8023
 7702WAT    EPW31530   5.570   4.533   6.745 -0.5842  0.2008  0.1257
 7703WAT      O31531   2.445   1.530   0.411 -0.4667  0.4288 -0.2106
 7703WAT     H131532   2.436   1.605   0.454  0.3835 -0.3318  1.3786
 7703WAT     H231533   2.530   1.528   0.391 -0.7287  0.4729 -1.4331
 7703WAT    EPW31534   2.456   1.541   0.414 -0.3798  0.3229 -0.1564
 7704WAT      O31535   6.936   0.840   0.086  0.2418 -0.0123  0.9195
 7704WAT     H131536   6.990   0.773   0.074  0.9457  0.6364  0.3366
 7704WAT     H231537   6.987   0.910   0.072 -0.3684  0.6590  1.9175
 7704WAT    EPW31538   6.951   0.840   0.083  0.2557  0.1827  0.9808
 7705WAT      O31539   4.808   3.123   6.505  0.2706 -0.4384  0.2861
 7705WAT     H131540   4.889   3.156   6.513 -0.0860  0.2406  1.2230
 7705WAT     H231541   4.760   3.173   6.558 -0.8389 -0.6188 -0.5192
 7705WAT    EPW31542   4.813   3.136   6.514  0.0540 -0.3648  0.3055
 7706WAT      O31543   1.263   1.896   0.144  0.6561  0.0520  0.0003
 7706WAT     H131544   1.324   1.954   0.123  0.2823  0.4818  0.1066
 7706WAT     H231545   1.269   1.889   0.230 -0.3975  1.1719  0.1915
 7706WAT    EPW31546   1.273   1.903   0.153  0.4452  0.2809  0.0442
 7707WAT      O31547   2.058   7.600   5.568  0.1055 -0.1159  0.0297
 7707WAT     H131548   2.081   7.593   5.652 -0.4798 -0.4614  0.1701
 7707WAT     H231549   2.122   7.558   5.526  0.2053 -0.2798  0.3394
 7707WAT    EPW31550   2.071   7.593   5.574  0.0338 -0.1911  0.0962
 7708WAT      O31551   7.454   1.474   4.990 -0.4532  0.4316 -0.1349
 7708WAT     H131552   7.422   1.549   5.020 -0.5410  0.4912 -0.3731
 7708WAT     H231553   7.383   1.428   4.968 -0.4457 -0.1401  0.9778
 7708WAT    EPW31554   7.439   1.478   4.991 -0.4651  0.3560 -0.0057
 7709WAT      O31555   3.844   3.075   4.870 -0.0589 -0.0903 -0.3437
 7709WAT     H131556   3.802   2.999   4.870  1.1082 -0.7767  0.4293
 7709WAT     H231557   3.876   3.081   4.789 -0.3055 -0.3257 -0.4618
 7709WAT    EPW31558   3.843   3.065   4.858  0.0770 -0.2265 -0.2470
 7710WAT      O31559   2.869   1.365   4.367  0.0824  0.0856  0.1304
 7710WAT     H131560   2.859   1.451   4.364 -1.0967 -0.0647 -2.1703
 7710WAT     H231561   2.927   1.353   4.431  0.7137  2.6110  0.1136
 7710WAT    EPW31562   2.876   1.376   4.376  0.0014  0.4365 -0.2120
 7711WAT      O31563   2.633   2.027   6.405  0.5039  0.2627  0.5487
 7711WAT     H131564   2.669   2.077   6.467 -0.8458 -1.3229  2.8020
 7711WAT     H231565   2.551   2.017   6.433  0.0523 -1.2027 -1.1075
 7711WAT    EPW31566   2.626   2.033   6.419  0.2378 -0.1880  0.6369
 7712WAT      O31567   6.656   3.030   5.529  0.1849 -0.7068  0.8688
 7712WAT     H131568   6.732   3.066   5.505 -0.6162  0.6331  0.2692
 7712WAT     H231569   6.673   2.944   5.527  1.1925 -0.5199 -1.0362
 7712WAT    EPW31570   6.670   3.022   5.525  0.2154 -0.4813  0.4988
 7713WAT      O31571   4.336   1.234   7.597 -0.0778  0.2761 -0.0057
 7713WAT     H131572   4.292   1.239   7.672  1.1177 -0.2762  0.7515
 7713WAT     H231573   4.369   1.154   7.598  0.7556  0.6011 -0.6744
 7713WAT    EPW31574   4.334   1.223   7.608  0.2219  0.2425  0.0074
 7714WAT      O31575   2.534   0.000   6.136 -0.4774  0.0542 -0.2558
 7714WAT     H131576   2.477   0.055   6.100 -0.0232  1.7809  1.5149
 7714WAT     H231577   2.611   0.028   6.106 -0.3825 -1.7699 -1.9931
 7714WAT    EPW31578   2.537   0.012   6.126 -0.3963  0.0398 -0.2509
 7715WAT      O31579   0.046   2.969   4.967  0.0903  0.0903  0.6676
 7715WAT     H131580   0.056   3.047   4.930 -0.0014  0.0972  0.6592
 7715WAT     H231581   0.009   2.987   5.044 -0.9875 -0.0383  0.1937
 7715WAT    EPW31582   0.042   2.983   4.973 -0.0825  0.0723  0.5964
 7716WAT      O31583   4.822   2.182   1.307 -0.0693 -0.2027 -0.3254
 7716WAT     H131584   4.759   2.180   1.366 -0.0287  1.2581 -0.1792
 7716WAT     H231585   4.891   2.212   1.352  0.0174  0.7264 -1.0425
 7716WAT    EPW31586   4.823   2.186   1.322 -0.0505  0.1504 -0.4097
 7717WAT      O31587   0.580   0.992   3.771 -0.3031 -0.3435  0.2869
 7717WAT     H131588   0.614   0.935   3.715 -0.7327 -0.2502 -0.0771
 7717WAT     H231589   0.540   0.941   3.830  0.6723 -0.4585  0.8598
 7717WAT    EPW31590   0.579   0.976   3.772 -0.2225 -0.3467  0.3177
 7718WAT      O31591   3.086   1.123   7.404 -0.0322  0.2030 -0.0731
 7718WAT     H131592   3.110   1.126   7.488 -0.2965 -0.7342  0.0446
 7718WAT     H231593   3.003   1.098   7.406 -0.6418  2.0293 -0.5502
 7718WAT    EPW31594   3.078   1.120   7.416 -0.1613  0.3343 -0.1262
 7719WAT      O31595   1.454   1.805   4.966  0.4490  0.2875 -0.1243
 7719WAT     H131596   1.534   1.798   4.999 -0.6710 -4.2100  2.6196
 7719WAT     H231597   1.406   1.830   5.035 -0.8079  0.4538 -1.0206
 7719WAT    EPW31598   1.458   1.808   4.981  0.0978 -0.3523  0.1486
 7720WAT      O31599   3.255   6.283   2.475  0.0555 -0.4796  0.0481
 7720WAT     H131600   3.278   6.319   2.551  2.7998  0.6969 -1.1962
 7720WAT     H231601   3.182   6.325   2.453  0.0627  0.2278  1.3142
 7720WAT    EPW31602   3.248   6.294   2.483  0.4619 -0.2013  0.0513
 7721WAT      O31603   0.767   5.624   7.359  0.3721  0.0552  0.5689
 7721WAT     H131604   0.833   5.648   7.307  1.1846 -1.4250  0.8682
 7721WAT     H231605   0.699   5.669   7.328  1.2583  0.6887 -0.5192
 7721WAT    EPW31606   0.766   5.634   7.347  0.6231 -0.0699  0.4524
 7722WAT      O31607   5.073   2.989   3.629  0.2557  0.3541  0.2651
 7722WAT     H131608   5.092   2.940   3.559  1.2577 -2.5822  2.4104
 7722WAT     H231609   4.987   2.978   3.638 -0.0834  1.6344 -1.0391
 7722WAT    EPW31610   5.063   2.980   3.620  0.3536  0.1095  0.3894
 7723WAT      O31611   0.936   6.096   6.486 -0.4873 -0.2397 -0.4355
 7723WAT     H131612   0.974   6.021   6.508 -0.1110  0.2501  0.6320
 7723WAT     H231613   0.869   6.102   6.541  0.3181  0.8723  0.4943
 7723WAT    EPW31614   0.932   6.086   6.497 -0.3127 -0.0031 -0.1405
 7724WAT      O31615   4.436   3.565   6.627 -0.3556  0.2308  0.2515
 7724WAT     H131616   4.381   3.509   6.587  1.2576 -1.8292  0.7120
 7724WAT     H231617   4.400   3.576   6.705 -0.5713 -0.3815  0.2457
 7724WAT    EPW31618   4.423   3.558   6.632 -0.1492 -0.1639  0.3187
 7725WAT      O31619   3.212   4.901   6.059 -0.6057 -0.4971 -0.2623
 7725WAT     H131620   3.187   4.966   6.007  1.1792  0.5777  0.1621
 7725WAT     H231621   3.250   4.844   6.005 -1.2720 -0.7312 -0.4948
 7725WAT    EPW31622   3.214   4.902   6.044 -0.4405 -0.3729 -0.2339
 7726WAT      O31623   5.707   0.804   5.576  0.2017  0.3291 -0.3693
 7726WAT     H131624   5.723   0.783   5.659 -0.7095 -0.7613 -0.4510
 7726WAT     H231625   5.691   0.890   5.579  1.0963  0.4768  0.4326
 7726WAT    EPW31626   5.707   0.814   5.589  0.1993  0.1898 -0.2629
 7727WAT      O31627   3.611   1.937   4.628 -0.4770 -0.2391 -0.1423
 7727WAT     H131628   3.640   1.981   4.697  1.3458 -0.0940 -0.9454
 7727WAT     H231629   3.613   1.995   4.564 -0.8405 -0.7325 -0.6143
 7727WAT    EPW31630   3.615   1.952   4.629 -0.2614 -0.2906 -0.3307
 7728WAT      O31631   0.836   3.571   4.604  0.1547 -0.0465  0.4757
 7728WAT     H131632   0.866   3.653   4.597  0.7866 -0.3602 -1.0286
 7728WAT     H231633   0.906   3.527   4.633  0.4754 -0.3775 -0.7356
 7728WAT    EPW31634   0.851   3.577   4.607  0.2955 -0.1417  0.0746
 7729WAT      O31635   6.576   2.244   0.328 -0.5348 -0.0613  0.3094
 7729WAT     H131636   6.517   2.308   0.327 -0.5409  0.0187 -2.3256
 7729WAT     H231637   6.646   2.281   0.292 -0.4913 -1.4227 -1.1356
 7729WAT    EPW31638   6.578   2.259   0.322 -0.5292 -0.2506 -0.2933
 7730WAT      O31639   4.850   3.754   7.363 -0.1093 -0.2329 -0.1205
 7730WAT     H131640   4.773   3.714   7.352  0.3830 -1.4008  0.4513
 7730WAT     H231641   4.830   3.822   7.414 -1.1748  1.0532 -2.1520
 7730WAT    EPW31642   4.836   3.758   7.369 -0.1939 -0.2154 -0.3361
 7731WAT      O31643   4.036   3.103   1.283 -0.0509  0.3342  0.4408
 7731WAT     H131644   4.023   3.056   1.356  1.2528  2.2566  2.0082
 7731WAT     H231645   3.993   3.177   1.299  0.2684  0.7905 -0.7561
 7731WAT    EPW31646   4.028   3.107   1.296  0.1888  0.6856  0.4955
 7732WAT      O31647   6.108   4.130   6.519  0.2849  0.3867 -0.0115
 7732WAT     H131648   6.064   4.157   6.590  0.2893  0.3111  0.0206
 7732WAT     H231649   6.045   4.115   6.461 -0.0188 -2.2349  0.8430
 7732WAT    EPW31650   6.092   4.132   6.521  0.2407 -0.0117  0.1194
 7733WAT      O31651   0.708   4.045   5.973 -0.1570  0.5952 -0.1042
 7733WAT     H131652   0.712   3.982   5.912 -2.7918 -0.9900  1.1813
 7733WAT     H231653   0.738   4.005   6.045 -3.2746  0.1329  1.0972
 7733WAT    EPW31654   0.713   4.030   5.975 -1.0068  0.2928  0.2631
 7734WAT      O31655   2.297   1.550   5.279 -0.3100  0.2475  0.2052
 7734WAT     H131656   2.257   1.525   5.205 -0.6071 -4.0014  1.5334
 7734WAT     H231657   2.233   1.589   5.324 -1.5075 -1.4950  0.0951
 7734WAT    EPW31658   2.282   1.552   5.274 -0.5308 -0.6376  0.3851
 7735WAT      O31659   6.017   3.300   0.431 -0.4241  0.2788 -0.2284
 7735WAT     H131660   5.953   3.249   0.399 -0.2351 -0.2206  0.1785
 7735WAT     H231661   6.051   3.336   0.359  0.5050 -1.4314 -0.6877
 7735WAT    EPW31662   6.012   3.298   0.415 -0.2589 -0.0476 -0.2361
 7736WAT      O31663   2.692   3.695   1.833  0.0687 -0.0637  0.2238
 7736WAT     H131664   2.620   3.740   1.814 -0.1593 -0.5169 -0.0049
 7736WAT     H231665   2.672   3.653   1.907  0.2645  0.1794  0.4148
 7736WAT    EPW31666   2.679   3.695   1.841  0.0639 -0.0947  0.2182
 7737WAT      O31667   0.011   0.462   6.599  0.0075  0.2122  0.7286
 7737WAT     H131668  -0.030   0.387   6.580 -0.3231  0.2365  1.3208
 7737WAT     H231669  -0.028   0.488   6.673 -1.1334  1.8910 -0.4165
 7737WAT    EPW31670  -0.001   0.454   6.607 -0.2099  0.4638  0.6469
 7738WAT      O31671   6.676   1.667   5.305 -0.0139 -0.2608 -0.2921
 7738WAT     H131672   6.690   1.688   5.222 -1.7542 -0.3918 -0.6496
 7738WAT     H231673   6.643   1.740   5.340 -0.2019 -0.4947  0.0286
 7738WAT    EPW31674   6.673   1.681   5.298 -0.2988 -0.3147 -0.2976
 7739WAT      O31675   2.943   6.293   4.004 -0.1150  0.0060 -0.1523
 7739WAT     H131676   2.941   6.244   3.932 -0.4708 -0.3206  0.0788
 7739WAT     H231677   3.014   6.342   3.993  1.4606 -1.9976  0.5765
 7739WAT    EPW31678   2.953   6.293   3.992  0.0652 -0.3382 -0.0105
 7740WAT      O31679   4.661   7.431   7.249  0.2481  0.2253 -0.1975
 7740WAT     H131680   4.717   7.376   7.210  0.1437 -0.1912  0.2399
 7740WAT     H231681   4.712   7.497   7.275  0.0737  1.5254 -2.7787
 7740WAT    EPW31682   4.677   7.433   7.247  0.2069  0.3558 -0.5142
 7741WAT      O31683   3.960   6.480   5.935  0.3337 -0.2963 -0.1848
 7741WAT     H131684   4.028   6.486   5.880 -0.0782 -0.5153 -0.7250
 7741WAT     H231685   3.960   6.557   5.976  1.8310 -0.8264  0.9225
 7741WAT    EPW31686   3.970   6.492   5.933  0.4940 -0.4070 -0.1010
 7742WAT      O31687   4.472   2.616   5.400 -0.1635  0.1885  0.0584
 7742WAT     H131688   4.498   2.605   5.483 -1.4848  1.2190  0.6351
 7742WAT     H231689   4.497   2.542   5.361 -1.2399 -1.1923  1.8245
 7742WAT    EPW31690   4.480   2.603   5.406 -0.5177  0.1367  0.4045
 7743WAT      O31691   7.290   3.544   4.258  0.0681  0.3002  0.2625
 7743WAT     H131692   7.286   3.568   4.342 -0.3305  1.0353  0.0489
 7743WAT     H231693   7.366   3.576   4.231  0.3249 -0.1773  0.4074
 7743WAT    EPW31694   7.300   3.552   4.267  0.0472  0.3382  0.2523
 7744WAT      O31695   6.230   6.963   6.716  0.0724  0.4880  0.4923
 7744WAT     H131696   6.316   6.949   6.706  0.0803  0.3393  0.7557
 7744WAT     H231697   6.197   6.883   6.727 -0.0711  0.5597  0.5905
 7744WAT    EPW31698   6.238   6.949   6.716  0.0524  0.4766  0.5457
 7745WAT      O31699   2.122   0.899   7.555  0.7104  0.0547  0.2497
 7745WAT     H131700   2.103   0.817   7.581 -0.5224  0.2220 -0.0708
 7745WAT     H231701   2.202   0.911   7.586  1.1777 -1.5097 -0.2286
 7745WAT    EPW31702   2.131   0.889   7.564  0.5973 -0.1517  0.1317
 7746WAT      O31703   1.711   4.950   3.804 -0.2074  0.0009 -0.3526
 7746WAT     H131704   1.774   4.987   3.757 -0.4530 -0.6107 -1.1957
 7746WAT     H231705   1.745   4.947   3.885  0.7340 -0.0669 -0.7323
 7746WAT    EPW31706   1.726   4.955   3.809 -0.1047 -0.0994 -0.5332
 7747WAT      O31707   7.724   2.428   7.449 -0.1532 -0.3936 -0.0636
 7747WAT     H131708   7.787   2.382   7.489 -0.7230 -1.0852  0.0431
 7747WAT     H231709   7.651   2.384   7.468 -0.8049  0.9214  0.6188
 7747WAT    EPW31710   7.723   2.415   7.458 -0.3336 -0.3015  0.0529
 7748WAT      O31711   0.872   7.431   5.940  0.0033  0.1148  0.0602
 7748WAT     H131712   0.834   7.355   5.961 -0.5153 -0.0909 -1.4723
 7748WAT     H231713   0.907   7.415   5.861  0.9260  1.1209  0.2414
 7748WAT    EPW31714   0.872   7.417   5.931  0.0630  0.2330 -0.1394
 7749WAT      O31715   0.596   4.514   5.199  0.4534  0.4159  0.2197
 7749WAT     H131716   0.516   4.478   5.194  0.3006  0.6261  0.9051
 7749WAT     H231717   0.603   4.559   5.125  0.5733 -0.8549 -0.5647
 7749WAT    EPW31718   0.585   4.516   5.188  0.4486  0.2592  0.2051
 7750WAT      O31719   4.160   7.180   1.371 -0.5625  0.0606 -0.2152
 7750WAT     H131720   4.237   7.141   1.377 -1.0520 -0.9620 -0.3424
 7750WAT     H231721   4.177   7.264   1.388  0.3411 -0.3910  1.2364
 7750WAT    EPW31722   4.174   7.187   1.375 -0.5014 -0.1572 -0.0195
 7751WAT      O31723   2.844   3.293   3.722  0.0840  0.1239 -0.0962
 7751WAT     H131724   2.918   3.336   3.735  0.0468 -0.2586  1.5736
 7751WAT     H231725   2.788   3.356   3.698 -0.4529  1.5138  4.0188
 7751WAT    EPW31726   2.846   3.309   3.720 -0.0008  0.2727  0.7583
 7752WAT      O31727   2.678   7.031   0.128 -0.0401 -0.3383 -1.0770
 7752WAT     H131728   2.756   7.067   0.115  0.1284 -0.7050 -1.0848
 7752WAT     H231729   2.628   7.099   0.152 -0.4535  0.4517 -3.8386
 7752WAT    EPW31730   2.682   7.047   0.130 -0.0763 -0.2757 -1.4861
 7753WAT      O31731   2.659   6.868   7.438  0.6111 -0.0175 -0.0970
 7753WAT     H131732   2.605   6.801   7.426  0.8275 -0.0288 -1.0858
 7753WAT     H231733   2.732   6.831   7.468  0.2477 -0.0532  0.7731
 7753WAT    EPW31734   2.662   6.853   7.441  0.5894 -0.0244 -0.1145
 7754WAT      O31735   5.898   1.482   7.096 -0.3853 -0.4563  0.0119
 7754WAT     H131736   5.962   1.527   7.060  0.0203 -0.7050  0.4092
 7754WAT     H231737   5.881   1.525   7.170 -0.9156 -0.1948 -0.2510
 7754WAT    EPW31738   5.905   1.495   7.102 -0.4038 -0.4544  0.0317
 7755WAT      O31739   5.058   2.589   6.081  0.1601  0.4153  0.1111
 7755WAT     H131740   5.096   2.646   6.027  2.3902 -2.1280 -1.2308
 7755WAT     H231741   4.997   2.552   6.030 -0.8301  1.0872  0.7779
 7755WAT    EPW31742   5.054   2.592   6.065  0.3433  0.1388  0.0114
 7756WAT      O31743   2.923   3.746   6.367  0.2963  0.2951 -0.3671
 7756WAT     H131744   3.006   3.719   6.373  1.0278  2.1833 -1.3427
 7756WAT     H231745   2.926   3.811   6.310 -1.9105  0.3341 -0.5302
 7756WAT    EPW31746   2.936   3.752   6.360  0.0784  0.5798 -0.5353
 7757WAT      O31747   1.866   6.510   3.065  0.1393  0.2258  0.2684
 7757WAT     H131748   1.912   6.436   3.066 -0.3841 -0.1249 -0.3724
 7757WAT     H231749   1.882   6.544   2.986  0.1122  0.6299  0.4304
 7757WAT    EPW31750   1.875   6.504   3.053  0.0580  0.2337  0.1977
 7758WAT      O31751   5.498   6.825   5.568  0.0273 -0.1702  0.5808
 7758WAT     H131752   5.503   6.872   5.641  0.1470 -0.4106  0.7280
 7758WAT     H231753   5.429   6.859   5.526  1.3661  1.5910 -0.3449
 7758WAT    EPW31754   5.489   6.837   5.572  0.2428  0.0545  0.4658
 7759WAT      O31755   7.100   0.489   0.393  0.0979  0.0727  0.6673
 7759WAT     H131756   7.174   0.512   0.354  0.3651 -0.9415  0.5619
 7759WAT     H231757   7.038   0.517   0.338  0.4107  0.4040  0.4768
 7759WAT    EPW31758   7.102   0.497   0.379  0.1836 -0.0282  0.6236
 7760WAT      O31759   1.319   1.512   7.447  0.6584  0.8587 -0.1560
 7760WAT     H131760   1.356   1.528   7.524 -1.2022  2.0949  0.5317
 7760WAT     H231761   1.235   1.503   7.466  0.2544  0.4936 -1.9658
 7760WAT    EPW31762   1.312   1.513   7.461  0.3239  0.9874 -0.3218
 7761WAT      O31763   2.327   3.097   6.352  0.5774 -0.4374  0.1718
 7761WAT     H131764   2.290   3.120   6.277  0.0016  0.5736  0.7500
 7761WAT     H231765   2.260   3.092   6.408  1.1757  0.5377  1.0165
 7761WAT    EPW31766   2.312   3.100   6.350  0.5807 -0.1440  0.3820
 7762WAT      O31767   1.109   3.384   6.663 -0.0914 -0.2192  0.2459
 7762WAT     H131768   1.182   3.432   6.655  0.0169 -0.2766  0.7855
 7762WAT     H231769   1.049   3.430   6.621 -0.2455  0.9585  1.6787
 7762WAT    EPW31770   1.111   3.398   6.656 -0.0982 -0.0537  0.5373
 7763WAT      O31771   5.550   3.750   1.480 -0.5087  0.1728  0.0326
 7763WAT     H131772   5.501   3.809   1.439  0.0542 -0.1757 -1.1838
 7763WAT     H231773   5.631   3.778   1.467 -0.2765 -0.4476  0.1230
 7763WAT    EPW31774   5.554   3.763   1.472 -0.3913  0.0297 -0.1337
 7764WAT      O31775   2.100   4.939   6.907 -0.1552 -0.2668  0.2748
 7764WAT     H131776   2.098   4.854   6.889  0.4238 -0.3096  0.3859
 7764WAT     H231777   2.136   4.975   6.836  0.1488 -0.1876  0.4642
 7764WAT    EPW31778   2.105   4.932   6.894 -0.0247 -0.2615  0.3192
 7765WAT      O31779   2.196   5.839   5.452 -0.0377  0.3700 -0.4352
 7765WAT     H131780   2.261   5.828   5.508  0.0384  0.4867 -0.4985
 7765WAT     H231781   2.125   5.816   5.497  0.0047  0.6079 -0.2412
 7765WAT    EPW31782   2.195   5.834   5.467 -0.0202  0.4224 -0.4159
 7766WAT      O31783   1.984   4.451   4.977 -0.2969 -0.4579 -0.0718
 7766WAT     H131784   1.901   4.427   4.990 -0.1444 -0.4396  1.1107
 7766WAT     H231785   1.978   4.519   4.923 -0.8220 -2.3744 -2.6355
 7766WAT    EPW31786   1.971   4.457   4.971 -0.3520 -0.7383 -0.2758
 7767WAT      O31787   2.225   5.613   4.079  0.2950  0.3124 -0.1075
 7767WAT     H131788   2.206   5.546   4.132 -0.8710  0.6125 -0.1356
 7767WAT     H231789   2.299   5.587   4.041 -0.1759 -1.0090 -0.1797
 7767WAT    EPW31790   2.233   5.599   4.081  0.0532  0.1615 -0.1223
 7768WAT      O31791   2.609   5.784   5.984  0.2430 -0.0521 -0.5436
 7768WAT     H131792   2.646   5.726   5.931  2.3505  0.5909  0.1246
 7768WAT     H231793   2.677   5.824   6.021 -1.1397  1.8540  0.0875
 7768WAT    EPW31794   2.625   5.782   5.982  0.3501  0.3245 -0.3517
 7769WAT      O31795   4.592   2.696   6.167 -0.2129 -0.0633 -0.3523
 7769WAT     H131796   4.627   2.625   6.203  2.0091  1.3243  0.4710
 7769WAT     H231797   4.566   2.743   6.236 -0.5798  0.4309 -0.8157
 7769WAT    EPW31798   4.594   2.693   6.183  0.0611  0.2147 -0.2992
 7770WAT      O31799   2.627   1.586   1.591  0.5006 -0.1464  0.2808
 7770WAT     H131800   2.580   1.583   1.518 -1.2817  0.3915  1.3153
 7770WAT     H231801   2.705   1.613   1.565 -0.0045 -0.2554 -1.4436
 7770WAT    EPW31802   2.631   1.590   1.577  0.1627 -0.0831  0.1789
 7771WAT      O31803   4.062   5.508   7.404  0.5668  0.1504 -0.1978
 7771WAT     H131804   4.042   5.424   7.420  0.7670  0.1217 -0.0963
 7771WAT     H231805   4.082   5.539   7.483  0.7902  0.2170 -0.2818
 7771WAT    EPW31806   4.062   5.500   7.418  0.6294  0.1560 -0.1952
 7772WAT      O31807   6.273   2.729   3.087 -0.1489 -0.2388  0.2490
 7772WAT     H131808   6.320   2.767   3.150  0.2862  2.7672 -1.6664
 7772WAT     H231809   6.198   2.774   3.088 -0.9850 -1.5726 -0.0352
 7772WAT    EPW31810   6.269   2.741   3.097 -0.2081  0.0082 -0.0759
 7773WAT      O31811   2.157   5.398   3.511  0.1449 -0.1700 -0.2669
 7773WAT     H131812   2.131   5.466   3.463 -0.8768 -1.2143 -1.2426
 7773WAT     H231813   2.143   5.425   3.593 -0.8635  0.5603 -0.6600
 7773WAT    EPW31814   2.151   5.412   3.516 -0.1550 -0.2164 -0.4691
 7774WAT      O31815   4.314   4.613   1.541 -0.1289  0.1405  0.2201
 7774WAT     H131816   4.272   4.679   1.580  0.7048  0.0460  1.3302
 7774WAT     H231817   4.395   4.643   1.533 -0.4414  0.5159 -2.3482
 7774WAT    EPW31818   4.320   4.627   1.546 -0.0519  0.1820  0.0047
 7775WAT      O31819   5.692   6.896   0.399 -0.1328 -0.0502  0.1928
 7775WAT     H131820   5.709   6.981   0.386  1.2717 -0.3671 -0.2291
 7775WAT     H231821   5.633   6.878   0.338  2.3078 -0.2068 -2.2733
 7775WAT    EPW31822   5.686   6.906   0.388  0.4352 -0.1201 -0.2338
 7776WAT      O31823   6.421   4.971   6.319  0.6518  0.1256 -0.1579
 7776WAT     H131824   6.340   5.001   6.304  0.5550  0.4429  0.8726
 7776WAT     H231825   6.409   4.888   6.341  0.7833 -0.3078 -1.6236
 7776WAT    EPW31826   6.407   4.963   6.320  0.6569  0.1084 -0.2222
 7777WAT      O31827   3.571   2.212   0.038 -0.2680  0.5075 -0.0394
 7777WAT     H131828   3.628   2.166   0.085  0.9201  1.1550 -0.7957
 7777WAT     H231829   3.579   2.180  -0.042 -2.4972 -0.7953  0.1724
 7777WAT    EPW31830   3.580   2.201   0.033 -0.4218  0.4107 -0.1198
 7778WAT      O31831   1.877   6.418   1.833 -0.1447 -0.1739  0.2853
 7778WAT     H131832   1.870   6.500   1.806 -0.4595 -0.5858 -0.9310
 7778WAT     H231833   1.826   6.373   1.778  0.0270 -1.1913  0.9183
 7778WAT    EPW31834   1.868   6.423   1.821 -0.1658 -0.3851  0.1991
 7779WAT      O31835   6.878   2.711   4.349  0.1479  0.2556 -0.1131
 7779WAT     H131836   6.888   2.636   4.306  0.4513  0.3914 -0.2779
 7779WAT     H231837   6.941   2.763   4.317  0.2386  0.4283  0.3319
 7779WAT    EPW31838   6.889   2.708   4.338  0.2061  0.3012 -0.0717
 7780WAT      O31839   2.957   3.479   4.915  0.2407  0.1347  0.1168
 7780WAT     H131840   2.912   3.405   4.925  0.0591  0.4923  2.3812
 7780WAT     H231841   2.903   3.540   4.946  1.8636  0.6767  2.1040
 7780WAT    EPW31842   2.942   3.477   4.921  0.4536  0.2676  0.7449
 7781WAT      O31843   4.711   6.263   0.576 -0.4911 -0.8120  0.2937
 7781WAT     H131844   4.657   6.229   0.635 -0.9222 -0.2686  0.2191
 7781WAT     H231845   4.657   6.298   0.517 -0.0599 -0.1706  0.2720
 7781WAT    EPW31846   4.695   6.263   0.576 -0.4911 -0.6370  0.2795
 7782WAT      O31847   0.637   4.625   6.323  0.3353 -0.4136 -0.4069
 7782WAT     H131848   0.627   4.579   6.249 -0.0253  0.6011 -1.0008
 7782WAT     H231849   0.717   4.658   6.316  1.5494 -2.7401  1.0801
 7782WAT    EPW31850   0.647   4.623   6.311  0.4614 -0.6074 -0.2750
 7783WAT      O31851   5.345   2.348   6.147  0.3883  0.5379  0.0737
 7783WAT     H131852   5.263   2.341   6.175 -0.5040  0.2373 -2.3573
 7783WAT     H231853   5.377   2.415   6.193 -0.7474 -0.1469  1.9916
 7783WAT    EPW31854   5.338   2.357   6.158  0.0887  0.3923 -0.0021
 7784WAT      O31855   4.131   4.578   3.537 -0.0480 -0.5387 -0.0402
 7784WAT     H131856   4.097   4.614   3.464  0.2045 -1.0098 -0.3930
 7784WAT     H231857   4.119   4.493   3.526 -0.4317 -0.5844  0.6949
 7784WAT    EPW31858   4.125   4.571   3.524 -0.0674 -0.6151  0.0162
 7785WAT      O31859   0.895   2.387   5.597 -0.3010 -0.0771 -0.1025
 7785WAT     H131860   0.853   2.377   5.520  1.6460 -0.0869 -1.2199
 7785WAT     H231861   0.972   2.349   5.583  0.0438 -0.2126  1.9434
 7785WAT    EPW31862   0.900   2.380   5.583  0.0376 -0.0986  0.0347
 7786WAT      O31863   1.701   3.162   5.371  0.0001  0.2389 -0.1762
 7786WAT     H131864   1.748   3.139   5.440  0.4129  1.3144 -0.0862
 7786WAT     H231865   1.631   3.110   5.375  1.2761 -1.6027 -0.4776
 7786WAT    EPW31866   1.698   3.150   5.382  0.2496  0.1257 -0.2074
 7787WAT      O31867   2.553   3.773   5.371 -0.5307 -0.5222  0.1038
 7787WAT     H131868   2.530   3.701   5.415  0.5567 -1.2219 -0.4366
 7787WAT     H231869   2.520   3.759   5.291 -1.1171  0.0195  0.2411
 7787WAT    EPW31870   2.545   3.760   5.365 -0.4567 -0.5456  0.0443
 7788WAT      O31871   2.365   1.642   6.382 -0.2988 -0.0479  0.3753
 7788WAT     H131872   2.354   1.559   6.356  1.0878 -0.5462  1.2931
 7788WAT     H231873   2.451   1.653   6.378 -0.2895  0.7074  2.1589
 7788WAT    EPW31874   2.376   1.631   6.377 -0.0926 -0.0100  0.7743
 7789WAT      O31875   6.213   3.383   3.750  0.0385 -0.4088  0.1105
 7789WAT     H131876   6.146   3.348   3.706  0.6274 -0.0987 -1.0480
 7789WAT     H231877   6.268   3.316   3.760 -1.0524 -1.0726  2.4170
 7789WAT    EPW31878   6.211   3.368   3.745 -0.0357 -0.4611  0.2801
 7790WAT      O31879   0.206   3.661   4.250  0.4083  0.2669  0.2192
 7790WAT     H131880   0.268   3.721   4.239 -0.5055  1.1255 -0.5033
 7790WAT     H231881   0.174   3.649   4.169 -0.5181  0.0252  0.6059
 7790WAT    EPW31882   0.210   3.668   4.236  0.1364  0.3581  0.1696
 7791WAT      O31883   1.895   2.706   7.463  0.8765  0.3158 -0.0958
 7791WAT     H131884   1.913   2.681   7.381  1.5952 -0.1190  0.1739
 7791WAT     H231885   1.854   2.782   7.454 -2.1297 -1.2505 -1.0157
 7791WAT    EPW31886   1.892   2.713   7.450  0.5386  0.0202 -0.1918
 7792WAT      O31887   1.583   0.019   0.795 -0.5314  0.0058 -0.0752
 7792WAT     H131888   1.552   0.027   0.876 -0.0333 -2.1750  0.3891
 7792WAT     H231889   1.584  -0.067   0.781  2.4944  0.0940 -1.1661
 7792WAT    EPW31890   1.579   0.008   0.805 -0.0109 -0.3033 -0.1677
 7793WAT      O31891   7.325   3.801   4.934  0.0696 -0.1108  0.2373
 7793WAT     H131892   7.406   3.834   4.939 -1.0271  2.8675  0.1477
 7793WAT     H231893   7.290   3.822   5.011 -1.2098  0.3976 -0.4601
 7793WAT    EPW31894   7.332   3.809   4.946 -0.2814  0.4043  0.1210
 7794WAT      O31895   6.368   2.684   0.092  0.3204 -0.1253  0.1117
 7794WAT     H131896   6.359   2.736   0.161  0.3126  0.6969 -0.4971
 7794WAT     H231897   6.363   2.738   0.024  1.5809 -0.7366 -0.5040
 7794WAT    EPW31898   6.366   2.699   0.092  0.5055 -0.0941 -0.0692
 7795WAT      O31899   1.045   4.631   4.885  0.0473  0.3820  0.1898
 7795WAT     H131900   1.046   4.568   4.825 -0.3713  0.1295  0.4405
 7795WAT     H231901   1.060   4.588   4.960 -0.1561  0.5862  0.3502
 7795WAT    EPW31902   1.047   4.615   4.888 -0.0446  0.3748  0.2505
 7796WAT      O31903   4.741   6.473   4.168 -0.2069  0.4677  0.4304
 7796WAT     H131904   4.742   6.462   4.081  2.2192  1.9280  0.1896
 7796WAT     H231905   4.728   6.392   4.198  1.4310 -0.5255 -1.2879
 7796WAT    EPW31906   4.739   6.459   4.159  0.3935  0.5367  0.1410
 7797WAT      O31907   5.079   6.703   6.948 -0.3276 -0.2801  0.3021
 7797WAT     H131908   5.124   6.724   6.876 -0.4899 -1.1573 -0.0800
 7797WAT     H231909   5.079   6.615   6.946 -0.6427 -0.3060  1.1814
 7797WAT    EPW31910   5.085   6.693   6.937 -0.3981 -0.4135  0.3755
 7798WAT      O31911   3.067   2.762   6.013  0.0445 -0.2259  0.2588
 7798WAT     H131912   2.984   2.743   5.994 -0.2425  1.4531 -0.3893
 7798WAT     H231913   3.074   2.741   6.097 -1.3069  0.3704  0.5487
 7798WAT    EPW31914   3.056   2.756   6.023 -0.1975  0.1102  0.2059
 7799WAT      O31915   3.331   4.374   5.318 -0.6554 -0.8296 -0.1269
 7799WAT     H131916   3.414   4.359   5.337 -0.6506 -0.2391  0.3447
 7799WAT     H231917   3.332   4.391   5.233  0.2032  2.3529  0.4113
 7799WAT    EPW31918   3.343   4.374   5.308 -0.5278 -0.2722  0.0223
 7800WAT      O31919   2.403   4.838   5.355 -0.0251  0.0086 -0.0428
 7800WAT     H131920   2.418   4.924   5.346  3.5377 -0.5892 -1.4330
 7800WAT     H231921   2.424   4.822   5.439 -0.0738  0.3833  0.0426
 7800WAT    EPW31922   2.408   4.848   5.366  0.4940 -0.0244 -0.2355
 7801WAT      O31923   0.527   7.584   3.920 -0.3493  0.3078 -0.0460
 7801WAT     H131924   0.483   7.511   3.900 -1.3312  0.7273  0.5360
 7801WAT     H231925   0.562   7.567   3.998  2.5483 -0.8987 -1.4197
 7801WAT    EPW31926   0.526   7.571   3.928 -0.0663  0.1916 -0.1630
 7802WAT      O31927   5.137   7.236   7.806 -0.7957 -0.0062 -0.1648
 7802WAT     H131928   5.102   7.205   7.880 -1.1930 -2.0893 -1.1539
 7802WAT     H231929   5.216   7.265   7.831 -0.5554 -1.5164  0.9280
 7802WAT    EPW31930   5.143   7.236   7.821 -0.8189 -0.5370 -0.1495
 7803WAT      O31931   2.173   3.200   0.522 -0.1635  0.1677 -0.4723
 7803WAT     H131932   2.133   3.215   0.598 -1.2378  2.4260 -1.3813
 7803WAT     H231933   2.152   3.118   0.503 -1.2640  0.1107  0.8615
 7803WAT    EPW31934   2.164   3.190   0.531 -0.4847  0.4929 -0.4095
 7804WAT      O31935   1.645   0.314   6.766 -0.2399  0.1824  0.4817
 7804WAT     H131936   1.633   0.342   6.848  1.0571  0.8918  0.4641
 7804WAT     H231937   1.705   0.250   6.775  1.2917  1.4798 -0.0488
 7804WAT    EPW31938   1.652   0.309   6.779  0.1780  0.4789  0.4008
 7805WAT      O31939   6.749   3.345   5.710  0.1579  0.8448 -0.0243
 7805WAT     H131940   6.774   3.321   5.630 -1.3669  0.7525 -0.5079
 7805WAT     H231941   6.785   3.285   5.762 -0.2455 -0.1017 -0.8170
 7805WAT    EPW31942   6.758   3.332   5.706 -0.1269  0.6914 -0.2129
 7806WAT      O31943   6.338   7.623   1.184  0.5277  0.1104  0.2109
 7806WAT     H131944   6.341   7.648   1.268 -0.7771 -0.5243  0.4593
 7806WAT     H231945   6.397   7.558   1.180  0.8234  0.3550  0.5568
 7806WAT    EPW31946   6.347   7.617   1.196  0.3786  0.0528  0.2987
 7807WAT      O31947   4.223   7.455   2.994 -0.7002  0.7197  0.1142
 7807WAT     H131948   4.213   7.530   3.039 -1.5833  0.1025  0.9959
 7807WAT     H231949   4.191   7.395   3.048 -0.7195 -0.2068 -0.8983
 7807WAT    EPW31950   4.217   7.457   3.009 -0.8335  0.4916  0.0949
 7808WAT      O31951   5.284   1.740   5.275 -0.3038 -0.2810 -0.2747
 7808WAT     H131952   5.276   1.729   5.361  0.5667  0.6560 -0.0557
 7808WAT     H231953   5.310   1.823   5.267  2.5572 -1.1472 -1.2415
 7808WAT    EPW31954   5.286   1.751   5.287  0.2475 -0.2706 -0.3852
 7809WAT      O31955   1.891   7.123   5.014  0.3181 -0.6033 -0.2009
 7809WAT     H131956   1.880   7.206   4.990  2.1774 -0.3085 -0.1983
 7809WAT     H231957   1.922   7.129   5.096  1.3327 -1.2400 -0.5230
 7809WAT    EPW31958   1.894   7.136   5.023  0.7426 -0.6538 -0.2481
 7810WAT      O31959   3.206   4.214   6.741 -0.2622  0.3017 -0.1537
 7810WAT     H131960   3.160   4.245   6.673 -1.0295 -0.8904 -0.2067
 7810WAT     H231961   3.169   4.253   6.810 -1.0060 -0.2305 -0.2423
 7810WAT    EPW31962   3.194   4.225   6.741 -0.4854  0.0470 -0.1746
 7811WAT      O31963   0.697   5.992   6.097  0.0725  0.6371 -0.8430
 7811WAT     H131964   0.653   6.056   6.057 -0.4769  0.2949 -0.7946
 7811WAT     H231965   0.667   5.919   6.060 -0.3653  0.3228  0.0946
 7811WAT    EPW31966   0.686   5.991   6.086 -0.0733  0.5402 -0.6974
 7812WAT      O31967   5.395   0.414   5.733 -0.0430 -0.2824  0.0040
 7812WAT     H131968   5.457   0.352   5.731  0.4627  0.1794 -2.7290
 7812WAT     H231969   5.433   0.481   5.691 -1.2942  1.1733  1.1023
 7812WAT    EPW31970   5.410   0.414   5.726 -0.1531  0.0008 -0.2375
 7813WAT      O31971   1.453   6.170   3.602  0.5379 -0.5489  0.2383
 7813WAT     H131972   1.411   6.236   3.565  0.8354 -1.0373 -1.0388
 7813WAT     H231973   1.458   6.110   3.539  0.2903 -1.7971  1.3426
 7813WAT    EPW31974   1.448   6.171   3.587  0.5452 -0.8054  0.2128
 7814WAT      O31975   1.654   4.500   6.679 -0.0100  0.1322  0.6632
 7814WAT     H131976   1.658   4.529   6.761  0.6129  1.6842  0.1290
 7814WAT     H231977   1.735   4.476   6.661 -0.3258 -1.0528  0.7715
 7814WAT    EPW31978   1.666   4.501   6.689  0.0354  0.1864  0.6003
 7815WAT      O31979   2.250   4.211   7.091 -0.3532 -0.2012  0.3447
 7815WAT     H131980   2.333   4.208   7.063  0.7335 -0.6000  3.2577
 7815WAT     H231981   2.207   4.247   7.024  2.2981  0.8092 -0.9563
 7815WAT    EPW31982   2.256   4.216   7.077  0.1990 -0.1108  0.5829
 7816WAT      O31983   2.236   3.074   5.063 -0.4320  0.4552  0.4879
 7816WAT     H131984   2.213   3.158   5.056 -1.1778  0.2216 -0.0075
 7816WAT     H231985   2.167   3.037   5.102  0.1580  0.1823  1.2928
 7816WAT    EPW31986   2.222   3.081   5.067 -0.4550  0.3804  0.5336
 7817WAT      O31987   1.628   1.884   1.205  0.0168 -0.5376 -0.2116
 7817WAT     H131988   1.662   1.806   1.223  0.2378 -0.9927 -2.3664
 7817WAT     H231989   1.691   1.940   1.227  0.1947 -1.0192  0.5234
 7817WAT    EPW31990   1.642   1.881   1.211  0.0757 -0.6760 -0.4213
 7818WAT      O31991   2.601   2.369   6.485  0.1641 -0.0948  0.2762
 7818WAT     H131992   2.577   2.430   6.543 -1.7286 -1.4794  1.0594
 7818WAT     H231993   2.657   2.319   6.530  0.0157 -0.1868  0.3596
 7818WAT    EPW31994   2.605   2.371   6.500 -0.1374 -0.3129  0.4042
 7819WAT      O31995   2.556   1.741   5.873  0.1336  0.0393 -0.3329
 7819WAT     H131996   2.518   1.816   5.853  0.7897  0.4269 -0.1712
 7819WAT     H231997   2.625   1.765   5.921  0.8334 -0.5956 -0.9839
 7819WAT    EPW31998   2.561   1.756   5.877  0.3339  0.0028 -0.4052
 7820WAT      O31999   0.763   4.707   6.919 -0.0619  0.1490  0.9229
 7820WAT     H132000   0.723   4.645   6.966  1.3208 -0.2880  1.5871
 7820WAT     H232001   0.831   4.730   6.969  0.9611  0.3091 -0.4644
 7820WAT    EPW32002   0.768   4.701   6.933  0.2935  0.1081  0.8161
 7821WAT      O32003   3.199   7.534   3.344  0.0178 -0.4887 -0.1592
 7821WAT     H132004   3.119   7.568   3.350  0.3148  0.4500 -1.2487
 7821WAT     H232005   3.229   7.539   3.425 -0.9268 -0.6277  0.2201
 7821WAT    EPW32006   3.191   7.540   3.357 -0.0778 -0.3706 -0.2641
 7822WAT      O32007   2.226   3.483   3.054 -0.0438  0.1460  0.2873
 7822WAT     H132008   2.306   3.517   3.064 -0.1403  0.3923  0.2264
 7822WAT     H232009   2.188   3.498   3.131  0.3523 -1.0006  0.7125
 7822WAT    EPW32010   2.232   3.490   3.067  0.0005  0.0130  0.3411
 7823WAT      O32011   7.715   5.068   4.013  0.0547 -0.4674 -0.1148
 7823WAT     H132012   7.746   5.149   4.027  0.7052 -1.0848  2.5225
 7823WAT     H232013   7.633   5.082   3.987 -0.0158  1.0397  0.7864
 7823WAT    EPW32014   7.707   5.082   4.011  0.1404 -0.3359  0.4079
 7824WAT      O32015   2.242   4.592   0.083  0.4056 -0.0692 -0.3325
 7824WAT     H132016   2.220   4.645   0.148 -0.0391  0.0136 -0.5490
 7824WAT     H232017   2.242   4.645   0.013  0.5792 -0.2231 -0.4516
 7824WAT    EPW32018   2.239   4.608   0.082  0.3655 -0.0797 -0.3821
 7825WAT      O32019   2.487   5.502   2.659  0.3783 -0.3421 -0.5497
 7825WAT     H132020   2.503   5.559   2.723 -1.4895  0.1540 -0.4785
 7825WAT     H232021   2.423   5.540   2.613  0.4222 -1.5231 -1.6318
 7825WAT    EPW32022   2.480   5.516   2.662  0.1088 -0.4433 -0.6990
 7826WAT      O32023   1.479   2.957   5.409  0.2687 -0.5317  0.0388
 7826WAT     H132024   1.491   2.976   5.493  0.5041  1.5859 -0.4286
 7826WAT     H232025   1.452   2.874   5.411  0.6313 -0.6623  2.1603
 7826WAT    EPW32026   1.477   2.947   5.422  0.3570 -0.2382  0.2831
 7827WAT      O32027   6.258   5.182   4.808 -0.0906 -0.0544 -0.0324
 7827WAT     H132028   6.241   5.200   4.892 -0.9582 -0.8561 -0.0199
 7827WAT     H232029   6.218   5.247   4.765  0.9370  0.7524  0.1688
 7827WAT    EPW32030   6.250   5.194   4.814 -0.0670 -0.0537 -0.0008
 7828WAT      O32031   2.962   1.733   4.725  0.5216 -0.5143  0.9297
 7828WAT     H132032   2.891   1.783   4.718  0.9977  0.0117 -0.5332
 7828WAT     H232033   2.979   1.733   4.810 -0.3552  0.6079  1.1284
 7828WAT    EPW32034   2.954   1.740   4.736  0.4624 -0.2709  0.7429
 7829WAT      O32035   1.758   2.215   5.868 -0.1462  0.6789  0.2502
 7829WAT     H132036   1.704   2.256   5.814 -0.5785  1.4823  1.2546
 7829WAT     H232037   1.837   2.233   5.837 -0.4000  0.7492 -0.3614
 7829WAT    EPW32038   1.762   2.224   5.856 -0.2475  0.8080  0.3083
 7830WAT      O32039   7.271   4.341   4.820 -0.1811 -0.6396 -0.1419
 7830WAT     H132040   7.346   4.327   4.861 -0.2633 -0.5598  0.0371
 7830WAT     H232041   7.230   4.399   4.870 -0.3021 -0.5739 -0.3130
 7830WAT    EPW32042   7.276   4.348   4.833 -0.2111 -0.6181 -0.1407
 7831WAT      O32043   2.115   5.178   4.393 -0.0418  0.0193  0.2760
 7831WAT     H132044   2.101   5.227   4.463  2.1632  1.1204  0.0225
 7831WAT     H232045   2.168   5.115   4.422 -0.8438 -0.7989  0.0310
 7831WAT    EPW32046   2.121   5.176   4.407  0.1654  0.0611  0.2024
 7832WAT      O32047   2.412   2.843   3.138 -0.2637  0.3071  0.6174
 7832WAT     H132048   2.499   2.841   3.135 -0.2025  1.2579  1.4216
 7832WAT     H232049   2.392   2.920   3.101 -0.9188 -0.9224 -1.8083
 7832WAT    EPW32050   2.422   2.854   3.132 -0.3514  0.2659  0.3779
 7833WAT      O32051   5.725   1.683   5.413  0.1550  0.3298  0.1376
 7833WAT     H132052   5.760   1.603   5.416 -1.1786 -0.2886  0.0539
 7833WAT     H232053   5.720   1.706   5.497 -0.3263 -0.0941  0.2339
 7833WAT    EPW32054   5.729   1.675   5.426 -0.1131  0.1758  0.1395
 7834WAT      O32055   3.626   2.805   5.736 -0.4470 -0.3027  0.4105
 7834WAT     H132056   3.699   2.847   5.715 -0.5804 -0.4712 -0.4158
 7834WAT     H232057   3.613   2.826   5.819  0.9679 -0.8899  0.8112
 7834WAT    EPW32058   3.635   2.814   5.745 -0.2577 -0.4144  0.3476
 7835WAT      O32059   6.022   5.219   6.929 -0.0959 -0.4466 -0.0058
 7835WAT     H132060   6.024   5.286   6.984 -0.3971 -0.3828 -0.0730
 7835WAT     H232061   6.065   5.156   6.972 -0.4341 -0.4363  0.3519
 7835WAT    EPW32062   6.029   5.219   6.943 -0.1903 -0.4356  0.0371
 7836WAT      O32063   4.039   2.704   1.187  0.0603 -0.1498  0.3950
 7836WAT     H132064   4.101   2.716   1.127 -0.4659  0.7198  0.0098
 7836WAT     H232065   3.964   2.711   1.142 -0.3420 -1.9526  0.7044
 7836WAT    EPW32066   4.037   2.707   1.171 -0.0768 -0.2876  0.3838
 7837WAT      O32067   2.901   5.698   4.747  0.3208 -0.0072  0.3830
 7837WAT     H132068   2.969   5.644   4.755 -0.3410 -0.9150  0.0391
 7837WAT     H232069   2.870   5.681   4.667 -0.6655 -0.0263  0.7540
 7837WAT    EPW32070   2.906   5.688   4.736  0.0773 -0.1441  0.3870
 7838WAT      O32071   3.515   5.011   7.526  0.1383  0.3703 -0.2744
 7838WAT     H132072   3.573   4.958   7.563  0.3883 -0.7990 -2.1773
 7838WAT     H232073   3.565   5.073   7.490 -0.0161  0.8745  0.3640
 7838WAT    EPW32074   3.531   5.013   7.526  0.1524  0.2720 -0.4612
 7839WAT      O32075   6.285   6.202   4.994  0.2643  0.2828  0.0649
 7839WAT     H132076   6.342   6.235   4.936 -0.2208 -0.2923 -0.7706
 7839WAT     H232077   6.220   6.174   4.944  0.1201 -0.8310  0.8392
 7839WAT    EPW32078   6.284   6.203   4.978  0.1714  0.0333  0.0559
 7840WAT      O32079   2.380   1.382   6.264  0.1746 -0.2340  0.1606
 7840WAT     H132080   2.401   1.311   6.310 -0.9758 -1.1867 -0.6956
 7840WAT     H232081   2.407   1.363   6.183 -0.8822 -0.0651 -0.2509
 7840WAT    EPW32082   2.387   1.369   6.259 -0.1514 -0.3498 -0.0267
 7841WAT      O32083   4.857   1.513   1.613 -0.6297 -0.0900 -0.1309
 7841WAT     H132084   4.908   1.537   1.546  0.9362 -1.0800  0.6287
 7841WAT     H232085   4.822   1.438   1.585  0.1826 -0.6083  0.2065
 7841WAT    EPW32086   4.859   1.505   1.599 -0.2783 -0.3128  0.0311
 7842WAT      O32087   1.882   4.490   5.886  0.3205 -0.5133  0.4255
 7842WAT     H132088   1.891   4.543   5.955  0.3380 -0.0767  0.0901
 7842WAT     H232089   1.848   4.417   5.921  0.2322 -0.2584  0.8807
 7842WAT    EPW32090   1.878   4.487   5.902  0.3100 -0.4112  0.4432
 7843WAT      O32091   4.548   1.536   6.431  0.0895 -0.0411 -0.0008
 7843WAT     H132092   4.629   1.546   6.463  0.5800  0.8706 -1.4569
 7843WAT     H232093   4.536   1.608   6.384 -1.2468 -0.5856 -0.5180
 7843WAT    EPW32094   4.558   1.548   6.429 -0.0354  0.0132 -0.2923
 7844WAT      O32095   1.788   1.564   7.210  0.0291 -0.4938 -0.1328
 7844WAT     H132096   1.703   1.546   7.218  0.1372 -1.3824 -0.8394
 7844WAT     H232097   1.800   1.568   7.124  0.8241 -0.9864 -0.0536
 7844WAT    EPW32098   1.777   1.562   7.199  0.1625 -0.6979 -0.2255
 7845WAT      O32099   2.054   2.327   4.810  0.1498  0.1864 -0.3388
 7845WAT     H132100   2.037   2.405   4.845  0.1149  0.3461 -0.7061
 7845WAT     H232101   2.141   2.318   4.820  0.8171  1.8036 -3.2948
 7845WAT    EPW32102   2.065   2.337   4.817  0.2433  0.4489 -0.8297
 7846WAT      O32103   6.721   7.057   5.956  0.2577 -0.5487  0.0156
 7846WAT     H132104   6.736   7.121   6.014 -0.7565 -0.5253  0.2706
 7846WAT     H232105   6.800   7.039   5.925  0.4554  1.9497 -1.2452
 7846WAT    EPW32106   6.735   7.064   5.960  0.1371 -0.1762 -0.1329
 7847WAT      O32107   2.603   3.362   7.582  0.3305 -0.3560  0.0883
 7847WAT     H132108   2.516   3.364   7.592  0.4330  0.2350  0.9327
 7847WAT     H232109   2.626   3.446   7.584  0.7144 -0.3581 -2.2596
 7847WAT    EPW32110   2.593   3.374   7.584  0.4024 -0.2690 -0.1338
 7848WAT      O32111   0.479   6.931   4.772 -0.0029 -0.3493 -0.2273
 7848WAT     H132112   0.497   7.009   4.806 -0.5545 -0.3968  0.1975
 7848WAT     H232113   0.502   6.939   4.689 -2.5987  1.1944 -0.9064
 7848WAT    EPW32114   0.485   6.944   4.765 -0.4678 -0.1283 -0.2649
 7849WAT      O32115   0.791   7.469   4.561  0.0720  0.1415  0.0087
 7849WAT     H132116   0.721   7.464   4.508  0.0972 -2.3589  0.1120
 7849WAT     H232117   0.785   7.549   4.595 -1.4657  0.8242 -1.6947
 7849WAT    EPW32118   0.780   7.480   4.558 -0.1514 -0.1270 -0.2277
 7850WAT      O32119   3.708   4.853   7.632 -0.1358  1.2038 -0.4800
 7850WAT     H132120   3.691   4.778   7.590 -0.8358  1.6017 -0.9264
 7850WAT     H232121   3.765   4.830   7.693 -0.0606  0.3712 -0.8517
 7850WAT    EPW32122   3.714   4.839   7.635 -0.2281  1.1396 -0.6008
 7851WAT      O32123   1.538   6.675   6.917 -0.0435  0.5115  0.4353
 7851WAT     H132124   1.530   6.657   6.832 -0.2785  0.0967  0.5417
 7851WAT     H232125   1.457   6.661   6.948 -0.0533  1.0371  0.6566
 7851WAT    EPW32126   1.525   6.670   6.909 -0.0797  0.5279  0.4837
 7852WAT      O32127   0.118   5.321   4.122 -0.1133 -0.1870  0.3572
 7852WAT     H132128   0.152   5.290   4.197 -0.3769 -0.8764  0.2014
 7852WAT     H232129   0.045   5.361   4.147  0.5296  0.8427  0.6328
 7852WAT    EPW32130   0.112   5.322   4.137 -0.0573 -0.1367  0.3749
 7853WAT      O32131   3.576   2.210   6.598  0.4593  0.1546  0.5249
 7853WAT     H132132   3.521   2.274   6.574  0.4631  0.1121  0.4035
 7853WAT     H232133   3.600   2.234   6.678  0.1252  0.0808  0.6511
 7853WAT    EPW32134   3.571   2.223   6.606  0.4105  0.1374  0.5256
 7854WAT      O32135   1.548   5.578   5.429  0.3837 -0.4762  0.2894
 7854WAT     H132136   1.625   5.538   5.439  1.2674  1.1808  0.3372
 7854WAT     H232137   1.524   5.596   5.511  1.2413  1.3074  0.2011
 7854WAT    EPW32138   1.556   5.575   5.443  0.6409  0.0321  0.2834
 7855WAT      O32139   0.578   4.196   5.578  0.6298  0.2839 -0.6918
 7855WAT     H132140   0.590   4.271   5.621  1.8937 -0.8795  1.1384
 7855WAT     H232141   0.498   4.171   5.601  0.7158  0.4401 -0.2092
 7855WAT    EPW32142   0.568   4.203   5.588  0.8292  0.1351 -0.3501
 7856WAT      O32143   4.035   6.271   6.339  0.1192 -0.4318  0.0072
 7856WAT     H132144   4.040   6.358   6.347  2.9111 -0.5100  0.2108
 7856WAT     H232145   3.981   6.260   6.271 -0.4679  1.4301  0.1037
 7856WAT    EPW32146   4.028   6.282   6.330  0.4449 -0.1683  0.0515
 7857WAT      O32147   7.656   3.167   5.542 -0.5804  0.4259 -0.5187
 7857WAT     H132148   7.708   3.129   5.600  0.4404 -0.8130 -2.1741
 7857WAT     H232149   7.616   3.101   5.502  1.4277  0.8953 -3.6486
 7857WAT    EPW32150   7.658   3.152   5.545 -0.1330  0.3122 -1.2256
 7858WAT      O32151   3.681   1.232   7.788  0.3742  0.0402  0.8961
 7858WAT     H132152   3.712   1.151   7.782  1.2745  0.4378 -0.3920
 7858WAT     H232153   3.684   1.249   7.873  2.2163 -0.5392  1.0050
 7858WAT    EPW32154   3.686   1.223   7.799  0.7793  0.0133  0.7219
 7859WAT      O32155   4.047   5.202   7.388  0.3598 -0.0984  0.1465
 7859WAT     H132156   3.969   5.168   7.369  0.4386 -1.0802  1.4439
 7859WAT     H232157   4.104   5.145   7.353  0.5131  0.4077 -0.4537
 7859WAT    EPW32158   4.044   5.188   7.380  0.3941 -0.1687  0.2495
 7860WAT      O32159   3.156   4.218   2.533  0.2118  0.2340  0.3105
 7860WAT     H132160   3.200   4.176   2.596  0.4635 -0.4496 -0.2897
 7860WAT     H232161   3.095   4.160   2.509  0.7838  0.0360 -0.7727
 7860WAT    EPW32162   3.154   4.203   2.539  0.3334  0.1037  0.0618
 7861WAT      O32163   1.426   5.217   3.551 -0.5329 -0.0801  0.3793
 7861WAT     H132164   1.450   5.277   3.491  0.3397 -0.4619  0.3411
 7861WAT     H232165   1.341   5.233   3.561 -0.7784 -0.1988 -1.1961
 7861WAT    EPW32166   1.417   5.229   3.544 -0.4402 -0.1540  0.1409
 7862WAT      O32167   2.427   6.322   3.536 -0.0782 -0.0531  0.1115
 7862WAT     H132168   2.460   6.255   3.490  1.0153  0.2746  0.3884
 7862WAT     H232169   2.417   6.385   3.476  3.9167  1.3321  0.5871
 7862WAT    EPW32170   2.431   6.321   3.520  0.6735  0.1999  0.2226
 7863WAT      O32171   1.709   2.649   3.579  0.0678  0.2994  0.0766
 7863WAT     H132172   1.721   2.713   3.521 -2.8955  1.2464  0.3601
 7863WAT     H232173   1.702   2.691   3.655 -0.1971 -0.5226  0.5157
 7863WAT    EPW32174   1.710   2.664   3.582 -0.4091  0.3178  0.1833
 7864WAT      O32175   2.181   4.112   4.105 -0.1714  0.2533 -0.1777
 7864WAT     H132176   2.244   4.082   4.053  1.5270  1.3388  1.1452
 7864WAT     H232177   2.225   4.151   4.171 -2.1659 -1.0680  2.1050
 7864WAT    EPW32178   2.197   4.113   4.107 -0.2152  0.2185  0.3549
 7865WAT      O32179   4.341   1.866   4.152  0.0438  0.9400  0.0022
 7865WAT     H132180   4.346   1.862   4.065  2.9743  0.9330  0.0550
 7865WAT     H232181   4.319   1.785   4.175  0.8138  0.5170 -0.6929
 7865WAT    EPW32182   4.339   1.854   4.142  0.5904  0.8765 -0.0927
 7866WAT      O32183   2.458   7.522   0.609 -0.1722 -0.0477  0.0778
 7866WAT     H132184   2.527   7.469   0.598  0.3163  0.3568  1.0467
 7866WAT     H232185   2.475   7.561   0.685 -0.3356  1.7929 -0.7812
 7866WAT    EPW32186   2.471   7.520   0.618 -0.1242  0.2840  0.0940
 7867WAT      O32187   3.697   1.209   1.151  0.4572  0.1086 -0.8236
 7867WAT     H132188   3.768   1.161   1.164 -0.2075 -0.5202  0.8140
 7867WAT     H232189   3.648   1.194   1.222 -0.6962  1.6006 -1.2233
 7867WAT    EPW32190   3.700   1.200   1.163  0.1886  0.2361 -0.6407
 7868WAT      O32191   0.622   2.259   4.605 -0.5997  0.3950  0.9183
 7868WAT     H132192   0.554   2.304   4.577 -0.0469 -0.6937 -2.6229
 7868WAT     H232193   0.691   2.302   4.572  0.2486 -0.2304  1.8010
 7868WAT    EPW32194   0.622   2.272   4.596 -0.3927  0.1418  0.5256
 7869WAT      O32195   3.278   0.503   4.075 -0.0461  0.4893  0.0861
 7869WAT     H132196   3.359   0.483   4.100 -0.4998 -0.9149  0.5539
 7869WAT     H232197   3.284   0.510   3.988  0.5029 -0.0761  0.0696
 7869WAT    EPW32198   3.291   0.501   4.066 -0.0320  0.1984  0.1528
 7870WAT      O32199   1.660   4.481   3.855 -0.5372  0.0080  0.0844
 7870WAT     H132200   1.640   4.516   3.932 -2.6943 -0.0321 -0.3870
 7870WAT     H232201   1.665   4.550   3.801  1.8188  0.1218  0.3592
 7870WAT    EPW32202   1.658   4.496   3.858 -0.5078  0.0189  0.0554
 7871WAT      O32203   5.058   3.736   3.536  0.2935 -0.0866 -0.1152
 7871WAT     H132204   5.007   3.801   3.508  0.9613  1.3226  1.7455
 7871WAT     H232205   5.009   3.696   3.596  0.1881 -0.8156 -0.6754
 7871WAT    EPW32206   5.043   3.740   3.541  0.3765  0.0139  0.0769
 7872WAT      O32207   3.373   1.475   1.839 -0.1107  0.2199 -0.8320
 7872WAT     H132208   3.385   1.401   1.795  0.6549 -0.7756  0.9786
 7872WAT     H232209   3.446   1.521   1.822  0.4814 -0.4345 -0.0865
 7872WAT    EPW32210   3.386   1.471   1.830  0.0898 -0.0238 -0.4544
 7873WAT      O32211   2.054   0.870   1.522 -0.1863 -0.8699  0.3224
 7873WAT     H132212   2.074   0.792   1.489  0.9120 -0.7295  0.6310
 7873WAT     H232213   2.112   0.923   1.486  1.0318 -0.7068  2.3987
 7873WAT    EPW32214   2.065   0.866   1.512  0.1559 -0.8251  0.6747
 7874WAT      O32215   0.533   3.703   4.447  0.0114 -0.3442  0.2311
 7874WAT     H132216   0.460   3.750   4.435  1.2148  1.2786 -1.2460
 7874WAT     H232217   0.584   3.755   4.494  0.7780 -0.8167 -0.0570
 7874WAT    EPW32218   0.530   3.718   4.452  0.3024 -0.1743 -0.0297
 7875WAT      O32219   5.646   0.440   4.065 -0.1294  0.0266 -0.3180
 7875WAT     H132220   5.684   0.363   4.048 -0.7200 -0.3332 -0.0632
 7875WAT     H232221   5.696   0.474   4.127  0.0061 -0.2644 -0.2643
 7875WAT    EPW32222   5.659   0.434   4.072 -0.1966 -0.0695 -0.2725
 7876WAT      O32223   5.972   3.219   6.639  0.4579  0.8565  0.0491
 7876WAT     H132224   5.965   3.164   6.572 -1.0597 -0.3699  1.1476
 7876WAT     H232225   6.055   3.245   6.636  0.5334  0.5181 -2.0324
 7876WAT    EPW32226   5.983   3.215   6.629  0.2449  0.6254 -0.0961
 7877WAT      O32227   7.490   4.713   7.373  0.0999  0.2503 -0.0796
 7877WAT     H132228   7.454   4.745   7.301  0.8357  0.9057 -0.1666
 7877WAT     H232229   7.505   4.783   7.422 -0.7313 -0.2154  0.8804
 7877WAT    EPW32230   7.487   4.728   7.370  0.0858  0.2783  0.0494
 7878WAT      O32231   0.237   5.884   5.021 -0.0412 -0.0250  0.1246
 7878WAT     H132232   0.314   5.859   5.053 -0.2056 -1.1196 -0.2939
 7878WAT     H232233   0.225   5.964   5.055  0.4754 -0.5322  1.5763
 7878WAT    EPW32234   0.246   5.893   5.031  0.0108 -0.2616  0.2772
 7879WAT      O32235   5.230   6.516   1.016  0.4785 -0.6173 -0.2236
 7879WAT     H132236   5.175   6.455   1.045  0.4269  0.0413  1.1126
 7879WAT     H232237   5.220   6.511   0.929  0.1751 -2.2065 -0.1385
 7879WAT    EPW32238   5.220   6.506   1.007  0.4261 -0.7548 -0.0137
 7880WAT      O32239   6.338   1.107   4.027  0.0291 -0.2181  0.1808
 7880WAT     H132240   6.307   1.067   4.098  1.4841  0.9069  1.5216
 7880WAT     H232241   6.402   1.053   4.000 -1.8531 -1.7302 -1.6441
 7880WAT    EPW32242   6.343   1.093   4.033 -0.0340 -0.2753  0.1093
 7881WAT      O32243   6.619   1.376   5.023 -0.4041 -0.2451  0.1785
 7881WAT     H132244   6.541   1.366   5.061 -0.3210  1.7944  0.9644
 7881WAT     H232245   6.675   1.348   5.083 -0.4636 -0.7653 -0.0019
 7881WAT    EPW32246   6.616   1.370   5.037 -0.4006 -0.0207  0.2680
 7882WAT      O32247   1.080   0.422   4.473 -1.0560  0.1615  0.7278
 7882WAT     H132248   1.047   0.470   4.538 -2.0897  1.1961 -0.5038
 7882WAT     H232249   1.091   0.480   4.408 -1.8447 -1.1497 -0.6453
 7882WAT    EPW32250   1.077   0.438   4.473 -1.3252  0.1206  0.3431
 7883WAT      O32251   3.725   3.588   6.941 -0.1234  0.0008  0.6743
 7883WAT     H132252   3.721   3.584   7.028 -0.7417 -0.1342  0.6458
 7883WAT     H232253   3.778   3.522   6.920 -0.9310 -0.7320  0.8819
 7883WAT    EPW32254   3.732   3.578   6.951 -0.3340 -0.1274  0.7008
 7884WAT      O32255   2.960   3.268   0.383 -0.3575  0.5765  0.5220
 7884WAT     H132256   2.897   3.324   0.361 -0.7337 -0.0475 -0.0216
 7884WAT     H232257   2.975   3.224   0.309  1.0391  1.0286  0.5127
 7884WAT    EPW32258   2.953   3.270   0.369 -0.2068  0.5511  0.4403
 7885WAT      O32259   1.575   2.071   3.309 -0.1271 -0.0504 -0.4696
 7885WAT     H132260   1.572   2.120   3.382 -0.6415 -1.0755  0.2256
 7885WAT     H232261   1.491   2.061   3.288  0.0325  0.5600 -1.4466
 7885WAT    EPW32262   1.562   2.077   3.317 -0.1795 -0.1116 -0.5112
 7886WAT      O32263   3.314   7.609   7.486  0.1126  0.6965  0.2478
 7886WAT     H132264   3.299   7.691   7.463 -0.9681  0.5944  0.5502
 7886WAT     H232265   3.336   7.614   7.570 -1.8961  0.5236  0.8296
 7886WAT    EPW32266   3.315   7.622   7.495 -0.3438  0.6559  0.3784
 7887WAT      O32267   2.241   4.740   3.889 -0.5275 -0.6859 -0.0227
 7887WAT     H132268   2.172   4.708   3.845 -0.9958 -0.1064  0.2686
 7887WAT     H232269   2.289   4.669   3.905 -1.2036 -1.1552  0.0146
 7887WAT    EPW32270   2.238   4.725   3.885 -0.6966 -0.6696  0.0258
 7888WAT      O32271   0.892   2.049   4.187 -0.3324  0.1910  0.3549
 7888WAT     H132272   0.816   2.030   4.226 -0.0933  0.6440  1.0544
 7888WAT     H232273   0.911   1.976   4.144 -0.7275 -0.2377  0.8927
 7888WAT    EPW32274   0.883   2.035   4.186 -0.3554  0.1946  0.5377
 7889WAT      O32275   7.004   6.125   6.499 -0.2873  0.2125  0.2869
 7889WAT     H132276   7.043   6.182   6.553 -0.6910  0.1540  0.6456
 7889WAT     H232277   7.030   6.047   6.529  0.8518  0.2050 -0.6465
 7889WAT    EPW32278   7.014   6.122   6.512 -0.1787  0.2027  0.2020
 7890WAT      O32279   0.702   3.341   4.488 -0.3728 -0.6110 -0.5429
 7890WAT     H132280   0.622   3.369   4.507 -1.1056 -1.7501 -1.8036
 7890WAT     H232281   0.752   3.412   4.502 -2.1576  1.5377 -3.8521
 7890WAT    EPW32282   0.698   3.355   4.493 -0.7447 -0.4619 -1.2179
 7891WAT      O32283   3.225   2.384   4.865  0.3363 -0.3889 -0.0969
 7891WAT     H132284   3.306   2.401   4.837 -0.2488 -0.2286 -1.7745
 7891WAT     H232285   3.176   2.395   4.794 -1.3974  1.0767  1.2472
 7891WAT    EPW32286   3.230   2.388   4.851 -0.0062 -0.1487 -0.1462
 7892WAT      O32287   2.689   2.936   5.558 -0.2703 -0.0208  0.5181
 7892WAT     H132288   2.677   2.875   5.497  0.8748 -0.2010  0.4490
 7892WAT     H232289   2.717   3.005   5.513  0.7008 -0.1929  0.8316
 7892WAT    EPW32290   2.691   2.937   5.543  0.0423 -0.0728  0.5542
 7893WAT      O32291   4.721   6.614   3.209  0.1063 -0.7356  0.0752
 7893WAT     H132292   4.778   6.592   3.147 -0.0421  0.0779 -0.3610
 7893WAT     H232293   4.718   6.543   3.261  2.8739 -0.1609  1.1608
 7893WAT    EPW32294   4.729   6.600   3.208  0.4932 -0.5306  0.1712
 7894WAT      O32295   3.510   4.462   3.659 -0.1265 -0.4684  0.2492
 7894WAT     H132296   3.502   4.526   3.600  0.4351 -0.5409  0.0797
 7894WAT     H232297   3.453   4.483   3.721 -0.3831 -0.1326 -0.0957
 7894WAT    EPW32298   3.501   4.475   3.659 -0.0814 -0.4295  0.1732
 7895WAT      O32299   5.194   4.760   2.855 -0.4238  0.2935  0.6362
 7895WAT     H132300   5.201   4.808   2.782 -2.5682 -0.5418 -0.2104
 7895WAT     H232301   5.185   4.820   2.918 -0.7020  1.0234 -0.0826
 7895WAT    EPW32302   5.194   4.776   2.853 -0.7816  0.2780  0.4050
 7896WAT      O32303   3.873   2.318   1.447 -0.2619  0.9845 -1.0982
 7896WAT     H132304   3.865   2.396   1.410 -0.9173  2.0906  1.1697
 7896WAT     H232305   3.939   2.329   1.503 -0.3401 -0.0840 -0.7735
 7896WAT    EPW32306   3.881   2.331   1.450 -0.3702  0.9900 -0.7152
 7897WAT      O32307   0.082   6.311   6.743 -0.2725 -0.0018 -0.4321
 7897WAT     H132308   0.043   6.309   6.821  0.7793  0.2298  0.1203
 7897WAT     H232309   0.166   6.326   6.762 -0.3454  2.8086 -1.7129
 7897WAT    EPW32310   0.088   6.313   6.757 -0.1279  0.4475 -0.5397
 7898WAT      O32311   6.424   4.437   0.322 -0.6433  0.5154 -0.2996
 7898WAT     H132312   6.362   4.394   0.277 -2.0785 -0.6582  2.5636
 7898WAT     H232313   6.379   4.501   0.361 -0.4036 -0.9976  2.6897
 7898WAT    EPW32314   6.408   4.440   0.321 -0.8199  0.1186  0.5649
 7899WAT      O32315   2.054   7.585   2.777  0.4944 -0.3718 -0.2330
 7899WAT     H132316   2.132   7.624   2.775  0.0818  0.4579 -0.5119
 7899WAT     H232317   2.028   7.594   2.860  1.5753 -2.4878  0.4148
 7899WAT    EPW32318   2.062   7.592   2.789  0.5931 -0.5618 -0.1785
 7900WAT      O32319   5.911   1.460   3.310  0.8568 -0.0358 -0.3019
 7900WAT     H132320   5.935   1.410   3.378  1.3968 -0.7931 -1.0254
 7900WAT     H232321   5.900   1.402   3.246  1.3430  0.7697 -1.1244
 7900WAT    EPW32322   5.913   1.444   3.311  1.0084 -0.0287 -0.5303
 7901WAT      O32323   3.970   6.181   4.078  0.2417  0.3311 -0.1341
 7901WAT     H132324   4.053   6.168   4.056 -0.1106 -1.2758 -0.6587
 7901WAT     H232325   3.952   6.115   4.133 -1.0192 -0.1024 -1.0206
 7901WAT    EPW32326   3.979   6.170   4.083  0.0034  0.0297 -0.3426
 7902WAT      O32327   2.810   6.594   1.502  0.3666  0.0447  0.2527
 7902WAT     H132328   2.750   6.533   1.484 -0.7681  1.2513 -0.2469
 7902WAT     H232329   2.849   6.564   1.574 -0.0050 -1.3481 -0.0822
 7902WAT    EPW32330   2.807   6.580   1.510  0.1441  0.0172  0.1294
 7903WAT      O32331   3.038   4.189   4.066  0.1664  0.8482 -0.3744
 7903WAT     H132332   3.031   4.209   4.151  1.6413  0.5606 -0.1488
 7903WAT     H232333   2.995   4.114   4.059 -2.0223  2.0056 -0.4171
 7903WAT    EPW32334   3.031   4.181   4.078  0.0609  0.9767 -0.3474
 7904WAT      O32335   3.419   5.576   6.534  0.2223 -0.5381 -0.0200
 7904WAT     H132336   3.397   5.493   6.518 -0.1059 -0.7014  1.1214
 7904WAT     H232337   3.458   5.571   6.612 -1.2087  0.5648  0.8172
 7904WAT    EPW32338   3.422   5.563   6.543 -0.0376 -0.3993  0.2723
 7905WAT      O32339   2.954   5.378   1.700 -0.0899  0.1703 -0.4398
 7905WAT     H132340   3.013   5.316   1.713  0.0645  0.4776  0.4221
 7905WAT     H232341   2.884   5.335   1.671 -0.3888 -0.5884  1.2873
 7905WAT    EPW32342   2.952   5.363   1.698 -0.1112  0.1036 -0.0573
 7906WAT      O32343   2.997   3.195   1.166 -0.4365 -0.0356  0.1942
 7906WAT     H132344   3.050   3.135   1.130  0.5094  0.8617  0.0412
 7906WAT     H232345   2.978   3.161   1.243 -0.0360 -0.6154  0.0461
 7906WAT    EPW32346   3.002   3.181   1.172 -0.2376  0.0113  0.1497
 7907WAT      O32347   1.893   4.171   5.068 -0.5338  0.4833 -0.3161
 7907WAT     H132348   1.966   4.179   5.020 -1.6791  0.6203 -2.1159
 7907WAT     H232349   1.922   4.179   5.150  2.1038 -3.2687 -0.5924
 7907WAT    EPW32350   1.908   4.173   5.073 -0.3134 -0.0507 -0.6228
 7908WAT      O32351   2.888   2.169   4.644 -0.1021 -0.5644  0.0833
 7908WAT     H132352   2.907   2.251   4.624 -1.5220 -0.0106  0.8549
 7908WAT     H232353   2.966   2.134   4.665  0.2985  1.1968  1.8574
 7908WAT    EPW32354   2.902   2.176   4.644 -0.2527 -0.2224  0.4593
 7909WAT      O32355   0.486   5.152   3.951 -0.0572 -0.1382 -0.0492
 7909WAT     H132356   0.502   5.229   3.988  0.7199 -0.5909  0.5839
 7909WAT     H232357   0.467   5.172   3.869  0.0033  0.7369  0.1459
 7909WAT    EPW32358   0.485   5.166   3.944  0.0665 -0.0758  0.0732
 7910WAT      O32359   1.843   0.185   2.559  0.0091  0.3040 -0.3270
 7910WAT     H132360   1.813   0.185   2.477 -0.4357 -0.5115 -0.1688
 7910WAT     H232361   1.929   0.174   2.550  0.3051  2.5471 -0.7804
 7910WAT    EPW32362   1.852   0.184   2.546 -0.0129  0.5149 -0.3706
 7911WAT      O32363   3.584   4.155   3.587  0.0656 -0.3748  0.2719
 7911WAT     H132364   3.539   4.208   3.640  0.0734  0.9315 -0.9456
 7911WAT     H232365   3.578   4.195   3.509  1.0899 -1.5664 -0.4524
 7911WAT    EPW32366   3.576   4.169   3.583  0.2181 -0.3579 -0.0149
 7912WAT      O32367   3.285   2.017   1.098  0.6298 -0.1114 -0.2135
 7912WAT     H132368   3.269   2.098   1.071 -0.9316 -0.1901  0.3628
 7912WAT     H232369   3.212   1.974   1.076 -0.0476 -0.5556  2.5534
 7912WAT    EPW32370   3.272   2.022   1.091  0.2991 -0.1886  0.2804
 7913WAT      O32371   2.629   5.418   2.431 -0.0166  0.6051 -0.1878
 7913WAT     H132372   2.585   5.436   2.505  0.1209 -1.7115  0.5660
 7913WAT     H232373   2.579   5.356   2.393  0.2435  1.3094 -1.7353
 7913WAT    EPW32374   2.615   5.411   2.437  0.0421  0.3669 -0.3051
 7914WAT      O32375   4.681   4.270   3.583  0.0539  0.3221  0.3921
 7914WAT     H132376   4.708   4.209   3.639 -0.9346 -0.7340 -0.2410
 7914WAT     H232377   4.648   4.224   3.517  2.0114  1.4901 -1.5369
 7914WAT    EPW32378   4.680   4.255   3.581  0.1970  0.3386  0.0136
 7915WAT      O32379   3.685   2.500   0.863 -0.3207 -0.3823  0.2963
 7915WAT     H132380   3.702   2.415   0.851 -0.7908 -0.4175 -0.1660
 7915WAT     H232381   3.607   2.511   0.824 -0.0161  0.3727 -0.1215
 7915WAT    EPW32382   3.676   2.489   0.855 -0.3452 -0.2760  0.1663
 7916WAT      O32383   6.608   4.655   3.780  0.1729  0.2509 -0.5776
 7916WAT     H132384   6.591   4.740   3.772  0.7746  0.4213 -0.1345
 7916WAT     H232385   6.684   4.654   3.822 -0.7256 -0.5230  1.1196
 7916WAT    EPW32386   6.617   4.668   3.785  0.1290  0.1617 -0.2614
 7917WAT      O32387   2.532   2.814   7.545  0.5156  0.2059 -0.2863
 7917WAT     H132388   2.470   2.874   7.558  1.5147  1.2922 -0.4443
 7917WAT     H232389   2.487   2.745   7.516 -0.5490  1.2073 -1.1214
 7917WAT    EPW32390   2.516   2.813   7.542  0.5060  0.5143 -0.4330
 7918WAT      O32391   3.968   0.483   3.030  0.3919  0.6112 -0.0927
 7918WAT     H132392   3.933   0.509   3.106  0.7544 -0.2990  0.4011
 7918WAT     H232393   3.903   0.491   2.973 -0.3109 -0.0393  0.5971
 7918WAT    EPW32394   3.953   0.488   3.033  0.3416  0.3807  0.0822
 7919WAT      O32395   2.128   4.985   3.215  0.9246 -0.1822 -0.0873
 7919WAT     H132396   2.170   5.051   3.177 -0.2479  0.5956 -0.0849
 7919WAT     H232397   2.078   5.025   3.275 -0.4329 -0.9790 -0.6483
 7919WAT    EPW32398   2.127   5.001   3.218  0.5509 -0.1850 -0.1698
 7920WAT      O32399   2.304   0.679   2.840 -0.1631  0.1764 -0.0854
 7920WAT     H132400   2.359   0.612   2.851 -0.2146  0.0232 -0.7493
 7920WAT     H232401   2.234   0.643   2.803 -0.5823  0.4334  0.4473
 7920WAT    EPW32402   2.302   0.664   2.836 -0.2326  0.1917 -0.1048
 7921WAT      O32403   3.440   4.989   2.897  0.4149  0.2842  0.3021
 7921WAT     H132404   3.497   4.926   2.916 -0.6805 -0.7036  0.3395
 7921WAT     H232405   3.490   5.048   2.856  1.5297 -0.4063  0.6037
 7921WAT    EPW32406   3.456   4.989   2.894  0.4178  0.0362  0.3522
 7922WAT      O32407   3.323   7.190   1.652  0.1450  0.6010 -0.0435
 7922WAT     H132408   3.368   7.252   1.695  2.5267 -1.4925  0.7405
 7922WAT     H232409   3.270   7.158   1.712  1.7053 -0.6511  0.7388
 7922WAT    EPW32410   3.322   7.195   1.667  0.7273  0.1068  0.1879
 7923WAT      O32411   1.784   2.873   5.273 -1.1292 -0.2815  0.0605
 7923WAT     H132412   1.859   2.833   5.294 -0.7423 -0.0336 -0.8272
 7923WAT     H232413   1.804   2.957   5.276 -1.2375 -0.2267 -0.6842
 7923WAT    EPW32414   1.798   2.879   5.277 -1.0881 -0.2368 -0.1806
 7924WAT      O32415   6.659   5.271   4.082 -1.0607 -0.8116 -0.1606
 7924WAT     H132416   6.588   5.241   4.122 -0.5726 -1.6735  0.0768
 7924WAT     H232417   6.711   5.294   4.148 -1.4385  0.6432 -0.3330
 7924WAT    EPW32418   6.656   5.270   4.098 -1.0444 -0.7240 -0.1510
 7925WAT      O32419   6.454   2.812   4.979 -0.4132  0.0798 -0.9111
 7925WAT     H132420   6.534   2.779   4.974 -0.2920 -0.3547  1.9468
 7925WAT     H232421   6.402   2.742   4.980 -0.8788  0.3527 -2.5962
 7925WAT    EPW32422   6.458   2.797   4.979 -0.4641  0.0559 -0.7379
 7926WAT      O32423   3.825   5.456   6.631  0.1529  0.4867 -0.2142
 7926WAT     H132424   3.884   5.518   6.614 -0.3736  1.2169  0.5586
 7926WAT     H232425   3.873   5.383   6.639  0.7478  0.7086 -1.4522
 7926WAT    EPW32426   3.840   5.454   6.629  0.1630  0.6274 -0.2829
 7927WAT      O32427   3.004   4.264   1.662  0.1144  0.1868 -0.4271
 7927WAT     H132428   3.049   4.271   1.587  2.9480  0.2858  1.1270
 7927WAT     H232429   3.028   4.186   1.693  2.3253  1.7445  2.2150
 7927WAT    EPW32430   3.014   4.253   1.656  0.8596  0.4315  0.1928
 7928WAT      O32431   3.558   3.535   2.528 -0.4811 -0.0612 -0.0931
 7928WAT     H132432   3.634   3.494   2.540 -1.5083 -1.7263  0.9855
 7928WAT     H232433   3.582   3.609   2.486  1.5193 -1.3005 -1.3275
 7928WAT    EPW32434   3.573   3.540   2.523 -0.3374 -0.4902 -0.1162
 7929WAT      O32435   1.701   7.240   6.001  0.0560 -0.5749 -0.0913
 7929WAT     H132436   1.650   7.242   6.072 -0.0834  1.1306 -0.2054
 7929WAT     H232437   1.758   7.305   6.015  0.5047 -0.7086 -1.2088
 7929WAT    EPW32438   1.702   7.250   6.014  0.1017 -0.3427 -0.2733
 7930WAT      O32439   3.910   2.042   0.988 -0.2479  0.4400  0.3393
 7930WAT     H132440   3.975   2.087   0.951  1.0225 -0.3994  1.4264
 7930WAT     H232441   3.910   2.071   1.071  0.1779 -1.0297  0.8982
 7930WAT    EPW32442   3.920   2.053   0.995  0.0027  0.0989  0.5824
 7931WAT      O32443   3.364   3.640   2.719  0.0468  0.4325  0.3295
 7931WAT     H132444   3.433   3.604   2.679 -0.2417 -1.2577  1.2229
 7931WAT     H232445   3.398   3.668   2.795  0.0450  1.0034  0.1190
 7931WAT    EPW32446   3.379   3.639   2.725  0.0039  0.2672  0.4304
 7932WAT      O32447   4.441   5.957   7.190 -0.5037  0.2829  0.7254
 7932WAT     H132448   4.384   5.998   7.241 -2.8903 -2.2560  0.3529
 7932WAT     H232449   4.473   5.895   7.243  1.0113  0.8783  0.5473
 7932WAT    EPW32450   4.437   5.954   7.206 -0.6324 -0.0042  0.6441
 7933WAT      O32451   1.661   0.292   4.232  0.9842 -0.2397 -0.1648
 7933WAT     H132452   1.583   0.331   4.227  1.5695  0.8617 -1.1845
 7933WAT     H232453   1.677   0.288   4.318 -0.0042 -0.1097  0.0327
 7933WAT    EPW32454   1.652   0.297   4.244  0.9247 -0.0578 -0.2862
 7934WAT      O32455   5.397   0.037   4.107 -0.2697 -0.2382 -0.0002
 7934WAT     H132456   5.324   0.026   4.154 -0.5751  1.3500 -0.0352
 7934WAT     H232457   5.455  -0.015   4.146 -1.1554 -0.7708  0.6441
 7934WAT    EPW32458   5.395   0.028   4.119 -0.4457 -0.0823  0.0898
 7935WAT      O32459   3.863   1.656   5.298  0.1374 -0.7296 -0.1599
 7935WAT     H132460   3.833   1.620   5.371 -1.9151  1.3524  0.1381
 7935WAT     H232461   3.870   1.589   5.243 -1.2149 -1.9155  1.0345
 7935WAT    EPW32462   3.860   1.641   5.300 -0.3655 -0.5972  0.0605
 7936WAT      O32463   3.464   1.162   2.495  0.0980  0.6707 -0.4554
 7936WAT     H132464   3.478   1.196   2.573 -1.2835 -0.2426  0.2384
 7936WAT     H232465   3.378   1.147   2.494  0.2215 -0.1604 -1.7948
 7936WAT    EPW32466   3.453   1.165   2.506 -0.0878  0.4130 -0.5508
 7937WAT      O32467   1.319   4.781   3.708 -0.4276  0.0654  0.8702
 7937WAT     H132468   1.382   4.803   3.651 -3.0387  0.4849 -2.1097
 7937WAT     H232469   1.278   4.856   3.723 -2.0968 -0.6545  0.1903
 7937WAT    EPW32470   1.323   4.795   3.702 -1.0599  0.0210  0.3296
 7938WAT      O32471   3.060   2.364   3.009 -0.2804 -0.7680 -0.0699
 7938WAT     H132472   2.983   2.362   3.049  0.2879 -0.6761  1.0730
 7938WAT     H232473   3.118   2.363   3.075  0.7189 -1.8058 -0.9000
 7938WAT    EPW32474   3.057   2.363   3.025 -0.0488 -0.9077 -0.0237
 7939WAT      O32475   2.112   3.138   5.836 -0.1618  0.0649 -0.0868
 7939WAT     H132476   2.163   3.201   5.803 -0.3846  0.9764  1.2221
 7939WAT     H232477   2.034   3.176   5.844 -0.4757 -0.5937  0.0642
 7939WAT    EPW32478   2.108   3.153   5.833 -0.2411  0.1023  0.1288
 7940WAT      O32479   2.583   0.561   1.829  0.0415 -0.1142  0.4269
 7940WAT     H132480   2.636   0.630   1.834  0.6131 -0.5652  0.7052
 7940WAT     H232481   2.517   0.589   1.780  0.0769  0.7506  0.8660
 7940WAT    EPW32482   2.581   0.575   1.822  0.1311 -0.0530  0.5329
 7941WAT      O32483   2.029   3.178   3.875  0.3207  0.1172 -0.7160
 7941WAT     H132484   2.105   3.219   3.869  0.2502  0.1447 -1.5420
 7941WAT     H232485   2.041   3.104   3.830  0.7578 -1.2938  1.5676
 7941WAT    EPW32486   2.042   3.173   3.867  0.3749 -0.0872 -0.5007
 7942WAT      O32487   6.977   4.039   4.716  0.6438 -0.3795 -0.3041
 7942WAT     H132488   6.974   4.088   4.645 -0.4450 -0.7303 -0.5241
 7942WAT     H232489   7.060   4.043   4.741  0.8204  0.5670 -1.0115
 7942WAT    EPW32490   6.988   4.047   4.709  0.5090 -0.2915 -0.4411
 7943WAT      O32491   2.800   6.491   4.142  0.0709 -0.9294  0.2708
 7943WAT     H132492   2.837   6.450   4.074  3.4496  1.7839  0.1944
 7943WAT     H232493   2.740   6.542   4.105  1.8097  0.4520 -0.7969
 7943WAT    EPW32494   2.797   6.492   4.127  0.8269 -0.3245  0.1018
 7944WAT      O32495   4.299   1.301   0.693  0.1416 -0.1396 -0.1673
 7944WAT     H132496   4.296   1.325   0.608 -0.4962  0.0022 -0.1118
 7944WAT     H232497   4.253   1.227   0.695 -0.9232  0.4949  0.2437
 7944WAT    EPW32498   4.292   1.294   0.680 -0.1099 -0.0249 -0.0984
 7945WAT      O32499   7.645   4.468   7.421  0.5061 -0.3147  0.7275
 7945WAT     H132500   7.642   4.555   7.417  0.3037 -0.3708 -2.7241
 7945WAT     H232501   7.561   4.445   7.426  0.3844 -0.3160 -0.9795
 7945WAT    EPW32502   7.632   4.478   7.421  0.4582 -0.3232 -0.0346
 7946WAT      O32503   7.313   0.460   6.752  0.4143  0.3394  0.2816
 7946WAT     H132504   7.327   0.393   6.805 -1.1013 -0.9635 -0.8692
 7946WAT     H232505   7.290   0.423   6.677  2.2472  2.1161 -1.2808
 7946WAT    EPW32506   7.311   0.445   6.749  0.4612  0.4094 -0.1192
 7947WAT      O32507   4.812   1.859   0.181  0.7507 -0.0292  0.4209
 7947WAT     H132508   4.891   1.885   0.153  1.5676 -0.2047  2.3444
 7947WAT     H232509   4.831   1.809   0.250 -1.0618  1.0380  1.7817
 7947WAT    EPW32510   4.826   1.856   0.187  0.6036  0.1025  0.9060
 7948WAT      O32511   4.411   4.534   0.360 -0.6806 -0.0429  0.1475
 7948WAT     H132512   4.408   4.447   0.357  0.2979 -0.0722 -1.7021
 7948WAT     H232513   4.335   4.558   0.324 -1.1158 -0.0959  0.9961
 7948WAT    EPW32514   4.399   4.525   0.354 -0.6004 -0.0551 -0.0004
 7949WAT      O32515   4.878   4.920   4.548  0.4974 -0.6397 -0.2893
 7949WAT     H132516   4.935   4.873   4.595  0.1051 -0.3354  0.5186
 7949WAT     H232517   4.825   4.860   4.514 -0.4031 -0.7898  1.2717
 7949WAT    EPW32518   4.878   4.904   4.550  0.3064 -0.6169  0.0606
 7950WAT      O32519   3.086   6.284   3.132  0.6257 -0.1490 -0.7250
 7950WAT     H132520   3.045   6.342   3.081  1.6993  0.5058 -0.8758
 7950WAT     H232521   3.169   6.291   3.108  1.2784  0.6344  1.5243
 7950WAT    EPW32522   3.092   6.294   3.121  0.8807  0.0634 -0.4151
 7951WAT      O32523   0.773   1.084   6.227  0.3645  0.2705  0.1222
 7951WAT     H132524   0.719   1.150   6.210 -0.9172 -0.4814  1.0025
 7951WAT     H232525   0.804   1.103   6.307 -1.9776 -1.3163  1.5356
 7951WAT    EPW32526   0.770   1.096   6.236 -0.1708 -0.0750  0.4610
 7952WAT      O32527   2.727   6.415   2.824 -0.0071 -0.4922  0.1645
 7952WAT     H132528   2.681   6.489   2.815 -0.0404 -0.4650  0.5585
 7952WAT     H232529   2.758   6.401   2.744 -1.5016 -1.0355 -0.3642
 7952WAT    EPW32530   2.725   6.424   2.811 -0.2328 -0.5684  0.1446
 7953WAT      O32531   1.298   3.927   3.701  0.4476 -0.0166  0.1979
 7953WAT     H132532   1.293   3.874   3.770 -0.7462 -1.7670 -1.1379
 7953WAT     H232533   1.223   3.912   3.658  1.9208 -0.4745 -2.4637
 7953WAT    EPW32534   1.286   3.917   3.704  0.4888 -0.3428 -0.3926
 7954WAT      O32535   3.783   6.346   2.996 -0.0032 -0.5172 -0.1086
 7954WAT     H132536   3.853   6.368   3.044  1.2134 -0.0512 -2.0049
 7954WAT     H232537   3.813   6.285   2.942 -0.6744  0.6045 -1.8380
 7954WAT    EPW32538   3.798   6.340   2.995  0.0774 -0.2827 -0.6442
 7955WAT      O32539   3.216   5.897   0.357 -0.5083  0.0984 -0.1486
 7955WAT     H132540   3.169   5.824   0.344  0.4475 -0.5286 -0.2064
 7955WAT     H232541   3.278   5.892   0.295 -0.5941  1.1143 -0.3302
 7955WAT    EPW32542   3.218   5.886   0.346 -0.3798  0.1559 -0.1839
 7956WAT      O32543   2.204   2.427   4.091 -0.3238  0.4778 -0.2193
 7956WAT     H132544   2.274   2.422   4.040 -1.4060  0.7547 -1.8363
 7956WAT     H232545   2.173   2.508   4.075 -0.5820  0.6691  1.0799
 7956WAT    EPW32546   2.209   2.438   4.081 -0.5218  0.5470 -0.2662
 7957WAT      O32547   5.394   0.194   2.443  0.0154  0.4498 -0.1584
 7957WAT     H132548   5.384   0.113   2.475  1.6863  0.3673  0.2633
 7957WAT     H232549   5.315   0.229   2.450 -1.9699 -2.4002 -4.0893
 7957WAT    EPW32550   5.381   0.187   2.448 -0.0310  0.0166 -0.6768
 7958WAT      O32551   0.379   3.743   5.424  0.1689  0.0044 -0.2783
 7958WAT     H132552   0.449   3.762   5.472 -0.3605  0.6632  0.2566
 7958WAT     H232553   0.353   3.666   5.455 -0.5414  0.7124  0.9671
 7958WAT    EPW32554   0.385   3.734   5.436 -0.0142  0.2063 -0.0153
 7959WAT      O32555   4.203   5.697   3.482 -0.0718  0.4483 -0.4719
 7959WAT     H132556   4.226   5.653   3.411 -0.0245 -0.8175  0.3010
 7959WAT     H232557   4.225   5.780   3.463  0.8780 -0.0186 -1.5223
 7959WAT    EPW32558   4.210   5.703   3.469  0.0755  0.1923 -0.5129
 7960WAT      O32559   0.703   2.823   7.188  0.3739  0.0678 -0.1322
 7960WAT     H132560   0.661   2.894   7.217  0.8319 -0.3779  1.7697
 7960WAT     H232561   0.785   2.850   7.177  0.5526 -0.1555  0.6100
 7960WAT    EPW32562   0.709   2.837   7.190  0.4679 -0.0310  0.2584
 7961WAT      O32563   6.686   6.326   4.339 -0.0090 -0.1589 -0.4962
 7961WAT     H132564   6.628   6.286   4.288 -0.3105  0.1913 -0.4319
 7961WAT     H232565   6.752   6.270   4.343 -0.5238 -0.7587 -0.2110
 7961WAT    EPW32566   6.687   6.312   4.332 -0.1296 -0.1958 -0.4446
 7962WAT      O32567   1.741   0.076   4.090 -0.2775  0.0063  0.7135
 7962WAT     H132568   1.679   0.014   4.093 -0.6301  0.3518  0.6738
 7962WAT     H232569   1.709   0.139   4.141 -0.2221  0.4259  0.2377
 7962WAT    EPW32570   1.727   0.076   4.098 -0.3214  0.1193  0.6374
 7963WAT      O32571   6.719   0.570   5.789  0.5989 -0.1464  0.1923
 7963WAT     H132572   6.697   0.523   5.719  1.6189  0.2621 -0.4243
 7963WAT     H232573   6.663   0.637   5.787  0.0338 -0.6108  0.2965
 7963WAT    EPW32574   6.708   0.573   5.778  0.6661 -0.1546  0.1166
 7964WAT      O32575   3.637   4.326   3.376  0.4070  0.3262 -0.0255
 7964WAT     H132576   3.718   4.294   3.383  0.2852 -0.0755 -0.4013
 7964WAT     H232577   3.608   4.292   3.302 -0.3190  0.0042  0.4005
 7964WAT    EPW32578   3.644   4.316   3.366  0.2818  0.2193 -0.0181
 7965WAT      O32579   1.176   5.398   4.252 -0.2666 -0.5793 -0.3380
 7965WAT     H132580   1.166   5.320   4.289  2.0022 -0.0082  1.8197
 7965WAT     H232581   1.262   5.402   4.236 -0.3713  1.3198 -0.7071
 7965WAT    EPW32582   1.187   5.387   4.256  0.0531 -0.2144 -0.0738
 7966WAT      O32583   3.206   2.100   6.690  0.1449 -0.3761 -0.0544
 7966WAT     H132584   3.233   2.112   6.773  0.1058 -1.4624  0.1423
 7966WAT     H232585   3.190   2.180   6.661  1.8018  0.1723  0.4410
 7966WAT    EPW32586   3.208   2.113   6.698  0.3839 -0.4555  0.0479
 7967WAT      O32587   2.627   1.333   1.215 -0.2647  0.5810  0.1641
 7967WAT     H132588   2.712   1.353   1.222 -0.5078  1.6409  0.3432
 7967WAT     H232589   2.617   1.317   1.130  0.1528  0.2955  0.1679
 7967WAT    EPW32590   2.638   1.334   1.203 -0.2389  0.6954  0.1911
 7968WAT      O32591   3.445   7.639   3.836  0.8696  0.1259  0.4469
 7968WAT     H132592   3.398   7.686   3.893 -0.5720 -0.3206 -0.3217
 7968WAT     H232593   3.395   7.638   3.765  1.0577 -2.1455  0.2663
 7968WAT    EPW32594   3.431   7.646   3.834  0.6844 -0.2756  0.3067
 7969WAT      O32595   6.740   6.718   4.525 -0.0090 -0.0981  0.2062
 7969WAT     H132596   6.709   6.751   4.451 -0.1254  0.9451  0.6972
 7969WAT     H232597   6.817   6.756   4.534 -0.3289  0.3874  1.0015
 7969WAT    EPW32598   6.747   6.729   4.516 -0.0735  0.1277  0.3962
 7970WAT      O32599   1.278   4.049   6.508  0.2633 -0.1030  0.5912
 7970WAT     H132600   1.197   4.039   6.478  0.4804 -0.8255  0.2107
 7970WAT     H232601   1.326   4.004   6.451  1.1790  1.9906 -0.3974
 7970WAT    EPW32602   1.273   4.041   6.495  0.4307  0.0995  0.3889
 7971WAT      O32603   3.094   0.823   2.380  0.4218 -0.5554 -0.2180
 7971WAT     H132604   3.103   0.850   2.463  1.3476 -1.3093 -0.0480
 7971WAT     H232605   3.136   0.884   2.334  1.4203 -1.0235  0.0461
 7971WAT    EPW32606   3.102   0.836   2.385  0.7060 -0.7359 -0.1539
 7972WAT      O32607   4.133   0.212   5.199 -0.0559  0.8221  0.6353
 7972WAT     H132608   4.077   0.230   5.135  0.5088  2.6419  0.5930
 7972WAT     H232609   4.196   0.272   5.189  1.6135 -0.7534  1.0527
 7972WAT    EPW32610   4.134   0.223   5.188  0.2741  0.8582  0.6907
 7973WAT      O32611   1.881   2.123   6.686 -0.3008  0.4231 -0.1351
 7973WAT     H132612   1.877   2.193   6.635  1.3212  0.3959 -0.3414
 7973WAT     H232613   1.898   2.058   6.630  2.0668  0.4784  0.4470
 7973WAT    EPW32614   1.883   2.124   6.670  0.2885  0.4273 -0.0796
 7974WAT      O32615   0.786   5.349   3.754 -0.2391  0.2166  0.2154
 7974WAT     H132616   0.816   5.275   3.789 -0.8553  0.0339  0.3770
 7974WAT     H232617   0.797   5.408   3.818  1.8424  0.6864 -0.4867
 7974WAT    EPW32618   0.792   5.347   3.768 -0.0226  0.2590  0.1355
 7975WAT      O32619   2.076   5.272   5.779 -0.1501  0.2055 -0.0026
 7975WAT     H132620   2.107   5.328   5.838  0.1712  0.1482 -0.1176
 7975WAT     H232621   2.142   5.216   5.767  0.1334  0.7601 -1.1107
 7975WAT    EPW32622   2.090   5.272   5.786 -0.0608  0.2790 -0.1832
 7976WAT      O32623   3.369   5.544   2.045 -0.1076  0.4343 -0.0547
 7976WAT     H132624   3.436   5.575   2.091 -1.6632  0.1773  2.6378
 7976WAT     H232625   3.388   5.459   2.036 -0.1539  0.3055  0.9275
 7976WAT    EPW32626   3.382   5.536   2.050 -0.3442  0.3773  0.4881
 7977WAT      O32627   2.991   5.720   7.203 -0.2251  0.2652  0.1717
 7977WAT     H132628   2.912   5.701   7.171  0.6833 -1.7051 -1.0909
 7977WAT     H232629   3.029   5.765   7.139 -0.5307  1.9330  1.0946
 7977WAT    EPW32630   2.985   5.724   7.189 -0.1361  0.2205  0.1215
 7978WAT      O32631   2.583   5.286   1.387 -0.9357  0.5615  0.3061
 7978WAT     H132632   2.512   5.257   1.345 -0.0051 -0.3073 -0.7052
 7978WAT     H232633   2.583   5.371   1.370 -0.6709  0.2621 -1.3639
 7978WAT    EPW32634   2.572   5.294   1.378 -0.7591  0.3889 -0.0900
 7979WAT      O32635   5.406   6.044   6.437  0.0816 -0.1839 -0.3140
 7979WAT     H132636   5.476   6.096   6.445  1.7809 -2.4057  0.2006
 7979WAT     H232637   5.360   6.061   6.508  0.0694  1.3199 -0.6540
 7979WAT    EPW32638   5.410   6.054   6.448  0.3308 -0.2899 -0.2882
 7980WAT      O32639   7.739   4.470   4.457  0.4254 -0.3913  0.2071
 7980WAT     H132640   7.816   4.436   4.434  0.2505 -0.1776 -0.7172
 7980WAT     H232641   7.736   4.545   4.413 -0.2216 -0.2943  0.4094
 7980WAT    EPW32642   7.750   4.476   4.447  0.3040 -0.3454  0.1004
 7981WAT      O32643   4.467   1.941   1.544 -0.1854  0.1594  0.0957
 7981WAT     H132644   4.389   1.927   1.506  0.4300  1.5134 -1.8178
 7981WAT     H232645   4.518   1.880   1.508 -0.4710 -1.2331  1.9294
 7981WAT    EPW32646   4.463   1.930   1.533 -0.1367  0.1537  0.0839
 7982WAT      O32647   1.944   1.540   2.611 -0.6563 -0.5989 -0.1576
 7982WAT     H132648   1.886   1.548   2.675  0.7775 -1.6531  1.3745
 7982WAT     H232649   1.994   1.473   2.637  1.1169  0.1297 -1.4686
 7982WAT    EPW32650   1.943   1.531   2.624 -0.1826 -0.6470 -0.1250
 7983WAT      O32651   7.173   6.014   4.824  0.0699 -0.0239 -0.4357
 7983WAT     H132652   7.195   6.017   4.908 -2.3676  0.2328  0.2668
 7983WAT     H232653   7.185   6.096   4.796  0.6798 -0.0623 -0.3000
 7983WAT    EPW32654   7.178   6.026   4.832 -0.2000  0.0084 -0.3119
 7984WAT      O32655   2.933   1.302   0.573 -0.4100  0.2719 -0.1140
 7984WAT     H132656   2.910   1.320   0.656  1.7507  0.2404  0.5696
 7984WAT     H232657   2.908   1.219   0.563 -0.8552  0.3283  0.4586
 7984WAT    EPW32658   2.926   1.292   0.584 -0.1566  0.2756  0.0716
 7985WAT      O32659   3.773   1.772   2.983  0.2621 -0.3649 -0.5515
 7985WAT     H132660   3.758   1.744   2.902  0.8133  0.1339 -0.8372
 7985WAT     H232661   3.855   1.803   2.979  0.3353 -0.4326  0.2228
 7985WAT    EPW32662   3.783   1.773   2.970  0.3543 -0.3012 -0.4793
 7986WAT      O32663   3.430   6.515   0.217 -0.1535 -0.4237 -0.4733
 7986WAT     H132664   3.389   6.579   0.260  1.7606  1.2173 -0.8884
 7986WAT     H232665   3.443   6.549   0.138  2.6146 -0.4474 -0.1402
 7986WAT    EPW32666   3.426   6.530   0.212  0.5382 -0.1848 -0.4854
 7987WAT      O32667   2.038   3.284   2.974  0.0277 -0.3704  0.0580
 7987WAT     H132668   2.082   3.357   2.990 -2.3163  0.9795  0.8971
 7987WAT     H232669   2.079   3.224   3.024  2.0424  0.2815 -0.7144
 7987WAT    EPW32670   2.051   3.286   2.984 -0.0209 -0.0747  0.0679
 7988WAT      O32671   2.280   5.991   2.298 -0.5831  1.3315 -0.2114
 7988WAT     H132672   2.361   5.997   2.267 -0.3710  0.2051  0.0843
 7988WAT     H232673   2.288   6.015   2.381  0.0444 -1.4533  0.6449
 7988WAT    EPW32674   2.293   5.995   2.305 -0.4591  0.7537 -0.0412
 7989WAT      O32675   2.111   4.316   3.917 -0.4426  0.2795  0.1013
 7989WAT     H132676   2.133   4.248   3.967  0.1745  0.8269  0.5829
 7989WAT     H232677   2.044   4.286   3.871  0.5714 -1.0783 -0.5737
 7989WAT    EPW32678   2.105   4.301   3.917 -0.2017  0.1597  0.0727
 7990WAT      O32679   1.742   5.866   1.818  0.4984  0.4077  0.8557
 7990WAT     H132680   1.662   5.876   1.784  0.1584  1.5076  1.9032
 7990WAT     H232681   1.751   5.935   1.870  3.1029  1.6798 -1.0478
 7990WAT    EPW32682   1.731   5.878   1.821  0.8329  0.7581  0.7292
 7991WAT      O32683   0.656   7.591   5.916 -0.0123  0.6226 -0.3720
 7991WAT     H132684   0.720   7.538   5.942  0.2811  1.1178 -0.0674
 7991WAT     H232685   0.635   7.562   5.837 -1.0730 -1.0675  0.4753
 7991WAT    EPW32686   0.662   7.579   5.908 -0.1257  0.4461 -0.2018
 7992WAT      O32687   3.754   6.129   0.469  0.0544  0.0048 -0.2833
 7992WAT     H132688   3.818   6.189   0.473 -0.3327  0.5071 -1.2288
 7992WAT     H232689   3.681   6.177   0.468 -0.3163 -0.5411  0.2246
 7992WAT    EPW32690   3.753   6.145   0.469 -0.0575 -0.0017 -0.3479
 7993WAT      O32691   4.355   2.060   5.584 -0.3035  0.0703 -0.5269
 7993WAT     H132692   4.278   2.067   5.625 -0.5888 -1.3519 -0.7619
 7993WAT     H232693   4.403   2.123   5.620 -1.5773  1.0346 -0.4079
 7993WAT    EPW32694   4.351   2.071   5.595 -0.5338  0.0027 -0.5440
 7994WAT      O32695   4.213   0.204   7.014  0.6341  0.3325 -0.1083
 7994WAT     H132696   4.159   0.263   6.980 -0.5596 -0.9262 -0.4956
 7994WAT     H232697   4.276   0.197   6.953 -0.4552 -0.4742 -1.1859
 7994WAT    EPW32698   4.215   0.212   7.000  0.2968  0.0274 -0.3247
 7995WAT      O32699   3.928   5.293   1.635 -0.1529 -0.0754  0.4304
 7995WAT     H132700   3.867   5.330   1.685  1.1035 -0.0014  1.9990
 7995WAT     H232701   3.978   5.250   1.692  1.7525  0.5649 -0.6443
 7995WAT    EPW32702   3.927   5.292   1.651  0.3142  0.0301  0.5034
 7996WAT      O32703   2.788   5.272   2.209  1.0790  0.2082 -0.1670
 7996WAT     H132704   2.872   5.254   2.197  1.1380  0.2760  0.1253
 7996WAT     H232705   2.782   5.356   2.187  1.1576  0.2943  0.1365
 7996WAT    EPW32706   2.799   5.282   2.204  1.0993  0.2310 -0.0790
 7997WAT      O32707   1.259   1.012   3.337 -0.0887 -0.3189  0.3694
 7997WAT     H132708   1.237   1.091   3.308  1.0320 -0.2336 -0.3199
 7997WAT     H232709   1.329   0.992   3.290  1.1644 -0.6526  2.2501
 7997WAT    EPW32710   1.266   1.021   3.326  0.2620 -0.3556  0.5454
 7998WAT      O32711   4.327   0.040   6.169 -0.3968 -0.0324 -0.1989
 7998WAT     H132712   4.325   0.126   6.183  2.5101  0.3208 -1.2761
 7998WAT     H232713   4.279   0.029   6.097 -1.6063  0.4997  0.5027
 7998WAT    EPW32714   4.320   0.051   6.161 -0.1460  0.0983 -0.2544
 7999WAT      O32715   2.560   2.560   6.685 -0.6117  0.1613 -0.3681
 7999WAT     H132716   2.486   2.600   6.662 -1.4565  1.2850  3.6697
 7999WAT     H232717   2.622   2.617   6.664 -1.2562  0.9391 -0.1833
 7999WAT    EPW32718   2.558   2.574   6.678 -0.8317  0.4422  0.2557
 8000WAT      O32719   2.028   1.357   2.904  0.1211 -0.9857  0.6623
 8000WAT     H132720   2.100   1.385   2.943  0.1257  1.0930 -0.6864
 8000WAT     H232721   2.057   1.316   2.833  0.0445  1.6819 -1.0248
 8000WAT    EPW32722   2.043   1.355   2.899  0.1105 -0.2845  0.2138
 8001WAT      O32723   2.939   7.368   1.511  0.2457  0.0030  0.5151
 8001WAT     H132724   2.889   7.419   1.461  0.4707  0.0714  0.3580
 8001WAT     H232725   2.976   7.313   1.454  1.6293  1.0065  0.4109
 8001WAT    EPW32726   2.937   7.367   1.495  0.4833  0.1613  0.4765
 8002WAT      O32727   1.868   2.641   3.068  0.0105  0.1250  0.2951
 8002WAT     H132728   1.871   2.557   3.046  0.7650  0.1873  0.1115
 8002WAT     H232729   1.910   2.681   3.003  1.4968  0.4021  1.3668
 8002WAT    EPW32730   1.875   2.634   3.055  0.3415  0.1751  0.4263
 8003WAT      O32731   1.685   5.440   2.142 -0.7088 -0.5138 -0.0334
 8003WAT     H132732   1.708   5.484   2.071 -2.3201 -0.6448 -0.6906
 8003WAT     H232733   1.755   5.394   2.163  0.1586  0.4009 -0.8566
 8003WAT    EPW32734   1.699   5.440   2.135 -0.8187 -0.3980 -0.2520
 8004WAT      O32735   5.106   4.947   0.134 -0.6945  0.1325 -0.3882
 8004WAT     H132736   5.159   5.017   0.130  0.3643 -0.6332 -0.3872
 8004WAT     H232737   5.031   4.980   0.163 -0.0093  1.1715  0.3122
 8004WAT    EPW32738   5.103   4.962   0.138 -0.4369  0.1729 -0.2846
 8005WAT      O32739   1.496   7.177   1.143 -0.5166 -0.0429  0.3322
 8005WAT     H132740   1.500   7.146   1.062 -1.6662  0.2759  0.1309
 8005WAT     H232741   1.537   7.117   1.191  1.3720  0.3963 -0.6345
 8005WAT    EPW32742   1.502   7.164   1.138 -0.4075  0.0691  0.1597
 8006WAT      O32743   2.889   4.208   0.330  0.0283  0.0897 -0.2821
 8006WAT     H132744   2.943   4.251   0.277  0.3797 -1.4066 -1.2005
 8006WAT     H232745   2.820   4.191   0.279 -0.1492 -0.3039  0.0832
 8006WAT    EPW32746   2.887   4.212   0.314  0.0540 -0.1895 -0.3638
 8007WAT      O32747   7.572   4.046   4.361 -0.4838 -0.0996 -0.1989
 8007WAT     H132748   7.492   4.013   4.349 -0.2296 -0.6094 -0.4917
 8007WAT     H232749   7.624   3.976   4.365 -0.2492  0.1468  1.6627
 8007WAT    EPW32750   7.568   4.031   4.360 -0.4116 -0.1385  0.0328
 8008WAT      O32751   2.939   6.441   0.705  0.5933  0.0020  0.3051
 8008WAT     H132752   2.927   6.440   0.618 -0.4562 -2.2711  0.3982
 8008WAT     H232753   3.012   6.393   0.716  0.6568  0.1847  0.6890
 8008WAT    EPW32754   2.948   6.433   0.694  0.4476 -0.3068  0.3756
 8009WAT      O32755   1.454   2.896   5.959 -0.0948 -0.5810  0.0682
 8009WAT     H132756   1.378   2.938   5.958  0.5327  0.6553  1.1652
 8009WAT     H232757   1.470   2.883   6.044  1.7566  0.8264  0.0058
 8009WAT    EPW32758   1.445   2.900   5.971  0.2714 -0.1905  0.2211
 8010WAT      O32759   6.156   0.809   0.479 -0.1934  0.2533 -0.1766
 8010WAT     H132760   6.094   0.827   0.420 -0.5687 -0.9362 -0.1763
 8010WAT     H232761   6.132   0.731   0.510  0.6649  0.3160  0.6814
 8010WAT    EPW32762   6.143   0.800   0.475 -0.1221  0.0868 -0.0498
 8011WAT      O32763   3.803   5.547   3.751  0.1191 -0.2997  0.3138
 8011WAT     H132764   3.753   5.598   3.800  0.7675  1.0335 -0.3711
 8011WAT     H232765   3.776   5.466   3.771 -2.2258  0.3531  0.0587
 8011WAT    EPW32766   3.791   5.543   3.761 -0.1315 -0.0063  0.1750
 8012WAT      O32767   0.660   4.208   6.797  0.1040  0.2111  0.8374
 8012WAT     H132768   0.720   4.188   6.857  1.4059 -0.9766 -0.7905
 8012WAT     H232769   0.689   4.284   6.764  0.1766  0.1337  0.7223
 8012WAT    EPW32770   0.673   4.216   6.801  0.3071  0.0242  0.5799
 8013WAT      O32771   4.598   3.858   6.899  0.0205 -0.4268  0.2843
 8013WAT     H132772   4.652   3.890   6.838  1.4628  0.5989  2.0256
 8013WAT     H232773   4.616   3.905   6.970 -1.9860 -1.2210  1.4064
 8013WAT    EPW32774   4.609   3.869   6.900 -0.0628 -0.3926  0.7073
 8014WAT      O32775   2.671   6.390   6.127 -0.1161  0.3486 -0.3283
 8014WAT     H132776   2.612   6.326   6.122 -0.2446  0.4262  0.1297
 8014WAT     H232777   2.679   6.417   6.045 -0.6394  0.2651 -0.4085
 8014WAT    EPW32778   2.664   6.384   6.114 -0.2124  0.3477 -0.2725
 8015WAT      O32779   1.411   4.917   0.310 -0.2831  0.2593 -0.1619
 8015WAT     H132780   1.401   4.858   0.246 -1.6919  0.2588  0.0380
 8015WAT     H232781   1.331   4.925   0.344  0.2415  0.9946  0.9656
 8015WAT    EPW32782   1.398   4.909   0.306 -0.4137  0.3678  0.0342
 8016WAT      O32783   5.751   4.063   1.220  0.4459 -0.5848 -0.4345
 8016WAT     H132784   5.667   4.046   1.207  0.1941 -0.8695  1.2839
 8016WAT     H232785   5.788   3.984   1.228  0.7820 -0.4561 -0.6966
 8016WAT    EPW32786   5.744   4.049   1.220  0.4583 -0.6079 -0.2194
 8017WAT      O32787   7.282   2.146   7.396  0.1689 -0.1095 -0.3049
 8017WAT     H132788   7.259   2.198   7.330 -0.3693 -1.0777 -0.8907
 8017WAT     H232789   7.235   2.177   7.463 -0.6805 -0.2693 -0.8146
 8017WAT    EPW32790   7.272   2.158   7.396 -0.0361 -0.2761 -0.4667
 8018WAT      O32791   3.439   3.204   2.376  0.2377  0.2366  0.1472
 8018WAT     H132792   3.424   3.289   2.364 -1.0517 -0.0520 -0.5651
 8018WAT     H232793   3.513   3.202   2.421  0.6925  1.7128 -0.4698
 8018WAT    EPW32794   3.447   3.216   2.380  0.1144  0.4120 -0.0491
 8019WAT      O32795   0.931   0.656   6.942 -0.3940 -0.4276  0.1176
 8019WAT     H132796   0.934   0.592   6.883  0.3642  0.1331 -0.4605
 8019WAT     H232797   0.876   0.624   7.003  0.5122 -1.9207  0.2094
 8019WAT    EPW32798   0.923   0.642   6.942 -0.1482 -0.5653  0.0458
 8020WAT      O32799   2.750   6.704   3.636  0.1113  0.0693  0.1756
 8020WAT     H132800   2.680   6.689   3.586 -0.3853  0.7466  0.6386
 8020WAT     H232801   2.790   6.770   3.596 -0.9115  1.3943  1.2358
 8020WAT    EPW32802   2.745   6.711   3.623 -0.1131  0.3651  0.4006
 8021WAT      O32803   4.330   2.748   7.649 -0.0567  0.5773 -0.1674
 8021WAT     H132804   4.257   2.793   7.631  0.4471  1.0882 -1.0066
 8021WAT     H232805   4.321   2.676   7.602 -0.1017  0.5512 -0.1197
 8021WAT    EPW32806   4.318   2.744   7.640  0.0111  0.6489 -0.2843
 8022WAT      O32807   1.607   3.898   3.077 -0.4749  0.5714 -0.2846
 8022WAT     H132808   1.633   3.852   3.147  0.7618 -0.0849 -1.1325
 8022WAT     H232809   1.568   3.967   3.112  0.7041  0.6035  1.0824
 8022WAT    EPW32810   1.605   3.901   3.093 -0.1180  0.4792 -0.2079
 8023WAT      O32811   3.126   2.229   1.174  0.4754 -0.1396 -0.2986
 8023WAT     H132812   3.103   2.268   1.099  0.2395  2.3286  0.9686
 8023WAT     H232813   3.068   2.165   1.182 -1.9237  1.8638 -0.4640
 8023WAT    EPW32814   3.114   2.226   1.164  0.0861  0.5209 -0.1358
 8024WAT      O32815   0.402   3.867   6.376  0.1316 -0.0944  0.3402
 8024WAT     H132816   0.377   3.797   6.331  0.4504 -0.1646  0.2683
 8024WAT     H232817   0.352   3.866   6.446  0.2348 -0.4778  0.4113
 8024WAT    EPW32818   0.391   3.857   6.380  0.1939 -0.1614  0.3401
 8025WAT      O32819   6.099   0.934   1.927  0.4712  0.1196 -0.2645
 8025WAT     H132820   6.145   0.883   1.981 -2.9275 -2.1558  0.7862
 8025WAT     H232821   6.087   1.007   1.974  2.3257  0.5319 -0.3364
 8025WAT    EPW32822   6.104   0.937   1.942  0.2431 -0.1556 -0.1199
 8026WAT      O32823   2.403   4.890   6.075 -0.1208 -0.7350  0.2332
 8026WAT     H132824   2.442   4.932   6.141  0.6103 -2.0639  0.6832
 8026WAT     H232825   2.467   4.879   6.017 -0.3394 -1.1093  0.0596
 8026WAT    EPW32826   2.418   4.895   6.076 -0.0451 -0.9866  0.2740
 8027WAT      O32827   3.220   0.195   0.938  0.9990  0.5274  0.2284
 8027WAT     H132828   3.293   0.232   0.909  2.2308 -1.8464  0.0636
 8027WAT     H232829   3.246   0.117   0.966 -1.5148 -0.5216 -0.0776
 8027WAT    EPW32830   3.235   0.189   0.938  0.8097  0.0218  0.1589
 8028WAT      O32831   6.351   1.126   6.611  0.1684  0.0436 -0.5460
 8028WAT     H132832   6.382   1.085   6.681  2.2184  1.0465 -0.7897
 8028WAT     H232833   6.422   1.138   6.561 -1.0501  0.2677 -2.3375
 8028WAT    EPW32834   6.366   1.121   6.614  0.2912  0.2249 -0.8466
 8029WAT      O32835   1.135   3.705   4.400 -0.2740 -0.3137 -0.4629
 8029WAT     H132836   1.197   3.764   4.385 -1.1570  0.9676  0.7695
 8029WAT     H232837   1.088   3.739   4.465 -0.5623 -2.5555  0.6281
 8029WAT    EPW32838   1.137   3.719   4.408 -0.4470 -0.4556 -0.1197
 8030WAT      O32839   3.018   2.485   2.473 -0.6688 -0.2526 -0.2993
 8030WAT     H132840   3.081   2.537   2.442 -0.3287 -0.9783 -0.8560
 8030WAT     H232841   3.061   2.411   2.495 -0.8257  0.2897  2.1870
 8030WAT    EPW32842   3.033   2.481   2.472 -0.6418 -0.2797 -0.0143
 8031WAT      O32843   5.072   0.594   6.776  0.5777 -0.1019  0.3236
 8031WAT     H132844   4.998   0.555   6.754  1.2800 -2.0743  1.2550
 8031WAT     H232845   5.113   0.606   6.700 -0.7996  1.3560 -0.2389
 8031WAT    EPW32846   5.067   0.590   6.762  0.4780 -0.1779  0.3781
 8032WAT      O32847   1.406   6.888   0.869  0.4341 -0.4107  0.3769
 8032WAT     H132848   1.332   6.930   0.851  0.0840 -0.3384  1.8815
 8032WAT     H232849   1.379   6.815   0.908  1.0938 -1.4216 -0.9821
 8032WAT    EPW32850   1.391   6.884   0.872  0.4799 -0.5494  0.3984
 8033WAT      O32851   6.982   6.710   5.317 -0.1379 -0.7065  0.2848
 8033WAT     H132852   6.948   6.644   5.362  1.6758 -1.8406  0.0914
 8033WAT     H232853   6.961   6.691   5.234  0.2552 -0.9820  0.2444
 8033WAT    EPW32854   6.974   6.697   5.311  0.1881 -0.9147  0.2502
 8034WAT      O32855   1.271   5.227   4.693  0.2140 -1.1180  0.4778
 8034WAT     H132856   1.294   5.227   4.609 -0.2198  0.1055  0.3372
 8034WAT     H232857   1.289   5.308   4.720 -0.5963 -1.1888  1.2919
 8034WAT    EPW32858   1.277   5.239   4.685  0.0302 -0.9477  0.5773
 8035WAT      O32859   2.387   0.433   2.023 -0.3024  0.6595  0.2027
 8035WAT     H132860   2.426   0.496   1.976 -0.7759  0.3587 -0.6183
 8035WAT     H232861   2.452   0.402   2.073  0.3059  0.7634 -0.4979
 8035WAT    EPW32862   2.403   0.437   2.023 -0.2825  0.6304 -0.0221
 8036WAT      O32863   6.202   4.574   6.621 -0.7231 -0.4888 -0.1685
 8036WAT     H132864   6.218   4.497   6.583 -0.0458 -1.2545  1.5816
 8036WAT     H232865   6.209   4.557   6.706 -0.4108  1.5534  0.2604
 8036WAT    EPW32866   6.206   4.560   6.628 -0.5769 -0.3002  0.1534
 8037WAT      O32867   2.810   3.992   5.238 -0.0465  0.2230 -0.2584
 8037WAT     H132868   2.848   3.919   5.210  1.4085  0.6775  0.4437
 8037WAT     H232869   2.799   4.038   5.165  0.2159 -0.1550 -0.5403
 8037WAT    EPW32870   2.814   3.988   5.223  0.2072  0.2343 -0.1963
 8038WAT      O32871   4.424   3.837   4.915 -0.0279  0.3195  0.1733
 8038WAT     H132872   4.448   3.839   4.831  0.1718 -0.9544  0.1813
 8038WAT     H232873   4.379   3.912   4.925 -0.6359  0.1786 -1.2343
 8038WAT    EPW32874   4.421   3.849   4.904 -0.0882  0.1105 -0.0334
 8039WAT      O32875   1.514   4.261   6.396 -0.4134 -0.3543 -0.4548
 8039WAT     H132876   1.437   4.288   6.367  0.8118 -0.1093 -3.9367
 8039WAT     H232877   1.571   4.312   6.353  1.7539 -2.4202 -0.2175
 8039WAT    EPW32878   1.511   4.273   6.385  0.0878 -0.6233 -0.9341
 8040WAT      O32879   2.329   2.690   6.545 -0.5042  0.7180  0.4042
 8040WAT     H132880   2.360   2.751   6.491 -2.0492 -0.6099 -2.1670
 8040WAT     H232881   2.275   2.734   6.596 -1.1530  1.6474 -1.0167
 8040WAT    EPW32882   2.326   2.705   6.544 -0.8282  0.6591 -0.1855
 8041WAT      O32883   3.684   7.404   6.532 -0.0669  0.9084  0.2325
 8041WAT     H132884   3.686   7.476   6.583  0.3699  0.0526  1.4668
 8041WAT     H232885   3.607   7.367   6.553  0.2958  0.3438  0.5824
 8041WAT    EPW32886   3.673   7.409   6.543  0.0512  0.6986  0.4665
 8042WAT      O32887   4.204   2.498   0.033  0.0736  0.2684  0.3193
 8042WAT     H132888   4.268   2.551   0.060 -1.1545  2.3248 -0.5176
 8042WAT     H232889   4.223   2.484  -0.051  0.3727 -0.6093  0.5305
 8042WAT    EPW32890   4.216   2.504   0.025 -0.0637  0.4425  0.2268
 8043WAT      O32891   3.571   4.712   1.381  0.1576 -0.2386 -0.1117
 8043WAT     H132892   3.584   4.688   1.299  2.0141  0.0973  0.0399
 8043WAT     H232893   3.490   4.746   1.380 -0.8528 -2.4891 -1.2079
 8043WAT    EPW32894   3.561   4.714   1.369  0.2826 -0.5214 -0.2513
 8044WAT      O32895   0.368   1.214   6.838  0.0585  0.1163  0.3094
 8044WAT     H132896   0.294   1.251   6.811 -0.3217 -0.3147  0.7260
 8044WAT     H232897   0.426   1.239   6.779 -1.1377 -2.5692 -2.2848
 8044WAT    EPW32898   0.365   1.223   6.825 -0.1743 -0.3441 -0.0123
 8045WAT      O32899   5.161   5.151   2.715  0.1013 -0.0115  0.1736
 8045WAT     H132900   5.165   5.067   2.692 -0.6237 -0.2228  0.7898
 8045WAT     H232901   5.118   5.150   2.791  0.7361  0.8483  0.5709
 8045WAT    EPW32902   5.156   5.138   2.723  0.0880  0.0843  0.3233
 8046WAT      O32903   3.130   5.893   6.313 -0.1307 -0.1944 -0.1568
 8046WAT     H132904   3.133   5.942   6.385 -1.9947 -0.9461  0.4813
 8046WAT     H232905   3.096   5.947   6.253  2.8749  0.9491 -1.0242
 8046WAT    EPW32906   3.125   5.908   6.315  0.0379 -0.1365 -0.1906
 8047WAT      O32907   4.191   1.853   0.138 -0.2211  0.4345 -0.2844
 8047WAT     H132908   4.133   1.789   0.125 -0.7353  0.9568 -0.5854
 8047WAT     H232909   4.216   1.841   0.221 -1.2805  0.6123  0.0797
 8047WAT    EPW32910   4.186   1.842   0.149 -0.4535  0.5379 -0.2751
 8048WAT      O32911   2.950   1.830   5.168 -0.2049  0.1113  0.3554
 8048WAT     H132912   3.018   1.864   5.125 -1.3732  0.5179 -1.2645
 8048WAT     H232913   2.938   1.752   5.132 -2.1859  1.0862 -1.3123
 8048WAT    EPW32914   2.958   1.824   5.156 -0.6701  0.3154 -0.1302
 8049WAT      O32915   1.157   5.047   0.293  0.1751 -0.4090 -0.8519
 8049WAT     H132916   1.102   5.114   0.307  0.1872  0.0119 -2.5757
 8049WAT     H232917   1.225   5.085   0.253  1.6820 -0.9547  1.0410
 8049WAT    EPW32918   1.159   5.063   0.289  0.3995 -0.4275 -0.8269
 8050WAT      O32919   3.058   4.797   7.092 -0.4395 -0.3630 -0.2497
 8050WAT     H132920   3.036   4.734   7.148 -1.0423  0.5355  0.5661
 8050WAT     H232921   3.076   4.865   7.144  0.7197 -0.0022 -1.0813
 8050WAT    EPW32922   3.057   4.798   7.108 -0.3573 -0.1770 -0.2520
 8051WAT      O32923   4.486   2.891   0.129  0.0822  0.2787  0.2025
 8051WAT     H132924   4.402   2.910   0.114 -0.0688 -0.0577  0.6217
 8051WAT     H232925   4.485   2.848   0.205  0.6536  0.4197  0.2977
 8051WAT    EPW32926   4.473   2.888   0.138  0.1443  0.2498  0.2785
 8052WAT      O32927   3.735   5.562   7.729 -0.2532  0.7806 -0.1865
 8052WAT     H132928   3.726   5.476   7.719  2.1803  0.2964  0.8619
 8052WAT     H232929   3.656   5.589   7.751 -1.0303 -1.2362 -0.2929
 8052WAT    EPW32930   3.722   5.553   7.731 -0.0085  0.4112 -0.0474
 8053WAT      O32931   2.221   7.138   7.570 -0.7117  0.2532 -0.1724
 8053WAT     H132932   2.294   7.096   7.594 -0.1903  0.7803 -0.7877
 8053WAT     H232933   2.167   7.125   7.637 -1.0763 -2.5628 -0.9007
 8053WAT    EPW32934   2.224   7.130   7.584 -0.6885 -0.0849 -0.3709
 8054WAT      O32935   3.644   7.032   7.731  0.3351 -0.3958  0.2435
 8054WAT     H132936   3.605   7.003   7.659 -1.1991 -0.4728  1.0684
 8054WAT     H232937   3.578   7.058   7.782  1.4679  1.4644  0.8627
 8054WAT    EPW32938   3.628   7.032   7.728  0.2758 -0.1324  0.4568
 8055WAT      O32939   2.570   5.247   3.690  0.2838 -0.0524  0.3327
 8055WAT     H132940   2.594   5.278   3.612  1.3594 -0.4039  0.5044
 8055WAT     H232941   2.532   5.171   3.671  0.3099 -0.0171  0.1391
 8055WAT    EPW32942   2.568   5.240   3.675  0.4465 -0.0991  0.3295
 8056WAT      O32943   4.350   3.195   5.416  0.1593 -0.0446 -0.4011
 8056WAT     H132944   4.278   3.233   5.384 -0.0218  0.3584  0.4437
 8056WAT     H232945   4.324   3.113   5.431  0.4224 -0.4133 -1.8160
 8056WAT    EPW32946   4.335   3.188   5.413  0.1714 -0.0395 -0.4853
 8057WAT      O32947   2.446   4.066   3.678 -0.1550  0.3941 -0.4364
 8057WAT     H132948   2.493   4.139   3.669  0.5073  0.1555  0.9472
 8057WAT     H232949   2.499   4.004   3.648 -0.4125  0.3666 -0.8493
 8057WAT    EPW32950   2.460   4.068   3.672 -0.0952  0.3548 -0.2930
 8058WAT      O32951   2.086   3.324   2.687  0.0528 -0.0202 -0.4407
 8058WAT     H132952   2.050   3.310   2.765 -0.9958 -1.2476 -1.0950
 8058WAT     H232953   2.157   3.274   2.688 -1.0093 -1.6170 -0.9430
 8058WAT    EPW32954   2.091   3.315   2.699 -0.2590 -0.4374 -0.6116
 8059WAT      O32955   4.256   2.210   6.144 -0.2746  0.0487 -0.0771
 8059WAT     H132956   4.309   2.230   6.211 -2.1519  0.4440  1.3920
 8059WAT     H232957   4.311   2.185   6.081  1.8046  2.5834  0.5405
 8059WAT    EPW32958   4.272   2.210   6.145 -0.2448  0.4815  0.2312
 8060WAT      O32959   5.183   0.513   5.907  0.2809 -0.1058 -0.0470
 8060WAT     H132960   5.259   0.494   5.868 -0.4948 -1.9096 -0.7229
 8060WAT     H232961   5.166   0.594   5.880  0.1831 -0.9759 -2.8504
 8060WAT    EPW32962   5.192   0.522   5.897  0.1519 -0.5008 -0.5610
 8061WAT      O32963   3.021   7.377   2.224 -0.3822 -0.1028  0.3954
 8061WAT     H132964   2.983   7.445   2.185 -1.3354 -0.0052  1.4350
 8061WAT     H232965   2.956   7.340   2.269  0.4008 -0.9249  0.8907
 8061WAT    EPW32966   3.006   7.381   2.225 -0.4073 -0.2098  0.6221
 8062WAT      O32967   4.971   1.231   3.583 -0.3547 -0.3311  0.1898
 8062WAT     H132968   5.046   1.275   3.592 -1.3191  1.2377  1.0683
 8062WAT     H232969   4.989   1.152   3.617  1.5611 -0.8555 -1.8348
 8062WAT    EPW32970   4.985   1.226   3.590 -0.2142 -0.1768  0.0205
 8063WAT      O32971   1.597   7.296   0.015 -0.1391 -0.4602  0.5839
 8063WAT     H132972   1.571   7.323  -0.064  0.3305  1.7755  1.1152
 8063WAT     H232973   1.684   7.304   0.012 -0.1972  1.3569  1.8058
 8063WAT    EPW32974   1.606   7.301   0.003 -0.0783  0.1385  0.8429
 8064WAT      O32975   5.003   6.771   7.505 -0.0024 -0.0665  0.0745
 8064WAT     H132976   5.025   6.855   7.514  1.0899 -0.5168  2.6004
 8064WAT     H232977   4.920   6.774   7.478  0.8725  1.7358 -2.8934
 8064WAT    EPW32978   4.994   6.784   7.503  0.2882  0.1332  0.0092
 8065WAT      O32979   4.014   3.755   4.959  0.4486 -0.2883 -0.2317
 8065WAT     H132980   3.973   3.787   5.030  2.5163 -1.6164  1.6967
 8065WAT     H232981   4.031   3.826   4.911  0.5184  0.9009  1.4604
 8065WAT    EPW32982   4.010   3.770   4.963  0.7644 -0.3088  0.3031
 8066WAT      O32983   1.547   4.745   5.473  0.0312 -0.3332 -0.4554
 8066WAT     H132984   1.553   4.763   5.559 -2.3626 -2.3080  0.2667
 8066WAT     H232985   1.629   4.733   5.449  0.9482  1.9342  1.1091
 8066WAT    EPW32986   1.560   4.746   5.482 -0.1869 -0.2900 -0.1176
 8067WAT      O32987   5.703   7.597   7.008 -0.4034  0.0846 -0.5738
 8067WAT     H132988   5.635   7.625   7.056 -0.4711 -0.8601 -0.1043
 8067WAT     H232989   5.686   7.628   6.928 -0.0610  2.0970  0.0721
 8067WAT    EPW32990   5.691   7.606   7.003 -0.3629  0.2423 -0.4090
 8068WAT      O32991   2.142   5.670   3.349 -0.6722  0.0364 -0.6339
 8068WAT     H132992   2.180   5.726   3.294 -1.6207  0.6491 -0.6935
 8068WAT     H232993   2.136   5.715   3.423 -0.3554 -0.4145 -0.3327
 8068WAT    EPW32994   2.146   5.684   3.352 -0.7655  0.0603 -0.5982
 8069WAT      O32995   6.021   1.849   1.448 -0.4971 -0.2480  0.2426
 8069WAT     H132996   6.079   1.848   1.382 -0.6493 -2.7720  0.0299
 8069WAT     H232997   5.998   1.932   1.455  1.7001  0.5294 -0.9722
 8069WAT    EPW32998   6.026   1.861   1.439 -0.1950 -0.5060  0.0317
 8070WAT      O32999   3.605   1.738   5.515  0.4967  0.1439  0.3538
 8070WAT     H133000   3.666   1.676   5.518 -1.7466 -2.2977 -0.4266
 8070WAT     H233001   3.558   1.724   5.588  0.0457  1.0500  0.2536
 8070WAT    EPW33002   3.607   1.726   5.526  0.0987 -0.0830  0.2237
 8071WAT      O33003   3.267   5.912   7.439  0.2868  0.2341  0.0179
 8071WAT     H133004   3.188   5.933   7.409 -0.1214 -0.4712  0.5632
 8071WAT     H233005   3.312   5.891   7.367  0.3544  1.7624 -0.4136
 8071WAT    EPW33006   3.262   5.912   7.424  0.2365  0.3557  0.0347
 8072WAT      O33007   3.604   5.943   5.287 -0.6020 -0.3260 -0.0218
 8072WAT     H133008   3.521   5.953   5.313 -0.3700  1.1636  0.1982
 8072WAT     H233009   3.643   6.016   5.312  0.7816 -0.9587 -0.2150
 8072WAT    EPW33010   3.597   5.955   5.295 -0.3633 -0.1994 -0.0179
 8073WAT      O33011   5.635   5.780   4.173  0.5762 -0.2209 -0.1152
 8073WAT     H133012   5.588   5.836   4.125  1.1303 -0.6981 -1.2620
 8073WAT     H233013   5.714   5.782   4.135  1.1739 -0.2667  1.0882
 8073WAT    EPW33014   5.640   5.788   4.160  0.7464 -0.2982 -0.1069
 8074WAT      O33015   4.911   5.496   0.488  0.2093 -0.1901 -0.3787
 8074WAT     H133016   4.923   5.555   0.552  0.7784 -0.5201 -0.1722
 8074WAT     H233017   4.824   5.490   0.481  0.1279  1.0087 -0.7125
 8074WAT    EPW33018   4.900   5.504   0.496  0.2813 -0.0618 -0.3975
 8075WAT      O33019   7.331   3.502   7.515 -0.3383 -0.1071 -0.2058
 8075WAT     H133020   7.394   3.495   7.455  0.7824 -2.0418  1.1313
 8075WAT     H233021   7.371   3.541   7.582 -0.9295 -0.1814  0.1910
 8075WAT    EPW33022   7.346   3.507   7.516 -0.2601 -0.4039  0.0503
 8076WAT      O33023   6.004   0.555   7.160  0.6943 -0.4272 -0.3966
 8076WAT     H133024   5.949   0.588   7.219  0.2346 -1.5770 -0.1673
 8076WAT     H233025   6.075   0.535   7.207 -0.0878 -2.4137  0.0369
 8076WAT    EPW33026   6.006   0.557   7.176  0.5109 -0.8905 -0.2987
 8077WAT      O33027   4.711   2.304   2.715 -0.6268  0.1057 -0.6361
 8077WAT     H133028   4.746   2.224   2.712  1.3473  0.8649  0.4758
 8077WAT     H233029   4.713   2.324   2.800  0.9039  2.1331 -1.0822
 8077WAT    EPW33030   4.716   2.295   2.727 -0.1090  0.5173 -0.5377
 8078WAT      O33031   3.769   5.064   0.948  0.3628 -0.1732  0.8443
 8078WAT     H133032   3.788   5.089   1.030 -1.1223  2.5633  0.4846
 8078WAT     H233033   3.705   5.006   0.959 -1.2204  1.5965  1.7017
 8078WAT    EPW33034   3.762   5.059   0.962 -0.0905  0.4925  0.9178
 8079WAT      O33035   3.150   2.740   1.779 -0.3405  0.3069  0.6601
 8079WAT     H133036   3.184   2.798   1.724  0.8510 -1.6244 -0.7425
 8079WAT     H233037   3.087   2.785   1.819  0.5743  2.5757 -0.2658
 8079WAT    EPW33038   3.146   2.755   1.777 -0.0294  0.3567  0.3161
 8080WAT      O33039   2.026  -0.003   7.640 -0.4813  0.3860 -0.2674
 8080WAT     H133040   2.027   0.084   7.642 -0.9817  0.3781  0.3118
 8080WAT     H233041   2.054  -0.027   7.719 -0.7973  0.0205 -0.2616
 8080WAT    EPW33042   2.030   0.006   7.652 -0.6019  0.3308 -0.1810
 8081WAT      O33043   3.164   6.340   1.895 -0.2755 -0.4083  0.2787
 8081WAT     H133044   3.164   6.262   1.935 -0.7172 -1.1540 -1.1145
 8081WAT     H233045   3.199   6.394   1.954  1.4076 -1.9277  0.7337
 8081WAT    EPW33046   3.169   6.337   1.910 -0.0921 -0.7429  0.1401
 8082WAT      O33047   1.291   1.174   3.593  0.0123  0.3130  0.0002
 8082WAT     H133048   1.218   1.219   3.607  1.0093  1.5273  1.7041
 8082WAT     H233049   1.276   1.133   3.517 -2.5408  0.2330  0.4557
 8082WAT    EPW33050   1.278   1.175   3.584 -0.2176  0.4806  0.3192
 8083WAT      O33051   1.257   4.337   3.342  0.1861  0.2779 -0.4216
 8083WAT     H133052   1.196   4.298   3.390 -0.0900  2.4699  1.1162
 8083WAT     H233053   1.282   4.274   3.287 -3.0945 -0.8499 -0.8408
 8083WAT    EPW33054   1.252   4.322   3.341 -0.3393  0.4351 -0.2564
 8084WAT      O33055   1.721   2.958   7.427  0.5534 -0.1749  0.4349
 8084WAT     H133056   1.733   3.022   7.485 -1.4704  2.0131 -1.3351
 8084WAT     H233057   1.729   2.998   7.350 -0.4132 -2.1417 -0.7734
 8084WAT    EPW33058   1.724   2.973   7.424  0.1116 -0.1422 -0.0051
 8085WAT      O33059   2.330   5.341   0.708 -0.4010  0.2299  0.0690
 8085WAT     H133060   2.339   5.269   0.756  0.5157  0.2475 -0.0682
 8085WAT     H233061   2.249   5.368   0.728 -0.7657 -0.8352  0.1036
 8085WAT    EPW33062   2.319   5.334   0.718 -0.3195  0.0751  0.0539
 8086WAT      O33063   0.020   3.785   7.627  0.0731  0.4170  0.2651
 8086WAT     H133064   0.091   3.808   7.672  0.3241 -0.8796  0.5755
 8086WAT     H233065  -0.043   3.783   7.687 -0.0415  0.7036  0.1565
 8086WAT    EPW33066   0.021   3.788   7.642  0.0932  0.2678  0.2949
 8087WAT      O33067   2.295   3.781   3.224 -0.0793  0.4497  0.3839
 8087WAT     H133068   2.378   3.759   3.237 -0.1599  0.0722  0.2716
 8087WAT     H233069   2.250   3.715   3.260 -0.3396  0.9490  0.9891
 8087WAT    EPW33070   2.301   3.768   3.231 -0.1297  0.4677  0.4567
 8088WAT      O33071   5.567   7.386   1.378  0.2822 -0.0617 -0.4490
 8088WAT     H133072   5.515   7.451   1.352 -0.1171 -0.1451  0.1320
 8088WAT     H233073   5.615   7.369   1.307  0.9433  1.3903 -0.3924
 8088WAT    EPW33074   5.566   7.393   1.363  0.3209  0.1405 -0.3548
 8089WAT      O33075   5.303   3.906   6.361  0.2631 -0.1750  0.1091
 8089WAT     H133076   5.264   3.886   6.437  0.4837 -0.4200  0.1597
 8089WAT     H233077   5.268   3.851   6.304  0.9950 -0.8467  0.2827
 8089WAT    EPW33078   5.292   3.895   6.364  0.4038 -0.3104  0.1422
 8090WAT      O33079   2.819   0.970   0.983 -0.4072 -0.0844  0.1801
 8090WAT     H133080   2.879   0.990   0.923 -1.3710  2.0492 -0.1966
 8090WAT     H233081   2.863   0.971   1.058  0.4859 -1.0730 -0.3154
 8090WAT    EPW33082   2.834   0.973   0.985 -0.4176  0.0847  0.0513
 8091WAT      O33083   2.161   2.416   2.254 -0.2364 -0.0600  0.2917
 8091WAT     H133084   2.214   2.357   2.216  0.2735  0.5798 -0.0298
 8091WAT     H233085   2.196   2.427   2.333  0.4602  0.7771 -0.1213
 8091WAT    EPW33086   2.174   2.409   2.260 -0.0582  0.1582  0.1832
 8092WAT      O33087   5.831   3.086   5.899  0.1335 -0.0578 -0.0680
 8092WAT     H133088   5.881   3.030   5.855 -1.3143 -2.0573  0.6638
 8092WAT     H233089   5.845   3.065   5.982 -1.7041 -0.5337  0.1624
 8092WAT    EPW33090   5.840   3.075   5.905 -0.3518 -0.4234  0.0741
 8093WAT      O33091   3.023   3.280   2.651  0.3562 -0.9078 -0.3755
 8093WAT     H133092   3.063   3.207   2.676  0.2135 -1.2881 -1.1999
 8093WAT     H233093   3.080   3.343   2.671 -0.3599 -0.9821  2.2547
 8093WAT    EPW33094   3.037   3.278   2.657  0.2294 -0.9749 -0.1087
 8094WAT      O33095   1.665   0.312   3.582 -0.5791  0.3965  0.1335
 8094WAT     H133096   1.613   0.372   3.545 -0.6561  1.3120  1.6642
 8094WAT     H233097   1.741   0.324   3.541 -0.8092  0.9938 -0.1415
 8094WAT    EPW33098   1.668   0.323   3.570 -0.6244  0.6200  0.3190
 8095WAT      O33099   4.598   6.620   7.022  0.3504  0.1309  0.0824
 8095WAT     H133100   4.534   6.576   7.064  2.0363 -0.5235  2.1489
 8095WAT     H233101   4.590   6.701   7.053 -0.7227  0.5682 -1.2524
 8095WAT    EPW33102   4.587   6.625   7.033  0.4409  0.0988  0.1905
 8096WAT      O33103   1.613   6.503   0.916 -0.0067 -0.0553 -0.7462
 8096WAT     H133104   1.542   6.553   0.918  0.1166  0.1474 -1.3231
 8096WAT     H233105   1.679   6.561   0.912  0.4100 -0.0879  2.5804
 8096WAT    EPW33106   1.612   6.519   0.916  0.0731 -0.0301 -0.3400
 8097WAT      O33107   2.701   1.104   7.747  0.0941  0.4308 -0.6363
 8097WAT     H133108   2.638   1.117   7.688 -0.3938 -1.6127 -0.6158
 8097WAT     H233109   2.728   1.185   7.765 -3.1327  1.5072  0.0253
 8097WAT    EPW33110   2.696   1.118   7.741 -0.4546  0.2879 -0.5356
 8098WAT      O33111   3.565   2.246   1.150  0.4808  0.1582 -0.0364
 8098WAT     H133112   3.547   2.328   1.172 -3.7427 -0.3596 -0.8231
 8098WAT     H233113   3.604   2.253   1.072  0.7818  1.3651  0.2023
 8098WAT    EPW33114   3.568   2.259   1.142 -0.0986  0.2600 -0.1174
 8099WAT      O33115   7.526   7.560   0.138 -0.1110  0.3451 -0.0283
 8099WAT     H133116   7.557   7.639   0.120  0.5257 -0.2561 -1.8344
 8099WAT     H233117   7.594   7.508   0.122 -0.6404 -0.6121  0.7302
 8099WAT    EPW33118   7.541   7.564   0.133 -0.0952  0.1149 -0.1831
 8100WAT      O33119   2.094   4.791   5.028 -0.1954 -0.3775  0.2482
 8100WAT     H133120   2.115   4.765   4.947  2.4389  1.3459  0.2479
 8100WAT     H233121   2.101   4.878   5.024 -0.4428 -0.2215  2.2319
 8100WAT    EPW33122   2.098   4.800   5.016  0.1572 -0.0999  0.5412
 8101WAT      O33123   5.954   5.566   6.302  0.1501 -0.1270  0.2039
 8101WAT     H133124   6.013   5.562   6.239 -0.7261 -1.3899 -0.5865
 8101WAT     H233125   5.929   5.649   6.303  1.5342  0.3056  0.2023
 8101WAT    EPW33126   5.959   5.578   6.293  0.2252 -0.2497  0.0869
 8102WAT      O33127   1.516   7.394   3.786 -0.1975 -0.2716  0.4578
 8102WAT     H133128   1.603   7.384   3.794  0.0899  1.3162 -0.4145
 8102WAT     H233129   1.502   7.476   3.812 -1.1786  0.1043 -1.1428
 8102WAT    EPW33130   1.527   7.404   3.791 -0.3000  0.0185  0.0925
 8103WAT      O33131   0.861   2.368   6.974 -0.4230  0.1521  0.2720
 8103WAT     H133132   0.884   2.452   6.981 -0.3704  0.0673  1.3708
 8103WAT     H233133   0.774   2.371   6.967 -0.7296  0.2439  3.0112
 8103WAT    EPW33134   0.851   2.381   6.974 -0.4605  0.1532  0.8390
 8104WAT      O33135   1.692   5.990   0.475 -0.7209  0.0056 -0.0912
 8104WAT     H133136   1.610   6.007   0.452 -0.3473  1.3160 -0.5640
 8104WAT     H233137   1.737   5.999   0.401  0.0778  1.0778  0.4882
 8104WAT    EPW33138   1.687   5.994   0.461 -0.5477  0.3576 -0.0754
 8105WAT      O33139   2.398   2.018   7.627 -0.1524 -0.1220  0.6409
 8105WAT     H133140   2.331   2.019   7.571  1.4131 -1.5704 -1.4025
 8105WAT     H233141   2.437   1.942   7.612  2.0597  0.7218  1.6233
 8105WAT    EPW33142   2.394   2.007   7.616  0.4057 -0.2113  0.4842
 8106WAT      O33143   2.384   3.714   0.690 -0.0192 -0.6557 -0.3969
 8106WAT     H133144   2.360   3.798   0.697 -0.1832 -0.6517 -0.9553
 8106WAT     H233145   2.318   3.671   0.726 -0.3043 -0.5794 -0.8164
 8106WAT    EPW33146   2.371   3.720   0.696 -0.0855 -0.6439 -0.5413
 8107WAT      O33147   2.706   2.732   2.596 -0.0224  0.0964  0.4818
 8107WAT     H133148   2.710   2.690   2.520 -1.0556  0.1159  0.4130
 8107WAT     H233149   2.730   2.814   2.576  0.8391 -0.1677  0.4002
 8107WAT    EPW33150   2.710   2.738   2.582 -0.0478  0.0603  0.4596
 8108WAT      O33151   3.104   1.844   1.797 -0.1158 -0.3678 -0.4361
 8108WAT     H133152   3.166   1.905   1.805 -1.5827  1.3366 -1.1687
 8108WAT     H233153   3.099   1.832   1.710 -1.1539 -0.0534 -0.4355
 8108WAT    EPW33154   3.112   1.851   1.785 -0.4859 -0.0696 -0.5442
 8109WAT      O33155   5.720   0.223   5.000 -0.0280 -0.0588 -0.3994
 8109WAT     H133156   5.646   0.184   4.974  0.7040 -0.8114 -1.4322
 8109WAT     H233157   5.773   0.214   4.931  1.8463 -1.6369  1.1256
 8109WAT    EPW33158   5.717   0.216   4.986  0.3570 -0.4031 -0.3267
 8110WAT      O33159   3.980   7.051   3.444 -0.2008 -1.0494  0.1665
 8110WAT     H133160   3.991   7.028   3.361  1.2577  1.5434 -0.4853
 8110WAT     H233161   4.048   7.015   3.485 -0.2290 -1.2936  0.0001
 8110WAT    EPW33162   3.991   7.043   3.438  0.0105 -0.7025  0.0456
 8111WAT      O33163   4.612   3.504   4.287 -0.2010  0.5031 -0.0543
 8111WAT     H133164   4.611   3.469   4.368 -0.3040 -0.3837 -0.4256
 8111WAT     H233165   4.559   3.572   4.294 -0.1089  0.5184  0.6632
 8111WAT    EPW33166   4.604   3.509   4.300 -0.2026  0.3744 -0.0031
 8112WAT      O33167   2.471   6.208   6.078 -0.3723 -0.2268 -0.3736
 8112WAT     H133168   2.390   6.205   6.047 -0.3822 -3.2813 -0.3598
 8112WAT     H233169   2.468   6.156   6.148  1.1339  1.3391  0.9197
 8112WAT    EPW33170   2.459   6.200   6.084 -0.1513 -0.4467 -0.1805
 8113WAT      O33171   3.526   4.479   1.528 -0.0195 -0.0132 -0.5205
 8113WAT     H133172   3.553   4.547   1.480 -0.4671  0.4400 -0.1407
 8113WAT     H233173   3.486   4.517   1.595  0.5543 -0.6400  0.1894
 8113WAT    EPW33174   3.524   4.495   1.531 -0.0009 -0.0388 -0.3596
 8114WAT      O33175   0.561   2.214   6.189 -0.2921 -0.6759 -0.4100
 8114WAT     H133176   0.601   2.290   6.200 -1.1475 -0.0144 -1.5675
 8114WAT     H233177   0.576   2.194   6.105 -1.8372 -0.6817 -0.7288
 8114WAT    EPW33178   0.569   2.222   6.178 -0.6467 -0.5790 -0.6281
 8115WAT      O33179   3.722   4.017   6.411 -0.1534  0.2837  0.2353
 8115WAT     H133180   3.804   4.045   6.395 -0.4724  1.2214  0.1682
 8115WAT     H233181   3.678   4.091   6.426 -1.5326  0.0317 -2.0984
 8115WAT    EPW33182   3.728   4.032   6.411 -0.4042  0.3850 -0.1194
 8116WAT      O33183   1.159   4.767   4.114  0.2926 -0.2815  0.0299
 8116WAT     H133184   1.112   4.746   4.184 -0.7413  0.9048 -0.2662
 8116WAT     H233185   1.101   4.807   4.061  1.3207 -0.0224 -0.9473
 8116WAT    EPW33186   1.143   4.770   4.116  0.2917 -0.0680 -0.1582
 8117WAT      O33187   5.102   5.335   0.023 -0.3740 -0.1489 -0.5501
 8117WAT     H133188   5.103   5.321  -0.063  1.3251  0.7026 -0.7134
 8117WAT     H233189   5.034   5.288   0.051 -0.7104 -0.7654 -2.2933
 8117WAT    EPW33190   5.092   5.326   0.014 -0.1727 -0.1142 -0.8317
 8118WAT      O33191   3.786   4.297   7.511  0.1327 -0.3162 -0.3326
 8118WAT     H133192   3.829   4.373   7.505  1.7289 -1.0772  0.8400
 8118WAT     H233193   3.849   4.239   7.528 -1.1015 -1.8599 -0.8289
 8118WAT    EPW33194   3.802   4.300   7.512  0.1862 -0.6566 -0.2327
 8119WAT      O33195   1.013   3.842   4.007 -0.3483  0.3804 -0.0500
 8119WAT     H133196   0.952   3.849   4.070 -0.3726  2.1472 -0.2194
 8119WAT     H233197   0.981   3.892   3.943 -1.2882 -2.8691 -2.3658
 8119WAT    EPW33198   0.999   3.851   4.007 -0.4907  0.1614 -0.4171
 8120WAT      O33199   1.987   2.447   0.418 -0.2983 -0.1890 -0.0100
 8120WAT     H133200   1.999   2.385   0.478 -0.6252 -0.0846  0.1701
 8120WAT     H233201   1.917   2.420   0.374 -0.0050 -0.3091 -0.4070
 8120WAT    EPW33202   1.979   2.434   0.420 -0.3033 -0.1913 -0.0420
 8121WAT      O33203   1.245   0.437   0.425 -0.3024  0.3714 -0.4368
 8121WAT     H133204   1.271   0.457   0.344  0.6514  3.3324  0.4755
 8121WAT     H233205   1.305   0.475   0.476 -1.6676 -0.1462  1.6900
 8121WAT    EPW33206   1.258   0.445   0.421 -0.3632  0.7323  0.0121
 8122WAT      O33207   2.946   6.817   2.990 -0.5185  0.1045  0.7127
 8122WAT     H133208   2.990   6.792   3.061 -1.4220 -1.2294  0.8276
 8122WAT     H233209   3.009   6.829   2.930  0.0614 -1.3792  0.9772
 8122WAT    EPW33210   2.962   6.815   2.991 -0.5663 -0.3117  0.7687
 8123WAT      O33211   1.265   2.435   0.108  0.4089  0.0969  0.1861
 8123WAT     H133212   1.312   2.508   0.120 -0.2606  0.4596  0.6430
 8123WAT     H233213   1.247   2.409   0.190  0.5316 -0.5180  0.0266
 8123WAT    EPW33214   1.269   2.442   0.122  0.3281  0.0597  0.2300
 8124WAT      O33215   4.266   5.247   6.430  0.0591  0.3809  0.6325
 8124WAT     H133216   4.252   5.282   6.351  1.1365 -0.5553  0.0092
 8124WAT     H233217   4.301   5.312   6.475  2.6420  0.0624 -0.6986
 8124WAT    EPW33218   4.269   5.261   6.425  0.5998  0.1955  0.3438
 8125WAT      O33219   2.933   7.657   2.891  0.8903  0.3339 -0.2607
 8125WAT     H133220   2.910   7.590   2.942  2.2295 -0.6771 -0.9073
 8125WAT     H233221   2.859   7.680   2.853 -0.3094  1.5627  2.5536
 8125WAT    EPW33222   2.919   7.650   2.893  0.9109  0.3661  0.0595
 8126WAT      O33223   1.038   2.292   3.783  0.7702  0.1797 -0.4459
 8126WAT     H133224   1.058   2.358   3.730  0.0320  1.3286  0.6219
 8126WAT     H233225   1.099   2.296   3.845 -0.3709  1.1628  0.6755
 8126WAT    EPW33226   1.050   2.302   3.784  0.4926  0.4947 -0.1225
 8127WAT      O33227   4.230   1.889   1.371 -0.3574 -0.2258  0.0658
 8127WAT     H133228   4.159   1.905   1.418 -0.1331 -0.0425  0.3415
 8127WAT     H233229   4.232   1.955   1.313 -1.1585 -0.9544 -0.8366
 8127WAT    EPW33230   4.220   1.901   1.369 -0.4426 -0.3063 -0.0268
 8128WAT      O33231   4.017   3.492   7.560 -0.3966  0.0596  0.0423
 8128WAT     H133232   4.057   3.417   7.582  0.2973  0.0516 -1.1417
 8128WAT     H233233   3.980   3.518   7.634 -0.9529 -1.6424  0.4146
 8128WAT    EPW33234   4.018   3.485   7.574 -0.3763 -0.1930 -0.0776
 8129WAT      O33235   5.925   1.359   4.355 -0.2762 -0.2989  0.0440
 8129WAT     H133236   5.870   1.292   4.344 -1.2011  0.1690  1.4560
 8129WAT     H233237   5.984   1.328   4.411 -0.3026 -0.1538  0.1532
 8129WAT    EPW33238   5.925   1.345   4.362 -0.4167 -0.2083  0.2687
 8130WAT      O33239   2.461   7.336   5.650  0.7549  0.0305  0.0377
 8130WAT     H133240   2.502   7.412   5.660  3.7135 -1.3944 -0.2143
 8130WAT     H233241   2.509   7.295   5.590 -2.0622 -1.2249 -1.5314
 8130WAT    EPW33242   2.474   7.341   5.642  0.7758 -0.3654 -0.2313
 8131WAT      O33243   4.418   5.616   4.743 -0.5172 -0.0890  0.0213
 8131WAT     H133244   4.428   5.548   4.797  2.2862 -0.1936 -0.4694
 8131WAT     H233245   4.333   5.613   4.722 -0.3793 -4.2917 -0.9756
 8131WAT    EPW33246   4.407   5.605   4.748 -0.0827 -0.7253 -0.1984
 8132WAT      O33247   1.833   5.131   2.508  0.2568 -0.2110 -0.5052
 8132WAT     H133248   1.876   5.086   2.570 -0.0921 -0.1198 -0.1924
 8132WAT     H233249   1.896   5.169   2.462  0.5171 -0.2275 -0.1617
 8132WAT    EPW33250   1.848   5.130   2.511  0.2437 -0.1999 -0.4082
 8133WAT      O33251   5.057   2.999   1.133 -0.1050 -0.0005 -0.1002
 8133WAT     H133252   4.991   2.967   1.180  0.6215 -0.3777  0.6922
 8133WAT     H233253   5.038   3.083   1.123 -0.6449 -0.0844  0.2273
 8133WAT    EPW33254   5.045   3.006   1.139 -0.0774 -0.0686  0.0652
 8134WAT      O33255   2.191   0.151   3.412  0.5916  0.2616  0.4201
 8134WAT     H133256   2.192   0.068   3.439  1.0921  0.5431  1.2924
 8134WAT     H233257   2.115   0.182   3.442 -0.0128 -0.1209 -0.6808
 8134WAT    EPW33258   2.180   0.143   3.420  0.5762  0.2467  0.3863
 8135WAT      O33259   0.358   3.883   7.461  0.1905  0.1547  0.4860
 8135WAT     H133260   0.443   3.883   7.480 -0.2048 -1.1816  2.5415
 8135WAT     H233261   0.350   3.820   7.401  0.3438 -1.5354  2.1713
 8135WAT    EPW33262   0.369   3.874   7.455  0.1547 -0.2924  1.0386
 8136WAT      O33263   3.055   2.409   4.629  0.0288 -0.2411  0.1719
 8136WAT     H133264   3.017   2.485   4.609  1.7002  0.5905 -0.0616
 8136WAT     H233265   3.131   2.413   4.587  0.5118 -1.6834  0.8511
 8136WAT    EPW33266   3.061   2.421   4.620  0.3471 -0.3313  0.2378
 8137WAT      O33267   3.964   6.216   1.512  0.1466 -0.1439  0.2187
 8137WAT     H133268   3.891   6.263   1.505 -0.1969 -0.5646  0.9643
 8137WAT     H233269   3.992   6.210   1.429 -0.6234  0.0747 -0.0642
 8137WAT    EPW33270   3.958   6.222   1.499 -0.0179 -0.1738  0.2871
 8138WAT      O33271   2.425   2.033   6.958  0.5452 -0.6681 -0.0439
 8138WAT     H133272   2.467   1.996   7.025 -0.6148 -1.2074  0.4309
 8138WAT     H233273   2.341   2.019   6.978  0.1730 -0.4973 -1.4255
 8138WAT    EPW33274   2.418   2.025   6.971  0.3189 -0.7226 -0.1779
 8139WAT      O33275   1.733   7.271   0.379  0.0610  0.2057 -0.0564
 8139WAT     H133276   1.739   7.353   0.351 -0.4571 -0.0690 -1.0329
 8139WAT     H233277   1.774   7.272   0.456  0.8274  1.1803 -0.4559
 8139WAT    EPW33278   1.740   7.283   0.386  0.0977  0.3091 -0.2597
 8140WAT      O33279   3.411   3.796   5.714  0.3418  0.4636  0.1852
 8140WAT     H133280   3.413   3.729   5.770 -1.7415  0.7050  0.6464
 8140WAT     H233281   3.347   3.775   5.659  0.2901  1.6319 -0.2369
 8140WAT    EPW33282   3.402   3.783   5.714  0.0264  0.6718  0.1910
 8141WAT      O33283   1.708   4.092   5.791  0.2304  0.3089 -0.0940
 8141WAT     H133284   1.739   4.019   5.827  0.6009 -0.1936 -1.3940
 8141WAT     H233285   1.747   4.095   5.713 -1.2537  0.8576 -0.8541
 8141WAT    EPW33286   1.718   4.081   5.785  0.0659  0.3157 -0.3983
 8142WAT      O33287   2.920   3.505   5.400  0.5163  0.1261 -0.4707
 8142WAT     H133288   2.939   3.456   5.330  2.8141  1.5893 -0.9825
 8142WAT     H233289   2.944   3.586   5.375 -0.4905  1.0343  1.3281
 8142WAT    EPW33290   2.926   3.510   5.386  0.7070  0.4764 -0.2806
 8143WAT      O33291   1.865   6.927   5.678  0.4204  0.4592  0.3656
 8143WAT     H133292   1.794   6.975   5.693 -1.8335 -2.4807  0.0210
 8143WAT     H233293   1.858   6.905   5.594  0.1620 -2.0613  0.9644
 8143WAT    EPW33294   1.853   6.931   5.668  0.0493 -0.3474  0.4031
 8144WAT      O33295   2.319   3.809   2.634  0.1506  0.1359 -0.3843
 8144WAT     H133296   2.331   3.784   2.551  1.8585  1.2226 -0.5121
 8144WAT     H233297   2.308   3.734   2.677  1.5365 -0.6119 -1.2590
 8144WAT    EPW33298   2.319   3.794   2.628  0.6076  0.1859 -0.5324
 8145WAT      O33299   4.109   0.048   5.964 -0.2356  0.4761 -0.5358
 8145WAT     H133300   4.062   0.122   5.965  0.4206  0.9407  1.6294
 8145WAT     H233301   4.073   0.000   6.027  0.3756 -0.4029 -0.8344
 8145WAT    EPW33302   4.097   0.052   5.973 -0.0484  0.4149 -0.2601
 8146WAT      O33303   2.591   7.216   0.743  0.3069 -0.2578  0.3144
 8146WAT     H133304   2.633   7.285   0.709  0.0750  0.3575  1.2298
 8146WAT     H233305   2.601   7.227   0.830  0.0024 -1.2141  0.4789
 8146WAT    EPW33306   2.599   7.228   0.751  0.2277 -0.3082  0.4739
 8147WAT      O33307   2.059   2.928   0.631 -0.7653 -0.0717 -0.0674
 8147WAT     H133308   2.001   2.879   0.587 -1.3516  1.1505 -0.7093
 8147WAT     H233309   2.017   2.945   0.706 -1.3724  1.0085 -0.6272
 8147WAT    EPW33310   2.044   2.923   0.635 -0.9416  0.2685 -0.2449
 8148WAT      O33311   3.696   2.748   5.336  1.0543  0.2707  0.3908
 8148WAT     H133312   3.689   2.801   5.404 -0.7233  1.6062 -0.7328
 8148WAT     H233313   3.617   2.753   5.298  1.5568 -1.4320 -1.0418
 8148WAT    EPW33314   3.683   2.756   5.340  0.8659  0.2165  0.0132
 8149WAT      O33315   4.728   5.001   6.310  0.1446 -0.3005 -0.6272
 8149WAT     H133316   4.796   5.003   6.365  0.4659  1.9250 -1.0389
 8149WAT     H233317   4.660   5.021   6.361 -0.0055 -1.1119 -0.4966
 8149WAT    EPW33318   4.728   5.004   6.326  0.1699 -0.0916 -0.6687
 8150WAT      O33319   2.575   5.722   0.454 -0.5949 -0.1501  0.2120
 8150WAT     H133320   2.500   5.719   0.498 -0.0457 -0.0992  1.1820
 8150WAT     H233321   2.619   5.653   0.483  0.2799  0.5792  0.6850
 8150WAT    EPW33322   2.570   5.712   0.465 -0.3846 -0.0349  0.4252
 8151WAT      O33323   1.586   2.170   5.114 -0.0464 -0.0712  0.5402
 8151WAT     H133324   1.603   2.254   5.131 -1.0216 -0.0224  1.3894
 8151WAT     H233325   1.661   2.141   5.079  0.3906  1.0835  0.4570
 8151WAT    EPW33326   1.600   2.178   5.111 -0.1259  0.1066  0.6533
 8152WAT      O33327   2.509   2.795   4.901  0.6101  0.1270 -0.2667
 8152WAT     H133328   2.500   2.733   4.962 -1.1831  0.1508 -0.4635
 8152WAT     H233329   2.429   2.830   4.894  0.9110  0.5699 -2.1624
 8152WAT    EPW33330   2.496   2.791   4.909  0.3897  0.1960 -0.5758
 8153WAT      O33331   1.436   1.116   7.842 -0.5463 -0.1243 -0.0487
 8153WAT     H133332   1.490   1.058   7.877 -0.1976  0.3794  0.2584
 8153WAT     H233333   1.375   1.128   7.904 -0.8519 -0.4679 -0.2766
 8153WAT    EPW33334   1.435   1.109   7.856 -0.5399 -0.1007 -0.0370
 8154WAT      O33335   2.002   5.937   6.384 -0.3977  0.6118 -0.2748
 8154WAT     H133336   2.009   6.003   6.327  0.4505  1.0882  0.3451
 8154WAT     H233337   2.063   5.956   6.444 -0.6987 -0.3150  0.3443
 8154WAT    EPW33338   2.012   5.950   6.385 -0.3168  0.5453 -0.0918
 8155WAT      O33339   2.451   0.647   1.354 -0.0320 -0.4999 -0.1835
 8155WAT     H133340   2.483   0.729   1.357 -0.3520 -0.3597 -0.5795
 8155WAT     H233341   2.428   0.637   1.271  1.3597 -1.5250 -0.4847
 8155WAT    EPW33342   2.453   0.658   1.342  0.1263 -0.6306 -0.2865
 8156WAT      O33343   2.495   2.010   5.840  0.4588  0.7045  0.2750
 8156WAT     H133344   2.568   2.043   5.805  2.0343 -2.2596  0.4524
 8156WAT     H233345   2.510   2.016   5.926 -0.1537  1.3282  0.3451
 8156WAT    EPW33346   2.508   2.016   5.848  0.6010  0.3588  0.3116
 8157WAT      O33347   2.034   6.170   1.899  0.4768 -0.0905  0.0243
 8157WAT     H133348   2.016   6.153   1.815  1.0644  0.1904 -0.1576
 8157WAT     H233349   1.955   6.173   1.936  0.1113  1.2479 -0.7887
 8157WAT    EPW33350   2.019   6.168   1.892  0.5096  0.1487 -0.1227
 8158WAT      O33351   3.051   1.210   7.137  0.5023 -0.6849  0.1919
 8158WAT     H133352   3.040   1.148   7.077  2.3208 -0.5891 -0.2889
 8158WAT     H233353   3.078   1.166   7.208 -3.2130 -1.0140  1.6112
 8158WAT    EPW33354   3.053   1.194   7.139  0.2221 -0.7194  0.3306
 8159WAT      O33355   3.278   2.978   2.305  0.2443 -0.0548  0.4938
 8159WAT     H133356   3.351   2.946   2.270  0.9684  1.0179  0.9707
 8159WAT     H233357   3.303   3.053   2.340 -1.4886  1.3364 -1.0201
 8159WAT    EPW33358   3.292   2.984   2.305  0.0953  0.3092  0.3406
 8160WAT      O33359   4.259   2.193   2.397  0.5669 -0.3501 -0.0517
 8160WAT     H133360   4.339   2.176   2.427 -0.2759 -0.3322  2.4392
 8160WAT     H233361   4.259   2.279   2.384  0.6737 -0.2035  0.8880
 8160WAT    EPW33362   4.271   2.203   2.400  0.4582 -0.3258  0.4551
 8161WAT      O33363   1.636   2.246   1.118  0.3508 -0.0839 -0.0121
 8161WAT     H133364   1.695   2.220   1.176  1.2627  1.9743  0.0860
 8161WAT     H233365   1.678   2.240   1.042 -0.5223 -1.8637 -0.4138
 8161WAT    EPW33366   1.651   2.241   1.115  0.3565 -0.0428 -0.0570
 8162WAT      O33367   5.754   3.558   4.663 -0.3279  0.0512 -0.3193
 8162WAT     H133368   5.772   3.472   4.660  3.0575  0.6209 -1.0131
 8162WAT     H233369   5.764   3.583   4.580  0.5858  1.3648  0.1540
 8162WAT    EPW33370   5.758   3.549   4.650  0.3072  0.3294 -0.3519
 8163WAT      O33371   3.411   1.058   7.617 -0.2125  0.3140  0.2604
 8163WAT     H133372   3.331   1.023   7.607 -0.2088 -0.2229  1.8915
 8163WAT     H233373   3.411   1.085   7.699  2.2237 -2.1890  1.2265
 8163WAT    EPW33374   3.399   1.057   7.627  0.1479 -0.1350  0.6441
 8164WAT      O33375   3.597   2.507   7.702  0.1650  0.4606 -0.1685
 8164WAT     H133376   3.511   2.503   7.686  0.0543  1.1804  0.1788
 8164WAT     H233377   3.601   2.532   7.786  0.6568  3.0819 -0.8756
 8164WAT    EPW33378   3.585   2.510   7.712  0.2213  0.9542 -0.2217
 8165WAT      O33379   3.516   2.061   6.301  0.2667 -0.7310 -0.8603
 8165WAT     H133380   3.599   2.046   6.322  0.7698  0.0967 -2.1332
 8165WAT     H233381   3.471   2.022   6.365  1.6482  0.3781  0.8777
 8165WAT    EPW33382   3.521   2.053   6.314  0.5451 -0.4449 -0.7916
 8166WAT      O33383   1.966   2.115   1.035  0.0616 -0.2827  0.0492
 8166WAT     H133384   2.021   2.054   1.007 -0.3624  0.1977 -1.9534
 8166WAT     H233385   1.891   2.096   0.994 -0.3587  0.9919  0.1720
 8166WAT    EPW33386   1.963   2.103   1.025 -0.0631 -0.0235 -0.2285
 8167WAT      O33387   4.978   3.838   3.807  0.4595 -0.6561  0.6316
 8167WAT     H133388   5.039   3.783   3.838 -0.6618 -0.8756  2.6735
 8167WAT     H233389   4.960   3.888   3.876 -0.7882  0.2159 -0.2931
 8167WAT    EPW33390   4.984   3.837   3.822  0.1095 -0.5597  0.7967
 8168WAT      O33391   1.624   4.659   1.642  0.2994 -0.4510 -0.5046
 8168WAT     H133392   1.616   4.584   1.599 -1.6828 -1.0225  0.7478
 8168WAT     H233393   1.597   4.640   1.722  0.0219  1.5330 -0.0772
 8168WAT    EPW33394   1.619   4.645   1.647 -0.0344 -0.2423 -0.2565
 8169WAT      O33395   3.344   3.597   1.576 -0.5212 -0.5372  0.1312
 8169WAT     H133396   3.401   3.656   1.607 -0.1908 -1.1205  0.6553
 8169WAT     H233397   3.359   3.597   1.490 -0.4202  0.0343  0.1436
 8169WAT    EPW33398   3.355   3.606   1.568 -0.4575 -0.5389  0.2105
 8170WAT      O33399   4.637   0.184   5.406 -0.3385 -0.0428 -0.4373
 8170WAT     H133400   4.697   0.169   5.345  1.2331  1.8462  0.5386
 8170WAT     H233401   4.564   0.199   5.361  0.2789 -0.7632 -1.7198
 8170WAT    EPW33402   4.635   0.184   5.391 -0.0151  0.1298 -0.4826
 8171WAT      O33403   5.238   7.143   6.353  0.0551 -0.1645  0.3385
 8171WAT     H133404   5.291   7.187   6.407  1.1426 -1.0367  0.0347
 8171WAT     H233405   5.206   7.080   6.403  0.5311 -0.5626  0.1538
 8171WAT    EPW33406   5.241   7.140   6.368  0.2861 -0.3522  0.2663
 8172WAT      O33407   0.904   6.805   6.970 -0.3816  0.2110  0.1621
 8172WAT     H133408   0.902   6.777   6.888  0.3853 -1.4291  0.6569
 8172WAT     H233409   0.821   6.825   6.988 -0.4243  1.4955 -1.2618
 8172WAT    EPW33410   0.891   6.804   6.961 -0.2746  0.1585  0.0248
 8173WAT      O33411   4.619   5.582   6.333 -0.5465 -0.2165 -0.0339
 8173WAT     H133412   4.669   5.638   6.290 -0.1961 -1.1050 -0.8308
 8173WAT     H233413   4.553   5.567   6.278 -1.4132  0.5263  0.7803
 8173WAT    EPW33414   4.617   5.588   6.319 -0.6228 -0.2380 -0.0313
 8174WAT      O33415   6.413   6.626   1.110 -0.4193 -0.1922 -0.2458
 8174WAT     H133416   6.440   6.634   1.193 -1.3491 -0.8090  0.1355
 8174WAT     H233417   6.348   6.683   1.103 -0.6013 -0.4161 -0.4240
 8174WAT    EPW33418   6.407   6.635   1.121 -0.5835 -0.3164 -0.2158
 8175WAT      O33419   3.389   0.363   7.247  0.0734 -0.1680 -0.1650
 8175WAT     H133420   3.433   0.375   7.173  0.8607  1.0031  0.4632
 8175WAT     H233421   3.368   0.444   7.272 -1.5575 -0.6262  0.1092
 8175WAT    EPW33422   3.392   0.376   7.240 -0.0513 -0.0627 -0.0317
 8176WAT      O33423   6.017   0.632   0.054  0.1349  0.1265 -0.1915
 8176WAT     H133424   5.942   0.642   0.012  1.5576  3.6723 -2.3536
 8176WAT     H233425   5.999   0.660   0.135 -1.4085 -1.6643  0.1363
 8176WAT    EPW33426   6.003   0.638   0.060  0.1171  0.3857 -0.4625
 8177WAT      O33427   2.897   5.733   6.247 -0.0604  0.1503  0.6578
 8177WAT     H133428   2.852   5.804   6.224  0.8722  1.0107  1.4323
 8177WAT     H233429   2.965   5.764   6.291 -0.3494 -1.2897  2.2388
 8177WAT    EPW33430   2.900   5.748   6.250  0.0347  0.0647  1.0057
 8178WAT      O33431   5.616   7.420   6.498 -0.2899 -0.0061 -0.0487
 8178WAT     H133432   5.653   7.415   6.577  1.9689  0.7305 -0.9691
 8178WAT     H233433   5.628   7.503   6.475  0.8486 -0.5913 -1.8779
 8178WAT    EPW33434   5.623   7.431   6.506  0.2120  0.0162 -0.4549
 8179WAT      O33435   2.044   5.896   0.116  0.6353  0.1134 -0.2451
 8179WAT     H133436   2.125   5.916   0.142 -0.5039  2.0830  2.2545
 8179WAT     H233437   2.031   5.948   0.047  1.0265  0.8353  0.2173
 8179WAT    EPW33438   2.054   5.907   0.110  0.5248  0.5110  0.1925
 8180WAT      O33439   6.122   1.689   7.527  0.8608 -0.2159 -0.2990
 8180WAT     H133440   6.104   1.757   7.579  0.8622  0.5910 -1.3372
 8180WAT     H233441   6.209   1.693   7.517  1.5897 -2.8003  2.8930
 8180WAT    EPW33442   6.132   1.699   7.533  0.9686 -0.4785  0.0192
 8181WAT      O33443   2.578   4.089   7.289  0.3715 -0.1718 -0.0377
 8181WAT     H133444   2.493   4.081   7.308  0.1642  1.6981  0.0307
 8181WAT     H233445   2.618   4.048   7.355 -0.4646  0.7610  1.0854
 8181WAT    EPW33446   2.571   4.082   7.301  0.2173  0.2422  0.1383
 8182WAT      O33447   1.914   4.382   4.423 -0.6826 -0.4170  0.3167
 8182WAT     H133448   1.867   4.444   4.463 -0.5197 -1.9127  3.1139
 8182WAT     H233449   1.931   4.325   4.488  2.1072 -1.6354 -1.3275
 8182WAT    EPW33450   1.909   4.382   4.439 -0.2464 -0.8180  0.4870
 8183WAT      O33451   1.748   7.296   1.429  0.0754  0.1709 -0.1887
 8183WAT     H133452   1.700   7.321   1.361 -1.5340 -0.6210  0.5843
 8183WAT     H233453   1.821   7.265   1.392 -0.1588  1.0220 -1.4417
 8183WAT    EPW33454   1.751   7.295   1.413 -0.1969  0.1796 -0.2596
 8184WAT      O33455   6.505   4.867   0.530  0.0715  0.9181  0.1486
 8184WAT     H133456   6.585   4.837   0.512 -0.3005  0.4519 -0.8154
 8184WAT     H233457   6.515   4.908   0.606  0.8751 -0.5353  0.8636
 8184WAT    EPW33458   6.519   4.869   0.538  0.1352  0.6345  0.1118
 8185WAT      O33459   3.642   3.788   2.160 -0.1765 -0.0480  0.0682
 8185WAT     H133460   3.652   3.774   2.246  0.0348  0.2052  0.0851
 8185WAT     H233461   3.574   3.738   2.139  0.4204 -0.9285  0.1793
 8185WAT    EPW33462   3.633   3.778   2.169 -0.0571 -0.1407  0.0871
 8186WAT      O33463   0.596   2.999   5.356 -0.0778  0.0708 -0.6296
 8186WAT     H133464   0.599   2.913   5.365  1.4068  0.2179  0.6920
 8186WAT     H233465   0.523   3.022   5.397  0.8355 -0.3550  1.3571
 8186WAT    EPW33466   0.586   2.990   5.363  0.2764  0.0296 -0.1409
 8187WAT      O33467   1.565   4.617   1.893  0.6038 -0.0246  0.0045
 8187WAT     H133468   1.612   4.577   1.955 -0.7215  0.5338  1.4430
 8187WAT     H233469   1.488   4.577   1.897  0.8562 -0.8614 -2.2501
 8187WAT    EPW33470   1.561   4.605   1.903  0.4453 -0.0657 -0.1160
 8188WAT      O33471   3.828   4.494   3.227 -0.4140 -0.2817 -0.5792
 8188WAT     H133472   3.900   4.447   3.242 -0.9175 -0.7985  0.3650
 8188WAT     H233473   3.793   4.456   3.156  0.1194 -0.1741 -0.9007
 8188WAT    EPW33474   3.833   4.481   3.219 -0.4096 -0.3422 -0.4872
 8189WAT      O33475   2.023   1.268   5.181  0.4250  0.6773  0.1649
 8189WAT     H133476   2.093   1.216   5.187 -0.9332 -1.6194 -2.0386
 8189WAT     H233477   2.031   1.304   5.102 -1.2804 -0.4193 -0.5750
 8189WAT    EPW33478   2.034   1.265   5.171 -0.0276  0.1761 -0.2699
 8190WAT      O33479   1.265   6.455   0.777 -0.1446  0.0475 -0.3134
 8190WAT     H133480   1.318   6.488   0.716 -0.3303 -1.9193 -1.6315
 8190WAT     H233481   1.194   6.433   0.732 -1.3243  0.8557  1.0964
 8190WAT    EPW33482   1.263   6.456   0.761 -0.3463 -0.1237 -0.2999
 8191WAT      O33483   1.829   6.348   1.127  0.4601 -0.5104 -0.6057
 8191WAT     H133484   1.757   6.398   1.129  1.8786  1.7306  1.6792
 8191WAT     H233485   1.804   6.276   1.169 -0.6239 -0.0068 -0.3326
 8191WAT    EPW33486   1.815   6.345   1.134  0.5095 -0.1050 -0.2278
 8192WAT      O33487   4.609   6.817   0.874 -0.3745 -0.0159  0.1192
 8192WAT     H133488   4.572   6.895   0.862 -0.8147 -0.0315  1.2585
 8192WAT     H233489   4.564   6.765   0.821 -0.2089  0.4575 -0.5031
 8192WAT    EPW33490   4.597   6.821   0.865 -0.4151  0.0517  0.1956
 8193WAT      O33491   6.886   3.516   0.441 -0.4083  0.2670  0.2409
 8193WAT     H133492   6.900   3.444   0.394 -1.6678  0.2613 -0.1548
 8193WAT     H233493   6.885   3.486   0.523  1.1548  0.1816  0.2693
 8193WAT    EPW33494   6.888   3.501   0.446 -0.3635  0.2536  0.1866
 8194WAT      O33495   4.501   2.260   5.738  0.1999  0.5088  0.2072
 8194WAT     H133496   4.504   2.347   5.730 -0.0315  0.5835  0.9007
 8194WAT     H233497   4.579   2.240   5.771 -0.0878  0.5556  0.9323
 8194WAT    EPW33498   4.513   2.270   5.742  0.1232  0.5267  0.4168
 8195WAT      O33499   1.738   1.904   5.724 -0.4469 -0.2329 -0.0976
 8195WAT     H133500   1.805   1.904   5.668  1.2716 -1.1203  1.8031
 8195WAT     H233501   1.699   1.980   5.709  1.0567  0.3724 -1.2297
 8195WAT    EPW33502   1.742   1.915   5.714  0.0291 -0.2745  0.0159
 8196WAT      O33503   3.833   5.715   6.207  0.0220 -0.2789 -0.2621
 8196WAT     H133504   3.868   5.642   6.175  0.4683  0.2114 -0.9101
 8196WAT     H233505   3.809   5.760   6.136  1.1946  0.9031  0.0465
 8196WAT    EPW33506   3.835   5.711   6.192  0.2612 -0.0319 -0.3123
 8197WAT      O33507   3.152   4.434   0.615  0.2031  0.2747  0.2321
 8197WAT     H133508   3.135   4.407   0.696 -1.1215 -0.5158 -0.2700
 8197WAT     H233509   3.203   4.371   0.582 -2.5579 -1.6023 -0.8071
 8197WAT    EPW33510   3.157   4.421   0.622 -0.4004 -0.1193  0.0044
 8198WAT      O33511   2.924   2.208   5.356 -0.0031  0.0147 -0.1339
 8198WAT     H133512   2.946   2.246   5.432  0.2605  0.6104 -0.5020
 8198WAT     H233513   3.000   2.193   5.317 -0.1254 -0.5716 -0.1482
 8198WAT    EPW33514   2.938   2.212   5.362  0.0178  0.0161 -0.1904
 8199WAT      O33515   2.536   5.116   4.813  0.5675  0.4058 -0.3073
 8199WAT     H133516   2.471   5.149   4.764 -0.9873 -0.5912  0.9566
 8199WAT     H233517   2.530   5.161   4.887  0.6900 -0.3410  0.1643
 8199WAT    EPW33518   2.525   5.127   4.817  0.3559  0.1482 -0.0510
 8200WAT      O33519   7.317   1.444   5.854  0.2479  0.0250 -0.0673
 8200WAT     H133520   7.282   1.508   5.903 -0.8256 -0.7940  0.2707
 8200WAT     H233521   7.255   1.383   5.854  1.6855 -1.4951  0.5279
 8200WAT    EPW33522   7.303   1.444   5.861  0.3017 -0.3205  0.0706
 8201WAT      O33523   7.227   3.426   4.988 -0.3352  0.0615  0.2876
 8201WAT     H133524   7.166   3.364   4.987 -1.5333  1.2004 -0.1748
 8201WAT     H233525   7.302   3.382   4.981 -1.0619 -1.4072  1.2926
 8201WAT    EPW33526   7.229   3.410   4.987 -0.6195  0.0128  0.3677
 8202WAT      O33527   0.399   0.146   7.820  0.1510 -0.0927 -0.4372
 8202WAT     H133528   0.467   0.116   7.774  0.9726  0.0739  0.6256
 8202WAT     H233529   0.330   0.115   7.777  0.9212 -1.2296 -0.8997
 8202WAT    EPW33530   0.399   0.137   7.807  0.3862 -0.2360 -0.3485
 8203WAT      O33531   3.022   1.112   1.503 -0.7302  0.0235  0.0074
 8203WAT     H133532   3.002   1.065   1.574 -2.2691  1.4701  0.6286
 8203WAT     H233533   2.988   1.191   1.521 -0.6343  0.6122 -2.0857
 8203WAT    EPW33534   3.014   1.117   1.516 -0.9433  0.3242 -0.2100
 8204WAT      O33535   2.651   2.231   2.979  0.4562  0.3892  0.4797
 8204WAT     H133536   2.694   2.301   3.008  1.8446 -0.1599 -0.1899
 8204WAT     H233537   2.652   2.241   2.892  3.6372 -2.0523  0.0885
 8204WAT    EPW33538   2.657   2.243   2.970  1.1312 -0.0526  0.3230
 8205WAT      O33539   0.645   3.681   6.731 -0.3581 -0.5539  0.1918
 8205WAT     H133540   0.645   3.716   6.651  0.6452 -0.3993  0.2385
 8205WAT     H233541   0.585   3.618   6.726 -0.4198 -0.4421 -0.6392
 8205WAT    EPW33542   0.636   3.677   6.718 -0.2190 -0.5145  0.0759
 8206WAT      O33543   3.287   6.545   1.451 -0.4969  0.0080  0.3320
 8206WAT     H133544   3.223   6.486   1.450 -0.9159  0.3939 -2.5147
 8206WAT     H233545   3.344   6.515   1.392  1.1623  0.5479  1.5827
 8206WAT    EPW33546   3.286   6.532   1.442 -0.3137  0.1448  0.0962
 8207WAT      O33547   4.501   2.541   5.711 -0.2373  0.6405  0.1398
 8207WAT     H133548   4.489   2.570   5.792  0.8921  0.0393  0.5429
 8207WAT     H233549   4.586   2.552   5.697 -0.0305 -1.1210 -0.2087
 8207WAT    EPW33550   4.511   2.547   5.721 -0.0399  0.2915  0.1479
 8208WAT      O33551   0.455   5.713   5.099 -0.2488  0.6627  0.2303
 8208WAT     H133552   0.411   5.732   5.172 -0.1960  0.7722  0.2348
 8208WAT     H233553   0.403   5.658   5.056  0.1618 -0.2284  0.8320
 8208WAT    EPW33554   0.441   5.708   5.104 -0.1803  0.5473  0.3199
 8209WAT      O33555   1.510   1.797   4.000  0.3524  0.3650 -0.0570
 8209WAT     H133556   1.483   1.879   4.015  0.8901  0.2640  1.6735
 8209WAT     H233557   1.555   1.777   4.072  0.8318 -1.2144 -0.7598
 8209WAT    EPW33558   1.512   1.806   4.013  0.5027  0.1168  0.0948
 8210WAT      O33559   6.931   7.653   6.304  0.0435  0.2664 -0.3622
 8210WAT     H133560   6.849   7.674   6.325 -0.0756  0.6136 -1.1154
 8210WAT     H233561   6.975   7.661   6.379  0.0589  3.5049 -0.5553
 8210WAT    EPW33562   6.925   7.657   6.318  0.0282  0.7961 -0.5020
 8211WAT      O33563   5.490   0.324   2.731 -0.6725 -0.6062  0.5658
 8211WAT     H133564   5.436   0.268   2.692 -1.4934  1.0149 -0.7913
 8211WAT     H233565   5.501   0.290   2.811 -2.0982 -2.0327  0.2130
 8211WAT    EPW33566   5.484   0.311   2.737 -1.0044 -0.5774  0.3132
 8212WAT      O33567   5.227   0.495   4.242  0.4132  0.1337  0.4317
 8212WAT     H133568   5.215   0.439   4.308 -0.1079  2.7348  2.7332
 8212WAT     H233569   5.270   0.448   4.183  1.3993 -2.2468  2.8418
 8212WAT    EPW33570   5.232   0.480   4.243  0.4819  0.1663  1.1277
 8213WAT      O33571   1.842   0.613   7.543 -0.3158 -0.4605 -0.6522
 8213WAT     H133572   1.788   0.679   7.526  0.4797  0.3420 -0.1585
 8213WAT     H233573   1.886   0.601   7.468  0.2637  0.2790 -0.4423
 8213WAT    EPW33574   1.841   0.621   7.529 -0.1127 -0.2327 -0.5483
 8214WAT      O33575   0.934   2.264   6.724  0.1376  0.5325  0.1499
 8214WAT     H133576   0.915   2.275   6.808 -1.1029 -1.5441  0.2164
 8214WAT     H233577   0.983   2.192   6.723 -0.6121 -0.0052 -0.9312
 8214WAT    EPW33578   0.938   2.255   6.736 -0.1564  0.1463  0.0000
 8215WAT      O33579   2.622   1.608   1.071  0.3993  0.1457 -0.1614
 8215WAT     H133580   2.609   1.684   1.112  1.5003 -0.3699  1.2495
 8215WAT     H233581   2.563   1.555   1.108  0.3687  0.0516 -0.3468
 8215WAT    EPW33582   2.612   1.611   1.083  0.5574  0.0556  0.0197
 8216WAT      O33583   2.479   7.271   5.068 -0.2244 -0.1201  0.2298
 8216WAT     H133584   2.436   7.282   4.993  2.1113 -1.4498 -1.4645
 8216WAT     H233585   2.544   7.329   5.063 -0.7107  0.6324  1.8734
 8216WAT    EPW33586   2.483   7.281   5.056  0.0488 -0.2054  0.2223
 8217WAT      O33587   0.951   2.146   6.265  0.2350  0.3305 -0.3229
 8217WAT     H133588   0.996   2.201   6.316  0.1773 -0.9593  1.1843
 8217WAT     H233589   0.877   2.134   6.309 -0.8731  1.0074 -1.8888
 8217WAT    EPW33590   0.946   2.153   6.279  0.0628  0.2400 -0.3316
 8218WAT      O33591   3.860   3.140   0.592  0.2629 -0.1027  0.0827
 8218WAT     H133592   3.932   3.110   0.553 -0.0007 -1.0927  0.3235
 8218WAT     H233593   3.891   3.195   0.652  0.7513  0.2854 -0.5140
 8218WAT    EPW33594   3.876   3.144   0.595  0.2961 -0.1916  0.0301
 8219WAT      O33595   6.152   2.758   7.077  0.1680 -0.4247 -0.1711
 8219WAT     H133596   6.091   2.820   7.077  1.0288  0.4687 -1.0765
 8219WAT     H233597   6.218   2.794   7.033  1.2244 -1.4863  0.4793
 8219WAT    EPW33598   6.153   2.772   7.070  0.4512 -0.4496 -0.2088
 8220WAT      O33599   2.360   4.500   5.768 -0.1457 -0.4897  0.5721
 8220WAT     H133600   2.287   4.544   5.750  1.4357  1.9604 -0.2796
 8220WAT     H233601   2.368   4.508   5.854 -0.2021  0.3658  0.5011
 8220WAT    EPW33602   2.350   4.508   5.778  0.0796 -0.0014  0.4358
 8221WAT      O33603   0.285   0.142   5.422 -0.1428 -0.5088  0.2890
 8221WAT     H133604   0.240   0.143   5.348  1.2364 -2.3400 -0.6528
 8221WAT     H233605   0.364   0.173   5.399  0.6510 -2.1353  0.6713
 8221WAT    EPW33606   0.290   0.147   5.408  0.1782 -1.0196  0.2063
 8222WAT      O33607   5.806   4.246   6.960  0.1438  0.1398  0.1721
 8222WAT     H133608   5.815   4.203   7.036  1.7863  1.5896  0.8794
 8222WAT     H233609   5.861   4.203   6.906  1.5209  1.0594  0.7810
 8222WAT    EPW33610   5.816   4.233   6.963  0.5899  0.4898  0.3665
 8223WAT      O33611   2.457   0.262   0.348  0.3089  0.1456  0.2595
 8223WAT     H133612   2.512   0.240   0.412  0.8306 -3.0431 -1.0927
 8223WAT     H233613   2.397   0.198   0.350  0.2208  0.0624 -2.2715
 8223WAT    EPW33614   2.456   0.249   0.358  0.3729 -0.3377 -0.3141
 8224WAT      O33615   6.198   7.427   6.081 -0.0827  0.1469 -0.4532
 8224WAT     H133616   6.223   7.459   6.158 -2.8666 -0.1340  0.6783
 8224WAT     H233617   6.112   7.442   6.079 -0.3820 -1.2833 -2.8190
 8224WAT    EPW33618   6.189   7.434   6.092 -0.5382 -0.1058 -0.6355
 8225WAT      O33619   2.965   0.082   5.467  0.4913 -0.3436 -0.1475
 8225WAT     H133620   2.949   0.004   5.433 -0.4023 -0.4093  0.3841
 8225WAT     H233621   3.011   0.064   5.539 -0.3406 -0.4454  0.3685
 8225WAT    EPW33622   2.969   0.068   5.473  0.2364 -0.3684  0.0072
 8226WAT      O33623   1.015   5.995   4.859 -0.2262 -0.7603 -0.2116
 8226WAT     H133624   0.961   5.955   4.804 -1.2768 -1.7815  1.4572
 8226WAT     H233625   0.968   6.062   4.889 -0.6746 -1.6829  1.2881
 8226WAT    EPW33626   1.000   5.999   4.856 -0.4477 -1.0474  0.2565
 8227WAT      O33627   2.831   4.413   0.579 -0.3456 -0.3206 -0.3775
 8227WAT     H133628   2.820   4.332   0.610 -0.0026 -0.2001  0.0642
 8227WAT     H233629   2.918   4.421   0.573 -0.3971 -0.2156 -1.0370
 8227WAT    EPW33630   2.842   4.402   0.583 -0.3026 -0.2873 -0.4097
 8228WAT      O33631   5.261   7.305   0.652 -0.4231 -0.4919  0.2762
 8228WAT     H133632   5.344   7.280   0.648 -0.1909  0.2926  0.1283
 8228WAT     H233633   5.227   7.253   0.713  0.5631  0.2909  1.5364
 8228WAT    EPW33634   5.268   7.294   0.660 -0.2431 -0.2603  0.4405
 8229WAT      O33635   4.277   2.172   1.516  0.1159  0.4885  0.3095
 8229WAT     H133636   4.273   2.147   1.432  0.7136 -0.5162  0.5575
 8229WAT     H233637   4.348   2.223   1.518 -0.5758  1.4797 -0.0196
 8229WAT    EPW33638   4.287   2.176   1.504  0.1020  0.4865  0.2975
 8230WAT      O33639   4.254   0.910   6.923 -0.2918 -0.1939 -0.2762
 8230WAT     H133640   4.185   0.900   6.871  0.2153  0.7163 -1.1551
 8230WAT     H233641   4.243   0.848   6.984 -1.4575 -0.5752 -0.8490
 8230WAT    EPW33642   4.242   0.899   6.924 -0.3891 -0.1158 -0.4907
 8231WAT      O33643   3.753   1.609   4.506  0.2761  0.0113  0.5114
 8231WAT     H133644   3.766   1.537   4.459  0.9567 -0.1537  0.9356
 8231WAT     H233645   3.810   1.601   4.573 -1.2503 -0.1920  1.8503
 8231WAT    EPW33646   3.764   1.597   4.509  0.1512 -0.0431  0.7719
 8232WAT      O33647   1.585   6.683   5.517  0.3570 -0.0966  0.1596
 8232WAT     H133648   1.518   6.737   5.531  0.2653  0.1810 -1.2318
 8232WAT     H233649   1.653   6.727   5.550  0.3415  1.0644 -1.2574
 8232WAT    EPW33650   1.585   6.697   5.524  0.3412  0.1159 -0.2553
 8233WAT      O33651   6.745   6.749   6.580  0.1581 -0.0830 -0.6007
 8233WAT     H133652   6.675   6.793   6.608  0.1093 -0.5879  0.1326
 8233WAT     H233653   6.793   6.809   6.541  1.1879  1.1876  2.3402
 8233WAT    EPW33654   6.741   6.764   6.579  0.3030  0.0301 -0.0579
 8234WAT      O33655   0.621   3.117   0.124  0.0639 -0.2402  0.2374
 8234WAT     H133656   0.536   3.097   0.122 -0.0994  0.4136  0.2910
 8234WAT     H233657   0.655   3.058   0.177 -0.1188 -1.3637 -0.8569
 8234WAT    EPW33658   0.613   3.106   0.131  0.0128 -0.3096  0.0837
 8235WAT      O33659   2.755   5.840   2.157  0.4887  0.0726 -0.2117
 8235WAT     H133660   2.833   5.807   2.177 -0.0009 -1.5021 -0.7747
 8235WAT     H233661   2.774   5.915   2.117  1.8050 -0.9592 -1.6024
 8235WAT    EPW33662   2.769   5.847   2.154  0.6108 -0.3125 -0.5003
 8236WAT      O33663   0.138   2.147   4.586 -0.3195  0.1567  0.3357
 8236WAT     H133664   0.109   2.085   4.532 -0.5814  1.0541 -0.5793
 8236WAT     H233665   0.069   2.199   4.597  0.2995  1.0818 -0.0709
 8236WAT    EPW33666   0.124   2.145   4.580 -0.2668  0.4259  0.1405
 8237WAT      O33667   1.937   3.336   4.616  0.1920 -0.1999  0.4981
 8237WAT     H133668   2.020   3.327   4.589  0.1414 -1.3849  0.6624
 8237WAT     H233669   1.903   3.256   4.603 -1.5236  0.7665 -1.5321
 8237WAT    EPW33670   1.944   3.323   4.610 -0.0689 -0.2322  0.2225
 8238WAT      O33671   4.431   1.554   7.787  0.3313  0.3251  0.8764
 8238WAT     H133672   4.485   1.491   7.813 -0.0839  0.7496  2.9294
 8238WAT     H233673   4.453   1.622   7.836  0.3102  1.6263 -0.8133
 8238WAT    EPW33674   4.442   1.555   7.798  0.2668  0.5800  0.9301
 8239WAT      O33675   1.516   2.951   7.815  0.1576 -0.5297  0.3246
 8239WAT     H133676   1.542   2.959   7.732  0.4584  0.1582  0.4834
 8239WAT     H233677   1.544   2.872   7.837  3.6701  0.7659  1.0134
 8239WAT    EPW33678   1.524   2.940   7.806  0.7209 -0.2367  0.4499
 8240WAT      O33679   4.378   3.041   5.700 -0.0004 -0.0550  0.0092
 8240WAT     H133680   4.439   2.979   5.690 -0.2753 -0.3240 -0.0041
 8240WAT     H233681   4.320   3.005   5.753 -0.9319 -0.3842 -1.2011
 8240WAT    EPW33682   4.379   3.027   5.706 -0.1786 -0.1433 -0.1715
 8241WAT      O33683   2.275   0.541   3.163  0.6954  0.2733  0.0177
 8241WAT     H133684   2.205   0.582   3.195  0.7323  0.4825 -0.1685
 8241WAT     H233685   2.244   0.462   3.142  0.4674  0.4348 -0.2596
 8241WAT    EPW33686   2.260   0.535   3.165  0.6672  0.3280 -0.0508
 8242WAT      O33687   1.567   1.503   3.357 -0.8074 -0.5903 -1.0040
 8242WAT     H133688   1.536   1.471   3.431  0.2767 -0.9909 -0.7066
 8242WAT     H233689   1.622   1.442   3.329  0.1609  0.3296 -1.1992
 8242WAT    EPW33690   1.570   1.490   3.364 -0.5042 -0.5136 -0.9889
 8243WAT      O33691   0.219   4.581   7.459  0.2494 -0.2319  0.3458
 8243WAT     H133692   0.215   4.530   7.530  1.0516 -1.2730 -0.3331
 8243WAT     H233693   0.304   4.591   7.445  0.1115 -0.4523 -0.7475
 8243WAT    EPW33694   0.231   4.575   7.467  0.3475 -0.4182  0.0840
 8244WAT      O33695   2.538   3.389   3.893 -0.3672  0.3434  0.0665
 8244WAT     H133696   2.557   3.359   3.973 -2.0421  0.4053  0.5461
 8244WAT     H233697   2.568   3.471   3.894  1.3185 -0.2486 -0.0751
 8244WAT    EPW33698   2.545   3.397   3.905 -0.3656  0.2651  0.1164
 8245WAT      O33699   4.451   4.181   6.204  0.0762 -0.0215  0.0183
 8245WAT     H133700   4.392   4.234   6.169  0.6373  0.8448  0.3307
 8245WAT     H233701   4.411   4.104   6.207 -1.0475  0.5494  0.2539
 8245WAT    EPW33702   4.437   4.177   6.199 -0.0069  0.1908  0.0993
 8246WAT      O33703   7.469   2.345   7.714  0.1022  0.2403 -0.1515
 8246WAT     H133704   7.490   2.300   7.642 -0.4119 -1.4512  0.7117
 8246WAT     H233705   7.387   2.370   7.699 -0.0424 -0.2043 -0.1096
 8246WAT    EPW33706   7.460   2.342   7.701  0.0049 -0.0753 -0.0178
 8247WAT      O33707   3.753   6.176   5.349  0.0823  0.3417  0.3320
 8247WAT     H133708   3.731   6.219   5.276 -2.3723 -0.4635  0.5177
 8247WAT     H233709   3.831   6.142   5.330 -1.2856 -1.4536 -2.6746
 8247WAT    EPW33710   3.761   6.178   5.335 -0.4823 -0.0425 -0.0847
 8248WAT      O33711   3.156   1.519   2.826 -0.1680  0.8889 -0.7989
 8248WAT     H133712   3.126   1.591   2.865 -1.1375 -0.5119  1.1675
 8248WAT     H233713   3.144   1.457   2.885  0.7010 -0.9141 -2.4175
 8248WAT    EPW33714   3.150   1.521   2.840 -0.1828  0.4156 -0.7475
 8249WAT      O33715   6.481   2.500   4.843 -0.1699  0.9022 -0.0043
 8249WAT     H133716   6.518   2.460   4.775 -2.4586 -1.3180 -0.0960
 8249WAT     H233717   6.535   2.480   4.909  1.1729  1.6595 -0.8242
 8249WAT    EPW33718   6.494   2.491   4.843 -0.3097  0.6861 -0.1389
 8250WAT      O33719   0.064   1.824   6.908  0.5079  0.3064  0.4042
 8250WAT     H133720  -0.010   1.783   6.888 -0.4842  2.8954 -1.8457
 8250WAT     H233721   0.125   1.775   6.869 -0.5860  0.6174 -1.8599
 8250WAT    EPW33722   0.062   1.811   6.899  0.1998  0.7348 -0.2626
 8251WAT      O33723   1.536   7.621   4.009  0.0893  0.3667 -0.3164
 8251WAT     H133724   1.518   7.664   3.935 -1.9308 -1.9241 -1.3059
 8251WAT     H233725   1.466   7.638   4.059 -1.2430 -2.2387 -1.0779
 8251WAT    EPW33726   1.523   7.630   4.005 -0.4059 -0.3566 -0.5750
 8252WAT      O33727   1.685   5.053   7.195  0.3716 -0.9431 -0.5021
 8252WAT     H133728   1.767   5.076   7.216 -0.0087  2.8159 -2.4448
 8252WAT     H233729   1.638   5.079   7.264  0.3210  1.6779 -1.4423
 8252WAT    EPW33730   1.690   5.060   7.208  0.3080 -0.0007 -0.9280
 8253WAT      O33731   6.456   7.574   5.208  0.4554  0.0014  0.5700
 8253WAT     H133732   6.385   7.538   5.243  1.2250  0.6978  3.0735
 8253WAT     H233733   6.425   7.618   5.139 -1.2009 -1.2936  0.4299
 8253WAT    EPW33734   6.441   7.575   5.203  0.3244 -0.0871  0.9191
 8254WAT      O33735   4.945   6.680   4.912  0.0630 -0.1107 -0.2586
 8254WAT     H133736   4.944   6.595   4.931 -0.3388 -0.1409 -0.3926
 8254WAT     H233737   4.865   6.694   4.881  0.5429  0.0205 -1.5114
 8254WAT    EPW33738   4.933   6.669   4.910  0.0745 -0.0958 -0.4635
 8255WAT      O33739   7.234   1.490   6.828  0.0857 -0.2447 -0.0829
 8255WAT     H133740   7.254   1.553   6.885  1.5668 -0.4601 -0.3149
 8255WAT     H233741   7.267   1.418   6.866  1.0379 -0.3999 -1.1615
 8255WAT    EPW33742   7.242   1.489   6.842  0.4452 -0.2995 -0.2765
 8256WAT      O33743   3.224   2.971   7.772  0.0083  0.0668  0.7404
 8256WAT     H133744   3.145   2.935   7.769  0.5587 -1.1776  0.4712
 8256WAT     H233745   3.261   2.935   7.842  1.3398 -1.6484 -0.7216
 8256WAT    EPW33746   3.218   2.961   7.782  0.2863 -0.3704  0.4847
 8257WAT      O33747   0.842   6.123   5.790 -0.2011 -0.3459 -0.2003
 8257WAT     H133748   0.900   6.138   5.853  0.2999  0.4486 -0.8363
 8257WAT     H233749   0.770   6.100   5.834 -0.1411  1.0760  0.7354
 8257WAT    EPW33750   0.840   6.122   5.806 -0.1182 -0.0185 -0.1561
 8258WAT      O33751   4.780   6.045   7.866  0.7132 -0.4962 -0.1711
 8258WAT     H133752   4.738   6.074   7.795  0.2534  0.3591  0.4269
 8258WAT     H233753   4.760   6.104   7.927  1.7487 -0.7773  0.4707
 8258WAT    EPW33754   4.771   6.058   7.864  0.7982 -0.4114  0.0121
 8259WAT      O33755   5.677   2.275   7.128 -0.1884  0.7596 -0.1375
 8259WAT     H133756   5.684   2.302   7.045 -2.5159 -0.2774 -0.7567
 8259WAT     H233757   5.608   2.222   7.127  0.7065 -0.6409  2.1560
 8259WAT    EPW33758   5.668   2.271   7.116 -0.4000  0.3996  0.1099
 8260WAT      O33759   3.400   2.019   0.363  0.4251  0.3566  0.2710
 8260WAT     H133760   3.410   2.053   0.283  1.1638  0.5338  0.4269
 8260WAT     H233761   3.474   1.974   0.375  0.4384  0.5503  0.9530
 8260WAT    EPW33762   3.412   2.018   0.353  0.5362  0.4114  0.3948
 8261WAT      O33763   2.440   3.841   0.400  0.0324 -0.1919 -0.1337
 8261WAT     H133764   2.374   3.834   0.344  0.0170  1.1836 -0.3252
 8261WAT     H233765   2.405   3.822   0.477 -0.3524 -0.3828 -0.3532
 8261WAT    EPW33766   2.425   3.837   0.403 -0.0267 -0.0169 -0.1944
 8262WAT      O33767   6.932   6.987   3.889  0.4070  0.1051  0.1571
 8262WAT     H133768   6.933   7.061   3.841 -0.0345  0.7811  1.1482
 8262WAT     H233769   6.869   7.003   3.948 -2.6466 -2.6332 -2.0172
 8262WAT    EPW33770   6.923   7.000   3.890 -0.1093 -0.1996 -0.0177
 8263WAT      O33771   0.190   7.679   4.173 -0.3748  0.0265  0.6030
 8263WAT     H133772   0.205   7.727   4.244 -1.2580 -0.6570  1.2804
 8263WAT     H233773   0.243   7.713   4.113  0.4646  0.5549  1.6188
 8263WAT    EPW33774   0.200   7.691   4.174 -0.3813  0.0036  0.8531
 8264WAT      O33775   6.725   5.839   6.468 -0.2581 -0.5417  0.6160
 8264WAT     H133776   6.718   5.909   6.416  1.3900  0.4502  1.6170
 8264WAT     H233777   6.646   5.803   6.466 -2.1494  3.0210  2.3385
 8264WAT    EPW33778   6.712   5.844   6.460 -0.2940  0.1311  1.0183
 8265WAT      O33779   1.694   4.658   6.951  0.1388 -0.7437  0.3534
 8265WAT     H133780   1.725   4.737   6.935  0.4948 -0.8946  0.2833
 8265WAT     H233781   1.679   4.658   7.037 -3.2695  0.6006 -0.0802
 8265WAT    EPW33782   1.696   4.669   6.962 -0.3121 -0.5674  0.2790
 8266WAT      O33783   3.831   0.993   7.827  0.3048  0.2171 -0.0994
 8266WAT     H133784   3.810   0.991   7.912  0.8437  0.5098  0.0438
 8266WAT     H233785   3.862   0.913   7.812 -2.3701 -0.8043 -0.7129
 8266WAT    EPW33786   3.832   0.981   7.837 -0.0107  0.1095 -0.1689
 8267WAT      O33787   7.261   2.750   6.147 -0.3860 -0.1395  0.1361
 8267WAT     H133788   7.343   2.735   6.123 -0.8285 -0.9087 -0.9461
 8267WAT     H233789   7.267   2.822   6.196  1.2879 -1.5362  2.1997
 8267WAT    EPW33790   7.274   2.758   6.151 -0.2041 -0.4595  0.2810
 8268WAT      O33791   1.153   5.236   3.636 -0.3300  0.1767 -0.1914
 8268WAT     H133792   1.153   5.176   3.699  0.2840 -1.1139 -1.3939
 8268WAT     H233793   1.123   5.308   3.677  1.2420 -0.2614  1.8766
 8268WAT    EPW33794   1.148   5.238   3.651 -0.0071 -0.0787 -0.0635
 8269WAT      O33795   1.093   3.150   6.320  1.0142  0.0727 -0.1868
 8269WAT     H133796   1.161   3.100   6.342 -0.1639 -2.0348 -1.0143
 8269WAT     H233797   1.117   3.183   6.243  1.5609  0.3082  0.0771
 8269WAT    EPW33798   1.106   3.147   6.312  0.9209 -0.2038 -0.2700
 8270WAT      O33799   2.875   4.893   6.919  0.1344  0.5456  0.0318
 8270WAT     H133800   2.813   4.832   6.911  0.6574  0.1180 -0.8282
 8270WAT     H233801   2.923   4.865   6.987 -1.3902  1.5998  1.6391
 8270WAT    EPW33802   2.873   4.880   6.928 -0.0135  0.6382  0.1422
 8271WAT      O33803   6.036   2.764   7.579  0.2103 -0.2672 -0.7182
 8271WAT     H133804   5.994   2.688   7.572  0.4027 -0.4013 -0.4256
 8271WAT     H233805   6.087   2.766   7.508  0.9388 -0.8679 -0.2217
 8271WAT    EPW33806   6.037   2.753   7.567  0.3463 -0.3758 -0.6017
 8272WAT      O33807   6.276   2.594   6.195 -0.2539  0.4995 -0.2181
 8272WAT     H133808   6.206   2.629   6.156 -0.6061 -0.0740 -0.1076
 8272WAT     H233809   6.246   2.569   6.273  0.3797  1.3825  0.3351
 8272WAT    EPW33810   6.261   2.596   6.201 -0.2123  0.5452 -0.1201
 8273WAT      O33811   6.901   6.287   4.800 -0.2007  0.2233 -0.1677
 8273WAT     H133812   6.848   6.218   4.795  0.2803 -0.1448 -0.3194
 8273WAT     H233813   6.868   6.342   4.741 -1.1413  0.5204  0.6092
 8273WAT    EPW33814   6.888   6.285   4.791 -0.2686  0.2128 -0.0753
 8274WAT      O33815   2.381   3.108   4.105 -0.3051  0.1870  0.4741
 8274WAT     H133816   2.417   3.186   4.118 -3.0376  2.0884 -2.0802
 8274WAT     H233817   2.397   3.092   4.020 -1.5696 -1.0037  0.4185
 8274WAT    EPW33818   2.389   3.117   4.094 -0.8955  0.2919  0.0886
 8275WAT      O33819   2.558   3.919   0.907 -0.0102 -0.2047 -0.2664
 8275WAT     H133820   2.617   3.877   0.955  0.2192 -0.6426 -0.9348
 8275WAT     H233821   2.484   3.877   0.925 -0.1089  0.2375  0.4372
 8275WAT    EPW33822   2.556   3.907   0.917  0.0091 -0.2040 -0.2612
 8276WAT      O33823   1.060   1.763   4.743  0.0656 -0.5866 -0.1073
 8276WAT     H133824   1.047   1.778   4.828 -3.6669 -0.1945 -0.5971
 8276WAT     H233825   1.051   1.842   4.707  3.3369 -0.4200 -0.8821
 8276WAT    EPW33826   1.057   1.777   4.750 -0.0025 -0.5041 -0.2941
 8277WAT      O33827   6.244   5.937   3.678 -0.5669 -0.3611  0.1213
 8277WAT     H133828   6.303   5.877   3.701 -1.1515 -0.5342  1.2300
 8277WAT     H233829   6.178   5.888   3.646  0.5308 -0.1094 -2.8355
 8277WAT    EPW33830   6.243   5.921   3.677 -0.4911 -0.3495 -0.1517
 8278WAT      O33831   3.350   0.647   7.321  0.2604  0.3005  0.0673
 8278WAT     H133832   3.366   0.646   7.407  0.2354 -1.0869  0.0878
 8278WAT     H233833   3.283   0.702   7.313 -0.8046 -0.7514  1.1836
 8278WAT    EPW33834   3.342   0.655   7.333  0.0994 -0.0598  0.2352
 8279WAT      O33835   0.454   0.344   6.795 -0.5017 -0.3390  0.1730
 8279WAT     H133836   0.500   0.408   6.831 -1.3424 -0.7760  2.1450
 8279WAT     H233837   0.402   0.386   6.738  1.0652  0.3255 -0.8402
 8279WAT    EPW33838   0.453   0.360   6.792 -0.3944 -0.3054  0.3146
 8280WAT      O33839   2.132   0.241   6.454 -0.0693 -0.2936  0.6408
 8280WAT     H133840   2.133   0.180   6.392  0.3594 -0.2940  0.6450
 8280WAT     H233841   2.051   0.273   6.451 -0.2600 -0.7796  0.5590
 8280WAT    EPW33842   2.120   0.237   6.445 -0.0341 -0.3654  0.6293
 8281WAT      O33843   1.726   1.382   6.908 -0.0716 -0.0257  0.1797
 8281WAT     H133844   1.756   1.362   6.828 -1.3506  1.6641 -0.7905
 8281WAT     H233845   1.728   1.469   6.909 -0.1567 -0.0192  1.9909
 8281WAT    EPW33846   1.731   1.391   6.896 -0.2731  0.2248  0.3039
 8282WAT      O33847   0.831   5.094   5.219 -0.0530 -0.7750  0.0654
 8282WAT     H133848   0.772   5.150   5.250  2.6417  1.7303  1.0494
 8282WAT     H233849   0.824   5.102   5.132 -2.5011 -2.1739  0.0417
 8282WAT    EPW33850   0.821   5.103   5.211 -0.0166 -0.6115  0.2073
 8283WAT      O33851   3.726   6.635   5.017  0.1148 -0.5898  0.0387
 8283WAT     H133852   3.725   6.643   5.104 -0.8705  0.0660 -0.0141
 8283WAT     H233853   3.774   6.703   4.991  0.1431 -0.6047  0.0517
 8283WAT    EPW33854   3.733   6.646   5.026 -0.0266 -0.4951  0.0328
 8284WAT      O33855   1.544   6.235   3.993 -0.0712 -0.3121  0.5479
 8284WAT     H133856   1.509   6.308   4.026  0.9420 -0.2910  1.6652
 8284WAT     H233857   1.623   6.233   4.029 -0.2211 -2.1780  0.8370
 8284WAT    EPW33858   1.550   6.246   4.003  0.0563 -0.5846  0.7557
 8285WAT      O33859   0.576   7.087   6.293 -0.1550  0.2916  0.2718
 8285WAT     H133860   0.528   7.055   6.358  0.1971  1.8543  1.3704
 8285WAT     H233861   0.555   7.172   6.291 -0.3005  0.2812 -1.8101
 8285WAT    EPW33862   0.566   7.095   6.302 -0.1245  0.5209  0.1266
 8286WAT      O33863   1.100   3.075   7.433  0.0918 -0.1946 -0.1444
 8286WAT     H133864   1.169   3.080   7.487  0.3301 -0.0020 -0.4630
 8286WAT     H233865   1.085   3.158   7.412 -0.2155 -0.2403 -0.1115
 8286WAT    EPW33866   1.108   3.088   7.438  0.0816 -0.1729 -0.1866
 8287WAT      O33867   1.835   1.168   0.894 -0.0741  0.3968  0.2563
 8287WAT     H133868   1.769   1.214   0.926 -1.6653 -0.7426 -1.1958
 8287WAT     H233869   1.809   1.085   0.902  1.1389 -0.0838 -0.4351
 8287WAT    EPW33870   1.821   1.162   0.900 -0.1299  0.1575 -0.0603
 8288WAT      O33871   5.706   1.074   7.310  0.2266 -0.1346  0.0712
 8288WAT     H133872   5.766   1.137   7.318  0.7222 -0.2732 -1.8434
 8288WAT     H233873   5.630   1.117   7.312  0.2927  0.0129  2.8379
 8288WAT    EPW33874   5.704   1.090   7.311  0.3096 -0.1333  0.1971
 8289WAT      O33875   1.597   2.680   6.392 -0.4395 -0.5507  0.1609
 8289WAT     H133876   1.605   2.596   6.369 -0.8004 -0.0697 -1.9510
 8289WAT     H233877   1.666   2.695   6.443  0.3191 -1.8073 -0.4656
 8289WAT    EPW33878   1.608   2.670   6.396 -0.3807 -0.6652 -0.2436
 8290WAT      O33879   0.350   6.939   5.545  0.3078 -0.3218  0.6983
 8290WAT     H133880   0.396   6.880   5.501  0.8073 -1.1008  2.1960
 8290WAT     H233881   0.401   7.010   5.543  0.9765 -0.7709  1.1883
 8290WAT    EPW33882   0.364   6.941   5.538  0.4804 -0.5032  0.9919
 8291WAT      O33883   3.350   2.651   6.554 -0.4184 -0.4585 -0.2049
 8291WAT     H133884   3.418   2.699   6.525 -0.4291  0.1975  0.8036
 8291WAT     H233885   3.340   2.591   6.491  1.2092 -0.6948 -0.3042
 8291WAT    EPW33886   3.359   2.649   6.540 -0.1795 -0.3965 -0.0706
 8292WAT      O33887   1.443   5.999   3.905  0.2948  0.3677  0.4719
 8292WAT     H133888   1.466   6.071   3.949 -1.0389  1.1399 -0.0335
 8292WAT     H233889   1.402   6.031   3.834 -1.1446 -0.8773  0.6949
 8292WAT    EPW33890   1.440   6.014   3.901 -0.1148  0.2979  0.4301
 8293WAT      O33891   2.168   3.055   4.313 -0.2204 -0.2933  0.4324
 8293WAT     H133892   2.171   2.985   4.365 -0.3334  0.5835  1.6695
 8293WAT     H233893   2.228   3.038   4.252 -0.9978 -1.9246  0.0788
 8293WAT    EPW33894   2.177   3.042   4.312 -0.3520 -0.4047  0.5629
 8294WAT      O33895   7.309   0.236   6.961 -0.4919  0.0199  0.6313
 8294WAT     H133896   7.319   0.154   6.934  0.3709  0.1580  0.4876
 8294WAT     H233897   7.223   0.243   6.975 -0.8507 -0.3482 -1.1472
 8294WAT    EPW33898   7.298   0.225   6.959 -0.4174 -0.0140  0.3474
 8295WAT      O33899   2.241   2.673   0.921  0.1100 -0.0643  0.4694
 8295WAT     H133900   2.216   2.713   0.994  2.1122  0.8350  0.7242
 8295WAT     H233901   2.294   2.610   0.948  0.5956  0.0525 -0.1690
 8295WAT    EPW33902   2.245   2.670   0.935  0.4775  0.0858  0.4128
 8296WAT      O33903   2.156   7.438   1.116  0.3408  0.5084  0.1704
 8296WAT     H133904   2.216   7.494   1.147  0.5568 -0.2060  1.1021
 8296WAT     H233905   2.092   7.490   1.088  0.1321  1.2181  1.8546
 8296WAT    EPW33906   2.156   7.454   1.116  0.3419  0.5077  0.5568
 8297WAT      O33907   5.512   6.165   3.286 -0.0013  0.7849  0.0096
 8297WAT     H133908   5.504   6.160   3.199  0.6638  3.0891 -0.2556
 8297WAT     H233909   5.455   6.228   3.308 -0.5094 -0.0900  1.3428
 8297WAT    EPW33910   5.502   6.173   3.277  0.0219  0.9960  0.1674
 8298WAT      O33911   1.723   6.786   1.228 -0.2334  0.8526  0.4768
 8298WAT     H133912   1.677   6.765   1.158 -0.2926 -0.5352  0.9008
 8298WAT     H233913   1.806   6.784   1.200 -0.3074  1.1619  0.2391
 8298WAT    EPW33914   1.729   6.783   1.214 -0.2531  0.6933  0.5043
 8299WAT      O33915   1.389   5.878   0.078  0.6030  0.2608 -0.0472
 8299WAT     H133916   1.326   5.888   0.019  1.3777  0.3046 -0.8998
 8299WAT     H233917   1.413   5.794   0.068  0.4657  0.1593  0.4830
 8299WAT    EPW33918   1.383   5.867   0.068  0.6971  0.2523 -0.0948
 8300WAT      O33919   6.140   4.943   6.297  0.0585 -0.7771 -0.3858
 8300WAT     H133920   6.124   4.878   6.242 -2.3393  0.0605 -0.8084
 8300WAT     H233921   6.150   4.903   6.374 -1.5846 -1.6715 -0.5943
 8300WAT    EPW33922   6.139   4.928   6.300 -0.5384 -0.7855 -0.4790
 8301WAT      O33923   0.007   0.592   4.910  0.5380  0.0063  0.4761
 8301WAT     H133924   0.042   0.662   4.871  1.4872 -0.6455  0.1218
 8301WAT     H233925  -0.056   0.567   4.855  0.8397  0.0220  0.1196
 8301WAT    EPW33926   0.003   0.598   4.896  0.7228 -0.0877  0.3711
 8302WAT      O33927   5.168   7.582   0.749  0.2644  0.3350  0.6578
 8302WAT     H133928   5.209   7.625   0.686 -2.1563  0.7582 -0.7586
 8302WAT     H233929   5.183   7.498   0.730 -0.8327  0.4411 -0.8585
 8302WAT    EPW33930   5.176   7.576   0.737 -0.2552  0.4132  0.2245
 8303WAT      O33931   3.776   6.392   0.901  0.0451 -0.3925  0.1624
 8303WAT     H133932   3.845   6.346   0.927  0.4438  0.0817 -0.0489
 8303WAT     H233933   3.713   6.332   0.895  1.0796 -1.3904 -2.3460
 8303WAT    EPW33934   3.777   6.376   0.904  0.2568 -0.4699 -0.2393
 8304WAT      O33935   4.976   5.917   7.341  0.2341 -0.8140 -0.5931
 8304WAT     H133936   4.977   6.002   7.361 -1.1203 -1.2195  1.4809
 8304WAT     H233937   4.947   5.916   7.259  1.3011  0.7470 -1.0442
 8304WAT    EPW33938   4.972   5.929   7.332  0.1917 -0.6433 -0.3533
 8305WAT      O33939   1.790   7.015   2.865  0.3834 -0.4558  0.0606
 8305WAT     H133940   1.784   6.995   2.780 -2.1816  0.6255 -0.0758
 8305WAT     H233941   1.714   6.990   2.898  1.2719 -0.7179  2.0838
 8305WAT    EPW33942   1.778   7.008   2.857  0.1357 -0.3348  0.3393
 8306WAT      O33943   2.342   6.721   0.618 -0.4269  0.3748  0.6220
 8306WAT     H133944   2.342   6.808   0.620 -1.1481  0.4183 -0.7047
 8306WAT     H233945   2.322   6.699   0.700  0.4830  1.4320  1.1610
 8306WAT    EPW33946   2.339   6.731   0.631 -0.3990  0.5374  0.5056
 8307WAT      O33947   0.682   5.266   3.510  0.4180  0.5286 -0.0810
 8307WAT     H133948   0.729   5.312   3.568  0.5620 -0.8234  0.9198
 8307WAT     H233949   0.736   5.202   3.486  0.1682  0.7627 -1.3354
 8307WAT    EPW33950   0.697   5.264   3.515  0.4024  0.3635 -0.1185
 8308WAT      O33951   6.791   1.090   7.583  0.2534  0.1866  0.1972
 8308WAT     H133952   6.766   1.028   7.639  0.3663  0.7588  0.8975
 8308WAT     H233953   6.715   1.118   7.549  0.2222 -0.5530 -0.3902
 8308WAT    EPW33954   6.776   1.085   7.586  0.2655  0.1619  0.2139
 8309WAT      O33955   4.203   5.611   5.364  0.0410 -0.3188  0.4909
 8309WAT     H133956   4.159   5.546   5.401 -2.0686 -1.1640 -2.9984
 8309WAT     H233957   4.280   5.576   5.344 -0.0406 -0.8556  1.1212
 8309WAT    EPW33958   4.208   5.596   5.366 -0.2827 -0.5229  0.0686
 8310WAT      O33959   0.651   3.042   3.924 -0.0238  0.5883 -0.2338
 8310WAT     H133960   0.665   2.961   3.895 -0.4815  0.4558 -0.0836
 8310WAT     H233961   0.727   3.082   3.908  0.0431  0.2644 -0.7543
 8310WAT    EPW33962   0.665   3.036   3.917 -0.0816  0.5209 -0.2885
 8311WAT      O33963   4.401   7.412   2.086 -0.0382 -0.8221 -0.1323
 8311WAT     H133964   4.473   7.434   2.041 -0.6721  0.1261 -0.6995
 8311WAT     H233965   4.411   7.453   2.162  1.8544 -3.7350  1.4061
 8311WAT    EPW33966   4.413   7.421   2.090  0.1477 -1.1124  0.0111
 8312WAT      O33967   3.465   0.207   0.795  0.0320 -0.4870 -1.1718
 8312WAT     H133968   3.446   0.130   0.758  0.2810 -2.0520  1.6908
 8312WAT     H233969   3.429   0.265   0.741 -1.2407 -2.6504 -2.8119
 8312WAT    EPW33970   3.457   0.204   0.782 -0.1192 -1.0378 -0.9912
 8313WAT      O33971   4.509   0.568   7.812 -0.5029  0.0664  0.1486
 8313WAT     H133972   4.509   0.641   7.764 -2.1400 -0.5093 -0.8140
 8313WAT     H233973   4.523   0.505   7.754  2.1494 -0.3871  1.1298
 8313WAT    EPW33974   4.511   0.570   7.796 -0.3529 -0.0856  0.1513
 8314WAT      O33975   4.089   7.306   7.715  0.3226  0.2596 -0.2676
 8314WAT     H133976   4.046   7.375   7.684 -1.3986  0.3197  1.9879
 8314WAT     H233977   4.026   7.248   7.731  1.5099 -1.0761 -0.1691
 8314WAT    EPW33978   4.074   7.307   7.712  0.2437  0.0711  0.0801
 8315WAT      O33979   5.314   7.394   0.970  0.0269 -0.5788  0.6219
 8315WAT     H133980   5.387   7.368   1.010 -0.3520 -1.5995  0.6773
 8315WAT     H233981   5.305   7.477   0.997  2.0956  0.1663 -0.7981
 8315WAT    EPW33982   5.324   7.403   0.980  0.2765 -0.6195  0.4203
 8316WAT      O33983   7.449   6.559   6.864  0.2119  0.1353 -0.5757
 8316WAT     H133984   7.486   6.592   6.935  0.3097  0.4507 -0.7717
 8316WAT     H233985   7.420   6.481   6.890  0.4861  0.1379 -0.2664
 8316WAT    EPW33986   7.450   6.552   6.878  0.2669  0.1823 -0.5589
 8317WAT      O33987   5.017   6.167   7.463  0.0682  0.0069  0.7965
 8317WAT     H133988   4.961   6.210   7.514 -1.9184 -0.8929 -0.4527
 8317WAT     H233989   5.068   6.124   7.519  0.6062  2.1263  2.0210
 8317WAT    EPW33990   5.016   6.167   7.478 -0.1458  0.1871  0.7928
 8318WAT      O33991   7.024   6.730   5.719  0.2553 -0.2823 -0.1644
 8318WAT     H133992   7.018   6.754   5.636  1.6810 -1.0710 -0.5351
 8318WAT     H233993   6.959   6.673   5.730 -1.8861  2.0589  0.1682
 8318WAT    EPW33994   7.014   6.725   5.709  0.1496 -0.0530 -0.1700
 8319WAT      O33995   3.606   5.626   5.838 -0.1341  0.2310  0.0462
 8319WAT     H133996   3.638   5.547   5.856 -1.1748  0.0900  1.4751
 8319WAT     H233997   3.552   5.611   5.771  0.8160  0.0310 -0.7035
 8319WAT    EPW33998   3.603   5.612   5.831 -0.1475  0.1806  0.1466
 8320WAT      O33999   0.217   3.422   6.103  0.0736 -0.3228  0.6924
 8320WAT     H134000   0.228   3.503   6.133  0.3665  0.1617 -0.6724
 8320WAT     H234001   0.296   3.386   6.113  0.1605 -0.1768  0.5385
 8320WAT    EPW34002   0.230   3.429   6.109  0.1297 -0.2296  0.4680
 8321WAT      O34003   2.243   5.983   5.004 -0.5163  0.0151  0.3170
 8321WAT     H134004   2.181   6.031   4.966  1.3910  1.4753 -1.1723
 8321WAT     H234005   2.232   5.998   5.089 -2.1836  0.2112  0.0994
 8321WAT    EPW34006   2.232   5.992   5.011 -0.4808  0.2598  0.0649
 8322WAT      O34007   4.657   1.059   5.941  0.0983  0.2206  0.0000
 8322WAT     H134008   4.652   0.976   5.914  0.5819  0.5796 -1.2397
 8322WAT     H234009   4.743   1.072   5.953 -0.0652  0.2103  1.3132
 8322WAT    EPW34010   4.669   1.049   5.939  0.1456  0.2721  0.0109
 8323WAT      O34011   5.369   0.374   6.912 -0.4019  0.1987  0.1488
 8323WAT     H134012   5.356   0.378   6.826 -0.9915  0.0640  0.2293
 8323WAT     H234013   5.396   0.455   6.932  0.2996  0.0697 -0.2452
 8323WAT    EPW34014   5.371   0.387   6.902 -0.3854  0.1597  0.1025
 8324WAT      O34015   2.534   2.069   0.031  0.2882  0.1054 -0.4129
 8324WAT     H134016   2.490   2.037  -0.037  1.3844  0.8015 -1.4921
 8324WAT     H234017   2.479   2.128   0.064 -0.8676 -1.2920  0.2731
 8324WAT    EPW34018   2.519   2.073   0.026  0.2794  0.0018 -0.4710
 8325WAT      O34019   3.393   0.171   7.434 -0.1214 -0.1234  0.4289
 8325WAT     H134020   3.376   0.221   7.365  0.2688 -0.5653 -0.0018
 8325WAT     H234021   3.460   0.212   7.473 -0.9550  0.6310  1.0870
 8325WAT    EPW34022   3.401   0.184   7.430 -0.1869 -0.0773  0.4625
 8326WAT      O34023   7.192   2.500   6.865 -0.0380  0.0181 -0.1243
 8326WAT     H134024   7.243   2.462   6.805 -0.6977 -0.5919 -0.3125
 8326WAT     H234025   7.138   2.436   6.889 -0.3538  0.5066  0.4758
 8326WAT    EPW34026   7.192   2.485   6.860 -0.1821  0.0002 -0.0634
 8327WAT      O34027   6.806   1.509   4.861  0.4427 -0.0089 -0.7329
 8327WAT     H134028   6.762   1.447   4.904 -1.0953  1.0900 -0.6513
 8327WAT     H234029   6.791   1.581   4.908  0.6521  0.7738 -1.8351
 8327WAT    EPW34030   6.797   1.511   4.874  0.2465  0.2690 -0.8837
 8328WAT      O34031   3.805   6.985   4.448  0.3325 -0.0225 -0.0476
 8328WAT     H134032   3.762   6.963   4.521  2.2400  0.4640  1.2838
 8328WAT     H234033   3.757   6.949   4.385 -2.2938  0.9205  1.2739
 8328WAT    EPW34034   3.792   6.976   4.450  0.2263  0.1887  0.3443
 8329WAT      O34035   1.470   2.010   7.766 -0.4590  0.3616  0.7419
 8329WAT     H134036   1.541   1.988   7.811 -0.9168  0.2967  1.4636
 8329WAT     H234037   1.449   2.089   7.797 -0.1505  0.8055 -0.1651
 8329WAT    EPW34038   1.477   2.018   7.777 -0.4810  0.4176  0.7145
 8330WAT      O34039   2.693   2.955   4.767  0.1695 -0.2861 -0.1066
 8330WAT     H134040   2.641   2.908   4.819  0.8240  0.2791  1.0998
 8330WAT     H234041   2.651   3.031   4.760  0.2726 -0.2279 -0.0858
 8330WAT    EPW34042   2.679   2.959   4.774  0.2814 -0.1940  0.0747
 8331WAT      O34043   5.856   3.146   0.741  0.3491  0.2037 -0.5675
 8331WAT     H134044   5.792   3.144   0.683  0.7067 -0.8309 -0.9573
 8331WAT     H234045   5.829   3.204   0.801 -1.3066 -0.7955 -0.2999
 8331WAT    EPW34046   5.843   3.154   0.741  0.1573 -0.0967 -0.5855
 8332WAT      O34047   5.456   4.889   0.423 -0.2581  0.2070  0.0406
 8332WAT     H134048   5.481   4.933   0.352 -1.1477  1.7929  0.6454
 8332WAT     H234049   5.486   4.808   0.410 -3.2681 -0.5806 -3.7760
 8332WAT    EPW34050   5.464   4.883   0.411 -0.8342  0.3249 -0.4339
 8333WAT      O34051   2.878   1.617   6.236  0.0992  0.3847 -0.5633
 8333WAT     H134052   2.822   1.575   6.184 -1.7267 -0.0580  1.6275
 8333WAT     H234053   2.943   1.560   6.246 -1.6347 -1.4106  1.1475
 8333WAT    EPW34054   2.879   1.602   6.230 -0.4267  0.0541  0.0131
 8334WAT      O34055   4.288   0.574   6.952 -0.1831  0.0248 -0.2683
 8334WAT     H134056   4.320   0.569   6.871 -0.0236  0.7934 -0.2533
 8334WAT     H234057   4.358   0.562   7.003 -0.0168  1.0676 -0.2397
 8334WAT    EPW34058   4.303   0.571   6.948 -0.1350  0.2924 -0.2619
 8335WAT      O34059   0.069   2.387   4.243  0.1929 -0.0865  0.2591
 8335WAT     H134060  -0.002   2.435   4.226  0.5985  0.3468 -0.2713
 8335WAT     H234061   0.079   2.340   4.171  0.5363 -0.0298  0.2704
 8335WAT    EPW34062   0.060   2.387   4.230  0.3036 -0.0141  0.1825
 8336WAT      O34063   7.682   7.042   7.443 -0.1177  0.0118  0.7429
 8336WAT     H134064   7.760   7.008   7.463 -0.2466 -0.0064  1.2206
 8336WAT     H234065   7.702   7.116   7.403  0.1880 -0.9456 -0.9788
 8336WAT    EPW34066   7.697   7.048   7.440 -0.0916 -0.1323  0.5591
 8337WAT      O34067   0.715   4.121   7.487  0.6733  0.4464 -0.2391
 8337WAT     H134068   0.707   4.137   7.572  1.2370  2.4269 -0.4990
 8337WAT     H234069   0.686   4.039   7.478  0.0482  0.4024  1.7520
 8337WAT    EPW34070   0.709   4.111   7.498  0.6642  0.7325  0.0166
 8338WAT      O34071   5.226   5.203   1.215  0.1039  0.3510 -0.3235
 8338WAT     H134072   5.186   5.254   1.273  1.3644  1.9177 -0.7494
 8338WAT     H234073   5.297   5.249   1.193  0.1602 -0.6202 -2.3985
 8338WAT    EPW34074   5.231   5.217   1.221  0.2984  0.4390 -0.6929
 8339WAT      O34075   2.656   3.238   4.783 -0.0071  0.3274 -0.7013
 8339WAT     H134076   2.611   3.311   4.768  1.6528  1.5003 -0.2972
 8339WAT     H234077   2.704   3.229   4.710  0.9606  0.5746 -0.1116
 8339WAT    EPW34078   2.656   3.248   4.770  0.3810  0.5372 -0.5545
 8340WAT      O34079   6.178   7.118   6.936 -0.0962 -0.1646  0.3546
 8340WAT     H134080   6.242   7.128   6.994 -0.0019  0.5044  0.1433
 8340WAT     H234081   6.215   7.072   6.872  0.1000  0.0068  0.3461
 8340WAT    EPW34082   6.193   7.113   6.935 -0.0533 -0.0404  0.3221
 8341WAT      O34083   3.679   7.130   6.297 -0.3951  0.1029  0.1135
 8341WAT     H134084   3.732   7.179   6.248  1.5473 -0.9029  1.1490
 8341WAT     H234085   3.678   7.171   6.374  1.1135 -1.3356  0.9387
 8341WAT    EPW34086   3.686   7.143   6.301  0.1147 -0.2582  0.3884
 8342WAT      O34087   4.235   6.716   2.299  0.6476  0.6180 -0.1695
 8342WAT     H134088   4.180   6.649   2.308  1.9248 -0.2659  1.5855
 8342WAT     H234089   4.206   6.774   2.357 -1.6753  2.6042 -3.0334
 8342WAT    EPW34090   4.223   6.715   2.309  0.4931  0.7808 -0.3333
 8343WAT      O34091   6.458   5.378   0.734 -0.2589  0.0509  0.1449
 8343WAT     H134092   6.398   5.429   0.771 -1.5164 -0.9118 -0.4824
 8343WAT     H234093   6.439   5.298   0.765  2.1985 -0.0107  1.8054
 8343WAT    EPW34094   6.447   5.374   0.744 -0.0816 -0.1004  0.2975
 8344WAT      O34095   2.974   6.992   4.310  0.2908  0.0364 -0.3964
 8344WAT     H134096   2.946   6.918   4.275  0.5544 -0.5149  0.5238
 8344WAT     H234097   3.036   6.967   4.365  1.0257  1.0291 -0.7361
 8344WAT    EPW34098   2.979   6.977   4.313  0.4383  0.1016 -0.3106
 8345WAT      O34099   1.077   7.584   3.152 -0.0737 -0.5795 -0.5899
 8345WAT     H134100   1.016   7.523   3.141  0.9004 -1.4316 -1.5123
 8345WAT     H234101   1.152   7.542   3.137  0.7237  0.5345  0.0707
 8345WAT    EPW34102   1.079   7.569   3.148  0.1880 -0.5408 -0.6286
 8346WAT      O34103   0.004   4.921   6.648 -0.2381 -0.4734 -0.6090
 8346WAT     H134104   0.062   4.979   6.621 -0.8764 -0.0888 -1.1622
 8346WAT     H234105  -0.067   4.938   6.601 -0.6419 -1.2751 -0.3171
 8346WAT    EPW34106   0.002   4.932   6.637 -0.3920 -0.5350 -0.6476
 8347WAT      O34107   0.249   4.133   5.669  0.2738  0.1668  0.2803
 8347WAT     H134108   0.194   4.169   5.727  0.1777  2.0654 -0.8975
 8347WAT     H234109   0.307   4.091   5.719  1.3513  3.3160  1.9673
 8347WAT    EPW34110   0.249   4.132   5.685  0.4188  0.9124  0.3555
 8348WAT      O34111   4.508   2.986   5.050 -0.0931 -0.1364 -0.3662
 8348WAT     H134112   4.458   3.057   5.058  0.2082 -0.1138  2.3723
 8348WAT     H234113   4.493   2.942   5.124 -0.2119 -2.9519 -1.9275
 8348WAT    EPW34114   4.499   2.990   5.062 -0.0661 -0.5489 -0.1923
 8349WAT      O34115   3.294   3.159   5.520 -0.1479  0.8922 -0.1180
 8349WAT     H134116   3.280   3.088   5.470  1.2535 -0.1430  0.8523
 8349WAT     H234117   3.273   3.225   5.468 -0.6367 -0.2058 -1.3913
 8349WAT    EPW34118   3.289   3.158   5.505 -0.0131  0.5771 -0.1628
 8350WAT      O34119   5.192   7.555   5.463 -0.0771  0.6856  0.3273
 8350WAT     H134120   5.131   7.604   5.424  0.4832 -1.2470 -3.4309
 8350WAT     H234121   5.258   7.555   5.407  2.3950  0.4259  2.9955
 8350WAT    EPW34122   5.193   7.562   5.449  0.3708  0.3617  0.1663
 8351WAT      O34123   1.144   7.170   3.992 -0.3365  0.0858  0.4230
 8351WAT     H134124   1.094   7.176   4.063 -1.2595  1.6131 -0.3091
 8351WAT     H234125   1.211   7.223   4.009 -0.6480  0.5941  0.1169
 8351WAT    EPW34126   1.147   7.179   4.005 -0.5189  0.3865  0.2696
 8352WAT      O34127   1.881   6.014   5.224 -0.3402  0.4288  0.4857
 8352WAT     H134128   1.961   6.047   5.225 -0.2679  0.2471  1.3453
 8352WAT     H234129   1.890   5.938   5.181  0.1608 -0.0752  1.4305
 8352WAT    EPW34130   1.894   6.007   5.218 -0.2555  0.3275  0.7522
 8353WAT      O34131   3.178   6.699   2.501 -0.2013 -0.1016  0.7010
 8353WAT     H134132   3.264   6.702   2.489 -0.4879  0.8339 -2.1198
 8353WAT     H234133   3.155   6.783   2.505 -1.0629 -0.2889  0.1140
 8353WAT    EPW34134   3.187   6.712   2.500 -0.3709  0.0089  0.1976
 8354WAT      O34135   4.797   3.856   1.235 -0.4965 -0.1084  0.2969
 8354WAT     H134136   4.867   3.909   1.230 -0.8497  0.4263  0.8730
 8354WAT     H234137   4.753   3.874   1.163 -0.8737  0.7735  0.7329
 8354WAT    EPW34138   4.801   3.867   1.224 -0.6044  0.1009  0.4464
 8355WAT      O34139   2.195   3.594   1.292  0.3995 -0.0682 -0.4715
 8355WAT     H134140   2.153   3.656   1.336  0.6183 -0.4067  0.2209
 8355WAT     H234141   2.215   3.534   1.352  2.4740  0.3933 -0.6175
 8355WAT    EPW34142   2.192   3.594   1.307  0.7383 -0.0500 -0.3908
 8356WAT      O34143   3.880   2.713   7.726  0.2289 -0.1017  0.2598
 8356WAT     H134144   3.799   2.735   7.704 -0.1883 -0.9478  0.9294
 8356WAT     H234145   3.870   2.652   7.787  1.3497  0.8514  1.4825
 8356WAT    EPW34146   3.867   2.707   7.732  0.3328 -0.0859  0.5393
 8357WAT      O34147   2.179   7.288   5.722 -0.2054 -0.2956 -0.4343
 8357WAT     H134148   2.261   7.295   5.692 -0.3165  2.5476 -0.3562
 8357WAT     H234149   2.173   7.204   5.744  3.0622 -0.4337  0.5710
 8357WAT    EPW34150   2.190   7.277   5.720  0.2609  0.1040 -0.2743
 8358WAT      O34151   3.605   7.287   6.968 -0.5710  0.1919  0.0474
 8358WAT     H134152   3.672   7.311   7.019 -0.6747  0.5781  0.0060
 8358WAT     H234153   3.558   7.235   7.020  0.8963 -1.9017 -0.6090
 8358WAT    EPW34154   3.608   7.283   6.983 -0.3696 -0.0603 -0.0557
 8359WAT      O34155   5.209   2.647   0.972  0.3090 -0.2772 -0.0924
 8359WAT     H134156   5.138   2.646   0.921 -0.4050  0.8337  0.8152
 8359WAT     H234157   5.270   2.609   0.923 -0.8213 -0.9583 -1.0307
 8359WAT    EPW34158   5.208   2.642   0.957  0.0366 -0.2137 -0.0969
 8360WAT      O34159   5.885   1.856   4.146 -0.4538  0.0324 -0.0041
 8360WAT     H134160   5.835   1.899   4.202 -0.4768  0.2372 -0.1788
 8360WAT     H234161   5.849   1.777   4.141 -0.2128 -0.1246  0.5816
 8360WAT    EPW34162   5.872   1.851   4.153 -0.4216  0.0395  0.0566
 8361WAT      O34163   0.398   0.565   0.098  0.2902  0.0023  0.3419
 8361WAT     H134164   0.423   0.490   0.134 -1.3406 -1.4126 -1.2522
 8361WAT     H234165   0.466   0.587   0.047  1.2728  0.3162  1.7347
 8361WAT    EPW34166   0.412   0.558   0.096  0.1945 -0.1603  0.3122
 8362WAT      O34167   6.093   1.291   1.459 -0.4289  0.8660 -0.0844
 8362WAT     H134168   6.112   1.223   1.407  0.0793 -0.6416  1.9357
 8362WAT     H234169   6.061   1.351   1.404  0.0267 -0.6306 -2.0967
 8362WAT    EPW34170   6.091   1.290   1.444 -0.2865  0.4222 -0.0833
 8363WAT      O34171   2.529   0.880   6.812 -0.8165 -0.3582  0.1263
 8363WAT     H134172   2.459   0.852   6.856 -1.2155  1.0131  0.4349
 8363WAT     H234173   2.539   0.962   6.841  0.2369 -0.1588 -0.7469
 8363WAT    EPW34174   2.520   0.888   6.823 -0.7198 -0.1262  0.0429
 8364WAT      O34175   3.754   2.486   5.440  0.0524 -0.1301 -0.1444
 8364WAT     H134176   3.748   2.479   5.527 -2.0077 -1.3756 -0.3160
 8364WAT     H234177   3.736   2.570   5.425  2.8347  0.7354  0.6901
 8364WAT    EPW34178   3.751   2.498   5.451  0.1591 -0.1862 -0.0465
 8365WAT      O34179   2.422   2.943   0.352  0.0902 -0.3817  0.1000
 8365WAT     H134180   2.379   2.868   0.367 -0.3329  0.1001  1.5107
 8365WAT     H234181   2.440   2.972   0.433 -0.1295  1.2413 -0.3952
 8365WAT    EPW34182   2.418   2.936   0.366 -0.0048 -0.0708  0.2353
 8366WAT      O34183   3.610   2.061   3.390  0.7173  0.9123  0.4264
 8366WAT     H134184   3.592   2.136   3.432  1.6376  2.0776 -1.1637
 8366WAT     H234185   3.685   2.079   3.348 -0.2779 -0.0719 -1.9050
 8366WAT    EPW34186   3.619   2.075   3.390  0.7062  0.9390 -0.1529
 8367WAT      O34187   2.096   0.211   3.153 -0.6038  0.1001 -0.4152
 8367WAT     H134188   2.128   0.197   3.233 -1.1057 -0.5223 -0.3092
 8367WAT     H234189   2.167   0.227   3.105 -0.1961 -0.5701 -0.0510
 8367WAT    EPW34190   2.111   0.211   3.158 -0.6177 -0.0909 -0.3457
 8368WAT      O34191   7.478   7.645   6.630  0.1432 -0.9503 -0.0335
 8368WAT     H134192   7.507   7.563   6.633 -2.0342 -1.7793  0.7545
 8368WAT     H234193   7.545   7.692   6.660  0.7435 -2.6902  1.5875
 8368WAT    EPW34194   7.492   7.640   6.635 -0.0898 -1.3298  0.3223
 8369WAT      O34195   3.388   5.815   6.398  0.2297 -0.0644  0.0789
 8369WAT     H134196   3.312   5.844   6.366  0.5668 -0.0166 -0.7213
 8369WAT     H234197   3.365   5.748   6.449 -0.3788  0.2123  0.1787
 8369WAT    EPW34198   3.373   5.810   6.400  0.1896 -0.0165 -0.0246
 8370WAT      O34199   3.410   7.272   3.075 -0.2092  0.3921 -0.0658
 8370WAT     H134200   3.450   7.220   3.132  0.5855  1.2150  0.1379
 8370WAT     H234201   3.403   7.348   3.117  0.0961  0.9155 -0.9296
 8370WAT    EPW34202   3.415   7.275   3.089 -0.0467  0.5910 -0.1633
 8371WAT      O34203   5.978   1.076   5.807 -0.7871 -0.2166  0.1592
 8371WAT     H134204   6.047   1.068   5.754  0.0017 -0.2024  1.1517
 8371WAT     H234205   5.991   1.014   5.867  0.4444  2.0923  2.5624
 8371WAT    EPW34206   5.990   1.066   5.808 -0.4887  0.1266  0.6608
 8372WAT      O34207   4.198   1.136   1.142 -0.2900  0.0613  0.6430
 8372WAT     H134208   4.212   1.199   1.083 -0.6140 -1.7003 -1.4775
 8372WAT     H234209   4.254   1.154   1.206  1.2712  1.2071 -0.9583
 8372WAT    EPW34210   4.208   1.148   1.143 -0.1072 -0.0296  0.0932
 8373WAT      O34211   1.537   2.716   4.531 -0.6030  0.3389 -0.2152
 8373WAT     H134212   1.586   2.728   4.460  0.4111  1.7711  0.6706
 8373WAT     H234213   1.512   2.797   4.553 -1.6187 -0.1590  0.5806
 8373WAT    EPW34214   1.541   2.730   4.524 -0.6032  0.4769  0.0332
 8374WAT      O34215   4.338   6.757   3.352  0.3353  0.1098 -0.2747
 8374WAT     H134216   4.269   6.737   3.301 -1.1702  3.0037  0.4265
 8374WAT     H234217   4.394   6.795   3.297  0.6424 -0.7040 -0.5345
 8374WAT    EPW34218   4.336   6.760   3.336  0.1582  0.4171 -0.2095
 8375WAT      O34219   2.414   3.647   0.031  0.2534 -0.1972  0.2046
 8375WAT     H134220   2.377   3.707   0.082 -0.3231 -1.1338  0.9397
 8375WAT     H234221   2.484   3.687  -0.002 -1.5735  1.8188 -1.5711
 8375WAT    EPW34222   2.419   3.662   0.034 -0.1016 -0.0377  0.0509
 8376WAT      O34223   4.023   2.730   0.244  0.0894 -0.4912  0.3482
 8376WAT     H134224   3.964   2.790   0.268  0.3403 -0.3982  0.7488
 8376WAT     H234225   4.087   2.777   0.208  0.1868 -0.5338  0.4628
 8376WAT    EPW34226   4.024   2.746   0.243  0.1409 -0.4837  0.4243
 8377WAT      O34227   6.843   5.555   7.274 -0.0131  0.5359 -0.3609
 8377WAT     H134228   6.918   5.590   7.301 -0.1261  0.8478 -0.4455
 8377WAT     H234229   6.863   5.472   7.260  0.3437  0.6426 -0.4864
 8377WAT    EPW34230   6.857   5.548   7.276  0.0229  0.5978 -0.3919
 8378WAT      O34231   2.822   1.669   7.288  0.1666  0.1166  0.4318
 8378WAT     H134232   2.758   1.621   7.252 -0.2500  0.2158  1.0318
 8378WAT     H234233   2.894   1.642   7.246 -0.1228 -0.7255  0.4557
 8378WAT    EPW34234   2.823   1.658   7.276  0.0623  0.0069  0.5240
 8379WAT      O34235   4.725   6.845   5.807  0.5569  0.2786  0.3008
 8379WAT     H134236   4.698   6.820   5.886 -0.4107  1.3429  0.3277
 8379WAT     H234237   4.704   6.930   5.804  0.5757  0.2546 -1.0943
 8379WAT    EPW34238   4.718   6.854   5.818  0.4168  0.4323  0.0987
 8380WAT      O34239   1.985   2.058   2.139  0.1743  0.5521  0.8030
 8380WAT     H134240   2.023   1.997   2.089  0.8817  2.2472 -0.8751
 8380WAT     H234241   2.053   2.099   2.176 -0.0671  2.1027 -0.3652
 8380WAT    EPW34242   2.001   2.055   2.137  0.2431  1.0315  0.3825
 8381WAT      O34243   6.206   2.984   5.060  0.4071 -0.3681 -0.0499
 8381WAT     H134244   6.246   3.043   5.010  0.1547  0.3113  0.5340
 8381WAT     H234245   6.217   3.015   5.141 -1.3645 -0.1065  0.1374
 8381WAT    EPW34246   6.214   2.997   5.065  0.1081 -0.2291  0.0640
 8382WAT      O34247   0.070   1.520   6.389 -0.1496  0.1291  0.5181
 8382WAT     H134248   0.064   1.526   6.302 -1.5787  0.9949  0.6310
 8382WAT     H234249   0.040   1.440   6.406  0.2026 -0.0714  0.2226
 8382WAT    EPW34250   0.065   1.509   6.379 -0.3086  0.2274  0.4911
 8383WAT      O34251   3.176   2.366   6.625  0.1732  0.0125  0.1703
 8383WAT     H134252   3.103   2.411   6.640  0.0978  0.2759 -0.9173
 8383WAT     H234253   3.195   2.384   6.542  2.3519  1.1975  0.8459
 8383WAT    EPW34254   3.168   2.375   6.615  0.4839  0.2265  0.1095
 8384WAT      O34255   0.108   2.074   7.111 -0.6140  0.1468 -0.0290
 8384WAT     H134256   0.091   2.004   7.062 -0.1039  0.3420 -0.4896
 8384WAT     H234257   0.082   2.141   7.062 -1.5487  0.2629  0.6083
 8384WAT    EPW34258   0.102   2.074   7.097 -0.6767  0.1928 -0.0029
 8385WAT      O34259   1.582   1.723   6.722  0.0851 -0.2251 -0.6618
 8385WAT     H134260   1.641   1.709   6.659  2.3441 -0.5783  1.3965
 8385WAT     H234261   1.564   1.808   6.716  1.5482  0.0940 -0.7656
 8385WAT    EPW34262   1.588   1.733   6.712  0.6349 -0.2301 -0.3731
 8386WAT      O34263   6.237   1.552   6.320 -0.0833 -0.1007  0.5443
 8386WAT     H134264   6.307   1.556   6.268 -0.4340  0.6963  0.1113
 8386WAT     H234265   6.231   1.467   6.340  0.0631 -0.4232 -0.7226
 8386WAT    EPW34266   6.247   1.540   6.315 -0.1135 -0.0306  0.2932
 8387WAT      O34267   7.558   4.699   4.313  0.0049  0.7363 -0.0292
 8387WAT     H134268   7.581   4.636   4.257  0.3375  0.7484  0.0928
 8387WAT     H234269   7.606   4.767   4.289 -0.7331  1.1115 -0.4935
 8387WAT    EPW34270   7.568   4.700   4.301 -0.0550  0.7935 -0.0798
 8388WAT      O34271   2.836   0.707   7.205  0.1702  0.2626  0.1494
 8388WAT     H134272   2.903   0.655   7.224  1.2500  1.2669 -0.7741
 8388WAT     H234273   2.768   0.669   7.245  0.8707 -1.9249 -0.6208
 8388WAT    EPW34274   2.836   0.694   7.214  0.4332  0.0878 -0.1008
 8389WAT      O34275   4.089   2.351   1.613  0.0391  0.1730  0.1493
 8389WAT     H134276   4.101   2.342   1.699  0.4503  0.7725  0.1637
 8389WAT     H234277   4.155   2.306   1.579  0.6931  1.0692  0.1827
 8389WAT    EPW34278   4.101   2.343   1.621  0.1965  0.3939  0.1564
 8390WAT      O34279   5.446   5.952   2.027 -0.0578 -0.6274 -0.4705
 8390WAT     H134280   5.410   5.990   1.956  0.5511 -0.8048 -0.8827
 8390WAT     H234281   5.378   5.914   2.066 -0.5587  0.2360 -0.4604
 8390WAT    EPW34282   5.431   5.952   2.022 -0.0419 -0.5261 -0.5299
 8391WAT      O34283   2.086   4.661   6.887 -0.2589 -0.0977 -0.1405
 8391WAT     H134284   2.166   4.633   6.868 -0.2375  1.1346 -2.0370
 8391WAT     H234285   2.052   4.595   6.934  2.2484 -0.1045  1.8818
 8391WAT    EPW34286   2.093   4.647   6.891  0.1147  0.0833 -0.1219
 8392WAT      O34287   2.391   4.470   1.914 -1.0618  0.3210  0.8142
 8392WAT     H134288   2.370   4.393   1.948  0.8694  0.3287  2.1691
 8392WAT     H234289   2.325   4.522   1.938 -1.9453 -0.6876  0.6446
 8392WAT    EPW34290   2.378   4.466   1.922 -0.9070  0.1731  0.9893
 8393WAT      O34291   2.114   2.745   6.707  0.7777 -0.0701 -0.3579
 8393WAT     H134292   2.057   2.742   6.641 -0.0879 -0.6168  0.3979
 8393WAT     H234293   2.102   2.669   6.748  0.7415  0.5734  0.8802
 8393WAT    EPW34294   2.104   2.733   6.703  0.6445 -0.0558 -0.0633
 8394WAT      O34295   3.835   2.909   7.394  0.2600 -0.1331  0.1769
 8394WAT     H134296   3.919   2.918   7.416 -0.0470  0.8844  1.0450
 8394WAT     H234297   3.814   2.987   7.360 -0.2147 -0.5216 -0.4334
 8394WAT    EPW34298   3.844   2.922   7.392  0.1445 -0.0402  0.2150
 8395WAT      O34299   1.328   4.267   7.072 -0.2152  0.2088 -0.5237
 8395WAT     H134300   1.383   4.226   7.125  1.5994  4.6201  1.5016
 8395WAT     H234301   1.367   4.262   6.994  0.4159 -0.9145 -0.1609
 8395WAT    EPW34302   1.341   4.260   7.068  0.1461  0.6945 -0.1710
 8396WAT      O34303   2.604   5.243   6.144  0.5442  0.3461  0.6133
 8396WAT     H134304   2.690   5.225   6.142  0.5626  0.4442  0.5301
 8396WAT     H234305   2.570   5.176   6.188  0.3219 -0.9542 -1.4270
 8396WAT    EPW34306   2.612   5.231   6.151  0.5141  0.1685  0.2996
 8397WAT      O34307   1.545   1.218   6.286  0.0073 -0.2306 -0.0477
 8397WAT     H134308   1.500   1.151   6.317  0.2157 -0.2098  0.3164
 8397WAT     H234309   1.626   1.187   6.279  0.5985  0.5663  2.2215
 8397WAT    EPW34310   1.551   1.204   6.290  0.1254 -0.1098  0.3413
 8398WAT      O34311   1.788   0.251   1.377 -0.1257 -0.3975  0.3234
 8398WAT     H134312   1.802   0.309   1.440 -3.1248 -1.2943  1.9808
 8398WAT     H234313   1.721   0.284   1.332  1.5616 -0.0719 -2.1470
 8398WAT    EPW34314   1.780   0.265   1.380 -0.3195 -0.4819  0.2033
 8399WAT      O34315   4.680   6.929   1.760 -0.1518 -0.4997 -0.8611
 8399WAT     H134316   4.734   6.929   1.692  3.1176  0.1287  1.5020
 8399WAT     H234317   4.687   7.010   1.792 -0.5173 -1.1349  0.9548
 8399WAT    EPW34318   4.689   6.941   1.754  0.2772 -0.5007 -0.2438
 8400WAT      O34319   1.392   0.304   7.189  0.3393  0.0487  0.5957
 8400WAT     H134320   1.348   0.356   7.133  1.5053  1.6967  1.1241
 8400WAT     H234321   1.475   0.312   7.162  0.7221 -0.3809  1.6212
 8400WAT    EPW34322   1.398   0.313   7.177  0.5681  0.2287  0.8252
 8401WAT      O34323   2.558   1.656   5.244 -0.5142  0.2779  0.1672
 8401WAT     H134324   2.562   1.720   5.303  0.2025 -0.3719  0.8442
 8401WAT     H234325   2.480   1.618   5.260 -0.9681  1.0036 -0.2773
 8401WAT    EPW34326   2.547   1.659   5.255 -0.4754  0.2891  0.2015
 8402WAT      O34327   4.000   1.437   0.129 -0.0931 -0.2398  0.5014
 8402WAT     H134328   3.914   1.436   0.144 -0.3914 -0.7471 -1.0991
 8402WAT     H234329   4.015   1.517   0.097  0.0712 -0.0942  0.9325
 8402WAT    EPW34330   3.990   1.448   0.127 -0.1129 -0.2932  0.3287
 8403WAT      O34331   5.854   2.004   4.979  0.8039  0.2436  0.6548
 8403WAT     H134332   5.815   1.981   5.053  0.2503 -0.9593  0.0204
 8403WAT     H234333   5.842   2.091   4.976 -4.1475 -0.1508 -0.6455
 8403WAT    EPW34334   5.846   2.014   4.989 -0.0093  0.0076  0.3690
 8404WAT      O34335   3.685   2.610   4.664 -0.3244 -0.0373  0.1833
 8404WAT     H134336   3.629   2.576   4.608  0.3148  0.6080 -0.8727
 8404WAT     H234337   3.637   2.666   4.711 -0.3249  1.5618 -1.6307
 8404WAT    EPW34338   3.670   2.613   4.663 -0.2300  0.2942 -0.2407
 8405WAT      O34339   4.082   4.322   3.549  0.4793  0.2160 -0.7840
 8405WAT     H134340   4.092   4.318   3.462 -1.1944 -0.3460 -0.9850
 8405WAT     H234341   4.133   4.258   3.578  1.1344  0.4743 -1.3376
 8405WAT    EPW34342   4.091   4.312   3.540  0.3288  0.1711 -0.8955
 8406WAT      O34343   3.017   3.787   0.699  0.4609 -0.3473 -0.3505
 8406WAT     H134344   2.980   3.718   0.737 -0.1751 -0.7787 -1.6667
 8406WAT     H234345   2.952   3.846   0.695 -0.0876 -0.9856 -2.3688
 8406WAT    EPW34346   3.002   3.786   0.704  0.2859 -0.5053 -0.8431
 8407WAT      O34347   2.596   2.807   2.096  0.1713  0.1850  0.2798
 8407WAT     H134348   2.666   2.821   2.146 -1.0035  0.5243  1.8936
 8407WAT     H234349   2.529   2.831   2.146 -1.2145 -1.3379 -0.7124
 8407WAT    EPW34350   2.597   2.812   2.110 -0.2069  0.0101  0.3716
 8408WAT      O34351   3.370   4.985   1.107  0.0482 -0.2005  0.3577
 8408WAT     H134352   3.450   4.966   1.077  0.2685 -0.8245  1.3078
 8408WAT     H234353   3.322   4.991   1.034  1.1205  1.0550 -0.2825
 8408WAT    EPW34354   3.375   4.983   1.091  0.2391 -0.1072  0.4035
 8409WAT      O34355   7.648   0.223   4.450 -0.3485  0.2049 -0.1518
 8409WAT     H134356   7.577   0.257   4.489  0.1736  0.7010  0.3762
 8409WAT     H234357   7.657   0.271   4.378 -0.0665  0.6835  0.2012
 8409WAT    EPW34358   7.639   0.235   4.445 -0.2297  0.3489 -0.0217
 8410WAT      O34359   3.110   1.859   2.402  0.1559  0.2024 -0.3045
 8410WAT     H134360   3.186   1.823   2.422  1.1349  2.6011  0.6988
 8410WAT     H234361   3.086   1.899   2.476 -0.8430  1.4925 -1.2621
 8410WAT    EPW34362   3.117   1.860   2.416  0.1530  0.7473 -0.2977
 8411WAT      O34363   3.223   1.431   4.226  0.2262  0.0519  0.0777
 8411WAT     H134364   3.185   1.495   4.271 -0.1097 -0.7461  0.9711
 8411WAT     H234365   3.156   1.378   4.206  0.2520  0.7185 -1.9926
 8411WAT    EPW34366   3.207   1.433   4.230  0.1804  0.0325 -0.0962
 8412WAT      O34367   2.690   3.616   7.586 -0.1936  0.4467  0.0651
 8412WAT     H134368   2.673   3.685   7.537 -1.2296  0.6179  0.6430
 8412WAT     H234369   2.690   3.647   7.667  0.1680 -0.0819  0.2800
 8412WAT    EPW34370   2.688   3.631   7.591 -0.2933  0.3939  0.1822
 8413WAT      O34371   1.815   2.935   2.499  0.5964  0.4851 -0.1588
 8413WAT     H134372   1.839   2.883   2.433 -0.5691 -2.0505  1.2655
 8413WAT     H234373   1.837   3.015   2.471 -0.6834 -0.2960 -3.9815
 8413WAT    EPW34374   1.822   2.939   2.485  0.2352 -0.0049 -0.5131
 8414WAT      O34375   4.051   0.964   5.206 -0.1583 -0.0706 -0.1449
 8414WAT     H134376   4.073   0.924   5.132 -0.5496 -0.7958  0.1247
 8414WAT     H234377   4.126   0.999   5.234  0.2373 -0.8329 -0.2515
 8414WAT    EPW34378   4.065   0.964   5.200 -0.1576 -0.2904 -0.1208
 8415WAT      O34379   0.292   2.557   7.572 -0.1577  0.1610 -0.5731
 8415WAT     H134380   0.356   2.550   7.514 -0.6609  0.9460 -1.2426
 8415WAT     H234381   0.250   2.629   7.548 -1.7713 -0.7518 -0.6187
 8415WAT    EPW34382   0.295   2.567   7.560 -0.4704  0.1421 -0.6787
 8416WAT      O34383   0.389   2.351   4.793 -0.4155  0.0939 -0.3963
 8416WAT     H134384   0.412   2.275   4.756 -1.5684 -0.0484 -0.8416
 8416WAT     H234385   0.340   2.327   4.861  0.8640  0.3919  0.6836
 8416WAT    EPW34386   0.385   2.336   4.798 -0.3968  0.1169 -0.3026
 8417WAT      O34387   2.379   3.005   7.684 -0.2786  0.4319  0.1508
 8417WAT     H134388   2.312   2.951   7.669 -0.7187  0.5487  1.5857
 8417WAT     H234389   2.418   2.970   7.753  1.7423 -0.1568 -1.1787
 8417WAT    EPW34390   2.375   2.992   7.692 -0.0451  0.3622  0.1664
 8418WAT      O34391   3.323   0.155   7.851 -0.3077 -0.0982  0.1429
 8418WAT     H134392   3.388   0.205   7.820  0.0260 -0.0632  0.8811
 8418WAT     H234393   3.252   0.205   7.839  0.0425  0.6461  1.0256
 8418WAT    EPW34394   3.322   0.170   7.844 -0.2066  0.0169  0.3823
 8419WAT      O34395   1.324   0.932   5.974 -0.1801 -0.3447  0.1231
 8419WAT     H134396   1.269   0.904   6.035 -1.2733  0.2620 -0.5480
 8419WAT     H234397   1.338   1.016   5.995 -1.1855  0.0996 -0.8537
 8419WAT    EPW34398   1.318   0.940   5.986 -0.4901 -0.1894 -0.1204
 8420WAT      O34399   2.016   6.726   4.421 -0.0650 -0.3432 -0.3543
 8420WAT     H134400   2.022   6.804   4.383 -2.0386 -0.3866 -0.8657
 8420WAT     H234401   1.931   6.705   4.412  0.3574 -2.4315 -0.0262
 8420WAT    EPW34402   2.004   6.734   4.414 -0.2941 -0.6581 -0.3814
 8421WAT      O34403   1.929   5.261   2.147  0.6941  0.0508  0.2150
 8421WAT     H134404   1.952   5.180   2.122 -1.6858 -0.5485 -0.2556
 8421WAT     H234405   1.993   5.311   2.114  0.6617 -1.3300 -2.1905
 8421WAT    EPW34406   1.942   5.256   2.139  0.3377 -0.2417 -0.2099
 8422WAT      O34407   0.758   0.367   6.039 -0.0773 -0.3191 -0.0717
 8422WAT     H134408   0.813   0.427   6.008  1.2126 -1.7603 -0.6932
 8422WAT     H234409   0.680   0.395   6.013  0.2770  1.8765  0.9904
 8422WAT    EPW34410   0.755   0.380   6.031  0.1656 -0.2077 -0.0066
 8423WAT      O34411   4.176   3.191   7.362 -0.2373 -0.6896  0.2475
 8423WAT     H134412   4.095   3.201   7.333  0.5007 -0.1816 -1.8317
 8423WAT     H234413   4.182   3.247   7.428 -1.2773  0.0479 -0.2561
 8423WAT    EPW34414   4.165   3.201   7.367 -0.2819 -0.5056 -0.1340
 8424WAT      O34415   3.807   2.715   6.240  0.1222 -0.4104 -0.4287
 8424WAT     H134416   3.791   2.673   6.165  1.5340 -1.0730 -0.3828
 8424WAT     H234417   3.892   2.736   6.234 -0.0415  0.5849  0.4816
 8424WAT    EPW34418   3.817   2.712   6.228  0.3066 -0.3613 -0.2874
 8425WAT      O34419   1.571   1.523   5.858 -0.0444 -0.6594 -0.5332
 8425WAT     H134420   1.539   1.568   5.790 -1.6444 -0.2680  0.4105
 8425WAT     H234421   1.501   1.479   5.887  0.8163 -1.4794  0.3516
 8425WAT    EPW34422   1.556   1.523   5.852 -0.1536 -0.7227 -0.2631
 8426WAT      O34423   0.917   4.905   5.875  0.0985 -0.0566  0.1585
 8426WAT     H134424   0.995   4.919   5.911 -0.0367  1.7023 -0.1383
 8426WAT     H234425   0.890   4.831   5.913  0.0559  1.5124  3.5119
 8426WAT    EPW34426   0.925   4.896   5.886  0.0722  0.4350  0.6100
 8427WAT      O34427   1.387   4.418   4.916 -0.2118  0.0081 -0.1776
 8427WAT     H134428   1.470   4.433   4.939  0.3792 -2.2151 -0.6342
 8427WAT     H234429   1.342   4.434   4.989  0.6470  0.9228  0.1694
 8427WAT    EPW34430   1.393   4.422   4.930  0.0023 -0.1852 -0.1938
 8428WAT      O34431   4.793   1.843   7.318 -0.0829  0.4578  0.2493
 8428WAT     H134432   4.830   1.917   7.292 -1.1724  1.4826  1.4976
 8428WAT     H234433   4.804   1.789   7.250  0.6012  1.7966 -0.7295
 8428WAT    EPW34434   4.800   1.846   7.304 -0.1428  0.8069  0.2891
 8429WAT      O34435   2.911   6.372   7.779 -0.4264 -0.4435  0.3316
 8429WAT     H134436   2.881   6.348   7.858 -4.0212 -0.5717 -0.8944
 8429WAT     H234437   2.896   6.458   7.778  0.6258 -0.2449  0.1081
 8429WAT    EPW34438   2.904   6.381   7.791 -0.8020 -0.4331  0.1175
 8430WAT      O34439   1.755   0.677   5.218 -0.4935  0.6328  0.1260
 8430WAT     H134440   1.817   0.736   5.237  1.2157 -0.3043 -2.0143
 8430WAT     H234441   1.769   0.660   5.133 -1.9785 -1.6097  0.2472
 8430WAT    EPW34442   1.766   0.683   5.208 -0.4604  0.1631 -0.1723
 8431WAT      O34443   6.682   7.571   5.340 -0.5578 -0.4942  0.1179
 8431WAT     H134444   6.628   7.574   5.272 -0.8084 -0.6129  0.3130
 8431WAT     H234445   6.660   7.497   5.381  1.8171 -2.3088 -1.5467
 8431WAT    EPW34446   6.671   7.561   5.336 -0.2440 -0.7798 -0.0992
 8432WAT      O34447   5.527   2.719   7.027  0.5762  0.2782  0.0381
 8432WAT     H134448   5.499   2.681   7.101 -1.0223  2.0065  0.4177
 8432WAT     H234449   5.493   2.800   7.032  3.2617  1.5764 -0.9928
 8432WAT    EPW34450   5.518   2.725   7.039  0.7368  0.7253 -0.0581
 8433WAT      O34451   6.247   2.845   5.695 -0.0812  0.1635 -0.3362
 8433WAT     H134452   6.213   2.839   5.615 -0.0136  0.7335 -0.4088
 8433WAT     H234453   6.257   2.762   5.719  0.4277 -0.0125 -1.1442
 8433WAT    EPW34454   6.243   2.832   5.687  0.0039  0.2217 -0.4663
 8434WAT      O34455   2.280   1.832   3.086  0.0884  0.0236  0.5010
 8434WAT     H134456   2.253   1.906   3.049 -1.2297  0.0248  1.4417
 8434WAT     H234457   2.343   1.858   3.140  1.2090  0.1601 -0.8018
 8434WAT    EPW34458   2.286   1.846   3.088  0.0593  0.0439  0.4475
 8435WAT      O34459   5.332   5.333   5.535  0.3841  0.2472 -0.0769
 8435WAT     H134460   5.417   5.351   5.544  0.5212  0.0871 -1.0271
 8435WAT     H234461   5.314   5.358   5.454  0.4383 -3.2517 -1.2840
 8435WAT    EPW34462   5.342   5.340   5.525  0.4123 -0.2933 -0.3956
 8436WAT      O34463   6.505   4.769   4.604  0.1760  0.7018  0.1944
 8436WAT     H134464   6.464   4.811   4.669 -0.0875  1.9692 -0.7455
 8436WAT     H234465   6.459   4.791   4.534  2.3719  2.1299 -0.9030
 8436WAT    EPW34466   6.492   4.779   4.603  0.4615  1.1000 -0.1066
 8437WAT      O34467   1.541   1.635   7.598 -0.2555  0.1488 -0.0701
 8437WAT     H134468   1.515   1.651   7.680  0.9349  1.0958  0.1467
 8437WAT     H234469   1.586   1.561   7.605 -1.2421 -0.4792 -0.1220
 8437WAT    EPW34470   1.543   1.627   7.612 -0.2254  0.1959 -0.0457
 8438WAT      O34471   7.728   7.149   0.250 -0.3012  0.2367  0.1395
 8438WAT     H134472   7.640   7.150   0.254 -0.2684 -0.1954  2.0947
 8438WAT     H234473   7.752   7.153   0.334  1.5702  0.3766 -0.3625
 8438WAT    EPW34474   7.718   7.150   0.263 -0.0199  0.1935  0.3541
 8439WAT      O34475   4.035   6.468   7.408  0.5450 -0.0872  0.5468
 8439WAT     H134476   4.099   6.495   7.355 -0.9008 -1.0938 -1.8905
 8439WAT     H234477   3.973   6.529   7.398  0.4517  0.0331  1.6491
 8439WAT    EPW34478   4.035   6.481   7.399  0.3177 -0.2181  0.3496
 8440WAT      O34479   2.405   0.813   2.080 -0.2473 -1.2764  0.4419
 8440WAT     H134480   2.401   0.897   2.105 -1.0898 -0.8530 -1.0060
 8440WAT     H234481   2.461   0.815   2.014  1.4678 -2.2715  1.7813
 8440WAT    EPW34482   2.413   0.826   2.074 -0.1184 -1.3609  0.4259
 8441WAT      O34483   4.437   3.618   5.571 -0.6163  0.2674  0.6183
 8441WAT     H134484   4.477   3.667   5.511  0.4128 -0.0082  1.0416
 8441WAT     H234485   4.360   3.600   5.536  0.3466 -0.7617 -1.1199
 8441WAT    EPW34486   4.432   3.622   5.557 -0.3221  0.0747  0.4240
 8442WAT      O34487   3.212   0.062   6.191  0.0017  0.1086  0.5725
 8442WAT     H134488   3.225  -0.007   6.243  2.6151  1.3269  1.7293
 8442WAT     H234489   3.279   0.058   6.135 -0.3743  1.1482  0.0256
 8442WAT    EPW34490   3.224   0.051   6.191  0.3322  0.4421  0.6626
 8443WAT      O34491   2.108   3.726   4.831  0.0214 -0.3677  0.0868
 8443WAT     H134492   2.023   3.712   4.817 -0.0778 -0.3279  0.6313
 8443WAT     H234493   2.145   3.697   4.758 -0.5496  0.6957 -0.6570
 8443WAT    EPW34494   2.101   3.720   4.818 -0.0776 -0.2047  0.0574
 8444WAT      O34495   0.791   0.341   6.385 -0.6754 -0.2481 -0.3866
 8444WAT     H134496   0.790   0.326   6.299 -2.4739  1.6134 -0.7733
 8444WAT     H234497   0.712   0.316   6.412  0.0941 -1.4373  0.8967
 8444WAT    EPW34498   0.779   0.335   6.376 -0.8274 -0.1488 -0.2542
 8445WAT      O34499   6.204   2.789   3.425  0.1409  0.3544  0.0704
 8445WAT     H134500   6.249   2.797   3.499 -1.2518  1.1566  0.8573
 8445WAT     H234501   6.214   2.867   3.386 -1.7757  1.1183  0.9923
 8445WAT    EPW34502   6.212   2.802   3.430 -0.3479  0.5857  0.3228
 8446WAT      O34503   1.756   4.297   6.027  0.1944  0.0659  0.0306
 8446WAT     H134504   1.716   4.324   6.100  0.8554 -0.4039  0.5858
 8446WAT     H234505   1.769   4.212   6.041  2.6774  0.4602  0.5343
 8446WAT    EPW34506   1.752   4.288   6.040  0.6588  0.0548  0.1870
 8447WAT      O34507   3.003   6.353   5.962 -0.4534 -0.5203  0.1086
 8447WAT     H134508   2.975   6.309   5.892  1.0108 -0.4296 -0.5542
 8447WAT     H234509   3.080   6.384   5.938 -0.6282  0.8624  1.2250
 8447WAT    EPW34510   3.010   6.351   5.948 -0.2630 -0.3027  0.1756
 8448WAT      O34511   5.488   0.142   7.232 -0.3543  0.1809 -0.1373
 8448WAT     H134512   5.452   0.076   7.189 -0.1823 -0.3253  0.4784
 8448WAT     H234513   5.502   0.110   7.312 -1.6717  1.4144  0.6593
 8448WAT    EPW34514   5.485   0.128   7.238 -0.5235  0.2883  0.0713
 8449WAT      O34515   0.454   7.174   0.145 -0.4538 -0.1885 -0.2330
 8449WAT     H134516   0.490   7.242   0.186  0.9928 -2.0356  1.7529
 8449WAT     H234517   0.507   7.162   0.077  1.0674 -1.0414  1.0233
 8449WAT    EPW34518   0.467   7.182   0.141 -0.0154 -0.5873  0.2459
 8450WAT      O34519   2.759   3.388   1.510 -0.6370  0.2396  0.0325
 8450WAT     H134520   2.760   3.470   1.481 -1.4002  0.3666  0.3307
 8450WAT     H234521   2.839   3.376   1.542  0.2596  0.0882 -2.0896
 8450WAT    EPW34522   2.771   3.398   1.510 -0.6173  0.2360 -0.2370
 8451WAT      O34523   3.847   1.049   1.730 -0.0158  0.3065 -0.0324
 8451WAT     H134524   3.846   1.136   1.742 -1.5078  0.3206 -0.1244
 8451WAT     H234525   3.880   1.019   1.805 -0.6584  0.8981  0.5065
 8451WAT    EPW34526   3.852   1.058   1.743 -0.3311  0.3960  0.0336
 8452WAT      O34527   1.265   0.870   5.711 -0.3106  1.0506 -0.2884
 8452WAT     H134528   1.197   0.829   5.746  1.4722 -2.8152 -0.8058
 8452WAT     H234529   1.316   0.888   5.779  0.6177 -1.3314 -0.2604
 8452WAT    EPW34530   1.262   0.867   5.726  0.0899  0.1277 -0.3607
 8453WAT      O34531   3.234   7.452   0.041  0.2225 -0.3441  0.3894
 8453WAT     H134532   3.176   7.432  -0.020  2.2619 -0.1359 -1.7554
 8453WAT     H234533   3.294   7.388   0.035  1.8436  1.1049  0.2295
 8453WAT    EPW34534   3.234   7.440   0.031  0.7632 -0.0993  0.0490
 8454WAT      O34535   3.645   4.656   7.467 -0.3191  0.2943 -0.6463
 8454WAT     H134536   3.618   4.649   7.384  3.7527 -2.2405 -2.0806
 8454WAT     H234537   3.574   4.638   7.513 -2.1416 -1.3478 -3.7453
 8454WAT    EPW34538   3.631   4.652   7.462  0.0131 -0.3227 -1.3160
 8455WAT      O34539   4.699   1.526   3.417 -0.3913  0.0851  0.5405
 8455WAT     H134540   4.687   1.609   3.444 -0.0442 -0.0930  1.2753
 8455WAT     H234541   4.650   1.480   3.473 -0.8610 -0.1784 -0.0871
 8455WAT    EPW34542   4.690   1.532   3.429 -0.4094  0.0198  0.5563
 8456WAT      O34543   5.243   1.243   5.244  0.2323  0.5991 -0.2489
 8456WAT     H134544   5.258   1.164   5.279  1.9694  0.3209 -1.4810
 8456WAT     H234545   5.309   1.253   5.188 -1.0251  2.1148 -1.5440
 8456WAT    EPW34546   5.255   1.233   5.241  0.3031  0.7819 -0.6222
 8457WAT      O34547   2.364   1.204   3.048  0.1353 -0.0923 -0.1352
 8457WAT     H134548   2.428   1.262   3.059  0.2515 -0.2113 -0.1893
 8457WAT     H234549   2.294   1.244   3.082  0.6429 -0.7935  1.8465
 8457WAT    EPW34550   2.363   1.219   3.055  0.2275 -0.2135  0.1495
 8458WAT      O34551   2.361   3.372   1.783 -0.5352 -0.9432  0.4852
 8458WAT     H134552   2.279   3.399   1.795 -0.9814 -2.3329  0.6927
 8458WAT     H234553   2.354   3.285   1.778  0.8643 -1.0559  0.0008
 8458WAT    EPW34554   2.348   3.363   1.784 -0.3944 -1.1652  0.4443
 8459WAT      O34555   3.188   7.421   5.944 -0.5933 -0.1290  0.4363
 8459WAT     H134556   3.183   7.483   5.882 -0.4997  1.2341  1.7433
 8459WAT     H234557   3.120   7.439   5.996 -3.0624 -3.5318 -1.1617
 8459WAT    EPW34558   3.177   7.433   5.943 -0.9442 -0.4303  0.3933
 8460WAT      O34559   3.913   1.521   7.193 -0.1877  0.0346  0.0388
 8460WAT     H134560   3.934   1.558   7.117 -1.1164  0.6606  0.0575
 8460WAT     H234561   3.983   1.535   7.243 -0.2134  1.1282 -0.1923
 8460WAT    EPW34562   3.926   1.529   7.189 -0.3287  0.2886  0.0074
 8461WAT      O34563   5.926   1.429   6.170 -0.4413  0.1597 -0.3798
 8461WAT     H134564   5.983   1.397   6.228 -0.5448  0.2495 -0.2288
 8461WAT     H234565   5.957   1.400   6.093 -1.1659 -1.2613 -0.1603
 8461WAT    EPW34566   5.939   1.420   6.167 -0.5636 -0.0369 -0.3250
 8462WAT      O34567   5.624   4.122   1.719 -0.3948 -0.2458 -0.2160
 8462WAT     H134568   5.709   4.133   1.702 -0.1174  1.7375  2.0129
 8462WAT     H234569   5.624   4.061   1.781 -0.5488  0.1745  0.1969
 8462WAT    EPW34570   5.637   4.114   1.725 -0.3766  0.1093  0.1742
 8463WAT      O34571   3.588   2.379   6.083  0.0422  0.6696  0.1406
 8463WAT     H134572   3.519   2.370   6.031  0.7547 -0.2824 -0.6568
 8463WAT     H234573   3.613   2.462   6.068 -0.8575  1.0049  0.3872
 8463WAT    EPW34574   3.581   2.390   6.073  0.0145  0.5785  0.0592
 8464WAT      O34575   2.752   0.266   7.001 -0.0044 -0.4575  0.0412
 8464WAT     H134576   2.806   0.329   6.976  0.3502 -1.0453 -0.6968
 8464WAT     H234577   2.739   0.283   7.086  0.3185  0.4246 -0.0769
 8464WAT    EPW34578   2.758   0.277   7.010  0.0956 -0.4140 -0.0853
 8465WAT      O34579   2.698   3.006   7.393  0.3424  0.2116 -0.0177
 8465WAT     H134580   2.656   2.939   7.431 -1.1106  0.4771 -1.0589
 8465WAT     H234581   2.727   3.053   7.461  1.7602 -1.6358  0.7539
 8465WAT    EPW34582   2.696   3.003   7.409  0.3372 -0.0221 -0.0575
 8466WAT      O34583   2.821   2.441   4.056 -0.3228  0.2532 -0.4343
 8466WAT     H134584   2.894   2.479   4.027 -0.7759  0.3660 -1.4639
 8466WAT     H234585   2.825   2.361   4.022  0.9524 -0.9583  2.2506
 8466WAT    EPW34586   2.833   2.435   4.047 -0.2013  0.0909 -0.1898
 8467WAT      O34587   3.411   3.966   0.177  0.6439  0.1232  0.6195
 8467WAT     H134588   3.490   3.932   0.186 -0.0465 -1.4213  1.1348
 8467WAT     H234589   3.427   4.051   0.165  2.4896 -0.4552 -1.8285
 8467WAT    EPW34590   3.425   3.974   0.177  0.8146 -0.1904  0.3340
 8468WAT      O34591   2.664   2.514   1.311  0.5939  0.1898  0.2956
 8468WAT     H134592   2.738   2.489   1.350  0.4175 -3.7862 -1.4525
 8468WAT     H234593   2.603   2.495   1.370  0.5364 -3.5165 -0.7042
 8468WAT    EPW34594   2.666   2.507   1.326  0.5594 -0.9450 -0.1103
 8469WAT      O34595   1.968   0.234   1.039  0.6539 -0.3800  1.1702
 8469WAT     H134596   1.900   0.210   0.989  1.2253 -0.3633  0.3565
 8469WAT     H234597   1.950   0.316   1.062  2.1909  1.1804 -2.3954
 8469WAT    EPW34598   1.955   0.242   1.035  0.9654 -0.1470  0.5233
 8470WAT      O34599   5.834   1.087   3.779  0.2093 -0.3524  0.0795
 8470WAT     H134600   5.810   1.120   3.703  1.6287 -0.6536 -0.5409
 8470WAT     H234601   5.856   1.158   3.826  1.6342 -0.2616 -0.6613
 8470WAT    EPW34602   5.834   1.102   3.775  0.6295 -0.3835 -0.1216
 8471WAT      O34603   6.468   2.904   4.004 -0.4193 -0.0418  0.2348
 8471WAT     H134604   6.525   2.841   3.983 -1.0859 -0.3874 -0.6101
 8471WAT     H234605   6.480   2.915   4.090  1.8248  0.8424 -0.1369
 8471WAT    EPW34606   6.478   2.896   4.014 -0.1862  0.0377  0.0550
 8472WAT      O34607   0.562   2.469   0.166 -0.0585  0.4085  0.6687
 8472WAT     H134608   0.534   2.537   0.213  1.1893  1.0784  0.4647
 8472WAT     H234609   0.529   2.484   0.086 -0.4027  0.3720  0.8009
 8472WAT    EPW34610   0.553   2.481   0.161  0.0750  0.5021  0.6581
 8473WAT      O34611   0.674   6.636   5.470 -0.1868 -0.2974 -0.2142
 8473WAT     H134612   0.629   6.641   5.395 -1.2006 -0.7320  0.3483
 8473WAT     H234613   0.756   6.626   5.443 -0.7312 -2.3390 -1.3053
 8473WAT    EPW34614   0.679   6.636   5.455 -0.4169 -0.6632 -0.2923
 8474WAT      O34615   2.023   4.524   3.136 -0.0710  0.1292 -0.0518
 8474WAT     H134616   2.008   4.595   3.087  0.8097 -1.2887 -2.5501
 8474WAT     H234617   1.945   4.507   3.170 -0.8865  0.9200 -1.3918
 8474WAT    EPW34618   2.009   4.532   3.134 -0.0614  0.0366 -0.6188
 8475WAT      O34619   0.731   4.999   7.825 -0.5399  0.7718  0.5407
 8475WAT     H134620   0.714   5.085   7.824 -1.2380  0.6292 -0.3628
 8475WAT     H234621   0.670   4.967   7.878 -0.3859  0.8016  0.7396
 8475WAT    EPW34622   0.720   5.007   7.833 -0.6203  0.7551  0.4366
 8476WAT      O34623   3.275   7.543   7.176 -0.1553  0.2990 -0.5427
 8476WAT     H134624   3.230   7.618   7.184 -0.3869  0.2082 -0.9842
 8476WAT     H234625   3.243   7.493   7.240 -0.6436  0.2548 -0.8147
 8476WAT    EPW34626   3.264   7.547   7.187 -0.2616  0.2790 -0.6481
 8477WAT      O34627   0.886   3.124   5.937 -0.0570 -0.2065 -0.2521
 8477WAT     H134628   0.945   3.065   5.961  1.0928  0.5117 -1.2022
 8477WAT     H234629   0.859   3.096   5.859  0.5068  0.4985 -0.7180
 8477WAT    EPW34630   0.891   3.111   5.929  0.1961  0.0037 -0.4613
 8478WAT      O34631   4.421   6.995   5.001 -0.3979  0.6440 -0.1874
 8478WAT     H134632   4.375   6.984   4.927 -0.4828  2.4974 -0.4590
 8478WAT     H234633   4.383   6.940   5.057 -0.6334 -0.4683 -1.3786
 8478WAT    EPW34634   4.408   6.985   4.998 -0.4452  0.7535 -0.4035
 8479WAT      O34635   0.943   4.058   4.496  0.3371 -0.4191  0.3434
 8479WAT     H134636   0.952   4.084   4.413  0.1558 -2.1924 -0.2647
 8479WAT     H234637   0.961   4.130   4.542 -0.4449  0.8566 -1.2430
 8479WAT    EPW34638   0.947   4.073   4.491  0.1948 -0.4926  0.0192
 8480WAT      O34639   1.563   5.783   2.806 -0.1821  0.5451 -0.3267
 8480WAT     H134640   1.485   5.762   2.840 -0.7697  1.0061 -1.3478
 8480WAT     H234641   1.620   5.741   2.857 -1.0231  1.2127  1.2324
 8480WAT    EPW34642   1.560   5.774   2.819 -0.3931  0.7118 -0.2473
 8481WAT      O34643   3.056   3.159   3.357  0.0469 -0.3613 -0.4727
 8481WAT     H134644   2.977   3.145   3.390 -0.5727 -0.0446 -1.7632
 8481WAT     H234645   3.110   3.134   3.421 -1.0892 -0.4767  0.4648
 8481WAT    EPW34646   3.053   3.153   3.372 -0.2125 -0.3315 -0.5249
 8482WAT      O34647   6.623   3.038   0.493  0.7415  0.1555  0.6335
 8482WAT     H134648   6.647   2.958   0.518  1.7455 -0.0575 -0.8556
 8482WAT     H234649   6.698   3.075   0.466  0.0575  1.0117 -0.1798
 8482WAT    EPW34650   6.638   3.032   0.493  0.7888  0.2505  0.2934
 8483WAT      O34651   3.317   0.450   4.678  0.0900 -0.5354 -0.6426
 8483WAT     H134652   3.373   0.400   4.633  0.4214 -0.3489 -0.4393
 8483WAT     H234653   3.241   0.409   4.668  0.1915 -0.5864 -1.2362
 8483WAT    EPW34654   3.314   0.437   4.670  0.1540 -0.5154 -0.7002
 8484WAT      O34655   6.086   3.299   4.925 -0.5527 -0.0627  0.0460
 8484WAT     H134656   6.130   3.317   4.998  0.5235  0.2737 -0.6486
 8484WAT     H234657   6.010   3.340   4.936  0.2222  1.3970  0.2929
 8484WAT    EPW34658   6.081   3.308   4.937 -0.2793  0.2026 -0.0201
 8485WAT      O34659   3.129   2.990   7.165 -1.1493  0.5402  0.0461
 8485WAT     H134660   3.102   2.940   7.231  1.4243  1.2589  1.7794
 8485WAT     H234661   3.058   3.035   7.144 -1.8398  1.1843  3.2141
 8485WAT    EPW34662   3.115   2.989   7.171 -0.8711  0.7415  0.7701
 8486WAT      O34663   2.911   6.675   0.294 -0.3832 -0.2268 -0.0764
 8486WAT     H134664   2.936   6.757   0.313 -0.6088 -0.8184  3.5061
 8486WAT     H234665   2.948   6.660   0.217  2.2375  2.2427  0.5163
 8486WAT    EPW34666   2.920   6.685   0.286 -0.0294  0.0506  0.5404
 8487WAT      O34667   5.065   4.872   3.364 -0.3890  0.2136 -1.0066
 8487WAT     H134668   5.140   4.861   3.407 -0.7986  1.6652  0.1570
 8487WAT     H234669   5.069   4.813   3.300  1.6627  0.1323 -0.8674
 8487WAT    EPW34670   5.077   4.862   3.361 -0.1465  0.4160 -0.8142
 8488WAT      O34671   1.763   5.560   7.627  0.2983  0.1894  0.3523
 8488WAT     H134672   1.763   5.534   7.710 -0.0017  2.2758  1.0892
 8488WAT     H234673   1.846   5.551   7.601 -0.2243 -4.0349 -0.4602
 8488WAT    EPW34674   1.775   5.555   7.635  0.1767 -0.1264  0.3411
 8489WAT      O34675   2.196   4.667   5.266 -0.1472 -0.0417 -0.5241
 8489WAT     H134676   2.173   4.723   5.204 -0.7850  1.0448  0.6525
 8489WAT     H234677   2.257   4.710   5.312  0.0404 -0.6749 -0.1626
 8489WAT    EPW34678   2.202   4.681   5.264 -0.2137  0.0252 -0.2969
 8490WAT      O34679   3.199   0.380   5.661 -0.3615  0.0396  0.3024
 8490WAT     H134680   3.137   0.388   5.722 -2.0088 -0.4299 -1.2376
 8490WAT     H234681   3.196   0.296   5.640 -0.0130  0.2469 -0.6216
 8490WAT    EPW34682   3.190   0.369   5.667 -0.5533  0.0009 -0.0616
 8491WAT      O34683   3.273   0.803   3.763  0.7682  0.2572  0.8360
 8491WAT     H134684   3.268   0.832   3.680 -0.8320  1.5895  1.3408
 8491WAT     H234685   3.340   0.848   3.796  1.1878 -0.0176  0.3724
 8491WAT    EPW34686   3.282   0.814   3.755  0.5938  0.4134  0.8421
 8492WAT      O34687   2.928   5.142   5.247  0.4862 -0.0210  0.7119
 8492WAT     H134688   2.992   5.139   5.306  1.1803 -0.1716 -0.0351
 8492WAT     H234689   2.915   5.058   5.226  3.5251  0.1033 -2.7546
 8492WAT    EPW34690   2.936   5.129   5.252  1.0376 -0.0249  0.0895
 8493WAT      O34691   2.537   5.175   4.429  0.2986 -0.0895  0.0174
 8493WAT     H134692   2.464   5.131   4.449 -0.5985  1.7674  1.0292
 8493WAT     H234693   2.537   5.175   4.342 -0.0071 -1.4892 -0.0178
 8493WAT    EPW34694   2.526   5.168   4.419  0.1210 -0.0220  0.1616
 8494WAT      O34695   5.327   0.092   4.492  0.1000 -0.3313  0.0631
 8494WAT     H134696   5.410   0.074   4.471  1.3318  2.3738  1.9788
 8494WAT     H234697   5.314   0.046   4.566 -0.1592 -0.8089 -0.2740
 8494WAT    EPW34698   5.337   0.083   4.500  0.2437 -0.0023  0.2963
 8495WAT      O34699   5.321   1.341   5.787 -0.4222 -0.1913 -0.6342
 8495WAT     H134700   5.313   1.348   5.700  0.0520 -0.5131 -0.7069
 8495WAT     H234701   5.266   1.402   5.818 -1.7372 -1.0913 -1.1219
 8495WAT    EPW34702   5.312   1.351   5.779 -0.5464 -0.3718 -0.7170
 8496WAT      O34703   6.066   0.473   5.218  0.1412  0.1532 -0.5237
 8496WAT     H134704   6.045   0.451   5.136  0.5883  0.6956 -0.7878
 8496WAT     H234705   6.093   0.555   5.211 -0.6254  0.4981  0.3073
 8496WAT    EPW34706   6.067   0.482   5.205  0.0940  0.2843 -0.4400
 8497WAT      O34707   0.412   7.566   6.468  0.2035 -0.6689  0.6408
 8497WAT     H134708   0.438   7.555   6.550 -0.8134  0.5930  1.1549
 8497WAT     H234709   0.448   7.498   6.426  1.9516 -0.5270  1.8191
 8497WAT    EPW34710   0.421   7.554   6.474  0.3115 -0.4615  0.8908
 8498WAT      O34711   4.713   7.265   2.179  0.2939 -0.2517  0.1022
 8498WAT     H134712   4.635   7.232   2.203  0.3853 -0.2123  0.4602
 8498WAT     H234713   4.692   7.330   2.125 -0.0134  0.9066  1.5383
 8498WAT    EPW34714   4.698   7.270   2.175  0.2620 -0.0748  0.3673
 8499WAT      O34715   6.895   2.031   6.978  0.5263  0.4304  0.6704
 8499WAT     H134716   6.889   1.953   6.939 -2.5486  1.5435 -1.4939
 8499WAT     H234717   6.964   2.068   6.939 -0.2204  0.0825 -1.1007
 8499WAT    EPW34718   6.904   2.025   6.966 -0.0383  0.5434  0.0891
 8500WAT      O34719   6.209   1.602   5.028 -0.3241  0.0753 -0.4523
 8500WAT     H134720   6.262   1.632   4.965 -0.7851  0.4934 -0.6498
 8500WAT     H234721   6.131   1.632   5.004 -0.5082  0.2172  0.3164
 8500WAT    EPW34722   6.206   1.611   5.015 -0.4194  0.1580 -0.3679
 8501WAT      O34723   3.727   1.702   7.281  0.1787 -0.1826 -0.1882
 8501WAT     H134724   3.718   1.777   7.237  0.4852 -0.4245 -0.6711
 8501WAT     H234725   3.779   1.654   7.230  3.2555  0.6762  1.8575
 8501WAT    EPW34726   3.733   1.706   7.267  0.6785 -0.0915  0.0426
 8502WAT      O34727   2.796   5.756   2.654  0.2306  0.1666 -0.0322
 8502WAT     H134728   2.796   5.687   2.600 -0.4376 -0.0627  0.2557
 8502WAT     H234729   2.875   5.752   2.692  1.0572  0.8099 -1.5874
 8502WAT    EPW34730   2.808   5.745   2.651  0.2540  0.2278 -0.2194
 8503WAT      O34731   1.757   4.677   4.901  0.4371 -0.4662 -0.2400
 8503WAT     H134732   1.706   4.710   4.839 -0.3495  0.0408  0.6528
 8503WAT     H234733   1.702   4.629   4.949  0.2958  1.6583  1.9017
 8503WAT    EPW34734   1.741   4.675   4.899  0.3000 -0.0775  0.2083
 8504WAT      O34735   2.576   0.226   1.234 -0.3888 -0.1716  0.1067
 8504WAT     H134736   2.594   0.310   1.251 -0.6295 -0.1166  0.0933
 8504WAT     H234737   2.540   0.228   1.155 -2.0070 -0.0665  0.7942
 8504WAT    EPW34738   2.573   0.239   1.225 -0.6634 -0.1480  0.2062
 8505WAT      O34739   3.983   1.558   6.224  0.1179 -0.2996  0.2012
 8505WAT     H134740   3.911   1.525   6.186  0.3156 -0.9804  0.4274
 8505WAT     H234741   3.992   1.511   6.296  0.6720 -0.0672  0.2837
 8505WAT    EPW34742   3.974   1.546   6.229  0.2290 -0.3658  0.2468
 8506WAT      O34743   3.750   4.157   6.064  0.3708 -0.5351  0.1056
 8506WAT     H134744   3.693   4.218   6.040  1.6738  1.3678  1.5707
 8506WAT     H234745   3.757   4.107   5.993 -3.3830 -1.1846 -0.0013
 8506WAT    EPW34746   3.743   4.159   6.050  0.0088 -0.3500  0.3062
 8507WAT      O34747   1.853   4.191   3.520  0.5962 -0.0516  0.2045
 8507WAT     H134748   1.894   4.254   3.477 -0.2507  1.1267  1.0548
 8507WAT     H234749   1.854   4.218   3.603  0.5838 -1.3755  0.6692
 8507WAT    EPW34750   1.859   4.204   3.526  0.4693 -0.0731  0.3988
 8508WAT      O34751   7.707   1.721   4.183 -0.3993  0.3672 -0.4701
 8508WAT     H134752   7.708   1.808   4.195 -0.7962  0.2615  0.4025
 8508WAT     H234753   7.779   1.706   4.136  0.4677  1.0033  0.6191
 8508WAT    EPW34754   7.718   1.732   4.178 -0.3298  0.4456 -0.1803
 8509WAT      O34755   1.120   4.499   7.596  0.1871  0.0628  0.4124
 8509WAT     H134756   1.145   4.416   7.598 -1.4271 -0.4703 -0.1761
 8509WAT     H234757   1.091   4.510   7.514 -0.9975  0.7767  0.9073
 8509WAT    EPW34758   1.120   4.489   7.584 -0.2264  0.0895  0.3986
 8510WAT      O34759   1.948   1.582   4.781 -0.4240  0.0173  0.7371
 8510WAT     H134760   1.866   1.560   4.761 -0.7638  1.7988 -0.0382
 8510WAT     H234761   1.989   1.583   4.704 -0.3499  1.5965  0.7543
 8510WAT    EPW34762   1.942   1.579   4.767 -0.4632  0.5138  0.6251
 8511WAT      O34763   2.607   7.157   3.841  0.7317  0.0283 -0.1603
 8511WAT     H134764   2.673   7.118   3.882  0.6966  1.0337  0.9251
 8511WAT     H234765   2.561   7.193   3.906 -0.4221  0.0523 -0.9514
 8511WAT    EPW34766   2.610   7.157   3.857  0.5561  0.1804 -0.1168
 8512WAT      O34767   1.719   2.453   7.066  0.8494  0.3120  0.0671
 8512WAT     H134768   1.796   2.482   7.037  0.0693  1.3222 -1.1246
 8512WAT     H234769   1.726   2.366   7.058  0.8731  0.4621 -2.9599
 8512WAT    EPW34770   1.731   2.444   7.061  0.7377  0.4834 -0.5561
 8513WAT      O34771   4.581   1.615   4.943  0.4392 -0.2186 -0.3011
 8513WAT     H134772   4.640   1.576   4.892 -0.0535 -1.7682  0.2418
 8513WAT     H234773   4.508   1.569   4.929  0.4514 -1.1777  2.2802
 8513WAT    EPW34774   4.579   1.602   4.933  0.3682 -0.5892  0.1604
 8514WAT      O34775   0.298   1.080   4.646  0.3143  0.0473  0.1619
 8514WAT     H134776   0.289   1.118   4.567 -0.0762 -0.8059 -0.2085
 8514WAT     H234777   0.217   1.057   4.667  0.7167 -1.9582 -0.3260
 8514WAT    EPW34778   0.285   1.082   4.637  0.3160 -0.3750  0.0351
 8515WAT      O34779   2.171   2.541   6.043  0.3666 -0.2973 -0.1645
 8515WAT     H134780   2.156   2.587   6.115  1.2895  1.4353 -1.0266
 8515WAT     H234781   2.119   2.472   6.051 -0.8776  0.7719  1.3053
 8515WAT    EPW34782   2.161   2.538   6.055  0.3191  0.1166 -0.0747
 8516WAT      O34783   2.484   4.155   0.538  0.5774 -0.6121 -0.0094
 8516WAT     H134784   2.571   4.157   0.531  0.4800  0.2932 -1.3096
 8516WAT     H234785   2.461   4.238   0.524 -0.5720 -1.0683 -1.0261
 8516WAT    EPW34786   2.493   4.168   0.535  0.3933 -0.5458 -0.3517
 8517WAT      O34787   5.999   2.106   5.288 -0.1076 -0.0658  0.3274
 8517WAT     H134788   6.017   2.034   5.334  0.8422  0.9835  1.6853
 8517WAT     H234789   5.912   2.112   5.294 -0.2883 -1.4188 -0.3730
 8517WAT    EPW34790   5.989   2.096   5.296  0.0060 -0.1107  0.4245
 8518WAT      O34791   4.221   1.765   6.285  0.6717  0.3677  0.2333
 8518WAT     H134792   4.169   1.810   6.231  0.9819  0.0516 -0.3348
 8518WAT     H234793   4.194   1.682   6.275  1.1672  0.2250  0.0662
 8518WAT    EPW34794   4.209   1.759   6.276  0.7907  0.2999  0.1247
 8519WAT      O34795   4.771   4.854   6.871  0.2136 -0.1723 -0.1684
 8519WAT     H134796   4.830   4.914   6.894 -1.5243  1.3196  0.6598
 8519WAT     H234797   4.715   4.898   6.821 -0.7052 -1.2964 -0.1853
 8519WAT    EPW34798   4.771   4.869   6.867 -0.1789 -0.1180 -0.0486
 8520WAT      O34799   2.608   0.733   4.766 -0.4359 -0.9783 -0.6190
 8520WAT     H134800   2.670   0.679   4.736  0.8624 -0.2155  0.5682
 8520WAT     H234801   2.654   0.802   4.793 -1.7635 -0.6688  0.9366
 8520WAT    EPW34802   2.624   0.735   4.765 -0.4402 -0.8199 -0.2138
 8521WAT      O34803   3.871   1.863   4.430 -0.4790 -0.2431  0.6730
 8521WAT     H134804   3.830   1.786   4.436 -0.6210 -0.1301  1.2181
 8521WAT     H234805   3.955   1.844   4.447 -0.4033 -0.3854  0.1286
 8521WAT    EPW34806   3.877   1.849   4.434 -0.4888 -0.2474  0.6731
 8522WAT      O34807   3.644   5.068   6.752 -0.2660 -0.2042 -0.5862
 8522WAT     H134808   3.643   4.982   6.759 -1.2893 -0.1609 -0.0126
 8522WAT     H234809   3.716   5.092   6.794 -0.4678 -0.7132  0.0535
 8522WAT    EPW34810   3.654   5.059   6.759 -0.4470 -0.2730 -0.4070
 8523WAT      O34811   5.811   2.700   1.594 -0.4768 -0.2852  0.3381
 8523WAT     H134812   5.737   2.722   1.553 -0.8524 -1.8446  0.1263
 8523WAT     H234813   5.801   2.733   1.674 -0.3315  1.6007 -0.3738
 8523WAT    EPW34814   5.798   2.708   1.600 -0.5108 -0.2370  0.2017
 8524WAT      O34815   1.237   1.697   3.964  0.3045 -0.1987 -0.3059
 8524WAT     H134816   1.324   1.697   3.955  0.6176 -3.4134  1.4678
 8524WAT     H234817   1.212   1.624   3.923 -1.2179 -0.6860  1.3531
 8524WAT    EPW34818   1.246   1.686   3.956  0.1259 -0.7455  0.2012
 8525WAT      O34819   6.163   3.739   5.642  0.3985 -0.6792 -0.0514
 8525WAT     H134820   6.151   3.769   5.723  1.4311 -1.4486  0.4065
 8525WAT     H234821   6.132   3.804   5.592 -1.4484 -0.7223  0.9423
 8525WAT    EPW34822   6.156   3.753   5.647  0.2782 -0.7992  0.1630
 8526WAT      O34823   0.882   6.599   4.180 -0.4774 -0.4301  0.1798
 8526WAT     H134824   0.800   6.616   4.155 -0.5085 -2.7721 -1.6435
 8526WAT     H234825   0.899   6.521   4.145  2.3888 -0.2629  0.9046
 8526WAT    EPW34826   0.873   6.590   4.171 -0.0586 -0.7514  0.0176
 8527WAT      O34827   2.762   2.015   5.500  0.4359 -0.2289  0.0837
 8527WAT     H134828   2.813   2.072   5.458 -1.7595  1.1598 -0.8753
 8527WAT     H234829   2.773   2.036   5.584  1.4791  0.0011 -0.1008
 8527WAT    EPW34830   2.771   2.027   5.506  0.2657  0.0102 -0.0852
 8528WAT      O34831   2.805   2.964   6.512 -0.8837 -0.1014  0.6179
 8528WAT     H134832   2.890   2.954   6.491 -1.0560  0.2523 -0.3041
 8528WAT     H234833   2.770   2.996   6.439 -1.6380  0.6701  1.3042
 8528WAT    EPW34834   2.813   2.967   6.498 -1.0206  0.0648  0.5831
 8529WAT      O34835   2.140   3.388   6.322 -0.3728 -0.4913  0.2284
 8529WAT     H134836   2.225   3.391   6.338 -0.6290  0.5240  1.6257
 8529WAT     H234837   2.129   3.313   6.279  1.0709 -1.1321  0.9232
 8529WAT    EPW34838   2.151   3.378   6.318 -0.1974 -0.4360  0.5375
 8530WAT      O34839   3.427   2.763   7.431  0.4513 -0.7387  0.1882
 8530WAT     H134840   3.370   2.697   7.436  0.0184 -0.5609 -1.6443
 8530WAT     H234841   3.448   2.765   7.346 -0.1263  1.9567  0.0242
 8530WAT    EPW34842   3.422   2.753   7.419  0.3020 -0.3143 -0.1068
 8531WAT      O34843   5.568   3.835   7.016 -0.2522  0.3046 -0.1742
 8531WAT     H134844   5.550   3.814   6.933  1.0721 -0.3560 -0.3262
 8531WAT     H234845   5.506   3.893   7.037  0.5278  2.0644 -2.2949
 8531WAT    EPW34846   5.556   3.840   7.007  0.0587  0.4670 -0.5099
 8532WAT      O34847   2.575   0.935   2.502 -0.1346  0.2651 -0.3055
 8532WAT     H134848   2.510   0.898   2.547  0.0940 -1.9798 -1.6947
 8532WAT     H234849   2.536   1.000   2.459 -0.9462  0.4575  0.6715
 8532WAT    EPW34850   2.560   0.939   2.502 -0.2207 -0.0381 -0.3664
 8533WAT      O34851   5.825   7.502   3.842 -0.1149 -0.3263  0.1131
 8533WAT     H134852   5.896   7.551   3.852  0.3237 -1.1151  0.9790
 8533WAT     H234853   5.761   7.560   3.835  0.9243  0.6866 -4.8285
 8533WAT    EPW34854   5.826   7.518   3.842  0.1034 -0.2932 -0.4889
 8534WAT      O34855   4.395   4.767   1.890  0.2987  0.4349  0.5235
 8534WAT     H134856   4.339   4.786   1.825  2.2943 -0.2241 -1.5498
 8534WAT     H234857   4.347   4.721   1.946 -1.0744 -0.9650 -1.6284
 8534WAT    EPW34858   4.380   4.763   1.889  0.3907  0.1308 -0.1006
 8535WAT      O34859   3.598   2.634   4.236 -0.0940 -0.3085 -0.1164
 8535WAT     H134860   3.563   2.605   4.311 -0.2874 -0.5166 -0.2851
 8535WAT     H234861   3.603   2.720   4.247  1.4381 -0.4857  0.8027
 8535WAT    EPW34862   3.594   2.642   4.249  0.1038 -0.3654 -0.0055
 8536WAT      O34863   5.245   2.240   2.897  0.2918  0.6043  0.0769
 8536WAT     H134864   5.316   2.278   2.931  0.3108  1.1070 -0.5041
 8536WAT     H234865   5.244   2.161   2.933  0.5315  0.9850  0.9306
 8536WAT    EPW34866   5.255   2.234   2.907  0.3300  0.7348  0.1172
 8537WAT      O34867   2.602   0.671   0.241 -0.3681  0.4814 -0.1720
 8537WAT     H134868   2.566   0.750   0.235 -2.0785 -0.1568  0.9130
 8537WAT     H234869   2.539   0.622   0.276  1.0314 -1.1135  0.2686
 8537WAT    EPW34870   2.587   0.675   0.245 -0.4140  0.1515  0.0533
 8538WAT      O34871   5.777   2.752   2.095 -0.0462  0.1803 -0.0497
 8538WAT     H134872   5.833   2.819   2.096  0.3988 -0.0062 -2.8326
 8538WAT     H234873   5.828   2.683   2.107 -0.3799  0.2278  1.9093
 8538WAT    EPW34874   5.793   2.752   2.097 -0.0297  0.1598 -0.1714
 8539WAT      O34875   0.800   0.375   4.045  0.3383  0.4298  0.2945
 8539WAT     H134876   0.850   0.309   4.018 -1.8656 -0.4410 -2.0901
 8539WAT     H234877   0.838   0.445   4.009  0.6020 -0.0468 -0.3882
 8539WAT    EPW34878   0.813   0.376   4.036  0.0517  0.2308 -0.1586
 8540WAT      O34879   5.944   6.761   5.400 -0.1274  0.0268 -0.0476
 8540WAT     H134880   5.986   6.798   5.333 -0.5109 -0.5124 -0.5925
 8540WAT     H234881   5.959   6.676   5.389  1.0186  0.0073  1.3730
 8540WAT    EPW34882   5.952   6.754   5.389 -0.0148 -0.0557  0.0818
 8541WAT      O34883   2.107   7.076   6.494  0.2796 -0.2284 -0.3307
 8541WAT     H134884   2.022   7.075   6.473  0.2026 -0.2315 -0.0281
 8541WAT     H234885   2.106   7.064   6.581  0.4531  2.4231  0.1054
 8541WAT    EPW34886   2.094   7.074   6.504  0.2939  0.1628 -0.2216
 8542WAT      O34887   4.647   3.581   0.176 -0.2137  0.1684  0.1639
 8542WAT     H134888   4.696   3.649   0.199 -0.4009  0.2121  0.4406
 8542WAT     H234889   4.590   3.614   0.120  0.7573 -0.0999 -1.0130
 8542WAT    EPW34890   4.646   3.596   0.171 -0.0980  0.1352  0.0309
 8543WAT      O34891   2.578   3.410   0.471 -0.2421  0.2225 -0.3994
 8543WAT     H134892   2.570   3.348   0.532  0.5184  0.9281  0.4559
 8543WAT     H234893   2.496   3.433   0.454 -0.4718  0.0977  0.4629
 8543WAT    EPW34894   2.565   3.404   0.478 -0.1637  0.3083 -0.1457
 8544WAT      O34895   0.099   4.056   6.996  0.1455 -0.3440  0.0477
 8544WAT     H134896   0.018   4.077   7.020 -0.8384  0.4403 -3.3171
 8544WAT     H234897   0.113   3.979   7.034 -1.3706  0.3963  2.2845
 8544WAT    EPW34898   0.089   4.048   7.005 -0.2238 -0.1188 -0.1189
 8545WAT      O34899   3.414   5.352   0.570  0.4690  0.1105 -1.0580
 8545WAT     H134900   3.361   5.334   0.637  0.0522 -0.4887 -1.5369
 8545WAT     H234901   3.428   5.438   0.577 -0.1558  0.1838 -0.6261
 8545WAT    EPW34902   3.408   5.362   0.581  0.3151  0.0328 -1.0650
 8546WAT      O34903   2.323   4.732   4.315 -0.3180  0.1196 -0.1245
 8546WAT     H134904   2.236   4.737   4.303 -0.3388 -0.8580 -0.4601
 8546WAT     H234905   2.339   4.646   4.317  0.6790  0.2850 -0.3177
 8546WAT    EPW34906   2.312   4.720   4.313 -0.1738 -0.0004 -0.2026
 8547WAT      O34907   1.196   6.200   0.467  0.2829  0.4527 -0.4984
 8547WAT     H134908   1.141   6.255   0.507 -0.1077 -0.5751  0.4759
 8547WAT     H234909   1.197   6.227   0.384 -0.3780  1.5178 -0.1777
 8547WAT    EPW34910   1.188   6.212   0.461  0.1276  0.4582 -0.3071
 8548WAT      O34911   1.546   1.431   3.825  0.1852 -0.1127  0.2039
 8548WAT     H134912   1.477   1.439   3.772  0.2347 -2.8842 -0.4636
 8548WAT     H234913   1.614   1.443   3.773  0.2135 -1.6934 -0.1763
 8548WAT    EPW34914   1.546   1.434   3.810  0.1967 -0.7556  0.0491
 8549WAT      O34915   3.280   0.916   7.025  0.0366  0.4038  0.2146
 8549WAT     H134916   3.286   0.844   6.976 -0.1507  0.6673 -0.2064
 8549WAT     H234917   3.339   0.970   6.989 -0.1380  0.6167  0.2443
 8549WAT    EPW34918   3.290   0.913   7.013 -0.0168  0.4742  0.1568
 8550WAT      O34919   1.324   0.606   6.254 -0.1736 -0.3083  0.3227
 8550WAT     H134920   1.310   0.590   6.339  0.2644 -1.0116  0.2730
 8550WAT     H234921   1.321   0.526   6.218 -0.4131 -0.0081 -0.3335
 8550WAT    EPW34922   1.321   0.592   6.262 -0.1443 -0.3678  0.2184
 8551WAT      O34923   3.849   0.752   0.611 -0.4994  0.1017  0.5594
 8551WAT     H134924   3.792   0.706   0.658  0.5719 -1.4101  0.4509
 8551WAT     H234925   3.906   0.782   0.669  0.9490 -1.9472  0.3342
 8551WAT    EPW34926   3.849   0.749   0.626 -0.1272 -0.4243  0.5101
 8552WAT      O34927   4.536   1.735   4.555 -0.6600  0.6114  0.3021
 8552WAT     H134928   4.516   1.653   4.577  0.2763  0.3049  0.0273
 8552WAT     H234929   4.591   1.761   4.617  1.3069  0.0308 -1.0961
 8552WAT    EPW34930   4.541   1.727   4.567 -0.2311  0.4803  0.0549
 8553WAT      O34931   2.968   6.177   7.238 -0.3452  0.3527 -0.2097
 8553WAT     H134932   2.905   6.160   7.180  0.1574  0.3303 -0.7603
 8553WAT     H234933   3.027   6.222   7.192 -0.1184  0.6804  0.3866
 8553WAT    EPW34934   2.968   6.181   7.223 -0.2375  0.3978 -0.2030
 8554WAT      O34935   4.362   5.184   0.641 -0.2755  0.5869  0.4988
 8554WAT     H134936   4.434   5.210   0.600 -0.5459  0.7469  0.1218
 8554WAT     H234937   4.343   5.252   0.693 -1.1115  1.2703 -0.6547
 8554WAT    EPW34938   4.370   5.198   0.643 -0.4390  0.7115  0.2727
 8555WAT      O34939   4.433   5.623   5.213  0.1902  0.6564  0.4934
 8555WAT     H134940   4.466   5.542   5.210 -2.3191 -0.5973  2.6047
 8555WAT     H234941   4.469   5.656   5.285  0.7955  1.2813 -0.0773
 8555WAT    EPW34942   4.443   5.616   5.223 -0.0910  0.5635  0.7210
 8556WAT      O34943   3.170   2.497   2.091 -0.3482 -0.1573 -0.7133
 8556WAT     H134944   3.177   2.411   2.082 -0.0344 -0.2107  0.0061
 8556WAT     H234945   3.087   2.513   2.068 -1.6188 -1.1665  2.6876
 8556WAT    EPW34946   3.159   2.487   2.086 -0.4895 -0.3143 -0.1046
 8557WAT      O34947   4.206   1.293   4.739  0.3626 -0.0809 -0.0167
 8557WAT     H134948   4.176   1.296   4.657 -1.1138  0.9898  0.5245
 8557WAT     H234949   4.224   1.209   4.752 -1.0482 -0.5346 -0.8659
 8557WAT    EPW34950   4.204   1.281   4.729 -0.0639  0.0102 -0.0622
 8558WAT      O34951   2.557   0.686   5.557 -0.4614 -0.3751 -0.6606
 8558WAT     H134952   2.482   0.680   5.514 -1.0568  0.2183  0.2602
 8558WAT     H234953   2.567   0.772   5.569  0.2758 -0.4591 -0.6273
 8558WAT    EPW34954   2.548   0.697   5.553 -0.4405 -0.2998 -0.5196
 8559WAT      O34955   1.128   6.232   5.293  0.1456  0.0205 -0.1522
 8559WAT     H134956   1.210   6.235   5.321 -0.1036 -0.9798  0.7141
 8559WAT     H234957   1.106   6.148   5.300  0.1800 -0.4355 -3.7547
 8559WAT    EPW34958   1.137   6.220   5.298  0.1139 -0.1946 -0.5564
 8560WAT      O34959   5.499   6.539   6.448 -0.2057  0.2119  0.3290
 8560WAT     H134960   5.423   6.512   6.481 -0.8534  1.0254 -0.4175
 8560WAT     H234961   5.522   6.605   6.501 -0.8813  1.0468 -0.3790
 8560WAT    EPW34962   5.491   6.545   6.461 -0.4012  0.4554  0.1141
 8561WAT      O34963   0.352   7.299   7.012  0.5387 -0.3257  0.2892
 8561WAT     H134964   0.427   7.332   7.042 -0.6498  3.5723 -0.3302
 8561WAT     H234965   0.367   7.286   6.927  0.5889  0.5589  0.1429
 8561WAT    EPW34966   0.365   7.302   7.004  0.3706  0.3808  0.1761
 8562WAT      O34967   7.463   1.824   7.594  0.3693 -0.1340  0.0073
 8562WAT     H134968   7.533   1.776   7.572  0.6304 -0.0672  0.6690
 8562WAT     H234969   7.434   1.855   7.518  2.5709  1.9577 -0.0898
 8562WAT    EPW34970   7.469   1.821   7.580  0.7331  0.1848  0.0907
 8563WAT      O34971   4.766   6.551   1.533  0.3869 -0.0583  0.3473
 8563WAT     H134972   4.840   6.562   1.578  0.7010 -1.4677  0.2184
 8563WAT     H234973   4.783   6.588   1.456 -0.1986  2.4924  1.3294
 8563WAT    EPW34974   4.779   6.558   1.528  0.3468  0.1103  0.4734
 8564WAT      O34975   2.881   5.100   7.410 -0.3870 -0.0791 -0.2372
 8564WAT     H134976   2.916   5.106   7.490  0.4764  1.3965 -0.6922
 8564WAT     H234977   2.861   5.015   7.403 -2.6038  0.0472  2.4256
 8564WAT    EPW34978   2.883   5.088   7.421 -0.5869  0.1575  0.0889
 8565WAT      O34979   1.748   1.643   1.283  0.1548 -0.2645 -0.2553
 8565WAT     H134980   1.769   1.563   1.255  1.3606  0.3903 -1.3475
 8565WAT     H234981   1.745   1.635   1.370 -1.1023 -1.7751 -0.4018
 8565WAT    EPW34982   1.751   1.630   1.292  0.1472 -0.3910 -0.4383
 8566WAT      O34983   1.401   3.969   6.758 -0.5889 -0.0942  0.3862
 8566WAT     H134984   1.348   3.992   6.692  0.3769  0.0393 -0.3613
 8566WAT     H234985   1.346   3.960   6.825 -1.4292  1.0837 -0.1071
 8566WAT    EPW34986   1.385   3.971   6.758 -0.5704  0.0995  0.2029
 8567WAT      O34987   3.340   4.886   7.015  0.1456 -0.6363  0.0653
 8567WAT     H134988   3.390   4.815   7.025 -0.0071 -0.7635 -0.0760
 8567WAT     H234989   3.259   4.854   7.015  0.0566 -0.4182  0.4196
 8567WAT    EPW34990   3.335   4.871   7.017  0.1099 -0.6229  0.0968
 8568WAT      O34991   7.576   3.148   4.106 -0.0995  0.3792 -0.1451
 8568WAT     H134992   7.512   3.190   4.147 -0.2238  1.4209 -1.3458
 8568WAT     H234993   7.648   3.193   4.129  0.1322 -0.3686  0.6488
 8568WAT    EPW34994   7.577   3.161   4.116 -0.0836  0.4226 -0.2052
 8569WAT      O34995   5.914   4.890   1.563 -0.5171 -0.1122  0.1913
 8569WAT     H134996   5.958   4.960   1.593  0.1983 -0.5512  0.1877
 8569WAT     H234997   5.857   4.873   1.627 -1.4532  1.1140 -0.2625
 8569WAT    EPW34998   5.912   4.898   1.577 -0.5497  0.0041  0.1237
 8570WAT      O34999   4.090   5.379   2.854 -0.4166  0.3817 -0.0600
 8570WAT     H135000   4.136   5.422   2.915  0.0344 -0.3987  0.1657
 8570WAT     H235001   4.007   5.396   2.876 -0.2860  2.3424 -0.8511
 8570WAT    EPW35002   4.085   5.388   2.867 -0.3307  0.5561 -0.1435
 8571WAT      O35003   1.709   4.455   3.499 -0.1185 -0.4426 -0.3893
 8571WAT     H135004   1.627   4.436   3.522 -0.1153 -1.1252 -0.8974
 8571WAT     H235005   1.732   4.518   3.554 -1.1218  0.0297 -0.4966
 8571WAT    EPW35006   1.700   4.461   3.511 -0.2662 -0.4737 -0.4802
 8572WAT      O35007   5.774   7.466   2.475 -0.4384  0.0561 -0.0141
 8572WAT     H135008   5.855   7.475   2.444  0.2726  0.5594  1.8021
 8572WAT     H235009   5.724   7.507   2.416  0.5773 -0.4962 -1.3012
 8572WAT    EPW35010   5.778   7.474   2.462 -0.1833  0.0489  0.0641
 8573WAT      O35011   1.521   1.010   5.448  0.1786  0.0327  0.2953
 8573WAT     H135012   1.520   0.943   5.391 -0.0276  0.3958 -0.1333
 8573WAT     H235013   1.456   1.061   5.421  1.7818  1.6013 -0.8480
 8573WAT    EPW35014   1.512   1.007   5.435  0.3850  0.3181  0.0631
 8574WAT      O35015   6.139   2.396   5.009  0.0344  0.1891  0.8247
 8574WAT     H135016   6.169   2.338   4.950 -0.7835  1.0310 -0.4695
 8574WAT     H235017   6.117   2.465   4.960 -0.4715  1.0037  2.1636
 8574WAT    EPW35018   6.140   2.397   4.993 -0.1611  0.4338  0.8313
 8575WAT      O35019   2.533   4.922   6.736 -0.1283 -0.3077 -0.2374
 8575WAT     H135020   2.597   4.979   6.752  0.2113 -0.5877 -0.5809
 8575WAT     H235021   2.531   4.873   6.808  0.4853 -0.7094 -0.4854
 8575WAT    EPW35022   2.542   4.923   6.749  0.0125 -0.4084 -0.3248
 8576WAT      O35023   0.222   7.090   7.854  0.0951 -0.2050  0.2977
 8576WAT     H135024   0.248   7.134   7.784 -0.2159 -1.3528 -0.5604
 8576WAT     H235025   0.274   7.119   7.918 -0.1108  1.3966 -0.2236
 8576WAT    EPW35026   0.233   7.101   7.853  0.0187 -0.1379  0.0939
 8577WAT      O35027   2.506   3.333   6.100 -0.6330  0.3470 -0.3484
 8577WAT     H135028   2.560   3.382   6.052 -1.5854  1.2596 -0.5318
 8577WAT     H235029   2.492   3.381   6.171 -0.4212 -0.3305  0.1581
 8577WAT    EPW35030   2.512   3.347   6.103 -0.7424  0.3818 -0.3007
 8578WAT      O35031   4.800   3.792   5.665 -0.4282  0.1149  0.4317
 8578WAT     H135032   4.778   3.718   5.707 -0.7751 -0.1792 -0.2433
 8578WAT     H235033   4.796   3.853   5.727 -0.3559 -0.4028  0.9527
 8578WAT    EPW35034   4.796   3.790   5.680 -0.4688 -0.0051  0.4089
 8579WAT      O35035   0.489   1.308   4.243  0.6140 -0.3961  0.0969
 8579WAT     H135036   0.554   1.284   4.190  0.1754 -0.3636 -0.4672
 8579WAT     H235037   0.438   1.237   4.247  0.3149 -0.1934 -0.0428
 8579WAT    EPW35038   0.491   1.294   4.236  0.5051 -0.3613 -0.0071
 8580WAT      O35039   3.412   2.028   2.917 -0.6997 -0.1132 -0.1625
 8580WAT     H135040   3.326   2.036   2.904 -1.0254 -0.5017  1.5316
 8580WAT     H235041   3.428   2.080   2.985  0.2951 -0.5526 -0.0298
 8580WAT    EPW35042   3.402   2.037   2.925 -0.6009 -0.2355  0.1074
 8581WAT      O35043   6.032   0.952   2.654  0.3446 -0.2872 -0.6550
 8581WAT     H135044   6.001   0.880   2.692  1.4967 -1.4851 -1.8952
 8581WAT     H235045   6.050   1.005   2.721 -2.0849 -0.4478  0.2155
 8581WAT    EPW35046   6.030   0.949   2.670  0.1559 -0.4879 -0.7096
 8582WAT      O35047   1.763   7.310   4.561 -0.1815  0.5815 -0.2805
 8582WAT     H135048   1.795   7.377   4.515  0.2704 -0.0577 -0.9320
 8582WAT     H235049   1.795   7.322   4.641 -2.2335  2.5700  0.3311
 8582WAT    EPW35050   1.773   7.321   4.566 -0.4179  0.7808 -0.2864
 8583WAT      O35051   6.892   3.855   7.046 -0.6059  0.2504 -0.0975
 8583WAT     H135052   6.972   3.825   7.059  0.8042  3.0033 -1.6006
 8583WAT     H235053   6.894   3.886   6.965 -2.7842  1.5989  0.2628
 8583WAT    EPW35054   6.904   3.855   7.036 -0.7194  0.8563 -0.2663
 8584WAT      O35055   6.825   0.747   5.135  0.4838 -0.6186 -0.5414
 8584WAT     H135056   6.833   0.716   5.054  1.7278  0.2677 -0.7735
 8584WAT     H235057   6.880   0.814   5.138 -0.1115 -0.1392  0.8082
 8584WAT    EPW35058   6.834   0.752   5.124  0.5796 -0.4168 -0.3763
 8585WAT      O35059   6.547   3.646   4.982 -0.0051 -0.0814 -0.0173
 8585WAT     H135060   6.630   3.629   5.002  0.8129  1.5715 -1.6853
 8585WAT     H235061   6.524   3.578   4.932 -0.0604 -1.1020  1.3466
 8585WAT    EPW35062   6.556   3.633   4.977  0.1076  0.0120 -0.0622
 8586WAT      O35063   0.981   2.022   3.752 -0.4445  0.7411  0.4409
 8586WAT     H135064   0.895   2.012   3.741 -0.1890  1.3284 -4.2696
 8586WAT     H235065   0.992   2.108   3.757 -0.0947  0.6410  2.4241
 8586WAT    EPW35066   0.970   2.033   3.751 -0.3551  0.8131  0.0381
 8587WAT      O35067   0.981   4.735   7.104  0.0307  0.3759 -0.0461
 8587WAT     H135068   1.040   4.723   7.040 -0.8713  0.6731 -0.9600
 8587WAT     H235069   1.008   4.809   7.143  2.2353 -1.2523  1.8370
 8587WAT    EPW35070   0.994   4.744   7.100  0.2231  0.1793  0.0971
 8588WAT      O35071   1.948   3.843   7.287  0.0394 -0.1516  0.8899
 8588WAT     H135072   1.876   3.812   7.326  0.4188 -0.9351  0.9707
 8588WAT     H235073   2.007   3.846   7.351  0.0184  0.7772  0.8924
 8588WAT    EPW35074   1.946   3.839   7.302  0.0923 -0.1301  0.9022
 8589WAT      O35075   2.955   2.214   0.452 -0.5640 -0.6881  0.5652
 8589WAT     H135076   2.928   2.220   0.369  1.5797 -1.4718 -0.2526
 8589WAT     H235077   2.953   2.129   0.469  1.6424 -0.8488  0.3087
 8589WAT    EPW35078   2.951   2.203   0.442  0.0786 -0.8276  0.4065
 8590WAT      O35079   5.668   0.839   7.623 -0.0553 -0.3887  0.0636
 8590WAT     H135080   5.610   0.882   7.575 -0.6992  1.3043  2.1896
 8590WAT     H235081   5.738   0.891   7.623  0.7788 -1.4674 -0.8644
 8590WAT    EPW35082   5.670   0.853   7.616 -0.0272 -0.2980  0.2406
 8591WAT      O35083   7.648   1.472   5.471 -0.0960  0.7611 -0.1859
 8591WAT     H135084   7.588   1.416   5.501  1.3084 -0.2630  0.8832
 8591WAT     H235085   7.619   1.493   5.392 -1.2245 -0.6666 -0.1966
 8591WAT    EPW35086   7.635   1.467   5.464 -0.0553  0.3989 -0.0295
 8592WAT      O35087   0.929   5.095   3.548 -0.0450  0.2758 -0.3778
 8592WAT     H135088   0.981   5.034   3.513 -2.1677 -1.1978 -1.1763
 8592WAT     H235089   0.979   5.166   3.551  2.0919 -1.1255 -0.7624
 8592WAT    EPW35090   0.944   5.096   3.544 -0.0429 -0.1489 -0.5525
 8593WAT      O35091   4.883   6.894   5.111 -0.2679 -0.5783  0.0625
 8593WAT     H135092   4.808   6.937   5.105 -0.2694 -0.2384  1.8446
 8593WAT     H235093   4.868   6.820   5.069 -0.6558  0.6286 -2.0433
 8593WAT    EPW35094   4.870   6.890   5.104 -0.3254 -0.3498  0.0147
 8594WAT      O35095   2.104   2.677   3.819 -0.1313  0.2112  0.5794
 8594WAT     H135096   2.190   2.664   3.808 -0.4155 -2.3373  0.7618
 8594WAT     H235097   2.095   2.678   3.905 -0.1398  2.0139  0.5863
 8594WAT    EPW35098   2.115   2.675   3.830 -0.1746  0.1010  0.6074
 8595WAT      O35099   1.292   7.114   6.281 -0.0346 -0.8693 -0.2263
 8595WAT     H135100   1.228   7.156   6.322  1.0024 -0.5653  1.1426
 8595WAT     H235101   1.355   7.174   6.274 -0.0141 -1.0279 -1.9481
 8595WAT    EPW35102   1.292   7.129   6.286  0.1216 -0.8478 -0.2784
 8596WAT      O35103   4.608   2.748   7.156  0.0343  0.2575  0.2876
 8596WAT     H135104   4.642   2.771   7.233  0.6427  0.0872  0.0694
 8596WAT     H235105   4.660   2.684   7.129 -0.0637  0.4515 -0.3579
 8596WAT    EPW35106   4.621   2.742   7.164  0.1097  0.2610  0.1600
 8597WAT      O35107   3.323   2.045   1.802  0.1983 -0.3045  0.0843
 8597WAT     H135108   3.347   2.003   1.730 -0.3339 -1.0424  0.3344
 8597WAT     H235109   3.391   2.034   1.856  0.1958 -0.5705  0.0345
 8597WAT    EPW35110   3.337   2.037   1.800  0.1193 -0.4528  0.1139
 8598WAT      O35111   5.037   7.010   4.478 -0.2605 -0.7227  0.1637
 8598WAT     H135112   4.983   6.981   4.416 -0.0647 -0.7841  0.0220
 8598WAT     H235113   4.983   7.045   4.537 -0.3450  1.3396 -1.0517
 8598WAT    EPW35114   5.021   7.011   4.478 -0.2441 -0.4271 -0.0367
 8599WAT      O35115   2.323   0.599   1.104  0.2272 -0.5015 -0.0995
 8599WAT     H135116   2.241   0.602   1.074 -0.6644 -0.5550  2.1364
 8599WAT     H235117   2.366   0.554   1.044 -2.0881 -3.2338  0.1100
 8599WAT    EPW35118   2.317   0.593   1.091 -0.2465 -0.9130  0.2618
 8600WAT      O35119   4.711   6.355   3.551 -0.3111 -0.5363  0.4056
 8600WAT     H135120   4.789   6.392   3.567 -0.4274 -0.6378  1.2382
 8600WAT     H235121   4.728   6.301   3.484  0.0282  0.4111 -0.3054
 8600WAT    EPW35122   4.725   6.352   3.543 -0.2782 -0.4113  0.4236
 8601WAT      O35123   1.685   5.224   3.654  0.2580  0.9108 -0.3622
 8601WAT     H135124   1.598   5.222   3.648  0.1232  0.3851  1.4035
 8601WAT     H235125   1.710   5.168   3.591 -0.6611  1.0713 -0.8916
 8601WAT    EPW35126   1.676   5.215   3.644  0.1023  0.8568 -0.1795
 8602WAT      O35127   6.621   7.386   4.766 -0.6333  0.7213  0.4481
 8602WAT     H135128   6.568   7.444   4.727 -0.9521  0.2227  0.1184
 8602WAT     H235129   6.636   7.421   4.844  1.5057  2.6670 -0.6980
 8602WAT    EPW35130   6.615   7.400   4.772 -0.3644  0.9351  0.2301
 8603WAT      O35131   2.676   1.093   2.070  0.2467  0.4483  0.3903
 8603WAT     H135132   2.716   1.044   2.130  0.1213  0.4930  0.5103
 8603WAT     H235133   2.699   1.175   2.091  1.3225  0.3772 -0.4437
 8603WAT    EPW35134   2.685   1.098   2.082  0.3871  0.4444  0.2849
 8604WAT      O35135   3.422   1.226   3.632 -0.1800 -0.1527  0.0345
 8604WAT     H135136   3.431   1.178   3.560 -0.0280 -0.9236  0.5475
 8604WAT     H235137   3.498   1.215   3.673 -0.9615 -1.4142  1.2806
 8604WAT    EPW35138   3.434   1.217   3.627 -0.2730 -0.4530  0.2943
 8605WAT      O35139   4.599   0.926   0.013 -0.4493  0.0700  0.0842
 8605WAT     H135140   4.530   0.949  -0.036  0.8656  1.4829 -1.2144
 8605WAT     H235141   4.574   0.945   0.094 -1.4125  0.9991 -0.4141
 8605WAT    EPW35142   4.585   0.932   0.018 -0.3974  0.4159 -0.1812
 8606WAT      O35143   2.699   7.455   5.069 -0.1071  0.2883 -0.1102
 8606WAT     H135144   2.677   7.536   5.046 -0.1864  1.0362  2.3451
 8606WAT     H235145   2.785   7.457   5.075 -0.1707  0.4564  0.8184
 8606WAT    EPW35146   2.708   7.467   5.067 -0.1282  0.4236  0.3897
 8607WAT      O35147   3.875   0.264   2.532 -0.5400 -0.2336  0.1314
 8607WAT     H135148   3.953   0.303   2.538 -0.3052 -0.8586  1.9500
 8607WAT     H235149   3.867   0.247   2.447  0.3484  1.7261 -0.4046
 8607WAT    EPW35150   3.886   0.267   2.521 -0.3741 -0.0364  0.3209
 8608WAT      O35151   3.836   2.202   3.298 -0.2833 -0.2270  0.0086
 8608WAT     H135152   3.865   2.166   3.224  0.0564 -0.4093  0.2333
 8608WAT     H235153   3.899   2.187   3.355  0.1629  1.2604 -0.0400
 8608WAT    EPW35154   3.849   2.195   3.295 -0.1672 -0.0342  0.0346
 8609WAT      O35155   1.753   0.525   3.747 -0.1423 -0.1966 -0.1204
 8609WAT     H135156   1.693   0.486   3.697 -0.6649 -0.6936  0.8797
 8609WAT     H235157   1.784   0.461   3.797  0.6953  0.2064 -0.0932
 8609WAT    EPW35158   1.749   0.510   3.747 -0.0958 -0.2105  0.0314
 8610WAT      O35159   4.087   0.829   1.686  0.0094  0.0195  0.5416
 8610WAT     H135160   4.049   0.858   1.614  1.8896 -0.4528 -0.7216
 8610WAT     H235161   4.032   0.852   1.750 -0.1472  3.5200 -0.6558
 8610WAT    EPW35162   4.073   0.836   1.685  0.2640  0.4668  0.1781
 8611WAT      O35163   1.965   1.242   1.956  0.0824  0.5110 -0.1625
 8611WAT     H135164   1.998   1.227   1.877  1.1648 -0.8247  0.4801
 8611WAT     H235165   1.908   1.176   1.967 -1.5520  1.7907 -0.5566
 8611WAT    EPW35166   1.961   1.230   1.946  0.0009  0.5027 -0.1258
 8612WAT      O35167   4.640   1.450   5.370 -0.0366  0.4759  0.5456
 8612WAT     H135168   4.640   1.531   5.338 -0.7804  0.0624 -0.5553
 8612WAT     H235169   4.636   1.462   5.456 -1.7008  1.6188  0.3594
 8612WAT    EPW35170   4.640   1.464   5.378 -0.3923  0.5837  0.3555
 8613WAT      O35171   2.131   1.185   6.789  0.2244  0.1879  0.4681
 8613WAT     H135172   2.137   1.198   6.875  0.0945  0.6547  0.4087
 8613WAT     H235173   2.061   1.230   6.766  0.7580  0.7864 -0.0230
 8613WAT    EPW35174   2.122   1.193   6.798  0.2840  0.3453  0.3868
 8614WAT      O35175   1.641   2.368   3.921  0.1869  0.2579 -0.3763
 8614WAT     H135176   1.581   2.354   3.858  1.5034 -0.6196 -1.4808
 8614WAT     H235177   1.622   2.449   3.949 -1.4276  0.0549 -0.7730
 8614WAT    EPW35178   1.629   2.378   3.916  0.1429  0.0983 -0.5980
 8615WAT      O35179   5.406   3.020   4.460 -0.4491  0.3334 -0.3288
 8615WAT     H135180   5.384   2.936   4.452 -0.9833  0.3735  0.5987
 8615WAT     H235181   5.456   3.035   4.390  0.1701 -0.9221 -0.1792
 8615WAT    EPW35182   5.410   3.010   4.449 -0.4365  0.1539 -0.1697
 8616WAT      O35183   3.376   1.542   2.662  0.7261  0.2135  0.8550
 8616WAT     H135184   3.302   1.533   2.706 -0.4455 -0.3945 -1.1305
 8616WAT     H235185   3.355   1.595   2.597  1.9485 -0.2164  0.0744
 8616WAT    EPW35186   3.362   1.549   2.659  0.7336  0.0601  0.4464
 8617WAT      O35187   5.407   4.498   4.363 -0.3110  0.1198  0.2383
 8617WAT     H135188   5.464   4.519   4.301  0.9356 -0.8140  1.0286
 8617WAT     H235189   5.383   4.576   4.396  1.1952  0.5260  0.4767
 8617WAT    EPW35190   5.412   4.513   4.359  0.0956  0.0419  0.3903
 8618WAT      O35191   0.690   4.342   4.594 -0.2890  0.2980 -0.5207
 8618WAT     H135192   0.765   4.299   4.602 -0.1166  0.7904  0.7475
 8618WAT     H235193   0.636   4.299   4.648 -0.1590  1.5104  0.6505
 8618WAT    EPW35194   0.693   4.329   4.603 -0.2444  0.5498 -0.1604
 8619WAT      O35195   7.689   2.601   7.726 -0.5128 -0.2821 -0.0444
 8619WAT     H135196   7.644   2.528   7.742  0.4591 -1.4652 -2.1684
 8619WAT     H235197   7.727   2.584   7.649  2.8627  0.9417  1.1605
 8619WAT    EPW35198   7.688   2.587   7.717  0.1294 -0.2761 -0.1801
 8620WAT      O35199   1.682   0.516   5.457  0.2064 -0.3076  0.2539
 8620WAT     H135200   1.715   0.596   5.446  1.5659 -0.8684  0.0187
 8620WAT     H235201   1.660   0.491   5.376 -0.5487 -0.0608  0.3700
 8620WAT    EPW35202   1.683   0.524   5.443  0.2957 -0.3540  0.2363
 8621WAT      O35203   5.935   2.486   0.316 -0.0713  0.2832  0.2536
 8621WAT     H135204   5.925   2.571   0.328  1.4414  0.8407 -1.8099
 8621WAT     H235205   6.004   2.466   0.364 -0.3243  0.2462  0.6050
 8621WAT    EPW35206   5.944   2.495   0.325  0.1148  0.3601  0.0007
 8622WAT      O35207   6.234   1.630   4.074 -0.2301 -0.7196  0.1646
 8622WAT     H135208   6.225   1.701   4.124  1.1816  0.2342 -0.8747
 8622WAT     H235209   6.297   1.585   4.114 -1.1125 -1.4344  0.8142
 8622WAT    EPW35210   6.242   1.634   4.087 -0.1519 -0.6843  0.1071
 8623WAT      O35211   3.256   4.170   3.281  0.0637  0.4007  0.0240
 8623WAT     H135212   3.222   4.116   3.341  1.7642 -0.8528 -0.0561
 8623WAT     H235213   3.235   4.132   3.205  0.3332  0.4391 -0.0711
 8623WAT    EPW35214   3.248   4.157   3.278  0.3547  0.2212 -0.0019
 8624WAT      O35215   6.607   2.485   5.091  0.0653 -0.4803 -0.4113
 8624WAT     H135216   6.525   2.510   5.107  0.6859  0.8752  0.8844
 8624WAT     H235217   6.648   2.559   5.070  1.4008 -0.7744  0.9556
 8624WAT    EPW35218   6.601   2.499   5.090  0.3543 -0.3235 -0.0180
 8625WAT      O35219   0.483   0.305   5.343  0.4394 -0.4041  0.0929
 8625WAT     H135220   0.422   0.361   5.316  1.0473  0.1779 -0.0994
 8625WAT     H235221   0.531   0.351   5.399  0.6988 -0.8561  0.2526
 8625WAT    EPW35222   0.481   0.320   5.347  0.5675 -0.3849  0.0881
 8626WAT      O35223   2.254   7.481   5.418  0.4753  0.6705 -0.0761
 8626WAT     H135224   2.246   7.421   5.355  2.9677  0.1336  0.0376
 8626WAT     H235225   2.302   7.544   5.381 -0.0599  1.4835  0.5690
 8626WAT    EPW35226   2.260   7.481   5.404  0.7644  0.7112  0.0360
 8627WAT      O35227   5.809   5.292   1.005  0.0031  0.1835  0.1929
 8627WAT     H135228   5.731   5.307   0.970  0.3636  0.2924 -0.5964
 8627WAT     H235229   5.817   5.354   1.066 -0.8275 -0.2904  0.8040
 8627WAT    EPW35230   5.799   5.303   1.009 -0.0664  0.1296  0.1666
 8628WAT      O35231   2.486   1.519   1.374 -0.3619  0.6664  0.1261
 8628WAT     H135232   2.530   1.456   1.333  1.0588 -0.1583  2.6959
 8628WAT     H235233   2.414   1.529   1.326  1.1056 -0.2322 -2.4466
 8628WAT    EPW35234   2.482   1.511   1.361  0.0647  0.4118  0.1257
 8629WAT      O35235   2.389   0.697   4.227  0.3838 -0.1478 -0.0790
 8629WAT     H135236   2.458   0.736   4.263  0.1074  0.6809 -0.4465
 8629WAT     H235237   2.394   0.719   4.143  0.5313 -1.3590 -0.4139
 8629WAT    EPW35238   2.400   0.706   4.220  0.3648 -0.2043 -0.1827
 8630WAT      O35239   4.258   1.890   5.929 -0.3045 -0.4899 -0.6197
 8630WAT     H135240   4.289   1.821   5.887  0.1363 -0.6004 -0.1261
 8630WAT     H235241   4.202   1.856   5.987  1.0438 -0.5904  0.6642
 8630WAT    EPW35242   4.254   1.875   5.932 -0.0402 -0.5210 -0.3571
 8631WAT      O35243   4.992   7.156   1.953 -0.4981 -0.2140 -0.1087
 8631WAT     H135244   5.010   7.240   1.940 -1.6811 -0.1251 -1.4743
 8631WAT     H235245   4.955   7.155   2.032 -0.5487  0.5713 -0.1146
 8631WAT    EPW35246   4.989   7.168   1.963 -0.6803 -0.0849 -0.3113
 8632WAT      O35247   1.826   2.754   3.829  0.3854 -0.0773 -0.0321
 8632WAT     H135248   1.901   2.713   3.811  0.7827  1.3004 -1.8957
 8632WAT     H235249   1.794   2.711   3.897  2.8331 -0.7708  0.7720
 8632WAT    EPW35250   1.833   2.742   3.836  0.8056  0.0238 -0.1886
 8633WAT      O35251   3.723   2.704   3.097 -0.1335 -0.2950  0.8508
 8633WAT     H135252   3.754   2.703   3.016 -0.6934  3.0315  0.4800
 8633WAT     H235253   3.757   2.777   3.132 -0.4699 -1.2440  3.4121
 8633WAT    EPW35254   3.733   2.715   3.090 -0.2659  0.0562  1.1744
 8634WAT      O35255   2.678   1.480   5.031 -0.2645  0.3604 -0.2393
 8634WAT     H135256   2.643   1.533   4.970  1.0677  2.2046  0.4927
 8634WAT     H235257   2.676   1.529   5.103  1.8545 -0.2117  0.2680
 8634WAT    EPW35258   2.672   1.495   5.033  0.2453  0.5483 -0.0562
 8635WAT      O35259   6.926   1.880   7.209 -0.0634 -0.1372 -0.5051
 8635WAT     H135260   6.993   1.824   7.210 -2.0114 -2.6581  1.1815
 8635WAT     H235261   6.952   1.942   7.153  3.0537 -1.6889 -0.9879
 8635WAT    EPW35262   6.940   1.881   7.201  0.1093 -0.7388 -0.3273
 8636WAT      O35263   1.975   1.923   0.566 -0.3746  0.0512 -0.8787
 8636WAT     H135264   1.911   1.893   0.515 -0.5867 -0.4292 -0.3376
 8636WAT     H235265   2.047   1.915   0.517 -0.8891  1.8351 -1.9984
 8636WAT    EPW35266   1.976   1.918   0.552 -0.4819  0.2437 -0.9642
 8637WAT      O35267   5.000   6.267   6.509 -0.4241 -0.3371 -0.3129
 8637WAT     H135268   4.942   6.319   6.548 -0.9060 -2.0203  1.3856
 8637WAT     H235269   4.959   6.243   6.435 -1.2200 -0.2163  0.0725
 8637WAT    EPW35270   4.985   6.271   6.504 -0.6129 -0.5679 -0.0051
 8638WAT      O35271   2.599   3.068   3.373 -0.0998  0.7401 -0.0772
 8638WAT     H135272   2.663   3.090   3.428 -0.5602  1.4357  0.1949
 8638WAT     H235273   2.541   3.026   3.423 -0.0586  0.4907 -0.2363
 8638WAT    EPW35274   2.600   3.065   3.388 -0.1617  0.8060 -0.0605
 8639WAT      O35275   3.881   6.102   6.572  0.0572 -0.3420  0.5830
 8639WAT     H135276   3.904   6.018   6.570  1.0063 -0.0814 -0.6272
 8639WAT     H235277   3.848   6.116   6.493 -0.4373  0.3351  0.9025
 8639WAT    EPW35278   3.880   6.092   6.560  0.1243 -0.2035  0.4514
 8640WAT      O35279   2.163   1.914   0.973  0.0511  0.1535 -0.1886
 8640WAT     H135280   2.099   1.860   0.950  1.1017 -1.7793  1.0902
 8640WAT     H235281   2.213   1.920   0.901 -0.1215 -0.5439 -0.3688
 8640WAT    EPW35282   2.161   1.907   0.959  0.1808 -0.2350 -0.0263
 8641WAT      O35283   6.008   3.172   2.677  0.2056  0.0189 -0.1338
 8641WAT     H135284   6.081   3.133   2.651  0.3693  0.9749 -1.1509
 8641WAT     H235285   5.969   3.195   2.603 -1.2477 -0.6637  0.3821
 8641WAT    EPW35286   6.013   3.169   2.662  0.0151  0.0593 -0.2079
 8642WAT      O35287   7.474   2.000   5.127  0.0535  0.2794  0.4605
 8642WAT     H135288   7.524   1.969   5.192 -1.1242 -2.6818  0.1179
 8642WAT     H235289   7.435   2.069   5.162  1.4052  0.3059  2.0312
 8642WAT    EPW35290   7.476   2.005   5.142  0.0792 -0.1541  0.6419
 8643WAT      O35291   3.431   3.350   7.176 -0.1634  0.1046  0.1713
 8643WAT     H135292   3.476   3.415   7.214 -0.1247  0.2463 -0.1173
 8643WAT     H235293   3.400   3.305   7.244  0.6631 -0.1674  0.3802
 8643WAT    EPW35294   3.433   3.353   7.192 -0.0356  0.0854  0.1596
 8644WAT      O35295   4.810   3.155   1.973  0.3479  0.5438 -0.4166
 8644WAT     H135296   4.808   3.071   1.948  1.0100  0.5657 -0.5706
 8644WAT     H235297   4.875   3.157   2.031 -0.8400  0.5975  0.9654
 8644WAT    EPW35298   4.819   3.143   1.978  0.2702  0.5550 -0.2352
 8645WAT      O35299   0.456   6.165   5.399  0.3072 -0.2555 -0.4621
 8645WAT     H135300   0.533   6.133   5.427  0.0243 -1.4491 -0.9814
 8645WAT     H235301   0.438   6.228   5.457  1.9465  0.4603 -0.6517
 8645WAT    EPW35302   0.465   6.170   5.412  0.5075 -0.3261 -0.5668
 8646WAT      O35303   2.657   6.542   5.896  0.4834 -0.2987 -0.5595
 8646WAT     H135304   2.622   6.621   5.881  0.1438 -0.4929 -0.7839
 8646WAT     H235305   2.743   6.558   5.895  0.4110  0.1700 -0.0505
 8646WAT    EPW35306   2.664   6.556   5.894  0.4225 -0.2582 -0.5174
 8647WAT      O35307   4.601   0.314   7.691  0.4900 -0.1119  0.1159
 8647WAT     H135308   4.604   0.290   7.774 -0.6923 -0.3784  0.0952
 8647WAT     H235309   4.519   0.298   7.667  0.9069 -0.4207 -1.2178
 8647WAT    EPW35310   4.590   0.308   7.700  0.3769 -0.1969 -0.0842
 8648WAT      O35311   4.315   2.453   2.326 -0.0437  1.0177 -0.1740
 8648WAT     H135312   4.368   2.510   2.286  1.5430  0.2893  0.8073
 8648WAT     H235313   4.267   2.503   2.378 -0.6914  1.7471 -1.4166
 8648WAT    EPW35314   4.316   2.469   2.328  0.0950  1.0179 -0.2126
 8649WAT      O35315   1.890   0.978   0.570 -0.0372 -0.4051 -0.2015
 8649WAT     H135316   1.948   0.961   0.633 -0.4629  0.8264  0.5591
 8649WAT     H235317   1.869   1.062   0.584 -0.0918 -0.0862 -2.0347
 8649WAT    EPW35318   1.896   0.988   0.582 -0.1082 -0.1761 -0.3599
 8650WAT      O35319   4.460   0.933   5.705 -0.0342  0.0599 -0.0526
 8650WAT     H135320   4.396   0.915   5.761  0.5016  0.6023  0.7461
 8650WAT     H235321   4.453   1.018   5.691 -1.0335 -0.2779 -1.9357
 8650WAT    EPW35322   4.450   0.943   5.711 -0.1027  0.0901 -0.2128
 8651WAT      O35323   1.623   0.366   7.057 -0.2384 -0.0436 -0.0856
 8651WAT     H135324   1.652   0.284   7.057  1.4484  0.4750 -1.3101
 8651WAT     H235325   1.696   0.413   7.061 -1.0976  1.3861 -0.4671
 8651WAT    EPW35326   1.638   0.361   7.057 -0.1162  0.2442 -0.3228
 8652WAT      O35327   2.730   6.138   0.459  0.0117  0.5404  0.0074
 8652WAT     H135328   2.659   6.187   0.461  0.8012  1.9026 -1.7159
 8652WAT     H235329   2.794   6.192   0.483  0.3610 -1.1708  3.5966
 8652WAT    EPW35330   2.729   6.153   0.463  0.1799  0.4888  0.2830
 8653WAT      O35331   2.146   6.252   2.257  0.2519  0.2862 -0.1557
 8653WAT     H135332   2.207   6.190   2.251 -1.5296 -1.5257 -0.8527
 8653WAT     H235333   2.150   6.276   2.341 -0.5442 -2.5913  0.8487
 8653WAT    EPW35334   2.156   6.246   2.269 -0.1289 -0.4065 -0.1103
 8654WAT      O35335   0.892   7.615   7.838 -0.2447 -0.2177 -0.0811
 8654WAT     H135336   0.969   7.634   7.873  0.8301 -2.3308 -1.0630
 8654WAT     H235337   0.834   7.644   7.896  1.3384 -0.3950  1.6544
 8654WAT    EPW35338   0.895   7.622   7.852  0.1479 -0.5560  0.0302
 8655WAT      O35339   4.856   1.957   3.059 -0.1695  0.1190  0.2316
 8655WAT     H135340   4.780   1.918   3.075 -1.3954  1.7355 -1.3753
 8655WAT     H235341   4.879   1.926   2.981 -0.0278  0.9252 -0.0509
 8655WAT    EPW35342   4.848   1.947   3.050 -0.3297  0.4769 -0.0475
 8656WAT      O35343   3.507   0.174   2.669 -0.6652 -0.1613  0.2638
 8656WAT     H135344   3.470   0.212   2.599 -0.2025  1.4601  0.8570
 8656WAT     H235345   3.580   0.139   2.637  0.8720  2.7185  0.2512
 8656WAT    EPW35346   3.512   0.175   2.654 -0.3698  0.5036  0.3496
 8657WAT      O35347   2.128   0.608   7.655  0.2930 -0.0109 -0.6957
 8657WAT     H135348   2.043   0.609   7.671  0.7033 -1.4598  2.4576
 8657WAT     H235349   2.144   0.524   7.636  1.3019 -0.3547  1.4128
 8657WAT    EPW35350   2.118   0.596   7.655  0.5026 -0.2757  0.0816
 8658WAT      O35351   2.251   2.337   6.755 -0.2196  0.5349 -0.2519
 8658WAT     H135352   2.308   2.377   6.808 -0.1393  0.4145 -0.2468
 8658WAT     H235353   2.229   2.400   6.698  0.6205  0.3377 -0.8142
 8658WAT    EPW35354   2.256   2.352   6.754 -0.0837  0.4880 -0.3342
 8659WAT      O35355   6.360   0.051   6.032  1.0879 -0.2959  0.1602
 8659WAT     H135356   6.340  -0.026   5.996  0.7550  0.5465 -1.5998
 8659WAT     H235357   6.341   0.040   6.116  0.7936 -2.0503 -0.0992
 8659WAT    EPW35358   6.354   0.038   6.039  0.9953 -0.4306 -0.1381
 8660WAT      O35359   1.799   5.447   3.398  0.6876  0.3415 -0.3147
 8660WAT     H135360   1.820   5.365   3.420  0.4416 -0.3275 -2.2667
 8660WAT     H235361   1.845   5.461   3.325 -1.0140  1.0330 -1.3403
 8660WAT    EPW35362   1.809   5.437   3.390  0.3999  0.3448 -0.7545
 8661WAT      O35363   5.010   7.404   1.353 -0.2312 -0.5992 -0.4791
 8661WAT     H135364   4.985   7.444   1.280 -1.9296 -1.1169 -0.2271
 8661WAT     H235365   5.055   7.465   1.396  1.0089 -0.3504 -2.0232
 8661WAT    EPW35366   5.013   7.419   1.349 -0.2989 -0.6389 -0.6700
 8662WAT      O35367   7.143   2.072   4.324  0.0798  0.5081 -0.2915
 8662WAT     H135368   7.215   2.043   4.362 -0.0841  1.9214  1.2166
 8662WAT     H235369   7.168   2.085   4.241  1.3504  0.2962  0.0341
 8662WAT    EPW35370   7.157   2.070   4.317  0.2433  0.6856 -0.0206
 8663WAT      O35371   5.095   3.630   0.245  0.1480  0.1413 -0.0056
 8663WAT     H135372   5.115   3.545   0.236 -0.8340 -0.3122  1.7042
 8663WAT     H235373   5.171   3.666   0.268  0.4376 -0.3736 -0.1198
 8663WAT    EPW35374   5.109   3.622   0.247  0.0457 -0.0017  0.2301
 8664WAT      O35375   5.467   5.347   3.012 -0.0866  0.0306 -0.1846
 8664WAT     H135376   5.547   5.373   2.990  0.4564 -1.7477 -0.5150
 8664WAT     H235377   5.428   5.334   2.935 -0.5866  0.5984 -0.0271
 8664WAT    EPW35378   5.473   5.349   2.997 -0.0802 -0.1482 -0.2101
 8665WAT      O35379   2.470   6.942   3.710 -0.1305 -0.0169 -0.2631
 8665WAT     H135380   2.514   7.008   3.748 -0.3342 -0.2487  0.3964
 8665WAT     H235381   2.468   6.881   3.772 -2.6805  0.5384  0.3298
 8665WAT    EPW35382   2.476   6.943   3.725 -0.5373  0.0309 -0.0781
 8666WAT      O35383   0.545   1.414   4.515 -0.4363 -0.0936  0.1467
 8666WAT     H135384   0.530   1.365   4.444  1.2003 -1.1376  0.4732
 8666WAT     H235385   0.622   1.386   4.543 -0.2036  1.5865  1.3024
 8666WAT    EPW35386   0.554   1.403   4.508 -0.1602  0.0004  0.3657
 8667WAT      O35387   6.380   0.763   5.341  0.4082 -0.6839 -0.1303
 8667WAT     H135388   6.363   0.762   5.255  0.2587 -0.9153 -0.0961
 8667WAT     H235389   6.301   0.769   5.378  0.5143  0.5323 -0.0324
 8667WAT    EPW35390   6.366   0.764   5.334  0.4018 -0.5385 -0.1108
 8668WAT      O35391   2.853   1.598   0.501 -0.0779 -0.0106 -0.0187
 8668WAT     H135392   2.927   1.616   0.544 -0.7396 -0.2775  1.3161
 8668WAT     H235393   2.823   1.527   0.541 -2.4427  1.6241  1.4298
 8668WAT    EPW35394   2.859   1.590   0.514 -0.5250  0.1915  0.3925
 8669WAT      O35395   5.288   1.712   4.819  0.2390  0.1924 -0.1279
 8669WAT     H135396   5.223   1.749   4.773 -0.1706 -0.4555 -0.0935
 8669WAT     H235397   5.360   1.741   4.780 -0.0015  2.1755  0.7827
 8669WAT    EPW35398   5.289   1.722   4.807  0.1429  0.3896  0.0117
 8670WAT      O35399   3.762   2.471   5.107 -0.1416  0.5372  0.1565
 8670WAT     H135400   3.706   2.533   5.081  1.1976  1.7248 -0.0360
 8670WAT     H235401   3.830   2.517   5.138  1.4890 -0.7926 -1.2538
 8670WAT    EPW35402   3.764   2.487   5.108  0.2971  0.5162 -0.0802
 8671WAT      O35403   4.062   3.090   6.724  0.8869  0.6504 -0.3453
 8671WAT     H135404   4.074   3.101   6.810  2.4262  0.0124 -0.4555
 8671WAT     H235405   4.051   3.004   6.715 -0.2173  0.8061 -0.7100
 8671WAT    EPW35406   4.062   3.079   6.735  0.9512  0.5792 -0.4154
 8672WAT      O35407   3.346   0.821   7.864  0.3023  0.1256 -0.1532
 8672WAT     H135408   3.432   0.812   7.851  0.2493 -0.6934  0.0088
 8672WAT     H235409   3.319   0.739   7.876 -0.5597  0.3420 -0.5558
 8672WAT    EPW35410   3.355   0.807   7.864  0.1672  0.0365 -0.1888
 8673WAT      O35411   2.927   1.813   3.968 -0.6308 -0.2899  0.4981
 8673WAT     H135412   2.964   1.892   3.966 -3.3661  1.1036 -0.9838
 8673WAT     H235413   2.910   1.801   4.053  0.3287  0.4472  0.8109
 8673WAT    EPW35414   2.930   1.823   3.980 -0.8931  0.0248  0.3254
 8674WAT      O35415   3.591   1.221   3.147 -0.1441  0.2483  0.7800
 8674WAT     H135416   3.553   1.229   3.225 -0.0644  2.1616  0.6636
 8674WAT     H235417   3.561   1.289   3.101  1.0928  0.1243 -0.3048
 8674WAT    EPW35418   3.581   1.232   3.151  0.0504  0.5126  0.6026
 8675WAT      O35419   5.002   1.026   2.910 -0.6299  0.3313 -0.0171
 8675WAT     H135420   5.035   1.023   2.830 -0.4503  0.4109  0.0533
 8675WAT     H235421   5.065   0.991   2.960 -1.3854 -1.2439 -0.1148
 8675WAT    EPW35422   5.016   1.020   2.906 -0.7150  0.1104 -0.0211
 8676WAT      O35423   4.706   1.335   4.159 -0.4096 -0.0484  0.2547
 8676WAT     H135424   4.699   1.420   4.141  1.4067  0.0304 -0.2791
 8676WAT     H235425   4.623   1.307   4.160 -1.1113  1.8879  1.4120
 8676WAT    EPW35426   4.693   1.344   4.156 -0.2450  0.2493  0.3468
 8677WAT      O35427   6.993   1.136   4.637 -0.1547 -0.3438  0.2323
 8677WAT     H135428   6.976   1.140   4.722 -0.0331 -2.4851  0.4077
 8677WAT     H235429   7.037   1.061   4.628 -1.0135 -0.6673 -1.8549
 8677WAT    EPW35430   6.997   1.126   4.648 -0.2636 -0.7079 -0.0501
 8678WAT      O35431   4.908   1.787   1.973 -0.2509 -0.1360  0.3491
 8678WAT     H135432   4.874   1.774   1.893 -0.1037  1.8335 -0.0919
 8678WAT     H235433   4.896   1.872   1.986  1.9708  0.0823  1.3789
 8678WAT    EPW35434   4.901   1.797   1.963  0.0991  0.1872  0.4360
 8679WAT      O35435   2.660   0.095   2.821 -0.9037  0.3023  0.1435
 8679WAT     H135436   2.693   0.162   2.776  0.3768  0.1518  0.8184
 8679WAT     H235437   2.620   0.047   2.760 -0.6241  0.9407 -0.5603
 8679WAT    EPW35438   2.659   0.098   2.806 -0.6732  0.3744  0.1392
 8680WAT      O35439   1.269   4.682   3.304  0.6397  0.1283  0.1487
 8680WAT     H135440   1.250   4.604   3.337  2.1729  0.0733  0.9662
 8680WAT     H235441   1.284   4.666   3.219  2.1246 -0.6852  0.5447
 8680WAT    EPW35442   1.269   4.668   3.296  1.0856 -0.0000  0.3280
 8681WAT      O35443   7.748   2.024   7.358  0.4483 -0.1873 -0.0441
 8681WAT     H135444   7.681   1.982   7.321  0.1364 -0.0049  0.2954
 8681WAT     H235445   7.800   2.043   7.291  0.5023 -0.9406 -0.2235
 8681WAT    EPW35446   7.746   2.021   7.343  0.4102 -0.2716 -0.0204
 8682WAT      O35447   2.263   1.836   1.232 -0.2480 -0.5260 -0.3951
 8682WAT     H135448   2.235   1.843   1.149 -3.5315 -1.9517  0.4580
 8682WAT     H235449   2.255   1.751   1.249  1.6323 -0.4851  1.0715
 8682WAT    EPW35450   2.258   1.825   1.222 -0.4553 -0.7305 -0.0524
 8683WAT      O35451   4.543   3.364   5.472 -0.2759 -0.3262 -0.2473
 8683WAT     H135452   4.510   3.435   5.512 -0.3655 -0.2964 -0.3747
 8683WAT     H235453   4.477   3.307   5.474 -0.3992 -0.1960 -0.6827
 8683WAT    EPW35454   4.528   3.366   5.478 -0.3074 -0.3025 -0.3305
 8684WAT      O35455   1.237   0.183   4.120  0.4246 -0.3466  0.3211
 8684WAT     H135456   1.174   0.213   4.172  1.9759  1.1819  1.4495
 8684WAT     H235457   1.220   0.098   4.113 -1.1294 -0.1732  1.4493
 8684WAT    EPW35458   1.225   0.175   4.127  0.4242 -0.0952  0.6545
 8685WAT      O35459   0.567   7.033   3.946 -0.0937 -0.2591  0.3901
 8685WAT     H135460   0.511   7.044   4.011  0.4801 -1.2018  1.0876
 8685WAT     H235461   0.613   7.107   3.945 -2.0474  1.0154 -0.9553
 8685WAT    EPW35462   0.566   7.045   3.955 -0.2976 -0.2101  0.2944
 8686WAT      O35463   4.531   0.301   2.225  0.0902  0.3644 -0.8614
 8686WAT     H135464   4.510   0.383   2.249  1.3677  1.0870 -2.0442
 8686WAT     H235465   4.618   0.300   2.230  0.0464 -1.8287  1.7735
 8686WAT    EPW35466   4.541   0.313   2.230  0.2725  0.1472 -0.6469
 8687WAT      O35467   1.953   1.333   4.053 -0.0072 -0.2817 -0.2722
 8687WAT     H135468   1.889   1.329   4.112  0.2902 -0.8540  0.0178
 8687WAT     H235469   2.008   1.270   4.077 -1.1303 -2.3612 -2.6769
 8687WAT    EPW35470   1.952   1.323   4.065 -0.1292 -0.6734 -0.5846
 8688WAT      O35471   5.753   1.446   2.411  0.0068  0.0777 -0.2177
 8688WAT     H135472   5.732   1.438   2.326  1.1838 -1.0982 -0.4222
 8688WAT     H235473   5.823   1.498   2.409  0.5988 -0.7063 -0.0541
 8688WAT    EPW35474   5.760   1.453   2.398  0.2681 -0.2118 -0.2237
 8689WAT      O35475   3.942   2.087   1.890 -0.2749  0.3667 -0.3053
 8689WAT     H135476   3.954   2.062   1.973  1.1302  0.8541 -0.3358
 8689WAT     H235477   3.864   2.054   1.870 -0.8135  0.5488  1.3223
 8689WAT    EPW35478   3.932   2.079   1.899 -0.1469  0.4656 -0.0694
 8690WAT      O35479   4.805   2.426   4.575  0.5099  0.2649 -0.0185
 8690WAT     H135480   4.723   2.427   4.545  0.3236 -0.3965  0.4353
 8690WAT     H235481   4.806   2.489   4.636  0.7213  1.1930 -0.9662
 8690WAT    EPW35482   4.793   2.435   4.580  0.5136  0.3043 -0.0914
 8691WAT      O35483   3.527   0.456   4.857 -0.2371 -0.8472 -0.5319
 8691WAT     H135484   3.602   0.430   4.820 -1.0608 -0.8154 -2.3040
 8691WAT     H235485   3.467   0.443   4.795 -1.1207  2.9837 -0.6984
 8691WAT    EPW35486   3.529   0.450   4.843 -0.4893 -0.2766 -0.8182
 8692WAT      O35487   4.016   1.927   5.087  0.0299 -0.8348 -0.6109
 8692WAT     H135488   3.983   1.874   5.026  0.7771 -0.6779 -1.1762
 8692WAT     H235489   4.101   1.905   5.089  0.2718  0.0685 -0.5753
 8692WAT    EPW35490   4.024   1.916   5.078  0.1761 -0.6782 -0.6891
 8693WAT      O35491   4.837   0.994   1.185 -0.4235  0.7039 -0.6864
 8693WAT     H135492   4.889   1.019   1.119  0.9208  0.1841  0.1229
 8693WAT     H235493   4.794   0.925   1.152  0.7642 -0.0023 -0.8327
 8693WAT    EPW35494   4.839   0.987   1.170 -0.0495  0.5228 -0.5884
 8694WAT      O35495   0.589   1.126   0.051  0.2493  0.3518 -0.2351
 8694WAT     H135496   0.668   1.138   0.087 -0.6097  1.4925  1.3922
 8694WAT     H235497   0.553   1.064   0.100  0.0601 -0.0350 -0.8552
 8694WAT    EPW35498   0.595   1.119   0.063  0.0945  0.4631 -0.0863
 8695WAT      O35499   1.260   6.293   4.774 -0.2819  0.2771  0.2049
 8695WAT     H135500   1.180   6.326   4.785  0.0316  1.3750 -0.6055
 8695WAT     H235501   1.259   6.266   4.691 -0.0835 -0.5324  0.4562
 8695WAT    EPW35502   1.248   6.294   4.763 -0.2063  0.3197  0.1223
 8696WAT      O35503   5.724   2.013   4.299  0.6846 -0.2123 -0.0494
 8696WAT     H135504   5.772   2.048   4.363 -0.3966 -0.6349  1.0294
 8696WAT     H235505   5.648   1.995   4.338  0.1216 -0.8139 -1.3736
 8696WAT    EPW35506   5.720   2.016   4.314  0.4417 -0.3636 -0.0857
 8697WAT      O35507   4.661   5.629   2.764  0.5058 -0.2854  0.4709
 8697WAT     H135508   4.706   5.700   2.739 -0.0374  0.4871  1.6033
 8697WAT     H235509   4.602   5.620   2.700  0.8998 -0.0209  0.0599
 8697WAT    EPW35510   4.659   5.638   2.751  0.4837 -0.1322  0.5775
 8698WAT      O35511   3.595   3.051   7.658  0.4323  0.2921 -0.5863
 8698WAT     H135512   3.519   3.068   7.619 -0.4488 -0.7133  0.5880
 8698WAT     H235513   3.613   2.969   7.633  0.5599  0.1410 -0.0202
 8698WAT    EPW35514   3.586   3.041   7.649  0.3210  0.1212 -0.3292
 8699WAT      O35515   3.723   2.727   3.719 -0.5194  0.8219 -0.6796
 8699WAT     H135516   3.640   2.746   3.735 -0.1618  0.4174  2.2436
 8699WAT     H235517   3.766   2.794   3.755  0.4502  0.1832 -0.6242
 8699WAT    EPW35518   3.717   2.740   3.727 -0.3233  0.6678 -0.2396
 8700WAT      O35519   4.505   0.956   0.966  0.6815  0.4513  0.4002
 8700WAT     H135520   4.535   1.031   1.000  1.7252  0.2060  0.0846
 8700WAT     H235521   4.562   0.897   0.996 -1.0104 -0.5118  1.9523
 8700WAT    EPW35522   4.518   0.959   0.976  0.5857  0.2728  0.5829
 8701WAT      O35523   1.226   0.199   3.853  0.0280 -1.3291 -0.0905
 8701WAT     H135524   1.225   0.209   3.940  0.3518  3.1693 -0.3893
 8701WAT     H235525   1.141   0.194   3.833 -0.1158 -0.9668  0.3987
 8701WAT    EPW35526   1.213   0.200   3.863  0.0546 -0.6111 -0.0624
 8702WAT      O35527   2.449   3.225   3.661  0.3990  0.0691  0.0275
 8702WAT     H135528   2.515   3.281   3.672  0.8671 -0.7789  1.7996
 8702WAT     H235529   2.389   3.252   3.718 -0.9395  0.9408 -1.6829
 8702WAT    EPW35530   2.450   3.237   3.671  0.2705  0.0726  0.0367
 8703WAT      O35531   2.447   2.687   0.015  0.0100 -0.1229 -0.0927
 8703WAT     H135532   2.362   2.683  -0.004 -0.1980  2.2165  0.0629
 8703WAT     H235533   2.461   2.772   0.029  2.9480  0.0019 -2.6629
 8703WAT    EPW35534   2.436   2.699   0.014  0.4133  0.2411 -0.4494
 8704WAT      O35535   0.471   5.650   4.155 -0.4121  0.1620  0.7382
 8704WAT     H135536   0.504   5.611   4.225 -2.1983 -1.4612  0.7389
 8704WAT     H235537   0.398   5.606   4.139 -1.7621  2.5757 -0.1959
 8704WAT    EPW35538   0.465   5.638   4.163 -0.8754  0.2788  0.6003
 8705WAT      O35539   2.740   1.380   5.562  0.3761 -0.0987 -0.5182
 8705WAT     H135540   2.702   1.459   5.559 -1.8925 -1.1115 -2.7535
 8705WAT     H235541   2.809   1.389   5.509  1.0786  0.7768  0.5170
 8705WAT    EPW35542   2.745   1.393   5.554  0.1448 -0.1190 -0.6955
 8706WAT      O35543   1.082   2.022   6.842 -0.1985 -0.1558 -0.1996
 8706WAT     H135544   1.055   2.056   6.918 -0.0190 -0.2095 -0.1133
 8706WAT     H235545   1.123   1.949   6.865 -0.6972 -0.5046 -0.3949
 8706WAT    EPW35546   1.084   2.016   6.857 -0.2457 -0.2153 -0.2157
 8707WAT      O35547   7.124   6.030   5.384 -0.5322 -0.0243  0.9428
 8707WAT     H135548   7.066   6.095   5.389  0.3681  0.8918 -0.0923
 8707WAT     H235549   7.075   5.959   5.372 -1.5845  0.3084  2.9937
 8707WAT    EPW35550   7.108   6.029   5.383 -0.5546  0.1602  1.0929
 8708WAT      O35551   0.867   3.271   4.283  0.7578  0.0477  0.4391
 8708WAT     H135552   0.846   3.190   4.258 -1.4360  0.5265  0.5437
 8708WAT     H235553   0.813   3.286   4.350  0.3238  1.9926 -0.3079
 8708WAT    EPW35554   0.856   3.261   4.289  0.3696  0.4057  0.3442
 8709WAT      O35555   3.306   0.963   1.198 -0.0843 -0.0339 -0.3660
 8709WAT     H135556   3.384   0.924   1.195 -0.2287 -0.2929 -0.9368
 8709WAT     H235557   3.297   0.996   1.118 -0.6509 -0.1908 -0.3718
 8709WAT    EPW35558   3.316   0.962   1.186 -0.1893 -0.0953 -0.4512
 8710WAT      O35559   2.849   4.404   2.660 -0.3061  0.6210  0.1036
 8710WAT     H135560   2.853   4.356   2.587 -2.3966  2.0412 -1.0553
 8710WAT     H235561   2.763   4.415   2.672  0.0495  2.1410  1.6237
 8710WAT    EPW35562   2.837   4.398   2.651 -0.5624  1.0553  0.1569
 8711WAT      O35563   1.750   5.858   7.843  0.5180  0.5484  0.0636
 8711WAT     H135564   1.809   5.820   7.894  1.0259  0.8592 -0.2802
 8711WAT     H235565   1.798   5.911   7.792  0.0456  0.1385 -0.8308
 8711WAT    EPW35566   1.766   5.860   7.843  0.5233  0.5338 -0.1193
 8712WAT      O35567   5.038   1.963   0.070 -0.1074  0.5085  0.2981
 8712WAT     H135568   5.096   2.020   0.102 -1.0544  1.6154  0.0525
 8712WAT     H235569   5.084   1.888   0.067  0.7021  0.8889  2.0270
 8712WAT    EPW35570   5.054   1.960   0.075 -0.1277  0.7282  0.5172
 8713WAT      O35571   3.805   2.325   7.677 -0.0959 -0.4435 -0.2541
 8713WAT     H135572   3.793   2.282   7.603 -0.0282 -1.1813  0.1520
 8713WAT     H235573   3.732   2.372   7.686  0.0444 -0.0928 -0.9517
 8713WAT    EPW35574   3.793   2.325   7.668 -0.0652 -0.5007 -0.2971
 8714WAT      O35575   1.622   3.015   6.559  0.5159  0.5043 -0.4524
 8714WAT     H135576   1.544   2.987   6.532 -0.1230  0.2274  1.5086
 8714WAT     H235577   1.632   3.092   6.518 -1.2971  1.0732  0.0948
 8714WAT    EPW35578   1.612   3.022   6.549  0.1537  0.5474 -0.0819
 8715WAT      O35579   0.695   2.029   4.791  0.2393 -0.5029  0.2347
 8715WAT     H135580   0.760   2.036   4.848  0.5151 -0.1797 -0.1076
 8715WAT     H235581   0.705   2.099   4.740  0.0638 -0.8349 -0.2706
 8715WAT    EPW35582   0.706   2.040   4.792  0.2542 -0.5042  0.1095
 8716WAT      O35583   2.683   0.292   1.841  0.2110  0.3985 -0.2972
 8716WAT     H135584   2.664   0.258   1.763 -0.4828 -0.4145  0.2062
 8716WAT     H235585   2.625   0.357   1.849  0.8405  1.0328 -0.8110
 8716WAT    EPW35586   2.672   0.296   1.830  0.2015  0.3721 -0.2988
 8717WAT      O35587   3.375   1.759   2.455  0.2281  0.2731 -0.2639
 8717WAT     H135588   3.397   1.791   2.377  2.2515 -0.5166 -0.0676
 8717WAT     H235589   3.404   1.819   2.511  1.1372 -0.3740 -0.0295
 8717WAT    EPW35590   3.382   1.772   2.452  0.6613  0.0609 -0.2002
 8718WAT      O35591   1.662   6.522   6.661 -0.5688  0.0069  0.6164
 8718WAT     H135592   1.605   6.490   6.604 -1.2081  0.1850  1.1319
 8718WAT     H235593   1.722   6.460   6.668  0.4685  0.6908 -1.5444
 8718WAT    EPW35594   1.662   6.508   6.654 -0.5100  0.1342  0.3734
 8719WAT      O35595   4.555   0.118   3.746 -0.7594  0.0060  0.4580
 8719WAT     H135596   4.619   0.155   3.700  0.6609  0.5403  2.6945
 8719WAT     H235597   4.598   0.062   3.798 -1.7949  1.5895  3.2353
 8719WAT    EPW35598   4.571   0.115   3.747 -0.7026  0.3189  1.1986
 8720WAT      O35599   0.196   4.159   7.796 -0.2102 -0.8003 -0.2458
 8720WAT     H135600   0.262   4.161   7.854  3.0132  0.4218 -3.5829
 8720WAT     H235601   0.198   4.077   7.766  0.6123 -0.5049 -1.0667
 8720WAT    EPW35602   0.206   4.147   7.800  0.3875 -0.5761 -0.8600
 8721WAT      O35603   1.402   4.813   4.001 -0.2794 -0.4083 -0.2216
 8721WAT     H135604   1.331   4.794   4.047  0.4358 -1.1822  0.5785
 8721WAT     H235605   1.374   4.808   3.918 -1.3306  0.0452  0.0815
 8721WAT    EPW35606   1.387   4.810   3.995 -0.3290 -0.4556 -0.0586
 8722WAT      O35607   1.402   7.276   2.601  0.4773 -0.0619 -0.0710
 8722WAT     H135608   1.456   7.232   2.548  0.6326 -0.4496  0.3883
 8722WAT     H235609   1.431   7.358   2.597  1.2994 -0.3160  0.3894
 8722WAT    EPW35610   1.414   7.281   2.593  0.6217 -0.1567  0.0649
 8723WAT      O35611   5.650   7.633   2.295 -0.1836  0.2217 -0.4028
 8723WAT     H135612   5.663   7.584   2.224 -0.5184  1.5743 -1.4298
 8723WAT     H235613   5.718   7.687   2.296  1.6539 -1.8535  2.2261
 8723WAT    EPW35614   5.662   7.634   2.285  0.0383  0.1149 -0.1662
 8724WAT      O35615   2.499   0.475   4.656  0.3988 -0.9020  0.1534
 8724WAT     H135616   2.489   0.433   4.732 -0.3462 -0.2718  0.4066
 8724WAT     H235617   2.581   0.503   4.658  0.0227  0.1942  1.2962
 8724WAT    EPW35618   2.510   0.473   4.667  0.2332 -0.6470  0.3596
 8725WAT      O35619   3.712   6.777   4.274  0.1832  0.0083  0.2832
 8725WAT     H135620   3.656   6.732   4.324  0.6341 -0.8339  0.0435
 8725WAT     H235621   3.687   6.757   4.193  0.7849 -0.2983  0.1756
 8725WAT    EPW35622   3.700   6.768   4.269  0.3387 -0.1614  0.2319
 8726WAT      O35623   2.469   3.541   6.905  0.2016 -0.0894 -0.5909
 8726WAT     H135624   2.405   3.484   6.917  0.5316 -0.9245 -2.4559
 8726WAT     H235625   2.537   3.491   6.881  0.3399  1.0481 -2.8839
 8726WAT    EPW35626   2.470   3.525   6.903  0.2708 -0.0448 -1.2051
 8727WAT      O35627   0.187   2.307   5.056 -0.0180 -0.5886 -0.5215
 8727WAT     H135628   0.246   2.279   5.114  0.4400  0.3122 -0.5231
 8727WAT     H235629   0.149   2.374   5.097 -0.0425 -0.2625 -1.0636
 8727WAT    EPW35630   0.190   2.313   5.071  0.0461 -0.4073 -0.6018
 8728WAT      O35631   5.711   7.599   4.915  0.4394  0.5216 -0.5465
 8728WAT     H135632   5.750   7.533   4.956  0.7944  1.4711  0.7239
 8728WAT     H235633   5.666   7.639   4.978 -0.1675  1.2048 -1.3823
 8728WAT    EPW35634   5.710   7.595   4.930  0.4022  0.7628 -0.4823
 8729WAT      O35635   4.789   2.511   0.637 -0.2737 -0.6234 -0.0384
 8729WAT     H135636   4.806   2.536   0.555  0.1519  0.8071  0.4508
 8729WAT     H235637   4.856   2.544   0.683 -1.5103  0.3176  1.1594
 8729WAT    EPW35638   4.802   2.520   0.632 -0.3935 -0.2731  0.2108
 8730WAT      O35639   5.153   1.850   6.959 -0.3683 -0.6094 -0.1591
 8730WAT     H135640   5.126   1.933   6.958  0.3563 -0.3178  1.2396
 8730WAT     H235641   5.221   1.849   6.905 -0.0694 -0.1583  0.1997
 8730WAT    EPW35642   5.159   1.862   6.951 -0.2171 -0.4997  0.1005
 8731WAT      O35643   1.813   7.588   2.965  0.0198  0.1130  0.1447
 8731WAT     H135644   1.849   7.613   3.041  3.0570  0.4005 -1.2250
 8731WAT     H235645   1.833   7.503   2.960  0.5470  0.2695 -0.6424
 8731WAT    EPW35646   1.821   7.579   2.975  0.5463  0.1786 -0.1739
 8732WAT      O35647   2.048   4.739   1.392 -0.0109  0.7860 -0.5758
 8732WAT     H135648   2.045   4.786   1.466  0.4024  1.6081 -1.0651
 8732WAT     H235649   2.128   4.755   1.361 -0.4850  1.1638 -1.6424
 8732WAT    EPW35650   2.059   4.748   1.398 -0.0199  0.9632 -0.8057
 8733WAT      O35651   3.501   0.850   2.622  0.0249  0.2075  0.1011
 8733WAT     H135652   3.477   0.928   2.654 -2.6317 -0.0497 -0.9446
 8733WAT     H235653   3.498   0.862   2.535  1.5497 -0.5615 -0.0746
 8733WAT    EPW35654   3.497   0.863   2.614 -0.1423  0.0559 -0.0793
 8734WAT      O35655   1.726   3.209   3.877 -0.2176 -0.1279 -0.4099
 8734WAT     H135656   1.736   3.293   3.901 -1.4325 -0.3594  1.1426
 8734WAT     H235657   1.806   3.177   3.879  0.2678  0.9823 -0.9969
 8734WAT    EPW35658   1.739   3.217   3.881 -0.3254  0.0019 -0.2672
 8735WAT      O35659   6.219   7.592   3.963 -0.0383  0.3558 -0.1765
 8735WAT     H135660   6.233   7.648   4.029  0.5140  1.1742 -0.9755
 8735WAT     H235661   6.147   7.624   3.925 -0.2464 -0.0056 -0.0858
 8735WAT    EPW35662   6.210   7.605   3.967  0.0126  0.4233 -0.2811
 8736WAT      O35663   4.161   1.692   5.406 -0.2678 -0.3052  0.3099
 8736WAT     H135664   4.156   1.626   5.349  3.2065 -0.8944  0.4257
 8736WAT     H235665   4.107   1.668   5.470  0.4072 -2.7890  0.0525
 8736WAT    EPW35666   4.153   1.679   5.407  0.3451 -0.7591  0.2889
 8737WAT      O35667   3.140   5.596   4.333  0.3915 -0.2503  0.3335
 8737WAT     H135668   3.090   5.667   4.339  1.4721  1.0866 -3.4782
 8737WAT     H235669   3.195   5.604   4.400  0.2154  2.3453  0.2512
 8737WAT    EPW35670   3.141   5.608   4.344  0.5251  0.3306 -0.2418
 8738WAT      O35671   1.538   7.569   2.958  0.1271  0.3459  0.5449
 8738WAT     H135672   1.529   7.576   2.871 -1.0467  1.8378  0.7430
 8738WAT     H235673   1.625   7.573   2.970  0.2938  0.3919 -0.5489
 8738WAT    EPW35674   1.550   7.571   2.947 -0.0216  0.5731  0.4126
 8739WAT      O35675   7.321   4.508   4.042 -0.3204 -0.4710  0.4510
 8739WAT     H135676   7.328   4.532   4.125  0.3839 -0.5928  0.4281
 8739WAT     H235677   7.248   4.460   4.041 -0.8510  0.2980  0.8089
 8739WAT    EPW35678   7.311   4.504   4.054 -0.2947 -0.3754  0.5005
 8740WAT      O35679   3.909   2.323   3.682 -0.2004 -0.0328  0.1484
 8740WAT     H135680   3.915   2.252   3.632  0.1797  1.3731 -1.9650
 8740WAT     H235681   3.982   2.322   3.729  0.2068 -0.6438 -0.4755
 8740WAT    EPW35682   3.921   2.312   3.681 -0.0841  0.0846 -0.2559
 8741WAT      O35683   2.457   2.236   1.557 -0.6541 -0.5281  0.0976
 8741WAT     H135684   2.417   2.196   1.490  0.6362 -1.3853 -0.1901
 8741WAT     H235685   2.532   2.192   1.565  0.4317  1.2921  0.3480
 8741WAT    EPW35686   2.462   2.224   1.548 -0.3031 -0.3858  0.0921
 8742WAT      O35687   3.250   1.230   3.208  0.8744  0.0314 -0.0038
 8742WAT     H135688   3.262   1.310   3.241 -1.0364  0.6365 -0.6203
 8742WAT     H235689   3.202   1.244   3.137 -0.1607 -1.7023  0.2680
 8742WAT    EPW35690   3.245   1.244   3.203  0.4393 -0.1353 -0.0547
 8743WAT      O35691   3.205   5.360   5.034  0.2350  0.1785 -0.0623
 8743WAT     H135692   3.245   5.343   5.110 -0.6289 -0.2246  0.3215
 8743WAT     H235693   3.209   5.285   4.991  0.7402  0.4126 -0.4284
 8743WAT    EPW35694   3.211   5.346   5.039  0.1820  0.1535 -0.0597
 8744WAT      O35695   5.069   2.107   4.502 -0.5334 -0.2845 -0.1438
 8744WAT     H135696   5.000   2.138   4.458 -0.9287 -1.9879 -0.7748
 8744WAT     H235697   5.130   2.168   4.489 -2.1252  1.7365  1.1830
 8744WAT    EPW35698   5.068   2.121   4.493 -0.8269 -0.2376 -0.0410
 8745WAT      O35699   4.898   2.695   3.788 -0.1351  0.0298 -0.1577
 8745WAT     H135700   4.898   2.748   3.719  1.0358 -0.4024 -0.5047
 8745WAT     H235701   4.957   2.730   3.842  0.1997 -0.5768 -0.1222
 8745WAT    EPW35702   4.906   2.708   3.786  0.0873 -0.1237 -0.2037
 8746WAT      O35703   4.467   0.971   2.808 -0.3048 -0.4327  0.2862
 8746WAT     H135704   4.512   0.944   2.738  0.7045  1.7194  0.0026
 8746WAT     H235705   4.518   0.948   2.875 -0.9720 -1.9413  0.3045
 8746WAT    EPW35706   4.482   0.964   2.808 -0.2543 -0.3377  0.2470
 8747WAT      O35707   0.695   1.953   6.283 -0.4162 -0.6807 -0.0973
 8747WAT     H135708   0.727   1.933   6.204  0.1973  0.1673 -0.0828
 8747WAT     H235709   0.646   2.023   6.267 -1.5022 -1.3901  0.0491
 8747WAT    EPW35710   0.693   1.961   6.269 -0.4860 -0.6603 -0.0735
 8748WAT      O35711   2.747   1.943   5.008 -0.1511  0.3294 -0.8981
 8748WAT     H135712   2.815   1.909   5.050  1.1464  0.0131 -3.1209
 8748WAT     H235713   2.757   2.029   5.019  1.0993  0.3316 -1.8649
 8748WAT    EPW35714   2.758   1.951   5.016  0.2253  0.2830 -1.3693
 8749WAT      O35715   1.038   1.532   4.553 -0.1759  0.1099 -0.4862
 8749WAT     H135716   1.115   1.499   4.575 -0.4973  0.1383  0.7655
 8749WAT     H235717   1.021   1.589   4.617  0.5857  3.1874 -2.7574
 8749WAT    EPW35718   1.047   1.535   4.566 -0.1109  0.5687 -0.6368
 8750WAT      O35719   7.497   2.411   4.893 -0.4728  0.2294  0.1558
 8750WAT     H135720   7.412   2.422   4.875 -0.6313 -0.0448  0.6944
 8750WAT     H235721   7.508   2.325   4.887  0.0856  0.3820 -1.2176
 8750WAT    EPW35722   7.486   2.400   4.889 -0.4137  0.2114  0.0325
 8751WAT      O35723   4.051   0.856   2.344 -0.0485  0.2696 -0.3253
 8751WAT     H135724   4.080   0.931   2.378 -1.8661 -0.8042  4.4782
 8751WAT     H235725   3.969   0.873   2.321  0.6807  0.5570 -3.0041
 8751WAT    EPW35726   4.044   0.869   2.346 -0.2093  0.1534 -0.0114
 8752WAT      O35727   3.021   1.766   5.886 -0.2508  0.2438  0.1023
 8752WAT     H135728   3.058   1.706   5.937  0.6620  0.9919  0.3489
 8752WAT     H235729   2.972   1.719   5.831  0.3160 -0.7104  0.3910
 8752WAT    EPW35730   3.019   1.750   5.886 -0.0322  0.2133  0.1813
 8753WAT      O35731   5.155   0.526   6.473 -0.3076  0.0702  0.1489
 8753WAT     H135732   5.168   0.483   6.398 -0.3395 -2.1157  1.3008
 8753WAT     H235733   5.222   0.582   6.476 -0.0089 -0.1792 -1.2617
 8753WAT    EPW35734   5.167   0.528   6.463 -0.2682 -0.2895  0.1107
 8754WAT      O35735   0.058   0.453   5.180  0.0976  0.1791 -0.2462
 8754WAT     H135736   0.047   0.515   5.120  0.3030  0.1683 -0.2976
 8754WAT     H235737  -0.022   0.420   5.192  0.1291 -0.1036 -0.8164
 8754WAT    EPW35738   0.045   0.457   5.173  0.1326  0.1357 -0.3380
 8755WAT      O35739   1.803   1.501   6.343 -0.2378  0.3976 -0.4489
 8755WAT     H135740   1.868   1.450   6.314  1.9388  1.8285  1.5398
 8755WAT     H235741   1.762   1.525   6.269  0.7352 -1.4814 -1.6848
 8755WAT    EPW35742   1.807   1.497   6.328  0.2274  0.3314 -0.3377
 8756WAT      O35743   4.329   0.118   2.228 -0.0775  0.5227  0.1863
 8756WAT     H135744   4.385   0.184   2.224 -0.1346  0.5036 -2.6543
 8756WAT     H235745   4.259   0.147   2.185 -1.3616 -0.3189  1.5804
 8756WAT    EPW35746   4.327   0.132   2.221 -0.2756  0.3955 -0.0274
 8757WAT      O35747   2.077   2.951   7.337 -0.0228 -0.1410 -0.2007
 8757WAT     H135748   2.067   2.875   7.295 -0.6959  0.2143 -0.7147
 8757WAT     H235749   2.079   3.009   7.272  0.9905  0.2463  0.1613
 8757WAT    EPW35750   2.076   2.948   7.321  0.0274 -0.0313 -0.2232
 8758WAT      O35751   6.608   1.191   7.388 -0.9127 -0.2874  0.4305
 8758WAT     H135752   6.560   1.138   7.338 -1.9651  2.3747 -1.6099
 8758WAT     H235753   6.674   1.214   7.336 -2.3176  2.9793 -0.1613
 8758WAT    EPW35754   6.610   1.187   7.373 -1.2757  0.5884  0.0417
 8759WAT      O35755   1.008   3.454   5.333 -0.0472  0.4390 -0.0818
 8759WAT     H135756   1.004   3.474   5.248  1.1115  0.6425 -0.1096
 8759WAT     H235757   0.928   3.471   5.362 -0.0562  1.8220 -0.8396
 8759WAT    EPW35758   0.996   3.460   5.325  0.1226  0.6733 -0.1978
 8760WAT      O35759   5.442   0.538   3.424  0.2967  0.0040 -0.1673
 8760WAT     H135760   5.492   0.508   3.489  1.1169 -0.1253 -0.8451
 8760WAT     H235761   5.442   0.624   3.436  0.9255  0.0295 -0.3287
 8760WAT    EPW35762   5.449   0.546   3.436  0.5107 -0.0113 -0.2913
 8761WAT      O35763   6.756   3.086   4.728 -0.0143 -0.3549 -0.8750
 8761WAT     H135764   6.747   3.130   4.803 -0.9139 -0.7771 -0.7249
 8761WAT     H235765   6.704   3.129   4.673  0.6447 -0.0441 -1.2726
 8761WAT    EPW35766   6.747   3.099   4.731 -0.0498 -0.3714 -0.9116
 8762WAT      O35767   1.325   4.702   5.990 -0.3052 -0.6684  0.4322
 8762WAT     H135768   1.248   4.661   5.987  0.2064 -1.6502  0.1150
 8762WAT     H235769   1.381   4.638   6.009  0.6349 -0.2828 -0.8804
 8762WAT    EPW35770   1.322   4.687   5.993 -0.0908 -0.7565  0.1915
 8763WAT      O35771   2.314   3.983   0.664  0.4416 -0.3577 -0.5640
 8763WAT     H135772   2.353   4.039   0.610 -0.7739 -0.2849 -1.3929
 8763WAT     H235773   2.331   4.017   0.743  0.6802  0.5602 -0.9885
 8763WAT    EPW35774   2.322   3.996   0.668  0.2973 -0.2113 -0.7491
 8764WAT      O35775   3.372   1.441   3.355 -0.4447  0.0801 -0.0027
 8764WAT     H135776   3.446   1.449   3.400 -2.2107  2.1733  2.9224
 8764WAT     H235777   3.364   1.517   3.313 -0.1970 -0.7866 -1.7146
 8764WAT    EPW35778   3.382   1.453   3.355 -0.6690  0.2613  0.1765
 8765WAT      O35779   0.002   4.760   6.313  0.3099 -0.2650 -0.0537
 8765WAT     H135780   0.074   4.807   6.296  0.3295  0.2208  1.2434
 8765WAT     H235781   0.027   4.708   6.378 -0.7711  0.6216  1.1195
 8765WAT    EPW35782   0.016   4.759   6.320  0.1531 -0.0623  0.3112
 8766WAT      O35783   3.635   3.025   1.400 -0.0819  0.4939 -0.0746
 8766WAT     H135784   3.651   3.073   1.329  1.8340  1.0137  0.6359
 8766WAT     H235785   3.555   3.048   1.423  0.0927  1.9748 -0.8222
 8766WAT    EPW35786   3.626   3.036   1.393  0.2269  0.7895 -0.0801
 8767WAT      O35787   3.188   3.688   6.282 -0.1299 -0.2783  0.0888
 8767WAT     H135788   3.235   3.759   6.301 -0.4720 -0.3117  1.1410
 8767WAT     H235789   3.172   3.696   6.197 -0.1356  0.8979  0.1846
 8767WAT    EPW35790   3.192   3.700   6.273 -0.1813 -0.1095  0.2584
 8768WAT      O35791   3.775   3.229   0.134  0.3933 -0.2816  0.0785
 8768WAT     H135792   3.710   3.171   0.124 -0.6484  0.4745  1.9219
 8768WAT     H235793   3.829   3.191   0.191  0.5076 -0.0842  0.1054
 8768WAT    EPW35794   3.773   3.215   0.141  0.2563 -0.1407  0.3548
 8769WAT      O35795   5.524   2.171   0.608 -0.4671  0.3644  0.0006
 8769WAT     H135796   5.528   2.161   0.521  0.6836  0.1738  0.0631
 8769WAT     H235797   5.530   2.089   0.638  0.0654  0.5057  0.2817
 8769WAT    EPW35798   5.525   2.157   0.599 -0.2184  0.3571  0.0514
 8770WAT      O35799   0.847   5.853   4.670  0.4063 -0.0389  0.1861
 8770WAT     H135800   0.768   5.888   4.656 -0.3499 -1.5162  0.5275
 8770WAT     H235801   0.860   5.803   4.600  0.7226 -0.3324  0.4486
 8770WAT    EPW35802   0.837   5.850   4.658  0.3413 -0.3005  0.2753
 8771WAT      O35803   4.054   2.528   0.625  0.1718 -0.5458 -0.1383
 8771WAT     H135804   4.041   2.492   0.704 -1.9555 -0.1078 -0.2281
 8771WAT     H235805   4.090   2.463   0.579  4.0691 -0.0485  1.8071
 8771WAT    EPW35806   4.058   2.513   0.630  0.4333 -0.4076  0.1358
 8772WAT      O35807   3.598   4.506   6.849  0.0826 -0.2831  0.1880
 8772WAT     H135808   3.554   4.541   6.916 -1.5153  0.8847 -1.3852
 8772WAT     H235809   3.543   4.446   6.817  2.2125 -3.4574  1.9436
 8772WAT    EPW35810   3.583   4.502   6.854  0.1612 -0.5795  0.2149
 8773WAT      O35811   2.111   6.314   7.709 -0.0279  0.0557  0.0903
 8773WAT     H135812   2.149   6.263   7.769 -1.5991  0.8392  1.8502
 8773WAT     H235813   2.163   6.305   7.639  2.7488  0.2129  1.9572
 8773WAT    EPW35814   2.125   6.305   7.708  0.1502  0.1946  0.6260
 8774WAT      O35815   6.244   7.679   3.596 -0.2746  0.6215 -0.2009
 8774WAT     H135816   6.279   7.647   3.669  0.0652  1.4107 -0.0073
 8774WAT     H235817   6.308   7.729   3.563 -0.4113  0.2564 -1.0538
 8774WAT    EPW35818   6.259   7.681   3.602 -0.2446  0.6841 -0.2983
 8775WAT      O35819   1.731   2.464   7.859 -0.0091  0.1548 -0.0132
 8775WAT     H135820   1.740   2.420   7.934 -0.9470  0.7045  0.4412
 8775WAT     H235821   1.676   2.414   7.813  0.0947  0.1160 -0.0957
 8775WAT    EPW35822   1.724   2.450   7.863 -0.1323  0.2303  0.0417
 8776WAT      O35823   4.227   6.420   1.789  0.4413 -0.0490  0.0455
 8776WAT     H135824   4.194   6.437   1.710 -0.0721 -1.4564 -0.0690
 8776WAT     H235825   4.312   6.434   1.779  0.3964 -0.3498 -0.7942
 8776WAT    EPW35826   4.234   6.425   1.776  0.3588 -0.3014 -0.0955
 8777WAT      O35827   0.920   7.582   4.185 -0.2339 -0.8643 -0.7674
 8777WAT     H135828   0.996   7.545   4.162  0.3046  0.3413 -1.0104
 8777WAT     H235829   0.936   7.616   4.264  0.3152  1.5227 -1.8079
 8777WAT    EPW35830   0.934   7.581   4.193 -0.0732 -0.3336 -0.9570
 8778WAT      O35831   3.550   2.147   7.605  0.3814 -0.6915 -0.3526
 8778WAT     H135832   3.610   2.166   7.546 -0.0236  1.7052 -0.0917
 8778WAT     H235833   3.488   2.208   7.592 -0.8765 -1.6327  0.8943
 8778WAT    EPW35834   3.549   2.159   7.595  0.1357 -0.4765 -0.1299
 8779WAT      O35835   2.842   2.100   3.451 -0.1503 -0.0382  0.1536
 8779WAT     H135836   2.927   2.082   3.443 -0.2460 -1.2051  1.5810
 8779WAT     H235837   2.806   2.060   3.382  0.3347 -0.3593  0.0824
 8779WAT    EPW35838   2.849   2.092   3.439 -0.0928 -0.2580  0.3539
 8780WAT      O35839   4.354   0.628   5.627  0.1211  0.2645  0.4929
 8780WAT     H135840   4.292   0.679   5.663  0.3844  0.4213  0.7268
 8780WAT     H235841   4.360   0.561   5.683 -0.6286 -0.3220 -0.1037
 8780WAT    EPW35842   4.346   0.626   5.641  0.0492  0.2011  0.4393
 8781WAT      O35843   4.302   1.319   4.429  0.5051 -0.0878 -0.1477
 8781WAT     H135844   4.359   1.374   4.393  0.0269 -0.3840 -1.4176
 8781WAT     H235845   4.238   1.371   4.457  0.4858  0.0885 -0.5089
 8781WAT    EPW35846   4.301   1.335   4.428  0.4316 -0.1055 -0.3887
 8782WAT      O35847   4.790   2.516   0.364  0.3042  0.2998 -0.5402
 8782WAT     H135848   4.706   2.507   0.342  0.2318  0.9853 -0.5760
 8782WAT     H235849   4.832   2.470   0.303 -0.0729 -0.6635 -0.0963
 8782WAT    EPW35850   4.783   2.508   0.352  0.2378  0.2588 -0.4799
 8783WAT      O35851   5.396   2.714   6.076  0.1228 -0.6778 -0.2227
 8783WAT     H135852   5.327   2.755   6.043  0.9262  1.1963  0.3066
 8783WAT     H235853   5.370   2.691   6.156 -0.2124 -0.8879 -0.3896
 8783WAT    EPW35854   5.382   2.717   6.083  0.1919 -0.4320 -0.1692
 8784WAT      O35855   1.713   1.321   5.535 -0.4178  0.3071  0.2761
 8784WAT     H135856   1.729   1.261   5.474  1.4849 -0.2864  1.2725
 8784WAT     H235857   1.783   1.374   5.530 -1.0113  1.1726  0.8788
 8784WAT    EPW35858   1.726   1.320   5.525 -0.2244  0.3473  0.5123
 8785WAT      O35859   0.455   0.999   7.660 -0.3990  0.2530 -0.1020
 8785WAT     H135860   0.516   1.009   7.722 -1.1467 -1.6683  1.0506
 8785WAT     H235861   0.387   1.043   7.692 -0.9373 -1.1287  0.7319
 8785WAT    EPW35862   0.454   1.007   7.674 -0.5890 -0.2349  0.1914
 8786WAT      O35863   1.892   1.841   3.934  0.3734  0.0596 -0.0380
 8786WAT     H135864   1.932   1.885   3.870  2.6475 -1.4365  0.2245
 8786WAT     H235865   1.937   1.766   3.938 -1.6902 -1.1952  1.2545
 8786WAT    EPW35866   1.905   1.837   3.925  0.4045 -0.3468  0.1917
 8787WAT      O35867   1.182   2.110   0.833  0.3495 -0.8653  0.5225
 8787WAT     H135868   1.233   2.140   0.898 -0.4041 -1.5937  1.4888
 8787WAT     H235869   1.101   2.119   0.865 -0.1058 -0.2711 -0.7554
 8787WAT    EPW35870   1.178   2.116   0.848  0.1709 -0.8851  0.4765
 8788WAT      O35871   0.901   1.608   7.008 -0.4620  0.3096 -0.0517
 8788WAT     H135872   0.877   1.674   6.956  1.4039  0.7458 -0.4075
 8788WAT     H235873   0.963   1.642   7.058 -0.5945 -0.7552  0.8839
 8788WAT    EPW35874   0.906   1.622   7.008 -0.2059  0.2168  0.0339
 8789WAT      O35875   1.376   3.093   5.194  0.1853 -0.0275  0.2968
 8789WAT     H135876   1.413   3.045   5.257  1.0148  1.4586  0.9847
 8789WAT     H235877   1.356   3.168   5.233  1.0654  1.0902 -1.2797
 8789WAT    EPW35878   1.379   3.097   5.209  0.4378  0.3571  0.1655
 8790WAT      O35879   0.431   2.682   5.629 -0.5413 -0.4017  0.3006
 8790WAT     H135880   0.511   2.694   5.597  0.1353 -3.0410  0.8111
 8790WAT     H235881   0.429   2.734   5.699  0.3593  0.3961 -0.2420
 8790WAT    EPW35882   0.442   2.692   5.635 -0.3083 -0.6737  0.2959
 8791WAT      O35883   2.556   3.338   2.080  0.3704 -0.3578  0.1610
 8791WAT     H135884   2.573   3.294   2.007 -1.1488 -1.7244  0.5460
 8791WAT     H235885   2.470   3.325   2.091  0.2148  1.2946  1.2572
 8791WAT    EPW35886   2.546   3.329   2.071  0.1230 -0.3156  0.3798
 8792WAT      O35887   2.901   2.433   0.622 -0.1996  0.4031 -0.0341
 8792WAT     H135888   2.856   2.388   0.682 -0.1660  1.7618  1.0901
 8792WAT     H235889   2.929   2.373   0.566 -1.4958 -0.7466  0.5033
 8792WAT    EPW35890   2.898   2.418   0.623 -0.3861  0.4340  0.2114
 8793WAT      O35891   2.371   3.090   1.790 -0.0181  0.5962 -0.8017
 8793WAT     H135892   2.395   3.072   1.709 -1.9652  1.5187 -1.6445
 8793WAT     H235893   2.303   3.038   1.804  0.8717 -0.2465  0.6315
 8793WAT    EPW35894   2.364   3.080   1.780 -0.1743  0.6080 -0.7145
 8794WAT      O35895   3.002   0.185   1.167  0.0487  0.0555 -0.3649
 8794WAT     H135896   3.054   0.179   1.098  1.1015 -1.3365  0.5010
 8794WAT     H235897   2.949   0.116   1.159 -1.0071  0.8852 -0.6947
 8794WAT    EPW35898   3.002   0.174   1.156  0.0483 -0.0275 -0.2857
 8795WAT      O35899   2.681   1.929   0.217 -0.3052  0.5306  0.2920
 8795WAT     H135900   2.616   1.965   0.172 -1.7511  1.1957  2.7113
 8795WAT     H235901   2.689   1.849   0.183 -0.7711  1.2373 -1.5739
 8795WAT    EPW35902   2.673   1.922   0.205 -0.5876  0.7333  0.3737
 8796WAT      O35903   2.044   3.144   7.128  0.6457 -0.1687  0.5873
 8796WAT     H135904   2.082   3.222   7.117  0.0021  0.0134 -0.5594
 8796WAT     H235905   2.023   3.120   7.047  1.5329 -1.9211  0.8143
 8796WAT    EPW35906   2.046   3.152   7.114  0.6816 -0.4007  0.4515
 8797WAT      O35907   4.269   4.938   0.952  0.5314  0.4514  0.6757
 8797WAT     H135908   4.186   4.927   0.928  0.2770  0.5836  1.4548
 8797WAT     H235909   4.314   4.925   0.878 -0.0831 -0.9337  0.5081
 8797WAT    EPW35910   4.263   4.934   0.937  0.4031  0.2663  0.7660
 8798WAT      O35911   5.914   1.052   0.219 -0.3753 -0.1578  0.0575
 8798WAT     H135912   5.937   1.057   0.135 -0.4928 -0.2845  0.0183
 8798WAT     H235913   5.830   1.078   0.219 -0.1921  0.4568  0.2206
 8798WAT    EPW35914   5.905   1.057   0.207 -0.3656 -0.0857  0.0758
 8799WAT      O35915   2.195   0.844   3.034  0.4220 -0.1772  0.7183
 8799WAT     H135916   2.224   0.777   2.986  0.1082 -0.1846  0.5388
 8799WAT     H235917   2.136   0.808   3.087 -0.6473  0.1462 -0.2025
 8799WAT    EPW35918   2.191   0.829   3.035  0.2177 -0.1305  0.5558
 8800WAT      O35919   3.781   0.966   6.112  0.6376  0.1274  0.5723
 8800WAT     H135920   3.843   0.907   6.126  1.2452  1.3479  3.7989
 8800WAT     H235921   3.708   0.926   6.137  0.3264 -0.5911 -1.2769
 8800WAT    EPW35922   3.780   0.952   6.118  0.6814  0.2016  0.7758
 8801WAT      O35923   3.303   1.236   3.884 -0.2936 -0.3367  0.4225
 8801WAT     H135924   3.334   1.207   3.807  0.8414 -0.6268  0.9638
 8801WAT     H235925   3.330   1.176   3.940  0.0821  0.5614  1.2364
 8801WAT    EPW35926   3.312   1.223   3.881 -0.0705 -0.2469  0.6227
 8802WAT      O35927   4.681   5.218   1.381 -0.1943 -0.2409 -0.3306
 8802WAT     H135928   4.718   5.263   1.316  0.3162 -2.2825 -1.5362
 8802WAT     H235929   4.721   5.249   1.452  0.6888  0.6610 -1.1839
 8802WAT    EPW35930   4.692   5.229   1.382  0.0116 -0.4093 -0.6347
 8803WAT      O35931   1.880   1.938   6.956  0.1498 -0.2436 -0.1777
 8803WAT     H135932   1.883   1.946   7.043  0.1495  1.7377 -0.3157
 8803WAT     H235933   1.963   1.929   6.933  0.2460  0.2611 -0.0377
 8803WAT    EPW35934   1.893   1.938   6.966  0.1640  0.1236 -0.1774
 8804WAT      O35935   3.301   0.553   0.048  0.2224  0.1390  0.1906
 8804WAT     H135936   3.298   0.544   0.134  0.8630  1.5339  0.3857
 8804WAT     H235937   3.354   0.489   0.022  1.4743  0.8092  1.0357
 8804WAT    EPW35938   3.308   0.542   0.057  0.5020  0.4440  0.3443
 8805WAT      O35939   3.939   2.915   6.954 -0.4662  0.0404  0.2876
 8805WAT     H135940   4.026   2.908   6.949 -0.5418 -1.2321  0.5846
 8805WAT     H235941   3.928   2.993   6.992  0.5198  0.4627 -0.2285
 8805WAT    EPW35942   3.951   2.926   6.958 -0.3317 -0.0852  0.2553
 8806WAT      O35943   5.519   0.894   6.897 -0.7039  0.2023 -0.0837
 8806WAT     H135944   5.575   0.835   6.930 -2.9154 -2.1876 -0.2565
 8806WAT     H235945   5.540   0.968   6.938  3.1654 -0.2591 -0.8787
 8806WAT    EPW35946   5.531   0.896   6.908 -0.4590 -0.2189 -0.2267
 8807WAT      O35947   1.389   6.228   6.621  0.7269  0.0839  0.0271
 8807WAT     H135948   1.404   6.144   6.605 -0.6825  0.0631 -1.4075
 8807WAT     H235949   1.303   6.232   6.633  0.9873  1.0399  2.2250
 8807WAT    EPW35950   1.379   6.216   6.621  0.5571  0.2220  0.1399
 8808WAT      O35951   1.167   7.312   3.145  0.5474  0.1100  0.3351
 8808WAT     H135952   1.253   7.326   3.146  0.6101  0.3262 -2.4690
 8808WAT     H235953   1.152   7.280   3.066 -1.8817 -0.6298  1.0245
 8808WAT    EPW35954   1.178   7.310   3.134  0.1979  0.0326  0.0227
 8809WAT      O35955   1.593   1.423   6.491  0.4010  0.4397 -0.0649
 8809WAT     H135956   1.552   1.366   6.439  1.8620 -2.4907  1.7257
 8809WAT     H235957   1.666   1.442   6.447  0.0154  0.7945 -0.5673
 8809WAT    EPW35958   1.598   1.418   6.477  0.5599  0.0592  0.1254
 8810WAT      O35959   4.555   3.158   4.699 -0.1240 -0.0919  0.2970
 8810WAT     H135960   4.485   3.190   4.658 -0.7237 -2.7305 -0.9463
 8810WAT     H235961   4.617   3.157   4.637 -0.0932 -1.1427  0.3246
 8810WAT    EPW35962   4.554   3.163   4.684 -0.2080 -0.6369  0.1174
 8811WAT      O35963   6.533   5.339   0.156 -0.6056  0.1493 -0.1632
 8811WAT     H135964   6.496   5.334   0.077  0.1774 -0.0102 -0.5252
 8811WAT     H235965   6.465   5.340   0.210 -1.1355 -1.8339 -0.7128
 8811WAT    EPW35966   6.517   5.339   0.153 -0.5682 -0.1672 -0.2979
 8812WAT      O35967   5.123   1.785   0.536 -0.1513 -0.6483  0.3854
 8812WAT     H135968   5.090   1.716   0.579 -0.0284 -0.5297  0.6691
 8812WAT     H235969   5.134   1.845   0.598  0.5986 -0.6852  0.2951
 8812WAT    EPW35970   5.119   1.783   0.551 -0.0224 -0.6362  0.4140
 8813WAT      O35971   0.683   2.848   5.791  0.5056 -0.2983  0.4036
 8813WAT     H135972   0.691   2.813   5.870  1.0845 -1.1064 -0.0056
 8813WAT     H235973   0.765   2.857   5.763  0.4198  1.7447  0.6171
 8813WAT    EPW35974   0.696   2.844   5.798  0.5784 -0.1159  0.3747
 8814WAT      O35975   1.799   3.396   5.264 -0.0892 -0.2070 -0.1718
 8814WAT     H135976   1.760   3.424   5.191 -0.9251 -0.1215  0.2925
 8814WAT     H235977   1.757   3.322   5.283 -0.1661 -0.0102  0.4476
 8814WAT    EPW35978   1.787   3.389   5.256 -0.2240 -0.1653 -0.0117
 8815WAT      O35979   3.258   1.323   7.004  0.6839 -0.5234 -0.1286
 8815WAT     H135980   3.254   1.306   6.918  0.2819 -0.0504 -0.2123
 8815WAT     H235981   3.182   1.292   7.034  0.5344 -0.0996 -0.0591
 8815WAT    EPW35982   3.246   1.316   6.996  0.6024 -0.3909 -0.1307
 8816WAT      O35983   2.922   7.424   6.785  0.4055  0.9894  0.1750
 8816WAT     H135984   2.913   7.345   6.749 -0.0118  1.4113 -0.6682
 8816WAT     H235985   2.845   7.463   6.770  0.1556  1.1358  1.6643
 8816WAT    EPW35986   2.909   7.418   6.777  0.3069  1.0734  0.2705
 8817WAT      O35987   2.151   6.382   2.018 -0.4382  0.2967 -0.0312
 8817WAT     H135988   2.121   6.320   1.965 -0.1042  0.5727 -0.5556
 8817WAT     H235989   2.155   6.343   2.096  1.5870 -0.9466 -0.6794
 8817WAT    EPW35990   2.147   6.367   2.022 -0.0897  0.1538 -0.2044
 8818WAT      O35991   7.092   7.277   4.147 -0.0973  0.1213 -0.3898
 8818WAT     H135992   7.145   7.212   4.171  0.4198  0.3579 -0.8752
 8818WAT     H235993   7.089   7.269   4.060 -0.6937  0.2375 -0.3815
 8818WAT    EPW35994   7.099   7.266   4.137 -0.1090  0.1734 -0.4603
 8819WAT      O35995   4.680   4.767   4.416 -0.4336  0.3111  0.1275
 8819WAT     H135996   4.639   4.833   4.376 -0.4163 -0.1058 -0.5932
 8819WAT     H235997   4.617   4.730   4.464 -0.4226  0.9037  0.6062
 8819WAT    EPW35998   4.665   4.771   4.417 -0.4294  0.3371  0.0918
 8820WAT      O35999   4.377   3.070   0.430  0.8312  0.1412 -0.0339
 8820WAT     H136000   4.406   3.129   0.372 -0.4575 -0.6321 -1.5549
 8820WAT     H236001   4.398   2.994   0.392 -1.3895 -0.4117 -0.2753
 8820WAT    EPW36002   4.384   3.067   0.416  0.3128 -0.0547 -0.2943
 8821WAT      O36003   3.765   1.759   6.243  0.5676  0.0799 -0.2633
 8821WAT     H136004   3.839   1.719   6.270  0.5524  2.0427  3.2453
 8821WAT     H236005   3.769   1.837   6.281 -3.2435  0.3542 -0.0669
 8821WAT    EPW36006   3.777   1.764   6.252  0.0024  0.4103  0.2840
 8822WAT      O36007   1.822   0.010   1.193  0.0257 -0.0294  0.0665
 8822WAT     H136008   1.803   0.082   1.238  0.8984 -0.1149  0.5830
 8822WAT     H236009   1.852  -0.045   1.253 -4.5383 -2.4780  0.5625
 8822WAT    EPW36010   1.824   0.013   1.209 -0.5195 -0.4038  0.2161
 8823WAT      O36011   5.161   1.703   2.066 -0.0216 -0.3802  0.2056
 8823WAT     H136012   5.090   1.716   2.017  0.0927  1.5724  0.4580
 8823WAT     H236013   5.172   1.617   2.064 -0.6436 -0.4893 -2.3295
 8823WAT    EPW36014   5.152   1.693   2.058 -0.0966 -0.1079 -0.1316
 8824WAT      O36015   2.409   2.869   6.171 -0.4637  0.2310 -0.4634
 8824WAT     H136016   2.426   2.936   6.225  0.7781  0.2726 -0.8668
 8824WAT     H236017   2.429   2.901   6.092 -0.6334 -0.3630 -0.7539
 8824WAT    EPW36018   2.415   2.884   6.167 -0.3053  0.1494 -0.5659
 8825WAT      O36019   2.955   6.519   1.748 -0.0626  0.0507 -0.3892
 8825WAT     H136020   2.887   6.526   1.803  1.4580  0.9424  1.4741
 8825WAT     H236021   2.997   6.448   1.776  2.0313  1.8050  1.2736
 8825WAT    EPW36022   2.951   6.510   1.760  0.4713  0.4416  0.1317
 8826WAT      O36023   3.621   3.219   0.503 -0.3275 -0.3283 -0.7071
 8826WAT     H136024   3.587   3.167   0.442  1.6794 -0.9348 -1.4016
 8826WAT     H236025   3.704   3.194   0.508  0.2583  1.5546  0.3110
 8826WAT    EPW36026   3.628   3.208   0.495  0.0555 -0.1398 -0.6593
 8827WAT      O36027   2.595   2.410   2.441 -0.0843  0.0748 -0.4254
 8827WAT     H136028   2.513   2.430   2.463 -0.0041  0.2741 -0.3057
 8827WAT     H236029   2.631   2.385   2.516  0.0842  0.3966 -0.3960
 8827WAT    EPW36030   2.588   2.409   2.455 -0.0476  0.1518 -0.4033
 8828WAT      O36031   3.629   1.872   1.178 -0.2012  0.4539  0.1101
 8828WAT     H136032   3.586   1.888   1.104  0.6876  1.6456 -0.1936
 8828WAT     H236033   3.661   1.951   1.200  0.5978 -0.1167  1.0766
 8828WAT    EPW36034   3.628   1.886   1.170  0.0481  0.5456  0.2080
 8829WAT      O36035   3.555   1.005   7.255 -0.7181 -0.2052  0.5993
 8829WAT     H136036   3.507   1.072   7.225  1.0893  0.9739  0.1501
 8829WAT     H236037   3.499   0.938   7.256 -2.3218  1.0585  0.0044
 8829WAT    EPW36038   3.539   1.005   7.250 -0.6880  0.1556  0.4451
 8830WAT      O36039   2.838   3.392   1.059 -0.0376  0.1829 -0.4606
 8830WAT     H136040   2.886   3.321   1.075 -0.9545 -0.7460 -1.6460
 8830WAT     H236041   2.848   3.439   1.132 -0.9671 -2.0631  1.2757
 8830WAT    EPW36042   2.847   3.388   1.072 -0.3103 -0.2861 -0.3792
 8831WAT      O36043  -0.004   0.916   5.103 -0.0679  0.2904  0.5489
 8831WAT     H136044   0.082   0.925   5.088 -0.0617 -0.0075  0.3996
 8831WAT     H236045  -0.007   0.869   5.177 -0.0828 -2.2532 -0.9736
 8831WAT    EPW36046   0.009   0.911   5.112 -0.0692 -0.1294  0.3019
 8832WAT      O36047   2.221   4.706   7.697 -0.1076 -0.8373 -0.3295
 8832WAT     H136048   2.195   4.789   7.689  0.0104 -0.5551  1.6577
 8832WAT     H236049   2.295   4.703   7.652 -1.2606 -0.4940 -2.3440
 8832WAT    EPW36050   2.228   4.718   7.689 -0.2605 -0.7449 -0.3335
 8833WAT      O36051   2.795   2.053   3.148  0.0876  0.2711  0.1502
 8833WAT     H136052   2.753   2.107   3.094  1.3359 -0.6861 -1.8893
 8833WAT     H236053   2.771   1.974   3.120  2.4677 -0.2848 -0.5040
 8833WAT    EPW36054   2.785   2.049   3.136  0.6236  0.0476 -0.2477
 8834WAT      O36055   2.703   3.134   4.520 -0.0883 -0.7977 -0.2600
 8834WAT     H136056   2.766   3.076   4.505  0.2013 -0.4808 -0.2804
 8834WAT     H236057   2.740   3.210   4.501  0.9978 -0.0871  3.7653
 8834WAT    EPW36058   2.718   3.137   4.515  0.1149 -0.6459  0.3316
 8835WAT      O36059   1.057   1.191   0.290 -0.2988  0.2087  0.1064
 8835WAT     H136060   1.057   1.275   0.265 -0.0705  0.1099 -0.2378
 8835WAT     H236061   1.001   1.154   0.235  1.4836 -0.3427 -1.4564
 8835WAT    EPW36062   1.049   1.198   0.278 -0.0018  0.1126 -0.1753
 8836WAT      O36063   5.294   3.150   1.450 -0.3828  0.1955  0.1493
 8836WAT     H136064   5.325   3.203   1.513 -0.4040  0.6604 -0.2218
 8836WAT     H236065   5.235   3.200   1.409 -0.1147  0.0212 -0.4596
 8836WAT    EPW36066   5.290   3.165   1.453 -0.3463  0.2385  0.0046
 8837WAT      O36067   3.371   4.509   2.950 -0.0505 -0.4217 -0.3482
 8837WAT     H136068   3.341   4.427   2.946 -0.4216 -0.2490 -1.7830
 8837WAT     H236069   3.445   4.506   2.905 -0.9706  0.3697 -2.0037
 8837WAT    EPW36070   3.377   4.497   2.943 -0.2412 -0.2793 -0.8047
 8838WAT      O36071   4.634   0.674   3.890 -0.0734  0.2817  0.3754
 8838WAT     H136072   4.622   0.729   3.956  1.6533  1.2979 -0.1109
 8838WAT     H236073   4.572   0.696   3.832 -0.3156  0.7243  0.8051
 8838WAT    EPW36074   4.623   0.685   3.891  0.1459  0.4972  0.3670
 8839WAT      O36075   5.958   0.253   6.589 -0.1311  0.0287  0.1423
 8839WAT     H136076   5.945   0.233   6.505 -0.2578  0.5101  0.0428
 8839WAT     H236077   5.967   0.175   6.628  0.0859 -0.1908 -0.3431
 8839WAT    EPW36078   5.958   0.238   6.583 -0.1178  0.0674  0.0559
 8840WAT      O36079   2.499   3.215   6.551 -0.1527  0.1337  0.7206
 8840WAT     H136080   2.458   3.167   6.611  0.9392 -0.8549  0.6976
 8840WAT     H236081   2.484   3.172   6.476  1.3258 -0.5470  0.7817
 8840WAT    EPW36082   2.490   3.202   6.549  0.2270 -0.1129  0.7262
 8841WAT      O36083   3.936   2.248   5.811  0.1736  0.5948  0.0205
 8841WAT     H136084   3.901   2.237   5.891 -1.1793  0.0677 -0.6128
 8841WAT     H236085   3.958   2.333   5.810 -1.5270  1.0856  0.3228
 8841WAT    EPW36086   3.934   2.259   5.823 -0.2775  0.5894 -0.0284
 8842WAT      O36087   1.280   2.737   0.666 -0.2919 -0.1489  0.6472
 8842WAT     H136088   1.210   2.707   0.622 -1.0689 -0.6064  2.1254
 8842WAT     H236089   1.337   2.670   0.661 -0.1741 -0.0017 -0.0702
 8842WAT    EPW36090   1.278   2.723   0.659 -0.3893 -0.1947  0.7596
 8843WAT      O36091   4.595   1.209   5.558 -0.1024  0.2200 -0.3689
 8843WAT     H136092   4.510   1.196   5.544 -0.0656  1.4905 -2.2420
 8843WAT     H236093   4.597   1.281   5.606 -0.0824 -0.3379  0.4828
 8843WAT    EPW36094   4.583   1.218   5.563 -0.0940  0.3253 -0.5197
 8844WAT      O36095   2.909   1.058   5.718  0.0312  0.4652  0.1464
 8844WAT     H136096   2.913   0.988   5.770 -0.1125  0.8688  0.7090
 8844WAT     H236097   2.978   1.105   5.743 -0.4828  1.0367  0.5300
 8844WAT    EPW36098   2.920   1.054   5.730 -0.0660  0.6092  0.2862
 8845WAT      O36099   2.062   2.474   1.759 -0.0438 -0.3866  0.2739
 8845WAT     H136100   2.117   2.488   1.825  1.4544  1.1462 -1.2363
 8845WAT     H236101   1.984   2.472   1.798  0.9512 -2.0078  2.3883
 8845WAT    EPW36102   2.059   2.476   1.775  0.3245 -0.3997  0.3632
 8846WAT      O36103   3.123   0.938   2.671 -0.5432 -0.3565  0.0601
 8846WAT     H136104   3.186   0.978   2.715 -0.5823 -0.6821  0.4200
 8846WAT     H236105   3.059   0.930   2.730 -0.3077 -1.5021  0.1836
 8846WAT    EPW36106   3.123   0.942   2.686 -0.5142 -0.5738  0.1315
 8847WAT      O36107   6.045   1.373   4.097  0.1045 -0.1136  0.0317
 8847WAT     H136108   6.101   1.440   4.096 -0.8199  0.6891  0.5036
 8847WAT     H236109   6.027   1.363   4.182 -2.3122  1.2642 -0.2180
 8847WAT    EPW36110   6.050   1.381   4.109 -0.3891  0.2085  0.0646
 8848WAT      O36111   5.271   3.539   1.711 -0.0028 -0.6856  0.0637
 8848WAT     H136112   5.325   3.607   1.720  0.7034 -1.0377 -1.3608
 8848WAT     H236113   5.324   3.471   1.698 -0.6670 -1.6872  2.1353
 8848WAT    EPW36114   5.287   3.539   1.711  0.0034 -0.8856  0.1593
 8849WAT      O36115   2.188   3.808   3.980  0.4174 -0.6382 -0.7717
 8849WAT     H136116   2.243   3.876   3.971 -2.0520  1.6754  0.1905
 8849WAT     H236117   2.136   3.815   3.911 -0.9318 -0.4271  0.2248
 8849WAT    EPW36118   2.188   3.819   3.969 -0.1467 -0.2652 -0.4824
 8850WAT      O36119   6.400   4.737   6.873  0.8953  0.3643  0.5622
 8850WAT     H136120   6.437   4.747   6.951 -0.3057  0.5284  1.1359
 8850WAT     H236121   6.345   4.670   6.884  1.0810  0.0528 -0.2874
 8850WAT    EPW36122   6.397   4.729   6.886  0.7453  0.3425  0.5215
 8851WAT      O36123   1.606   4.032   4.019 -0.4124  0.2316 -0.4418
 8851WAT     H136124   1.601   3.949   4.047  0.0225  0.7750  1.4171
 8851WAT     H236125   1.529   4.046   3.981 -1.1192 -0.5534  0.6432
 8851WAT    EPW36126   1.594   4.022   4.018 -0.4526  0.1959 -0.0069
 8852WAT      O36127   3.052   0.163   3.034  0.5568  0.1070  0.4709
 8852WAT     H136128   3.022   0.098   2.984  0.4728  0.0888  0.5463
 8852WAT     H236129   3.138   0.150   3.033  0.4435 -1.0666  1.9383
 8852WAT    EPW36130   3.060   0.151   3.026  0.5276 -0.0691  0.6988
 8853WAT      O36131   5.049   2.974   0.861  0.3996  0.0753 -0.2903
 8853WAT     H136132   5.131   2.958   0.837  0.6622 -2.7442  1.9702
 8853WAT     H236133   5.053   2.977   0.948 -2.0363 -1.5252 -0.0062
 8853WAT    EPW36134   5.062   2.972   0.870  0.0786 -0.5776  0.0856
 8854WAT      O36135   3.752   1.257   6.286 -0.1363 -0.1133 -0.6542
 8854WAT     H136136   3.829   1.282   6.319 -0.3080 -0.8754  0.3871
 8854WAT     H236137   3.757   1.170   6.285 -0.8993 -0.1675 -0.7720
 8854WAT    EPW36138   3.764   1.248   6.291 -0.2744 -0.2339 -0.5178
 8855WAT      O36139   4.693   7.523   3.665 -0.3614  0.0587 -0.0122
 8855WAT     H136140   4.710   7.474   3.595 -3.2625  1.2075 -1.6630
 8855WAT     H236141   4.726   7.476   3.731 -0.3352 -2.6218 -1.7945
 8855WAT    EPW36142   4.701   7.509   3.664 -0.7861 -0.1676 -0.5193
 8856WAT      O36143   1.491   0.082   3.104  0.1518 -0.1128 -0.4194
 8856WAT     H136144   1.493   0.016   3.047  0.0374  0.0650 -0.6342
 8856WAT     H236145   1.408   0.083   3.131  0.1465 -0.0426 -0.4368
 8856WAT    EPW36146   1.479   0.072   3.100  0.1341 -0.0762 -0.4537
 8857WAT      O36147   3.859   7.666   5.611  0.1268  0.0273 -0.1755
 8857WAT     H136148   3.784   7.626   5.630  0.3394 -0.0997  0.4351
 8857WAT     H236149   3.919   7.618   5.652  0.6693 -0.4690 -1.5149
 8857WAT    EPW36150   3.857   7.653   5.620  0.2383 -0.0648 -0.2832
 8858WAT      O36151   2.193   2.041   7.150 -0.1375 -0.6507  0.7611
 8858WAT     H136152   2.121   2.074   7.114  0.3848 -1.3185 -0.9588
 8858WAT     H236153   2.199   1.961   7.117  0.6845 -1.1028  1.9281
 8858WAT    EPW36154   2.183   2.034   7.140  0.0611 -0.8161  0.6795
 8859WAT      O36155   3.157   7.004   0.240 -0.0569  0.4669  0.8507
 8859WAT     H136156   3.209   7.056   0.286 -1.1477  1.2009  1.2844
 8859WAT     H236157   3.153   7.044   0.162 -2.1879  2.0099  1.6578
 8859WAT    EPW36158   3.164   7.018   0.235 -0.5328  0.8033  1.0340
 8860WAT      O36159   4.692   7.346   1.539 -0.4688  0.0364  0.4999
 8860WAT     H136160   4.716   7.292   1.475  0.8957  1.0138  0.1317
 8860WAT     H236161   4.625   7.305   1.576 -0.6231 -1.0512 -0.8834
 8860WAT    EPW36162   4.686   7.332   1.535 -0.2901  0.0202  0.2412
 8861WAT      O36163   4.987   4.586   2.779 -0.0409  0.5686 -0.0955
 8861WAT     H136164   5.015   4.530   2.719  0.5315  0.6383  0.0953
 8861WAT     H236165   5.058   4.635   2.796 -0.8558  2.2469 -1.2485
 8861WAT    EPW36166   5.002   4.585   2.773 -0.0767  0.8268 -0.2376
 8862WAT      O36167   2.845   0.631   1.695 -0.0877  0.5229  0.6389
 8862WAT     H136168   2.892   0.620   1.768 -0.4182 -0.7549  0.6914
 8862WAT     H236169   2.787   0.565   1.699 -0.5026  0.8087 -0.4736
 8862WAT    EPW36170   2.844   0.620   1.706 -0.1978  0.3764  0.4823
 8863WAT      O36171   3.540   6.099   7.861  0.0595 -0.3745  0.2913
 8863WAT     H136172   3.601   6.065   7.912  0.2918  0.4712  0.5928
 8863WAT     H236173   3.524   6.036   7.802  1.3972 -0.5060  0.0536
 8863WAT    EPW36174   3.546   6.085   7.860  0.2914 -0.2690  0.3007
 8864WAT      O36175   3.690   6.888   2.356 -0.2968  0.0699  0.5867
 8864WAT     H136176   3.764   6.857   2.323 -0.7679  0.8607 -1.3106
 8864WAT     H236177   3.638   6.818   2.359  0.0149 -0.1698  0.4482
 8864WAT    EPW36178   3.693   6.874   2.352 -0.3204  0.1513  0.2860
 8865WAT      O36179   1.546   6.499   3.761  0.1058 -0.8474  0.5603
 8865WAT     H136180   1.596   6.548   3.708 -0.3726 -0.5149  0.4075
 8865WAT     H236181   1.583   6.421   3.757  2.1682 -0.0657  2.4535
 8865WAT    EPW36182   1.559   6.495   3.752  0.3398 -0.6828  0.8174
 8866WAT      O36183   6.385   2.751   6.556 -0.2862  0.5658 -0.0103
 8866WAT     H136184   6.327   2.801   6.515 -0.4754  0.3429 -0.0168
 8866WAT     H236185   6.335   2.697   6.603 -0.1116 -0.3756 -0.8804
 8866WAT    EPW36186   6.369   2.750   6.557 -0.2884  0.3938 -0.1398
 8867WAT      O36187   1.849   3.150   6.228 -0.0256 -0.3002  0.5719
 8867WAT     H136188   1.763   3.141   6.217  0.1625 -0.6255 -0.7578
 8867WAT     H236189   1.857   3.169   6.313 -1.3154 -1.5590  1.0210
 8867WAT    EPW36190   1.838   3.151   6.239 -0.1883 -0.5342  0.4418
 8868WAT      O36191   3.869   6.988   3.936  0.0708 -0.0012 -0.3256
 8868WAT     H136192   3.793   7.022   3.959  0.4400  0.3503  0.3861
 8868WAT     H236193   3.852   6.952   3.858 -0.8602 -0.0902 -0.0948
 8868WAT    EPW36194   3.855   6.987   3.928 -0.0122  0.0376 -0.1863
 8869WAT      O36195   7.310   6.265   7.511  0.0087 -0.2661  0.1243
 8869WAT     H136196   7.341   6.311   7.578  2.5864 -1.3103 -0.2313
 8869WAT     H236197   7.224   6.274   7.518  0.2746  1.4211  2.2823
 8869WAT    EPW36198   7.302   6.273   7.522  0.4288 -0.1711  0.3906
 8870WAT      O36199   0.444   0.409   7.684 -0.0457 -0.5855  0.0631
 8870WAT     H136200   0.438   0.325   7.706  0.4899 -0.6688 -0.0885
 8870WAT     H236201   0.376   0.446   7.723  0.0977 -0.9746  0.6838
 8870WAT    EPW36202   0.433   0.402   7.693  0.0546 -0.6553  0.1324
 8871WAT      O36203   0.940   0.408   0.319  0.3154 -0.0845  0.4885
 8871WAT     H136204   0.984   0.483   0.322 -0.2378  0.3128 -0.6724
 8871WAT     H236205   0.948   0.376   0.400  0.3173  1.3655  1.0929
 8871WAT    EPW36206   0.947   0.415   0.331  0.2340  0.1884  0.4063
 8872WAT      O36207   5.720   4.499   1.794  0.2533  0.1127 -0.1279
 8872WAT     H136208   5.661   4.487   1.731  0.8735 -1.5302 -0.4370
 8872WAT     H236209   5.796   4.483   1.754  0.8744  1.4805  0.4444
 8872WAT    EPW36210   5.722   4.495   1.779  0.4367  0.0721 -0.0890
 8873WAT      O36211   1.855   3.701   5.485  0.3665 -1.2124  0.3833
 8873WAT     H136212   1.878   3.724   5.404  1.3723  2.5782  1.5316
 8873WAT     H236213   1.786   3.649   5.472 -0.3986  0.3386 -2.9097
 8873WAT    EPW36214   1.848   3.697   5.471  0.4020 -0.4233  0.0665
 8874WAT      O36215   2.101   1.052   0.198  0.4737 -0.2009 -0.2828
 8874WAT     H136216   2.023   1.072   0.162 -0.5442  1.4042  2.5313
 8874WAT     H236217   2.102   0.965   0.197 -1.9106 -0.3200  0.5430
 8874WAT    EPW36218   2.089   1.042   0.192 -0.0289  0.0186  0.2549
 8875WAT      O36219   7.296   5.055   4.426 -0.0667  0.3829 -0.0963
 8875WAT     H136220   7.239   5.004   4.469 -0.2449 -0.7972 -1.6572
 8875WAT     H236221   7.316   5.117   4.485 -0.0818 -1.2910  1.7816
 8875WAT    EPW36222   7.291   5.057   4.441 -0.0953 -0.0387 -0.0494
 8876WAT      O36223   1.726   6.017   2.881 -0.3532 -0.0793 -0.2272
 8876WAT     H136224   1.701   5.936   2.860 -0.4439 -0.1835  0.2765
 8876WAT     H236225   1.805   6.023   2.846 -0.0802 -0.6117  0.2732
 8876WAT    EPW36226   1.734   6.006   2.873 -0.3263 -0.1733 -0.0789
 8877WAT      O36227   3.660   2.173   0.629 -0.4210  0.0960 -0.4963
 8877WAT     H136228   3.718   2.215   0.578  2.1398 -0.9210  1.3790
 8877WAT     H236229   3.664   2.091   0.601 -0.1446 -0.1813  0.3355
 8877WAT    EPW36230   3.669   2.167   0.617 -0.0019 -0.0952 -0.0964
 8878WAT      O36231   5.663   1.483   0.179 -0.5818  0.3593  0.4753
 8878WAT     H136232   5.709   1.449   0.113 -0.2992 -0.7516  1.2264
 8878WAT     H236233   5.581   1.457   0.162 -0.5300  0.1880  0.4871
 8878WAT    EPW36234   5.657   1.474   0.166 -0.5324  0.1699  0.5880
 8879WAT      O36235   1.632   3.387   7.721  0.2307  0.9967  0.3804
 8879WAT     H136236   1.598   3.419   7.795 -1.5413  0.6521 -0.2302
 8879WAT     H236237   1.695   3.444   7.702  0.7783  1.0736  2.1557
 8879WAT    EPW36238   1.636   3.401   7.729  0.0498  0.9571  0.5524
 8880WAT      O36239   2.702   2.321   2.702 -0.2736 -0.0663  0.0965
 8880WAT     H136240   2.753   2.391   2.699 -0.2320 -0.0516  0.8690
 8880WAT     H236241   2.756   2.255   2.686  0.2593 -0.1608  2.0056
 8880WAT    EPW36242   2.717   2.322   2.699 -0.1887 -0.0781  0.4926
 8881WAT      O36243   2.163   3.126   0.990 -0.1051  0.1005 -0.6152
 8881WAT     H136244   2.128   3.179   1.050  0.2586  0.4243 -0.6887
 8881WAT     H236245   2.201   3.181   0.933 -0.1396 -0.2169 -0.9521
 8881WAT    EPW36246   2.163   3.142   0.990 -0.0565  0.1014 -0.6759
 8882WAT      O36247   7.479   1.035   6.036  0.3536 -0.2773 -0.7575
 8882WAT     H136248   7.537   0.976   6.062 -0.1200  0.5271  2.6004
 8882WAT     H236249   7.402   0.997   6.050  0.0639  0.6601  0.3879
 8882WAT    EPW36250   7.476   1.021   6.042  0.2408 -0.0200 -0.0923
 8883WAT      O36251   0.526   7.360   6.234 -0.2073  0.3532  0.1672
 8883WAT     H136252   0.566   7.327   6.164  0.5133 -0.1566  0.8105
 8883WAT     H236253   0.572   7.432   6.252  0.7526 -0.4698  1.1769
 8883WAT    EPW36254   0.539   7.366   6.226  0.0410  0.1563  0.4114
 8884WAT      O36255   2.030   7.307   0.871 -0.0067 -0.0626 -0.6333
 8884WAT     H136256   2.015   7.389   0.898  1.0710 -0.4743  1.3739
 8884WAT     H236257   2.101   7.315   0.822  0.5260  0.1313  0.1474
 8884WAT    EPW36258   2.038   7.321   0.868  0.2312 -0.0948 -0.2215
 8885WAT      O36259   3.591   3.128   2.061  0.5031  0.3284 -0.1229
 8885WAT     H136260   3.626   3.122   2.141  0.7297  1.5698 -0.1094
 8885WAT     H236261   3.658   3.113   2.008  0.2280 -1.0971 -0.0958
 8885WAT    EPW36262   3.606   3.125   2.065  0.4959  0.3012 -0.1169
 8886WAT      O36263   2.082   2.240   5.834  0.4274  0.0706  0.4165
 8886WAT     H136264   2.041   2.285   5.771 -0.0048  0.0753  0.7013
 8886WAT     H236265   2.044   2.267   5.907  1.0403  0.1824  0.7014
 8886WAT    EPW36266   2.070   2.251   5.835  0.4541  0.0878  0.5006
 8887WAT      O36267   0.939   5.276   4.119  0.0729 -0.2268  0.0598
 8887WAT     H136268   0.956   5.255   4.201 -0.2842  2.5805  0.9671
 8887WAT     H236269   1.010   5.320   4.093 -0.8613  1.2873 -0.1190
 8887WAT    EPW36270   0.952   5.280   4.127 -0.1178  0.4115  0.1674
 8888WAT      O36271   1.320   7.404   1.661 -0.4005 -0.2314  0.9348
 8888WAT     H136272   1.332   7.327   1.701 -0.1830 -1.9286 -2.0721
 8888WAT     H236273   1.391   7.449   1.682 -1.1033 -0.2083  3.8060
 8888WAT    EPW36274   1.332   7.399   1.670 -0.4722 -0.4787  0.9148
 8889WAT      O36275   2.148   0.641   1.399  0.3144  0.3745  0.0074
 8889WAT     H136276   2.215   0.585   1.403 -0.1195 -0.0786  1.8309
 8889WAT     H236277   2.078   0.589   1.401 -0.1217  0.9222  2.8110
 8889WAT    EPW36278   2.147   0.625   1.400  0.1859  0.3885  0.6909
 8890WAT      O36279   2.019   2.323   4.542 -0.3653 -0.1994  0.1156
 8890WAT     H136280   2.024   2.328   4.628 -1.5558 -1.9061  0.3242
 8890WAT     H236281   2.095   2.357   4.515 -0.4679  1.4518  1.7498
 8890WAT    EPW36282   2.031   2.329   4.550 -0.5563 -0.2076  0.3878
 8891WAT      O36283   5.603   0.029   7.767  0.4123 -0.1453 -0.9024
 8891WAT     H136284   5.517   0.039   7.757  0.5836  0.2774 -2.1631
 8891WAT     H236285   5.626   0.100   7.813 -0.0760 -0.9129  0.5749
 8891WAT    EPW36286   5.594   0.041   7.772  0.3655 -0.1963 -0.8704
 8892WAT      O36287   4.944   5.397   6.527 -0.0476  0.5073  0.1608
 8892WAT     H136288   4.929   5.428   6.447  0.1125  0.9630  0.3073
 8892WAT     H236289   4.964   5.468   6.574 -2.5177  0.6157  1.2035
 8892WAT    EPW36290   4.944   5.412   6.522 -0.3888  0.5907  0.3365
 8893WAT      O36291   3.200   0.868   3.105  0.3851 -0.3617 -0.0435
 8893WAT     H136292   3.214   0.836   3.024 -0.1273  0.0131 -0.2859
 8893WAT     H236293   3.254   0.937   3.109 -1.8775  1.6641 -1.3301
 8893WAT    EPW36294   3.210   0.874   3.093 -0.0248 -0.0071 -0.2694
 8894WAT      O36295   2.424   1.792   0.532  0.3005 -0.0547 -0.3780
 8894WAT     H136296   2.506   1.809   0.509  1.0381 -0.8690  1.3940
 8894WAT     H236297   2.376   1.824   0.466  2.1062 -1.1934 -2.3687
 8894WAT    EPW36298   2.429   1.799   0.519  0.6762 -0.3432 -0.4103
 8895WAT      O36299   4.633   1.461   0.883 -0.1018 -0.4039  0.0878
 8895WAT     H136300   4.610   1.417   0.812 -1.4886 -0.7162  0.7125
 8895WAT     H236301   4.710   1.426   0.905  0.2939 -0.3799 -1.1622
 8895WAT    EPW36302   4.641   1.449   0.875 -0.2482 -0.4465 -0.0046
 8896WAT      O36303   5.400   0.006   1.595 -1.0013  0.2644 -0.0207
 8896WAT     H136304   5.335  -0.023   1.545 -0.2232  0.8447 -1.4260
 8896WAT     H236305   5.388   0.093   1.595 -2.1601  0.1932  2.5147
 8896WAT    EPW36306   5.388   0.015   1.588 -1.0575  0.3396  0.1463
 8897WAT      O36307   2.055   1.576   7.000 -0.2036 -0.5327  0.2534
 8897WAT     H136308   1.987   1.596   6.949 -0.4004 -0.4931  0.5264
 8897WAT     H236309   2.124   1.585   6.947 -0.2246  1.3013  0.4732
 8897WAT    EPW36310   2.055   1.580   6.985 -0.2358 -0.2559  0.3262
 8898WAT      O36311   1.158   2.391   0.388  0.1342  0.3035  0.0539
 8898WAT     H136312   1.141   2.463   0.434 -0.0575 -0.7314  1.6747
 8898WAT     H236313   1.244   2.381   0.396  0.0426 -0.1148  0.5901
 8898WAT    EPW36314   1.168   2.400   0.396  0.0923  0.0888  0.3726
 8899WAT      O36315   1.234   0.591   5.638  0.5793  0.5185 -0.1631
 8899WAT     H136316   1.271   0.670   5.639  1.7041  0.1835  3.8604
 8899WAT     H236317   1.303   0.537   5.638  0.0963 -0.2293  2.4800
 8899WAT    EPW36318   1.250   0.595   5.638  0.6741  0.3585  0.8217
 8900WAT      O36319   4.850   2.448   5.974 -0.8876  0.4586  0.1545
 8900WAT     H136320   4.802   2.429   6.045 -1.3147 -0.5800 -0.3847
 8900WAT     H236321   4.832   2.382   5.920 -1.1554  1.6027 -1.2140
 8900WAT    EPW36322   4.840   2.436   5.977 -0.9902  0.4742 -0.1273
 8901WAT      O36323   1.441   4.422   0.303  0.1081 -0.5811  0.2177
 8901WAT     H136324   1.509   4.446   0.351  0.2770  1.9145 -1.1040
 8901WAT     H236325   1.471   4.424   0.221 -1.4203  0.1424 -0.3665
 8901WAT    EPW36326   1.455   4.425   0.298 -0.0927 -0.1056 -0.0638
 8902WAT      O36327   2.951   3.633   7.097 -0.0270 -0.5328 -0.5874
 8902WAT     H136328   2.931   3.646   7.013 -0.1711  3.3472 -0.1050
 8902WAT     H236329   3.036   3.653   7.102 -0.1545 -0.1699  0.3028
 8902WAT    EPW36330   2.961   3.638   7.085 -0.0671  0.0940 -0.3846
 8903WAT      O36331   0.687   0.727   3.967  0.2717 -0.0922 -0.6084
 8903WAT     H136332   0.627   0.711   4.029  2.1747 -1.0705  1.1166
 8903WAT     H236333   0.660   0.679   3.899  0.5942 -2.9900  1.1364
 8903WAT    EPW36334   0.674   0.718   3.966  0.6005 -0.6648 -0.0959
 8904WAT      O36335   6.217   7.143   6.063  0.0388 -0.1754 -0.0037
 8904WAT     H136336   6.202   7.229   6.053 -2.2183 -0.7477 -2.8732
 8904WAT     H236337   6.202   7.111   5.984 -1.5012 -3.5190  1.4564
 8904WAT    EPW36338   6.212   7.151   6.050 -0.5221 -0.7539 -0.2119
 8905WAT      O36339   0.477   7.174   5.526  0.3051 -0.3494 -0.0265
 8905WAT     H136340   0.475   7.227   5.457 -0.9423  2.1993  1.7952
 8905WAT     H236341   0.561   7.177   5.551  0.7549 -1.2475 -1.3333
 8905WAT    EPW36342   0.489   7.182   5.519  0.1873 -0.1056  0.0496
 8906WAT      O36343   5.846   2.447   1.509 -0.3930  0.0519  0.2132
 8906WAT     H136344   5.835   2.523   1.551 -0.0419  0.3188 -0.1652
 8906WAT     H236345   5.766   2.425   1.484 -0.3352  1.0662 -0.9793
 8906WAT    EPW36346   5.833   2.455   1.512 -0.3326  0.2412 -0.0188
 8907WAT      O36347   5.469   4.481   5.848 -0.1434 -0.3193  0.4097
 8907WAT     H136348   5.408   4.421   5.865 -1.5059  1.3020  1.6296
 8907WAT     H236349   5.438   4.522   5.777  0.8201 -1.0642 -0.4697
 8907WAT    EPW36350   5.455   4.478   5.840 -0.2023 -0.1899  0.4600
 8908WAT      O36351   4.821   0.002   6.512  0.2793 -0.0952 -0.2088
 8908WAT     H136352   4.747   0.015   6.469  0.4504 -0.5904 -0.6563
 8908WAT     H236353   4.872  -0.040   6.455  1.3448  1.2976 -0.3493
 8908WAT    EPW36354   4.818  -0.002   6.497  0.4620  0.0374 -0.2957
 8909WAT      O36355   6.679   3.460   6.457 -0.0678 -0.5558  0.2926
 8909WAT     H136356   6.644   3.459   6.377 -0.6916  1.7515  0.4572
 8909WAT     H236357   6.722   3.384   6.462  1.0484 -0.2451 -2.6857
 8909WAT    EPW36358   6.680   3.449   6.446  0.0049 -0.1691 -0.1230
 8910WAT      O36359   0.722   6.213   4.635  0.1675  0.7435  0.4489
 8910WAT     H136360   0.801   6.211   4.598  0.2068 -0.8192  0.5904
 8910WAT     H236361   0.675   6.261   4.578  0.9382  0.8119 -0.1578
 8910WAT    EPW36362   0.726   6.220   4.621  0.2872  0.5228  0.3802
 8911WAT      O36363   4.446   7.106   1.433  0.0221 -0.0180 -0.3017
 8911WAT     H136364   4.430   7.036   1.483  1.8604 -0.3960 -0.1759
 8911WAT     H236365   4.493   7.073   1.367 -0.6822  0.8084 -1.2401
 8911WAT    EPW36366   4.451   7.091   1.431  0.1896  0.0482 -0.4217
 8912WAT      O36367   1.924   1.831   0.829 -0.1471 -0.0727  0.0826
 8912WAT     H136368   1.934   1.882   0.758  0.4188  0.2921  0.4154
 8912WAT     H236369   1.864   1.873   0.876  0.4017  0.3762  0.4115
 8912WAT    EPW36370   1.917   1.845   0.825  0.0176  0.0475  0.1804
 8913WAT      O36371   3.447   5.708   4.781 -0.3806  0.0146 -0.1292
 8913WAT     H136372   3.431   5.793   4.770 -1.6490  0.0902  1.8520
 8913WAT     H236373   3.533   5.705   4.796 -0.4013  1.0086  0.2626
 8913WAT    EPW36374   3.457   5.720   4.782 -0.5710  0.1726  0.2213
 8914WAT      O36375   3.349   3.441   6.769  0.3841 -0.1627 -0.0414
 8914WAT     H136376   3.416   3.392   6.744  0.6332  0.2853 -0.2558
 8914WAT     H236377   3.334   3.415   6.851  0.0144 -1.1370 -0.4135
 8914WAT    EPW36378   3.357   3.430   6.778  0.3663 -0.2404 -0.1280
 8915WAT      O36379   0.447   7.554   7.839 -0.4598  0.2885  0.6924
 8915WAT     H136380   0.413   7.627   7.872 -1.7592 -1.1360  2.7331
 8915WAT     H236381   0.377   7.510   7.810  0.3998  0.2863 -1.6674
 8915WAT    EPW36382   0.431   7.558   7.839 -0.5248  0.0778  0.6453
 8916WAT      O36383   2.563   6.657   7.818 -0.2557  0.2345 -0.1950
 8916WAT     H136384   2.519   6.587   7.846 -1.4936  0.0696 -2.3200
 8916WAT     H236385   2.531   6.722   7.867 -0.9098 -0.3060  0.1122
 8916WAT    EPW36386   2.551   6.656   7.829 -0.5352  0.1303 -0.4635
 8917WAT      O36387   4.938   6.856   3.101  0.2257  0.1317  0.1531
 8917WAT     H136388   4.963   6.862   3.185 -0.1890 -2.2015  0.5047
 8917WAT     H236389   4.940   6.770   3.085 -2.6972  0.1968 -1.2764
 8917WAT    EPW36390   4.942   6.844   3.111 -0.2673 -0.2034 -0.0062
 8918WAT      O36391   0.914   4.480   4.013  0.3043 -0.4029 -0.7396
 8918WAT     H136392   0.864   4.538   3.971 -0.2363 -1.3605 -1.4808
 8918WAT     H236393   0.952   4.436   3.948 -0.2273 -1.6564 -0.2193
 8918WAT    EPW36394   0.912   4.482   3.997  0.1459 -0.7295 -0.7722
 8919WAT      O36395   7.608   3.917   5.895  0.4956 -0.3393  0.6074
 8919WAT     H136396   7.555   3.919   5.964  0.5871  0.7774  0.6627
 8919WAT     H236397   7.677   3.873   5.925  0.6210  0.3005  1.3019
 8919WAT    EPW36398   7.610   3.911   5.910  0.5276 -0.0798  0.7181
 8920WAT      O36399   3.230   5.176   2.827  0.0392  0.1266 -0.2516
 8920WAT     H136400   3.147   5.178   2.854  0.1498  1.9084  0.0436
 8920WAT     H236401   3.264   5.108   2.870 -0.9321  0.1985  0.6586
 8920WAT    EPW36402   3.223   5.166   2.837 -0.0879  0.4004 -0.0735
 8921WAT      O36403   2.273   0.336   0.061 -0.7723 -0.2110  0.0894
 8921WAT     H136404   2.281   0.263   0.109 -1.7977 -0.1696  0.3335
 8921WAT     H236405   2.240   0.394   0.118  0.5833  0.6314  0.0643
 8921WAT    EPW36406   2.270   0.334   0.077 -0.7235 -0.0805  0.1217
 8922WAT      O36407   5.990   3.581   7.435  0.0136 -0.0429 -0.0090
 8922WAT     H136408   5.991   3.494   7.435  1.3080 -0.0550 -1.1319
 8922WAT     H236409   5.906   3.600   7.446 -0.2535 -1.4264  0.5580
 8922WAT    EPW36410   5.978   3.571   7.436  0.1653 -0.2490 -0.0911
 8923WAT      O36411   5.323   3.084   6.612 -0.0301 -0.2958  0.0630
 8923WAT     H136412   5.295   3.028   6.551 -2.4040  0.0475  0.7310
 8923WAT     H236413   5.284   3.057   6.685  3.0639 -0.9369  1.6655
 8923WAT    EPW36414   5.313   3.072   6.614  0.0763 -0.3398  0.3984
 8924WAT      O36415   6.854   6.604   4.094 -0.3741 -0.0425 -0.2018
 8924WAT     H136416   6.851   6.516   4.090  0.0833 -0.0416 -0.6197
 8924WAT     H236417   6.849   6.629   4.011  1.3934  0.2445 -0.2598
 8924WAT    EPW36418   6.853   6.594   4.081 -0.0454  0.0001 -0.2721
 8925WAT      O36419   1.188   3.682   7.139 -0.5687 -0.2564  0.0875
 8925WAT     H136420   1.160   3.755   7.100 -0.5881 -0.5615 -0.4818
 8925WAT     H236421   1.148   3.618   7.094  0.8071 -0.6919 -0.5612
 8925WAT    EPW36422   1.178   3.683   7.127 -0.3683 -0.3658 -0.0924
 8926WAT      O36423   4.294   5.821   7.825  0.2101 -0.1860 -0.0579
 8926WAT     H136424   4.329   5.843   7.748 -0.2535 -0.4246 -0.3380
 8926WAT     H236425   4.222   5.869   7.830  0.8685  0.7526  0.7957
 8926WAT    EPW36426   4.289   5.831   7.815  0.2389 -0.0826  0.0268
 8927WAT      O36427   3.589   1.056   5.396  0.1871  0.6769  0.5374
 8927WAT     H136428   3.588   1.043   5.482  0.7388 -0.4021  0.3987
 8927WAT     H236429   3.505   1.058   5.374  0.0214 -1.6917  0.7465
 8927WAT    EPW36430   3.577   1.055   5.406  0.2441  0.1676  0.5478
 8928WAT      O36431   2.407   0.470   5.199 -0.0118  0.3800 -0.1330
 8928WAT     H136432   2.391   0.544   5.241 -1.3327  0.1835 -0.2558
 8928WAT     H236433   2.479   0.488   5.153 -0.7107  1.8389 -0.7334
 8928WAT    EPW36434   2.416   0.483   5.198 -0.3102  0.5665 -0.2398
 8929WAT      O36435   4.288   7.583   0.657  0.6843 -0.3593 -0.2869
 8929WAT     H136436   4.236   7.644   0.692  1.1495  1.0963 -1.9722
 8929WAT     H236437   4.245   7.560   0.584  2.4874  1.1817 -1.9394
 8929WAT    EPW36438   4.274   7.588   0.651  1.0194  0.0834 -0.7800
 8930WAT      O36439   2.285   4.994   4.041 -0.5611  0.0766 -0.2855
 8930WAT     H136440   2.201   4.993   4.063 -0.3125 -0.4911  0.6780
 8930WAT     H236441   2.294   4.924   3.990 -0.8221  0.5518 -0.9917
 8930WAT    EPW36442   2.274   4.984   4.037 -0.5630  0.0629 -0.2475
 8931WAT      O36443   5.834   6.085   0.410 -0.3408  0.2748  0.3904
 8931WAT     H136444   5.892   6.137   0.371 -0.9008  1.1648  0.7242
 8931WAT     H236445   5.795   6.137   0.468 -1.7691 -0.1764 -0.1179
 8931WAT    EPW36446   5.837   6.100   0.413 -0.6345  0.3397  0.3646
 8932WAT      O36447   1.461   0.518   4.973  1.0218  0.2131  0.3377
 8932WAT     H136448   1.531   0.543   4.928  0.7276 -2.3106 -1.7446
 8932WAT     H236449   1.406   0.584   4.963  1.6198  0.4952 -1.6374
 8932WAT    EPW36450   1.463   0.531   4.965  1.0667 -0.1181 -0.2616
 8933WAT      O36451   2.110   3.073   6.548  0.0162  0.2158  0.0153
 8933WAT     H136452   2.043   3.125   6.567 -0.5226 -0.2743 -0.5286
 8933WAT     H236453   2.156   3.070   6.622 -1.0764 -0.2203  0.6893
 8933WAT    EPW36454   2.107   3.080   6.562 -0.2248  0.0790  0.0345
 8934WAT      O36455   4.584   4.831   1.031 -0.1503  0.2506 -0.0324
 8934WAT     H136456   4.520   4.771   1.028  0.8558 -0.9134  0.9695
 8934WAT     H236457   4.563   4.878   1.101 -0.9241  1.0970 -0.8019
 8934WAT    EPW36458   4.571   4.829   1.041 -0.1160  0.2037  0.0020
 8935WAT      O36459   0.087   3.785   6.019  0.0866 -0.1188 -0.1429
 8935WAT     H136460   0.134   3.745   5.958 -1.3372 -0.5229 -1.0180
 8935WAT     H236461   0.045   3.720   6.058 -1.0020  0.3661 -0.4820
 8935WAT    EPW36462   0.088   3.770   6.016 -0.2845 -0.1069 -0.3223
 8936WAT      O36463   3.438   6.648   2.691  0.6169  0.4341 -0.0148
 8936WAT     H136464   3.508   6.609   2.727 -0.9119  0.1785  3.0443
 8936WAT     H236465   3.447   6.731   2.717 -0.3184  0.3435  0.6333
 8936WAT    EPW36466   3.450   6.655   2.700  0.2529  0.3829  0.5328
 8937WAT      O36467   5.563   6.720   2.876  0.1907  0.6161 -0.0098
 8937WAT     H136468   5.627   6.771   2.846 -0.5615  2.2654  1.0316
 8937WAT     H236469   5.497   6.734   2.821 -0.2243  1.3115  0.6400
 8937WAT    EPW36470   5.563   6.730   2.863  0.0183  0.9625  0.2401
 8938WAT      O36471   2.815   3.017   7.126 -0.0752  0.0953  0.3631
 8938WAT     H136472   2.795   3.044   7.207 -0.3609 -0.6522  0.5500
 8938WAT     H236473   2.775   2.941   7.119  1.2027 -0.5891  0.0712
 8938WAT    EPW36474   2.806   3.010   7.137  0.0714 -0.1163  0.3476
 8939WAT      O36475   5.704   1.169   3.337  0.3669  0.0268  0.2007
 8939WAT     H136476   5.697   1.238   3.389  0.6228  0.8813 -0.8727
 8939WAT     H236477   5.744   1.200   3.266 -0.8985 -0.8500 -0.9526
 8939WAT    EPW36478   5.708   1.184   3.334  0.2178  0.0235 -0.1282
 8940WAT      O36479   3.914   7.596   6.747 -0.1126 -0.2173 -0.8623
 8940WAT     H136480   3.886   7.608   6.829  0.7191  1.0902 -0.7414
 8940WAT     H236481   3.846   7.623   6.698 -0.2407 -0.0660 -0.6012
 8940WAT    EPW36482   3.900   7.602   6.752 -0.0087 -0.0018 -0.8058
 8941WAT      O36483   1.672   1.124   3.013  0.2973 -0.2492 -0.5210
 8941WAT     H136484   1.756   1.104   3.028 -0.1016  0.5105  4.3527
 8941WAT     H236485   1.673   1.211   3.008 -0.1276 -0.3016 -1.9008
 8941WAT    EPW36486   1.685   1.134   3.014  0.1756 -0.1447 -0.0049
 8942WAT      O36487   3.766   1.164   4.466 -0.3840  0.2665 -0.2940
 8942WAT     H136488   3.688   1.190   4.497 -1.3524 -1.1523 -1.4115
 8942WAT     H236489   3.806   1.133   4.537 -1.2408  0.1005  0.1383
 8942WAT    EPW36490   3.760   1.163   4.481 -0.6536  0.0324 -0.3952
 8943WAT      O36491   4.180   1.579   7.314 -0.3727  0.6187 -0.2891
 8943WAT     H136492   4.171   1.500   7.278  0.3464  0.1950  0.4095
 8943WAT     H236493   4.257   1.574   7.355 -0.7510  1.3610  0.5565
 8943WAT    EPW36494   4.190   1.566   7.315 -0.3223  0.6657 -0.0610
 8944WAT      O36495   1.062   5.485   3.769  0.1688  0.2292 -0.3068
 8944WAT     H136496   1.000   5.530   3.810  0.0978  0.1277 -0.3028
 8944WAT     H236497   1.091   5.429   3.829  2.1207  2.0369  0.5545
 8944WAT    EPW36498   1.057   5.483   3.784  0.4466  0.4813 -0.1790
 8945WAT      O36499   1.247   2.702   6.877  0.0495 -0.3128  0.1927
 8945WAT     H136500   1.290   2.635   6.840  0.6202  0.8999 -1.4576
 8945WAT     H236501   1.304   2.734   6.934  0.2021 -0.5392  0.1689
 8945WAT    EPW36502   1.261   2.697   6.880  0.1563 -0.1671 -0.0546
 8946WAT      O36503   3.630   3.449   0.018  0.6009  0.3202  0.2878
 8946WAT     H136504   3.568   3.420  -0.035  0.2534  0.9073  0.3606
 8946WAT     H236505   3.668   3.376   0.048  0.3113 -0.0277 -0.1809
 8946WAT    EPW36506   3.626   3.434   0.015  0.5068  0.3555  0.2293
 8947WAT      O36507   5.983   7.223   0.586  0.0683  1.0037  0.5252
 8947WAT     H136508   6.036   7.288   0.561  1.0338  0.1534  0.2981
 8947WAT     H236509   5.978   7.172   0.516 -1.3132  1.2168  0.4494
 8947WAT    EPW36510   5.990   7.226   0.572  0.0069  0.9096  0.4804
 8948WAT      O36511   2.028   3.772   1.006  0.4400  0.0809  0.0341
 8948WAT     H136512   1.979   3.783   0.934  0.8434  1.8181 -0.0126
 8948WAT     H236513   1.987   3.708   1.049 -2.9055  2.4955  0.8197
 8948WAT    EPW36514   2.014   3.764   1.002  0.0054  0.6942  0.1432
 8949WAT      O36515   4.012   1.317   7.485  0.0251  0.8208  0.0890
 8949WAT     H136516   4.080   1.365   7.509 -0.0105 -0.1694  2.4419
 8949WAT     H236517   4.008   1.254   7.545 -1.1736 -0.9392 -1.6828
 8949WAT    EPW36518   4.021   1.315   7.497 -0.1572  0.4145  0.1748
 8950WAT      O36519   1.828   1.211   7.086 -0.6307  0.3239 -0.2078
 8950WAT     H136520   1.799   1.264   7.023  0.3111  1.4113  0.2392
 8950WAT     H236521   1.760   1.205   7.140 -0.7684  1.0879 -0.2767
 8950WAT    EPW36522   1.813   1.218   7.084 -0.5120  0.5974 -0.1520
 8951WAT      O36523   1.049   5.179   7.215  0.3624 -0.4730  0.1102
 8951WAT     H136524   0.964   5.160   7.222  0.1606  0.2938 -0.1243
 8951WAT     H236525   1.083   5.109   7.176 -0.0256 -1.0992  0.8840
 8951WAT    EPW36526   1.041   5.166   7.210  0.2753 -0.4522  0.1899
 8952WAT      O36527   3.400   3.335   2.981 -0.6300  0.1428  0.1380
 8952WAT     H136528   3.477   3.296   2.967 -0.6430 -0.6350  2.0202
 8952WAT     H236529   3.403   3.356   3.065 -2.4112  0.2673  0.1923
 8952WAT    EPW36530   3.412   3.332   2.991 -0.8950  0.0463  0.4240
 8953WAT      O36531   6.208   0.361   3.410  0.2727  0.3043  0.4975
 8953WAT     H136532   6.233   0.440   3.384  0.0542  0.6054  1.1804
 8953WAT     H236533   6.209   0.367   3.497 -1.5326  0.1341  0.5729
 8953WAT    EPW36534   6.212   0.373   3.419 -0.0263  0.3236  0.6095
 8954WAT      O36535   2.997   5.482   1.095  0.1884  0.2527 -0.0136
 8954WAT     H136536   2.994   5.550   1.149  0.8627 -0.0257  0.3732
 8954WAT     H236537   2.928   5.434   1.119  0.6426 -0.0088  0.7821
 8954WAT    EPW36538   2.986   5.485   1.106  0.3551  0.1729  0.1611
 8955WAT      O36539   1.607   4.235   7.249 -0.2194  0.6886 -1.0183
 8955WAT     H136540   1.601   4.310   7.294  0.8630  0.1345  0.0967
 8955WAT     H236541   1.548   4.184   7.287  1.2199 -0.0319  0.3520
 8955WAT    EPW36542   1.598   4.239   7.261  0.1531  0.5003 -0.6511
 8956WAT      O36543   2.741   3.208   2.676 -0.4969  0.4856 -0.2370
 8956WAT     H136544   2.724   3.291   2.655 -0.5462  0.7430  0.7755
 8956WAT     H236545   2.821   3.194   2.644 -1.2876  0.2481 -2.2598
 8956WAT    EPW36546   2.750   3.218   2.668 -0.6210  0.4886 -0.3863
 8957WAT      O36547   7.349   6.876   6.515  0.2879  0.2530 -0.3585
 8957WAT     H136548   7.327   6.797   6.484  3.6542 -0.7497 -0.5561
 8957WAT     H236549   7.390   6.858   6.589 -0.3231  2.0271  0.4669
 8957WAT    EPW36550   7.352   6.861   6.521  0.6949  0.3670 -0.2658
 8958WAT      O36551   4.625   5.900   5.007  0.0241 -0.0876  0.0488
 8958WAT     H136552   4.663   5.827   4.978 -0.2298  0.3458 -1.5076
 8958WAT     H236553   4.540   5.879   5.011 -0.2696  0.5051 -1.9073
 8958WAT    EPW36554   4.618   5.886   5.003 -0.0568  0.0640 -0.4701
 8959WAT      O36555   1.462   2.893   7.512 -0.3424  0.6121 -0.4000
 8959WAT     H136556   1.436   2.815   7.482  0.0791  0.2430  0.1896
 8959WAT     H236557   1.543   2.901   7.481 -0.6130  1.1289 -1.0233
 8959WAT    EPW36558   1.470   2.883   7.503 -0.3201  0.6339 -0.4050
 8960WAT      O36559   2.358   2.429   0.985  0.0218 -0.1201 -0.0247
 8960WAT     H136560   2.409   2.440   0.915  1.4268 -2.0613  0.6056
 8960WAT     H236561   2.284   2.398   0.952 -0.2113  1.1842 -0.8139
 8960WAT    EPW36562   2.355   2.426   0.970  0.1949 -0.2142 -0.0482
 8961WAT      O36563   2.760   2.640   1.830 -0.5086 -0.1060 -0.4445
 8961WAT     H136564   2.828   2.618   1.780  1.4268 -1.7307  2.5826
 8961WAT     H236565   2.781   2.719   1.860  0.1794 -0.6191  0.5126
 8961WAT    EPW36566   2.773   2.648   1.827 -0.1210 -0.4218  0.1440
 8962WAT      O36567   4.863   2.588   1.665 -0.2050 -0.3370 -0.0200
 8962WAT     H136568   4.869   2.609   1.580  0.4484 -1.4388 -0.2642
 8962WAT     H236569   4.857   2.501   1.664  0.6859 -0.4406  1.0904
 8962WAT    EPW36570   4.863   2.579   1.652  0.0231 -0.5151  0.1079
 8963WAT      O36571   3.386   6.003   1.133 -0.7962 -0.8698  0.3599
 8963WAT     H136572   3.454   6.057   1.130 -1.9191  0.5585  0.0150
 8963WAT     H236573   3.415   5.931   1.092 -0.0624  0.3688 -1.4078
 8963WAT    EPW36574   3.400   6.000   1.127 -0.8537 -0.4759  0.0478
 8964WAT      O36575   0.174   3.053   7.537 -0.7643 -0.2791 -0.0948
 8964WAT     H136576   0.219   3.091   7.601 -1.2372 -1.1300  0.7599
 8964WAT     H236577   0.167   2.970   7.563 -3.6399 -0.0028  0.3110
 8964WAT    EPW36578   0.180   3.047   7.550 -1.2590 -0.3640  0.0914
 8965WAT      O36579   0.825   1.892   6.529 -0.2509 -0.7534 -0.8490
 8965WAT     H136580   0.823   1.878   6.443 -3.6750 -0.3390 -0.9493
 8965WAT     H236581   0.807   1.977   6.536 -0.1161 -0.8059  0.3168
 8965WAT    EPW36582   0.822   1.903   6.517 -0.7368 -0.6999 -0.6916
 8966WAT      O36583   3.930   5.123   0.237  0.3450  0.3451 -0.1830
 8966WAT     H136584   4.014   5.100   0.232  0.3614  0.4673 -0.5556
 8966WAT     H236585   3.891   5.052   0.270  0.8482  0.9395  1.7765
 8966WAT    EPW36586   3.937   5.109   0.241  0.4218  0.4510  0.0514
 8967WAT      O36587   3.729   3.802   0.321  0.0702 -0.4933 -0.4883
 8967WAT     H136588   3.696   3.770   0.395 -0.9754 -2.0210 -1.5577
 8967WAT     H236589   3.804   3.758   0.311  1.1198  0.9951  0.5322
 8967WAT    EPW36590   3.735   3.791   0.330  0.0708 -0.4991 -0.4955
 8968WAT      O36591   4.727   4.405   0.617 -0.0194  0.6984  0.0932
 8968WAT     H136592   4.724   4.400   0.704  0.2730 -1.7120  0.0440
 8968WAT     H236593   4.808   4.432   0.601  0.1643  0.4521  0.5784
 8968WAT    EPW36594   4.739   4.408   0.627  0.0509  0.3059  0.1576
 8969WAT      O36595   3.893   1.307   2.484 -0.0467 -0.3692  0.9944
 8969WAT     H136596   3.883   1.321   2.569  2.0214  0.3699  1.1849
 8969WAT     H236597   3.951   1.368   2.460 -1.1254 -0.0859 -1.1112
 8969WAT    EPW36598   3.900   1.318   2.493  0.0995 -0.2182  0.7115
 8970WAT      O36599   6.679   6.272   7.539  0.1022 -0.1840 -0.2980
 8970WAT     H136600   6.640   6.325   7.482 -0.0431  0.2599  0.1985
 8970WAT     H236601   6.656   6.306   7.617 -1.9544 -2.3404  0.1336
 8970WAT    EPW36602   6.670   6.285   7.542 -0.2231 -0.4369 -0.1609
 8971WAT      O36603   0.217   3.363   7.060  0.0997 -0.0378 -0.6949
 8971WAT     H136604   0.169   3.325   7.122  0.0154  1.6202  0.3083
 8971WAT     H236605   0.298   3.362   7.093  0.3947 -0.7630 -1.3860
 8971WAT    EPW36606   0.222   3.357   7.074  0.1309  0.1000 -0.6488
 8972WAT      O36607   3.642   7.135   0.911 -0.0504 -0.6430 -0.0154
 8972WAT     H136608   3.639   7.099   0.990 -0.9589  0.1194  0.3174
 8972WAT     H236609   3.599   7.078   0.861 -1.4063 -0.1034  0.4936
 8972WAT    EPW36610   3.635   7.121   0.915 -0.3849 -0.4507  0.1089
 8973WAT      O36611   6.497   5.715   6.458 -0.4102  0.1252  0.5798
 8973WAT     H136612   6.475   5.730   6.541  0.9348  1.0625  0.7954
 8973WAT     H236613   6.449   5.772   6.413  0.9992  1.7154  0.9907
 8973WAT    EPW36614   6.487   5.725   6.463 -0.0033  0.4986  0.6723
 8974WAT      O36615   6.259   2.276   6.329  0.1242 -0.1360  0.5979
 8974WAT     H136616   6.194   2.238   6.373 -1.6501 -0.6550 -2.2038
 8974WAT     H236617   6.323   2.218   6.333  0.0582 -0.1377  2.4452
 8974WAT    EPW36618   6.259   2.262   6.336 -0.1477 -0.2129  0.4569
 8975WAT      O36619   3.151   3.245   7.735 -0.2276  0.0429 -0.0894
 8975WAT     H136620   3.116   3.242   7.656 -0.0844 -0.1574 -0.1459
 8975WAT     H236621   3.176   3.163   7.750  1.0925  0.3632 -0.4459
 8975WAT    EPW36622   3.149   3.233   7.726 -0.0114  0.0607 -0.1504
 8976WAT      O36623   3.345   6.356   1.694  0.2975  0.6123  0.1585
 8976WAT     H136624   3.294   6.359   1.764 -0.9453 -0.9932 -0.6383
 8976WAT     H236625   3.299   6.397   1.632  0.5052  0.2326 -0.2574
 8976WAT    EPW36626   3.331   6.363   1.695  0.1446  0.3191 -0.0207
 8977WAT      O36627   1.861   3.549   0.322 -0.7148  0.0649  0.1471
 8977WAT     H136628   1.777   3.528   0.315 -0.2648 -1.8297 -0.3567
 8977WAT     H236629   1.900   3.471   0.329  0.8766  0.9395  1.8443
 8977WAT    EPW36630   1.854   3.534   0.322 -0.4132 -0.0858  0.3234
 8978WAT      O36631   1.531   4.656   7.654  0.1325 -0.3159  0.2126
 8978WAT     H136632   1.554   4.727   7.700 -0.7063  0.3232 -0.3376
 8978WAT     H236633   1.533   4.683   7.571  0.2513 -1.0719 -0.0400
 8978WAT    EPW36634   1.535   4.670   7.649  0.0261 -0.3331  0.0940
 8979WAT      O36635   3.848   7.630   7.036  0.3068  0.1449  0.0458
 8979WAT     H136636   3.924   7.643   7.076  0.7116 -1.5496 -0.0807
 8979WAT     H236637   3.829   7.547   7.055 -1.4471  0.4818 -0.0591
 8979WAT    EPW36638   3.856   7.620   7.045  0.1075 -0.0556  0.0116
 8980WAT      O36639   1.313   6.755   0.445 -0.1544  0.1597  0.0698
 8980WAT     H136640   1.349   6.737   0.367  0.1657 -0.7096  0.4079
 8980WAT     H236641   1.228   6.742   0.431 -0.3978  2.2036 -0.7282
 8980WAT    EPW36642   1.306   6.751   0.431 -0.1431  0.3332  0.0019
 8981WAT      O36643   6.814   0.084   7.355  0.2299 -0.4755  0.3497
 8981WAT     H136644   6.799   0.004   7.324  0.4097  0.1861 -1.5826
 8981WAT     H236645   6.890   0.107   7.318  0.4765  0.3696  1.3368
 8981WAT    EPW36646   6.823   0.076   7.345  0.2929 -0.2529  0.2101
 8982WAT      O36647   4.348   7.679   5.620 -0.6968  0.5269  0.0492
 8982WAT     H136648   4.323   7.760   5.600  0.3719  0.9512  0.3552
 8982WAT     H236649   4.335   7.634   5.546 -0.0301  1.2907 -0.5560
 8982WAT    EPW36650   4.343   7.684   5.606 -0.4404  0.7025  0.0050
 8983WAT      O36651   2.552   1.918   7.160  0.7688  0.3228  0.5061
 8983WAT     H136652   2.505   1.859   7.204 -0.6763  1.7773  0.9826
 8983WAT     H236653   2.567   1.980   7.219  2.7116  0.2431  0.1487
 8983WAT    EPW36654   2.547   1.918   7.175  0.8423  0.5259  0.5237
 8984WAT      O36655   3.183   2.995   1.093 -0.2236  0.1075 -0.2854
 8984WAT     H136656   3.195   2.952   1.167 -0.9661  0.2890 -0.0480
 8984WAT     H236657   3.162   2.933   1.036 -3.6587  0.2768  0.5804
 8984WAT    EPW36658   3.182   2.980   1.095 -0.8408  0.1593 -0.1224
 8985WAT      O36659   5.203   4.120   1.389  0.3875 -0.2045 -0.4179
 8985WAT     H136660   5.248   4.194   1.393 -0.9771  0.7454 -1.5523
 8985WAT     H236661   5.239   4.070   1.451  1.6891  1.1953  0.0028
 8985WAT    EPW36662   5.215   4.123   1.398  0.3782  0.1426 -0.5233
 8986WAT      O36663   7.437   6.836   6.255 -0.3971  0.2711 -0.0814
 8986WAT     H136664   7.489   6.766   6.252  1.4803  1.6236 -1.9091
 8986WAT     H236665   7.426   6.850   6.341  3.1656  0.4832  0.4967
 8986WAT    EPW36666   7.443   6.828   6.267  0.4065  0.5023 -0.2660
 8987WAT      O36667   6.810   5.878   6.736 -0.6976 -0.4047  0.0509
 8987WAT     H136668   6.891   5.896   6.710 -0.0204 -1.0001  1.6068
 8987WAT     H236669   6.763   5.884   6.663  0.2232  2.7363 -0.4690
 8987WAT    EPW36670   6.815   5.882   6.721 -0.4616 -0.0287  0.2039
 8988WAT      O36671   1.643   5.174   7.751 -0.6992 -0.1135  0.2683
 8988WAT     H136672   1.682   5.210   7.682  1.2303 -0.4155  1.1344
 8988WAT     H236673   1.672   5.091   7.750 -0.9820 -0.2335  1.2015
 8988WAT    EPW36674   1.653   5.167   7.741 -0.4559 -0.1759  0.5341
 8989WAT      O36675   5.631   0.029   7.476  0.2466 -0.2962  0.1275
 8989WAT     H136676   5.633  -0.059   7.473 -2.4115 -0.5240  1.8361
 8989WAT     H236677   5.610   0.046   7.559 -0.3480  1.9248 -0.4183
 8989WAT    EPW36678   5.629   0.018   7.488 -0.2339 -0.0017  0.2993
 8990WAT      O36679   6.564   0.550   3.429 -1.0559 -0.7734 -0.3276
 8990WAT     H136680   6.546   0.510   3.505 -0.8867 -2.0945 -0.9683
 8990WAT     H236681   6.487   0.580   3.403 -0.7460  2.1632  1.6745
 8990WAT    EPW36682   6.550   0.548   3.437 -0.9852 -0.5348 -0.1265
 8991WAT      O36683   2.056   7.018   7.002  0.0665 -0.5607 -0.2891
 8991WAT     H136684   1.977   6.984   7.015  0.0098 -1.0637 -1.7467
 8991WAT     H236685   2.043   7.104   7.007 -0.5286 -0.6469 -0.2526
 8991WAT    EPW36686   2.043   7.025   7.004 -0.0298 -0.6478 -0.4990
 8992WAT      O36687   2.651   2.424   4.620  0.4132  0.3031  0.3950
 8992WAT     H136688   2.691   2.483   4.669  0.8508 -0.6695  1.2450
 8992WAT     H236689   2.689   2.432   4.542 -0.5911  2.1719  0.0175
 8992WAT    EPW36690   2.662   2.434   4.615  0.3295  0.4355  0.4648
 8993WAT      O36691   2.940   0.927   7.788 -0.2705 -0.1996  0.4466
 8993WAT     H136692   2.887   0.980   7.742 -1.7783 -1.4333  0.6985
 8993WAT     H236693   2.889   0.859   7.807  1.3476 -1.3083  0.9615
 8993WAT    EPW36694   2.925   0.925   7.784 -0.2542 -0.5456  0.5599
 8994WAT      O36695   4.100   4.608   5.720 -0.2609  0.2130 -0.6321
 8994WAT     H136696   4.155   4.540   5.715 -1.5504 -1.1614  1.7206
 8994WAT     H236697   4.056   4.605   5.645  0.3394 -1.0072 -0.9710
 8994WAT    EPW36698   4.102   4.597   5.708 -0.3627 -0.1703 -0.3346
 8995WAT      O36699   2.193   2.339   5.410  1.0993  0.2024 -0.2573
 8995WAT     H136700   2.237   2.396   5.459  1.8072 -1.5319  1.2556
 8995WAT     H236701   2.256   2.287   5.377  0.4279 -0.2537 -0.8655
 8995WAT    EPW36702   2.209   2.339   5.412  1.1047 -0.1212 -0.1236
 8996WAT      O36703   2.121   1.447   4.534 -0.1575 -0.1913 -0.2292
 8996WAT     H136704   2.160   1.488   4.601 -0.5242 -0.5429  0.2132
 8996WAT     H236705   2.065   1.394   4.574 -0.5538 -0.2292 -0.8355
 8996WAT    EPW36706   2.119   1.445   4.550 -0.2702 -0.2488 -0.2534
 8997WAT      O36707   6.208   0.054   6.314 -0.1849  0.4889  0.8963
 8997WAT     H136708   6.123   0.034   6.318 -0.0335 -1.4607 -1.9515
 8997WAT     H236709   6.238   0.030   6.392 -1.9116 -1.0333  1.1820
 8997WAT    EPW36710   6.200   0.047   6.326 -0.4176 -0.0239  0.5178
 8998WAT      O36711   3.258   0.396   2.110  0.0434  0.2591  0.3836
 8998WAT     H136712   3.336   0.431   2.131  0.4194 -0.4805  0.2586
 8998WAT     H236713   3.259   0.319   2.150  0.7920 -1.2140 -2.2710
 8998WAT    EPW36714   3.270   0.390   2.119  0.2095 -0.0678 -0.0270
 8999WAT      O36715   4.478   7.613   1.239  1.1188 -0.1870  0.0736
 8999WAT     H136716   4.500   7.550   1.183  0.4451 -1.0843  0.7752
 8999WAT     H236717   4.401   7.641   1.209  0.0217 -1.7093  1.3433
 8999WAT    EPW36718   4.470   7.608   1.226  0.8572 -0.5444  0.3648
 9000WAT      O36719   2.781   6.654   0.863  0.7032 -0.5697  0.1429
 9000WAT     H136720   2.713   6.645   0.809 -0.1861  0.4446  1.0502
 9000WAT     H236721   2.813   6.573   0.869 -1.3538 -1.3997  0.8535
 9000WAT    EPW36722   2.776   6.640   0.856  0.2680 -0.5425  0.3819
 9001WAT      O36723   6.316   6.810   4.480 -0.1643  0.0744  0.3064
 9001WAT     H136724   6.362   6.872   4.521  1.3424 -0.4476 -0.5155
 9001WAT     H236725   6.329   6.829   4.395  1.3053 -1.9872 -0.0051
 9001WAT    EPW36726   6.325   6.822   4.473  0.2754 -0.3072  0.1390
 9002WAT      O36727   5.893   2.271   4.945 -0.3911 -0.2769  0.1658
 9002WAT     H136728   5.843   2.331   4.984 -0.9545  0.0050 -0.9595
 9002WAT     H236729   5.974   2.294   4.968 -0.7595 -1.2287  2.7010
 9002WAT    EPW36730   5.898   2.283   4.954 -0.5287 -0.3759  0.3741
 9003WAT      O36731   3.338   1.701   6.207  0.3513  0.4357 -0.1605
 9003WAT     H136732   3.404   1.701   6.263 -1.2193  0.5045  1.7906
 9003WAT     H236733   3.318   1.786   6.198 -1.5598  0.2981  1.9675
 9003WAT    EPW36734   3.345   1.714   6.214 -0.1630  0.4255  0.4421
 9004WAT      O36735   1.260   3.101   5.928  0.0955 -0.2971 -0.1574
 9004WAT     H136736   1.233   3.063   5.855 -0.5650 -0.0709 -0.0315
 9004WAT     H236737   1.318   3.160   5.900  0.0620 -0.4125 -0.4735
 9004WAT    EPW36738   1.265   3.104   5.913 -0.0070 -0.2808 -0.1855
 9005WAT      O36739   4.744   0.804   3.348  0.5384 -0.1404 -0.0401
 9005WAT     H136740   4.757   0.765   3.271 -0.7615 -0.1422 -0.2750
 9005WAT     H236741   4.746   0.889   3.328  1.0798 -0.1180  0.0862
 9005WAT    EPW36742   4.747   0.811   3.334  0.4264 -0.1373 -0.0562
 9006WAT      O36743   5.366   5.199   1.914 -0.1347  1.2075 -0.2380
 9006WAT     H136744   5.433   5.145   1.898 -0.9306 -0.3690  1.3442
 9006WAT     H236745   5.397   5.251   1.976  0.0776  1.4626 -0.5511
 9006WAT    EPW36746   5.381   5.199   1.921 -0.2209  1.0123 -0.0505
 9007WAT      O36747   1.060   6.227   3.658 -0.2658  0.3869  0.1405
 9007WAT     H136748   1.092   6.277   3.594  0.3053  1.0261  0.8869
 9007WAT     H236749   1.116   6.242   3.724 -0.4116 -0.8163  0.5614
 9007WAT    EPW36750   1.073   6.237   3.659 -0.2030  0.3036  0.3129
 9008WAT      O36751   7.628   0.433   5.906 -0.2357 -0.2261  0.1371
 9008WAT     H136752   7.658   0.423   5.988  0.2217  0.9707  0.1302
 9008WAT     H236753   7.543   0.452   5.918 -0.6368 -1.9166  0.2271
 9008WAT    EPW36754   7.620   0.434   5.920 -0.2274 -0.2990  0.1494
 9009WAT      O36755   1.902   7.159   6.711  0.2744  0.0168 -0.2356
 9009WAT     H136756   1.867   7.084   6.683 -0.1810  0.5330 -1.1014
 9009WAT     H236757   1.944   7.136   6.784 -1.1000 -0.8119  0.3367
 9009WAT    EPW36758   1.903   7.144   6.718  0.0041 -0.0294 -0.2790
 9010WAT      O36759   5.585   0.570   5.294  0.0151 -0.0643  0.2836
 9010WAT     H136760   5.665   0.538   5.306  0.6861  1.7022  0.9736
 9010WAT     H236761   5.573   0.564   5.208  0.6141 -0.9710  0.2538
 9010WAT    EPW36762   5.595   0.564   5.283  0.2027  0.0627  0.3811
 9011WAT      O36763   7.063   7.021   7.492 -0.2270 -0.0315  0.2897
 9011WAT     H136764   7.008   7.008   7.559  1.4964  0.5274  1.8893
 9011WAT     H236765   7.133   7.057   7.530  0.2092  1.8355 -2.0647
 9011WAT    EPW36766   7.065   7.024   7.508  0.0920  0.3268  0.1782
 9012WAT      O36767   3.867   1.075   4.720 -0.3354 -0.2998 -0.5602
 9012WAT     H136768   3.792   1.075   4.764 -0.1828 -1.4766 -0.2595
 9012WAT     H236769   3.888   0.990   4.715  0.6678 -0.0367 -1.1655
 9012WAT    EPW36770   3.859   1.063   4.726 -0.1646 -0.4348 -0.6052
 9013WAT      O36771   1.513   6.237   5.794  0.0733  0.2351  0.5496
 9013WAT     H136772   1.502   6.321   5.772  0.4869  0.0482 -0.4037
 9013WAT     H236773   1.565   6.206   5.732 -1.8351 -1.2841 -0.4096
 9013WAT    EPW36774   1.519   6.245   5.781 -0.1475 -0.0169  0.2671
 9014WAT      O36775   3.693   2.328   6.831  0.5516  0.2589  0.5870
 9014WAT     H136776   3.755   2.334   6.770  0.8119 -0.7107  0.7366
 9014WAT     H236777   3.642   2.397   6.816  1.4596  0.8664  0.2292
 9014WAT    EPW36778   3.694   2.339   6.820  0.7242  0.2054  0.5563
 9015WAT      O36779   3.025   1.462   2.170  0.2183  0.4006  0.3181
 9015WAT     H136780   2.964   1.519   2.197  0.5539  1.6558 -1.3411
 9015WAT     H236781   3.060   1.502   2.100  1.1024 -1.4731 -0.3838
 9015WAT    EPW36782   3.021   1.477   2.164  0.3985  0.3093 -0.0307
 9016WAT      O36783   1.956   4.396   7.231 -0.0001 -0.3528  0.0008
 9016WAT     H136784   1.939   4.312   7.217  1.6387 -0.6875 -0.1902
 9016WAT     H236785   1.908   4.415   7.302 -2.3514 -0.7219 -1.3851
 9016WAT    EPW36786   1.946   4.386   7.240 -0.1053 -0.4568 -0.2321
 9017WAT      O36787   3.969   3.328   0.758 -0.1428 -0.2098 -0.2089
 9017WAT     H136788   4.004   3.254   0.790 -0.9796 -1.2234 -1.5526
 9017WAT     H236789   3.901   3.342   0.810 -0.0599 -0.4447 -0.0342
 9017WAT    EPW36790   3.964   3.319   0.771 -0.2541 -0.3942 -0.3816
 9018WAT      O36791   1.752   4.927   6.930  0.2820  0.2307  0.1546
 9018WAT     H136792   1.836   4.941   6.950 -0.2096  0.2731  2.4630
 9018WAT     H236793   1.708   4.974   6.990 -1.3974 -0.2728 -0.6102
 9018WAT    EPW36794   1.758   4.936   6.942 -0.0387  0.1626  0.3826
 9019WAT      O36795   3.720   1.046   0.227  0.5349 -0.4941  0.4291
 9019WAT     H136796   3.633   1.044   0.232  0.5356 -0.3420  0.5093
 9019WAT     H236797   3.746   1.030   0.308  0.5445  1.7797  0.9537
 9019WAT    EPW36798   3.711   1.043   0.239  0.5364 -0.1357  0.5185
 9020WAT      O36799   1.220   5.982   3.697  0.3343  0.0659 -0.1048
 9020WAT     H136800   1.285   6.020   3.652 -0.5885  1.6850 -0.1250
 9020WAT     H236801   1.151   6.031   3.679 -0.4539 -0.3117  1.6747
 9020WAT    EPW36802   1.220   5.995   3.688  0.0815  0.2493  0.1551
 9021WAT      O36803   6.175   0.402   0.018 -0.4546  0.1600  0.2375
 9021WAT     H136804   6.216   0.425   0.091 -1.6332 -0.3378  1.0786
 9021WAT     H236805   6.122   0.469   0.002 -0.6068  0.0192  0.1516
 9021WAT    EPW36806   6.173   0.415   0.026 -0.6512  0.0656  0.3490
 9022WAT      O36807   7.620   6.119   3.976  0.4998  0.1868 -0.8168
 9022WAT     H136808   7.562   6.176   3.944  0.4731  0.8968  0.4571
 9022WAT     H236809   7.604   6.119   4.061  0.7072 -1.5212 -0.7472
 9022WAT    EPW36810   7.609   6.127   3.984  0.5265  0.0394 -0.6183
 9023WAT      O36811   7.681   6.716   6.325 -0.1963 -0.5736 -0.3596
 9023WAT     H136812   7.748   6.741   6.275  0.0418 -0.8474 -0.1834
 9023WAT     H236813   7.702   6.633   6.346 -1.4375 -1.3026 -1.7821
 9023WAT    EPW36814   7.694   6.707   6.320 -0.3445 -0.7217 -0.5437
 9024WAT      O36815   6.295   5.579   0.850 -0.6573  0.6386 -0.3064
 9024WAT     H136816   6.331   5.592   0.928 -0.0337  0.7085 -0.5964
 9024WAT     H236817   6.278   5.660   0.821  1.3182  0.8045 -1.2332
 9024WAT    EPW36818   6.298   5.593   0.857 -0.2733  0.6734 -0.4861
 9025WAT      O36819   7.384   4.832   0.161 -0.1400  0.2277 -0.0816
 9025WAT     H136820   7.339   4.907   0.157  0.4206  0.5335 -1.2562
 9025WAT     H236821   7.409   4.819   0.078  1.2476 -0.3350  0.3890
 9025WAT    EPW36822   7.381   4.841   0.148  0.1478  0.1898 -0.1856
 9026WAT      O36823   2.831   3.069   0.543  0.5835 -0.4323  0.2541
 9026WAT     H136824   2.762   3.096   0.589  1.9928  0.4815  1.9373
 9026WAT     H236825   2.859   3.141   0.503  1.0786 -0.6018  0.2836
 9026WAT    EPW36826   2.825   3.083   0.544  0.8648 -0.3224  0.5071
 9027WAT      O36827   1.328   0.388   5.358 -0.1369  0.2980 -0.6271
 9027WAT     H136828   1.399   0.376   5.308  0.3524  1.7744 -0.3430
 9027WAT     H236829   1.286   0.312   5.352  2.0585 -1.0716  0.1780
 9027WAT    EPW36830   1.332   0.375   5.350  0.2597  0.3138 -0.4662
 9028WAT      O36831   5.566   7.262   0.725 -0.4481  0.0011 -0.6095
 9028WAT     H136832   5.635   7.211   0.739 -0.6127 -0.2076 -0.5518
 9028WAT     H236833   5.545   7.291   0.804 -0.5167 -0.0534 -0.6077
 9028WAT    EPW36834   5.573   7.259   0.738 -0.4825 -0.0378 -0.6007
 9029WAT      O36835   3.628   7.001   4.662  0.0731  0.1170  0.2426
 9029WAT     H136836   3.659   7.059   4.720  0.4916  0.3948 -0.2494
 9029WAT     H236837   3.559   6.966   4.702 -0.5200  1.3530  0.3269
 9029WAT    EPW36838   3.623   7.004   4.677  0.0473  0.3406  0.1824
 9030WAT      O36839   5.143   1.748   7.251 -0.8415  0.3648 -0.3546
 9030WAT     H136840   5.146   1.773   7.168 -0.1293  2.8077  0.3277
 9030WAT     H236841   5.060   1.759   7.273 -1.3297 -1.5351 -1.0101
 9030WAT    EPW36842   5.131   1.753   7.242 -0.8084  0.4450 -0.3506
 9031WAT      O36843   2.068   1.391   4.950  0.0234 -0.6875 -0.2730
 9031WAT     H136844   2.134   1.442   4.976 -1.0161 -0.2123  1.5783
 9031WAT     H236845   2.015   1.446   4.907 -0.3501 -0.5369  0.3778
 9031WAT    EPW36846   2.070   1.407   4.947 -0.1854 -0.5951  0.0966
 9032WAT      O36847   4.392   6.587   0.327 -0.5534  0.2987 -0.1605
 9032WAT     H136848   4.401   6.644   0.262  0.0374  0.3244 -0.0607
 9032WAT     H236849   4.461   6.603   0.378 -1.0836  0.3738  0.5501
 9032WAT    EPW36850   4.404   6.598   0.325 -0.5444  0.3136 -0.0408
 9033WAT      O36851   5.108   3.508   6.802  0.0533 -0.4900  0.1410
 9033WAT     H136852   5.164   3.459   6.757 -0.5517  0.4055 -1.6873
 9033WAT     H236853   5.107   3.583   6.758  0.2423  0.8530  2.3244
 9033WAT    EPW36854   5.116   3.512   6.789 -0.0082 -0.1593  0.1934
 9034WAT      O36855   1.529   7.651   7.036  0.0155 -0.2737  0.4405
 9034WAT     H136856   1.510   7.589   7.094 -3.5514  0.0959 -0.1442
 9034WAT     H236857   1.452   7.672   7.002  1.6660  1.2193 -2.7637
 9034WAT    EPW36858   1.515   7.645   7.040 -0.2676  0.0015 -0.1192
 9035WAT      O36859   2.090   0.775   4.011 -0.4448  0.5810 -0.6593
 9035WAT     H136860   2.102   0.689   4.022 -0.8304  0.7457  1.3626
 9035WAT     H236861   2.018   0.779   3.962 -1.8521 -0.2831  1.1968
 9035WAT    EPW36862   2.081   0.763   4.005 -0.7097  0.4777 -0.0864
 9036WAT      O36863   6.143   6.021   6.634  0.7409  0.3043 -0.1630
 9036WAT     H136864   6.078   6.064   6.594  0.6197  0.7977  0.5445
 9036WAT     H236865   6.171   5.964   6.573 -1.2259 -0.8577 -0.0541
 9036WAT    EPW36866   6.138   6.019   6.619  0.4325  0.2055 -0.0424
 9037WAT      O36867   4.857   2.496   5.397 -0.3219  0.0326 -0.2571
 9037WAT     H136868   4.810   2.527   5.330  0.1955  0.2788 -0.5063
 9037WAT     H236869   4.939   2.505   5.371 -0.1417 -1.1387 -0.1522
 9037WAT    EPW36870   4.862   2.502   5.383 -0.2188 -0.1040 -0.2784
 9038WAT      O36871   5.773   1.788   7.144 -0.3761 -0.0489  0.0572
 9038WAT     H136872   5.788   1.736   7.213 -0.9015  1.6922  1.5796
 9038WAT     H236873   5.817   1.750   7.079  0.8916 -1.2967  1.5676
 9038WAT    EPW36874   5.782   1.775   7.145 -0.2664  0.0240  0.5052
 9039WAT      O36875   2.318   7.291   4.436  0.3891  0.0202 -0.2072
 9039WAT     H136876   2.327   7.208   4.459 -0.3653  0.1388  0.5745
 9039WAT     H236877   2.399   7.323   4.442  0.5472 -0.4644  0.2932
 9039WAT    EPW36878   2.331   7.284   4.441  0.3010 -0.0339 -0.0178
 9040WAT      O36879   4.865   6.359   2.754 -0.4819  0.2452  0.3888
 9040WAT     H136880   4.865   6.275   2.731  1.0024  0.1131  0.8004
 9040WAT     H236881   4.857   6.402   2.678  0.2238 -0.2518  0.0261
 9040WAT    EPW36882   4.864   6.353   2.740 -0.1584  0.1523  0.3960
 9041WAT      O36883   2.032   7.495   0.326 -0.5696 -0.1931  0.5834
 9041WAT     H136884   2.063   7.548   0.388 -2.8954  0.1568  1.5493
 9041WAT     H236885   2.067   7.418   0.345  0.1803  0.2979  1.2382
 9041WAT    EPW36886   2.042   7.491   0.338 -0.8024 -0.0689  0.8228
 9042WAT      O36887   6.580   6.799   7.388 -0.0530 -0.1512 -0.3451
 9042WAT     H136888   6.620   6.733   7.346 -1.0639 -1.0388  0.0317
 9042WAT     H236889   6.553   6.850   7.323  2.4509  1.0048 -0.6009
 9042WAT    EPW36890   6.582   6.797   7.372  0.1675 -0.1115 -0.3272
 9043WAT      O36891   2.868   2.346   6.294 -0.1788 -0.3870  0.2796
 9043WAT     H136892   2.945   2.363   6.258 -0.8141  0.2298 -0.8743
 9043WAT     H236893   2.885   2.285   6.354  1.1488 -0.4291 -0.1171
 9043WAT    EPW36894   2.882   2.340   6.297 -0.0765 -0.3021  0.0505
 9044WAT      O36895   5.714   7.009   1.456 -0.3057 -0.8589 -0.1191
 9044WAT     H136896   5.628   7.019   1.460 -0.1349  0.8872  0.0606
 9044WAT     H236897   5.727   6.966   1.381 -1.2829 -0.3852 -0.5692
 9044WAT    EPW36898   5.703   7.004   1.445 -0.4248 -0.5310 -0.1590
 9045WAT      O36899   2.333   2.512   5.597 -0.0244 -0.0303  0.3136
 9045WAT     H136900   2.311   2.563   5.665  1.1047  1.8308 -0.6218
 9045WAT     H236901   2.349   2.435   5.634  0.3034  0.8516  2.1521
 9045WAT    EPW36902   2.333   2.508   5.612  0.1908  0.3749  0.4470
 9046WAT      O36903   2.862   0.681   6.327 -0.2356  0.3934  0.1178
 9046WAT     H136904   2.852   0.657   6.410 -0.1349 -0.0235  0.0103
 9046WAT     H236905   2.889   0.764   6.333  2.2650 -0.3816  0.5869
 9046WAT    EPW36906   2.865   0.690   6.340  0.1487  0.2173  0.1712
 9047WAT      O36907   1.756   1.491   5.074  0.0405 -0.1027  0.1084
 9047WAT     H136908   1.768   1.425   5.019  0.9360  1.1147 -1.2115
 9047WAT     H236909   1.799   1.466   5.146  0.4895 -0.8991 -0.4219
 9047WAT    EPW36910   1.764   1.478   5.077  0.2391 -0.0405 -0.1649
 9048WAT      O36911   2.160   2.025   5.653  0.1900 -0.1864 -0.5466
 9048WAT     H136912   2.121   2.089   5.697  0.2485 -1.0055  0.7519
 9048WAT     H236913   2.162   1.959   5.710  2.4132 -0.5414 -0.9375
 9048WAT    EPW36914   2.155   2.024   5.668  0.5270 -0.3599 -0.4125
 9049WAT      O36915   0.814   4.036   6.585 -0.1682  0.4808  0.7673
 9049WAT     H136916   0.844   4.092   6.525 -2.3044  1.2209  0.2936
 9049WAT     H236917   0.775   4.088   6.643 -0.3440 -0.3979  1.4420
 9049WAT    EPW36918   0.812   4.052   6.585 -0.5097  0.4603  0.7970
 9050WAT      O36919   6.013   5.353   3.311 -0.1619  0.1063  0.1729
 9050WAT     H136920   6.067   5.418   3.289 -0.2623  0.0964 -0.1140
 9050WAT     H236921   6.062   5.282   3.303 -0.6596 -0.0731 -1.7635
 9050WAT    EPW36922   6.028   5.352   3.307 -0.2503  0.0783 -0.1555
 9051WAT      O36923   5.253   5.262   0.482  0.0877 -0.4199  0.0994
 9051WAT     H136924   5.323   5.309   0.504  1.2038 -2.0995  0.2794
 9051WAT     H236925   5.270   5.183   0.513 -1.5438 -1.0742 -0.5539
 9051WAT    EPW36926   5.265   5.258   0.490  0.0115 -0.7647  0.0295
 9052WAT      O36927   6.041   0.359   3.836 -0.3043 -0.4367 -0.0003
 9052WAT     H136928   6.053   0.318   3.912  0.5103 -0.2752 -0.0325
 9052WAT     H236929   5.960   0.392   3.843  0.0490  0.2307  1.0989
 9052WAT    EPW36930   6.031   0.358   3.848 -0.1317 -0.3142  0.1573
 9053WAT      O36931   6.409   6.831   7.056  0.0586  0.0398  0.1108
 9053WAT     H136932   6.488   6.804   7.031  1.3120  3.9630 -0.9038
 9053WAT     H236933   6.414   6.918   7.049 -3.4110  0.6955  2.9401
 9053WAT    EPW36934   6.421   6.840   7.051 -0.2688  0.7162  0.3789
 9054WAT      O36935   2.516   4.522   7.180 -0.4132  0.1733 -0.2746
 9054WAT     H136936   2.572   4.483   7.235  0.6378  0.3011 -1.2046
 9054WAT     H236937   2.443   4.476   7.189  0.6147 -1.7129 -0.9088
 9054WAT    EPW36938   2.514   4.509   7.189 -0.1061 -0.0865 -0.5057
 9055WAT      O36939   3.730   0.100   0.227 -0.3459 -0.1756  0.3759
 9055WAT     H136940   3.760   0.028   0.189 -0.1359  0.0785  0.0461
 9055WAT     H236941   3.666   0.072   0.278 -2.8715 -0.2425 -2.5190
 9055WAT    EPW36942   3.725   0.085   0.229 -0.6879 -0.1479 -0.1005
 9056WAT      O36943   1.613   2.250   6.493 -0.1269  0.2820 -0.2736
 9056WAT     H136944   1.603   2.166   6.473  2.4399 -0.3268  0.7229
 9056WAT     H236945   1.696   2.266   6.474  0.2218  1.8183  2.1724
 9056WAT    EPW36946   1.624   2.240   6.487  0.3038  0.4190  0.2350
 9057WAT      O36947   1.482   6.798   4.324  0.2130  0.2647 -0.8971
 9057WAT     H136948   1.431   6.736   4.358 -0.4517  2.4059  2.4956
 9057WAT     H236949   1.428   6.844   4.273 -0.0590 -0.1631 -1.0003
 9057WAT    EPW36950   1.467   6.795   4.321  0.0747  0.5178 -0.4112
 9058WAT      O36951   7.604   2.529   4.207 -0.2274 -0.1085  0.2466
 9058WAT     H136952   7.637   2.578   4.142  2.7966 -1.7877  0.3364
 9058WAT     H236953   7.648   2.557   4.278  0.4966 -1.8462  0.5439
 9058WAT    EPW36954   7.616   2.540   4.208  0.3263 -0.6132  0.3038
 9059WAT      O36955   0.863   3.226   3.852 -0.0986  0.3593 -0.0477
 9059WAT     H136956   0.871   3.259   3.933 -3.1299  0.3809  0.3422
 9059WAT     H236957   0.825   3.290   3.807 -0.6653 -0.5169 -0.8600
 9059WAT    EPW36958   0.859   3.240   3.857 -0.6301  0.2331 -0.1101
 9060WAT      O36959   5.803   1.281   0.732 -0.1864 -0.0571  0.4193
 9060WAT     H136960   5.867   1.245   0.684  0.0127  0.5173  0.2350
 9060WAT     H236961   5.730   1.249   0.696 -0.0085 -1.1205  0.9570
 9060WAT    EPW36962   5.802   1.271   0.719 -0.1307 -0.1294  0.4715
 9061WAT      O36963   3.368   4.750   7.824  0.0692  0.6002 -0.1911
 9061WAT     H136964   3.286   4.729   7.847 -0.7159  1.0114 -2.3698
 9061WAT     H236965   3.386   4.695   7.759  0.2916  2.5520 -1.8642
 9061WAT    EPW36966   3.358   4.739   7.818 -0.0139  0.9492 -0.7601
 9062WAT      O36967   4.410   0.171   6.536 -0.0872 -0.3657  0.3386
 9062WAT     H136968   4.332   0.211   6.534  0.4978  0.7949 -0.5580
 9062WAT     H236969   4.467   0.237   6.526  1.0345 -1.1463  1.3068
 9062WAT    EPW36970   4.407   0.187   6.534  0.1649 -0.3096  0.3491
 9063WAT      O36971   6.104   1.083   6.510  0.4386  0.4076 -0.1740
 9063WAT     H136972   6.184   1.104   6.538  0.6703  0.6259 -0.9624
 9063WAT     H236973   6.114   1.002   6.479  0.0544 -0.0498  0.8601
 9063WAT    EPW36974   6.117   1.074   6.510  0.4161  0.3723 -0.1377
 9064WAT      O36975   2.513   4.224   7.044 -0.2855 -0.4568  0.0409
 9064WAT     H136976   2.564   4.198   7.110  0.6667 -0.4141 -0.6536
 9064WAT     H236977   2.547   4.184   6.974 -0.3132  0.7122 -0.6667
 9064WAT    EPW36978   2.525   4.214   7.043 -0.1489 -0.2778 -0.1662
 9065WAT      O36979   4.615   4.419   7.585 -0.5530  0.5710 -0.1700
 9065WAT     H136980   4.619   4.448   7.667 -1.3667 -0.2365  0.1743
 9065WAT     H236981   4.617   4.491   7.537  0.5975  1.0292  0.5186
 9065WAT    EPW36982   4.616   4.434   7.590 -0.5032  0.5194 -0.0175
 9066WAT      O36983   4.408   0.240   5.255 -0.0432 -0.3866 -0.0798
 9066WAT     H136984   4.418   0.187   5.187  1.9977 -1.3175  0.8534
 9066WAT     H236985   4.426   0.319   5.223 -1.3510 -0.4658 -1.0845
 9066WAT    EPW36986   4.412   0.244   5.241  0.0651 -0.5358 -0.0904
 9067WAT      O36987   4.873   4.808   0.797 -0.1707  0.3007 -0.1630
 9067WAT     H136988   4.880   4.856   0.869 -0.9676  0.0400  0.1018
 9067WAT     H236989   4.890   4.727   0.824 -2.5473 -0.1370  0.2219
 9067WAT    EPW36990   4.877   4.803   0.811 -0.6395  0.1976 -0.0670
 9068WAT      O36991   0.933   2.773   7.742  0.3587 -0.1486 -0.3678
 9068WAT     H136992   0.922   2.704   7.794  2.3110 -0.7892 -0.7365
 9068WAT     H236993   1.011   2.804   7.764  0.6603  0.3599 -2.0124
 9068WAT    EPW36994   0.943   2.767   7.753  0.6916 -0.1681 -0.6652
 9069WAT      O36995   0.312   2.322   5.980  0.0263 -0.3749 -0.1626
 9069WAT     H136996   0.360   2.371   5.927  0.1274 -0.2919  0.0059
 9069WAT     H236997   0.342   2.241   5.966  0.6441 -0.2534  0.3903
 9069WAT    EPW36998   0.323   2.317   5.970  0.1325 -0.3447 -0.0561
 9070WAT      O36999   1.144   7.309   0.201 -0.0370 -0.6973 -0.3058
 9070WAT     H137000   1.078   7.300   0.257  1.1195 -0.0162  1.2549
 9070WAT     H237001   1.199   7.245   0.224  1.5121  0.9692  0.9941
 9070WAT    EPW37002   1.142   7.298   0.212  0.3627 -0.3505  0.1167
 9071WAT      O37003   3.879   1.212   0.562 -0.6778 -0.1122 -0.5128
 9071WAT     H137004   3.933   1.233   0.497  0.7747  0.3788  0.7953
 9071WAT     H237005   3.843   1.137   0.535 -0.1224  0.0882 -1.8707
 9071WAT    EPW37006   3.881   1.204   0.548 -0.3812 -0.0100 -0.5202
 9072WAT      O37007   5.208   2.070   7.383  0.6320  0.1910  0.0481
 9072WAT     H137008   5.246   2.141   7.416  1.8840  0.0281 -0.9666
 9072WAT     H237009   5.130   2.099   7.358  1.5074  1.5120 -1.3392
 9072WAT    EPW37010   5.202   2.085   7.384  0.9463  0.3621 -0.3067
 9073WAT      O37011   5.585   4.721   7.353 -0.4464 -0.1377  0.6794
 9073WAT     H137012   5.519   4.677   7.388 -1.8592  0.7847 -0.6585
 9073WAT     H237013   5.601   4.678   7.278  0.6635 -0.4972  1.1035
 9073WAT    EPW37014   5.578   4.708   7.347 -0.4912 -0.0545  0.5444
 9074WAT      O37015   7.646   4.464   6.613  0.2392  0.4680  0.1619
 9074WAT     H137016   7.568   4.495   6.591 -0.1888 -0.1557  0.7417
 9074WAT     H237017   7.695   4.536   6.624 -0.1170  0.8461 -0.6537
 9074WAT    EPW37018   7.642   4.479   6.611  0.1234  0.4317  0.1271
 9075WAT      O37019   6.441   5.895   7.445  0.7889 -0.2250 -0.0289
 9075WAT     H137020   6.400   5.960   7.487 -1.0259 -1.4414  0.1767
 9075WAT     H237021   6.404   5.896   7.366  1.6963 -0.1826 -0.4628
 9075WAT    EPW37022   6.429   5.905   7.439  0.6548 -0.3984 -0.0627
 9076WAT      O37023   4.382   1.595   2.755 -0.7076  0.1594 -0.2389
 9076WAT     H137024   4.336   1.533   2.795 -1.2741  1.2051  0.8043
 9076WAT     H237025   4.413   1.555   2.684  1.1044 -2.0633  1.6608
 9076WAT    EPW37026   4.380   1.580   2.750 -0.5236 -0.0145  0.1958
 9077WAT      O37027   5.062   6.551   7.627  1.0416 -0.0548 -0.0139
 9077WAT     H137028   5.148   6.540   7.623  0.9718 -0.2492 -1.3019
 9077WAT     H237029   5.049   6.629   7.589  0.7273  0.5033  1.1702
 9077WAT    EPW37030   5.073   6.561   7.621  0.9849 -0.0011 -0.0293
 9078WAT      O37031   2.963   6.951   6.574  0.0452 -0.3178  0.6555
 9078WAT     H137032   2.927   6.875   6.597  0.6838 -0.6309  0.6610
 9078WAT     H237033   3.046   6.943   6.601  0.4918 -0.1934 -0.6222
 9078WAT    EPW37034   2.970   6.939   6.581  0.2055 -0.3457  0.4676
 9079WAT      O37035   1.641   0.467   6.081 -0.0088  0.6226 -0.2872
 9079WAT     H137036   1.634   0.552   6.099  0.9549  1.1405 -2.0524
 9079WAT     H237037   1.702   0.465   6.018  0.3188 -1.4295  0.0365
 9079WAT    EPW37038   1.649   0.480   6.074  0.1820  0.3960 -0.5001
 9080WAT      O37039   6.702   4.181   4.536 -0.2777  0.0250  0.3895
 9080WAT     H137040   6.781   4.200   4.505 -0.3000 -0.4102  0.0589
 9080WAT     H237041   6.697   4.094   4.530 -1.1172  0.0995 -0.4587
 9080WAT    EPW37042   6.713   4.171   4.530 -0.4050 -0.0283  0.2154
 9081WAT      O37043   2.243   0.424   6.753 -0.3873  0.4026  0.0608
 9081WAT     H137044   2.326   0.401   6.738 -0.0171  0.1431  2.2280
 9081WAT     H237045   2.241   0.508   6.729  1.1738  1.0895  2.0463
 9081WAT    EPW37046   2.255   0.433   6.747 -0.1020  0.4658  0.6742
 9082WAT      O37047   1.183   2.824   7.831  0.4554  0.0679  0.2541
 9082WAT     H137048   1.225   2.754   7.800 -2.4475 -0.6934 -2.3894
 9082WAT     H237049   1.237   2.890   7.811  0.6730 -0.8738 -2.7911
 9082WAT    EPW37050   1.197   2.824   7.823  0.0587 -0.1837 -0.5862
 9083WAT      O37051   1.411   2.535   5.887 -0.3074  0.5945 -0.0312
 9083WAT     H137052   1.404   2.562   5.970  0.1555  0.2106  0.1335
 9083WAT     H237053   1.343   2.573   5.848 -1.1353 -0.0241  0.7403
 9083WAT    EPW37054   1.400   2.544   5.893 -0.3613  0.4464  0.1071
 9084WAT      O37055   1.259   1.413   7.143  0.0185 -0.2661 -0.1167
 9084WAT     H137056   1.253   1.347   7.201 -0.0728 -0.5686 -0.4688
 9084WAT     H237057   1.233   1.376   7.068 -2.5081  0.7715  0.1342
 9084WAT    EPW37058   1.254   1.398   7.141 -0.3682 -0.1575 -0.1317
 9085WAT      O37059   3.091   3.632   7.738  0.1561 -0.3100  0.2242
 9085WAT     H137060   3.157   3.596   7.783  1.0844  0.3144 -0.5844
 9085WAT     H237061   3.056   3.689   7.794  1.5838  0.7844  0.0544
 9085WAT    EPW37062   3.096   3.635   7.753  0.5042 -0.0561  0.0796
 9086WAT      O37063   1.624   7.074   2.179 -0.4452 -0.2850 -1.0521
 9086WAT     H137064   1.676   7.008   2.202 -0.8118 -0.4441 -0.6723
 9086WAT     H237065   1.580   7.042   2.111 -0.0038 -0.1270 -1.4161
 9086WAT    EPW37066   1.625   7.060   2.172 -0.4341 -0.2852 -1.0497
 9087WAT      O37067   6.695   6.284   7.122 -0.2142 -0.5977  0.2332
 9087WAT     H137068   6.710   6.328   7.048  2.2425 -0.3643  0.7660
 9087WAT     H237069   6.627   6.233   7.103 -0.9427  0.9313 -1.5009
 9087WAT    EPW37070   6.687   6.283   7.109  0.0411 -0.3374  0.0557
 9088WAT      O37071   0.730   7.636   4.914 -0.3808 -0.4051 -0.4924
 9088WAT     H137072   0.726   7.672   4.993  1.8760 -0.6229 -0.2264
 9088WAT     H237073   0.657   7.589   4.909 -0.0207 -1.3552  1.9543
 9088WAT    EPW37074   0.719   7.635   4.925  0.0058 -0.5776 -0.0917
 9089WAT      O37075   2.215   5.391   5.974 -0.3237  0.3368  0.5363
 9089WAT     H137076   2.298   5.380   5.949 -0.2062  0.3302  0.9280
 9089WAT     H237077   2.217   5.465   6.020 -0.3269 -0.2466  1.4958
 9089WAT    EPW37078   2.227   5.401   5.977 -0.3068  0.2496  0.7359
 9090WAT      O37079   1.802   6.867   4.894 -0.0406  0.2835 -0.5390
 9090WAT     H137080   1.719   6.856   4.919 -0.4683  1.0596 -1.5501
 9090WAT     H237081   1.818   6.951   4.913 -0.4779  0.9972 -2.9624
 9090WAT    EPW37082   1.792   6.878   4.900 -0.1684  0.5036 -1.0463
 9091WAT      O37083   3.809   5.329   2.078  0.5706  0.0385 -0.4719
 9091WAT     H137084   3.780   5.365   2.152  0.0018  1.2626 -1.2647
 9091WAT     H237085   3.894   5.348   2.078  1.2269 -2.4865  1.2490
 9091WAT    EPW37086   3.817   5.337   2.089  0.5835 -0.1537 -0.3348
 9092WAT      O37087   6.356   1.423   4.649  0.5616  0.0376 -0.5928
 9092WAT     H137088   6.431   1.393   4.617  1.4098  2.3226 -0.9322
 9092WAT     H237089   6.380   1.464   4.722 -0.4414  0.2181 -0.3525
 9092WAT    EPW37090   6.371   1.425   4.655  0.5387  0.4018 -0.6074
 9093WAT      O37091   3.294   2.117   6.939  0.3894  0.4086  0.4771
 9093WAT     H137092   3.213   2.125   6.970  0.7369 -0.8387  1.8431
 9093WAT     H237093   3.343   2.162   6.996  0.6095  1.8253 -0.7740
 9093WAT    EPW37094   3.290   2.124   6.952  0.4733  0.4336  0.4941
 9094WAT      O37095   7.640   0.280   4.878  0.3453  0.6371 -0.3138
 9094WAT     H137096   7.654   0.297   4.794 -0.5967  0.1539 -0.5915
 9094WAT     H237097   7.680   0.203   4.890  0.0111  0.4337 -0.4747
 9094WAT    EPW37098   7.648   0.271   4.867  0.1567  0.5357 -0.3786
 9095WAT      O37099   0.526   0.424   5.929  0.0916  0.7382  0.2513
 9095WAT     H137100   0.478   0.352   5.942  0.3011  0.9370  2.5653
 9095WAT     H237101   0.497   0.479   5.990  3.1386  0.8862  1.7501
 9095WAT    EPW37102   0.515   0.421   5.940  0.5726  0.7895  0.8145
 9096WAT      O37103   2.782   3.511   2.569 -0.0871 -0.4500 -0.7784
 9096WAT     H137104   2.863   3.479   2.578  0.5969  1.1917 -0.7816
 9096WAT     H237105   2.780   3.539   2.486 -1.2894 -2.0100 -1.3504
 9096WAT    EPW37106   2.794   3.510   2.558 -0.1637 -0.4379 -0.8633
 9097WAT      O37107   2.376   5.240   4.114 -0.5035 -0.0220  0.7716
 9097WAT     H137108   2.462   5.231   4.128 -0.5897 -1.0005  0.7698
 9097WAT     H237109   2.346   5.158   4.120 -1.2338  0.1215 -0.5599
 9097WAT    EPW37110   2.385   5.226   4.117 -0.6241 -0.1454  0.5747
 9098WAT      O37111   0.793   5.372   6.777 -0.7154  0.0075  0.4160
 9098WAT     H137112   0.850   5.410   6.831 -0.8174 -0.4438  0.8433
 9098WAT     H237113   0.833   5.298   6.755  0.5509  1.3062 -2.2552
 9098WAT    EPW37114   0.808   5.367   6.782 -0.5434  0.1327  0.0845
 9099WAT      O37115   2.768   0.152   5.758  0.3145  0.5928 -0.3324
 9099WAT     H137116   2.852   0.173   5.752 -0.0333  3.1282  1.5669
 9099WAT     H237117   2.729   0.205   5.700 -0.0965  0.7715  0.0947
 9099WAT    EPW37118   2.775   0.163   5.749  0.2024  0.9937  0.0113
 9100WAT      O37119   2.549   2.803   4.553 -0.4910  0.4275 -0.0229
 9100WAT     H137120   2.530   2.865   4.494  1.4565  1.0112 -0.0967
 9100WAT     H237121   2.580   2.848   4.621 -0.7173 -0.3694  0.6183
 9100WAT    EPW37122   2.551   2.819   4.554 -0.2367  0.3960  0.0609
 9101WAT      O37123   3.043   0.650   2.170  0.5121 -0.2810 -0.5111
 9101WAT     H137124   2.994   0.695   2.226  0.1169 -1.1116 -0.1721
 9101WAT     H237125   3.116   0.632   2.215  1.0091  0.6636 -0.9041
 9101WAT    EPW37126   3.047   0.654   2.185  0.5272 -0.2642 -0.5191
 9102WAT      O37127   2.884   0.804   3.131  0.1345 -0.8083 -0.4625
 9102WAT     H137128   2.836   0.850   3.187 -1.8242 -3.0890 -0.1133
 9102WAT     H237129   2.896   0.859   3.064  0.5489  1.1865  1.1595
 9102WAT    EPW37130   2.879   0.819   3.129 -0.0936 -0.8505 -0.1714
 9103WAT      O37131   6.908   2.959   5.760 -0.1098 -0.3694  0.1991
 9103WAT     H137132   6.963   2.969   5.694  0.8628  0.3078  1.0898
 9103WAT     H237133   6.943   2.894   5.807  0.3551  0.5364  1.1509
 9103WAT    EPW37134   6.921   2.951   5.757  0.1025 -0.1356  0.4712
 9104WAT      O37135   5.877   1.273   3.113 -0.6044 -0.1699 -0.0733
 9104WAT     H137136   5.869   1.296   3.030  0.0225 -0.2586 -0.1576
 9104WAT     H237137   5.940   1.213   3.113  0.1045  0.5524  0.5912
 9104WAT    EPW37138   5.885   1.267   3.101 -0.4071 -0.0763  0.0124
 9105WAT      O37139   2.858   0.992   0.576 -0.4572 -0.3145 -0.4275
 9105WAT     H137140   2.780   1.013   0.543 -0.9012 -0.8816  0.2160
 9105WAT     H237141   2.907   0.977   0.506 -0.1554  2.5467 -0.9506
 9105WAT    EPW37142   2.853   0.992   0.561 -0.4782  0.0244 -0.4097
 9106WAT      O37143   1.814   3.088   4.580 -0.4234  0.5162  0.2686
 9106WAT     H137144   1.816   3.024   4.521 -2.5641  0.6583 -0.0416
 9106WAT     H237145   1.802   3.047   4.655  0.9257  0.4214  0.4526
 9106WAT    EPW37146   1.812   3.073   4.582 -0.5404  0.5232  0.2499
 9107WAT      O37147   4.775   0.025   5.599  0.9057 -0.3508  0.2471
 9107WAT     H137148   4.841   0.080   5.583  1.0327 -1.0400 -1.9443
 9107WAT     H237149   4.715   0.048   5.539 -0.7284  0.0082  1.9386
 9107WAT    EPW37150   4.776   0.037   5.588  0.6831 -0.3996  0.1733
 9108WAT      O37151   1.077   3.848   5.260  0.3182 -0.7449 -0.0705
 9108WAT     H137152   1.122   3.899   5.206 -1.9470  3.1422  1.3143
 9108WAT     H237153   1.133   3.836   5.327  1.0692 -0.5249 -0.6425
 9108WAT    EPW37154   1.092   3.854   5.262  0.0945 -0.1382  0.0495
 9109WAT      O37155   2.636   5.677   3.725 -0.1568  0.3434  0.2148
 9109WAT     H137156   2.702   5.620   3.723 -0.5706 -0.1208 -0.1314
 9109WAT     H237157   2.580   5.647   3.666 -1.1573  0.1722  1.2294
 9109WAT    EPW37158   2.638   5.664   3.716 -0.3657  0.2496  0.3135
 9110WAT      O37159   6.668   4.113   5.380  0.2634 -0.5428  0.3581
 9110WAT     H137160   6.678   4.081   5.460  1.5910 -1.5859 -0.1924
 9110WAT     H237161   6.622   4.052   5.338  0.2023 -0.3478  0.1383
 9110WAT    EPW37162   6.663   4.100   5.386  0.4505 -0.6681  0.2443
 9111WAT      O37163   0.355   6.357   6.003 -0.3291  0.1016  0.5098
 9111WAT     H137164   0.331   6.359   6.087  1.1872  0.2547  0.9802
 9111WAT     H237165   0.385   6.437   5.988  2.2928 -0.7231  0.7930
 9111WAT    EPW37166   0.356   6.369   6.013  0.2822  0.0024  0.6211
 9112WAT      O37167   4.653   5.030   6.677 -0.1779  0.0599 -0.0173
 9112WAT     H137168   4.572   4.997   6.681  0.4124 -1.3528  1.1469
 9112WAT     H237169   4.646   5.094   6.618 -2.2077  0.1800  0.2795
 9112WAT    EPW37170   4.640   5.034   6.669 -0.3905 -0.1311  0.1985
 9113WAT      O37171   2.690   2.692   3.643 -0.0981 -0.1663  0.2090
 9113WAT     H137172   2.651   2.659   3.714 -2.6025  0.6439 -0.6644
 9113WAT     H237173   2.736   2.760   3.674 -1.5331  0.4734  1.0596
 9113WAT    EPW37174   2.691   2.697   3.658 -0.6800  0.0479  0.2057
 9114WAT      O37175   6.197   7.133   3.526 -0.3332  0.1268 -0.1050
 9114WAT     H137176   6.232   7.087   3.592 -1.0321 -1.1407 -0.5742
 9114WAT     H237177   6.219   7.215   3.545  2.6090 -0.5225 -0.2020
 9114WAT    EPW37178   6.206   7.138   3.539 -0.0018 -0.1564 -0.1886
 9115WAT      O37179   0.495   4.541   7.420 -0.2534  0.0539  0.5246
 9115WAT     H137180   0.566   4.586   7.397 -0.0615 -0.3137  0.3848
 9115WAT     H237181   0.509   4.462   7.385 -1.0189  0.1578 -0.0345
 9115WAT    EPW37182   0.507   4.536   7.412 -0.3381  0.0149  0.4214
 9116WAT      O37183   2.692   6.752   5.213 -0.0406 -0.0913  0.5796
 9116WAT     H137184   2.620   6.747   5.262 -0.0853 -1.6463  0.3974
 9116WAT     H237185   2.757   6.738   5.270  0.1863  1.7546  0.8267
 9116WAT    EPW37186   2.691   6.749   5.229 -0.0137 -0.0483  0.5892
 9117WAT      O37187   1.626   7.394   1.214 -0.0111 -0.8604  0.2432
 9117WAT     H137188   1.576   7.329   1.182 -0.2205  0.2276 -1.8205
 9117WAT     H237189   1.609   7.460   1.160  3.3816 -0.3070 -0.3269
 9117WAT    EPW37190   1.616   7.394   1.201  0.4591 -0.6179 -0.1459
 9118WAT      O37191   7.130   3.789   5.795 -0.1387 -0.6456 -0.8152
 9118WAT     H137192   7.178   3.798   5.868 -0.6842 -2.1700 -0.2451
 9118WAT     H237193   7.052   3.822   5.817 -0.6006 -1.9827 -0.3635
 9118WAT    EPW37194   7.125   3.795   5.809 -0.2875 -1.0683 -0.6643
 9119WAT      O37195   5.039   6.588   1.660  0.0740  0.0951 -0.0468
 9119WAT     H137196   5.098   6.614   1.601 -0.2495 -0.0276 -0.4244
 9119WAT     H237197   5.052   6.502   1.664  1.3409  0.2993  1.4125
 9119WAT    EPW37198   5.050   6.579   1.652  0.2133  0.1071  0.1130
 9120WAT      O37199   0.513   0.361   4.072 -0.4296  0.0396  0.8694
 9120WAT     H137200   0.599   0.369   4.055 -0.4685 -0.4834  0.4031
 9120WAT     H237201   0.511   0.343   4.157  0.0765 -2.2267  0.4606
 9120WAT    EPW37202   0.525   0.360   4.082 -0.3606 -0.3725  0.7402
 9121WAT      O37203   3.500   4.092   7.713 -0.0255  0.5615 -0.1540
 9121WAT     H137204   3.577   4.113   7.677  0.5787 -0.0637  0.7119
 9121WAT     H237205   3.441   4.120   7.655  0.8991 -0.5031 -1.6872
 9121WAT    EPW37206   3.503   4.099   7.699  0.2004  0.3119 -0.2526
 9122WAT      O37207   3.548   0.638   6.394  0.3813 -1.2180 -0.2220
 9122WAT     H137208   3.468   0.611   6.417 -0.1832 -0.2972 -1.0366
 9122WAT     H237209   3.598   0.613   6.461 -0.8093 -0.6443  0.9393
 9122WAT    EPW37210   3.543   0.630   6.407  0.1220 -0.9972 -0.1708
 9123WAT      O37211   1.307   1.870   0.436  0.0475  0.3679 -0.0351
 9123WAT     H137212   1.281   1.936   0.487  0.7004 -0.4860  1.4518
 9123WAT     H237213   1.268   1.801   0.471  0.3809 -0.2303 -0.8163
 9123WAT    EPW37214   1.297   1.870   0.449  0.1932  0.1534  0.0691
 9124WAT      O37215   3.191   6.909   2.880  0.1950 -0.3163 -0.0387
 9124WAT     H137216   3.274   6.887   2.867  0.5166  1.0932 -0.4663
 9124WAT     H237217   3.167   6.946   2.805 -0.7117 -0.3502  0.2190
 9124WAT    EPW37218   3.200   6.911   2.867  0.1086 -0.1131 -0.0638
 9125WAT      O37219   3.362   1.225   1.692  0.3371 -0.4580  0.5029
 9125WAT     H137220   3.365   1.201   1.608 -2.1150  1.9366 -0.3771
 9125WAT     H237221   3.301   1.173   1.726  0.0244 -0.1756  0.3658
 9125WAT    EPW37222   3.354   1.214   1.685 -0.0713 -0.0626  0.3527
 9126WAT      O37223   3.974   3.704   0.237  0.4572 -0.3162  0.1126
 9126WAT     H137224   4.007   3.772   0.280  0.2567 -0.8323  1.1281
 9126WAT     H237225   3.979   3.727   0.153  1.1212  0.6117  0.3977
 9126WAT    EPW37226   3.979   3.717   0.231  0.5257 -0.2553  0.3047
 9127WAT      O37227   6.351   1.611   4.451 -0.0979 -0.5833  0.0980
 9127WAT     H137228   6.354   1.559   4.521  1.8361  0.6253  0.9984
 9127WAT     H237229   6.271   1.647   4.455 -0.4340 -1.3895  1.0101
 9127WAT    EPW37230   6.340   1.609   4.462  0.1382 -0.5238  0.3657
 9128WAT      O37231   2.484   3.248   0.036  0.7059 -0.5060  0.2619
 9128WAT     H137232   2.459   3.295  -0.034  1.7107 -0.2956  0.0199
 9128WAT     H237233   2.426   3.269   0.097 -0.2074 -0.7105 -0.5145
 9128WAT    EPW37234   2.472   3.258   0.034  0.7194 -0.5052  0.1115
 9129WAT      O37235   0.088   1.631   5.100 -0.1725 -0.3777  0.2121
 9129WAT     H137236   0.011   1.605   5.131  0.1007 -0.8967  0.4642
 9129WAT     H237237   0.082   1.616   5.014 -0.2541 -0.6858  0.2691
 9129WAT    EPW37238   0.076   1.625   5.092 -0.1442 -0.4999  0.2578
 9130WAT      O37239   5.105   7.316   3.262  0.0478 -0.0170 -0.8039
 9130WAT     H137240   5.077   7.399   3.254  0.4574  0.2234  0.1987
 9130WAT     H237241   5.055   7.273   3.205 -2.4412  0.3828  0.9068
 9130WAT    EPW37242   5.093   7.322   3.252 -0.2594  0.0775 -0.4030
 9131WAT      O37243   2.346   2.453   7.253 -0.3763 -0.2337 -0.2111
 9131WAT     H137244   2.357   2.530   7.213 -1.8323  0.3611  0.4667
 9131WAT     H237245   2.428   2.426   7.267  0.2021  1.5612  0.1973
 9131WAT    EPW37246   2.360   2.460   7.250 -0.5060  0.1193 -0.0506
 9132WAT      O37247   5.007   6.694   5.448 -0.5369  0.4335 -0.4572
 9132WAT     H137248   5.005   6.769   5.493  1.1622  1.1149 -1.4036
 9132WAT     H237249   5.017   6.721   5.366  1.0983 -0.8218 -0.7113
 9132WAT    EPW37250   5.008   6.709   5.443 -0.0443  0.3488 -0.6345
 9133WAT      O37251   2.983   2.887   7.671  0.0646 -0.5442  0.2344
 9133WAT     H137252   2.901   2.864   7.693 -0.0416 -0.6219 -0.2265
 9133WAT     H237253   2.978   2.897   7.585  0.3224  0.3546  0.3142
 9133WAT    EPW37254   2.970   2.885   7.662  0.0870 -0.4229  0.1781
 9134WAT      O37255   3.538   0.735   4.871 -0.1314 -0.0612 -0.0683
 9134WAT     H137256   3.536   0.648   4.860 -0.2983 -0.1173  0.3785
 9134WAT     H237257   3.613   0.748   4.913  0.9339  0.2443 -1.9576
 9134WAT    EPW37258   3.549   0.724   4.876  0.0013 -0.0243 -0.2814
 9135WAT      O37259   5.875   0.132   2.752 -0.1425 -0.5809 -0.0452
 9135WAT     H137260   5.853   0.217   2.746 -2.2809 -1.1435 -0.8211
 9135WAT     H237261   5.828   0.103   2.819 -0.1106 -1.3577 -0.3551
 9135WAT    EPW37262   5.865   0.140   2.761 -0.4536 -0.7788 -0.2056
 9136WAT      O37263   2.895   1.841   6.559  0.4988 -0.2857 -0.5902
 9136WAT     H137264   2.877   1.756   6.567  2.6072 -0.8623 -1.4174
 9136WAT     H237265   2.930   1.847   6.479 -1.2938  1.7162 -1.3300
 9136WAT    EPW37266   2.897   1.829   6.548  0.5454 -0.0751 -0.8217
 9137WAT      O37267   7.369   1.961   4.379  0.5590 -0.0274 -0.3566
 9137WAT     H137268   7.397   1.966   4.462 -1.0517  0.6464  0.1873
 9137WAT     H237269   7.420   2.019   4.338  0.5175  0.5836  0.4254
 9137WAT    EPW37270   7.381   1.970   4.385  0.3149  0.1624 -0.1607
 9138WAT      O37271   1.163   2.527   3.681  0.1196  0.1617  0.0780
 9138WAT     H137272   1.154   2.582   3.749  1.4559 -0.2373  0.6197
 9138WAT     H237273   1.233   2.557   3.640  0.1478 -0.4327 -0.3204
 9138WAT    EPW37274   1.172   2.539   3.685  0.3211  0.0150  0.0992
 9139WAT      O37275   3.332   7.050   4.140 -0.5329 -0.3487  0.0252
 9139WAT     H137276   3.279   6.991   4.176 -1.9770 -0.4592 -2.1252
 9139WAT     H237277   3.299   7.126   4.165  1.9289 -0.2353  3.6715
 9139WAT    EPW37278   3.319   7.052   4.149 -0.3826 -0.3483  0.2462
 9140WAT      O37279   3.120   4.654   0.022  0.0938  0.2725  0.1673
 9140WAT     H137280   3.052   4.627   0.071  1.1837  0.3770  1.8236
 9140WAT     H237281   3.138   4.585  -0.028  1.5434 -1.4881  2.8819
 9140WAT    EPW37282   3.112   4.640   0.022  0.4690  0.0279  0.8129
 9141WAT      O37283   2.130   7.680   0.529  0.0010 -0.1878  0.0185
 9141WAT     H137284   2.058   7.673   0.578 -0.0316 -4.7076 -0.3168
 9141WAT     H237285   2.195   7.671   0.587  0.1126 -0.8917 -0.2102
 9141WAT    EPW37286   2.129   7.678   0.545  0.0127 -0.9595 -0.0648
 9142WAT      O37287   2.594   0.336   2.561  0.2935 -0.3739 -0.9781
 9142WAT     H137288   2.582   0.252   2.543 -1.2750 -0.0159 -1.7715
 9142WAT     H237289   2.562   0.377   2.491 -0.4273  0.9261  0.0713
 9142WAT    EPW37290   2.588   0.330   2.548 -0.0447 -0.1290 -0.9403
 9143WAT      O37291   7.265   3.745   6.039 -0.0674  0.3717 -0.2011
 9143WAT     H137292   7.273   3.688   6.105  0.8258  0.6116 -0.0795
 9143WAT     H237293   7.332   3.800   6.052  0.0440  0.5009 -1.2282
 9143WAT    EPW37294   7.276   3.744   6.051  0.0810  0.4262 -0.3349
 9144WAT      O37295   4.412   4.028   7.561 -0.1587 -0.0302 -0.2029
 9144WAT     H137296   4.372   4.102   7.587 -0.7303 -0.4933  0.2590
 9144WAT     H237297   4.470   4.013   7.624  0.2176  0.2268 -0.4870
 9144WAT    EPW37298   4.415   4.037   7.574 -0.1876 -0.0607 -0.1767
 9145WAT      O37299   6.741   5.767   4.118 -0.2123  0.2282 -0.0566
 9145WAT     H137300   6.727   5.809   4.043 -0.3997  0.8718  0.3244
 9145WAT     H237301   6.679   5.799   4.171  1.9812  2.4255  1.4156
 9145WAT    EPW37302   6.730   5.778   4.115  0.0841  0.6479  0.2171
 9146WAT      O37303   4.559   1.170   6.190  0.4525 -0.0119  0.3748
 9146WAT     H137304   4.592   1.126   6.122 -0.0808  0.4069 -0.1627
 9146WAT     H237305   4.630   1.187   6.238  0.6502 -1.6730  0.7498
 9146WAT    EPW37306   4.575   1.166   6.187  0.4029 -0.1954  0.3508
 9147WAT      O37307   6.446   3.705   4.572  0.2221 -0.6969 -0.1107
 9147WAT     H137308   6.488   3.781   4.563  0.2688 -0.5417  1.1536
 9147WAT     H237309   6.507   3.645   4.552  0.0038 -0.4207 -1.7448
 9147WAT    EPW37310   6.461   3.707   4.568  0.1967 -0.6332 -0.1653
 9148WAT      O37311   4.371   1.158   6.921  0.0370 -0.2216 -0.2462
 9148WAT     H137312   4.326   1.085   6.905  0.4847 -0.4036 -0.7100
 9148WAT     H237313   4.411   1.140   6.996 -0.4314 -0.1679  0.0220
 9148WAT    EPW37314   4.370   1.144   6.930  0.0339 -0.2405 -0.2751
 9149WAT      O37315   6.530   2.912   3.652 -0.4655  0.1903  0.3554
 9149WAT     H137316   6.512   2.941   3.571 -0.2186 -0.7345 -0.0430
 9149WAT     H237317   6.524   2.984   3.701 -1.7604  0.5622 -0.3012
 9149WAT    EPW37318   6.526   2.927   3.647 -0.6203  0.1086  0.1995
 9150WAT      O37319   7.035   7.510   7.772 -0.3381  0.1228 -0.2332
 9150WAT     H137320   7.095   7.451   7.751 -1.7691 -1.5662  0.1995
 9150WAT     H237321   7.023   7.497   7.858 -0.2990  1.4433 -0.0000
 9150WAT    EPW37322   7.042   7.499   7.782 -0.5437  0.0684 -0.1348
 9151WAT      O37323   3.838   0.219   6.308  0.6013  0.3024  0.0572
 9151WAT     H137324   3.895   0.280   6.334  0.4085  1.0004 -1.0878
 9151WAT     H237325   3.770   0.266   6.280 -0.0168 -0.4848  0.2122
 9151WAT    EPW37326   3.836   0.235   6.308  0.4815  0.2893 -0.0891
 9152WAT      O37327   2.804   6.088   3.492  0.1180 -0.1007  0.4649
 9152WAT     H137328   2.841   6.030   3.546 -1.2027  0.6595  2.3181
 9152WAT     H237329   2.782   6.154   3.545  0.5649  1.6246 -1.3825
 9152WAT    EPW37330   2.806   6.089   3.508 -0.0111  0.2664  0.4657
 9153WAT      O37331   5.897   4.229   0.041  0.2784  0.1562 -0.4579
 9153WAT     H137332   5.887   4.308   0.007  3.0503  0.7236 -0.1920
 9153WAT     H237333   5.873   4.239   0.125 -0.8811  0.2775 -0.7947
 9153WAT    EPW37334   5.892   4.242   0.049  0.5166  0.2580 -0.4684
 9154WAT      O37335   4.761   1.887   0.905 -0.0557  0.5431 -0.1481
 9154WAT     H137336   4.676   1.874   0.892 -0.3121  0.3233  1.5157
 9154WAT     H237337   4.768   1.892   0.991  1.1464  3.9038 -0.2844
 9154WAT    EPW37338   4.750   1.886   0.916  0.0840  1.0071  0.0775
 9155WAT      O37339   6.843   0.136   6.735 -0.2556 -0.0246  0.1025
 9155WAT     H137340   6.860   0.177   6.660 -1.3855 -0.3947 -0.3712
 9155WAT     H237341   6.918   0.093   6.752  0.2577  0.6484 -0.4121
 9155WAT    EPW37342   6.857   0.135   6.727 -0.3467  0.0201 -0.0435
 9156WAT      O37343   7.179   4.693   6.075  0.2754  0.3162  0.0081
 9156WAT     H137344   7.205   4.722   5.997  1.9436 -0.4358  0.2305
 9156WAT     H237345   7.094   4.712   6.078  0.1925  0.3877 -1.9707
 9156WAT    EPW37346   7.170   4.700   6.064  0.5096  0.2157 -0.2514
 9157WAT      O37347   1.304   1.858   4.395 -0.1469 -0.0837 -0.3640
 9157WAT     H137348   1.251   1.789   4.395  0.5484 -0.6505  1.1890
 9157WAT     H237349   1.299   1.888   4.477  2.6843 -0.7920  0.1814
 9157WAT    EPW37350   1.295   1.853   4.407  0.3740 -0.2721 -0.0540
 9158WAT      O37351   1.075   0.523   5.246 -0.3814 -0.2162  0.6792
 9158WAT     H137352   1.152   0.513   5.285  0.4160  0.2377 -0.7420
 9158WAT     H237353   1.055   0.607   5.260 -0.7521 -0.3887  1.2433
 9158WAT    EPW37354   1.083   0.534   5.254 -0.3184 -0.1746  0.5526
 9159WAT      O37355   3.517   0.804   1.268  0.7793  0.3564  0.0714
 9159WAT     H137356   3.512   0.731   1.222 -0.2624  0.3449  0.1576
 9159WAT     H237357   3.549   0.779   1.345 -0.9493 -0.3087  0.6247
 9159WAT    EPW37358   3.521   0.790   1.273  0.3700  0.2564  0.1659
 9160WAT      O37359   1.899   7.513   4.441 -0.2014  0.3302 -0.0555
 9160WAT     H137360   1.891   7.570   4.375  0.3781  0.7207  0.2058
 9160WAT     H237361   1.901   7.564   4.512  1.1410  0.0467  0.1323
 9160WAT    EPW37362   1.898   7.529   4.442  0.0825  0.3460  0.0108
 9161WAT      O37363   3.779   3.003   6.208  0.0835  0.1023 -0.3274
 9161WAT     H137364   3.846   3.012   6.154  0.9754 -0.4363  0.6584
 9161WAT     H237365   3.739   2.931   6.179  0.9562 -0.5811  0.1184
 9161WAT    EPW37366   3.783   2.993   6.195  0.3442 -0.0782 -0.1159
 9162WAT      O37367   2.199   1.620   1.816  0.4291  0.0897  0.0413
 9162WAT     H137368   2.179   1.641   1.734  2.4147  0.4467 -0.4108
 9162WAT     H237369   2.254   1.552   1.808 -1.6651 -1.8992  1.2573
 9162WAT    EPW37370   2.204   1.613   1.803  0.4130 -0.1514  0.1541
 9163WAT      O37371   5.979   0.783   0.271  0.3091 -0.2006 -0.0475
 9163WAT     H137372   5.898   0.758   0.294  0.1826 -1.0017 -1.2681
 9163WAT     H237373   5.967   0.862   0.237 -0.0744 -0.5375 -0.7284
 9163WAT    EPW37374   5.965   0.791   0.269  0.2338 -0.3687 -0.3284
 9164WAT      O37375   6.874   3.206   5.933  0.4504  0.1116  0.4218
 9164WAT     H137376   6.951   3.236   5.905  0.1640  1.0212  0.5631
 9164WAT     H237377   6.863   3.132   5.888  1.5472 -0.1932  0.6396
 9164WAT    EPW37378   6.884   3.200   5.922  0.5701  0.2009  0.4749
 9165WAT      O37379   2.304   0.380   6.157 -0.1070 -0.5165  0.0783
 9165WAT     H137380   2.277   0.462   6.148  2.0928  0.1302 -1.6696
 9165WAT     H237381   2.364   0.385   6.221  0.9033 -0.4600 -0.8389
 9165WAT    EPW37382   2.309   0.393   6.165  0.3672 -0.4126 -0.3154
 9166WAT      O37383   5.396   3.598   5.541 -0.1090  0.4158 -0.0303
 9166WAT     H137384   5.466   3.620   5.589  1.2377 -0.8894 -1.2957
 9166WAT     H237385   5.333   3.588   5.600  1.5282 -1.3214  1.5708
 9166WAT    EPW37386   5.397   3.600   5.557  0.3318 -0.0336  0.0193
 9167WAT      O37387   7.531   1.394   3.985 -0.4430 -0.4839  0.0988
 9167WAT     H137388   7.522   1.338   4.052  2.0923 -0.2118  0.7803
 9167WAT     H237389   7.474   1.365   3.926 -2.0965 -1.2935  2.0089
 9167WAT    EPW37390   7.522   1.381   3.986 -0.3127 -0.5633  0.4816
 9168WAT      O37391   4.520   2.049   2.211  0.5356 -0.3107 -0.2448
 9168WAT     H137392   4.455   2.009   2.168 -0.2122  1.0919 -0.4888
 9168WAT     H237393   4.512   2.020   2.292 -0.2011 -0.4036 -0.3454
 9168WAT    EPW37394   4.509   2.039   2.216  0.3163 -0.1172 -0.2957
 9169WAT      O37395   1.574   1.280   4.744  0.1177  0.3203 -0.7055
 9169WAT     H137396   1.500   1.326   4.754  0.4407  0.8268 -0.6516
 9169WAT     H237397   1.557   1.229   4.675 -0.4504  0.1074 -0.4139
 9169WAT    EPW37398   1.560   1.279   4.735  0.0815  0.3636 -0.6545
 9170WAT      O37399   5.753   1.824   0.039  1.0585  0.1811 -0.1234
 9170WAT     H137400   5.789   1.790   0.111 -0.5607 -1.5411 -0.0557
 9170WAT     H237401   5.735   1.906   0.062 -1.3973 -0.8835  2.3053
 9170WAT    EPW37402   5.756   1.831   0.053  0.4565 -0.2305  0.2454
 9171WAT      O37403   5.937   4.480   7.008  0.0877 -0.5103  0.7772
 9171WAT     H137404   5.900   4.401   7.001 -0.5795 -0.4512  2.9640
 9171WAT     H237405   5.987   4.473   7.079 -0.7450  1.3045  1.5954
 9171WAT    EPW37406   5.939   4.467   7.017 -0.1339 -0.2335  1.2211
 9172WAT      O37407   1.601   1.148   3.421 -0.2088  0.7890 -0.2462
 9172WAT     H137408   1.642   1.077   3.451 -0.0685  0.5304 -1.0303
 9172WAT     H237409   1.654   1.213   3.443 -0.4764  0.6885  0.7298
 9172WAT    EPW37410   1.615   1.147   3.428 -0.2276  0.7360 -0.2179
 9173WAT      O37411   5.321   0.811   7.546  0.4257 -0.2687 -0.1125
 9173WAT     H137412   5.338   0.884   7.591 -2.0266  0.7157 -0.6141
 9173WAT     H237413   5.344   0.747   7.600 -1.1589  0.8880  2.0594
 9173WAT    EPW37414   5.327   0.812   7.560 -0.1706  0.0476  0.1342
 9174WAT      O37415   3.003   7.172   4.096 -0.1929  0.0929 -0.3371
 9174WAT     H137416   2.957   7.120   4.042  1.6127 -1.8375 -0.1304
 9174WAT     H237417   3.005   7.127   4.170  1.0012  0.7091  0.0157
 9174WAT    EPW37418   2.996   7.158   4.099  0.2502 -0.1012 -0.2544
 9175WAT      O37419   1.883   5.681   6.882  0.4980 -0.0926  0.0437
 9175WAT     H137420   1.845   5.626   6.937  1.6144  0.3661  1.3261
 9175WAT     H237421   1.957   5.641   6.860  1.3063  0.8354  0.9570
 9175WAT    EPW37422   1.889   5.667   6.887  0.7823  0.1122  0.3681
 9176WAT      O37423   1.535   0.380   0.788  0.3456  0.2083  0.0085
 9176WAT     H137424   1.505   0.434   0.727 -1.8097  1.5213  2.0890
 9176WAT     H237425   1.482   0.311   0.783 -0.1315  0.5135  0.6212
 9176WAT    EPW37426   1.523   0.378   0.779 -0.0433  0.4474  0.4063
 9177WAT      O37427   4.622   4.926   0.384  0.0181  0.1460  0.0501
 9177WAT     H137428   4.664   4.914   0.460  0.6836 -0.1919 -0.3629
 9177WAT     H237429   4.684   4.957   0.331  0.0732 -1.5525 -0.9236
 9177WAT    EPW37430   4.637   4.929   0.387  0.1245 -0.1548 -0.1547
 9178WAT      O37431   4.638   1.168   1.112 -0.1852  0.3522 -0.2013
 9178WAT     H137432   4.694   1.110   1.145  1.7950  2.8808  1.2629
 9178WAT     H237433   4.579   1.178   1.176  0.1212  0.7580  0.0208
 9178WAT    EPW37434   4.637   1.161   1.126  0.1526  0.7857  0.0478
 9179WAT      O37435   5.010   2.521   4.404 -0.5489  0.1940  0.0553
 9179WAT     H137436   4.949   2.484   4.454 -2.3655  0.1455 -2.0698
 9179WAT     H237437   4.968   2.586   4.364  1.2734  1.3166 -0.1873
 9179WAT    EPW37438   4.995   2.525   4.406 -0.5481  0.3527 -0.2944
 9180WAT      O37439   5.434   0.197   3.505  0.0231 -0.5952 -0.0310
 9180WAT     H137440   5.519   0.181   3.510  0.6330  1.4835 -2.1546
 9180WAT     H237441   5.421   0.256   3.568  0.0012 -1.2740  0.6211
 9180WAT    EPW37442   5.444   0.204   3.515  0.1099 -0.3884 -0.2484
 9181WAT      O37443   4.148   3.395   5.272  0.2502  0.3577 -0.4285
 9181WAT     H137444   4.067   3.364   5.267 -0.0020  0.9132  0.1608
 9181WAT     H237445   4.149   3.461   5.214  0.4258  0.0573 -0.7753
 9181WAT    EPW37446   4.136   3.400   5.262  0.2389  0.3954 -0.3926
 9182WAT      O37447   2.378   1.163   6.608 -0.0110  0.5506  0.0421
 9182WAT     H137448   2.308   1.200   6.646 -0.2262 -0.1391  0.3373
 9182WAT     H237449   2.426   1.137   6.676  0.3155  0.6182 -0.1644
 9182WAT    EPW37450   2.375   1.165   6.624  0.0055  0.4587  0.0552
 9183WAT      O37451   1.263   5.615   4.017 -0.1993 -0.0298 -0.7291
 9183WAT     H137452   1.292   5.611   3.935 -1.2361  0.1150 -1.1165
 9183WAT     H237453   1.322   5.568   4.061  1.6719  1.7861 -1.1440
 9183WAT    EPW37454   1.276   5.607   4.011 -0.0760  0.2598 -0.8476
 9184WAT      O37455   3.382   4.670   6.705 -0.0885 -0.0371  0.1337
 9184WAT     H137456   3.374   4.751   6.676 -0.0916  0.6472  1.9462
 9184WAT     H237457   3.462   4.669   6.740 -0.6341 -0.3729  1.4019
 9184WAT    EPW37458   3.393   4.682   6.706 -0.1696  0.0144  0.5888
 9185WAT      O37459   4.917   1.049   0.173 -0.1030  0.3120  1.0659
 9185WAT     H137460   4.887   1.121   0.134 -0.1868 -0.8364 -1.1716
 9185WAT     H237461   4.882   0.985   0.126  1.4262 -1.1503  1.8242
 9185WAT    EPW37462   4.908   1.050   0.160  0.1105 -0.0737  0.8474
 9186WAT      O37463   3.748   2.336   4.410  0.0280 -0.8993  0.3888
 9186WAT     H137464   3.696   2.406   4.410  0.3965 -0.5314 -2.0697
 9186WAT     H237465   3.804   2.351   4.475 -0.3876  0.7435  0.3960
 9186WAT    EPW37466   3.749   2.349   4.419  0.0211 -0.6023  0.0267
 9187WAT      O37467   1.398   7.400   6.402 -0.3161  0.1548 -0.3785
 9187WAT     H137468   1.467   7.452   6.414  0.2361 -0.4191 -1.0367
 9187WAT     H237469   1.377   7.375   6.483 -0.4329  1.1829 -0.0744
 9187WAT    EPW37470   1.405   7.404   6.416 -0.2518  0.2219 -0.4308
 9188WAT      O37471   1.352   6.824   6.393  0.0854  0.2265  0.4654
 9188WAT     H137472   1.313   6.796   6.466  1.3374 -0.1812  0.9998
 9188WAT     H237473   1.306   6.895   6.371 -2.7402 -1.7493 -0.5288
 9188WAT    EPW37474   1.340   6.831   6.401 -0.1471 -0.1256  0.3975
 9189WAT      O37475   6.927   3.074   7.508  0.7034 -0.1968  0.3724
 9189WAT     H137476   6.943   3.105   7.429 -0.8946  1.9762  0.8026
 9189WAT     H237477   6.840   3.071   7.512  0.7504 -0.7591  1.8758
 9189WAT    EPW37478   6.916   3.078   7.497  0.4743  0.0411  0.6581
 9190WAT      O37479   3.561   5.810   2.438 -0.3879  0.0305  0.3927
 9190WAT     H137480   3.530   5.779   2.513 -0.3146 -0.8660  0.0659
 9190WAT     H237481   3.495   5.860   2.408 -1.3958 -1.4926 -0.0755
 9190WAT    EPW37482   3.546   5.813   2.445 -0.5260 -0.3269  0.2753
 9191WAT      O37483   2.947   7.120   1.633  0.8197  0.3093 -0.0363
 9191WAT     H137484   2.934   7.202   1.605  1.1926  0.6014  0.6270
 9191WAT     H237485   2.870   7.081   1.616  0.8358  0.6264 -0.9051
 9191WAT    EPW37486   2.933   7.127   1.626  0.8771  0.3993 -0.0666
 9192WAT      O37487   3.148   6.412   4.666 -0.3442 -0.7213  0.3531
 9192WAT     H137488   3.195   6.431   4.737 -0.0273  1.5053 -0.3910
 9192WAT     H237489   3.082   6.468   4.668 -0.3613 -0.6369 -1.0732
 9192WAT    EPW37490   3.145   6.423   4.677 -0.2999 -0.3799  0.0325
 9193WAT      O37491   2.553   7.055   6.471  0.1477 -0.1386  0.5057
 9193WAT     H137492   2.637   7.064   6.446  0.2499  1.2659  1.2411
 9193WAT     H237493   2.559   7.025   6.552 -0.0735 -0.4303  0.4147
 9193WAT    EPW37494   2.567   7.052   6.479  0.1301  0.0258  0.6009
 9194WAT      O37495   6.511   0.992   4.479  0.8192 -0.3164 -0.0168
 9194WAT     H137496   6.509   0.910   4.509  1.4261 -0.0664  0.7598
 9194WAT     H237497   6.533   0.983   4.395  2.3332 -0.8952  0.4054
 9194WAT    EPW37498   6.514   0.978   4.471  1.1325 -0.3650  0.1603
 9195WAT      O37499   2.881   6.501   4.707 -0.3201 -0.7562  0.0480
 9195WAT     H137500   2.845   6.519   4.629 -1.2365 -0.2412  0.5701
 9195WAT     H237501   2.814   6.509   4.762  0.4975 -0.3149  0.9882
 9195WAT    EPW37502   2.866   6.505   4.703 -0.3347 -0.6149  0.2640
 9196WAT      O37503   3.151   6.669   4.322  0.3013 -0.3997 -0.0825
 9196WAT     H137504   3.221   6.618   4.313  2.3998  1.8264  1.9785
 9196WAT     H237505   3.182   6.739   4.362 -2.9591  1.2506 -0.1050
 9196WAT    EPW37506   3.166   6.671   4.327  0.1296  0.1729  0.2186
 9197WAT      O37507   6.160   1.435   7.278  0.4890  0.5124 -0.3319
 9197WAT     H137508   6.098   1.403   7.331  1.3046  2.1665  1.7947
 9197WAT     H237509   6.115   1.469   7.212 -0.5993 -1.3412 -0.6424
 9197WAT    EPW37510   6.144   1.435   7.276  0.4487  0.4829 -0.0636
 9198WAT      O37511   3.696   7.604   0.895 -0.1234  0.5898  0.0950
 9198WAT     H137512   3.657   7.598   0.817 -1.9118 -2.6165  1.0778
 9198WAT     H237513   3.778   7.578   0.878 -1.3110 -3.5657 -0.3722
 9198WAT    EPW37514   3.702   7.600   0.881 -0.5630 -0.4977  0.1712
 9199WAT      O37515   4.513   7.491   5.775 -0.0307  0.4264 -0.3406
 9199WAT     H137516   4.499   7.565   5.731  1.7726  0.7047 -0.5448
 9199WAT     H237517   4.536   7.518   5.855  1.0771  0.1440 -0.5416
 9199WAT    EPW37518   4.514   7.506   5.781  0.3994  0.4258 -0.4005
 9200WAT      O37519   4.484   1.497   7.173  0.0432 -0.3399  0.1207
 9200WAT     H137520   4.498   1.579   7.198  1.0336 -0.2601 -0.6344
 9200WAT     H237521   4.438   1.505   7.099 -0.9452 -0.5124  0.7008
 9200WAT    EPW37522   4.479   1.510   7.166  0.0435 -0.3536  0.0948
 9201WAT      O37523   2.804   5.730   4.993 -0.3080 -0.5023 -0.2720
 9201WAT     H137524   2.874   5.710   5.042  0.4708  0.9010 -0.7543
 9201WAT     H237525   2.837   5.737   4.913 -0.6887  1.5773 -0.2977
 9201WAT    EPW37526   2.819   5.728   4.989 -0.2492  0.0122 -0.3470
 9202WAT      O37527   1.435   7.590   6.640  0.3276 -0.0149  0.3017
 9202WAT     H137528   1.447   7.675   6.628  1.1779 -0.0746  0.6494
 9202WAT     H237529   1.513   7.562   6.668  0.0916 -0.9276  0.0763
 9202WAT    EPW37530   1.449   7.598   6.643  0.4183 -0.1585  0.3198
 9203WAT      O37531   5.397   6.253   4.714  0.1010  0.2048  0.3358
 9203WAT     H137532   5.340   6.319   4.707 -0.6025 -0.5230 -1.2163
 9203WAT     H237533   5.448   6.262   4.643  0.6910 -0.3091  0.6789
 9203WAT    EPW37534   5.396   6.264   4.702  0.0843  0.0214  0.1572
 9204WAT      O37535   5.160   5.118   0.944 -0.1269 -0.0267 -0.4570
 9204WAT     H137536   5.171   5.161   1.019  0.4131  1.5777 -1.4075
 9204WAT     H237537   5.241   5.101   0.917 -0.3118 -0.4928 -0.7303
 9204WAT    EPW37538   5.173   5.122   0.951 -0.0745  0.1414 -0.6378
 9205WAT      O37539   2.778   1.827   6.002 -0.1850 -0.7964  0.1758
 9205WAT     H137540   2.857   1.798   5.979 -0.7540 -1.0722 -1.5183
 9205WAT     H237541   2.791   1.912   6.017  0.2482 -0.6115 -1.1507
 9205WAT    EPW37542   2.792   1.835   6.001 -0.2051 -0.8098 -0.2704
 9206WAT      O37543   5.720   7.196   2.519  0.8354 -0.6491  0.2223
 9206WAT     H137544   5.711   7.281   2.536  2.5211 -0.2340 -0.7403
 9206WAT     H237545   5.718   7.192   2.432  1.3944 -1.5153  0.2401
 9206WAT    EPW37546   5.718   7.208   2.509  1.1670 -0.7157  0.0827
 9207WAT      O37547   5.886   6.661   7.638  0.1560  0.4340 -0.2474
 9207WAT     H137548   5.818   6.706   7.607 -1.1714 -1.5433 -0.4181
 9207WAT     H237549   5.858   6.578   7.637  2.8625 -0.5910 -1.0852
 9207WAT    EPW37550   5.872   6.655   7.633  0.3597 -0.0095 -0.3964
 9208WAT      O37551   6.323   2.303   5.237  0.6555 -0.2461 -0.1466
 9208WAT     H137552   6.296   2.296   5.154 -2.1714 -0.7775  0.6969
 9208WAT     H237553   6.378   2.236   5.246 -0.5363 -1.4222 -1.1172
 9208WAT    EPW37554   6.327   2.292   5.226  0.0619 -0.4983 -0.1654
 9209WAT      O37555   1.994   2.653   4.528 -0.0682 -0.3611  0.0203
 9209WAT     H137556   2.072   2.645   4.490 -0.6474 -1.5740 -1.0128
 9209WAT     H237557   2.011   2.694   4.603  1.4270  0.1651 -0.5801
 9209WAT    EPW37558   2.008   2.658   4.534  0.0671 -0.4626 -0.2210
 9210WAT      O37559   3.630   1.806   1.606  0.1443 -0.2538 -0.7266
 9210WAT     H137560   3.552   1.830   1.576  1.5866  2.4971 -2.6882
 9210WAT     H237561   3.648   1.866   1.667 -0.1156 -2.1919  1.3876
 9210WAT    EPW37562   3.621   1.818   1.610  0.3190 -0.1337 -0.7041
 9211WAT      O37563   4.889   5.822   3.028 -0.2253  0.1543 -0.2938
 9211WAT     H137564   4.820   5.864   2.995  0.7472  1.7440 -0.4237
 9211WAT     H237565   4.948   5.824   2.963 -0.2371 -1.7871 -0.4349
 9211WAT    EPW37566   4.888   5.828   3.014 -0.0834  0.1023 -0.3338
 9212WAT      O37567   1.085   5.901   4.284 -0.0854 -0.4793  0.3409
 9212WAT     H137568   1.154   5.910   4.232  0.6568 -1.1105  1.1822
 9212WAT     H237569   1.114   5.925   4.362 -0.4376 -1.9124  0.9565
 9212WAT    EPW37570   1.099   5.906   4.288 -0.0278 -0.7842  0.5561
 9213WAT      O37571   3.773   0.182   2.294 -0.4928 -0.8000 -0.1033
 9213WAT     H137572   3.849   0.157   2.258 -0.6910  0.7312 -1.7795
 9213WAT     H237573   3.722   0.112   2.285  0.4511 -1.5515  0.2105
 9213WAT    EPW37574   3.777   0.168   2.287 -0.3826 -0.6848 -0.3045
 9214WAT      O37575   0.396   7.212   6.759  0.2776  0.1911  0.1873
 9214WAT     H137576   0.319   7.235   6.725 -0.0712 -2.7501 -1.3483
 9214WAT     H237577   0.453   7.258   6.711 -0.4588  1.0575  0.1148
 9214WAT    EPW37578   0.393   7.222   6.747  0.1173 -0.1154 -0.0502
 9215WAT      O37579   2.304   7.247   4.143  0.2994  0.0618  0.3496
 9215WAT     H137580   2.228   7.269   4.105  0.8266 -0.1273 -0.8759
 9215WAT     H237581   2.282   7.232   4.226 -0.8925  0.6144  0.1561
 9215WAT    EPW37582   2.289   7.248   4.150  0.2012  0.1155  0.1400
 9216WAT      O37583   0.385   4.197   4.730  0.2028  0.1103  0.3453
 9216WAT     H137584   0.379   4.277   4.695 -0.6336 -0.6970 -1.5093
 9216WAT     H237585   0.344   4.205   4.807 -0.3667  1.3346 -0.0564
 9216WAT    EPW37586   0.378   4.210   4.736 -0.0049  0.1719  0.0120
 9217WAT      O37587   1.028   3.328   7.352  0.1635 -0.0565 -0.4427
 9217WAT     H137588   1.013   3.404   7.392 -0.5057 -0.4745  0.1326
 9217WAT     H237589   0.955   3.315   7.305 -0.0770 -0.7381  0.1104
 9217WAT    EPW37590   1.015   3.338   7.351  0.0291 -0.2189 -0.2760
 9218WAT      O37591   3.226   1.403   1.374 -0.0748  0.3165 -0.1113
 9218WAT     H137592   3.227   1.438   1.455 -0.7941  0.0049  0.0400
 9218WAT     H237593   3.225   1.317   1.389 -4.4569  0.1453 -0.2859
 9218WAT    EPW37594   3.226   1.395   1.389 -0.8284  0.2452 -0.1147
 9219WAT      O37595   5.404   2.542   6.781  0.3781 -0.1049  0.2602
 9219WAT     H137596   5.333   2.502   6.813  0.7011  0.6872  2.1232
 9219WAT     H237597   5.446   2.569   6.853  0.3392  3.2692 -0.8075
 9219WAT    EPW37598   5.399   2.540   6.796  0.4200  0.5105  0.3777
 9220WAT      O37599   1.280   6.240   4.499  0.0349  0.3740 -0.3984
 9220WAT     H137600   1.268   6.153   4.494 -0.8638  0.1694  2.8808
 9220WAT     H237601   1.215   6.273   4.452 -1.5219 -0.7987  0.8396
 9220WAT    EPW37602   1.269   6.232   4.491 -0.3278  0.1706  0.2689
 9221WAT      O37603   4.268   7.353   0.886 -0.5354 -0.6883  0.2967
 9221WAT     H137604   4.201   7.326   0.836 -1.0965 -1.0048  1.1974
 9221WAT     H237605   4.334   7.360   0.830 -1.4923  0.3250 -0.7622
 9221WAT    EPW37606   4.268   7.350   0.870 -0.7596 -0.5853  0.2733
 9222WAT      O37607   5.612   2.405   7.349  0.0698  0.0513 -0.5850
 9222WAT     H137608   5.640   2.370   7.274  2.3606  0.4243  0.0243
 9222WAT     H237609   5.673   2.381   7.407 -1.3700  0.2129  1.0743
 9222WAT    EPW37610   5.625   2.396   7.347  0.1955  0.1303 -0.2499
 9223WAT      O37611   2.117   2.907   3.183 -0.6907  0.1773 -0.4974
 9223WAT     H137612   2.152   2.970   3.135 -0.2433 -0.2879 -0.7933
 9223WAT     H237613   2.036   2.935   3.198 -1.4060 -0.3371 -2.8570
 9223WAT    EPW37614   2.110   2.920   3.178 -0.7303  0.0326 -0.8897
 9224WAT      O37615   3.072   3.144   4.985 -0.2792  0.4675 -0.4314
 9224WAT     H137616   3.116   3.204   4.939 -0.3175  0.6481 -0.2386
 9224WAT     H237617   3.047   3.086   4.926 -1.4513  1.3630 -0.8443
 9224WAT    EPW37618   3.075   3.145   4.970 -0.4580  0.6265 -0.4639
 9225WAT      O37619   3.698   6.492   6.346  0.0882  0.1806 -0.3117
 9225WAT     H137620   3.641   6.498   6.281  0.5658  0.3605 -0.7259
 9225WAT     H237621   3.687   6.411   6.376  0.1088 -0.0275 -0.8530
 9225WAT    EPW37622   3.688   6.481   6.341  0.1618  0.1764 -0.4528
 9226WAT      O37623   5.940   4.456   0.419  0.4008 -0.4294 -0.0271
 9226WAT     H137624   5.947   4.470   0.505  0.0957  1.2301 -0.2460
 9226WAT     H237625   5.856   4.435   0.409  0.5761 -1.2491  0.1435
 9226WAT    EPW37626   5.929   4.455   0.430  0.3816 -0.3053 -0.0342
 9227WAT      O37627   2.253   5.776   3.091 -0.3921 -0.2308  0.1765
 9227WAT     H137628   2.197   5.842   3.079  0.5772  0.6301  0.2397
 9227WAT     H237629   2.331   5.816   3.094  0.0584 -1.1422  2.1752
 9227WAT    EPW37630   2.256   5.792   3.090 -0.1824 -0.2383  0.4811
 9228WAT      O37631   2.861   2.536   2.722 -0.1660  0.1071  0.0973
 9228WAT     H137632   2.933   2.530   2.672 -0.9011 -1.0904 -0.8933
 9228WAT     H237633   2.817   2.602   2.686 -0.0015  0.2090  0.0817
 9228WAT    EPW37634   2.865   2.545   2.709 -0.2503 -0.0547 -0.0513
 9229WAT      O37635   4.992   7.620   6.707  0.0419 -0.1006 -0.5368
 9229WAT     H137636   4.935   7.577   6.757 -1.3029  1.6258 -0.4971
 9229WAT     H237637   4.942   7.656   6.645  1.3690 -0.1993 -1.7042
 9229WAT    EPW37638   4.976   7.619   6.705  0.0393  0.1398 -0.7034
 9230WAT      O37639   3.346   1.943   3.837 -0.2424 -0.3810  0.1487
 9230WAT     H137640   3.273   1.985   3.813 -0.9792 -0.9253  1.3400
 9230WAT     H237641   3.347   1.874   3.784  0.5532  0.6704 -1.2778
 9230WAT    EPW37642   3.335   1.939   3.826 -0.2337 -0.3061  0.1139
 9231WAT      O37643   2.728   0.800   1.482  0.2113 -0.1891 -0.6814
 9231WAT     H137644   2.790   0.861   1.486  0.6801 -0.6818 -0.3936
 9231WAT     H237645   2.747   0.747   1.548 -0.6685 -0.2095 -0.4343
 9231WAT    EPW37646   2.740   0.801   1.492  0.1506 -0.2649 -0.6024
 9232WAT      O37647   4.085   7.501   7.388 -0.7514 -0.3488  0.2963
 9232WAT     H137648   4.128   7.425   7.401 -1.1057 -0.2701  2.1031
 9232WAT     H237649   4.138   7.545   7.334 -0.1049 -1.5183 -0.0590
 9232WAT    EPW37650   4.099   7.496   7.382 -0.7082 -0.5100  0.5107
 9233WAT      O37651   4.812   3.920   6.691  0.0436  0.0605 -0.2333
 9233WAT     H137652   4.875   3.860   6.703 -1.6348 -2.0969 -1.5536
 9233WAT     H237653   4.798   3.918   6.605  0.0532  2.5995 -0.3750
 9233WAT    EPW37654   4.819   3.911   6.680 -0.2029  0.1168 -0.4492
 9234WAT      O37655   5.296   0.783   2.052 -0.4752  0.3771 -0.0615
 9234WAT     H137656   5.309   0.697   2.055 -0.0531  0.3912 -1.0057
 9234WAT     H237657   5.212   0.790   2.030 -0.6843  0.2180  0.6733
 9234WAT    EPW37658   5.286   0.772   2.049 -0.4437  0.3557 -0.0924
 9235WAT      O37659   4.058   0.151   2.167  0.5718  0.5502 -0.3297
 9235WAT     H137660   4.056   0.094   2.233 -1.4616 -0.8844 -1.5186
 9235WAT     H237661   4.018   0.108   2.102  0.6876  2.6558 -1.8754
 9235WAT    EPW37662   4.052   0.136   2.167  0.2885  0.6493 -0.7337
 9236WAT      O37663   0.936   6.901   5.680 -0.4094 -0.0941  0.7044
 9236WAT     H137664   0.854   6.879   5.660  0.2483 -2.9451  0.8044
 9236WAT     H237665   0.941   6.886   5.765  0.3149 -0.2129  0.6419
 9236WAT    EPW37666   0.924   6.896   5.690 -0.2053 -0.5328  0.7099
 9237WAT      O37667   7.487   0.480   5.562 -0.0498 -0.1219 -0.0242
 9237WAT     H137668   7.527   0.429   5.504 -1.6061  0.8575 -2.0790
 9237WAT     H237669   7.479   0.429   5.633  2.2750 -1.2254 -0.4656
 9237WAT    EPW37670   7.492   0.465   5.564  0.0637 -0.1402 -0.3929
 9238WAT      O37671   2.240   6.207   1.262  0.0571  0.3051  0.3557
 9238WAT     H137672   2.162   6.170   1.275 -0.0148 -1.0410 -2.8041
 9238WAT     H237673   2.242   6.220   1.176  3.2393  0.5018  0.3410
 9238WAT    EPW37674   2.229   6.203   1.251  0.5165  0.1353 -0.1132
 9239WAT      O37675   3.859   5.862   0.537 -0.0656 -0.5376 -0.4302
 9239WAT     H137676   3.908   5.855   0.465 -0.8171 -0.1820 -0.9890
 9239WAT     H237677   3.801   5.924   0.517 -0.3512 -0.5052  0.4466
 9239WAT    EPW37678   3.857   5.870   0.523 -0.2188 -0.4803 -0.3832
 9240WAT      O37679   2.300   5.587   6.970  0.0580  0.2182  0.5005
 9240WAT     H137680   2.370   5.553   6.929  0.4772  1.0060  0.5311
 9240WAT     H237681   2.326   5.668   6.989 -0.6598  0.3219  1.0528
 9240WAT    EPW37682   2.314   5.594   6.966  0.0139  0.3499  0.5866
 9241WAT      O37683   6.917   3.944   5.846 -0.1004 -0.7352  0.2367
 9241WAT     H137684   6.903   3.909   5.925 -3.8515  0.0131  0.0895
 9241WAT     H237685   6.917   4.029   5.862 -0.8980 -0.5811 -0.5285
 9241WAT    EPW37686   6.915   3.951   5.860 -0.7723 -0.6019  0.1019
 9242WAT      O37687   3.184   4.441   2.365 -0.2608  0.0356 -0.4570
 9242WAT     H137688   3.195   4.386   2.432 -1.8378  0.9120  0.5617
 9242WAT     H237689   3.119   4.405   2.320 -1.4493  1.1327  0.3339
 9242WAT    EPW37690   3.176   4.428   2.368 -0.6693  0.3271 -0.1897
 9243WAT      O37691   1.150   7.441   4.311 -0.7210 -0.4355  0.4238
 9243WAT     H137692   1.160   7.358   4.338 -2.8882 -0.6143  0.8450
 9243WAT     H237693   1.131   7.484   4.385 -0.1358  0.3553  0.1285
 9243WAT    EPW37694   1.149   7.435   4.326 -0.9547 -0.3451  0.4424
 9244WAT      O37695   2.288   1.252   1.208  0.5309  0.4595  0.4564
 9244WAT     H137696   2.235   1.236   1.140  1.6369  1.5981 -0.7323
 9244WAT     H237697   2.354   1.197   1.195  0.9788  1.0250  0.3270
 9244WAT    EPW37698   2.290   1.241   1.196  0.7604  0.7112  0.2617
 9245WAT      O37699   2.344   7.010   4.585 -0.1656  0.2980  0.1616
 9245WAT     H137700   2.261   6.994   4.565  0.5473 -2.5198 -1.0497
 9245WAT     H237701   2.353   6.977   4.665  0.3801 -2.2018 -0.8406
 9245WAT    EPW37702   2.333   7.003   4.594  0.0204 -0.4875 -0.1654
 9246WAT      O37703   5.683   1.896   5.196 -0.3640 -0.4703 -0.4101
 9246WAT     H137704   5.695   1.848   5.269  1.8753  0.0671 -0.3496
 9246WAT     H237705   5.685   1.837   5.133 -1.5417 -0.8542 -0.1172
 9246WAT    EPW37706   5.685   1.880   5.198 -0.2072 -0.4476 -0.3579
 9247WAT      O37707   3.644   6.751   6.532  0.1125 -0.1444  0.1362
 9247WAT     H137708   3.680   6.698   6.472  1.6282  0.0232  0.8441
 9247WAT     H237709   3.559   6.751   6.511  0.3497 -1.4009 -0.9887
 9247WAT    EPW37710   3.637   6.743   6.520  0.3714 -0.3053  0.0746
 9248WAT      O37711   5.759   0.451   4.679 -0.5955  0.1013 -0.4189
 9248WAT     H137712   5.799   0.527   4.696 -0.3812 -0.1389  0.1539
 9248WAT     H237713   5.688   0.454   4.729 -1.3564  0.5449 -1.4600
 9248WAT    EPW37714   5.754   0.463   4.689 -0.6763  0.1314 -0.4881
 9249WAT      O37715   1.131   4.430   5.066 -0.0091 -0.0354  0.7697
 9249WAT     H137716   1.149   4.401   5.147 -0.1339 -1.2143  0.3887
 9249WAT     H237717   1.127   4.357   5.019 -0.2359  0.6283 -0.2511
 9249WAT    EPW37718   1.133   4.415   5.071 -0.0610 -0.1115  0.5626
 9250WAT      O37719   7.281   7.661   6.156 -0.3371 -0.7359  0.2406
 9250WAT     H137720   7.257   7.602   6.096  0.4715 -1.5428  0.6816
 9250WAT     H237721   7.317   7.612   6.219  1.7524  0.3290 -0.0415
 9250WAT    EPW37722   7.283   7.645   6.157  0.0910 -0.6978  0.2641
 9251WAT      O37723   4.182   7.618   3.987  0.1640 -0.1013 -0.2044
 9251WAT     H137724   4.242   7.679   3.971  1.0539 -1.0349 -0.5277
 9251WAT     H237725   4.112   7.645   3.942  0.7674  0.3143 -0.9103
 9251WAT    EPW37726   4.180   7.631   3.978  0.3846 -0.1778 -0.3565
 9252WAT      O37727   7.461   4.373   5.563 -0.4742  0.1257  0.2910
 9252WAT     H137728   7.452   4.418   5.490 -0.3150  0.8931  0.7358
 9252WAT     H237729   7.537   4.330   5.552 -1.1287 -0.8613 -0.5512
 9252WAT    EPW37730   7.471   4.373   5.551 -0.5474  0.0932  0.2323
 9253WAT      O37731   1.801   1.267   0.604  0.1013 -0.1150  0.4718
 9253WAT     H137732   1.783   1.351   0.589 -2.3026 -0.6585 -0.0325
 9253WAT     H237733   1.825   1.266   0.688  0.1304  1.0642  0.4932
 9253WAT    EPW37734   1.802   1.279   0.615 -0.2495 -0.0211  0.4005
 9254WAT      O37735   3.088   0.786   3.351 -0.0866  0.0314  0.3895
 9254WAT     H137736   3.143   0.837   3.395  0.7689  0.3271 -0.9530
 9254WAT     H237737   3.088   0.821   3.271 -0.9998 -0.9262 -0.0508
 9254WAT    EPW37738   3.096   0.799   3.346 -0.0951 -0.0664  0.1261
 9255WAT      O37739   2.429   2.321   3.942 -0.0173 -0.4474  0.4667
 9255WAT     H137740   2.488   2.374   3.905  0.2775 -1.0714  0.0090
 9255WAT     H237741   2.479   2.268   3.992 -0.1807 -0.9968  0.0550
 9255WAT    EPW37742   2.445   2.321   3.944  0.0021 -0.6207  0.3383
 9256WAT      O37743   6.624   0.418   5.572 -0.8058  0.0945 -0.0249
 9256WAT     H137744   6.552   0.460   5.546 -0.3878  0.1759 -1.0776
 9256WAT     H237745   6.595   0.337   5.589 -1.3969  0.4805  0.9116
 9256WAT    EPW37746   6.609   0.412   5.571 -0.8314  0.1635 -0.0421
 9257WAT      O37747   4.794   0.109   2.910 -0.4554 -0.5343 -0.2661
 9257WAT     H137748   4.880   0.115   2.923 -0.3822  0.8917 -1.2378
 9257WAT     H237749   4.784   0.123   2.825 -1.5856 -1.5849 -0.3314
 9257WAT    EPW37750   4.805   0.112   2.899 -0.6115 -0.4788 -0.4193
 9258WAT      O37751   2.145   1.294   2.633  0.4670  0.6485  0.0307
 9258WAT     H137752   2.152   1.274   2.549  0.6081 -1.0785  0.4275
 9258WAT     H237753   2.210   1.250   2.671  1.3714  2.5914  0.8823
 9258WAT    EPW37754   2.156   1.285   2.627  0.6215  0.6804  0.2151
 9259WAT      O37755   1.331   5.248   5.267 -0.1243 -0.7616 -0.0133
 9259WAT     H137756   1.272   5.204   5.219 -1.9876  1.8113 -0.3243
 9259WAT     H237757   1.302   5.331   5.263  2.9318  0.4609  0.8115
 9259WAT    EPW37758   1.318   5.254   5.259  0.0519 -0.2009  0.0626
 9260WAT      O37759   1.600   0.933   3.674 -0.0727  0.3326 -0.4546
 9260WAT     H137760   1.674   0.943   3.719 -0.7709  2.5483  0.3195
 9260WAT     H237761   1.553   1.004   3.695 -3.2316 -1.8394  0.5920
 9260WAT    EPW37762   1.604   0.945   3.684 -0.6424  0.3391 -0.1856
 9261WAT      O37763   2.797   6.397   1.006 -0.4975  0.0526 -0.1015
 9261WAT     H137764   2.728   6.394   1.058  0.8703  0.8771  1.8781
 9261WAT     H237765   2.833   6.318   1.016  1.2453  1.0461  2.4957
 9261WAT    EPW37766   2.792   6.385   1.015 -0.0380  0.3212  0.5746
 9262WAT      O37767   3.081   1.686   4.290 -0.4441 -0.5676  0.4990
 9262WAT     H137768   3.111   1.721   4.365  0.6255 -2.5733  1.0900
 9262WAT     H237769   3.127   1.728   4.229 -1.6923  1.4701  0.8493
 9262WAT    EPW37770   3.093   1.698   4.292 -0.4705 -0.5629  0.6381
 9263WAT      O37771   4.350   2.200   6.944  0.1058 -0.2553  0.5862
 9263WAT     H137772   4.291   2.158   6.991  0.2198 -1.0605  0.0308
 9263WAT     H237773   4.355   2.279   6.981 -0.6673 -0.4803  1.1675
 9263WAT    EPW37774   4.342   2.206   6.956  0.0084 -0.4075  0.5900
 9264WAT      O37775   3.341   1.064   2.763  0.2885 -0.0318 -0.5771
 9264WAT     H137776   3.352   1.038   2.846  1.3799 -1.0495 -1.0191
 9264WAT     H237777   3.381   1.141   2.760 -1.9590  1.2651  0.4528
 9264WAT    EPW37778   3.348   1.072   2.775  0.1177  0.0095 -0.4903
 9265WAT      O37779   5.931   5.662   3.838  0.2242  0.4830 -0.5057
 9265WAT     H137780   5.983   5.595   3.856  0.1492  0.2626 -1.0874
 9265WAT     H237781   5.923   5.704   3.914  1.1711  0.4614 -0.3876
 9265WAT    EPW37782   5.937   5.659   3.852  0.3530  0.4472 -0.5742
 9266WAT      O37783   3.534   2.125   1.993 -0.3970  0.5127 -0.2605
 9266WAT     H137784   3.542   2.211   1.995 -2.0739  0.7139 -0.6396
 9266WAT     H237785   3.586   2.097   2.057  0.4645  1.7672 -0.3984
 9266WAT    EPW37786   3.543   2.133   2.003 -0.5174  0.7278 -0.3368
 9267WAT      O37787   4.281   1.071   4.240 -0.3047  0.3795 -0.5293
 9267WAT     H137788   4.209   1.099   4.201 -1.2693  0.2848  1.0937
 9267WAT     H237789   4.282   1.113   4.317  0.9805 -0.1485 -0.2123
 9267WAT    EPW37790   4.271   1.081   4.246 -0.2574  0.2875 -0.2427
 9268WAT      O37791   4.736   5.571   3.004 -0.2920  0.4143 -0.0324
 9268WAT     H137792   4.705   5.594   2.925  1.3245 -0.3499 -0.9342
 9268WAT     H237793   4.794   5.633   3.023 -0.8157  0.7039  0.6828
 9268WAT    EPW37794   4.740   5.583   2.995 -0.1306  0.3442 -0.0599
 9269WAT      O37795   3.535   2.169   5.042 -0.1390 -0.4122 -0.2023
 9269WAT     H137796   3.494   2.244   5.028  2.2676  1.4923  1.9850
 9269WAT     H237797   3.470   2.110   5.042 -2.7199  2.1394  1.5361
 9269WAT    EPW37798   3.520   2.171   5.040 -0.1647  0.2461  0.3776
 9270WAT      O37799   5.554   0.394   1.085  0.1370  0.3172  0.0123
 9270WAT     H137800   5.616   0.357   1.035  0.3690  0.6152  0.0803
 9270WAT     H237801   5.590   0.399   1.163  0.2550  1.0575 -0.0843
 9270WAT    EPW37802   5.568   0.389   1.089  0.1887  0.4706  0.0081
 9271WAT      O37803   1.916   7.649   0.692 -0.2983 -0.1469 -0.4077
 9271WAT     H137804   1.879   7.571   0.679 -0.2642 -0.5620  1.6730
 9271WAT     H237805   1.928   7.652   0.779  0.8186  1.6709 -0.5733
 9271WAT    EPW37806   1.913   7.638   0.703 -0.1283  0.0603 -0.1248
 9272WAT      O37807   5.142   4.227   2.347  0.4190 -0.0347  0.1102
 9272WAT     H137808   5.060   4.206   2.368  0.4131  0.5054  0.6522
 9272WAT     H237809   5.180   4.150   2.330  0.3208 -0.4800  1.7476
 9272WAT    EPW37810   5.136   4.213   2.347  0.4036 -0.0207  0.4321
 9273WAT      O37811   3.575   1.185   1.890  0.0136  0.1302  0.0913
 9273WAT     H137812   3.597   1.102   1.905 -0.3947  0.4596  3.2560
 9273WAT     H237813   3.507   1.178   1.836 -0.9414 -1.7630  1.3916
 9273WAT    EPW37814   3.568   1.171   1.884 -0.1878 -0.1008  0.7509
 9274WAT      O37815   2.182   7.262   3.876 -0.0490  0.1389 -0.0050
 9274WAT     H137816   2.137   7.331   3.905  0.4057  0.0307  0.9961
 9274WAT     H237817   2.265   7.285   3.888  0.1132 -0.4434  0.0005
 9274WAT    EPW37818   2.187   7.276   3.882  0.0421  0.0369  0.1437
 9275WAT      O37819   2.978   7.211   7.224 -0.1393  0.2909  0.0724
 9275WAT     H137820   2.897   7.191   7.250 -0.3487  1.6131  0.5514
 9275WAT     H237821   2.966   7.280   7.172  0.6826  0.5632  0.2263
 9275WAT    EPW37822   2.964   7.218   7.220 -0.0488  0.5264  0.1659
 9276WAT      O37823   4.732   0.941   2.682 -0.6688  0.2119  0.2049
 9276WAT     H137824   4.751   0.945   2.767 -0.8442 -0.5283  0.2893
 9276WAT     H237825   4.794   0.888   2.650 -0.5640  0.5350 -0.1470
 9276WAT    EPW37826   4.744   0.934   2.690 -0.6792  0.1503  0.1654
 9277WAT      O37827   4.006   4.203   6.935 -0.3470 -0.0875 -0.9982
 9277WAT     H137828   3.984   4.151   7.002  3.4652 -0.4895  0.1565
 9277WAT     H237829   3.983   4.283   6.962  2.1752 -0.0542  1.5433
 9277WAT    EPW37830   3.999   4.207   6.949  0.5887 -0.1420 -0.4522
 9278WAT      O37831   0.081   4.134   6.250  0.6962  0.1039 -1.5928
 9278WAT     H137832   0.099   4.199   6.195 -0.4246  0.0265 -2.0800
 9278WAT     H237833   0.156   4.090   6.256  2.6768  3.3874  1.5599
 9278WAT    EPW37834   0.094   4.137   6.243  0.8232  0.5775 -1.1990
 9279WAT      O37835   7.221   7.344   4.484  0.3256  0.3552 -0.2331
 9279WAT     H137836   7.205   7.409   4.540 -1.5164  0.3872 -0.7396
 9279WAT     H237837   7.142   7.322   4.454  1.1057 -0.7202 -1.6486
 9279WAT    EPW37838   7.207   7.350   4.488  0.1687  0.2011 -0.5171
 9280WAT      O37839   3.957   6.076   2.300  0.1322 -0.3037  0.0460
 9280WAT     H137840   4.007   6.059   2.369  0.8832  0.7820 -0.1937
 9280WAT     H237841   4.013   6.075   2.233 -0.5153 -0.9423 -0.4979
 9280WAT    EPW37842   3.973   6.074   2.301  0.1474 -0.2377 -0.0697
 9281WAT      O37843   3.971   2.214   2.160  0.0309  0.3434  0.1728
 9281WAT     H137844   4.056   2.202   2.144  0.0394  1.9122 -1.2099
 9281WAT     H237845   3.963   2.301   2.162 -1.6944  0.2409 -0.6213
 9281WAT    EPW37846   3.983   2.225   2.158 -0.2227  0.5600 -0.1487
 9282WAT      O37847   2.826   7.126   2.242  0.1770 -0.7957  0.0920
 9282WAT     H137848   2.855   7.068   2.184  0.0612  0.0811 -0.8691
 9282WAT     H237849   2.760   7.165   2.200 -1.7513 -2.0148  1.8159
 9282WAT    EPW37850   2.820   7.123   2.227 -0.1250 -0.8463  0.2047
 9283WAT      O37851   0.953   7.460   6.731 -0.0262  0.2127  0.3367
 9283WAT     H137852   1.019   7.466   6.674 -0.0584 -0.2157  0.2553
 9283WAT     H237853   0.923   7.379   6.720  0.4992 -0.1697  1.5474
 9283WAT    EPW37854   0.958   7.449   6.721  0.0467  0.0929  0.5036
 9284WAT      O37855   3.373   4.314   5.744 -0.1896 -0.0619 -0.3748
 9284WAT     H137856   3.306   4.351   5.786 -1.1792  0.6461 -2.4092
 9284WAT     H237857   3.336   4.252   5.696  0.5249  0.4849 -1.7090
 9284WAT    EPW37858   3.358   4.311   5.743 -0.2302  0.1235 -0.8724
 9285WAT      O37859   3.569   7.672   2.270  0.5367  0.6427 -0.6428
 9285WAT     H137860   3.548   7.600   2.314  0.8258  1.0194  0.1125
 9285WAT     H237861   3.625   7.643   2.210  0.4441  0.1946 -0.5165
 9285WAT    EPW37862   3.574   7.657   2.267  0.5657  0.6321 -0.5126
 9286WAT      O37863   5.211   6.682   1.467 -0.6827  0.2984  0.5970
 9286WAT     H137864   5.291   6.687   1.432 -0.6123  2.7366  0.9300
 9286WAT     H237865   5.162   6.651   1.403  0.2275  0.4544 -0.1970
 9286WAT    EPW37866   5.216   6.678   1.453 -0.5378  0.6816  0.5289
 9287WAT      O37867   5.129   0.150   0.664  0.1753 -0.4784  0.5923
 9287WAT     H137868   5.091   0.109   0.598  2.0251 -1.3393  0.0017
 9287WAT     H237869   5.122   0.235   0.644  2.3378 -0.7509 -1.7394
 9287WAT    EPW37870   5.123   0.157   0.651  0.7680 -0.6458  0.1606
 9288WAT      O37871   0.761   4.834   5.283 -0.2115  0.1562  0.3397
 9288WAT     H137872   0.795   4.798   5.211  0.5839  0.3140  0.6225
 9288WAT     H237873   0.794   4.915   5.282 -1.1750  0.5514  0.2408
 9288WAT    EPW37874   0.771   4.841   5.272 -0.2363  0.2379  0.3668
 9289WAT      O37875   3.568   5.008   1.770 -0.2137  0.3599 -0.2557
 9289WAT     H137876   3.647   5.012   1.732  0.4779  1.6033  1.1847
 9289WAT     H237877   3.573   4.937   1.820  0.1007  0.5817  0.0325
 9289WAT    EPW37878   3.581   4.998   1.771 -0.0651  0.5763 -0.0004
 9290WAT      O37879   0.808   2.438   3.930 -0.3712 -0.2658  0.2928
 9290WAT     H137880   0.859   2.455   3.999  0.0046  1.8222 -0.4417
 9290WAT     H237881   0.860   2.391   3.878 -0.0206 -0.2130  0.5895
 9290WAT    EPW37882   0.823   2.434   3.933 -0.2639  0.0504  0.2281
 9291WAT      O37883   0.941   6.649   6.282  0.2167 -0.1536  0.0918
 9291WAT     H137884   0.990   6.610   6.220 -0.3567 -0.0830 -0.4151
 9291WAT     H237885   0.859   6.636   6.255 -0.0073  1.0609  0.1127
 9291WAT    EPW37886   0.936   6.641   6.269  0.0989  0.0362  0.0200
 9292WAT      O37887   5.864   6.047   6.547  0.0104 -0.1676 -0.3019
 9292WAT     H137888   5.794   6.088   6.514  0.6218  0.6531 -0.6179
 9292WAT     H237889   5.870   5.974   6.499  0.5091  0.7054 -1.6157
 9292WAT    EPW37890   5.855   6.042   6.535  0.1744  0.0826 -0.5427
 9293WAT      O37891   4.520   4.940   5.774  0.2866 -0.0207  0.1795
 9293WAT     H137892   4.480   4.982   5.709 -0.9102  0.3754  1.1252
 9293WAT     H237893   4.545   5.005   5.827  1.2085 -0.3398  0.1565
 9293WAT    EPW37894   4.518   4.956   5.772  0.2460 -0.0093  0.3158
 9294WAT      O37895   2.316   2.974   1.190 -1.1918 -0.3271  0.5602
 9294WAT     H137896   2.386   2.959   1.140 -1.0085 -1.3085  1.0936
 9294WAT     H237897   2.258   3.009   1.134 -0.0855  1.0836  0.2474
 9294WAT    EPW37898   2.318   2.977   1.174 -1.0013 -0.2637  0.5928
 9295WAT      O37899   7.330   3.057   7.315  0.0159 -0.4042 -0.0654
 9295WAT     H137900   7.330   2.982   7.358 -0.7970  0.3199  1.2681
 9295WAT     H237901   7.377   3.111   7.366  1.5158 -0.2460 -1.5173
 9295WAT    EPW37902   7.337   3.054   7.329  0.1174 -0.2739 -0.0829
 9296WAT      O37903   4.317   1.602   5.812  0.5614  0.1133 -0.0544
 9296WAT     H137904   4.291   1.578   5.891 -1.1909 -1.4986 -1.0300
 9296WAT     H237905   4.361   1.532   5.783  0.3751  0.3098 -0.8360
 9296WAT    EPW37906   4.320   1.588   5.819  0.2750 -0.0958 -0.3140
 9297WAT      O37907   5.743   5.974   0.840  0.3081 -0.0771 -0.1626
 9297WAT     H137908   5.692   5.924   0.889 -0.9154 -1.5855 -2.7911
 9297WAT     H237909   5.823   5.940   0.852 -0.0438 -0.7569  0.2973
 9297WAT    EPW37910   5.747   5.962   0.849  0.0754 -0.4004 -0.4829
 9298WAT      O37911   2.049   0.732   6.489 -0.7648  0.6208  0.4199
 9298WAT     H137912   2.059   0.818   6.477 -0.2749  0.4097 -0.9789
 9298WAT     H237913   1.984   0.712   6.435 -1.5468  0.2483  1.4754
 9298WAT    EPW37914   2.041   0.742   6.479 -0.8079  0.5346  0.3692
 9299WAT      O37915   3.059   2.793   6.991 -0.6117  0.1458  0.9699
 9299WAT     H137916   3.116   2.760   6.933 -1.3998 -1.5336  1.1213
 9299WAT     H237917   3.109   2.846   7.040  0.7559 -0.9821  0.8644
 9299WAT    EPW37918   3.075   2.796   6.989 -0.5261 -0.2689  0.9767
 9300WAT      O37919   3.216   6.937   6.674 -0.5836  0.4678  0.1548
 9300WAT     H137920   3.192   6.893   6.746  2.3334 -0.1808  0.8845
 9300WAT     H237921   3.222   7.019   6.702 -0.0063  0.3033  0.5591
 9300WAT    EPW37922   3.213   6.942   6.689 -0.0674  0.3477  0.3223
 9301WAT      O37923   3.359   4.077   1.912  0.2196 -0.2080  0.1436
 9301WAT     H137924   3.280   4.112   1.910  0.3457  0.0631 -0.3705
 9301WAT     H237925   3.394   4.102   1.836  1.7590  1.8856  1.4276
 9301WAT    EPW37926   3.353   4.086   1.900  0.4656  0.1413  0.2573
 9302WAT      O37927   2.582   3.194   0.663 -0.2411  0.0839  0.3278
 9302WAT     H137928   2.554   3.112   0.655  0.4754 -0.3621  2.0204
 9302WAT     H237929   2.588   3.206   0.749 -1.2780  2.2697  0.1842
 9302WAT    EPW37930   2.579   3.184   0.674 -0.2885  0.3409  0.5566
 9303WAT      O37931   5.410   2.026   1.193  0.3035 -0.0441 -0.8080
 9303WAT     H137932   5.343   2.081   1.183  0.8417  0.6603 -0.6135
 9303WAT     H237933   5.422   1.994   1.113 -0.1853 -0.0868 -0.8699
 9303WAT    EPW37934   5.402   2.030   1.180  0.3108  0.0536 -0.7884
 9304WAT      O37935   4.048   2.914   7.689  0.8166  0.0204  0.3126
 9304WAT     H137936   3.992   2.980   7.705  1.9719  1.0678  0.1918
 9304WAT     H237937   3.997   2.844   7.689 -0.1965  0.6647  2.4357
 9304WAT    EPW37938   4.032   2.914   7.692  0.8376  0.2703  0.6084
 9305WAT      O37939   7.617   2.064   6.829 -0.3849  0.1637  0.1607
 9305WAT     H137940   7.579   2.090   6.755  1.5058 -0.2214 -1.0085
 9305WAT     H237941   7.693   2.029   6.803  0.1823 -0.3405  2.2485
 9305WAT    EPW37942   7.623   2.063   6.814 -0.0218  0.0323  0.2964
 9306WAT      O37943   1.377   1.516   0.253 -0.3019 -0.6632 -0.1411
 9306WAT     H137944   1.291   1.507   0.246 -0.7845  1.4558  1.8535
 9306WAT     H237945   1.394   1.490   0.334  0.1848  2.7882  1.0187
 9306WAT    EPW37946   1.367   1.511   0.264 -0.3013  0.1597  0.3249
 9307WAT      O37947   3.806   6.525   6.883  0.4580 -0.3134 -0.9369
 9307WAT     H137948   3.886   6.549   6.857  1.7602 -2.2458  0.9775
 9307WAT     H237949   3.809   6.438   6.881  0.2213 -0.6595  3.9089
 9307WAT    EPW37950   3.818   6.516   6.879  0.6154 -0.6500  0.0617
 9308WAT      O37951   0.896   4.310   0.011 -0.6022 -0.0700 -0.0537
 9308WAT     H137952   0.944   4.321   0.083  0.1342 -2.9196  0.0199
 9308WAT     H237953   0.896   4.389  -0.026 -0.9010  1.4602  2.9545
 9308WAT    EPW37954   0.903   4.323   0.016 -0.5376 -0.2649  0.4015
 9309WAT      O37955   3.329   3.069   6.133 -0.3332  0.2239 -0.1345
 9309WAT     H137956   3.391   3.113   6.090 -1.0276  2.5032  1.0770
 9309WAT     H237957   3.263   3.065   6.075 -0.2918  0.8871 -0.2338
 9309WAT    EPW37958   3.328   3.075   6.118 -0.4297  0.6586  0.0298
 9310WAT      O37959   3.202   7.023   5.880  0.1454  0.3003 -0.6455
 9310WAT     H137960   3.196   7.077   5.811  0.6865  0.5890 -0.4692
 9310WAT     H237961   3.122   6.989   5.886 -0.5823  2.0102 -0.0093
 9310WAT    EPW37962   3.189   7.026   5.871  0.1179  0.5955 -0.5254
 9311WAT      O37963   3.752   7.344   7.833 -0.1584  0.0561  0.0582
 9311WAT     H137964   3.770   7.390   7.761 -0.0890 -0.6751 -0.4039
 9311WAT     H237965   3.792   7.267   7.819  1.3985  0.4999  1.6653
 9311WAT    EPW37966   3.761   7.339   7.821  0.0818  0.0137  0.2273
 9312WAT      O37967   1.689   4.871   7.809 -0.7787 -0.6500 -0.1947
 9312WAT     H137968   1.732   4.855   7.883 -0.1432  0.3616 -0.3199
 9312WAT     H237969   1.746   4.849   7.747 -0.5137  0.4064 -0.3607
 9312WAT    EPW37970   1.704   4.866   7.811 -0.6457 -0.3445 -0.2377
 9313WAT      O37971   2.595   1.137   7.298  0.0797  0.4779  0.3675
 9313WAT     H137972   2.535   1.194   7.270  1.3243  0.4636 -2.6979
 9313WAT     H237973   2.568   1.061   7.265  1.9686  0.5660 -1.5394
 9313WAT    EPW37974   2.582   1.134   7.289  0.5426  0.4888 -0.3670
 9314WAT      O37975   5.246   5.630   2.985  0.4279 -0.1863 -0.3628
 9314WAT     H137976   5.314   5.618   3.038  0.4695 -1.1011 -0.6157
 9314WAT     H237977   5.243   5.557   2.938  1.9492  1.4887 -3.4061
 9314WAT    EPW37978   5.256   5.618   2.986  0.6588 -0.0740 -0.8497
 9315WAT      O37979   6.361   1.966   7.816 -0.0276 -0.0294  0.1663
 9315WAT     H137980   6.281   1.960   7.781 -1.0114  0.3727  2.1708
 9315WAT     H237981   6.354   1.921   7.891  1.5111  0.3195  0.5587
 9315WAT    EPW37982   6.348   1.958   7.822  0.0544  0.0816  0.5204
 9316WAT      O37983   4.749   5.788   6.205  0.1910 -0.4884  0.3053
 9316WAT     H137984   4.677   5.831   6.179 -0.8950 -1.6998  1.1476
 9316WAT     H237985   4.769   5.827   6.280  0.0821 -0.4877  0.3350
 9316WAT    EPW37986   4.741   5.800   6.213  0.0145 -0.6672  0.4341
 9317WAT      O37987   2.415   5.002   3.593 -0.5419  0.5785  0.0947
 9317WAT     H137988   2.427   4.999   3.507 -2.1189  0.0031 -0.1445
 9317WAT     H237989   2.450   4.928   3.622  1.2341  1.3930  0.1715
 9317WAT    EPW37990   2.422   4.991   3.585 -0.5125  0.6138  0.0707
 9318WAT      O37991   1.829   0.943   1.993 -0.1518 -0.3106 -0.3576
 9318WAT     H137992   1.786   0.887   2.044 -0.1073 -0.4170 -0.4352
 9318WAT     H237993   1.890   0.893   1.955  0.2394 -0.1012 -0.0133
 9318WAT    EPW37994   1.832   0.928   1.995 -0.0874 -0.2954 -0.3182
 9319WAT      O37995   4.416   1.847   7.855 -0.4167 -0.1587  0.2299
 9319WAT     H137996   4.347   1.859   7.906 -0.0038 -0.2973  0.8291
 9319WAT     H237997   4.385   1.860   7.774 -0.4774  3.0223  0.6237
 9319WAT    EPW37998   4.402   1.851   7.850 -0.3647  0.2907  0.3765
 9320WAT      O37999   6.439   4.053   0.205 -0.4671  0.3193 -0.2187
 9320WAT     H138000   6.512   4.078   0.164 -0.1742  0.5938  0.4678
 9320WAT     H238001   6.466   4.031   0.285 -0.9564 -0.7779 -0.3430
 9320WAT    EPW38002   6.454   4.054   0.211 -0.4961  0.1978 -0.1356
 9321WAT      O38003   1.961   5.137   0.819  0.1617  0.1762  0.2925
 9321WAT     H138004   1.950   5.138   0.906 -2.2004 -1.4197  0.1256
 9321WAT     H238005   1.922   5.210   0.792 -1.9792 -0.8354  0.4341
 9321WAT    EPW38006   1.954   5.148   0.828 -0.5035 -0.2090  0.2888
 9322WAT      O38007   6.746   7.281   7.317 -0.5526  0.2328  0.0843
 9322WAT     H138008   6.746   7.294   7.403 -2.3557  1.2727 -0.0174
 9322WAT     H238009   6.800   7.213   7.306 -0.7907 -0.3360  2.0840
 9322WAT    EPW38010   6.754   7.273   7.328 -0.8541  0.3024  0.3646
 9323WAT      O38011   7.435   7.119   5.257  0.3503 -0.1706 -0.2008
 9323WAT     H138012   7.357   7.085   5.277 -0.0926  1.0037  0.1578
 9323WAT     H238013   7.467   7.063   5.198 -1.0219 -0.3574 -0.8137
 9323WAT    EPW38014   7.428   7.105   5.251  0.0822 -0.0247 -0.2384
 9324WAT      O38015   6.075   1.184   2.503  0.2537 -0.4327 -0.2852
 9324WAT     H138016   6.137   1.220   2.552  1.1560 -0.9730 -0.9962
 9324WAT     H238017   6.060   1.107   2.541 -0.5364 -0.0006  0.3147
 9324WAT    EPW38018   6.082   1.178   2.516  0.2703 -0.4486 -0.3016
 9325WAT      O38019   4.075   7.451   0.073  0.8688 -0.0584 -0.2206
 9325WAT     H138020   4.152   7.480   0.104  0.1662  2.3512 -0.4935
 9325WAT     H238021   4.097   7.410  -0.001  1.8490  1.8531 -1.0695
 9325WAT    EPW38022   4.090   7.449   0.067  0.9098  0.5799 -0.3863
 9326WAT      O38023   7.403   6.673   4.473  0.0005 -0.3169  0.6920
 9326WAT     H138024   7.438   6.717   4.407  2.0097 -0.9794  1.2235
 9326WAT     H238025   7.405   6.730   4.539 -0.7243 -0.0970  0.5338
 9326WAT    EPW38026   7.409   6.688   4.473  0.1903 -0.3823  0.7471
 9327WAT      O38027   2.392   1.576   3.538 -0.3081  0.6330  0.6318
 9327WAT     H138028   2.453   1.633   3.514 -0.3086  1.2555  1.9719
 9327WAT     H238029   2.328   1.590   3.481  0.5285  0.4592 -0.3639
 9327WAT    EPW38030   2.391   1.587   3.526 -0.1846  0.6993  0.6827
 9328WAT      O38031   2.460   1.628   7.774 -0.4328 -0.0621 -0.5972
 9328WAT     H138032   2.482   1.674   7.703 -0.3473  4.8334  2.1055
 9328WAT     H238033   2.383   1.662   7.798 -1.5415 -3.0694  0.6008
 9328WAT    EPW38034   2.452   1.640   7.767 -0.5839  0.2168 -0.0210
 9329WAT      O38035   7.264   6.531   3.927 -0.5116 -0.3483 -0.1353
 9329WAT     H138036   7.273   6.508   4.011 -1.2675  1.3854  0.4559
 9329WAT     H238037   7.321   6.596   3.918 -0.2203 -0.7230 -1.0791
 9329WAT    EPW38038   7.274   6.537   3.938 -0.5802 -0.1475 -0.1874
 9330WAT      O38039   1.106   7.470   3.853 -0.5251 -0.2398  0.3229
 9330WAT     H138040   1.142   7.509   3.784 -0.6726 -1.0212 -0.2118
 9330WAT     H238041   1.144   7.392   3.855  0.3280  0.1616  1.8323
 9330WAT    EPW38042   1.117   7.464   3.843 -0.4209 -0.2959  0.4668
 9331WAT      O38043   3.387   2.362   5.884  0.4326 -0.1236 -0.2724
 9331WAT     H138044   3.434   2.350   5.812  3.0668  0.5718  1.2316
 9331WAT     H238045   3.377   2.448   5.888  2.6846  0.1423  1.5078
 9331WAT    EPW38046   3.392   2.373   5.874  1.1544  0.0184  0.2128
 9332WAT      O38047   2.132   6.542   0.533  0.2076 -0.1043  0.0419
 9332WAT     H138048   2.105   6.549   0.450  1.2195 -0.9228 -0.3809
 9332WAT     H238049   2.197   6.600   0.538  0.3785 -0.3034  0.1496
 9332WAT    EPW38050   2.138   6.551   0.521  0.3823 -0.2546 -0.0046
 9333WAT      O38051   4.019   7.580   1.747 -0.9539 -0.0973 -0.1106
 9333WAT     H138052   4.099   7.568   1.779 -0.9321  0.8461  0.2042
 9333WAT     H238053   3.983   7.501   1.753 -0.8542 -0.0225  1.9639
 9333WAT    EPW38054   4.026   7.566   1.753 -0.9360  0.0531  0.2423
 9334WAT      O38055   7.512   5.108   7.148  0.6111  0.3327 -0.4312
 9334WAT     H138056   7.514   5.191   7.174 -0.9904  0.0920  0.5667
 9334WAT     H238057   7.477   5.112   7.068 -1.7154  0.4864  0.5143
 9334WAT    EPW38058   7.507   5.121   7.140  0.0308  0.3199 -0.1441
 9335WAT      O38059   2.374   3.185   6.967  0.5024 -0.2956 -0.2122
 9335WAT     H138060   2.418   3.186   7.043 -2.0270  0.0363  1.3369
 9335WAT     H238061   2.315   3.248   6.977 -0.1777 -0.5441 -2.3284
 9335WAT    EPW38062   2.372   3.195   6.980  0.0283 -0.2833 -0.2960
 9336WAT      O38063   5.171   5.969   6.934  0.0124 -0.2105  0.3693
 9336WAT     H138064   5.222   5.918   6.885  0.1279 -0.0396  0.3120
 9336WAT     H238065   5.224   6.034   6.959 -0.3413  0.3450 -0.2664
 9336WAT    EPW38066   5.186   5.971   6.931 -0.0228 -0.1032  0.2670
 9337WAT      O38067   7.496   6.728   4.209  0.3698  0.3614  0.1972
 9337WAT     H138068   7.520   6.646   4.193  1.1480  0.4696  0.7456
 9337WAT     H238069   7.488   6.763   4.130  1.1013  0.0489 -0.0197
 9337WAT    EPW38070   7.498   6.721   4.195  0.5928  0.3312  0.2462
 9338WAT      O38071   5.053   2.089   1.903  0.4318  0.0744 -0.3686
 9338WAT     H138072   5.132   2.063   1.931  0.6050 -0.0270 -0.9417
 9338WAT     H238073   5.016   2.122   1.975  0.3973 -1.2807  0.2558
 9338WAT    EPW38074   5.059   2.090   1.918  0.4523 -0.1408 -0.3610
 9339WAT      O38075   5.096   2.243   7.018  0.4437  0.4769  0.0081
 9339WAT     H138076   5.113   2.317   6.977  0.5248  0.6569  0.3616
 9339WAT     H238077   5.163   2.191   6.998  0.3695  0.4881 -0.2666
 9339WAT    EPW38078   5.108   2.246   7.009  0.4447  0.5052  0.0197
 9340WAT      O38079   3.310   0.931   5.901 -0.1412 -0.4410  0.4252
 9340WAT     H138080   3.326   0.993   5.961 -3.3347  1.3808 -0.3898
 9340WAT     H238081   3.344   0.963   5.828  1.7325 -1.6308  0.6855
 9340WAT    EPW38082   3.317   0.945   5.899 -0.3361 -0.3476  0.3432
 9341WAT      O38083   0.271   1.644   6.550  0.7145  0.2139 -0.0035
 9341WAT     H138084   0.332   1.581   6.553  0.6270  0.1444  0.6582
 9341WAT     H238085   0.205   1.606   6.506  1.9301  1.0399 -2.7373
 9341WAT    EPW38086   0.270   1.629   6.544  0.8811  0.3256 -0.3096
 9342WAT      O38087   1.648   7.317   5.304 -0.0998  0.5985 -0.7910
 9342WAT     H138088   1.610   7.391   5.331  0.5304  0.6777 -0.0766
 9342WAT     H238089   1.587   7.256   5.318 -0.0177  0.7400  0.2350
 9342WAT    EPW38090   1.634   7.319   5.310  0.0054  0.6311 -0.5339
 9343WAT      O38091   0.539   0.100   7.094 -0.1383  0.2637 -0.2935
 9343WAT     H138092   0.620   0.132   7.097 -0.1041  0.1357  0.1852
 9343WAT     H238093   0.511   0.107   7.177  0.3493 -2.2066  0.1428
 9343WAT    EPW38094   0.547   0.106   7.107 -0.0612 -0.1201 -0.1584
 9344WAT      O38095   1.478   6.436   3.240  0.1773  0.4090  0.7342
 9344WAT     H138096   1.539   6.374   3.245  0.7819  0.7014 -1.6884
 9344WAT     H238097   1.519   6.507   3.268  0.0275  0.0842  1.8264
 9344WAT    EPW38098   1.493   6.437   3.245  0.2445  0.4042  0.5377
 9345WAT      O38099   2.128   5.031   2.346  0.2612  0.1224  0.4313
 9345WAT     H138100   2.171   4.982   2.288  0.9643  2.5429 -1.2464
 9345WAT     H238101   2.174   5.105   2.349 -1.0239  0.9194  2.4440
 9345WAT    EPW38102   2.141   5.034   2.338  0.1753  0.5977  0.4808
 9346WAT      O38103   5.183   1.444   2.123  0.0140 -0.2761  0.0824
 9346WAT     H138104   5.203   1.371   2.079  0.9755 -0.4744  0.8334
 9346WAT     H238105   5.201   1.424   2.206 -0.9195  0.4024  0.4680
 9346WAT    EPW38106   5.189   1.430   2.129  0.0181 -0.2051  0.2503
 9347WAT      O38107   4.293   0.467   4.003 -0.3878 -0.1136  0.4745
 9347WAT     H138108   4.329   0.403   4.050 -1.3693 -0.3961  0.8694
 9347WAT     H238109   4.296   0.436   3.921  0.0483 -0.2262  0.5299
 9347WAT    EPW38110   4.298   0.453   3.998 -0.4683 -0.1720  0.5410
 9348WAT      O38111   4.881   6.611   0.482  0.3267 -0.0532  0.4970
 9348WAT     H138112   4.896   6.555   0.548  0.3858 -0.1558  0.3964
 9348WAT     H238113   4.958   6.651   0.473  0.0388  0.7045  1.1830
 9348WAT    EPW38114   4.895   6.609   0.491  0.2929  0.0436  0.5834
 9349WAT      O38115   2.928   1.435   6.957  0.3279  0.2560 -0.1286
 9349WAT     H138116   3.000   1.428   6.908  0.3369  0.2481 -0.1141
 9349WAT     H238117   2.887   1.360   6.943 -0.8619  1.1883 -2.0184
 9349WAT    EPW38118   2.933   1.423   6.948  0.1535  0.3925 -0.4056
 9350WAT      O38119   0.609   7.306   6.614  0.0693  0.5149  0.6750
 9350WAT     H138120   0.673   7.279   6.667  0.5182  1.8134  0.8483
 9350WAT     H238121   0.651   7.340   6.546 -0.4794  0.0414  0.0855
 9350WAT    EPW38122   0.624   7.307   6.612  0.0546  0.6367  0.6135
 9351WAT      O38123   7.140   6.743   7.800 -0.3363 -0.0665  0.0355
 9351WAT     H138124   7.112   6.715   7.722 -2.2705 -1.1837  1.0591
 9351WAT     H238125   7.211   6.694   7.815 -0.4558 -0.4542 -0.6259
 9351WAT    EPW38126   7.147   6.732   7.790 -0.6397 -0.2888  0.0890
 9352WAT      O38127   4.606   2.849   5.722  0.1539  0.2422 -0.5953
 9352WAT     H138128   4.598   2.818   5.803  0.3964  0.1875 -0.5915
 9352WAT     H238129   4.640   2.782   5.678  1.1893  0.6612 -0.4730
 9352WAT    EPW38130   4.610   2.835   5.728  0.3427  0.2960 -0.5767
 9353WAT      O38131   4.494   5.187   6.958 -0.2209  0.3358  0.0910
 9353WAT     H138132   4.536   5.239   7.015  0.2719 -0.9241  0.9134
 9353WAT     H238133   4.536   5.202   6.883  2.0327 -1.1162  0.9456
 9353WAT    EPW38134   4.507   5.197   6.956  0.1848 -0.0648  0.3388
 9354WAT      O38135   2.602   0.539   7.301 -0.4939 -0.2589 -0.4273
 9354WAT     H138136   2.600   0.573   7.381 -1.2597  1.4786 -1.1289
 9354WAT     H238137   2.649   0.466   7.311 -0.2702  0.0854  1.5139
 9354WAT    EPW38138   2.609   0.533   7.314 -0.5739  0.0487 -0.2442
 9355WAT      O38139   1.626   2.210   3.541  0.2046  0.3517  0.0923
 9355WAT     H138140   1.558   2.239   3.587  0.7130 -0.8653  1.6697
 9355WAT     H238141   1.684   2.275   3.547  0.3057  0.1628  1.2832
 9355WAT    EPW38142   1.624   2.224   3.548  0.2946  0.1440  0.5012
 9356WAT      O38143   1.962   1.525   1.940 -0.2243  0.2842 -1.1314
 9356WAT     H138144   2.033   1.544   1.892  2.5695  1.5339  2.9888
 9356WAT     H238145   1.975   1.443   1.964  1.2528  1.1455  1.4265
 9356WAT    EPW38146   1.975   1.516   1.936  0.4066  0.5960 -0.1449
 9357WAT      O38147   1.931   5.215   7.380 -0.2497  0.1975 -0.3215
 9357WAT     H138148   1.999   5.168   7.352  1.0616  1.2691  0.9420
 9357WAT     H238149   1.936   5.289   7.334  0.2095  0.7844  0.6347
 9357WAT    EPW38150   1.942   5.219   7.369  0.0119  0.4425  0.0064
 9358WAT      O38151   3.875   7.353   1.421  0.6189 -0.2595 -0.2144
 9358WAT     H138152   3.795   7.384   1.439  0.7136  0.3680 -0.8355
 9358WAT     H238153   3.907   7.412   1.365  1.0870 -1.0978 -0.8452
 9358WAT    EPW38154   3.868   7.366   1.415  0.7020 -0.2906 -0.3993
 9359WAT      O38155   4.328   7.465   4.413 -0.0822 -0.4056 -0.5074
 9359WAT     H138156   4.298   7.433   4.488  0.3157 -0.4495 -0.3671
 9359WAT     H238157   4.257   7.467   4.362 -0.0025 -2.0641 -0.7144
 9359WAT    EPW38158   4.313   7.461   4.416 -0.0116 -0.6571 -0.5173
 9360WAT      O38159   3.730   6.539   3.371 -0.3062 -0.0008  0.1347
 9360WAT     H138160   3.728   6.589   3.299 -0.4326 -0.5800 -0.2709
 9360WAT     H238161   3.693   6.589   3.432  0.6077  0.8458  0.0264
 9360WAT    EPW38162   3.724   6.554   3.369 -0.1898  0.0387  0.0588
 9361WAT      O38163   1.402   6.595   2.594 -0.3567 -0.5054  0.8074
 9361WAT     H138164   1.447   6.625   2.662  1.3149  0.1993 -0.5177
 9361WAT     H238165   1.447   6.626   2.525 -1.7247 -1.5292 -0.6116
 9361WAT    EPW38166   1.415   6.604   2.594 -0.3118 -0.5526  0.4020
 9362WAT      O38167   5.226   6.819   0.956  0.1018  0.1627  0.5045
 9362WAT     H138168   5.196   6.834   1.036 -1.1597  0.0244  0.0888
 9362WAT     H238169   5.215   6.732   0.946  1.5876 -0.0579  0.6941
 9362WAT    EPW38170   5.220   6.808   0.966  0.1349  0.1097  0.4711
 9363WAT      O38171   3.968   1.605   1.671 -0.4121  0.6209  0.1093
 9363WAT     H138172   3.933   1.639   1.599  0.0902  1.2899  0.1686
 9363WAT     H238173   4.014   1.671   1.705  0.2660 -0.0020  0.4436
 9363WAT    EPW38174   3.970   1.620   1.665 -0.2377  0.6277  0.1674
 9364WAT      O38175   2.822   7.670   1.007 -0.6282  0.2391 -0.0373
 9364WAT     H138176   2.863   7.593   1.006 -2.3328 -0.7223 -1.2543
 9364WAT     H238177   2.808   7.688   0.923 -0.2037  1.9523  0.2128
 9364WAT    EPW38178   2.826   7.662   0.995 -0.8173  0.3502 -0.1801
 9365WAT      O38179   6.532   6.096   0.736  0.2416  0.2462 -0.6848
 9365WAT     H138180   6.451   6.065   0.743  0.0507  0.8436 -0.1870
 9365WAT     H238181   6.520   6.182   0.730  0.8909  0.4175  0.3761
 9365WAT    EPW38182   6.518   6.104   0.736  0.3093  0.3598 -0.4546
 9366WAT      O38183   2.344   5.047   1.520  0.2188 -0.0313 -0.4095
 9366WAT     H138184   2.351   5.084   1.442  1.8865  2.3006  0.7167
 9366WAT     H238185   2.284   5.096   1.560 -1.0284 -1.5384 -0.3456
 9366WAT    EPW38186   2.336   5.059   1.515  0.2809  0.0906 -0.2337
 9367WAT      O38187   7.499   1.305   7.201 -0.4170 -0.0109  0.1718
 9367WAT     H138188   7.469   1.322   7.281  1.9444 -0.5574  1.2513
 9367WAT     H238189   7.572   1.352   7.196  0.1394 -0.9574 -1.1915
 9367WAT    EPW38190   7.505   1.315   7.212  0.0141 -0.2315  0.1299
 9368WAT      O38191   1.510   4.987   5.314 -0.2147  0.1310 -0.0454
 9368WAT     H138192   1.449   4.999   5.253 -1.4260  2.5254  1.4644
 9368WAT     H238193   1.506   4.902   5.331 -1.5631 -0.1525 -1.5597
 9368WAT    EPW38194   1.500   4.976   5.308 -0.5928  0.4428 -0.0461
 9369WAT      O38195   3.333   3.373   3.278  0.3375  0.0485  0.2986
 9369WAT     H138196   3.377   3.442   3.308 -0.3962  0.3783  0.6478
 9369WAT     H238197   3.383   3.305   3.299  1.4525  0.5083 -0.7272
 9369WAT    EPW38198   3.347   3.373   3.285  0.3938  0.1651  0.1987
 9370WAT      O38199   1.216   5.314   3.924  0.6105 -0.0415  0.2179
 9370WAT     H138200   1.276   5.343   3.980  3.2812 -2.5150 -1.0746
 9370WAT     H238201   1.260   5.257   3.875 -2.6617 -1.3886 -1.4540
 9370WAT    EPW38202   1.231   5.310   3.925  0.5217 -0.6059 -0.2200
 9371WAT      O38203   5.404   3.013   0.948 -0.3331  0.3109 -0.0434
 9371WAT     H138204   5.383   3.006   1.033 -0.8858  0.4998 -0.1586
 9371WAT     H238205   5.436   3.095   0.942  1.3394 -0.2747  0.3086
 9371WAT    EPW38206   5.406   3.024   0.960 -0.1677  0.2523 -0.0085
 9372WAT      O38207   1.803   0.172   2.263  0.2326 -0.2800 -0.4439
 9372WAT     H138208   1.779   0.228   2.200  0.5069 -1.6135 -1.7781
 9372WAT     H238209   1.890   0.172   2.259  0.2935  0.2875  0.5620
 9372WAT    EPW38210   1.812   0.180   2.253  0.2821 -0.3932 -0.4924
 9373WAT      O38211   2.977   7.373   0.494 -0.2684  0.4148  0.0604
 9373WAT     H138212   2.977   7.439   0.437  1.5301  0.3987  0.0031
 9373WAT     H238213   3.050   7.385   0.540 -0.1167 -1.2814  0.3350
 9373WAT    EPW38214   2.988   7.385   0.492  0.0197  0.1619  0.0925
 9374WAT      O38215   3.288   0.923   0.669 -0.5967  0.0833  0.4624
 9374WAT     H138216   3.252   0.852   0.633 -0.7252  1.2154 -1.7712
 9374WAT     H238217   3.374   0.911   0.657 -0.5367 -0.1941  1.1131
 9374WAT    EPW38218   3.296   0.911   0.662 -0.6068  0.2095  0.2286
 9375WAT      O38219   2.473   0.944   0.698 -0.1441  0.0254  0.6692
 9375WAT     H138220   2.449   0.882   0.641  1.3579 -1.3921  1.4777
 9375WAT     H238221   2.506   1.007   0.648  0.2197 -0.7518 -0.0939
 9375WAT    EPW38222   2.474   0.944   0.682  0.1315 -0.2988  0.6759
 9376WAT      O38223   1.241   7.462   1.406  0.1207  0.1990  0.2183
 9376WAT     H138224   1.263   7.434   1.486  0.7871  2.3237  0.8631
 9376WAT     H238225   1.158   7.486   1.414 -0.0772 -0.4208  0.0213
 9376WAT    EPW38226   1.232   7.462   1.419  0.1899  0.4213  0.2844
 9377WAT      O38227   2.049   5.970   3.162  0.0559  0.1402  0.1120
 9377WAT     H138228   1.989   5.911   3.186  1.5020 -0.3639  2.8804
 9377WAT     H238229   2.039   6.034   3.220  1.5513  0.5007  0.0086
 9377WAT    EPW38230   2.038   5.971   3.174  0.4904  0.1190  0.5056
 9378WAT      O38231   5.296   7.030   0.385  0.1647  0.3594 -0.2036
 9378WAT     H138232   5.213   7.049   0.404 -0.3716 -2.1795  0.4253
 9378WAT     H238233   5.326   6.994   0.459  2.0793  1.8034 -0.2071
 9378WAT    EPW38234   5.288   7.027   0.399  0.3683  0.1977 -0.1112
 9379WAT      O38235   6.973   6.973   5.563  0.1154  0.0911 -0.1242
 9379WAT     H138236   6.902   6.951   5.517  0.5633  2.1061 -1.9433
 9379WAT     H238237   6.944   7.030   5.621  0.0735  0.0757 -0.1302
 9379WAT    EPW38238   6.958   6.978   5.565  0.1754  0.3865 -0.3938
 9380WAT      O38239   4.095   6.284   6.647  0.2056 -0.6981  0.1739
 9380WAT     H138240   4.038   6.226   6.615  1.6830 -1.3541 -1.4959
 9380WAT     H238241   4.153   6.234   6.689  0.4852 -0.2499  0.3238
 9380WAT    EPW38242   4.095   6.268   6.648  0.4651 -0.7288 -0.0506
 9381WAT      O38243   4.394   7.088   2.633  0.0233 -0.2657 -0.2648
 9381WAT     H138244   4.330   7.127   2.589  0.9111  1.2166 -0.3163
 9381WAT     H238245   4.356   7.062   2.707 -0.7883 -0.0487 -0.5981
 9381WAT    EPW38246   4.379   7.090   2.637  0.0345 -0.0146 -0.3216
 9382WAT      O38247   2.951   6.029   3.022  0.4361 -0.6032  0.1271
 9382WAT     H138248   3.015   6.083   3.046  0.5891 -0.3096 -0.9064
 9382WAT     H238249   2.967   5.956   3.067  2.7939 -1.3332 -1.7022
 9382WAT    EPW38250   2.963   6.026   3.032  0.8070 -0.6676 -0.2958
 9383WAT      O38251   6.498   0.266   7.791 -0.3073  0.0673 -0.5563
 9383WAT     H138252   6.454   0.213   7.844  0.8090 -0.9131 -0.5585
 9383WAT     H238253   6.500   0.342   7.834 -3.1825  0.5990 -1.2003
 9383WAT    EPW38254   6.492   0.269   7.805 -0.5671  0.0010 -0.6517
 9384WAT      O38255   1.968   6.539   7.430 -0.4098  0.3110 -0.2200
 9384WAT     H138256   1.948   6.623   7.445 -0.5934  0.1198  0.6929
 9384WAT     H238257   2.055   6.541   7.419 -0.2940  0.5241  0.6400
 9384WAT    EPW38258   1.978   6.552   7.431 -0.4198  0.3143  0.0419
 9385WAT      O38259   5.678   0.304   7.136  0.2150 -0.0578  0.9764
 9385WAT     H138260   5.762   0.285   7.153  0.8101  2.0439  0.6524
 9385WAT     H238261   5.635   0.233   7.163  2.3147 -2.6940 -1.8185
 9385WAT    EPW38262   5.684   0.290   7.142  0.6131 -0.1367  0.5157
 9386WAT      O38263   6.159   6.407   0.776  0.3981 -0.6065  0.3002
 9386WAT     H138264   6.202   6.387   0.849 -0.8368  0.0504  1.2488
 9386WAT     H238265   6.077   6.418   0.803  0.0160  0.2442 -1.0908
 9386WAT    EPW38266   6.153   6.406   0.791  0.1592 -0.3838  0.2349
 9387WAT      O38267   0.881   1.071   0.107 -0.5480  0.1578 -0.1517
 9387WAT     H138268   0.877   1.075   0.020  2.9074  2.2953 -0.4250
 9387WAT     H238269   0.905   0.989   0.123 -0.8462 -0.1638 -1.2488
 9387WAT    EPW38270   0.884   1.060   0.096 -0.0816  0.4261 -0.3541
 9388WAT      O38271   0.171   0.374   4.115  0.0100 -0.7973  0.2028
 9388WAT     H138272   0.247   0.417   4.118  0.0831 -0.9830  1.5012
 9388WAT     H238273   0.180   0.321   4.046  0.4380  0.2845 -0.5934
 9388WAT    EPW38274   0.184   0.373   4.106  0.0840 -0.6649  0.2770
 9389WAT      O38275   3.059   0.748   0.620  0.1099 -0.2146  0.2538
 9389WAT     H138276   2.979   0.714   0.628  0.3011 -0.6997  0.1281
 9389WAT     H238277   3.069   0.757   0.534  0.2718 -0.3437  0.2596
 9389WAT    EPW38278   3.049   0.744   0.608  0.1621 -0.3053  0.2361
 9390WAT      O38279   3.231   5.770   2.225 -0.8513 -0.0272 -0.3961
 9390WAT     H138280   3.144   5.763   2.231 -0.7239 -1.5030 -0.0179
 9390WAT     H238281   3.251   5.721   2.156 -0.2417 -0.3450 -0.0008
 9390WAT    EPW38282   3.221   5.762   2.216 -0.7424 -0.2922 -0.2819
 9391WAT      O38283   2.505   1.410   2.528 -0.8333  0.4801  0.3251
 9391WAT     H138284   2.582   1.402   2.566 -1.0851  0.5147  0.8477
 9391WAT     H238285   2.523   1.454   2.455 -0.7862  3.6250  2.0608
 9391WAT    EPW38286   2.519   1.416   2.523 -0.8636  0.9498  0.6587
 9392WAT      O38287   3.980   1.382   6.425 -0.2263  0.0821 -0.2726
 9392WAT     H138288   3.962   1.405   6.507  0.7723 -0.9411  0.2667
 9392WAT     H238289   4.043   1.322   6.434  1.3539  1.4068 -1.8781
 9392WAT    EPW38290   3.987   1.376   6.439  0.1546  0.1266 -0.4301
 9393WAT      O38291   5.714   1.589   7.723 -0.1141  0.6315 -0.2619
 9393WAT     H138292   5.729   1.662   7.769  1.0979  0.3383 -0.1456
 9393WAT     H238293   5.763   1.529   7.764  0.1195  0.1100 -1.2828
 9393WAT    EPW38294   5.723   1.591   7.736  0.0994  0.5111 -0.3955
 9394WAT      O38295   3.960   4.968   1.936  0.4523 -0.3173 -0.6424
 9394WAT     H138296   3.908   5.009   1.992 -0.1707 -0.4122 -1.1405
 9394WAT     H238297   3.973   4.890   1.973 -0.0551 -0.4226 -0.6752
 9394WAT    EPW38298   3.954   4.962   1.950  0.2853 -0.3469 -0.7208
 9395WAT      O38299   6.101   4.284   5.128 -0.3490  0.6085 -0.0587
 9395WAT     H138300   6.172   4.335   5.127 -0.6532  1.0750  0.8119
 9395WAT     H238301   6.054   4.316   5.194 -1.9105  1.0401 -1.3144
 9395WAT    EPW38302   6.105   4.297   5.138 -0.6246  0.7412 -0.1156
 9396WAT      O38303   2.314   5.959   1.178  0.2083  0.1664  0.1954
 9396WAT     H138304   2.394   5.955   1.214  0.5600  1.6120 -0.3694
 9396WAT     H238305   2.284   6.037   1.202 -0.0222  0.6852 -1.6263
 9396WAT    EPW38306   2.322   5.970   1.187  0.2262  0.4566 -0.1572
 9397WAT      O38307   5.028   6.321   1.662  0.2282  0.4660 -0.3312
 9397WAT     H138308   4.947   6.325   1.695  0.4187  1.6370  0.0504
 9397WAT     H238309   5.078   6.306   1.732  0.3291 -0.5374 -0.6044
 9397WAT    EPW38310   5.023   6.319   1.677  0.2713  0.4907 -0.3152
 9398WAT      O38311   5.928   1.605   4.657  0.3896  0.0258 -0.5122
 9398WAT     H138312   5.858   1.623   4.609  0.1173 -1.2362 -0.6310
 9398WAT     H238313   5.995   1.622   4.604  0.4445  4.3156  0.5722
 9398WAT    EPW38314   5.928   1.610   4.642  0.3575  0.4730 -0.3696
 9399WAT      O38315   6.491   6.846   6.659 -0.7443  0.1830  0.2916
 9399WAT     H138316   6.492   6.839   6.572 -0.7105 -0.3943  0.3317
 9399WAT     H238317   6.487   6.763   6.686  0.4339  0.2793  0.8589
 9399WAT    EPW38318   6.491   6.833   6.650 -0.5652  0.1119  0.3813
 9400WAT      O38319   6.776   7.566   6.575 -0.3409 -0.4511 -0.2586
 9400WAT     H138320   6.727   7.602   6.637 -1.5463 -2.1898 -0.1350
 9400WAT     H238321   6.731   7.581   6.502  1.1337  1.7047 -0.8561
 9400WAT    EPW38322   6.762   7.574   6.573 -0.3011 -0.3895 -0.3286
 9401WAT      O38323   2.469   1.861   2.629  0.6379 -0.2167 -0.3461
 9401WAT     H138324   2.550   1.866   2.662  0.4935 -0.1533  0.0108
 9401WAT     H238325   2.444   1.780   2.647 -0.5675  0.6463  2.4768
 9401WAT    EPW38326   2.477   1.850   2.637  0.4385 -0.0798  0.1236
 9402WAT      O38327   0.132   6.971   5.844  0.4346  0.0575 -0.1760
 9402WAT     H138328   0.048   6.948   5.838  0.4076  0.2029 -0.3619
 9402WAT     H238329   0.129   7.058   5.848  0.4220  0.0329  2.2113
 9402WAT    EPW38330   0.119   6.980   5.844  0.4288  0.0753  0.1492
 9403WAT      O38331   4.135   0.770   5.410  0.0118 -0.1417 -0.0791
 9403WAT     H138332   4.068   0.821   5.384  0.6830  1.1653  0.6805
 9403WAT     H238333   4.167   0.812   5.479  1.5965 -0.7800 -0.4013
 9403WAT    EPW38334   4.130   0.784   5.416  0.3450 -0.0429 -0.0145
 9404WAT      O38335   0.321   6.438   7.178  0.6795  0.2419 -0.0873
 9404WAT     H138336   0.298   6.511   7.135  0.1421  0.0536 -0.1295
 9404WAT     H238337   0.392   6.462   7.221 -0.1133  1.1366  0.7904
 9404WAT    EPW38338   0.328   6.452   7.178  0.4830  0.3462  0.0361
 9405WAT      O38339   3.966   6.669   2.813 -0.4033 -0.4168 -0.0180
 9405WAT     H138340   3.916   6.598   2.807  0.5638 -1.0752 -0.7237
 9405WAT     H238341   3.966   6.687   2.899 -2.8459  0.4031 -0.1188
 9405WAT    EPW38342   3.959   6.661   2.825 -0.6213 -0.3929 -0.1371
 9406WAT      O38343   2.759   3.159   5.418 -0.2341 -0.2809 -0.5710
 9406WAT     H138344   2.832   3.176   5.374 -0.3542  1.8197 -0.0705
 9406WAT     H238345   2.706   3.224   5.395 -1.1706 -0.5344  0.7514
 9406WAT    EPW38346   2.762   3.171   5.408 -0.3902 -0.0080 -0.3017
 9407WAT      O38347   2.855   2.108   6.031  0.1110  0.2825 -0.4394
 9407WAT     H138348   2.836   2.191   6.053 -0.6446  0.5357 -1.8950
 9407WAT     H238349   2.942   2.107   6.028  0.3011  0.2277  2.3314
 9407WAT    EPW38350   2.865   2.120   6.034  0.0274  0.3118 -0.2451
 9408WAT      O38351   2.441   0.742   3.948 -0.4378  0.0795 -0.1635
 9408WAT     H138352   2.488   0.692   3.894 -1.6936 -1.3885  0.0563
 9408WAT     H238353   2.463   0.823   3.924 -0.0494 -0.5377 -2.0634
 9408WAT    EPW38354   2.451   0.747   3.937 -0.5660 -0.2285 -0.4117
 9409WAT      O38355   2.357   3.440   7.724  0.0408 -0.2040  0.2873
 9409WAT     H138356   2.269   3.437   7.723  0.0811 -1.4905 -1.0170
 9409WAT     H238357   2.373   3.505   7.780 -1.7223 -0.7001  1.4619
 9409WAT    EPW38358   2.346   3.449   7.732 -0.2137 -0.4674  0.2681
 9410WAT      O38359   6.806   6.385   6.870 -0.2148  0.1793 -0.0373
 9410WAT     H138360   6.761   6.340   6.809  0.8848 -0.3715 -0.4663
 9410WAT     H238361   6.881   6.342   6.876  0.3129  1.1508  0.5972
 9410WAT    EPW38362   6.810   6.372   6.862  0.0256  0.2414 -0.0070
 9411WAT      O38363   1.777   0.621   4.949 -0.3562  0.2379 -0.0260
 9411WAT     H138364   1.821   0.683   4.906  0.6781 -0.8497 -0.5762
 9411WAT     H238365   1.796   0.548   4.905 -0.5054 -0.6776  1.3776
 9411WAT    EPW38366   1.786   0.620   4.936 -0.2254 -0.0580  0.1001
 9412WAT      O38367   0.718   2.133   5.944  0.5710  0.1139 -0.2090
 9412WAT     H138368   0.681   2.125   5.865 -0.0879 -0.1825  0.1164
 9412WAT     H238369   0.744   2.052   5.962  0.5768  0.1522 -0.0516
 9412WAT    EPW38370   0.716   2.120   5.935  0.4745  0.0758 -0.1377
 9413WAT      O38371   2.934   4.350   5.937 -0.5970 -0.6873  0.4032
 9413WAT     H138372   2.894   4.426   5.956 -1.0215 -1.4691  3.0178
 9413WAT     H238373   2.912   4.335   5.854  0.1887  2.4341 -0.5115
 9413WAT    EPW38374   2.925   4.359   5.928 -0.5437 -0.3417  0.6543
 9414WAT      O38375   1.919   7.376   6.565  0.4636 -0.4211 -0.0983
 9414WAT     H138376   1.995   7.414   6.585  0.1140  0.4832 -0.4274
 9414WAT     H238377   1.906   7.319   6.631  0.5680  0.6896  0.9192
 9414WAT    EPW38378   1.928   7.373   6.578  0.4273 -0.1234  0.0034
 9415WAT      O38379   0.702   1.801   7.302  0.2988 -0.5875 -0.2396
 9415WAT     H138380   0.785   1.827   7.308  0.3157 -0.8120  0.7204
 9415WAT     H238381   0.708   1.714   7.300  0.0320 -0.6771  1.5240
 9415WAT    EPW38382   0.715   1.792   7.303  0.2619 -0.6339  0.1627
 9416WAT      O38383   1.215   3.266   7.127  0.8666 -0.3035 -0.4386
 9416WAT     H138384   1.135   3.263   7.162 -0.1327 -0.5997 -2.6072
 9416WAT     H238385   1.212   3.335   7.075  1.8141 -0.6959 -1.0411
 9416WAT    EPW38386   1.203   3.276   7.125  0.8589 -0.4052 -0.8480
 9417WAT      O38387   4.271   7.530   5.397  0.0600 -0.7267 -0.2355
 9417WAT     H138388   4.328   7.525   5.331 -0.5970 -0.5605 -0.8284
 9417WAT     H238389   4.219   7.596   5.374  0.5727  0.1616  1.0680
 9417WAT    EPW38390   4.272   7.539   5.384  0.0387 -0.5709 -0.1306
 9418WAT      O38391   1.203   4.234   4.346  0.4467  0.1255  1.0881
 9418WAT     H138392   1.120   4.236   4.319  0.5952  1.9651  0.5935
 9418WAT     H238393   1.249   4.250   4.273  1.2864 -1.3550  1.2584
 9418WAT    EPW38394   1.198   4.237   4.331  0.5927  0.1786  1.0402
 9419WAT      O38395   3.738   7.437   4.573 -0.3254  0.0601 -0.4355
 9419WAT     H138396   3.772   7.367   4.532 -2.8754 -1.3776 -0.2916
 9419WAT     H238397   3.660   7.409   4.600 -0.6746  2.4221  1.3182
 9419WAT    EPW38398   3.732   7.422   4.571 -0.7537  0.1967 -0.1552
 9420WAT      O38399   4.951   2.531   1.132 -0.0074  0.2008 -0.3488
 9420WAT     H138400   5.002   2.476   1.089  0.1106 -0.4366  0.5882
 9420WAT     H238401   4.931   2.591   1.072  2.3428  0.8322 -0.5739
 9420WAT    EPW38402   4.955   2.532   1.116  0.3572  0.1999 -0.2436
 9421WAT      O38403   2.247   7.431   6.306  0.0054  0.1724 -0.5506
 9421WAT     H138404   2.294   7.389   6.367 -1.3550  1.2231  1.3284
 9421WAT     H238405   2.188   7.371   6.282 -0.1549  0.0927  0.0186
 9421WAT    EPW38406   2.245   7.416   6.311 -0.2193  0.3158 -0.1889
 9422WAT      O38407   6.520   7.632   3.700 -0.8359  0.0328 -0.2931
 9422WAT     H138408   6.595   7.627   3.657 -0.7694 -1.2866 -0.0709
 9422WAT     H238409   6.530   7.575   3.765 -2.3200 -0.7583 -0.7189
 9422WAT    EPW38410   6.532   7.623   3.703 -1.0453 -0.2790 -0.3232
 9423WAT      O38411   2.218   2.143   5.104  0.1079  0.4337 -1.1601
 9423WAT     H138412   2.255   2.206   5.057 -0.7816  1.9085  0.0526
 9423WAT     H238413   2.142   2.177   5.129 -1.0064 -1.6161 -1.5535
 9423WAT    EPW38414   2.212   2.157   5.101 -0.1881  0.3488 -1.0391
 9424WAT      O38415   3.001   4.419   1.170  0.0888 -0.1016 -0.1105
 9424WAT     H138416   3.040   4.498   1.170  0.7430 -0.4113  0.4460
 9424WAT     H238417   3.026   4.384   1.095 -3.1980  1.5999 -2.2331
 9424WAT    EPW38418   3.011   4.426   1.159 -0.3001  0.1040 -0.3419
 9425WAT      O38419   6.795   0.550   6.619 -0.0213 -0.7831 -0.3018
 9425WAT     H138420   6.777   0.495   6.685 -1.6067  0.2446  0.1718
 9425WAT     H238421   6.861   0.598   6.651  0.5555 -1.5915 -0.2497
 9425WAT    EPW38422   6.802   0.549   6.634 -0.1703 -0.7507 -0.2241
 9426WAT      O38423   7.467   5.812   5.027 -0.4497 -0.1226  0.6729
 9426WAT     H138424   7.388   5.794   4.994 -1.3368  1.9273  1.4884
 9426WAT     H238425   7.522   5.773   4.972 -1.9956 -0.5423 -0.6465
 9426WAT    EPW38426   7.463   5.803   5.014 -0.8091  0.1182  0.5985
 9427WAT      O38427   1.865   5.761   5.106  0.1307 -0.2082 -0.2081
 9427WAT     H138428   1.862   5.737   5.023  0.2400  0.6347 -0.4649
 9427WAT     H238429   1.782   5.751   5.133  0.1622 -0.8075 -0.3097
 9427WAT    EPW38430   1.852   5.756   5.098  0.1515 -0.1722 -0.2610
 9428WAT      O38431   2.610   2.402   0.864 -0.1206  0.3479 -0.5724
 9428WAT     H138432   2.634   2.346   0.803  0.4770  0.0455 -0.0696
 9428WAT     H238433   2.651   2.374   0.936  0.0002  1.2837 -0.2591
 9428WAT    EPW38434   2.619   2.390   0.866 -0.0145  0.4415 -0.4519
 9429WAT      O38435   2.629   5.285   3.427  0.1449  0.0321  0.4477
 9429WAT     H138436   2.623   5.357   3.378  1.4933 -0.4978 -0.5544
 9429WAT     H238437   2.667   5.227   3.374 -0.0727 -1.1464  1.5342
 9429WAT    EPW38438   2.633   5.287   3.412  0.3119 -0.2203  0.4602
 9430WAT      O38439   1.902   0.731   7.810 -0.7794 -0.0974  0.4788
 9430WAT     H138440   1.888   0.784   7.743 -1.0449  0.2232  0.7811
 9430WAT     H238441   1.821   0.715   7.840 -0.7374 -1.0175  0.1260
 9430WAT    EPW38442   1.888   0.736   7.804 -0.8124 -0.1859  0.4713
 9431WAT      O38443   7.322   6.970   5.596 -0.1137  0.6694  0.0473
 9431WAT     H138444   7.406   6.954   5.578 -0.3330  0.3518 -0.7275
 9431WAT     H238445   7.279   6.910   5.551 -0.7392  0.3456  1.0356
 9431WAT    EPW38446   7.328   6.959   5.587 -0.2385  0.5746  0.0788
 9432WAT      O38447   6.755   4.203   4.820  0.1265  0.2023 -0.3471
 9432WAT     H138448   6.837   4.172   4.821 -0.9143 -2.7924  0.3985
 9432WAT     H238449   6.741   4.220   4.736  1.8170  1.8360 -0.3715
 9432WAT    EPW38450   6.765   4.201   4.808  0.2224  0.0013 -0.2406
 9433WAT      O38451   6.532   0.436   0.635  0.1972  0.1554 -0.3507
 9433WAT     H138452   6.516   0.403   0.715  4.0029  0.6381  0.8406
 9433WAT     H238453   6.530   0.522   0.648  0.8435  0.2356 -0.7491
 9433WAT    EPW38454   6.529   0.444   0.649  0.8549  0.2386 -0.2336
 9434WAT      O38455   7.518   6.233   0.340 -0.6975  1.0329  0.0194
 9434WAT     H138456   7.569   6.281   0.287  0.5014 -0.1921  0.0108
 9434WAT     H238457   7.563   6.230   0.414 -1.1691  0.6419  0.2981
 9434WAT    EPW38458   7.532   6.240   0.343 -0.5901  0.7942  0.0593
 9435WAT      O38459   0.477   5.614   7.274 -0.3057 -0.2887  0.3304
 9435WAT     H138460   0.396   5.616   7.305 -0.1910 -0.5846  0.6516
 9435WAT     H238461   0.497   5.698   7.262 -0.2478 -0.1450  1.3316
 9435WAT    EPW38462   0.468   5.627   7.277 -0.2802 -0.3111  0.5257
 9436WAT      O38463   2.934   2.103   4.250  0.3578 -0.1734 -0.1001
 9436WAT     H138464   3.006   2.095   4.298  0.9198 -0.6232 -0.9883
 9436WAT     H238465   2.898   2.177   4.279  1.5844  0.4710 -0.1643
 9436WAT    EPW38466   2.940   2.113   4.261  0.6220 -0.1447 -0.2408
 9437WAT      O38467   6.395   0.338   4.908 -0.4218  0.0644  0.1203
 9437WAT     H138468   6.386   0.424   4.915 -2.3972 -0.0139 -0.8005
 9437WAT     H238469   6.409   0.325   4.823 -2.1425 -0.6066 -0.1086
 9437WAT    EPW38470   6.396   0.349   4.896 -0.9678 -0.0463 -0.0496
 9438WAT      O38471   6.472   7.233   0.650  0.5248 -0.6522 -0.4560
 9438WAT     H138472   6.486   7.248   0.565  1.8835  2.0694  0.1308
 9438WAT     H238473   6.551   7.210   0.680  0.1832 -1.0201  0.1732
 9438WAT    EPW38474   6.486   7.232   0.642  0.6751 -0.3045 -0.2763
 9439WAT      O38475   1.373   6.613   0.971  0.3551  0.0301 -0.3454
 9439WAT     H138476   1.326   6.590   1.040 -1.4639 -0.3516 -1.6493
 9439WAT     H238477   1.343   6.561   0.907  1.9862  0.3384 -1.4349
 9439WAT    EPW38478   1.362   6.602   0.972  0.3274  0.0192 -0.6990
 9440WAT      O38479   3.599   5.894   6.565  0.0531 -0.1038  0.2226
 9440WAT     H138480   3.675   5.870   6.531 -0.0934 -0.4053  0.1033
 9440WAT     H238481   3.541   5.876   6.502 -0.1432 -0.0626  0.3862
 9440WAT    EPW38482   3.601   5.888   6.551  0.0025 -0.1423  0.2291
 9441WAT      O38483   7.325   2.971   6.331  0.0362  0.6575 -0.0685
 9441WAT     H138484   7.345   2.949   6.413 -1.1261  0.9027  0.3096
 9441WAT     H238485   7.397   3.010   6.302  0.1956  1.3310  1.1419
 9441WAT    EPW38486   7.339   2.974   6.339 -0.1119  0.7932  0.1662
 9442WAT      O38487   5.906   2.163   1.506  0.6929 -0.4013 -0.1691
 9442WAT     H138488   5.921   2.248   1.498 -0.0371 -0.3193 -0.7039
 9442WAT     H238489   5.847   2.146   1.445 -1.0386 -0.7914  1.5062
 9442WAT    EPW38490   5.900   2.173   1.496  0.3293 -0.4468 -0.0006
 9443WAT      O38491   1.082   2.540   6.201 -0.2059 -0.1996  0.2920
 9443WAT     H138492   1.166   2.558   6.187 -0.6106  1.5855 -0.0182
 9443WAT     H238493   1.053   2.610   6.245 -1.2588 -1.3188  1.4715
 9443WAT    EPW38494   1.090   2.553   6.206 -0.4212 -0.1013  0.4204
 9444WAT      O38495   4.470   0.438   4.824 -0.3366 -0.3020 -0.0353
 9444WAT     H138496   4.552   0.426   4.795  0.1465  0.5801  0.8881
 9444WAT     H238497   4.453   0.520   4.802 -0.3358  0.0560  1.2292
 9444WAT    EPW38498   4.480   0.448   4.816 -0.2651 -0.1188  0.2879
 9445WAT      O38499   1.285   0.054   5.745 -0.0857  0.0078  0.6454
 9445WAT     H138500   1.273   0.037   5.830 -0.2418  1.0795  0.8478
 9445WAT     H238501   1.366   0.087   5.742 -0.7956  1.8205  0.6742
 9445WAT    EPW38502   1.295   0.056   5.757 -0.2137  0.4339  0.6796
 9446WAT      O38503   1.983   6.709   4.084 -0.4132  0.3180  0.3000
 9446WAT     H138504   2.040   6.774   4.098 -0.6908  0.5028  0.5930
 9446WAT     H238505   1.986   6.698   3.997 -0.9183  1.2479  0.1532
 9446WAT    EPW38506   1.992   6.717   4.073 -0.5288  0.4827  0.3216
 9447WAT      O38507   0.655   5.350   4.090  0.5697 -0.2676 -0.2416
 9447WAT     H138508   0.738   5.353   4.117  0.1492 -2.2055  1.5201
 9447WAT     H238509   0.612   5.392   4.154 -0.0034 -1.1531 -0.0311
 9447WAT    EPW38510   0.661   5.357   4.104  0.4230 -0.6847  0.0497
 9448WAT      O38511   7.555   4.816   3.834 -0.0848 -0.5739 -0.1204
 9448WAT     H138512   7.636   4.831   3.807 -0.1309  0.5207  0.2691
 9448WAT     H238513   7.519   4.895   3.835 -0.5687 -0.7639  1.5200
 9448WAT    EPW38514   7.561   4.830   3.830 -0.1631 -0.4403  0.1795
 9449WAT      O38515   6.595   1.528   6.395 -0.5900 -0.4946 -0.2119
 9449WAT     H138516   6.581   1.443   6.411 -0.9401 -0.2914  0.6015
 9449WAT     H238517   6.552   1.542   6.321  1.9346 -1.7062 -2.0339
 9449WAT    EPW38518   6.587   1.517   6.387 -0.2688 -0.6436 -0.3609
 9450WAT      O38519   3.641   5.178   2.765  0.4760 -0.9126 -0.0219
 9450WAT     H138520   3.698   5.215   2.820  1.4658  0.1114 -1.6435
 9450WAT     H238521   3.584   5.242   2.749 -0.7145 -1.6875  0.9633
 9450WAT    EPW38522   3.641   5.193   2.771  0.4464 -0.8758 -0.1159
 9451WAT      O38523   1.657   5.720   1.442 -0.0978  0.3650  0.0563
 9451WAT     H138524   1.635   5.720   1.357 -1.2688  2.0337  0.3184
 9451WAT     H238525   1.585   5.692   1.482 -0.0068  0.8663  0.5864
 9451WAT    EPW38526   1.643   5.716   1.435 -0.2573  0.6856  0.1733
 9452WAT      O38527   1.259   1.836   6.946  0.6982 -0.4066  0.1709
 9452WAT     H138528   1.216   1.785   7.003  1.2467  0.5667  1.5180
 9452WAT     H238529   1.318   1.877   6.996  3.5618 -2.0166 -1.6540
 9452WAT    EPW38530   1.261   1.835   6.962  1.2022 -0.5006  0.1003
 9453WAT      O38531   1.019   7.622   3.450 -0.2258  0.3742  0.0068
 9453WAT     H138532   1.030   7.653   3.369  0.3558  0.5176  0.1356
 9453WAT     H238533   1.022   7.536   3.440 -0.4206  0.3857 -0.1584
 9453WAT    EPW38534   1.021   7.614   3.436 -0.1687  0.3971  0.0014
 9454WAT      O38535   1.431   5.985   0.350 -0.2544  0.4040 -0.3468
 9454WAT     H138536   1.430   5.938   0.276  0.3626  2.2516 -1.6309
 9454WAT     H238537   1.346   5.990   0.371 -0.2791 -2.0008  0.4065
 9454WAT    EPW38538   1.418   5.979   0.342 -0.1669  0.3217 -0.4252
 9455WAT      O38539   3.549   6.596   6.761 -0.2700  0.6737 -0.2923
 9455WAT     H138540   3.623   6.587   6.806 -1.6113 -2.1850  1.7208
 9455WAT     H238541   3.568   6.654   6.699  3.3615  0.6582  0.6222
 9455WAT    EPW38542   3.563   6.603   6.758  0.0683  0.2491  0.1402
 9456WAT      O38543   2.513   6.097   6.698  0.2832 -0.1457  0.0270
 9456WAT     H138544   2.596   6.070   6.703  0.4000  0.1555 -0.2408
 9456WAT     H238545   2.520   6.180   6.670 -0.1567 -0.5257 -1.2573
 9456WAT    EPW38546   2.526   6.105   6.695  0.2354 -0.1573 -0.2023
 9457WAT      O38547   7.243   3.569   6.283 -0.4004 -0.4427 -0.0561
 9457WAT     H138548   7.257   3.535   6.363 -0.7280 -1.6996 -0.5094
 9457WAT     H238549   7.157   3.585   6.283 -0.4110 -0.4994 -0.1711
 9457WAT    EPW38550   7.232   3.566   6.295 -0.4503 -0.6368 -0.1401
 9458WAT      O38551   1.729   2.193   6.936 -0.7981  0.0057 -0.1294
 9458WAT     H138552   1.657   2.151   6.961 -0.1837 -1.9731 -1.4337
 9458WAT     H238553   1.782   2.129   6.910 -0.9265  1.5584 -5.3806
 9458WAT    EPW38554   1.726   2.177   6.936 -0.7263 -0.0572 -1.0978
 9459WAT      O38555   3.427   4.107   1.629 -0.2127 -0.0324 -0.4353
 9459WAT     H138556   3.498   4.157   1.625 -0.6603  0.7522  0.8996
 9459WAT     H238557   3.381   4.133   1.559  0.2317  0.3536 -0.5948
 9459WAT    EPW38558   3.431   4.118   1.618 -0.2132  0.1405 -0.2617
 9460WAT      O38559   1.283   7.489   5.661  0.0712  0.1216 -0.2075
 9460WAT     H138560   1.273   7.444   5.735  0.3269 -0.9144 -0.7923
 9460WAT     H238561   1.298   7.570   5.689 -1.5618  0.1155  0.8426
 9460WAT    EPW38562   1.284   7.494   5.676 -0.1323 -0.0323 -0.1388
 9461WAT      O38563   1.834   3.882   1.876 -0.4430  0.3371  0.3661
 9461WAT     H138564   1.826   3.910   1.794 -1.5614  1.0058  0.6829
 9461WAT     H238565   1.808   3.799   1.872  1.4570 -0.2694 -0.3039
 9461WAT    EPW38566   1.829   3.874   1.863 -0.3276  0.3463  0.3139
 9462WAT      O38567   3.164   5.681   4.957  0.4380 -0.2430  0.0076
 9462WAT     H138568   3.195   5.666   5.037  1.4381 -1.5675 -0.5907
 9462WAT     H238569   3.176   5.767   4.947  0.7248 -0.1379  1.0877
 9462WAT    EPW38570   3.170   5.691   4.967  0.6281 -0.4231  0.0787
 9463WAT      O38571   0.825   2.791   4.653  0.0629 -0.4895  0.1480
 9463WAT     H138572   0.772   2.779   4.721 -1.7616 -0.3704 -1.1727
 9463WAT     H238573   0.779   2.760   4.586  0.7228  1.6755 -1.4018
 9463WAT    EPW38574   0.810   2.785   4.653 -0.1091 -0.1521 -0.2760
 9464WAT      O38575   7.544   7.088   6.139  0.0933  0.1366  0.1838
 9464WAT     H138576   7.520   7.007   6.159  0.9491 -0.1867 -0.0844
 9464WAT     H238577   7.520   7.134   6.209 -1.0077 -0.2227  0.0562
 9464WAT    EPW38578   7.537   7.083   6.152  0.0571  0.0358  0.1253
 9465WAT      O38579   3.958   4.683   1.044 -0.4341 -0.4586 -0.7008
 9465WAT     H138580   3.968   4.716   1.124 -0.5846  0.2138 -0.9536
 9465WAT     H238581   4.020   4.621   1.040  0.2775  0.2165 -0.4388
 9465WAT    EPW38582   3.969   4.678   1.055 -0.3513 -0.2595 -0.6995
 9466WAT      O38583   1.930   6.364   7.009  0.5635  0.3687 -0.2321
 9466WAT     H138584   1.860   6.414   7.023 -0.4969 -1.0224 -0.3378
 9466WAT     H238585   1.975   6.407   6.947 -0.5829  0.9260 -0.6894
 9466WAT    EPW38586   1.927   6.378   7.002  0.2375  0.2455 -0.3153
 9467WAT      O38587   1.156   6.519   5.699  0.9914  0.2603  0.0626
 9467WAT     H138588   1.151   6.598   5.663  0.8170  0.1092 -0.2577
 9467WAT     H238589   1.121   6.467   5.638  0.7359 -0.0104  0.4357
 9467WAT    EPW38590   1.150   6.523   5.684  0.9279  0.1980  0.0704
 9468WAT      O38591   1.854   3.245   2.539  0.1731 -0.5865  0.0906
 9468WAT     H138592   1.914   3.269   2.597  0.5725  1.4298 -1.0435
 9468WAT     H238593   1.778   3.252   2.583  0.4823  0.6592  0.4593
 9468WAT    EPW38594   1.851   3.250   2.554  0.2778 -0.1046 -0.0225
 9469WAT      O38595   2.401   3.743   5.154 -0.2258  0.4017 -0.1055
 9469WAT     H138596   2.371   3.679   5.103  0.5586  2.1211 -2.9379
 9469WAT     H238597   2.330   3.771   5.196 -0.7898 -1.4686  0.2822
 9469WAT    EPW38598   2.386   3.737   5.153 -0.1933  0.3794 -0.4667
 9470WAT      O38599   2.101   0.854   6.155  0.2973  0.3052 -0.8429
 9470WAT     H138600   2.174   0.806   6.146  0.8229  0.8949  0.1865
 9470WAT     H238601   2.038   0.793   6.163  0.9663 -0.2372  0.5382
 9470WAT    EPW38602   2.102   0.838   6.155  0.4738  0.3122 -0.4868
 9471WAT      O38603   0.250   5.153   5.539 -0.0640 -0.2122  0.3213
 9471WAT     H138604   0.210   5.167   5.463  1.5473  1.0261 -0.3636
 9471WAT     H238605   0.298   5.082   5.525  0.4929  0.2089  0.0402
 9471WAT    EPW38606   0.251   5.145   5.526  0.2563  0.0329  0.1786
 9472WAT      O38607   4.961   1.632   5.877 -0.0526  0.4004 -0.1572
 9472WAT     H138608   4.959   1.692   5.814  1.1756 -0.0694 -0.6806
 9472WAT     H238609   4.897   1.657   5.931 -0.9756  0.9492 -1.4515
 9472WAT    EPW38610   4.951   1.645   5.876 -0.0075  0.4121 -0.4257
 9473WAT      O38611   2.091   3.452   1.848 -0.1554  0.1676 -0.2514
 9473WAT     H138612   2.041   3.416   1.785 -1.7794  2.9320 -0.7281
 9473WAT     H238613   2.046   3.435   1.921  1.0093 -1.8124  0.0940
 9473WAT    EPW38614   2.077   3.444   1.849 -0.2233  0.2834 -0.2708
 9474WAT      O38615   3.182   4.392   7.810 -0.4009 -0.2278  0.3936
 9474WAT     H138616   3.113   4.340   7.815  0.3867 -1.3207  0.0888
 9474WAT     H238617   3.246   4.345   7.846  1.0046 -0.6763 -2.4205
 9474WAT    EPW38618   3.182   4.378   7.816 -0.0769 -0.4555 -0.0672
 9475WAT      O38619   5.003   0.604   7.435  0.0029 -0.6568  0.8575
 9475WAT     H138620   5.018   0.683   7.470  1.1508  0.3130 -1.6059
 9475WAT     H238621   5.073   0.557   7.461  0.2351 -0.3223  0.8469
 9475WAT    EPW38622   5.016   0.609   7.444  0.2067 -0.4641  0.4920
 9476WAT      O38623   1.238   1.304   5.808 -0.9002 -0.3224 -0.5558
 9476WAT     H138624   1.175   1.356   5.837 -3.4383 -4.2486  1.9332
 9476WAT     H238625   1.286   1.288   5.879 -0.2337 -1.3027 -1.2003
 9476WAT    EPW38626   1.236   1.309   5.823 -1.1767 -1.0472 -0.2833
 9477WAT      O38627   5.252   5.966   3.798  0.1083  0.3219 -0.3406
 9477WAT     H138628   5.328   5.923   3.796  1.7819  3.0053 -2.5973
 9477WAT     H238629   5.268   6.032   3.854 -1.3147 -0.1593  0.6989
 9477WAT    EPW38630   5.266   5.970   3.806  0.1453  0.6472 -0.5204
 9478WAT      O38631   2.013   2.874   0.149 -0.1467  0.3946  0.3688
 9478WAT     H138632   2.051   2.939   0.192 -0.3571 -0.1386  1.3828
 9478WAT     H238633   2.059   2.804   0.172 -0.1694  0.1129 -0.3982
 9478WAT    EPW38634   2.025   2.873   0.159 -0.1812  0.2742  0.4053
 9479WAT      O38635   5.319   0.093   7.843  0.5826  0.1987 -0.0796
 9479WAT     H138636   5.334   0.140   7.914 -0.0736  0.6839 -0.2487
 9479WAT     H238637   5.240   0.058   7.858  0.1093  0.8807 -0.8534
 9479WAT    EPW38638   5.309   0.095   7.856  0.4157  0.3711 -0.2189
 9480WAT      O38639   6.062   4.237   0.319 -0.0688  0.4163 -0.3919
 9480WAT     H138640   6.043   4.165   0.364  1.3775 -0.1993 -0.7117
 9480WAT     H238641   6.010   4.298   0.355 -0.4539 -0.5137  0.6869
 9480WAT    EPW38642   6.052   4.236   0.331  0.0880  0.1880 -0.2798
 9481WAT      O38643   0.125   6.157   4.338 -0.0124  0.0566 -0.0266
 9481WAT     H138644   0.202   6.117   4.329  0.2953  0.6168  0.0633
 9481WAT     H238645   0.088   6.117   4.405  0.3911  0.0769  0.2108
 9481WAT    EPW38646   0.131   6.145   4.346  0.0927  0.1424  0.0217
 9482WAT      O38647   4.419   3.129   0.702  0.2315 -0.3399  0.1500
 9482WAT     H138648   4.412   3.106   0.618  1.4588  1.9878 -0.6810
 9482WAT     H238649   4.500   3.103   0.723 -0.1041 -0.9927  0.6610
 9482WAT    EPW38650   4.430   3.122   0.693  0.3632 -0.0925  0.1027
 9483WAT      O38651   3.087   7.642   4.330 -0.3807 -0.0896 -0.6792
 9483WAT     H138652   3.040   7.716   4.329  1.1225  0.9895  1.3707
 9483WAT     H238653   3.097   7.624   4.245 -0.8189  2.0797 -1.2724
 9483WAT    EPW38654   3.082   7.650   4.317 -0.2234  0.3903 -0.4640
 9484WAT      O38655   1.077   1.217   5.370  0.2493 -0.4447 -0.1298
 9484WAT     H138656   1.035   1.239   5.443 -1.7034 -1.1167 -0.9934
 9484WAT     H238657   1.142   1.166   5.398  0.3898  0.4286  1.2257
 9484WAT    EPW38658   1.081   1.213   5.385 -0.0184 -0.4150 -0.0571
 9485WAT      O38659   5.265   0.561   0.587  0.2615 -0.2784 -0.0378
 9485WAT     H138660   5.302   0.566   0.509  0.4317  1.6510  0.1181
 9485WAT     H238661   5.313   0.614   0.637 -1.7274  1.0724  0.5601
 9485WAT    EPW38662   5.277   0.569   0.583 -0.0072  0.2062  0.0735
 9486WAT      O38663   2.257   6.944   1.532  0.0303 -0.2083  0.0117
 9486WAT     H138664   2.304   6.971   1.465 -2.2795 -0.6269 -1.9217
 9486WAT     H238665   2.209   7.013   1.554 -0.5355 -0.5828 -0.0012
 9486WAT    EPW38666   2.257   6.958   1.526 -0.3945 -0.3255 -0.2758
 9487WAT      O38667   2.764   1.282   5.914 -0.1194  0.1269  0.0461
 9487WAT     H138668   2.771   1.345   5.855 -2.3473 -0.0773 -0.5195
 9487WAT     H238669   2.811   1.217   5.880  0.0445  0.5921 -0.6426
 9487WAT    EPW38670   2.772   1.282   5.901 -0.4243  0.1654 -0.1392
 9488WAT      O38671   6.529   0.479   6.932 -0.1912 -0.2637 -0.0096
 9488WAT     H138672   6.460   0.465   6.880  0.0624  1.2795 -0.8208
 9488WAT     H238673   6.592   0.432   6.895 -0.4199 -0.4685 -0.1441
 9488WAT    EPW38674   6.528   0.470   6.919 -0.1875 -0.0660 -0.1493
 9489WAT      O38675   6.977   6.013   7.856  0.0962 -0.6037 -1.2086
 9489WAT     H138676   6.982   5.926   7.861  0.8471 -0.5529 -0.9151
 9489WAT     H238677   7.019   6.040   7.928 -1.1770 -0.0017 -0.6503
 9489WAT    EPW38678   6.984   6.004   7.868  0.0190 -0.5072 -1.0828
 9490WAT      O38679   2.372   6.447   6.857 -0.2859 -0.1009 -0.1966
 9490WAT     H138680   2.441   6.462   6.908  0.5316 -0.7688 -1.0903
 9490WAT     H238681   2.406   6.440   6.777 -1.0909 -2.6510 -0.3764
 9490WAT    EPW38682   2.387   6.448   6.853 -0.2841 -0.5763 -0.3551
 9491WAT      O38683   2.714   5.531   3.300  0.1837 -0.1115 -0.3601
 9491WAT     H138684   2.745   5.611   3.313 -0.4138  0.0876 -0.1666
 9491WAT     H238685   2.783   5.480   3.317  1.3433  0.4433 -2.9669
 9491WAT    EPW38686   2.729   5.535   3.305  0.2667 -0.0002 -0.7166
 9492WAT      O38687   6.734   7.298   5.207 -0.3577 -0.7527  0.0248
 9492WAT     H138688   6.693   7.288   5.283 -1.5948  0.5070 -0.4355
 9492WAT     H238689   6.818   7.305   5.230 -0.9428  3.7773  1.8129
 9492WAT    EPW38690   6.741   7.298   5.222 -0.6269  0.1026  0.2209
 9493WAT      O38691   2.091   7.015   5.837  0.6808  0.2986  0.2011
 9493WAT     H138692   2.048   7.022   5.913  1.1361  0.6636  0.4352
 9493WAT     H238693   2.029   6.994   5.780  0.4434 -0.6420  0.7934
 9493WAT    EPW38694   2.076   7.013   5.840  0.7130  0.2136  0.3232
 9494WAT      O38695   4.906   5.761   3.864  0.0118 -0.0270 -0.3075
 9494WAT     H138696   4.977   5.809   3.847  0.1877 -0.0741  0.2901
 9494WAT     H238697   4.911   5.697   3.804  0.8475 -0.4115  0.1537
 9494WAT    EPW38698   4.917   5.758   3.852  0.1612 -0.0908 -0.1511
 9495WAT      O38699   1.264   5.678   3.638 -0.1306  0.8439  0.2925
 9495WAT     H138700   1.248   5.754   3.678  0.1716  0.4880  1.1221
 9495WAT     H238701   1.189   5.634   3.648  0.3478  0.2613  1.6659
 9495WAT    EPW38702   1.250   5.683   3.646 -0.0153  0.7052  0.6180
 9496WAT      O38703   2.323   3.605   7.507 -0.3807  0.4288  0.1798
 9496WAT     H138704   2.332   3.537   7.561  2.6493  0.9473  0.4851
 9496WAT     H238705   2.349   3.673   7.555 -0.3477  1.3431 -1.0689
 9496WAT    EPW38706   2.328   3.605   7.522  0.0718  0.6405  0.0405
 9497WAT      O38707   7.712   4.947   5.580  0.4842  0.8798  0.4511
 9497WAT     H138708   7.718   4.941   5.666 -2.0700  0.7983  0.6917
 9497WAT     H238709   7.653   5.009   5.567  0.3616  0.4780 -1.2368
 9497WAT    EPW38710   7.704   4.955   5.591  0.0888  0.8084  0.2373
 9498WAT      O38711   1.987   2.103   6.214  0.5349  0.2502  0.3487
 9498WAT     H138712   2.051   2.156   6.239  0.6168  0.8361 -1.0090
 9498WAT     H238713   2.026   2.049   6.157 -0.0994  0.4104 -0.2503
 9498WAT    EPW38714   2.002   2.102   6.209  0.4533  0.3604  0.0597
 9499WAT      O38715   5.834   1.206   5.016  0.2047  0.1495 -0.2614
 9499WAT     H138716   5.765   1.223   5.067  1.4368  1.1730  1.1414
 9499WAT     H238717   5.832   1.271   4.958 -0.2352 -0.0667 -0.4980
 9499WAT    EPW38718   5.824   1.218   5.015  0.3217  0.2688 -0.0891
 9500WAT      O38719   5.809   3.436   2.037  0.1202  0.0515 -0.1655
 9500WAT     H138720   5.858   3.493   1.993 -0.6719 -0.0545 -1.2151
 9500WAT     H238721   5.728   3.452   2.009 -0.6331  0.9079  2.2839
 9500WAT    EPW38722   5.804   3.447   2.027 -0.1081  0.1624  0.0413
 9501WAT      O38723   2.269   4.696   2.848  0.3449 -0.4684 -0.0763
 9501WAT     H138724   2.315   4.651   2.907  0.9538  2.7030  2.1468
 9501WAT     H238725   2.204   4.730   2.895 -0.9788 -0.2426 -1.9583
 9501WAT    EPW38726   2.266   4.694   2.864  0.2393  0.0334 -0.0259
 9502WAT      O38727   2.465   5.254   5.050 -0.1120 -0.2088 -0.0445
 9502WAT     H138728   2.391   5.300   5.055 -0.6296 -1.1122  1.4030
 9502WAT     H238729   2.525   5.308   5.085 -0.1501  0.3671 -0.8432
 9502WAT    EPW38730   2.463   5.269   5.056 -0.1941 -0.2572  0.0514
 9503WAT      O38731   2.544   0.037   3.469 -0.2050  0.1652  0.9266
 9503WAT     H138732   2.615   0.076   3.438 -0.1018 -0.7061  0.0186
 9503WAT     H238733   2.495   0.104   3.497  0.4396  0.8631  0.4403
 9503WAT    EPW38734   2.547   0.053   3.469 -0.0946  0.1396  0.7207
 9504WAT      O38735   1.865   4.645   2.766  0.3597  0.2707 -0.5056
 9504WAT     H138736   1.864   4.606   2.688  1.0118 -0.4012 -0.1899
 9504WAT     H238737   1.894   4.583   2.819  0.8859  1.0235  0.1072
 9504WAT    EPW38738   1.869   4.630   2.762  0.5337  0.2826 -0.3684
 9505WAT      O38739   2.072   2.010   1.680  0.0696  0.1857  0.0604
 9505WAT     H138740   2.105   1.973   1.609  2.2192 -0.9502  1.5389
 9505WAT     H238741   2.117   2.084   1.688  0.4163 -0.0809  0.6486
 9505WAT    EPW38742   2.083   2.016   1.671  0.4384 -0.0215  0.3657
 9506WAT      O38743   3.465   5.788   4.151 -0.5596 -0.1587  0.1385
 9506WAT     H138744   3.420   5.859   4.129 -0.4262  0.3418  1.3741
 9506WAT     H238745   3.496   5.808   4.230  1.0912 -0.8312 -0.2979
 9506WAT    EPW38746   3.463   5.802   4.160 -0.2960 -0.1841  0.2565
 9507WAT      O38747   5.623   6.521   3.685 -0.3488 -0.6127 -0.3490
 9507WAT     H138748   5.608   6.529   3.771 -0.3577  1.2811 -0.4782
 9507WAT     H238749   5.544   6.508   3.651 -0.8382  1.7399 -0.3056
 9507WAT    EPW38750   5.609   6.520   3.693 -0.4224  0.0146 -0.3616
 9508WAT      O38751   2.117   5.283   2.571 -0.2657  0.2929 -0.1399
 9508WAT     H138752   2.180   5.287   2.631  1.0499 -2.6418 -1.1265
 9508WAT     H238753   2.157   5.309   2.498 -0.5842 -0.2157 -0.5045
 9508WAT    EPW38754   2.133   5.287   2.569 -0.1184 -0.2157 -0.3395
 9509WAT      O38755   4.766   4.479   7.838  0.4022  0.7080  0.1652
 9509WAT     H138756   4.786   4.563   7.852 -0.9830  0.8975  1.2227
 9509WAT     H238757   4.777   4.443   7.917 -0.3832  0.1992  0.0484
 9509WAT    EPW38758   4.771   4.487   7.852  0.0816  0.6608  0.3041
 9510WAT      O38759   1.853   1.940   7.245 -0.1812  0.1343  0.6206
 9510WAT     H138760   1.906   1.870   7.242 -1.1536 -0.5821 -1.0966
 9510WAT     H238761   1.779   1.911   7.209 -0.5482  2.1044 -0.3274
 9510WAT    EPW38762   1.850   1.925   7.239 -0.3790  0.3195  0.2269
 9511WAT      O38763   2.536   0.686   2.274 -0.0244 -0.6503 -0.2157
 9511WAT     H138764   2.490   0.704   2.346  1.6307 -0.4069  0.8321
 9511WAT     H238765   2.495   0.731   2.212  1.0309  2.9575  1.3951
 9511WAT    EPW38766   2.523   0.695   2.276  0.3760 -0.0814  0.1770
 9512WAT      O38767   2.361   2.742   2.895  0.0071  0.2679 -0.0038
 9512WAT     H138768   2.347   2.769   2.977  0.7626 -0.9404  0.5426
 9512WAT     H238769   2.445   2.759   2.881  0.4645 -1.5530  0.2963
 9512WAT    EPW38770   2.371   2.748   2.905  0.1863 -0.1795  0.1213
 9513WAT      O38771   4.804   5.078   7.529 -0.1589 -0.4826  0.6799
 9513WAT     H138772   4.758   5.084   7.455 -0.7082 -0.3672  1.0312
 9513WAT     H238773   4.863   5.141   7.521  0.9980 -1.6403 -0.4950
 9513WAT    EPW38774   4.806   5.088   7.517 -0.0691 -0.6366  0.5582
 9514WAT      O38775   2.639   5.366   3.917 -0.0122  0.6738 -0.2179
 9514WAT     H138776   2.597   5.326   3.851  0.0620 -0.5867  0.4600
 9514WAT     H238777   2.583   5.427   3.943 -0.7583  0.0719 -0.3653
 9514WAT    EPW38778   2.624   5.369   3.911 -0.1115  0.3987 -0.1396
 9515WAT      O38779   1.013   5.226   4.748 -0.2638 -0.4572  0.3085
 9515WAT     H138780   1.097   5.223   4.724 -0.5801 -2.8329 -0.7917
 9515WAT     H238781   1.009   5.293   4.803  2.4753 -0.6359  0.8257
 9515WAT    EPW38782   1.025   5.235   4.753  0.0941 -0.8345  0.2224
 9516WAT      O38783   2.392   6.021   6.930 -0.0267 -0.3108  0.6663
 9516WAT     H138784   2.438   6.036   6.857 -0.2151 -0.9497  0.4048
 9516WAT     H238785   2.333   6.085   6.931  0.4048  0.0841  0.6104
 9516WAT    EPW38786   2.390   6.032   6.919  0.0092 -0.3468  0.6194
 9517WAT      O38787   5.561   7.401   6.021 -0.1398 -0.0108  0.0312
 9517WAT     H138788   5.519   7.447   6.081 -0.2960  0.9565 -0.7884
 9517WAT     H238789   5.624   7.360   6.066  0.0173  1.0296  0.7862
 9517WAT    EPW38790   5.564   7.401   6.036 -0.1397  0.2858  0.0216
 9518WAT      O38791   7.742   0.594   5.589 -0.2534  0.1555  0.4948
 9518WAT     H138792   7.657   0.578   5.586 -0.0906 -0.8162  0.5649
 9518WAT     H238793   7.777   0.515   5.599  0.6548  0.5424  0.4892
 9518WAT    EPW38794   7.735   0.580   5.590 -0.0952  0.0691  0.5043
 9519WAT      O38795   2.684   1.808   0.465 -0.6186  0.0342  0.5631
 9519WAT     H138796   2.730   1.735   0.468 -0.7239 -0.0294  0.6335
 9519WAT     H238797   2.688   1.832   0.381  0.7905  0.8300  0.8136
 9519WAT    EPW38798   2.691   1.801   0.453 -0.4260  0.1424  0.6105
 9520WAT      O38799   0.546   2.793   6.630  0.1473 -1.2116 -0.3882
 9520WAT     H138800   0.575   2.720   6.592  0.0471 -1.3392 -0.2173
 9520WAT     H238801   0.606   2.810   6.691  0.3922 -0.9197 -0.6982
 9520WAT    EPW38802   0.559   2.785   6.633  0.1686 -1.1873 -0.4088
 9521WAT      O38803   1.993   4.540   0.344 -0.2634  0.3243  0.0460
 9521WAT     H138804   2.055   4.587   0.304 -2.3267  1.5811 -1.9476
 9521WAT     H238805   2.033   4.508   0.414  1.7800  3.7278  0.6701
 9521WAT    EPW38806   2.008   4.542   0.348 -0.2663  1.0127 -0.1563
 9522WAT      O38807   5.115   4.195   4.811 -0.2146  0.8508  0.2175
 9522WAT     H138808   5.106   4.109   4.820 -0.7238  0.8667 -0.1188
 9522WAT     H238809   5.151   4.205   4.732  0.0519  0.9412  0.3462
 9522WAT    EPW38810   5.119   4.184   4.801 -0.2505  0.8665  0.1868
 9523WAT      O38811   3.001   2.932   5.639  0.0138  0.0190  0.0826
 9523WAT     H138812   2.961   2.858   5.664 -2.1255  0.6442 -1.1826
 9523WAT     H238813   2.995   2.929   5.552 -0.1586  1.6719  0.0147
 9523WAT    EPW38814   2.994   2.921   5.630 -0.3277  0.3555 -0.1143
 9524WAT      O38815   3.346   0.004   1.942 -0.1513 -0.0353 -0.6184
 9524WAT     H138816   3.277  -0.003   1.890  0.4479 -0.4215 -1.3851
 9524WAT     H238817   3.389   0.073   1.910  1.4360 -1.6443 -2.1476
 9524WAT    EPW38818   3.342   0.013   1.930  0.1717 -0.3301 -0.9575
 9525WAT      O38819   0.802   0.030   4.663  0.0774 -0.0721  0.0972
 9525WAT     H138820   0.759   0.007   4.735 -2.0971  1.8380 -0.4664
 9525WAT     H238821   0.769   0.109   4.644  2.5224  0.6532 -1.5105
 9525WAT    EPW38822   0.790   0.038   4.671  0.1174  0.3172 -0.2236
 9526WAT      O38823   2.163   1.194   2.378  0.1079 -0.9403 -0.6279
 9526WAT     H138824   2.098   1.137   2.370 -0.7208  0.0227 -1.0483
 9526WAT     H238825   2.166   1.232   2.299  0.6200 -0.3911 -0.3508
 9526WAT    EPW38826   2.154   1.191   2.365  0.0611 -0.7169 -0.6491
 9527WAT      O38827   5.042   2.524   3.604 -0.4635  0.7551  0.3797
 9527WAT     H138828   5.022   2.574   3.673 -1.3589  1.0102 -0.0498
 9527WAT     H238829   5.027   2.443   3.632  0.8996  0.7046  1.0484
 9527WAT    EPW38830   5.037   2.519   3.618 -0.3944  0.7853  0.4150
 9528WAT      O38831   5.586   5.438   4.187  0.0948  0.4220 -0.0972
 9528WAT     H138832   5.589   5.399   4.265 -0.3096 -0.6039 -0.5781
 9528WAT     H238833   5.589   5.523   4.206 -1.2294  0.2296  1.1183
 9528WAT    EPW38834   5.587   5.445   4.201 -0.1606  0.2420  0.0113
 9529WAT      O38835   1.470   5.362   6.822  0.1135 -0.7140 -0.0965
 9529WAT     H138836   1.531   5.423   6.806 -1.0580  0.0766 -1.7731
 9529WAT     H238837   1.478   5.349   6.908  1.4777  0.6377  0.0449
 9529WAT    EPW38838   1.480   5.369   6.833  0.1419 -0.3975 -0.3233
 9530WAT      O38839   2.161   6.915   6.287  0.5461  0.8739 -0.1800
 9530WAT     H138840   2.208   6.988   6.274  0.3766  1.4624  2.0735
 9530WAT     H238841   2.120   6.930   6.362 -1.3311 -0.6510 -0.8076
 9530WAT    EPW38842   2.162   6.928   6.296  0.2438  0.7356  0.0602
 9531WAT      O38843   0.521   2.573   4.219 -0.0762 -0.3179 -0.1468
 9531WAT     H138844   0.518   2.623   4.148 -0.6915  0.2691  0.2775
 9531WAT     H238845   0.513   2.492   4.187  3.6349 -0.4786 -1.0982
 9531WAT    EPW38846   0.519   2.568   4.204  0.3811 -0.2549 -0.2247
 9532WAT      O38847   1.193   5.020   3.773 -0.0266 -0.2527 -0.0657
 9532WAT     H138848   1.264   5.037   3.822  0.6569 -2.0692 -0.3404
 9532WAT     H238849   1.132   5.000   3.832  0.2124 -0.4813  0.1022
 9532WAT    EPW38850   1.194   5.020   3.789  0.1097 -0.5548 -0.0815
 9533WAT      O38851   2.461   0.989   3.551 -0.3457  0.6267  0.5210
 9533WAT     H138852   2.440   1.023   3.473  1.5847  1.9526  0.5050
 9533WAT     H238853   2.543   0.961   3.540 -0.8629 -1.4092  1.4198
 9533WAT    EPW38854   2.470   0.990   3.538 -0.1370  0.5218  0.6514
 9534WAT      O38855   1.022   7.095   0.456  0.1472  0.8547 -0.1548
 9534WAT     H138856   1.087   7.074   0.402 -0.3161  1.6278 -1.0381
 9534WAT     H238857   0.968   7.026   0.453  0.7562  0.3459  0.3436
 9534WAT    EPW38858   1.023   7.082   0.448  0.1687  0.8938 -0.2117
 9535WAT      O38859   2.075   7.214   2.355 -0.0130  0.5034 -0.2978
 9535WAT     H138860   2.027   7.226   2.283 -2.1330 -1.1642  0.7327
 9535WAT     H238861   2.077   7.293   2.392 -0.7368  0.9070 -1.0969
 9535WAT    EPW38862   2.068   7.227   2.350 -0.4331  0.3167 -0.2636
 9536WAT      O38863   5.177   0.021   4.259 -0.4029 -0.9423 -0.3266
 9536WAT     H138864   5.188   0.060   4.336  0.3388  0.3607 -1.0424
 9536WAT     H238865   5.091   0.003   4.257 -0.7088  0.3203  0.2385
 9536WAT    EPW38866   5.166   0.024   4.270 -0.3385 -0.5633 -0.3489
 9537WAT      O38867   4.417   0.891   7.632  0.2034  0.1298  0.1890
 9537WAT     H138868   4.492   0.848   7.626  1.1345  1.1208  3.1995
 9537WAT     H238869   4.370   0.859   7.565  2.8452 -1.3182 -1.1318
 9537WAT    EPW38870   4.421   0.880   7.621  0.7312  0.0623  0.4386
 9538WAT      O38871   0.372   2.601   7.854  0.1605  0.4795 -0.3998
 9538WAT     H138872   0.304   2.651   7.875  1.4830  1.5800  1.6272
 9538WAT     H238873   0.362   2.587   7.769 -2.2758  1.0396 -0.2654
 9538WAT    EPW38874   0.360   2.606   7.845 -0.0040  0.7248 -0.0805
 9539WAT      O38875   2.994   7.323   7.778  0.0736 -0.2712  0.1823
 9539WAT     H138876   2.971   7.318   7.694  0.5890 -0.7905  0.0660
 9539WAT     H238877   2.964   7.401   7.803 -1.1375 -0.6052 -0.1577
 9539WAT    EPW38878   2.986   7.333   7.769 -0.0291 -0.3973  0.1149
 9540WAT      O38879   0.408   1.346   7.519  0.3600  0.5707  0.3802
 9540WAT     H138880   0.434   1.267   7.493 -0.3262  0.3911  0.2266
 9540WAT     H238881   0.439   1.353   7.600 -0.2357 -0.1699  0.6757
 9540WAT    EPW38882   0.416   1.336   7.527  0.1706  0.4348  0.4012
 9541WAT      O38883   2.820   6.881   4.996  0.6135  0.4772 -0.3124
 9541WAT     H138884   2.778   6.852   5.067  0.8917  0.1204 -0.2898
 9541WAT     H238885   2.902   6.892   5.024  0.3280  2.2392 -0.0637
 9541WAT    EPW38886   2.826   6.878   5.011  0.6124  0.6848 -0.2724
 9542WAT      O38887   0.711   5.839   4.316 -0.5473  0.4592 -0.0672
 9542WAT     H138888   0.653   5.802   4.263 -0.3279  2.2132 -1.6358
 9542WAT     H238889   0.741   5.772   4.363 -2.9846 -0.6914  0.0391
 9542WAT    EPW38890   0.707   5.824   4.315 -0.8750  0.5483 -0.2832
 9543WAT      O38891   4.977   0.932   5.452  0.0661  0.0506 -0.0191
 9543WAT     H138892   4.982   0.988   5.385  0.6718  0.3532  0.2712
 9543WAT     H238893   5.039   0.873   5.434  1.1742  0.8772  0.9398
 9543WAT    EPW38894   4.987   0.931   5.439  0.3193  0.2174  0.1654
 9544WAT      O38895   0.562   7.493   4.421  0.2064  0.2239 -0.1891
 9544WAT     H138896   0.552   7.570   4.461 -1.7700  0.4317 -0.9650
 9544WAT     H238897   0.481   7.461   4.418  0.7951 -1.2880 -1.0511
 9544WAT    EPW38898   0.549   7.500   4.426  0.0014  0.0312 -0.4311
 9545WAT      O38899   0.376   2.048   6.379 -0.1355 -0.0269  0.2266
 9545WAT     H138900   0.373   1.986   6.318 -0.4609  1.0545 -0.8948
 9545WAT     H238901   0.356   2.005   6.452 -2.2522 -0.9509 -0.7917
 9545WAT    EPW38902   0.372   2.032   6.381 -0.4962 -0.0036 -0.0895
 9546WAT      O38903   4.403   0.683   3.692  0.2104  0.0835  0.0942
 9546WAT     H138904   4.353   0.615   3.672 -0.9070  1.0458 -0.4785
 9546WAT     H238905   4.438   0.707   3.615 -1.1188  1.4638 -0.1204
 9546WAT    EPW38906   4.401   0.677   3.678 -0.1510  0.4296 -0.0221
 9547WAT      O38907   2.291   7.002   0.599 -0.1814  0.4195  0.9700
 9547WAT     H138908   2.355   7.000   0.539  0.1346 -0.4478  1.3200
 9547WAT     H238909   2.219   7.007   0.551  0.0354 -0.8024  0.4591
 9547WAT    EPW38910   2.290   7.002   0.583 -0.1027  0.1109  0.9462
 9548WAT      O38911   5.555   0.934   0.618  0.4939  0.0486 -0.0125
 9548WAT     H138912   5.530   0.931   0.534  1.0552  0.5403 -0.1991
 9548WAT     H238913   5.490   0.891   0.659 -0.4457  0.9132 -0.5416
 9548WAT    EPW38914   5.542   0.927   0.612  0.4380  0.2489 -0.1182
 9549WAT      O38915   5.098   7.321   5.320  0.5720  0.2615 -0.6908
 9549WAT     H138916   5.051   7.258   5.358 -0.7467  1.0030 -1.0338
 9549WAT     H238917   5.134   7.363   5.388  0.4420 -0.0817 -0.4035
 9549WAT    EPW38918   5.096   7.318   5.336  0.3580  0.3203 -0.6990
 9550WAT      O38919   7.444   6.749   7.734 -0.0158 -0.5912  0.2872
 9550WAT     H138920   7.529   6.742   7.755  0.1612  0.3766 -0.0436
 9550WAT     H238921   7.419   6.822   7.775  0.1481  0.9548 -2.1512
 9550WAT    EPW38922   7.453   6.759   7.743  0.0345 -0.2199 -0.1219
 9551WAT      O38923   2.582   0.827   4.383  0.2116  0.1446  0.6870
 9551WAT     H138924   2.548   0.839   4.463  0.0714  0.9957  0.5143
 9551WAT     H238925   2.572   0.905   4.345 -0.1417 -0.3783 -0.3313
 9551WAT    EPW38926   2.576   0.840   4.390  0.1387  0.1931  0.5111
 9552WAT      O38927   3.771   7.523   2.462  0.3065 -0.1554 -0.5720
 9552WAT     H138928   3.704   7.468   2.454 -0.0001 -0.0919  1.0903
 9552WAT     H238929   3.734   7.596   2.495  1.2039 -0.2411  0.7145
 9552WAT    EPW38930   3.755   7.526   2.466  0.3937 -0.1587 -0.1364
 9553WAT      O38931   0.083   1.497   4.851 -0.0586  0.7194  0.1400
 9553WAT     H138932   0.109   1.418   4.879  0.1828  0.1224 -1.6077
 9553WAT     H238933   0.133   1.510   4.780 -1.1128  1.7904 -0.4373
 9553WAT    EPW38934   0.094   1.487   4.845 -0.1786  0.7895 -0.2034
 9554WAT      O38935   7.745   4.845   4.755 -0.1585  0.0303  0.1486
 9554WAT     H138936   7.679   4.825   4.808 -0.7555 -2.1170 -1.2585
 9554WAT     H238937   7.712   4.904   4.701 -0.5965 -0.2496  0.1105
 9554WAT    EPW38938   7.731   4.851   4.755 -0.3114 -0.3282 -0.0649
 9555WAT      O38939   2.428   7.671   5.276 -0.2446  0.0616  0.3557
 9555WAT     H138940   2.433   7.685   5.190  3.5639 -2.5717 -0.1142
 9555WAT     H238941   2.430   7.751   5.310 -0.6287  1.1425 -1.9678
 9555WAT    EPW38942   2.429   7.685   5.268  0.2612 -0.1677 -0.0569
 9556WAT      O38943   3.036   7.558   2.596 -0.2049 -0.0524 -0.0670
 9556WAT     H138944   3.059   7.631   2.554  0.7860 -0.5958 -0.4834
 9556WAT     H238945   3.027   7.585   2.679 -1.8800  0.9621 -0.5236
 9556WAT    EPW38946   3.038   7.573   2.602 -0.3060  0.0172 -0.1960
 9557WAT      O38947   1.374   0.187   0.342 -0.8020 -0.5205  0.7264
 9557WAT     H138948   1.396   0.178   0.425 -1.2848 -0.3859  0.8737
 9557WAT     H238949   1.306   0.242   0.344  0.1662  0.7504  0.1157
 9557WAT    EPW38950   1.367   0.194   0.354 -0.7303 -0.3129  0.6579
 9558WAT      O38951   4.792   3.467   5.551 -0.0040 -0.3819  0.1175
 9558WAT     H138952   4.734   3.430   5.497 -0.1467  1.8471 -1.4265
 9558WAT     H238953   4.860   3.413   5.549 -0.8172 -1.4270 -0.5856
 9558WAT    EPW38954   4.794   3.454   5.543 -0.1452 -0.2070 -0.2144
 9559WAT      O38955   1.706   6.249   3.730  0.2736  0.1683 -0.0961
 9559WAT     H138956   1.713   6.196   3.799 -1.4709 -0.2560 -0.2060
 9559WAT     H238957   1.652   6.207   3.677  3.2648 -0.6194 -2.8594
 9559WAT    EPW38958   1.699   6.235   3.733  0.4578 -0.0107 -0.5205
 9560WAT      O38959   1.965   0.284   7.471 -0.0271 -0.4904 -0.1378
 9560WAT     H138960   2.024   0.244   7.421 -0.8808 -0.7314 -0.9728
 9560WAT     H238961   2.013   0.323   7.532  0.9900 -0.7092 -0.7803
 9560WAT    EPW38962   1.981   0.284   7.473 -0.0030 -0.5583 -0.3560
 9561WAT      O38963   2.114   0.193   4.168  0.2748  0.2733  0.1520
 9561WAT     H138964   2.114   0.254   4.230  0.1769  0.7423 -0.3029
 9561WAT     H238965   2.055   0.136   4.196 -0.0107  0.6508  0.3280
 9561WAT    EPW38966   2.105   0.193   4.181  0.2181  0.3983  0.1108
 9562WAT      O38967   2.938   6.928   5.519 -0.4161 -0.2567 -0.0969
 9562WAT     H138968   2.933   6.852   5.560 -4.0376 -0.8375 -1.2424
 9562WAT     H238969   2.915   6.986   5.580  0.1324 -0.3337  0.1897
 9562WAT    EPW38970   2.934   6.925   5.534 -0.8701 -0.3539 -0.2238
 9563WAT      O38971   7.159   6.886   4.047 -0.3968 -0.3966  0.1056
 9563WAT     H138972   7.135   6.835   4.112 -0.4690  0.9871  1.2121
 9563WAT     H238973   7.084   6.912   4.011 -0.4594  0.4834  0.8222
 9563WAT    EPW38974   7.144   6.883   4.051 -0.4167 -0.0622  0.3749
 9564WAT      O38975   0.325   7.064   3.799  0.4413  0.3315  0.4598
 9564WAT     H138976   0.393   7.048   3.851  1.2237  0.4797 -0.4806
 9564WAT     H238977   0.345   7.021   3.726 -0.2018  0.8490 -0.0366
 9564WAT    EPW38978   0.338   7.055   3.796  0.4619  0.4298  0.2475
 9565WAT      O38979   2.281   6.602   1.853  0.2785 -0.3715 -0.4718
 9565WAT     H138980   2.220   6.542   1.870 -1.9481  1.9351  0.3292
 9565WAT     H238981   2.310   6.580   1.774 -2.0955 -1.2254 -1.1926
 9565WAT    EPW38982   2.276   6.590   1.844 -0.4011 -0.1569 -0.4600
 9566WAT      O38983   7.526   0.764   6.055  0.0904 -0.3594 -0.5975
 9566WAT     H138984   7.522   0.679   6.035  1.9310 -0.5003 -0.5001
 9566WAT     H238985   7.485   0.768   6.132  0.5406 -1.2834 -0.2857
 9566WAT    EPW38986   7.519   0.752   6.064  0.4288 -0.5167 -0.5370
 9567WAT      O38987   4.106   6.696   3.120  0.7894 -0.3301 -0.3238
 9567WAT     H138988   4.066   6.679   3.195  1.8950  1.8432  0.8529
 9567WAT     H238989   4.153   6.624   3.105 -0.3426 -1.2534  0.4350
 9567WAT    EPW38990   4.107   6.683   3.129  0.7855 -0.1454 -0.0379
 9568WAT      O38991   2.781   1.653   7.574  0.0683 -0.7418 -0.3810
 9568WAT     H138992   2.845   1.656   7.633 -0.6518  0.3424  0.3746
 9568WAT     H238993   2.823   1.656   7.498  0.9450 -0.8362  0.0933
 9568WAT    EPW38994   2.797   1.654   7.571  0.0914 -0.5956 -0.1993
 9569WAT      O38995   1.640   5.777   7.266 -0.2106  0.1157  0.0702
 9569WAT     H138996   1.720   5.746   7.281  0.1874  1.5154  1.1359
 9569WAT     H238997   1.654   5.852   7.224 -1.0483 -0.3206 -1.0415
 9569WAT    EPW38998   1.654   5.784   7.262 -0.2756  0.2581  0.0634
 9570WAT      O38999   7.036   5.162   5.224 -0.5596 -0.0666  0.2316
 9570WAT     H139000   7.092   5.116   5.273 -0.2932  0.3168  0.2912
 9570WAT     H239001   7.003   5.220   5.280 -0.4961  0.1653  0.0292
 9570WAT    EPW39002   7.039   5.163   5.240 -0.5109  0.0243  0.2105
 9571WAT      O39003   2.446   3.769   6.752  0.4442  0.2336 -0.7306
 9571WAT     H139004   2.393   3.824   6.793  0.9568  0.4993 -0.4056
 9571WAT     H239005   2.450   3.700   6.805  0.5954  0.3070 -0.6451
 9571WAT    EPW39006   2.439   3.767   6.766  0.5423  0.2837 -0.6700
 9572WAT      O39007   0.189   1.501   4.364 -0.3024 -0.6981  0.1020
 9572WAT     H139008   0.108   1.532   4.366  0.4060  1.2986  0.5637
 9572WAT     H239009   0.180   1.418   4.388 -2.2934 -0.7974 -0.7988
 9572WAT    EPW39010   0.176   1.493   4.368 -0.4919 -0.4178  0.0371
 9573WAT      O39011   6.716   6.945   4.107  0.2448 -0.0724 -0.3598
 9573WAT     H139012   6.696   6.872   4.151  0.2033 -0.8327 -1.5744
 9573WAT     H239013   6.639   6.971   4.075  0.2405  0.5844  0.1612
 9573WAT    EPW39014   6.701   6.938   4.109  0.2380 -0.0877 -0.4623
 9574WAT      O39015   1.794   6.228   4.117 -0.1554  0.0953 -0.1424
 9574WAT     H139016   1.861   6.268   4.078 -0.1982 -1.3653 -1.8661
 9574WAT     H239017   1.832   6.161   4.159 -0.3799  0.1139  0.0905
 9574WAT    EPW39018   1.810   6.224   4.117 -0.1949 -0.1177 -0.3626
 9575WAT      O39019   6.480   6.998   5.143 -0.2181 -0.0499 -0.1191
 9575WAT     H139020   6.480   6.922   5.187 -0.1357 -0.6989 -1.2139
 9575WAT     H239021   6.486   7.058   5.206  1.3938 -0.9968  0.6927
 9575WAT    EPW39022   6.481   6.996   5.159  0.0322 -0.2857 -0.1609
 9576WAT      O39023   3.847   6.889   6.285 -0.0598 -0.4573  0.2527
 9576WAT     H139024   3.886   6.966   6.280 -0.3600 -0.3806 -1.3416
 9576WAT     H239025   3.786   6.900   6.347 -0.5941  0.8074 -0.4792
 9576WAT    EPW39026   3.844   6.902   6.294 -0.1830 -0.2592 -0.0910
 9577WAT      O39027   3.048   1.634   0.723 -0.3884 -0.2653  0.1398
 9577WAT     H139028   3.113   1.672   0.767 -0.7157  1.2446 -0.5809
 9577WAT     H239029   2.981   1.637   0.778  0.1583 -2.0223  0.9659
 9577WAT    EPW39030   3.048   1.640   0.738 -0.3560 -0.3018  0.1554
 9578WAT      O39031   3.347   0.439   3.521 -0.1657  0.0683  0.1347
 9578WAT     H139032   3.430   0.465   3.529  0.2121 -0.4055 -1.7626
 9578WAT     H239033   3.355   0.354   3.502 -1.0532  0.1294 -0.5454
 9578WAT    EPW39034   3.361   0.430   3.520 -0.2410  0.0074 -0.2460
 9579WAT      O39035   2.091   0.635   5.561  0.0129  0.1837  0.2836
 9579WAT     H139036   2.092   0.552   5.533 -0.4656  0.5978 -1.0107
 9579WAT     H239037   2.013   0.665   5.537  0.8269  1.5220 -0.8811
 9579WAT    EPW39038   2.080   0.627   5.553  0.0625  0.4425 -0.0796
 9580WAT      O39039   2.206   1.975   2.664  0.1992 -0.0154  0.5585
 9580WAT     H139040   2.288   1.965   2.634 -0.8340 -0.5064 -2.4662
 9580WAT     H239041   2.157   1.939   2.602 -2.4389  1.6130  1.5193
 9580WAT    EPW39042   2.211   1.968   2.650 -0.3432  0.1526  0.2536
 9581WAT      O39043   7.383   0.753   6.347 -0.6489  0.0567  0.1887
 9581WAT     H139044   7.301   0.777   6.367 -0.2713  1.2736  0.3333
 9581WAT     H239045   7.374   0.670   6.321 -2.1594  0.6178 -1.2292
 9581WAT    EPW39046   7.369   0.744   6.346 -0.8162  0.3193  0.0006
 9582WAT      O39047   2.455   4.791   5.626 -0.0930 -0.7202  0.3162
 9582WAT     H139048   2.403   4.790   5.696 -0.8756 -3.2951 -0.1886
 9582WAT     H239049   2.516   4.731   5.646  0.5160 -0.4284 -0.6339
 9582WAT    EPW39050   2.456   4.782   5.640 -0.1186 -1.0575  0.1012
 9583WAT      O39051   4.062   1.259   3.502 -0.1882 -0.2272 -0.0648
 9583WAT     H139052   4.036   1.308   3.569 -0.5437 -1.7431  0.9630
 9583WAT     H239053   4.018   1.292   3.434 -3.3853 -1.3751  1.2405
 9583WAT    EPW39054   4.051   1.271   3.502 -0.7130 -0.6207  0.2799
 9584WAT      O39055   3.767   5.972   3.266 -0.3788  0.5332 -0.0725
 9584WAT     H139056   3.784   6.038   3.321 -0.3012  0.2524  0.2462
 9584WAT     H239057   3.683   5.953   3.283 -0.7083  1.2023 -0.8732
 9584WAT    EPW39058   3.757   5.979   3.277 -0.4160  0.5905 -0.1437
 9585WAT      O39059   2.963   4.081   5.983 -0.1190  0.4323  0.2101
 9585WAT     H139060   2.946   4.167   5.975 -1.1982  0.0820 -3.1277
 9585WAT     H239061   3.051   4.079   5.986 -0.0838  1.6427  1.0932
 9585WAT    EPW39062   2.974   4.094   5.982 -0.2732  0.5594 -0.1525
 9586WAT      O39063   0.206   0.791   0.022  0.2559 -0.1494  0.2593
 9586WAT     H139064   0.245   0.724   0.064 -0.2996 -1.0576 -0.6238
 9586WAT     H239065   0.121   0.771   0.028  0.1448 -0.1037 -0.9680
 9586WAT    EPW39066   0.199   0.778   0.029  0.1575 -0.2768 -0.0524
 9587WAT      O39067   2.182   5.134   7.856  0.6056 -0.0526  0.0956
 9587WAT     H139068   2.219   5.085   7.918  0.4085 -2.2921 -1.4246
 9587WAT     H239069   2.109   5.162   7.894  1.8646  1.1048  1.8069
 9587WAT    EPW39070   2.177   5.131   7.871  0.7625 -0.2124  0.1238
 9588WAT      O39071   2.169   0.197   3.890 -0.3516 -0.1252 -0.0668
 9588WAT     H139072   2.129   0.211   3.966 -0.0887  0.2888  0.0015
 9588WAT     H239073   2.206   0.274   3.873 -0.0504 -0.3441 -0.4002
 9588WAT    EPW39074   2.169   0.211   3.899 -0.2683 -0.0964 -0.1059
 9589WAT      O39075   7.045   3.448   7.495 -0.3149  0.4349 -0.0042
 9589WAT     H139076   7.131   3.446   7.511 -0.5049  1.8032  1.3966
 9589WAT     H239077   7.012   3.395   7.556 -0.5556  0.9009  0.2755
 9589WAT    EPW39078   7.053   3.440   7.506 -0.3785  0.7059  0.2441
 9590WAT      O39079   6.994   7.283   5.297 -0.3508  0.2765  0.2436
 9590WAT     H139080   7.048   7.217   5.280  0.8749  1.2940  0.0436
 9590WAT     H239081   7.034   7.352   5.262 -1.2884  1.2387  0.9967
 9590WAT    EPW39082   7.008   7.283   5.290 -0.3082  0.5689  0.3253
 9591WAT      O39083   2.391   3.148   2.483 -0.1190 -0.0183 -0.0001
 9591WAT     H139084   2.442   3.217   2.497 -1.2562  0.5601  1.4663
 9591WAT     H239085   2.365   3.124   2.562 -0.0883 -1.9081 -0.5060
 9591WAT    EPW39086   2.394   3.155   2.497 -0.2825 -0.2120  0.1418
 9592WAT      O39087   3.443   6.920   5.938  0.0880  0.6877  0.0382
 9592WAT     H139088   3.456   6.901   5.854  1.5437  0.5547  0.2731
 9592WAT     H239089   3.359   6.944   5.940 -0.5926 -1.3876 -1.0608
 9592WAT    EPW39090   3.432   6.921   5.926  0.2025  0.3615 -0.0895
 9593WAT      O39091   4.521   6.964   3.728  0.3615 -0.4951 -0.3966
 9593WAT     H139092   4.463   7.005   3.778 -1.4790 -1.1032 -1.9453
 9593WAT     H239093   4.597   6.984   3.766 -0.7390  1.1162  1.1471
 9593WAT    EPW39094   4.524   6.973   3.741 -0.0730 -0.3469 -0.3973
 9594WAT      O39095   1.291   0.468   3.730 -0.6056  0.4358  0.1033
 9594WAT     H139096   1.303   0.459   3.645 -0.3434 -2.8628  0.3731
 9594WAT     H239097   1.279   0.386   3.759  0.1432  1.2947  3.3400
 9594WAT    EPW39098   1.291   0.455   3.722 -0.4563  0.0754  0.6213
 9595WAT      O39099   3.361   7.473   2.629  0.1366  0.0015  0.0475
 9595WAT     H139100   3.375   7.554   2.659 -0.2238  0.4983 -1.0579
 9595WAT     H239101   3.274   7.467   2.626  0.1059 -1.0502  1.6525
 9595WAT    EPW39102   3.350   7.484   2.633  0.0788 -0.0805  0.1213
 9596WAT      O39103   1.330   3.084   6.968  0.0381  0.1697  0.0176
 9596WAT     H139104   1.278   3.095   6.899 -0.1609 -1.2152 -0.0815
 9596WAT     H239105   1.290   3.127   7.032 -1.5703 -1.3152  0.0942
 9596WAT    EPW39106   1.317   3.092   6.967 -0.2289 -0.2542  0.0143
 9597WAT      O39107   2.446   4.849   4.667  0.1359 -0.6202  0.5811
 9597WAT     H139108   2.453   4.921   4.715 -0.5871  0.4831 -0.8887
 9597WAT     H239109   2.387   4.801   4.709 -1.1864  0.7337  0.3481
 9597WAT    EPW39110   2.438   4.852   4.680 -0.1663 -0.2572  0.3296
 9598WAT      O39111   1.984   7.306   6.294  0.0857 -0.0323  0.0045
 9598WAT     H139112   1.923   7.244   6.306 -1.3176  1.3819  0.6284
 9598WAT     H239113   1.984   7.349   6.369  0.8400  0.8725 -0.4946
 9598WAT    EPW39114   1.975   7.303   6.307 -0.0101  0.3103  0.0229
 9599WAT      O39115   4.966   5.110   2.934  0.3199  0.1650 -0.0931
 9599WAT     H139116   4.905   5.049   2.925  2.1792 -1.4971 -3.3441
 9599WAT     H239117   5.027   5.071   2.983 -0.3809  1.2060  1.7097
 9599WAT    EPW39118   4.966   5.095   2.940  0.4910  0.0733 -0.3070
 9600WAT      O39119   2.922   4.741   3.810  0.0380 -0.6005  0.2235
 9600WAT     H139120   2.839   4.744   3.836  0.2485 -1.4506  1.0378
 9600WAT     H239121   2.917   4.720   3.725 -0.5908  0.2296  0.0410
 9600WAT    EPW39122   2.909   4.738   3.801 -0.0238 -0.6035  0.3168
 9601WAT      O39123   1.451   7.230   4.445 -0.4598 -0.8461  0.1550
 9601WAT     H139124   1.492   7.163   4.482  1.7831  0.9493  1.2154
 9601WAT     H239125   1.513   7.269   4.398 -2.1046 -0.4071 -1.8163
 9601WAT    EPW39126   1.466   7.226   4.444 -0.3715 -0.5160  0.0204
 9602WAT      O39127   3.257   2.409   6.373  0.0777  0.0393 -0.1631
 9602WAT     H139128   3.205   2.424   6.305 -0.0085  1.4345  0.1921
 9602WAT     H239129   3.337   2.405   6.338 -0.1269 -1.0777 -0.5645
 9602WAT    EPW39130   3.261   2.411   6.358  0.0347  0.0804 -0.1699
 9603WAT      O39131   6.543   0.642   7.322  0.3420 -0.0356 -0.5014
 9603WAT     H139132   6.555   0.566   7.364  1.8968 -0.3813 -1.4703
 9603WAT     H239133   6.614   0.688   7.343 -0.0811  0.7543 -0.7547
 9603WAT    EPW39134   6.556   0.638   7.331  0.5092  0.0300 -0.6819
 9604WAT      O39135   2.961   5.886   4.331  0.0991  0.6616 -0.1080
 9604WAT     H139136   3.020   5.946   4.309  1.2289 -0.2248  0.4556
 9604WAT     H239137   2.916   5.924   4.395  0.3059  1.1804 -0.2619
 9604WAT    EPW39138   2.963   5.901   4.337  0.2966  0.6073 -0.0475
 9605WAT      O39139   1.817   5.623   4.846  0.3450  0.3763 -0.3760
 9605WAT     H139140   1.731   5.616   4.831  0.4643 -0.5869 -0.6207
 9605WAT     H239141   1.845   5.673   4.780 -0.1548  1.4460  0.1879
 9605WAT    EPW39142   1.808   5.630   4.834  0.2888  0.3920 -0.3288
 9606WAT      O39143   0.721   2.458   6.221  0.3204 -0.8240  0.4285
 9606WAT     H139144   0.782   2.457   6.158 -0.5940  0.8045 -0.5580
 9606WAT     H239145   0.759   2.504   6.285 -0.4222  1.8304 -0.8986
 9606WAT    EPW39146   0.736   2.464   6.221  0.0756 -0.1913  0.0867
 9607WAT      O39147   2.987   6.786   5.268  0.2187  0.0254  0.0225
 9607WAT     H139148   3.021   6.709   5.290 -1.9504 -0.4308  2.1696
 9607WAT     H239149   3.002   6.835   5.339 -0.1420  0.9907 -0.5504
 9607WAT    EPW39150   2.995   6.782   5.282 -0.1550  0.1006  0.2550
 9608WAT      O39151   4.030   0.439   6.367  0.8957 -0.1816  0.3519
 9608WAT     H139152   4.116   0.444   6.380  0.8926 -0.0840  0.3330
 9608WAT     H239153   4.019   0.467   6.285  0.9907 -1.4988 -0.1308
 9608WAT    EPW39154   4.041   0.444   6.357  0.9093 -0.3618  0.2778
 9609WAT      O39155   7.307   0.653   5.308  0.5443 -0.5377  0.1779
 9609WAT     H139156   7.332   0.633   5.389  0.4992 -0.2525  0.2656
 9609WAT     H239157   7.248   0.593   5.288 -0.5140  0.2290  0.9028
 9609WAT    EPW39158   7.302   0.641   5.317  0.3813 -0.3823  0.2979
 9610WAT      O39159   5.340   6.260   1.830 -0.3683  0.3778  0.7706
 9610WAT     H139160   5.327   6.175   1.814 -0.9439  0.4325  0.9347
 9610WAT     H239161   5.383   6.288   1.760 -0.4688  0.0257  0.5649
 9610WAT    EPW39162   5.345   6.252   1.818 -0.4682  0.3339  0.7645
 9611WAT      O39163   3.109   0.142   0.268  0.1781 -0.3804 -0.4142
 9611WAT     H139164   3.038   0.096   0.292  0.2203  0.6953  2.0598
 9611WAT     H239165   3.083   0.182   0.195 -0.8368 -2.0421 -1.0279
 9611WAT    EPW39166   3.094   0.141   0.260  0.0345 -0.4670 -0.1394
 9612WAT      O39167   2.730   5.492   0.248 -0.4254 -0.2170  0.4331
 9612WAT     H139168   2.727   5.486   0.161  3.3660 -0.4464  0.1354
 9612WAT     H239169   2.747   5.410   0.273  0.6925  0.1979  1.1167
 9612WAT    EPW39170   2.732   5.479   0.239  0.2998 -0.1896  0.4901
 9613WAT      O39171   1.561   5.804   2.144 -0.3077  0.2948 -0.3232
 9613WAT     H139172   1.531   5.760   2.213 -0.5359 -0.4936 -0.8971
 9613WAT     H239173   1.637   5.837   2.171 -0.4625  0.1079  0.3441
 9613WAT    EPW39174   1.568   5.802   2.158 -0.3643  0.1507 -0.3094
 9614WAT      O39175   2.615   0.638   6.672 -0.1686  0.9128 -0.1865
 9614WAT     H139176   2.561   0.648   6.604  0.0350  0.6506 -0.3879
 9614WAT     H239177   2.605   0.713   6.717 -0.0238  1.2465 -0.7002
 9614WAT    EPW39178   2.606   0.651   6.669 -0.1172  0.9234 -0.2921
 9615WAT      O39179   5.954   6.759   3.174  0.4437 -0.2658 -1.0300
 9615WAT     H139180   5.892   6.698   3.176  0.9016 -0.7182 -0.6903
 9615WAT     H239181   6.028   6.714   3.161  0.9639  0.0714  0.5453
 9615WAT    EPW39182   5.956   6.743   3.172  0.5882 -0.2828 -0.7471
 9616WAT      O39183   0.039   5.465   5.179  0.1861  0.4499 -0.0704
 9616WAT     H139184   0.085   5.420   5.120  0.2426 -2.7059  2.1052
 9616WAT     H239185  -0.043   5.457   5.151  0.3074 -0.1601 -0.2687
 9616WAT    EPW39186   0.034   5.457   5.166  0.2123 -0.1064  0.2217
 9617WAT      O39187   2.489   4.611   0.291  0.6423 -0.0436 -0.0582
 9617WAT     H139188   2.543   4.622   0.224  0.1070 -0.4282 -0.5664
 9617WAT     H239189   2.463   4.692   0.310  1.2747  0.1247  0.0868
 9617WAT    EPW39190   2.493   4.624   0.284  0.6567 -0.0756 -0.1118
 9618WAT      O39191   6.590   1.848   4.117  1.1189 -0.0172 -0.4042
 9618WAT     H139192   6.672   1.867   4.140  1.1917 -1.4404  0.6287
 9618WAT     H239193   6.598   1.820   4.035  1.2448  2.3675 -1.3073
 9618WAT    EPW39194   6.603   1.847   4.108  1.1483  0.1248 -0.3850
 9619WAT      O39195   1.078   6.880   4.761  0.0219  0.2900 -0.0999
 9619WAT     H139196   1.044   6.864   4.840  0.0952  0.5924 -0.0066
 9619WAT     H239197   1.008   6.903   4.713  0.0646  0.7098  0.0381
 9619WAT    EPW39198   1.062   6.881   4.765  0.0390  0.3967 -0.0657
 9620WAT      O39199   2.355   7.267   0.973 -0.0087 -0.4770  0.2281
 9620WAT     H139200   2.284   7.316   0.985 -1.1229 -2.4167  2.1865
 9620WAT     H239201   2.392   7.265   1.052 -0.0554 -2.7963  0.2526
 9620WAT    EPW39202   2.350   7.274   0.986 -0.1802 -1.1062  0.5210
 9621WAT      O39203   2.790   7.544   2.480  0.0491 -0.3068 -0.1749
 9621WAT     H139204   2.867   7.541   2.520 -0.1791 -0.1459  0.2759
 9621WAT     H239205   2.735   7.508   2.537 -0.6139  1.5882  0.4600
 9621WAT    EPW39206   2.794   7.539   2.494 -0.0826 -0.0031 -0.0145
 9622WAT      O39207   4.177   2.286   0.187  0.3725  0.3913 -0.1349
 9622WAT     H139208   4.189   2.359   0.141 -0.5264  0.8215  0.2819
 9622WAT     H239209   4.161   2.225   0.127  2.5441  0.1841 -0.5928
 9622WAT    EPW39210   4.176   2.288   0.171  0.5605  0.4242 -0.1410
 9623WAT      O39211   3.694   7.679   4.875  0.3596 -0.1565  0.0363
 9623WAT     H139212   3.743   7.721   4.818 -1.1699 -0.5460 -1.6500
 9623WAT     H239213   3.736   7.603   4.887  0.0057 -0.6758 -1.7238
 9623WAT    EPW39214   3.707   7.674   4.869  0.0814 -0.2908 -0.4728
 9624WAT      O39215   5.647   1.401   2.141  0.4186 -0.8882 -0.5021
 9624WAT     H139216   5.575   1.405   2.093  0.9152  1.4502 -1.1896
 9624WAT     H239217   5.708   1.439   2.091  0.7754  2.5196  2.1462
 9624WAT    EPW39218   5.646   1.407   2.127  0.5447 -0.0394 -0.2125
 9625WAT      O39219   1.857   3.570   3.022 -0.6608  0.9062  0.0957
 9625WAT     H139220   1.923   3.601   2.973 -2.2421  2.0790 -1.3950
 9625WAT     H239221   1.788   3.614   2.994 -2.0614 -0.0321  1.8673
 9625WAT    EPW39222   1.857   3.581   3.011 -1.1013  0.9409  0.1372
 9626WAT      O39223   1.325   3.234   4.820  0.3643 -0.4561 -0.0269
 9626WAT     H139224   1.387   3.173   4.828  0.3465 -0.4469  0.1991
 9626WAT     H239225   1.310   3.258   4.903  0.0130 -0.5029 -0.0746
 9626WAT    EPW39226   1.332   3.229   4.834  0.3098 -0.4616 -0.0006
 9627WAT      O39227   2.567   2.195   2.244  0.0923 -1.2484 -0.0545
 9627WAT     H139228   2.616   2.131   2.279 -1.9633 -2.2424  1.1799
 9627WAT     H239229   2.579   2.261   2.300  1.2888 -0.8945 -0.6856
 9627WAT    EPW39230   2.576   2.195   2.258 -0.0346 -1.3429  0.0346
 9628WAT      O39231   3.185   2.288   2.573 -0.6905  0.6005 -0.2934
 9628WAT     H139232   3.263   2.303   2.537 -0.7969  1.4458 -0.1705
 9628WAT     H239233   3.181   2.344   2.639 -2.5112  2.5470 -1.9375
 9628WAT    EPW39234   3.196   2.298   2.577 -0.9752  1.0129 -0.5181
 9629WAT      O39235   7.528   0.855   4.268  0.3211 -0.3687  0.2363
 9629WAT     H139236   7.451   0.891   4.285 -0.2771 -1.2581 -0.5076
 9629WAT     H239237   7.518   0.772   4.292  1.2856 -0.3348  0.8022
 9629WAT    EPW39238   7.515   0.848   4.274  0.3752 -0.4951  0.2100
 9630WAT      O39239   3.762   6.219   4.513  0.2816 -0.3431  0.0612
 9630WAT     H139240   3.742   6.303   4.509 -0.2096 -0.4566  0.0946
 9630WAT     H239241   3.781   6.205   4.597 -0.7700 -0.5144  0.2859
 9630WAT    EPW39242   3.762   6.229   4.525  0.0537 -0.3852  0.0994
 9631WAT      O39243   7.324   0.327   5.766  0.1783 -0.6008  0.3346
 9631WAT     H139244   7.239   0.316   5.782  0.6279 -2.6424  1.7766
 9631WAT     H239245   7.359   0.249   5.784  2.4914  0.4424  0.8150
 9631WAT    EPW39246   7.317   0.314   5.771  0.5864 -0.7483  0.6186
 9632WAT      O39247   4.487   0.563   1.394  0.2767  0.0445  0.0541
 9632WAT     H139248   4.565   0.578   1.357  1.1522  3.1624  2.6432
 9632WAT     H239249   4.431   0.601   1.340  0.8919  0.1063 -0.5573
 9632WAT    EPW39250   4.490   0.571   1.381  0.4969  0.5142  0.3462
 9633WAT      O39251   0.780   7.683   3.776 -0.2914  0.1829 -0.1076
 9633WAT     H139252   0.807   7.602   3.757 -1.5471 -0.2712 -0.0569
 9633WAT     H239253   0.694   7.675   3.782 -0.3556  1.3323  0.8821
 9633WAT    EPW39254   0.772   7.670   3.774 -0.4863  0.2856  0.0461
 9634WAT      O39255   3.702   0.185   5.058  0.0114  0.2337  0.1601
 9634WAT     H139256   3.771   0.229   5.030 -0.4379  0.8853  0.0421
 9634WAT     H239257   3.699   0.115   5.006 -0.5121  1.1674 -1.1234
 9634WAT    EPW39258   3.711   0.181   5.046 -0.1323  0.4679 -0.0469
 9635WAT      O39259   1.446   6.600   1.565  0.2288 -0.2386  0.1050
 9635WAT     H139260   1.524   6.637   1.574 -0.0978  0.2923  0.8053
 9635WAT     H239261   1.442   6.545   1.632  0.3460 -0.9093 -0.4256
 9635WAT    EPW39262   1.457   6.597   1.576  0.1978 -0.2592  0.1301
 9636WAT      O39263   6.691   6.957   4.719  0.2773  0.2271 -0.2829
 9636WAT     H139264   6.635   6.926   4.660  2.0227 -1.3916 -1.1877
 9636WAT     H239265   6.693   7.043   4.702 -3.2849  0.7511  1.0768
 9636WAT    EPW39266   6.683   6.965   4.708  0.0089  0.0654 -0.2157
 9637WAT      O39267   1.331   6.563   3.602  0.4615  0.0616 -0.3068
 9637WAT     H139268   1.403   6.529   3.638  0.8195  0.2651 -0.8203
 9637WAT     H239269   1.356   6.642   3.575  0.1584 -0.0144 -0.8322
 9637WAT    EPW39270   1.346   6.569   3.603  0.4696  0.0804 -0.4603
 9638WAT      O39271   0.724   6.421   6.113 -0.6900  0.3928  0.2911
 9638WAT     H139272   0.780   6.452   6.054 -0.7866 -0.8784 -0.5124
 9638WAT     H239273   0.776   6.383   6.172 -0.6673 -1.8407 -1.0666
 9638WAT    EPW39274   0.740   6.420   6.113 -0.7009 -0.1249 -0.0282
 9639WAT      O39275   2.418   1.207   4.692  0.1787  0.1618  0.1724
 9639WAT     H139276   2.361   1.228   4.755 -0.6617 -1.2981 -0.0622
 9639WAT     H239277   2.372   1.214   4.619  0.5733 -0.1471 -0.1087
 9639WAT    EPW39278   2.403   1.211   4.691  0.1129 -0.0995  0.0962
 9640WAT      O39279   1.817   1.639   0.083 -0.2348 -0.6071 -0.3375
 9640WAT     H139280   1.870   1.709   0.075 -1.1521 -0.0881 -3.4046
 9640WAT     H239281   1.871   1.575   0.107  0.8433  0.8765  1.4220
 9640WAT    EPW39282   1.833   1.640   0.085 -0.2111 -0.3112 -0.5307
 9641WAT      O39283   5.943   5.382   1.316  0.0071  0.3218 -0.0118
 9641WAT     H139284   5.904   5.331   1.375  0.6598 -2.3930 -1.7601
 9641WAT     H239285   5.881   5.441   1.296 -0.6877  0.4701  2.2591
 9641WAT    EPW39286   5.928   5.383   1.322  0.0009 -0.0573  0.0654
 9642WAT      O39287   1.793   5.800   3.228  0.4127 -0.3323 -0.8024
 9642WAT     H139288   1.749   5.875   3.219  0.0771 -0.4042  0.2111
 9642WAT     H239289   1.798   5.770   3.146 -0.3916  0.2645 -1.0870
 9642WAT    EPW39290   1.787   5.807   3.214  0.2443 -0.2547 -0.6947
 9643WAT      O39291   0.666   4.688   3.988 -0.0525  0.4192 -0.3004
 9643WAT     H139292   0.615   4.619   4.005  0.9287 -0.3851 -0.5246
 9643WAT     H239293   0.613   4.756   3.999 -1.3435 -0.4136 -1.1973
 9643WAT    EPW39294   0.651   4.688   3.992 -0.0983  0.1774 -0.4660
 9644WAT      O39295   1.995   6.115   2.873 -0.2200 -0.1248  0.2671
 9644WAT     H139296   2.004   6.158   2.949  1.6659  0.6130 -0.3118
 9644WAT     H239297   1.981   6.180   2.816  0.1905 -0.5051 -0.2659
 9644WAT    EPW39298   1.994   6.131   2.876  0.1192 -0.0720  0.1028
 9645WAT      O39299   3.852   7.499   3.578 -0.2631  0.2806 -0.0216
 9645WAT     H139300   3.931   7.532   3.559  0.1871  0.1665  1.4969
 9645WAT     H239301   3.814   7.562   3.624  0.0778 -0.7311  1.7256
 9645WAT    EPW39302   3.858   7.513   3.582 -0.1463  0.1143  0.4608
 9646WAT      O39303   6.556   5.151   6.760 -0.4995  0.2907  0.1295
 9646WAT     H139304   6.486   5.106   6.733 -0.2893  0.1269 -0.1476
 9646WAT     H239305   6.547   5.228   6.720 -0.2184  0.0680 -0.3713
 9646WAT    EPW39306   6.545   5.156   6.750 -0.4269  0.2336  0.0146
 9647WAT      O39307   2.831   2.231   6.610 -0.1324  0.2424  0.2798
 9647WAT     H139308   2.815   2.168   6.669 -1.0079 -0.0791 -0.2728
 9647WAT     H239309   2.897   2.276   6.645 -0.5436 -0.0240  1.4312
 9647WAT    EPW39310   2.838   2.228   6.624 -0.3225  0.1556  0.3683
 9648WAT      O39311   1.168   7.501   4.617 -0.3369 -0.3495 -0.2086
 9648WAT     H139312   1.120   7.453   4.672 -1.8133  0.4951 -0.6806
 9648WAT     H239313   1.141   7.583   4.633  2.1039  0.3915  0.5879
 9648WAT    EPW39314   1.157   7.506   4.627 -0.1945 -0.1153 -0.1607
 9649WAT      O39315   5.682   1.832   3.410  0.5910  0.4740  0.3122
 9649WAT     H139316   5.600   1.861   3.419  0.8300  1.2644  0.0482
 9649WAT     H239317   5.730   1.905   3.416  1.2271  0.1092 -0.2204
 9649WAT    EPW39318   5.677   1.847   3.412  0.7203  0.5369  0.1945
 9650WAT      O39319   3.637   0.877   7.554 -0.1237  0.2967 -0.1462
 9650WAT     H139320   3.562   0.919   7.569 -0.8575 -1.1995  0.5389
 9650WAT     H239321   3.624   0.836   7.479  0.3133  0.6634 -0.4291
 9650WAT    EPW39322   3.624   0.877   7.545 -0.1675  0.1299 -0.0868
 9651WAT      O39323   1.181   1.382   0.692 -0.2074 -0.4149 -0.1639
 9651WAT     H139324   1.099   1.401   0.669 -0.3371 -0.3757  0.3095
 9651WAT     H239325   1.195   1.304   0.657 -0.7269 -0.7772  0.4100
 9651WAT    EPW39326   1.171   1.373   0.683 -0.3033 -0.4626 -0.0092
 9652WAT      O39327   4.201   7.174   5.065  0.4079  0.1564 -0.3390
 9652WAT     H139328   4.268   7.146   5.114  0.7009 -0.2300 -0.9474
 9652WAT     H239329   4.174   7.102   5.024 -0.4553  0.2937 -0.0195
 9652WAT    EPW39330   4.207   7.159   5.066  0.3237  0.1196 -0.3817
 9653WAT      O39331   2.452   3.820   1.756 -0.5762  0.9029 -0.4816
 9653WAT     H139332   2.425   3.898   1.728 -3.2915 -0.0221 -0.7760
 9653WAT     H239333   2.395   3.765   1.720  0.1305 -1.0413  1.1709
 9653WAT    EPW39334   2.439   3.823   1.747 -0.8729  0.4791 -0.2810
 9654WAT      O39335   2.809   2.359   4.331 -0.1701  0.0197 -0.6444
 9654WAT     H139336   2.817   2.383   4.248  1.7347 -0.2202 -0.5599
 9654WAT     H239337   2.725   2.336   4.337 -0.5706  0.8779 -2.2487
 9654WAT    EPW39338   2.798   2.359   4.320  0.0521  0.1110 -0.8689
 9655WAT      O39339   2.543   5.163   2.298  0.2785 -0.0750  0.8510
 9655WAT     H139340   2.625   5.171   2.268 -0.0311  1.3847  0.2849
 9655WAT     H239341   2.536   5.078   2.317  1.3121 -0.6227 -0.9262
 9655WAT    EPW39342   2.554   5.152   2.296  0.3854  0.0598  0.5048
 9656WAT      O39343   2.730   7.454   0.664  0.8716 -0.4876 -0.1428
 9656WAT     H139344   2.767   7.431   0.740  3.1425  0.2954 -0.9206
 9656WAT     H239345   2.791   7.434   0.605 -0.3799 -0.0203 -1.6712
 9656WAT    EPW39346   2.745   7.447   0.666  1.0222 -0.3029 -0.4835
 9657WAT      O39347   6.491   7.488   0.751 -0.0908 -0.0979  0.9622
 9657WAT     H139348   6.573   7.509   0.771  0.2152 -0.1515 -0.1616
 9657WAT     H239349   6.493   7.401   0.741 -0.3797 -0.1504  1.3139
 9657WAT    EPW39350   6.503   7.478   0.752 -0.0883 -0.1135  0.8481
 9658WAT      O39351   2.605   0.243   0.598 -0.3240  0.2297  0.1790
 9658WAT     H139352   2.651   0.312   0.569  0.5116 -0.0256  0.8325
 9658WAT     H239353   2.660   0.206   0.656  0.0315 -2.0965 -1.5196
 9658WAT    EPW39354   2.620   0.248   0.602 -0.1481 -0.1517  0.0246
 9659WAT      O39355   6.213   7.332   3.852  0.2390 -0.1432 -0.2045
 9659WAT     H139356   6.217   7.408   3.895 -0.4086  0.7070 -1.5694
 9659WAT     H239357   6.296   7.305   3.850  0.5175  0.6506  0.0716
 9659WAT    EPW39358   6.226   7.339   3.858  0.1845  0.0997 -0.3653
 9660WAT      O39359   4.212   0.323   3.485 -0.5985 -0.5532 -0.3933
 9660WAT     H139360   4.193   0.377   3.419  1.0048 -0.9446 -1.2295
 9660WAT     H239361   4.291   0.294   3.465 -0.3758 -1.2632  1.3546
 9660WAT    EPW39362   4.221   0.327   3.472 -0.3288 -0.7159 -0.2586
 9661WAT      O39363   1.021   7.332   7.564 -0.1514 -0.1446 -0.4914
 9661WAT     H139364   0.946   7.288   7.566 -0.2224  0.0137  0.9219
 9661WAT     H239365   0.999   7.408   7.527 -0.8174  0.1020  0.3771
 9661WAT    EPW39366   1.007   7.336   7.559 -0.2603 -0.0848 -0.1544
 9662WAT      O39367   6.028   6.974   2.034 -0.3806  0.3302 -0.1315
 9662WAT     H139368   6.068   6.930   2.098  0.6559  1.0438 -0.2661
 9662WAT     H239369   6.057   7.056   2.044 -1.2777  0.7335 -0.6740
 9662WAT    EPW39370   6.038   6.980   2.045 -0.3600  0.4952 -0.2315
 9663WAT      O39371   4.436   6.396   6.852 -0.3886  0.3244  0.4410
 9663WAT     H139372   4.519   6.369   6.859 -0.2104  1.0740  1.5233
 9663WAT     H239373   4.392   6.323   6.835  0.4935 -0.0802 -0.1812
 9663WAT    EPW39374   4.442   6.381   6.851 -0.2320  0.3754  0.5090
 9664WAT      O39375   2.040   7.119   5.238 -0.0354 -0.1212  0.0055
 9664WAT     H139376   2.026   7.163   5.313  0.1289  0.7327 -0.4555
 9664WAT     H239377   2.054   7.038   5.265  3.1690  0.6775  1.2312
 9664WAT    EPW39378   2.040   7.114   5.253  0.4622  0.1229  0.1185
 9665WAT      O39379   4.089   0.184   3.783 -0.2243  0.6482 -0.6348
 9665WAT     H139380   4.137   0.167   3.712  0.4833  0.0062 -0.0235
 9665WAT     H239381   4.148   0.213   3.841 -0.6880  0.5210 -0.0945
 9665WAT    EPW39382   4.105   0.186   3.781 -0.1883  0.5346 -0.4647
 9666WAT      O39383   1.918   0.263   3.748  0.2209 -0.1304  0.2241
 9666WAT     H139384   1.999   0.261   3.781  0.1437 -0.4474  0.3995
 9666WAT     H239385   1.877   0.197   3.790  0.0457 -0.3692 -0.3151
 9666WAT    EPW39386   1.924   0.253   3.759  0.1836 -0.2125  0.1704
 9667WAT      O39387   6.915   2.382   7.765 -0.0562  0.0809  0.1807
 9667WAT     H139388   6.963   2.314   7.789  1.2729  0.5752 -0.9908
 9667WAT     H239389   6.922   2.384   7.678 -0.2710  1.5504  0.1659
 9667WAT    EPW39390   6.923   2.372   7.756  0.1084  0.3710  0.0054
 9668WAT      O39391   2.090   0.909   1.799  0.3926 -0.3856 -0.4957
 9668WAT     H139392   2.175   0.919   1.817 -0.0561  2.2642  0.5943
 9668WAT     H239393   2.091   0.874   1.719  2.4482 -2.3538  0.2390
 9668WAT    EPW39394   2.103   0.905   1.790  0.6300 -0.2849 -0.2261
 9669WAT      O39395   2.925   7.301   4.797  0.0499  0.3586  0.4369
 9669WAT     H139396   2.881   7.350   4.740  0.2033 -0.3208 -0.2946
 9669WAT     H239397   2.866   7.241   4.822  0.5355 -0.5999 -0.6032
 9669WAT    EPW39398   2.910   7.299   4.792  0.1443  0.1166  0.1752
 9670WAT      O39399   5.802   3.901   6.692 -0.0530  0.3721  0.0365
 9670WAT     H139400   5.802   3.826   6.735 -0.0421 -1.0313 -2.2482
 9670WAT     H239401   5.747   3.887   6.625 -0.6467  2.6636 -0.0467
 9670WAT    EPW39402   5.794   3.888   6.688 -0.1391  0.5033 -0.3133
 9671WAT      O39403   4.277   6.909   5.856  0.5531  0.0234 -0.3904
 9671WAT     H139404   4.235   6.966   5.907  1.0528 -1.2837  1.5765
 9671WAT     H239405   4.298   6.844   5.910  3.4267 -0.2720 -1.6809
 9671WAT    EPW39406   4.274   6.908   5.871  1.0514 -0.2133 -0.2905
 9672WAT      O39407   3.599   5.372   1.336  0.2324 -0.3739  0.4807
 9672WAT     H139408   3.579   5.353   1.419 -0.8493  1.3669  0.6748
 9672WAT     H239409   3.543   5.324   1.290 -0.0790 -0.3322  0.8105
 9672WAT    EPW39410   3.588   5.363   1.342  0.0266 -0.1106  0.5581
 9673WAT      O39411   1.220   2.929   5.031  0.1660  0.0921  0.4664
 9673WAT     H139412   1.257   2.978   5.093  2.5861 -0.1121 -0.7060
 9673WAT     H239413   1.224   2.849   5.064 -0.4576  0.2202  0.8740
 9673WAT    EPW39414   1.226   2.925   5.045  0.4314  0.0808  0.3534
 9674WAT      O39415   1.813   1.701   6.551 -0.2717  0.1794  0.3009
 9674WAT     H139416   1.807   1.634   6.495  1.5848 -1.4040  1.8254
 9674WAT     H239417   1.804   1.771   6.501 -2.4655 -1.1561 -1.3693
 9674WAT    EPW39418   1.811   1.701   6.535 -0.3215 -0.2518  0.2794
 9675WAT      O39419   7.366   5.556   0.345  0.3904 -0.6231 -0.2982
 9675WAT     H139420   7.375   5.575   0.430  0.3175 -0.9554 -0.2149
 9675WAT     H239421   7.411   5.620   0.305 -2.0352  1.3262 -0.1722
 9675WAT    EPW39422   7.374   5.569   0.352  0.0213 -0.3842 -0.2673
 9676WAT      O39423   0.508   5.611   4.549 -0.2627 -0.0538 -0.1158
 9676WAT     H139424   0.480   5.691   4.528  0.3022  0.0136 -0.6422
 9676WAT     H239425   0.556   5.623   4.620 -0.3749  0.0411 -0.0564
 9676WAT    EPW39426   0.511   5.624   4.556 -0.1958 -0.0298 -0.1848
 9677WAT      O39427   5.121   3.787   0.817  0.4213 -0.2891  0.2390
 9677WAT     H139428   5.194   3.767   0.861  0.1173 -2.2193 -0.0214
 9677WAT     H239429   5.151   3.814   0.739  0.8914  0.8300  0.7959
 9677WAT    EPW39430   5.136   3.788   0.812  0.4458 -0.4089  0.2828
 9678WAT      O39431   3.739   6.196   3.438 -0.5163  0.3687  0.1968
 9678WAT     H139432   3.778   6.222   3.512 -0.5052 -1.0968  0.7343
 9678WAT     H239433   3.717   6.271   3.400 -0.9569  1.1678  1.9033
 9678WAT    EPW39434   3.742   6.211   3.443 -0.5797  0.2703  0.5283
 9679WAT      O39435   1.528   7.176   3.271  0.6785  0.1865  0.1488
 9679WAT     H139436   1.518   7.230   3.204 -0.0705  0.2972  0.3408
 9679WAT     H239437   1.500   7.222   3.340 -1.0900 -0.8235  0.1510
 9679WAT    EPW39438   1.523   7.190   3.272  0.3066  0.0537  0.1775
 9680WAT      O39439   3.660   1.345   2.088 -0.2046 -0.3635 -0.3196
 9680WAT     H139440   3.622   1.283   2.039 -1.0963  0.4488 -0.6843
 9680WAT     H239441   3.689   1.301   2.157  1.5866 -1.6469 -1.7791
 9680WAT    EPW39442   3.659   1.329   2.091 -0.0717 -0.4331 -0.5891
 9681WAT      O39443   1.020   1.493   7.432 -0.5388 -0.0261  0.0876
 9681WAT     H139444   1.018   1.542   7.360 -0.0481 -0.2074 -0.0488
 9681WAT     H239445   0.949   1.519   7.477 -0.4575  0.5728 -0.1327
 9681WAT    EPW39446   1.009   1.504   7.428 -0.4543  0.0355  0.0349
 9682WAT      O39447   5.038   4.026   0.403 -0.5922  0.0760 -0.2512
 9682WAT     H139448   5.094   3.973   0.443 -1.0062  0.7667  1.2948
 9682WAT     H239449   4.999   3.974   0.344  2.0021 -0.3013 -1.7826
 9682WAT    EPW39450   5.040   4.010   0.400 -0.2701  0.1223 -0.2490
 9683WAT      O39451   4.910   0.241   4.495 -0.9130  0.0881 -0.3878
 9683WAT     H139452   4.991   0.266   4.473 -0.4199 -2.2309 -1.4862
 9683WAT     H239453   4.859   0.289   4.443 -0.1151  0.0292 -1.2525
 9683WAT    EPW39454   4.915   0.252   4.484 -0.7223 -0.2632 -0.6778
 9684WAT      O39455   4.251   2.135   3.640 -1.1578 -0.0905  0.3706
 9684WAT     H139456   4.316   2.189   3.614 -1.6631 -0.2686 -1.4452
 9684WAT     H239457   4.206   2.184   3.696 -0.5158  0.7113  0.2252
 9684WAT    EPW39458   4.254   2.150   3.644 -1.1376  0.0016  0.0809
 9685WAT      O39459   4.762   4.782   3.115  0.1633  0.3156  0.1601
 9685WAT     H139460   4.734   4.705   3.087  1.2684 -0.1193  0.2058
 9685WAT     H239461   4.737   4.837   3.052  0.4013 -0.2660 -0.4601
 9685WAT    EPW39462   4.755   4.779   3.102  0.3617  0.1654  0.0752
 9686WAT      O39463   3.273   0.775   2.860 -0.0888 -0.0810  0.1318
 9686WAT     H139464   3.348   0.730   2.860 -1.2875 -2.1993  0.0115
 9686WAT     H239465   3.262   0.796   2.776 -0.2612 -0.9232 -0.0671
 9686WAT    EPW39466   3.282   0.772   2.847 -0.2913 -0.5183  0.0847
 9687WAT      O39467   3.265   0.466   3.097  0.2688 -0.1772  0.0532
 9687WAT     H139468   3.255   0.545   3.062  0.4075 -0.2143 -0.0710
 9687WAT     H239469   3.192   0.455   3.143 -1.2044 -1.2366 -2.3526
 9687WAT    EPW39470   3.253   0.476   3.098  0.0717 -0.3392 -0.3205
 9688WAT      O39471   2.573   5.711   4.167  0.2128  0.0243 -0.1112
 9688WAT     H139472   2.649   5.749   4.147 -0.7076  1.0009 -2.0427
 9688WAT     H239473   2.531   5.770   4.215 -0.6230  0.9521 -1.8803
 9688WAT    EPW39474   2.578   5.725   4.171 -0.0466  0.3056 -0.6579
 9689WAT      O39475   1.527   4.656   6.301  0.1175 -0.3369  0.8769
 9689WAT     H139476   1.513   4.689   6.380 -0.7601  0.8600  0.2483
 9689WAT     H239477   1.589   4.707   6.268  2.1355 -2.1760  1.5467
 9689WAT    EPW39478   1.534   4.668   6.308  0.2859 -0.4318  0.8830
 9690WAT      O39479   3.353   4.907   3.175  0.5203 -0.2690 -0.3983
 9690WAT     H139480   3.439   4.912   3.164  0.9283 -3.0121  0.6596
 9690WAT     H239481   3.323   4.889   3.096  0.9211  0.5873 -0.7530
 9690WAT    EPW39482   3.361   4.905   3.162  0.6398 -0.5477 -0.2944
 9691WAT      O39483   3.821   6.729   2.027  0.4874 -0.0532 -0.3066
 9691WAT     H139484   3.853   6.668   1.973  1.2190 -1.2282  1.3557
 9691WAT     H239485   3.745   6.751   1.991  0.7708 -1.0679 -1.5960
 9691WAT    EPW39486   3.815   6.723   2.014  0.6373 -0.3767 -0.2515
 9692WAT      O39487   2.866   3.653   1.251  0.4493 -0.0566 -0.5767
 9692WAT     H139488   2.821   3.652   1.326  0.0893  0.6635 -0.7726
 9692WAT     H239489   2.947   3.675   1.276  0.3342  0.1698 -0.4004
 9692WAT    EPW39490   2.871   3.656   1.266  0.3791  0.0832 -0.5796
 9693WAT      O39491   2.154   6.089   4.028 -0.3522  0.0688 -0.1837
 9693WAT     H139492   2.221   6.140   4.053  0.5052 -1.2821  0.3749
 9693WAT     H239493   2.193   6.013   4.007 -1.7150 -0.7624  0.2200
 9693WAT    EPW39494   2.170   6.085   4.029 -0.4269 -0.2536 -0.0416
 9694WAT      O39495   2.458   0.531   3.373 -0.2268  0.3187  0.2976
 9694WAT     H139496   2.428   0.605   3.407 -0.9737  0.1271  0.0814
 9694WAT     H239497   2.417   0.525   3.296  0.9490  0.4208 -0.3583
 9694WAT    EPW39498   2.447   0.541   3.366 -0.1634  0.3054  0.1688
 9695WAT      O39499   5.465   5.700   6.170  0.6624 -0.2761  0.0902
 9695WAT     H139500   5.492   5.703   6.087 -3.2119  0.3498 -1.4008
 9695WAT     H239501   5.463   5.615   6.189 -0.7510 -0.6581 -1.5048
 9695WAT    EPW39502   5.468   5.688   6.161 -0.1187 -0.2400 -0.3657
 9696WAT      O39503   3.224   7.224   6.823  0.6834 -0.4361  0.0394
 9696WAT     H139504   3.190   7.280   6.766  1.1404 -0.3092 -0.1191
 9696WAT     H239505   3.310   7.230   6.808  1.2781  2.3946  3.1566
 9696WAT    EPW39506   3.232   7.233   6.812  0.8387  0.0008  0.4765
 9697WAT      O39507   4.266   4.505   7.431 -0.3167  0.5449  0.4941
 9697WAT     H139508   4.287   4.439   7.485 -1.6475 -0.1213  0.2335
 9697WAT     H239509   4.248   4.571   7.485 -0.4943  0.2371  0.8131
 9697WAT    EPW39510   4.267   4.505   7.447 -0.5395  0.4010  0.5027
 9698WAT      O39511   2.103   3.871   3.027 -0.0762 -0.2610 -0.3072
 9698WAT     H139512   2.122   3.811   2.966  0.2149 -2.8013  2.0746
 9698WAT     H239513   2.151   3.846   3.096 -2.1947  0.9719  1.7684
 9698WAT    EPW39514   2.113   3.859   3.028 -0.3461 -0.4541  0.3512
 9699WAT      O39515   4.735   0.590   2.571 -0.2574 -0.0525  0.6586
 9699WAT     H139516   4.672   0.532   2.587 -0.7085  0.2305 -0.0411
 9699WAT     H239517   4.711   0.626   2.495  0.1794  0.8299  0.9263
 9699WAT    EPW39518   4.722   0.587   2.562 -0.2595  0.1196  0.5948
 9700WAT      O39519   2.087   6.978   4.900  0.1414  0.2454 -0.2801
 9700WAT     H139520   2.084   6.898   4.936  0.6448 -0.2592 -1.3233
 9700WAT     H239521   2.008   7.011   4.918 -1.1218 -1.5151 -2.0938
 9700WAT    EPW39522   2.075   6.971   4.908  0.0292 -0.0892 -0.7021
 9701WAT      O39523   5.420   5.279   6.632 -0.3485  0.2719  0.1888
 9701WAT     H139524   5.491   5.331   6.633 -1.1669  1.4624  1.7455
 9701WAT     H239525   5.395   5.278   6.715 -2.0023 -0.3701 -0.2833
 9701WAT    EPW39526   5.427   5.287   6.644 -0.7137  0.3529  0.3490
 9702WAT      O39527   4.990   5.897   2.227 -0.2652  0.1081  0.1787
 9702WAT     H139528   4.957   5.970   2.192 -1.3283 -0.2456  0.3955
 9702WAT     H239529   4.998   5.917   2.311 -1.9540 -0.4563  0.5216
 9702WAT    EPW39530   4.986   5.911   2.234 -0.6717 -0.0275  0.2614
 9703WAT      O39531   2.970   7.329   5.127  0.1570 -0.1127 -0.4870
 9703WAT     H139532   2.918   7.267   5.160  0.4433  0.4120  1.0620
 9703WAT     H239533   2.957   7.324   5.041 -1.2208 -1.0685 -0.2528
 9703WAT    EPW39534   2.960   7.319   5.119 -0.0043 -0.1764 -0.2236
 9704WAT      O39535   1.117   6.379   4.314  0.0198  0.3043 -0.4696
 9704WAT     H139536   1.085   6.391   4.234  1.0235  1.0282 -0.7796
 9704WAT     H239537   1.049   6.397   4.366 -0.2135  1.4296 -1.1239
 9704WAT    EPW39538   1.102   6.384   4.310  0.1336  0.5775 -0.6120
 9705WAT      O39539   6.915   7.054   7.279  0.3238  0.0531  0.0434
 9705WAT     H139540   6.900   6.977   7.242  0.5016 -0.1424  0.3730
 9705WAT     H239541   6.971   7.035   7.344  1.4177  0.6405 -0.6834
 9705WAT    EPW39542   6.921   7.040   7.283  0.5117  0.1110 -0.0153
 9706WAT      O39543   3.701   7.367   3.421 -0.0709  0.2690 -0.4302
 9706WAT     H139544   3.758   7.344   3.359 -0.5029 -0.1927 -0.6588
 9706WAT     H239545   3.751   7.407   3.481  0.2745  1.1737 -1.2979
 9706WAT    EPW39546   3.717   7.369   3.421 -0.0837  0.3344 -0.5922
 9707WAT      O39547   5.414   1.427   0.077 -0.0976 -0.4336 -0.2618
 9707WAT     H139548   5.376   1.349   0.066 -0.0306 -0.2871 -1.8435
 9707WAT     H239549   5.399   1.467   0.001  0.8887  0.6408  0.0876
 9707WAT    EPW39550   5.406   1.421   0.064  0.0580 -0.2532 -0.4438
 9708WAT      O39551   2.406   6.657   6.511  0.3303  0.2309 -0.2488
 9708WAT     H139552   2.450   6.715   6.561 -0.9054  1.3116 -0.3650
 9708WAT     H239553   2.384   6.704   6.441 -1.0861 -0.2414 -0.1418
 9708WAT    EPW39554   2.409   6.673   6.508 -0.0615  0.3208 -0.2502
 9709WAT      O39555   0.864   6.977   5.146 -0.3593  0.4496  0.3158
 9709WAT     H139556   0.926   6.998   5.204  0.5704  0.5154 -0.6798
 9709WAT     H239557   0.871   7.040   5.086  1.4325 -1.7452 -1.9444
 9709WAT    EPW39558   0.874   6.990   5.146  0.0428  0.1351 -0.1652
 9710WAT      O39559   1.450   7.468   0.169 -0.7985  0.3464  0.0325
 9710WAT     H139560   1.378   7.428   0.197 -1.0495 -1.7443 -3.0381
 9710WAT     H239561   1.500   7.402   0.142  1.8823  1.8177  1.0698
 9710WAT    EPW39562   1.447   7.453   0.169 -0.4396  0.2549 -0.2679
 9711WAT      O39563   1.767   1.332   3.518 -0.0888 -0.2903 -0.1634
 9711WAT     H139564   1.809   1.284   3.578 -0.1859  0.0760  0.2123
 9711WAT     H239565   1.789   1.414   3.540  0.1509 -0.1627 -0.8447
 9711WAT    EPW39566   1.777   1.337   3.530 -0.0677 -0.2173 -0.2085
 9712WAT      O39567   6.369   2.821   0.348 -0.2304 -0.4692 -0.5392
 9712WAT     H139568   6.291   2.823   0.388 -0.8886  0.0953 -1.7998
 9712WAT     H239569   6.386   2.905   0.331  1.5166 -0.3839  1.2454
 9712WAT    EPW39570   6.360   2.834   0.351 -0.0695 -0.3732 -0.4618
 9713WAT      O39571   1.771   6.091   1.979  0.7113 -0.0566  0.0203
 9713WAT     H139572   1.691   6.128   1.980 -0.1769 -1.8981  0.0718
 9713WAT     H239573   1.775   6.051   2.056  0.5852 -2.1736 -1.0128
 9713WAT    EPW39574   1.759   6.091   1.991  0.5615 -0.6414 -0.1247
 9714WAT      O39575   0.071   7.215   4.204  0.1291  0.3930  0.0777
 9714WAT     H139576   0.098   7.144   4.248  0.4097  0.1560 -0.4657
 9714WAT     H239577   0.042   7.182   4.129 -0.9321  0.7264  0.3250
 9714WAT    EPW39578   0.071   7.199   4.200  0.0138  0.4072  0.0339
 9715WAT      O39579   4.210   1.393   2.876  0.5107  0.1225  0.0867
 9715WAT     H139580   4.145   1.344   2.909 -0.1326  1.1585  0.3896
 9715WAT     H239581   4.257   1.336   2.830 -0.3210 -0.7490  0.2891
 9715WAT    EPW39582   4.207   1.377   2.874  0.2928  0.1468  0.1613
 9716WAT      O39583   6.243   3.199   6.439 -0.4645 -0.2922 -0.0051
 9716WAT     H139584   6.261   3.230   6.519  0.3796  0.3899 -0.4447
 9716WAT     H239585   6.293   3.247   6.387 -0.1253 -1.5207 -0.8416
 9716WAT    EPW39586   6.253   3.211   6.443 -0.2897 -0.3729 -0.1936
 9717WAT      O39587   3.426   2.452   0.748  0.4829 -0.3875 -0.4552
 9717WAT     H139588   3.348   2.490   0.739  0.3934 -0.4675 -0.0209
 9717WAT     H239589   3.421   2.384   0.693  0.8707  0.5541 -1.7079
 9717WAT    EPW39590   3.414   2.447   0.738  0.5270 -0.2602 -0.5761
 9718WAT      O39591   3.045   0.493   7.825 -0.1236 -0.4033 -0.0964
 9718WAT     H139592   3.123   0.509   7.860 -0.3316 -2.0321  1.2629
 9718WAT     H239593   3.061   0.491   7.739  0.5807  2.7920 -0.1562
 9718WAT    EPW39594   3.059   0.495   7.818 -0.0503 -0.1719  0.0955
 9719WAT      O39595   2.715   5.952   2.435  0.5485 -0.3431 -0.7728
 9719WAT     H139596   2.768   5.920   2.496  0.6047  0.1965 -0.5325
 9719WAT     H239597   2.672   5.882   2.406  0.1149 -0.5272  0.2758
 9719WAT    EPW39598   2.716   5.937   2.439  0.4928 -0.2906 -0.5824
 9720WAT      O39599   3.712   4.186   6.857  0.2331  0.3813  0.5025
 9720WAT     H139600   3.794   4.218   6.854  0.7978 -1.0117  0.1818
 9720WAT     H239601   3.668   4.236   6.801  0.7905  1.3330  0.8867
 9720WAT    EPW39602   3.718   4.199   6.848  0.3989  0.3161  0.5119
 9721WAT      O39603   2.241   1.610   4.729 -0.2960 -0.1044 -0.4378
 9721WAT     H139604   2.211   1.690   4.710 -0.2078  0.0813  0.1629
 9721WAT     H239605   2.327   1.623   4.740 -0.5238  0.0957  1.4604
 9721WAT    EPW39606   2.249   1.624   4.728 -0.3166 -0.0474 -0.0687
 9722WAT      O39607   3.116   4.038   7.165  0.3242 -0.7226 -0.2373
 9722WAT     H139608   3.089   4.025   7.247  2.0611  0.5153  0.5951
 9722WAT     H239609   3.121   3.957   7.132  0.2818 -1.3071  1.1158
 9722WAT    EPW39610   3.113   4.024   7.172  0.5745 -0.6261  0.0856
 9723WAT      O39611   5.674   5.755   2.667 -0.0351 -0.1447  0.2700
 9723WAT     H139612   5.634   5.700   2.612 -1.7716 -0.4153  1.7194
 9723WAT     H239613   5.713   5.701   2.724 -2.0465  0.0575  1.9104
 9723WAT    EPW39614   5.674   5.739   2.667 -0.5888 -0.1548  0.7265
 9724WAT      O39615   0.656   4.192   7.736 -0.4593  0.5612 -0.2565
 9724WAT     H139616   0.615   4.265   7.712  2.7256  2.3294 -0.9782
 9724WAT     H239617   0.737   4.220   7.756  0.7945 -2.7233 -0.1109
 9724WAT    EPW39618   0.662   4.207   7.735  0.1964  0.3372 -0.3416
 9725WAT      O39619   4.266   5.271   0.007  0.2220 -0.2490  0.2172
 9725WAT     H139620   4.190   5.252  -0.032 -0.1924  1.2120  0.2472
 9725WAT     H239621   4.281   5.202   0.057  0.8893 -2.3199 -2.5993
 9725WAT    EPW39622   4.257   5.258   0.009  0.2594 -0.3391 -0.1944
 9726WAT      O39623   1.625   0.462   7.445  0.1635 -0.0596 -0.4953
 9726WAT     H139624   1.618   0.507   7.370 -0.4903 -0.3117 -0.5966
 9726WAT     H239625   1.708   0.473   7.469  0.6475 -0.7750 -1.7642
 9726WAT    EPW39626   1.636   0.470   7.438  0.1384 -0.2025 -0.6977
 9727WAT      O39627   4.728   3.415   1.625  0.1784  0.5318  0.0936
 9727WAT     H139628   4.810   3.392   1.604  0.6484  2.7067 -0.6777
 9727WAT     H239629   4.687   3.338   1.634  2.3185 -0.6219  0.6493
 9727WAT    EPW39630   4.734   3.400   1.623  0.5639  0.6826  0.0618
 9728WAT      O39631   1.241   1.877   7.250  0.0448  0.4748 -0.1009
 9728WAT     H139632   1.262   1.959   7.231  0.2149  1.2662  2.9158
 9728WAT     H239633   1.307   1.850   7.301 -0.7512 -0.9693  0.2265
 9728WAT    EPW39634   1.254   1.885   7.255 -0.0477  0.3784  0.3931
 9729WAT      O39635   5.512   0.829   5.299  0.0631  0.0746  0.7361
 9729WAT     H139636   5.585   0.875   5.285  0.6862 -1.1943 -0.4482
 9729WAT     H239637   5.541   0.747   5.303 -1.2941 -0.4369  0.3860
 9729WAT    EPW39638   5.527   0.824   5.297 -0.0454 -0.1884  0.5094
 9730WAT      O39639   1.941   0.428   2.371 -0.1233  0.1652 -0.3074
 9730WAT     H139640   2.012   0.455   2.328 -1.8300  2.7417 -1.7919
 9730WAT     H239641   1.923   0.495   2.425 -2.8611  0.8976 -1.9366
 9730WAT    EPW39642   1.949   0.442   2.373 -0.7799  0.6540 -0.7674
 9731WAT      O39643   3.166   7.465   1.969 -0.2716  0.3135  0.8617
 9731WAT     H139644   3.248   7.443   1.951  0.1081  2.9252 -1.1673
 9731WAT     H239645   3.171   7.497   2.050  1.0154  1.5422  0.3400
 9731WAT    EPW39646   3.178   7.467   1.978 -0.0254  0.8808  0.4849
 9732WAT      O39647   7.393   6.290   5.462  0.3011 -0.2238  0.6987
 9732WAT     H139648   7.451   6.355   5.469  1.5634 -1.3611  1.5212
 9732WAT     H239649   7.391   6.274   5.376  2.0288 -0.8021  0.7208
 9732WAT    EPW39650   7.402   6.297   5.450  0.7428 -0.4772  0.8235
 9733WAT      O39651   1.335   7.427   5.256  0.1129  0.9455  0.1798
 9733WAT     H139652   1.254   7.409   5.283 -0.1184 -0.5222 -1.3573
 9733WAT     H239653   1.383   7.419   5.329 -0.7685 -0.7690  0.6219
 9733WAT    EPW39654   1.330   7.423   5.271 -0.0514  0.4754  0.0180
 9734WAT      O39655   1.705   5.561   0.921  0.6778  0.0454 -0.0815
 9734WAT     H139656   1.665   5.606   0.858  0.0069 -0.1848  0.1716
 9734WAT     H239657   1.772   5.613   0.944  0.0758  0.7875  0.0214
 9734WAT    EPW39658   1.709   5.576   0.915  0.4898  0.1210 -0.0289
 9735WAT      O39659   5.844   1.394   4.826  0.0768  0.7885  0.2941
 9735WAT     H139660   5.772   1.441   4.810  0.1134  0.6679 -0.2305
 9735WAT     H239661   5.908   1.439   4.787 -0.0423 -0.2178 -1.1490
 9735WAT    EPW39662   5.842   1.408   4.818  0.0646  0.6221  0.0035
 9736WAT      O39663   2.301   0.181   2.507 -0.0597  0.6430  0.8876
 9736WAT     H139664   2.306   0.153   2.589  0.9545  1.3201  1.0802
 9736WAT     H239665   2.308   0.268   2.514  1.5099  0.6247  0.0041
 9736WAT    EPW39666   2.303   0.190   2.520  0.3220  0.7403  0.7855
 9737WAT      O39667   4.501   1.735   6.242 -0.2775  0.3539  0.4892
 9737WAT     H139668   4.414   1.741   6.245 -0.6812 -1.5068 -2.4626
 9737WAT     H239669   4.526   1.808   6.201 -0.4795  0.6854  0.9503
 9737WAT    EPW39670   4.492   1.746   6.236 -0.3670  0.1280  0.1213
 9738WAT      O39671   1.388   3.764   6.444  0.4616 -0.2121 -0.6440
 9738WAT     H139672   1.319   3.714   6.461  0.0147  0.2003 -1.2366
 9738WAT     H239673   1.453   3.723   6.486 -0.2523 -0.2349  0.4671
 9738WAT    EPW39674   1.388   3.751   6.453  0.2901 -0.1545 -0.5674
 9739WAT      O39675   2.399   6.402   3.811 -0.0655 -0.3370 -0.2543
 9739WAT     H139676   2.393   6.378   3.727 -1.5292 -2.5571  0.3894
 9739WAT     H239677   2.316   6.400   3.839  0.5626 -1.7007  1.7244
 9739WAT    EPW39678   2.386   6.398   3.803 -0.1890 -0.8664  0.1331
 9740WAT      O39679   2.704   2.199   3.685  0.2380 -0.0087  0.4771
 9740WAT     H139680   2.739   2.184   3.607  0.0054  1.4317  0.0675
 9740WAT     H239681   2.681   2.283   3.681 -0.2005 -0.0380  1.9314
 9740WAT    EPW39682   2.706   2.209   3.673  0.1389  0.1998  0.6314
 9741WAT      O39683   2.195   6.869   7.439 -0.1777 -0.2472  0.1112
 9741WAT     H139684   2.211   6.823   7.511 -0.3398  1.1039  1.0635
 9741WAT     H239685   2.222   6.950   7.461 -1.5893  0.5087 -0.8203
 9741WAT    EPW39686   2.202   6.874   7.453 -0.4101  0.0640  0.1143
 9742WAT      O39687   3.226   4.746   3.394 -0.2177 -0.3389  0.2374
 9742WAT     H139688   3.282   4.759   3.328  1.4825 -0.7880  1.5433
 9742WAT     H239689   3.277   4.730   3.462 -1.8861  1.2001  1.9557
 9742WAT    EPW39690   3.242   4.745   3.394 -0.2130 -0.1779  0.6842
 9743WAT      O39691   6.707   7.161   4.304 -0.9986  0.1484  0.3709
 9743WAT     H139692   6.782   7.189   4.339 -0.3992 -0.4066 -0.4314
 9743WAT     H239693   6.730   7.092   4.256 -1.4885  1.6583 -2.2689
 9743WAT    EPW39694   6.721   7.155   4.302 -0.9825  0.2894 -0.1376
 9744WAT      O39695   3.180   6.787   4.066  0.4595 -0.0218 -0.3788
 9744WAT     H139696   3.161   6.745   4.140  1.0285 -0.2826 -0.3699
 9744WAT     H239697   3.120   6.758   4.010 -1.3025  1.7472  0.4854
 9744WAT    EPW39698   3.169   6.776   4.069  0.2833  0.2010 -0.2498
 9745WAT      O39699   1.226   6.583   3.858 -0.3000 -0.3544 -0.7591
 9745WAT     H139700   1.294   6.620   3.899  0.0058 -0.5122 -1.1227
 9745WAT     H239701   1.252   6.577   3.775 -0.2526 -1.5959 -0.6733
 9745WAT    EPW39702   1.240   6.588   3.852 -0.2478 -0.5611 -0.8001
 9746WAT      O39703   3.133   6.761   1.327 -0.0159  0.0373  0.5192
 9746WAT     H139704   3.191   6.698   1.345 -1.0191 -1.0082  0.2414
 9746WAT     H239705   3.070   6.718   1.284 -1.4740  0.9152  1.6975
 9746WAT    EPW39706   3.132   6.745   1.323 -0.3795  0.0125  0.6522
 9747WAT      O39707   3.203   2.486   2.778  0.3987 -0.6952  0.0885
 9747WAT     H139708   3.157   2.445   2.840 -0.2611  0.0576  0.1111
 9747WAT     H239709   3.285   2.484   2.809  0.2467 -1.2575  0.4775
 9747WAT    EPW39710   3.208   2.480   2.792  0.2788 -0.6670  0.1493
 9748WAT      O39711   1.749   0.236   0.835  0.1290 -0.1498 -0.0964
 9748WAT     H139712   1.675   0.279   0.822 -0.1124 -0.7998 -0.9641
 9748WAT     H239713   1.727   0.152   0.825  1.1766 -0.2953 -1.5157
 9748WAT    EPW39714   1.735   0.230   0.832  0.2481 -0.2673 -0.4342
 9749WAT      O39715   1.130   2.506   7.213 -0.3109 -0.1251 -0.1784
 9749WAT     H139716   1.137   2.572   7.270  0.5805 -1.4510  1.3391
 9749WAT     H239717   1.187   2.447   7.243 -0.9056 -1.4993 -1.6136
 9749WAT    EPW39718   1.139   2.507   7.226 -0.2670 -0.5240 -0.1663
 9750WAT      O39719   1.933   2.508   4.999 -0.4238  0.3911  0.1382
 9750WAT     H139720   1.960   2.461   5.067  0.6846 -0.3062 -0.7490
 9750WAT     H239721   1.870   2.458   4.964  0.2929 -0.1351 -0.4174
 9750WAT    EPW39722   1.927   2.493   5.004 -0.1542  0.2104 -0.0750
 9751WAT      O39723   2.777   6.051   7.092 -0.0063 -0.2320  0.3061
 9751WAT     H139724   2.800   5.989   7.034 -1.4159  0.1764 -0.7561
 9751WAT     H239725   2.721   6.010   7.144 -3.1075  0.6430 -2.0182
 9751WAT    EPW39726   2.772   6.036   7.091 -0.6727 -0.0424 -0.1942
 9752WAT      O39727   1.076   1.121   0.558 -0.4629  0.1744 -0.2673
 9752WAT     H139728   1.163   1.113   0.551 -0.7052 -2.1514 -1.4396
 9752WAT     H239729   1.050   1.134   0.476 -1.3195 -0.6498 -0.1450
 9752WAT    EPW39730   1.085   1.122   0.545 -0.6252 -0.2909 -0.4224
 9753WAT      O39731   4.762   2.621   5.643 -0.5226 -0.3713  0.0012
 9753WAT     H139732   4.828   2.659   5.686 -1.9690  1.4285  0.7804
 9753WAT     H239733   4.800   2.585   5.573  1.0523  2.2047 -0.5842
 9753WAT    EPW39734   4.777   2.621   5.639 -0.5036  0.2751  0.0298
 9754WAT      O39735   2.979   5.262   6.630 -0.1850 -0.1235  0.4135
 9754WAT     H139736   2.970   5.344   6.657  1.6627  0.0630  0.6082
 9754WAT     H239737   2.978   5.268   6.543 -2.3443 -0.2405  0.3733
 9754WAT    EPW39738   2.978   5.275   6.621 -0.2311 -0.1132  0.4363
 9755WAT      O39739   2.713   7.433   3.983  0.4045  0.0471 -0.4348
 9755WAT     H139740   2.700   7.517   4.005  0.5961  0.4834 -1.8880
 9755WAT     H239741   2.741   7.397   4.057 -1.4125  0.8460  0.7140
 9755WAT    EPW39742   2.715   7.440   3.997  0.1644  0.2296 -0.4798
 9756WAT      O39743   3.018   1.039   0.361  0.2241  0.0107 -0.1067
 9756WAT     H139744   3.085   1.082   0.398  0.7331  1.2234 -2.2553
 9756WAT     H239745   3.054   1.003   0.290 -0.6904 -2.2841  0.4823
 9756WAT    EPW39746   3.033   1.040   0.356  0.1642 -0.1491 -0.3371
 9757WAT      O39747   2.516   1.965   3.674 -0.4076 -1.0854 -0.2143
 9757WAT     H139748   2.529   1.944   3.757  1.0402 -0.7384 -0.3254
 9757WAT     H239749   2.551   2.045   3.667 -2.9888  0.1299 -0.5284
 9757WAT    EPW39750   2.523   1.974   3.685 -0.5750 -0.8546 -0.2771
 9758WAT      O39751   1.493   2.081   5.699  0.3150 -0.0665  0.0105
 9758WAT     H139752   1.505   2.161   5.733 -0.2702  0.4888 -1.0596
 9758WAT     H239753   1.434   2.045   5.752  2.4304 -0.8162  2.0697
 9758WAT    EPW39754   1.486   2.088   5.712  0.5410 -0.0952  0.1566
 9759WAT      O39755   0.544   4.441   3.971 -0.2283  0.2271  0.2418
 9759WAT     H139756   0.550   4.355   3.955 -2.1479  0.3699 -1.8415
 9759WAT     H239757   0.488   4.445   4.038  1.8614 -0.1392  2.1351
 9759WAT    EPW39758   0.536   4.429   3.979 -0.2032  0.1940  0.2137
 9760WAT      O39759   7.610   6.476   5.499 -0.0650  0.3821 -0.2104
 9760WAT     H139760   7.638   6.402   5.462 -0.4943 -0.1240  0.4355
 9760WAT     H239761   7.682   6.526   5.501  0.6609 -0.6318  0.8098
 9760WAT    EPW39762   7.625   6.473   5.494 -0.0212  0.1575  0.0357
 9761WAT      O39763   1.546   6.573   2.114 -0.1593  0.3092  0.2227
 9761WAT     H139764   1.623   6.536   2.130 -0.7082 -1.1904 -0.4755
 9761WAT     H239765   1.493   6.505   2.101 -2.1489  1.1757  2.9273
 9761WAT    EPW39766   1.550   6.557   2.115 -0.5343  0.2157  0.5191
 9762WAT      O39767   1.696   0.806   7.386 -0.0658  0.0314 -0.1403
 9762WAT     H139768   1.652   0.759   7.327 -0.1543 -1.0433  0.7684
 9762WAT     H239769   1.729   0.871   7.338 -1.6197  0.1987 -1.0580
 9762WAT    EPW39770   1.695   0.809   7.370 -0.3084 -0.1027 -0.1416
 9763WAT      O39771   3.600   7.033   4.008  0.5424  0.0083  0.5513
 9763WAT     H139772   3.581   6.952   3.980  0.6775 -0.4688  1.7682
 9763WAT     H239773   3.530   7.055   4.055  0.4878  0.6223  0.1829
 9763WAT    EPW39774   3.587   7.024   4.011  0.5543  0.0285  0.6767
 9764WAT      O39775   2.212   7.149   2.617 -0.3915  0.7918  0.2983
 9764WAT     H139776   2.284   7.182   2.578 -0.9579 -0.1591 -1.6772
 9764WAT     H239777   2.153   7.213   2.608 -1.3276 -0.3523 -3.0418
 9764WAT    EPW39778   2.214   7.164   2.610 -0.6135  0.4823 -0.4869
 9765WAT      O39779   0.476   7.162   7.304  0.3494  0.1547 -0.2609
 9765WAT     H139780   0.464   7.248   7.297  3.3158  0.6707  0.1065
 9765WAT     H239781   0.543   7.146   7.251  1.7618 -1.3906  1.8306
 9765WAT    EPW39782   0.484   7.173   7.295  0.9962  0.0026  0.1024
 9766WAT      O39783   1.471   7.622   7.525  0.4566 -0.5481  0.0196
 9766WAT     H139784   1.394   7.633   7.564 -0.2440  0.3336 -1.5325
 9766WAT     H239785   1.528   7.656   7.583 -0.6736  1.9648 -0.2190
 9766WAT    EPW39786   1.468   7.628   7.540  0.1861 -0.0466 -0.2449
 9767WAT      O39787   5.405   1.891   7.680  0.5144 -0.2385 -0.3102
 9767WAT     H139788   5.402   1.940   7.753  1.3583  0.1671 -0.5375
 9767WAT     H239789   5.462   1.934   7.630  0.8645 -1.1875 -0.7279
 9767WAT    EPW39790   5.413   1.905   7.683  0.6908 -0.3188 -0.4055
 9768WAT      O39791   7.619   5.360   6.453  0.2455  0.2132 -1.0645
 9768WAT     H139792   7.622   5.301   6.389  0.4058  0.3281 -1.1618
 9768WAT     H239793   7.574   5.319   6.516  2.1417 -0.8591 -0.2846
 9768WAT    EPW39794   7.613   5.345   6.453  0.5493  0.0718 -0.9637
 9769WAT      O39795   3.638   7.358   1.153 -0.5570  0.2212 -0.4417
 9769WAT     H139796   3.667   7.428   1.197  0.0539 -0.9282  1.0716
 9769WAT     H239797   3.704   7.339   1.099 -0.5179  0.5166 -0.4996
 9769WAT    EPW39798   3.652   7.366   1.152 -0.4610  0.0951 -0.2267
 9770WAT      O39799   0.007   6.972   4.728  0.4217 -0.4446 -0.1992
 9770WAT     H139800   0.042   6.944   4.803  1.6953  1.8142  0.1661
 9770WAT     H239801   0.071   6.963   4.670 -0.2254 -1.2516 -0.8138
 9770WAT    EPW39802   0.021   6.967   4.731  0.5142 -0.2301 -0.2360
 9771WAT      O39803   3.561   6.840   0.747 -0.1600  0.4768 -0.4761
 9771WAT     H139804   3.626   6.796   0.710  0.2178 -1.1362  1.8726
 9771WAT     H239805   3.498   6.839   0.687  0.2809 -2.3038 -1.0194
 9771WAT    EPW39806   3.561   6.834   0.733 -0.0390 -0.1723 -0.2094
 9772WAT      O39807   5.886   2.983   3.198  0.1477  0.5366  0.3398
 9772WAT     H139808   5.952   2.945   3.156  1.3965 -0.3249  2.9101
 9772WAT     H239809   5.924   3.025   3.264 -1.8392 -1.2933  2.8992
 9772WAT    EPW39810   5.901   2.983   3.202  0.0387  0.1390  1.0976
 9773WAT      O39811   3.852   0.683   5.626 -0.3082 -0.3725  0.1646
 9773WAT     H139812   3.858   0.671   5.540 -2.2273 -1.0327  0.0808
 9773WAT     H239813   3.833   0.604   5.657  0.4748 -0.1657  1.2293
 9773WAT    EPW39814   3.850   0.670   5.618 -0.4760 -0.4395  0.3095
 9774WAT      O39815   2.070   4.359   6.137 -0.4767  0.0811 -0.3230
 9774WAT     H139816   2.080   4.275   6.112  0.7518  0.4138 -1.0481
 9774WAT     H239817   1.984   4.371   6.134 -0.5477 -0.2727 -3.4264
 9774WAT    EPW39818   2.059   4.348   6.133 -0.3058  0.0780 -0.8886
 9775WAT      O39819   4.229  -0.004   3.139 -0.2114  0.2490 -0.5633
 9775WAT     H139820   4.148   0.027   3.136 -0.0111  0.8235 -0.2049
 9775WAT     H239821   4.265   0.037   3.208 -0.1032 -1.1808  0.2796
 9775WAT    EPW39822   4.223   0.006   3.149 -0.1658  0.1227 -0.3858
 9776WAT      O39823   4.774   2.721   6.786  0.2176 -0.4373  0.0474
 9776WAT     H139824   4.708   2.676   6.822 -1.3427  1.5695 -0.1112
 9776WAT     H239825   4.744   2.743   6.707 -0.2361  2.9101  0.9832
 9776WAT    EPW39826   4.760   2.718   6.780 -0.0799  0.3536  0.1622
 9777WAT      O39827   3.514   7.041   3.244  0.7946  0.2517 -0.8426
 9777WAT     H139828   3.531   7.049   3.329 -1.4967 -0.9058 -0.2275
 9777WAT     H239829   3.551   6.965   3.222 -2.2975 -1.7257  0.2476
 9777WAT    EPW39830   3.522   7.031   3.253 -0.0006 -0.2114 -0.5906
 9778WAT      O39831   1.003   4.927   3.953 -0.1334 -0.2307  0.5669
 9778WAT     H139832   0.941   4.987   3.965  0.0297  0.1776 -0.5199
 9778WAT     H239833   0.967   4.873   3.895  0.6747  0.2557 -0.4102
 9778WAT    EPW39834   0.988   4.928   3.946  0.0100 -0.0985  0.2620
 9779WAT      O39835   1.986   7.650   3.181 -0.0484 -0.6306  0.3583
 9779WAT     H139836   1.958   7.649   3.264 -1.8164  0.4976 -0.1532
 9779WAT     H239837   2.010   7.733   3.169  0.1694 -0.7797 -0.2588
 9779WAT    EPW39838   1.985   7.662   3.192 -0.2774 -0.4859  0.1915
 9780WAT      O39839   1.681   6.322   0.698  0.2866  0.2241 -0.0086
 9780WAT     H139840   1.595   6.309   0.695  0.5752 -2.6400  1.4873
 9780WAT     H239841   1.691   6.378   0.764 -0.3663 -0.1824  0.4426
 9780WAT    EPW39842   1.670   6.329   0.707  0.2328 -0.2590  0.2790
 9781WAT      O39843   0.460   4.885   6.644  0.2149  0.3886  0.6718
 9781WAT     H139844   0.423   4.810   6.620 -1.6484  1.4722 -0.0474
 9781WAT     H239845   0.456   4.934   6.572  0.8946  1.3760  1.2800
 9781WAT    EPW39846   0.454   4.881   6.630  0.0400  0.6946  0.6554
 9782WAT      O39847   3.759   6.091   5.854 -0.2842  0.1820 -0.0531
 9782WAT     H139848   3.804   6.111   5.783 -1.3009  1.5201 -0.3549
 9782WAT     H239849   3.706   6.159   5.866 -0.4959 -0.2213  1.7053
 9782WAT    EPW39850   3.758   6.104   5.846 -0.4657  0.3201  0.1621
 9783WAT      O39851   3.637   4.784   6.663 -0.0269  0.5747  0.3259
 9783WAT     H139852   3.676   4.829   6.599  1.6327  0.0756  0.9547
 9783WAT     H239853   3.673   4.705   6.658  0.9214  0.7946  2.4873
 9783WAT    EPW39854   3.648   4.779   6.653  0.3583  0.5334  0.7380
 9784WAT      O39855   0.701   4.398   5.752 -0.3987  0.8095 -0.6649
 9784WAT     H139856   0.747   4.417   5.824 -0.8891 -0.9635  0.1739
 9784WAT     H239857   0.727   4.459   5.695  3.7333 -0.5555 -0.5822
 9784WAT    EPW39858   0.712   4.410   5.755  0.1392  0.3459 -0.5288
 9785WAT      O39859   1.403   7.089   7.769  0.3223  0.1299 -0.0690
 9785WAT     H139860   1.350   7.123   7.709 -1.0692  1.1426  1.6255
 9785WAT     H239861   1.436   7.160   7.808 -1.0747 -0.3712  2.2150
 9785WAT    EPW39862   1.400   7.105   7.766 -0.0896  0.2055  0.5187
 9786WAT      O39863   0.998   3.242   0.033 -0.2126 -0.4317  0.1532
 9786WAT     H139864   0.934   3.265   0.088 -1.0333  0.0304 -0.9703
 9786WAT     H239865   0.956   3.223  -0.041  1.0261  1.3556 -1.1008
 9786WAT    EPW39866   0.982   3.242   0.030 -0.1509 -0.0994 -0.1980
 9787WAT      O39867   5.038   0.421   0.601 -0.1991  0.2085  0.3370
 9787WAT     H139868   5.116   0.460   0.592 -0.9245  1.8331  0.7401
 9787WAT     H239869   4.998   0.439   0.525 -0.2562 -0.4495  0.2084
 9787WAT    EPW39870   5.044   0.430   0.588 -0.3147  0.3513  0.3776
 9788WAT      O39871   0.997   3.553   7.548 -0.2479 -0.7751  0.0911
 9788WAT     H139872   1.083   3.546   7.537 -0.3681 -0.1355 -1.4495
 9788WAT     H239873   0.982   3.639   7.540 -1.2579 -1.0784 -1.7667
 9788WAT    EPW39874   1.007   3.565   7.545 -0.4148 -0.7254 -0.4109
 9789WAT      O39875   1.870   4.866   0.169 -0.0378 -0.6643 -0.1015
 9789WAT     H139876   1.872   4.952   0.155  2.4581 -0.7632 -0.9161
 9789WAT     H239877   1.819   4.858   0.239 -2.8225  1.1297 -1.7287
 9789WAT    EPW39878   1.863   4.878   0.177 -0.0805 -0.4139 -0.4622
 9790WAT      O39879   1.500   3.841   5.420 -0.1639  0.3682  0.3145
 9790WAT     H139880   1.508   3.863   5.336 -1.7521 -1.3186 -0.3371
 9790WAT     H239881   1.532   3.911   5.462  0.9647  1.1272 -1.6640
 9790WAT    EPW39882   1.506   3.855   5.413 -0.2318  0.2312 -0.0740
 9791WAT      O39883   1.563   0.526   1.036  0.1150 -0.3943 -0.2410
 9791WAT     H139884   1.559   0.608   1.007 -0.3393 -0.5819 -0.7187
 9791WAT     H239885   1.552   0.478   0.964 -2.2396 -0.8644  0.3512
 9791WAT    EPW39886   1.561   0.531   1.021 -0.3000 -0.4915 -0.2241
 9792WAT      O39887   3.485   4.663   0.174  0.5967  0.7076  0.1590
 9792WAT     H139888   3.436   4.685   0.242 -0.7149 -0.8807 -0.2173
 9792WAT     H239889   3.433   4.678   0.105  0.8341 -0.4737 -0.2925
 9792WAT    EPW39890   3.470   4.669   0.174  0.4380  0.2984  0.0367
 9793WAT      O39891   2.044   6.299   3.086 -0.2366  0.2115  0.0185
 9793WAT     H139892   2.053   6.273   3.169  0.7801  3.2444  1.0033
 9793WAT     H239893   2.126   6.317   3.061 -0.8077  3.5564  0.0326
 9793WAT    EPW39894   2.057   6.298   3.095 -0.1708  1.1536  0.1661
 9794WAT      O39895   6.996   7.480   0.192 -0.3543  0.1330 -0.3051
 9794WAT     H139896   7.077   7.477   0.224 -0.0962 -0.0296 -0.9676
 9794WAT     H239897   6.951   7.428   0.245  0.6806 -2.6575 -1.9500
 9794WAT    EPW39898   7.001   7.472   0.204 -0.1633 -0.3032 -0.6459
 9795WAT      O39899   5.677   2.409   5.069 -0.1526  0.5006  0.3631
 9795WAT     H139900   5.702   2.428   5.150  1.7190 -0.6762  0.1173
 9795WAT     H239901   5.683   2.486   5.027  2.7424  0.4629  0.4708
 9795WAT    EPW39902   5.682   2.424   5.075  0.5515  0.3212  0.3427
 9796WAT      O39903   1.030   6.919   6.315 -0.6785 -0.2054  0.5106
 9796WAT     H139904   0.978   6.855   6.286  0.9185 -0.5612 -1.9309
 9796WAT     H239905   1.020   6.982   6.255  1.0213  0.0348  0.4238
 9796WAT    EPW39906   1.021   6.919   6.302 -0.1915 -0.2225  0.1371
 9797WAT      O39907   2.334   6.927   1.790 -0.4202 -0.6151 -0.2601
 9797WAT     H139908   2.299   6.923   1.711 -1.3108 -1.1391  0.1470
 9797WAT     H239909   2.328   6.845   1.819  0.5881 -0.5905  0.0664
 9797WAT    EPW39910   2.328   6.914   1.783 -0.4028 -0.6889 -0.1518
 9798WAT      O39911   1.013   5.465   7.236 -0.0653  0.0362 -0.1382
 9798WAT     H139912   1.087   5.503   7.262 -0.8072  1.7160 -0.4105
 9798WAT     H239913   1.040   5.386   7.208  1.7439  0.8864 -0.9508
 9798WAT    EPW39914   1.028   5.459   7.235  0.0924  0.4099 -0.2985
 9799WAT      O39915   3.410   6.697   3.872 -0.5127  0.2075 -0.4038
 9799WAT     H139916   3.343   6.739   3.909 -0.8474  0.5155 -1.3466
 9799WAT     H239917   3.377   6.664   3.799  0.1658 -0.3133 -0.4886
 9799WAT    EPW39918   3.395   6.698   3.867 -0.4619  0.1760 -0.5556
 9800WAT      O39919   7.555   0.182   6.260  0.4075 -0.3355  0.3180
 9800WAT     H139920   7.568   0.123   6.197  1.5030  1.3156 -1.1217
 9800WAT     H239921   7.468   0.192   6.261  0.3400 -0.6891 -0.7027
 9800WAT    EPW39922   7.544   0.175   6.251  0.5594 -0.1439 -0.0454
 9801WAT      O39923   1.717   2.230   6.135  0.7583 -0.4581  0.7011
 9801WAT     H139924   1.722   2.234   6.048 -1.0784  0.0452  0.5770
 9801WAT     H239925   1.794   2.196   6.158  1.1142 -1.0391 -1.1413
 9801WAT    EPW39926   1.729   2.225   6.125  0.5396 -0.4696  0.4106
 9802WAT      O39927   0.829   6.012   7.450 -0.1054  0.7303  0.3096
 9802WAT     H139928   0.772   5.978   7.394  0.6363 -1.0316  0.5682
 9802WAT     H239929   0.857   5.943   7.495  1.7156  1.6331  0.6531
 9802WAT    EPW39930   0.824   5.997   7.448  0.2732  0.6034  0.3986
 9803WAT      O39931   3.382   0.718   0.939 -0.2077 -1.1240 -0.4914
 9803WAT     H139932   3.416   0.668   1.001  0.0364  1.0347  1.2339
 9803WAT     H239933   3.452   0.753   0.900 -0.3698 -0.4412 -0.1888
 9803WAT    EPW39934   3.397   0.716   0.942 -0.1956 -0.7042 -0.1918
 9804WAT      O39935   4.427   0.951   1.513  0.3540  0.4507  0.2468
 9804WAT     H139936   4.475   0.999   1.567  0.4425  0.5495  0.0785
 9804WAT     H239937   4.369   0.912   1.566  1.7693 -1.1253  0.7398
 9804WAT    EPW39938   4.425   0.952   1.529  0.5762  0.2325  0.2948
 9805WAT      O39939   2.302   1.350   1.782 -0.4366 -0.2459  0.0609
 9805WAT     H139940   2.343   1.319   1.712  0.5875 -0.0550  0.5476
 9805WAT     H239941   2.244   1.288   1.802 -0.3532 -0.5502 -0.6240
 9805WAT    EPW39942   2.300   1.336   1.774 -0.2730 -0.2626  0.0316
 9806WAT      O39943   1.521   5.522   6.122 -0.9424  0.3091  0.1910
 9806WAT     H139944   1.596   5.528   6.078 -1.0785 -0.8224 -0.2340
 9806WAT     H239945   1.501   5.437   6.117 -1.4108  0.2979  1.7213
 9806WAT    EPW39946   1.529   5.511   6.115 -1.0317  0.1403  0.3543
 9807WAT      O39947   2.489   4.539   0.713  0.3733 -0.4092 -0.4070
 9807WAT     H139948   2.424   4.574   0.760  0.8076 -0.2716  0.1101
 9807WAT     H239949   2.556   4.539   0.769  1.3407  1.1609 -1.4612
 9807WAT    EPW39950   2.489   4.544   0.729  0.5804 -0.1569 -0.4863
 9808WAT      O39951   2.782   5.541   2.156  0.5998 -0.0043  0.2878
 9808WAT     H139952   2.699   5.567   2.154  0.8087  0.6716  0.2112
 9808WAT     H239953   2.807   5.542   2.073  0.7358 -0.0351  0.3270
 9808WAT    EPW39954   2.773   5.545   2.144  0.6508  0.0910  0.2823
 9809WAT      O39955   2.997   6.463   5.257 -0.0816 -0.4180 -0.2472
 9809WAT     H139956   2.946   6.400   5.228 -0.1053 -0.6785  0.3512
 9809WAT     H239957   3.025   6.434   5.334 -1.1911  0.8789  0.6885
 9809WAT    EPW39958   2.994   6.450   5.264 -0.2490 -0.2649 -0.0206
 9810WAT      O39959   1.205   7.444   7.297 -0.0433  0.1099  0.0801
 9810WAT     H139960   1.289   7.450   7.275 -0.2378  1.3639 -0.4373
 9810WAT     H239961   1.192   7.359   7.310  0.9728 -0.2458 -1.1164
 9810WAT    EPW39962   1.215   7.433   7.296  0.0781  0.2426 -0.1731
 9811WAT      O39963   1.316   1.973   7.536 -0.3920  0.6223  0.0520
 9811WAT     H139964   1.341   1.935   7.611  1.2412 -0.0056 -0.7618
 9811WAT     H239965   1.230   1.959   7.534 -0.1161 -1.6716  0.5873
 9811WAT    EPW39966   1.307   1.965   7.547 -0.1100  0.1907  0.0108
 9812WAT      O39967   3.078   0.648   0.333  0.2380  0.0974 -0.0255
 9812WAT     H139968   3.024   0.709   0.300  0.9328  0.0208 -1.3614
 9812WAT     H239969   3.028   0.577   0.337 -0.9861  0.9799  2.7966
 9812WAT    EPW39970   3.063   0.647   0.329  0.1598  0.2164  0.1940
 9813WAT      O39971   0.698   6.519   6.427  0.3968 -0.4901  0.1325
 9813WAT     H139972   0.643   6.452   6.439 -0.7152  0.0171 -1.7850
 9813WAT     H239973   0.776   6.486   6.449 -0.3622 -1.8637  0.8876
 9813WAT    EPW39974   0.702   6.504   6.432  0.1204 -0.6181 -0.0392
 9814WAT      O39975   3.675   7.497   7.607 -0.0454 -0.5600 -0.3261
 9814WAT     H139976   3.645   7.520   7.529 -0.7614 -0.2563  0.0285
 9814WAT     H239977   3.604   7.496   7.657  0.6056  0.8650  0.7061
 9814WAT    EPW39978   3.660   7.501   7.603 -0.0550 -0.3046 -0.1212
 9815WAT      O39979   4.460   6.297   3.425 -0.1801  0.7033  0.0139
 9815WAT     H139980   4.473   6.288   3.339 -0.4169 -2.9353  0.2413
 9815WAT     H239981   4.538   6.280   3.460 -0.2955  1.3019  0.5920
 9815WAT    EPW39982   4.474   6.293   3.417 -0.2321  0.2542  0.1329
 9816WAT      O39983   3.149   5.051   5.791 -0.1209  0.2612  0.8727
 9816WAT     H139984   3.124   4.988   5.737  1.1930 -0.6982  1.3281
 9816WAT     H239985   3.232   5.067   5.767  0.1703  0.5021  1.9488
 9816WAT    EPW39986   3.158   5.044   5.780  0.1162  0.1551  1.0990
 9817WAT      O39987   3.476   5.398   7.797 -0.6771  0.1343  0.2248
 9817WAT     H139988   3.444   5.318   7.785  3.6652 -1.6423 -1.6019
 9817WAT     H239989   3.510   5.394   7.878  2.0374 -1.0780 -0.8641
 9817WAT    EPW39990   3.476   5.386   7.807  0.3653 -0.3072 -0.2059
 9818WAT      O39991   2.280   2.752   5.188  0.2375 -0.1569  0.3980
 9818WAT     H139992   2.235   2.733   5.260  1.1657  0.4785  1.1642
 9818WAT     H239993   2.333   2.816   5.213 -0.2978  0.9627 -1.1871
 9818WAT    EPW39994   2.281   2.758   5.202  0.2955  0.1024  0.2771
 9819WAT      O39995   1.393   0.041   5.227  0.0227  0.4275  0.1948
 9819WAT     H139996   1.367   0.054   5.145 -0.4949 -0.7003  0.1713
 9819WAT     H239997   1.392  -0.046   5.236  0.4595  0.5164  1.2743
 9819WAT    EPW39998   1.389   0.030   5.217  0.0107  0.2741  0.3508
 9820WAT      O39999   6.492   1.428   7.486  0.9254  0.3014 -0.3989
 9820WAT     H140000   6.566   1.383   7.496  0.2202 -1.1940 -1.4518
 9820WAT     H240001   6.430   1.367   7.495 -0.0629  0.9699 -2.1617
 9820WAT    EPW40002   6.494   1.412   7.489  0.6752  0.1792 -0.8148
 9821WAT      O40003   6.847   3.244   0.316 -0.1216  0.1575  0.1356
 9821WAT     H140004   6.799   3.258   0.244  1.0142  0.9617 -0.5155
 9821WAT     H240005   6.895   3.174   0.295 -1.0343 -0.6967  0.8165
 9821WAT    EPW40006   6.847   3.236   0.302 -0.0886  0.1501  0.1400
 9822WAT      O40007   1.942   4.184   7.533 -0.3556 -0.2172 -0.1913
 9822WAT     H140008   1.927   4.162   7.450  0.2039  2.1089 -0.9983
 9822WAT     H240009   2.020   4.223   7.530 -0.6483  0.5614  1.2969
 9822WAT    EPW40010   1.951   4.187   7.520 -0.3162  0.2414 -0.0907
 9823WAT      O40011   3.390   4.714   1.704 -0.1642 -0.5212 -0.1363
 9823WAT     H140012   3.320   4.667   1.681 -0.3940 -0.6425  0.7690
 9823WAT     H240013   3.373   4.793   1.670  0.9715 -1.4216 -3.0531
 9823WAT    EPW40014   3.377   4.719   1.696 -0.0304 -0.6721 -0.4334
 9824WAT      O40015   3.787   0.551   5.372  0.1231 -0.0468 -0.5774
 9824WAT     H140016   3.735   0.480   5.370  1.1602 -0.8359 -0.1493
 9824WAT     H240017   3.732   0.616   5.355 -1.0092 -0.8635 -0.1870
 9824WAT    EPW40018   3.771   0.550   5.369  0.1090 -0.2840 -0.4565
 9825WAT      O40019   2.052   5.766   7.528 -0.3038  0.1137 -0.0964
 9825WAT     H140020   2.061   5.681   7.547 -2.6817  0.0812  1.3416
 9825WAT     H240021   1.995   5.767   7.462  0.5012  0.5809 -0.8025
 9825WAT    EPW40022   2.045   5.754   7.521 -0.5362  0.1779  0.0117
 9826WAT      O40023   4.623   2.503   7.364  0.6715  0.0174  0.2077
 9826WAT     H140024   4.655   2.539   7.437  1.2534  0.1412 -0.1013
 9826WAT     H240025   4.649   2.558   7.301 -0.3730  0.2603 -0.0293
 9826WAT    EPW40026   4.631   2.517   7.365  0.6032  0.0716  0.1271
 9827WAT      O40027   1.049   0.851   0.618 -1.0444 -0.7285 -0.0332
 9827WAT     H140028   1.050   0.935   0.598 -0.2474 -0.5948  0.5171
 9827WAT     H240029   1.094   0.847   0.693 -0.6962 -1.6939 -0.2764
 9827WAT    EPW40030   1.056   0.862   0.626 -0.8753 -0.8514  0.0122
 9828WAT      O40031   2.975   2.960   4.783 -0.2618  0.2695  0.6793
 9828WAT     H140032   2.887   2.965   4.783 -0.3738 -0.7230 -0.9059
 9828WAT     H240033   2.990   2.880   4.813  0.2582  1.1246  2.8973
 9828WAT    EPW40034   2.964   2.949   4.787 -0.2015  0.2492  0.7728
 9829WAT      O40035   6.878   1.948   4.158  0.2322  0.6831  0.3719
 9829WAT     H140036   6.925   1.876   4.177 -0.6701  0.2698  1.0796
 9829WAT     H240037   6.879   1.949   4.071 -0.3437 -0.6100  0.3208
 9829WAT    EPW40038   6.885   1.937   4.148  0.0138  0.4310  0.4689
 9830WAT      O40039   3.507   5.420   5.411  0.3175 -0.0099  0.0246
 9830WAT     H140040   3.535   5.491   5.368  0.4482 -0.9013 -1.4626
 9830WAT     H240041   3.448   5.385   5.356 -0.3837 -0.5906  1.1126
 9830WAT    EPW40042   3.502   5.425   5.396  0.2332 -0.2274 -0.0344
 9831WAT      O40043   3.227   5.040   0.881  0.2648 -0.4072 -0.2301
 9831WAT     H140044   3.151   5.040   0.925  0.7040 -1.4798  0.5745
 9831WAT     H240045   3.237   5.124   0.859 -0.8349 -0.1334  0.2189
 9831WAT    EPW40046   3.217   5.052   0.884  0.1672 -0.5252 -0.0450
 9832WAT      O40047   1.724   3.123   7.639 -0.4780 -0.1807 -0.4275
 9832WAT     H140048   1.691   3.196   7.672 -0.6853 -0.7766  0.7199
 9832WAT     H240049   1.809   3.142   7.628 -0.3213 -0.0942  0.8437
 9832WAT    EPW40050   1.732   3.136   7.642 -0.4855 -0.2560 -0.0702
 9833WAT      O40051   1.770   3.681   2.215  0.2342 -0.3941 -1.0591
 9833WAT     H140052   1.832   3.624   2.236  0.0647 -0.2885 -0.2166
 9833WAT     H240053   1.745   3.714   2.292 -0.3464  0.1069 -1.4440
 9833WAT    EPW40054   1.775   3.678   2.230  0.1234 -0.3045 -0.9915
 9834WAT      O40055   1.276   5.615   5.954  0.0641 -0.0607 -0.2613
 9834WAT     H140056   1.319   5.569   6.015  0.8658 -0.9173 -1.4301
 9834WAT     H240057   1.234   5.553   5.909 -0.4808  0.5587 -0.6025
 9834WAT    EPW40058   1.276   5.599   5.956  0.1020 -0.0958 -0.4844
 9835WAT      O40059   7.271   4.313   6.792 -0.3168  0.2338 -0.3228
 9835WAT     H140060   7.203   4.361   6.820 -0.7707 -1.0463  0.8556
 9835WAT     H240061   7.282   4.254   6.855  0.6192 -0.8458 -1.4580
 9835WAT    EPW40062   7.263   4.312   6.805 -0.2456 -0.1147 -0.3164
 9836WAT      O40063   2.683   7.096   5.920  0.0836 -0.4716 -0.1956
 9836WAT     H140064   2.617   7.154   5.919  1.8028  1.6429 -1.7561
 9836WAT     H240065   2.715   7.101   5.839  1.3434 -2.4643  0.1248
 9836WAT    EPW40066   2.678   7.106   5.908  0.5236 -0.4536 -0.3788
 9837WAT      O40067   2.056   3.674   0.144 -0.2323 -0.1439  0.2296
 9837WAT     H140068   1.994   3.662   0.204 -0.8363 -0.1883 -0.3841
 9837WAT     H240069   2.067   3.594   0.110 -1.2521  0.1945 -0.9898
 9837WAT    EPW40070   2.048   3.660   0.148 -0.4722 -0.1005 -0.0412
 9838WAT      O40071   0.808   6.229   0.289  0.7251 -0.4392  0.2836
 9838WAT     H140072   0.790   6.215   0.373 -0.2032  0.4491  0.2585
 9838WAT     H240073   0.800   6.316   0.281  1.3780 -0.4471 -0.5981
 9838WAT    EPW40074   0.804   6.240   0.300  0.6844 -0.3092  0.1497
 9839WAT      O40075   7.400   0.629   7.864  0.2429  0.0912 -0.0368
 9839WAT     H140076   7.434   0.709   7.856 -0.9353  0.4784 -1.9562
 9839WAT     H240077   7.430   0.588   7.792 -1.2726 -0.3274 -0.4580
 9839WAT    EPW40078   7.410   0.635   7.852 -0.1551  0.0865 -0.3826
 9840WAT      O40079   6.166   1.053   3.818 -0.0422  0.1332  0.0316
 9840WAT     H140080   6.103   1.029   3.873  0.5975 -2.8010 -0.3813
 9840WAT     H240081   6.233   1.074   3.870 -1.1088  2.9523  0.4551
 9840WAT    EPW40082   6.167   1.053   3.833 -0.1053  0.1162  0.0331
 9841WAT      O40083   3.824   0.261   5.692 -0.0070  0.2481  0.3479
 9841WAT     H140084   3.818   0.175   5.707  0.7339  0.4198  1.8066
 9841WAT     H240085   3.875   0.266   5.621  1.1427 -0.5069  1.0796
 9841WAT    EPW40086   3.831   0.249   5.684  0.2723  0.1619  0.6714
 9842WAT      O40087   2.517   4.485   4.351  0.3744 -0.0109 -0.1361
 9842WAT     H140088   2.595   4.448   4.339 -0.3337 -1.2183 -1.1172
 9842WAT     H240089   2.503   4.476   4.437  1.8078  1.3133  0.3065
 9842WAT    EPW40090   2.526   4.478   4.362  0.4816  0.0063 -0.2156
 9843WAT      O40091   3.905   4.559   6.195  0.0952  0.1418  0.5495
 9843WAT     H140092   3.884   4.624   6.250 -1.4594 -0.1712  0.3624
 9843WAT     H240093   3.865   4.490   6.229  0.8941 -0.5186  0.1739
 9843WAT    EPW40094   3.896   4.559   6.208 -0.0165 -0.0020  0.4664
 9844WAT      O40095   5.322   6.470   2.048  0.1220 -0.5655 -0.0726
 9844WAT     H140096   5.351   6.397   2.010 -1.6050 -1.5400  0.3383
 9844WAT     H240097   5.383   6.489   2.107  0.5781 -1.7479 -0.1307
 9844WAT    EPW40098   5.335   6.462   2.051 -0.0658 -0.8841 -0.0205
 9845WAT      O40099   0.212   7.244   5.917 -0.3945  0.0696  0.0560
 9845WAT     H140100   0.286   7.276   5.886  0.2151 -2.7027 -1.6962
 9845WAT     H240101   0.150   7.288   5.874  0.1003  2.5411  1.6762
 9845WAT    EPW40102   0.214   7.255   5.906 -0.2313  0.0251  0.0365
 9846WAT      O40103   2.487   5.239   7.143 -0.0743 -0.0883 -0.1712
 9846WAT     H140104   2.506   5.324   7.153  0.2692  0.1106 -2.0432
 9846WAT     H240105   2.565   5.200   7.147  0.2319  0.1183 -2.5952
 9846WAT    EPW40106   2.501   5.246   7.145  0.0216 -0.0284 -0.8058
 9847WAT      O40107   2.734   6.659   3.105 -0.2517  0.3943  0.2967
 9847WAT     H140108   2.801   6.679   3.053 -0.1476 -0.5028  0.0601
 9847WAT     H240109   2.688   6.733   3.109 -1.3143  0.0486 -2.6339
 9847WAT    EPW40110   2.737   6.673   3.098 -0.3933  0.2107 -0.1712
 9848WAT      O40111   7.056   5.843   7.149 -0.1575 -0.1600 -0.2877
 9848WAT     H140112   7.038   5.795   7.219  1.0567 -1.3761 -0.7647
 9848WAT     H240113   7.051   5.787   7.082 -0.8365  0.8674 -1.1437
 9848WAT    EPW40114   7.053   5.828   7.149 -0.0785 -0.1879 -0.4846
 9849WAT      O40115   2.326   0.671   5.414 -0.0485 -0.0837 -1.0344
 9849WAT     H140116   2.295   0.737   5.365 -0.1695 -0.0347 -0.8938
 9849WAT     H240117   2.261   0.656   5.471  0.5942  0.7129 -0.0661
 9849WAT    EPW40118   2.312   0.679   5.415  0.0286  0.0412 -0.8706
 9850WAT      O40119   2.992   5.772   3.145  0.5444 -0.2728  0.2692
 9850WAT     H140120   3.058   5.752   3.198  1.5689 -0.8963 -1.1674
 9850WAT     H240121   2.980   5.699   3.099 -0.0549  0.3578 -0.5987
 9850WAT    EPW40122   3.000   5.759   3.146  0.6072 -0.2718 -0.0712
 9851WAT      O40123   1.333   3.014   6.422 -0.4307 -0.2028  0.4364
 9851WAT     H140124   1.361   3.088   6.459 -0.5929 -0.0032  0.1634
 9851WAT     H240125   1.284   2.977   6.484  0.5102 -0.6007  0.9473
 9851WAT    EPW40126   1.330   3.020   6.436 -0.3156 -0.2321  0.4715
 9852WAT      O40127   3.766   0.085   7.398 -0.3657  0.0921  0.0988
 9852WAT     H140128   3.744   0.096   7.482 -0.9333  1.1192 -0.1759
 9852WAT     H240129   3.713   0.021   7.372  1.0929 -1.5898  0.9842
 9852WAT    EPW40130   3.755   0.077   7.407 -0.2341 -0.0046  0.1890
 9853WAT      O40131   3.556   6.031   3.549 -0.4421 -0.2955  0.1866
 9853WAT     H140132   3.615   6.077   3.504 -1.8374  0.7508 -0.6590
 9853WAT     H240133   3.602   5.964   3.581  1.0395  0.0840 -1.0396
 9853WAT    EPW40134   3.571   6.028   3.547 -0.4294 -0.0849 -0.1194
 9854WAT      O40135   0.741   4.665   5.631  0.6721  0.2180  0.0249
 9854WAT     H140136   0.767   4.745   5.610  0.2888 -0.0228 -1.4618
 9854WAT     H240137   0.676   4.649   5.575  0.7766 -1.1492  0.2535
 9854WAT    EPW40138   0.735   4.674   5.620  0.6309 -0.0195 -0.1609
 9855WAT      O40139   7.297   4.849   6.491 -0.0877 -0.2285 -0.2782
 9855WAT     H140140   7.256   4.889   6.425  1.2126 -0.3263 -1.1649
 9855WAT     H240141   7.381   4.867   6.478  0.1819  0.1485  1.6358
 9855WAT    EPW40142   7.303   4.858   6.479  0.1442 -0.1873 -0.1264
 9856WAT      O40143   1.441   2.363   3.711  0.0430  0.5539 -0.1655
 9856WAT     H140144   1.365   2.347   3.751 -0.0106  0.3442 -0.3481
 9856WAT     H240145   1.428   2.439   3.671 -0.4712 -0.0419 -1.1630
 9856WAT    EPW40146   1.428   2.372   3.711 -0.0409  0.4349 -0.3398
 9857WAT      O40147   0.891   7.177   3.581  0.3945  0.5598  0.0622
 9857WAT     H140148   0.933   7.141   3.648 -2.8909 -1.2146  1.3927
 9857WAT     H240149   0.863   7.254   3.613  0.3662  0.5334  0.1010
 9857WAT    EPW40150   0.893   7.183   3.595 -0.0950  0.2938  0.2644
 9858WAT      O40151   1.621   6.674   3.320  0.1796 -0.4371 -0.5023
 9858WAT     H140152   1.578   6.748   3.305  1.7661  0.6083 -0.1930
 9858WAT     H240153   1.702   6.691   3.292  1.5715 -0.6807  2.8113
 9858WAT    EPW40154   1.627   6.687   3.314  0.6196 -0.3186  0.0329
 9859WAT      O40155   3.286   4.252   0.458 -0.0810 -0.6263 -0.3227
 9859WAT     H140156   3.268   4.169   0.478  0.7959 -0.6888  0.2692
 9859WAT     H240157   3.233   4.269   0.390  2.0157 -2.7262 -2.6775
 9859WAT    EPW40158   3.275   4.242   0.451  0.3583 -0.9457 -0.5831
 9860WAT      O40159   4.006   4.256   5.904 -0.2260 -0.3519  0.5532
 9860WAT     H140160   3.947   4.315   5.878  1.1137  1.1292  0.7911
 9860WAT     H240161   4.045   4.232   5.830 -1.2362 -1.5356  0.3583
 9860WAT    EPW40162   4.003   4.261   5.889 -0.1773 -0.3080  0.5595
 9861WAT      O40163   2.639   1.549   2.957 -0.9374 -0.0825  0.2859
 9861WAT     H140164   2.555   1.569   2.962 -2.2558 -4.2319 -0.9216
 9861WAT     H240165   2.651   1.532   2.873  0.7150 -0.9614  0.6538
 9861WAT    EPW40166   2.629   1.549   2.946 -0.8881 -0.8253  0.1618
 9862WAT      O40167   0.901   0.108   3.995  0.1334 -0.6057  0.4269
 9862WAT     H140168   0.858   0.063   3.934  0.6655  1.0575 -1.2881
 9862WAT     H240169   0.890   0.061   4.068 -1.0722 -2.3473 -0.8097
 9862WAT    EPW40170   0.893   0.094   3.997  0.0339 -0.6173 -0.0091
 9863WAT      O40171   2.390   5.822   7.601 -0.2692  1.0590 -0.1324
 9863WAT     H140172   2.475   5.828   7.582 -0.6924  0.3331 -2.6244
 9863WAT     H240173   2.381   5.739   7.627 -0.3892  0.7498 -1.1138
 9863WAT    EPW40174   2.401   5.810   7.602 -0.3495  0.9061 -0.6455
 9864WAT      O40175   4.747   0.240   4.963 -0.3913  0.3333 -0.6701
 9864WAT     H140176   4.756   0.323   4.938 -0.2885 -0.0092 -1.8177
 9864WAT     H240177   4.799   0.234   5.033 -0.9247  1.3937 -0.1599
 9864WAT    EPW40178   4.756   0.251   4.970 -0.4549  0.4394 -0.7642
 9865WAT      O40179   0.376   2.617   4.783  0.0467 -0.4935 -0.6939
 9865WAT     H140180   0.319   2.638   4.846 -0.4915 -0.0921 -1.3086
 9865WAT     H240181   0.388   2.531   4.795  0.8248 -0.2292  0.6524
 9865WAT    EPW40182   0.369   2.607   4.794  0.0821 -0.3951 -0.5858
 9866WAT      O40183   2.788   0.110   6.034 -0.6141  0.0108 -0.5476
 9866WAT     H140184   2.771   0.120   5.949 -0.1756 -0.3665 -0.6828
 9866WAT     H240185   2.856   0.163   6.047  0.5290 -1.3229 -0.8595
 9866WAT    EPW40186   2.795   0.119   6.023 -0.3805 -0.2419 -0.6136
 9867WAT      O40187   2.862   1.342   1.481  0.1535 -0.2392 -0.2441
 9867WAT     H140188   2.861   1.428   1.494 -0.4207 -0.3445  0.4474
 9867WAT     H240189   2.888   1.334   1.398  2.0907  0.5164  0.2406
 9867WAT    EPW40190   2.866   1.354   1.471  0.3548 -0.1431 -0.0703
 9868WAT      O40191   2.601   3.426   5.807 -0.2219 -0.2172 -0.4669
 9868WAT     H140192   2.620   3.427   5.722  0.0839  0.2441 -0.3991
 9868WAT     H240193   2.516   3.444   5.810  0.3431  3.0736 -0.5440
 9868WAT    EPW40194   2.592   3.429   5.795 -0.0933  0.3370 -0.4683
 9869WAT      O40195   1.707   6.425   4.416 -0.1039 -0.5844 -0.1756
 9869WAT     H140196   1.643   6.367   4.407 -0.0995 -0.3175 -3.5362
 9869WAT     H240197   1.777   6.383   4.385  0.9811 -0.2424  1.6837
 9869WAT    EPW40198   1.708   6.410   4.410  0.0570 -0.4945 -0.3974
 9870WAT      O40199   3.488   7.320   5.037  0.2907 -0.6053 -0.1711
 9870WAT     H140200   3.501   7.302   4.953 -1.0827  2.5061 -1.2305
 9870WAT     H240201   3.568   7.336   5.067  0.6244  1.1179 -1.7569
 9870WAT    EPW40202   3.502   7.320   5.029  0.1371  0.1089 -0.5619
 9871WAT      O40203   1.577   5.022   1.649 -0.4365 -0.6201  0.4278
 9871WAT     H140204   1.528   4.984   1.711  1.5018  0.0208  2.4945
 9871WAT     H240205   1.631   4.959   1.624  0.2688 -0.2890  1.0782
 9871WAT    EPW40206   1.577   5.007   1.655 -0.0460 -0.4765  0.8291
 9872WAT      O40207   2.141   3.831   7.485  0.2673 -0.0043 -0.4539
 9872WAT     H140208   2.193   3.898   7.466 -1.1019  1.0116 -0.8408
 9872WAT     H240209   2.190   3.761   7.466  2.4688  0.7648  1.9256
 9872WAT    EPW40210   2.156   3.831   7.479  0.3902  0.2593 -0.1596
 9873WAT      O40211   5.426   1.843   6.777 -0.4628 -0.3582  0.6080
 9873WAT     H140212   5.454   1.762   6.797 -1.3466 -0.4283  1.6965
 9873WAT     H240213   5.439   1.849   6.691 -1.5496 -2.1605  0.2610
 9873WAT    EPW40214   5.432   1.832   6.767 -0.7539 -0.6348  0.7175
 9874WAT      O40215   7.328   5.931   6.795 -0.0873 -0.7279 -0.5122
 9874WAT     H140216   7.383   5.998   6.790  0.9294 -1.5797 -0.9899
 9874WAT     H240217   7.380   5.861   6.794 -1.1536 -1.5468 -0.4989
 9874WAT    EPW40218   7.344   5.931   6.794 -0.0946 -0.9747 -0.5808
 9875WAT      O40219   3.053   6.791   6.174 -0.6815  0.2521 -0.0438
 9875WAT     H140220   3.007   6.754   6.238  1.0599 -0.9533  0.5729
 9875WAT     H240221   3.134   6.760   6.185  0.0461  1.3265 -1.8177
 9875WAT    EPW40222   3.058   6.781   6.185 -0.3168  0.2328 -0.2148
 9876WAT      O40223   5.653   0.511   0.184 -0.7836 -0.3179 -0.3636
 9876WAT     H140224   5.689   0.545   0.112 -1.4696  2.4951  0.5133
 9876WAT     H240225   5.691   0.555   0.248 -2.1329 -0.8692  0.8567
 9876WAT    EPW40226   5.664   0.523   0.182 -1.0843  0.0162 -0.0538
 9877WAT      O40227   1.463   0.714   3.823 -0.3069 -0.0335 -0.0867
 9877WAT     H140228   1.449   0.631   3.798  4.1158 -1.2708  0.7501
 9877WAT     H240229   1.510   0.748   3.758 -0.4763  1.2388  0.4192
 9877WAT    EPW40230   1.468   0.707   3.810  0.3214 -0.0283  0.1117
 9878WAT      O40231   0.761   6.147   4.910  0.1602  0.3781  0.1523
 9878WAT     H140232   0.751   6.179   4.829  1.7897  0.9356  0.1389
 9878WAT     H240233   0.783   6.217   4.957 -3.3540  0.6534  1.7429
 9878WAT    EPW40234   0.763   6.162   4.905 -0.1182  0.5011  0.3852
 9879WAT      O40235   5.540   1.569   6.281 -0.4413 -0.2777 -0.1152
 9879WAT     H140236   5.564   1.525   6.210 -1.0671 -0.5304 -0.1792
 9879WAT     H240237   5.593   1.639   6.281 -0.3238 -0.3608 -0.7310
 9879WAT    EPW40238   5.551   1.573   6.271 -0.5164 -0.3273 -0.2157
 9880WAT      O40239   2.454   0.700   6.455  0.4324 -0.2452  0.3993
 9880WAT     H140240   2.387   0.645   6.445 -0.4743  0.7046  1.0294
 9880WAT     H240241   2.493   0.699   6.378 -0.8140 -0.1952 -0.2572
 9880WAT    EPW40242   2.450   0.692   6.442  0.1143 -0.0975  0.3954
 9881WAT      O40243   2.632   4.565   5.067 -0.0490  0.1948  0.2999
 9881WAT     H140244   2.718   4.555   5.067 -0.0421  0.1177 -0.9837
 9881WAT     H240245   2.611   4.563   5.152  1.1619 -0.1086  0.6078
 9881WAT    EPW40246   2.641   4.564   5.080  0.1309  0.1386  0.1558
 9882WAT      O40247   6.105   4.611   1.349  0.7070  0.0866  0.0801
 9882WAT     H140248   6.133   4.622   1.431 -2.3056  0.0219  1.2463
 9882WAT     H240249   6.051   4.679   1.336  1.2557  0.1902 -1.9380
 9882WAT    EPW40250   6.101   4.623   1.359  0.3431  0.0924 -0.0458
 9883WAT      O40251   1.964   2.950   6.072 -0.6430 -0.3745  0.3726
 9883WAT     H140252   1.913   2.967   6.004 -1.6174 -0.7860  0.9776
 9883WAT     H240253   1.933   3.003   6.135 -0.0800 -0.3616  0.6510
 9883WAT    EPW40254   1.952   2.961   6.071 -0.7038 -0.4334  0.5031
 9884WAT      O40255   0.146   6.651   5.882 -0.2543  0.2173  0.6821
 9884WAT     H140256   0.227   6.630   5.859 -0.6290 -1.8576  1.0956
 9884WAT     H240257   0.105   6.661   5.805  0.0328 -0.2310  0.4702
 9884WAT    EPW40258   0.152   6.650   5.867 -0.2672 -0.1554  0.7118
 9885WAT      O40259   3.387   7.333   4.306 -0.1826  0.6123 -0.3401
 9885WAT     H140260   3.440   7.275   4.345 -0.3710  0.8611  0.3071
 9885WAT     H240261   3.440   7.400   4.290 -0.4089  1.0953  0.8394
 9885WAT    EPW40262   3.403   7.334   4.310 -0.2438  0.7204 -0.0702
 9886WAT      O40263   5.117   5.089   5.829 -0.0197 -0.0245 -0.1007
 9886WAT     H140264   5.171   5.151   5.800 -0.9945  0.0922 -1.7527
 9886WAT     H240265   5.038   5.121   5.813 -0.5493 -1.3183 -0.2019
 9886WAT    EPW40266   5.114   5.103   5.822 -0.2419 -0.1984 -0.3597
 9887WAT      O40267   3.372   7.459   6.911 -0.1354  0.3157  0.1659
 9887WAT     H140268   3.443   7.410   6.920  1.5331  2.5523  0.1932
 9887WAT     H240269   3.343   7.471   6.992  0.3760  0.6263  0.3024
 9887WAT    EPW40270   3.378   7.454   6.924  0.1866  0.6920  0.1901
 9888WAT      O40271   0.920   4.372   5.490  0.1916  0.3548  0.4674
 9888WAT     H140272   0.914   4.456   5.469 -0.1231  0.1730 -0.1872
 9888WAT     H240273   0.856   4.334   5.445  0.9141 -0.3713  0.0213
 9888WAT    EPW40274   0.910   4.379   5.481  0.2518  0.2207  0.3048
 9889WAT      O40275   3.034   4.869   5.625 -0.0075 -0.2508  0.8395
 9889WAT     H140276   2.948   4.882   5.634 -0.3137 -0.6443 -1.0224
 9889WAT     H240277   3.040   4.786   5.599  0.9460 -0.2792  1.1285
 9889WAT    EPW40278   3.022   4.859   5.622  0.0881 -0.3131  0.6072
 9890WAT      O40279   6.059   6.108   7.562  0.4269  0.2715  0.4176
 9890WAT     H140280   6.048   6.125   7.477 -0.1843 -1.3252  0.1446
 9890WAT     H240281   5.992   6.148   7.600  1.2081  1.7742  0.2853
 9890WAT    EPW40282   6.048   6.117   7.555  0.4520  0.2576  0.3577
 9891WAT      O40283   6.865   0.563   3.944 -0.1535 -0.2486 -0.2939
 9891WAT     H140284   6.946   0.582   3.973 -0.6028  1.9545 -0.3166
 9891WAT     H240285   6.863   0.599   3.864 -0.1676 -3.0489 -1.6811
 9891WAT    EPW40286   6.877   0.571   3.936 -0.2220 -0.3368 -0.5021
 9892WAT      O40287   3.381   5.133   7.762 -0.1061  0.5450  0.1798
 9892WAT     H140288   3.404   5.112   7.680 -1.7862 -0.3998 -0.0836
 9892WAT     H240289   3.431   5.080   7.810 -0.8205 -0.6353 -0.3339
 9892WAT    EPW40290   3.392   5.122   7.757 -0.4598  0.2311  0.0650
 9893WAT      O40291   5.023   5.643   6.655  0.2206  0.3313 -0.0902
 9893WAT     H140292   5.042   5.607   6.732  0.5638  0.3270 -0.1739
 9893WAT     H240293   5.097   5.683   6.633 -0.2333  1.3305  0.1321
 9893WAT    EPW40294   5.037   5.644   6.663  0.2043  0.4782 -0.0697
 9894WAT      O40295   1.764   7.050   3.290  0.0449 -0.4376  0.2815
 9894WAT     H140296   1.810   7.119   3.264  1.2280 -1.0699  0.6414
 9894WAT     H240297   1.689   7.085   3.318  1.4261  0.9806  2.5216
 9894WAT    EPW40298   1.759   7.066   3.291  0.4237 -0.3215  0.6655
 9895WAT      O40299   3.490   0.293   4.516 -0.1232  0.3609 -0.1536
 9895WAT     H140300   3.437   0.251   4.460  0.0581  0.2019 -0.2074
 9895WAT     H240301   3.500   0.236   4.581  0.0347  0.3658 -0.1741
 9895WAT    EPW40302   3.483   0.279   4.517 -0.0731  0.3381 -0.1646
 9896WAT      O40303   3.128   4.373   0.884 -0.4080 -0.3166 -0.1645
 9896WAT     H140304   3.136   4.294   0.919 -0.5141 -0.6067 -0.7934
 9896WAT     H240305   3.181   4.422   0.934 -2.1849 -0.2429  1.8040
 9896WAT    EPW40306   3.137   4.369   0.897 -0.6862 -0.3486  0.0334
 9897WAT      O40307   1.504   0.405   1.300  0.5036  0.1768 -0.7839
 9897WAT     H140308   1.524   0.453   1.230  0.7269  0.6425 -0.4086
 9897WAT     H240309   1.513   0.461   1.367 -1.5606  0.2963 -0.5289
 9897WAT    EPW40310   1.508   0.420   1.300  0.2317  0.2633 -0.6908
 9898WAT      O40311   0.873   3.689   6.951 -0.1712 -0.5272  0.2279
 9898WAT     H140312   0.820   3.750   6.919 -0.6913 -1.0997 -0.0414
 9898WAT     H240313   0.929   3.675   6.886  1.2111  1.0613  1.0109
 9898WAT    EPW40314   0.873   3.696   6.937 -0.0438 -0.3771  0.3038
 9899WAT      O40315   0.965   1.639   5.424  0.1234  0.6749 -0.0288
 9899WAT     H140316   0.944   1.719   5.394  1.1724  1.0382  0.1622
 9899WAT     H240317   1.051   1.634   5.410  0.0339 -0.5350 -0.2616
 9899WAT    EPW40318   0.974   1.650   5.417  0.2652  0.5499 -0.0350
 9900WAT      O40319   1.812   6.285   0.441 -0.3920  0.2071 -0.3319
 9900WAT     H140320   1.830   6.213   0.395 -0.9749  0.1360 -0.4536
 9900WAT     H240321   1.756   6.257   0.502 -2.2024  0.9134 -1.5965
 9900WAT    EPW40322   1.807   6.270   0.443 -0.7455  0.3009 -0.5367
 9901WAT      O40323   1.874   6.677   6.530  0.5370 -0.0143  0.3584
 9901WAT     H140324   1.960   6.669   6.546  0.0869 -2.0681  2.3560
 9901WAT     H240325   1.837   6.631   6.594 -2.1675  2.0446  0.4463
 9901WAT    EPW40326   1.882   6.669   6.542  0.0710 -0.0136  0.6664
 9902WAT      O40327   0.659   5.585   4.780  0.0436 -0.9536  0.1653
 9902WAT     H140328   0.734   5.629   4.782 -0.4517  0.0559 -1.3917
 9902WAT     H240329   0.619   5.609   4.855  0.7118 -0.4548  0.3711
 9902WAT    EPW40330   0.664   5.595   4.791  0.0692 -0.7308 -0.0343
 9903WAT      O40331   4.054   5.116   6.053  0.2180 -0.2224 -0.5060
 9903WAT     H140332   4.074   5.047   6.103 -0.3416 -0.6206 -0.8159
 9903WAT     H240333   4.006   5.166   6.105  1.2553  0.3202 -0.0344
 9903WAT    EPW40334   4.050   5.113   6.068  0.2886 -0.2010 -0.4821
 9904WAT      O40335   2.330   1.060   5.651  0.0098  0.6321 -0.6134
 9904WAT     H140336   2.410   1.035   5.627 -0.0217 -1.0806  0.8782
 9904WAT     H240337   2.324   1.031   5.733 -2.3939  0.0943 -0.9221
 9904WAT    EPW40338   2.341   1.052   5.660 -0.3499  0.2996 -0.4387
 9905WAT      O40339   5.966   4.103   6.792  0.2719 -0.7701  0.3132
 9905WAT     H140340   5.906   4.048   6.761 -1.4795 -0.2155  2.4912
 9905WAT     H240341   6.009   4.054   6.851  0.2403 -0.4696  0.5888
 9905WAT    EPW40342   5.964   4.088   6.796  0.0085 -0.6438  0.6757
 9906WAT      O40343   0.492   4.137   6.590  0.3182 -0.2906 -0.6538
 9906WAT     H140344   0.544   4.140   6.520  1.0698  0.1581 -0.0966
 9906WAT     H240345   0.549   4.138   6.657 -0.3955  2.2494  0.0330
 9906WAT    EPW40346   0.508   4.138   6.589  0.3238  0.1509 -0.4700
 9907WAT      O40347   0.578   4.296   7.283 -0.9436 -0.1319  0.5828
 9907WAT     H140348   0.536   4.220   7.290 -1.9214  0.3269  0.0115
 9907WAT     H240349   0.642   4.290   7.341 -0.2604 -1.8637 -0.2887
 9907WAT    EPW40350   0.581   4.284   7.292 -0.9871 -0.3200  0.3697
 9908WAT      O40351   2.457   0.064   7.654 -0.6200 -0.0559  0.0841
 9908WAT     H140352   2.476   0.148   7.640 -1.3061 -0.1620 -1.7817
 9908WAT     H240353   2.432   0.062   7.737  1.2848  1.2066  0.7714
 9908WAT    EPW40354   2.456   0.076   7.664 -0.4400  0.1149 -0.0900
 9909WAT      O40355   1.187   4.948   5.933 -0.3389 -0.8178 -0.0302
 9909WAT     H140356   1.229   4.949   6.009  2.0008  0.3550 -1.2333
 9909WAT     H240357   1.219   4.877   5.894  0.9515  0.3113 -1.1249
 9909WAT    EPW40358   1.198   4.937   5.938  0.1973 -0.4778 -0.3697
 9910WAT      O40359   0.050   5.279   0.304 -0.0144  0.4278 -0.0819
 9910WAT     H140360   0.002   5.243   0.368 -0.2523  1.1172  0.1384
 9910WAT     H240361   0.090   5.211   0.268 -0.5535 -0.0757  0.2427
 9910WAT    EPW40362   0.049   5.264   0.308 -0.1292  0.4553 -0.0014
 9911WAT      O40363   4.020   7.375   5.112 -0.3307  0.1754 -0.9313
 9911WAT     H140364   4.077   7.311   5.096  1.2119  1.9221 -3.1230
 9911WAT     H240365   3.982   7.351   5.186  0.6694 -2.8777 -1.2832
 9911WAT    EPW40366   4.023   7.362   5.121  0.0449 -0.0176 -1.3070
 9912WAT      O40367   7.235   1.261   3.564 -0.6207 -0.2062 -0.4556
 9912WAT     H140368   7.304   1.222   3.526  0.1191  0.8851 -0.2882
 9912WAT     H240369   7.260   1.268   3.647 -1.2124 -0.3693 -0.2614
 9912WAT    EPW40370   7.249   1.256   3.571 -0.5988 -0.0691 -0.4022
 9913WAT      O40371   1.564   2.130   7.478  0.4157  0.1195  0.3516
 9913WAT     H140372   1.523   2.096   7.547 -0.4703 -0.6546 -0.5279
 9913WAT     H240373   1.636   2.082   7.471 -0.0893 -0.5941  0.0173
 9913WAT    EPW40374   1.568   2.118   7.487  0.2102 -0.1002  0.1723
 9914WAT      O40375   2.901   1.298   1.211 -0.1795 -0.4420 -0.7719
 9914WAT     H140376   2.955   1.328   1.149  0.0486 -1.3155 -1.0032
 9914WAT     H240377   2.899   1.212   1.197  0.4297 -0.7517  0.8732
 9914WAT    EPW40378   2.909   1.290   1.200 -0.0558 -0.6168 -0.5630
 9915WAT      O40379   2.751   5.804   7.740 -0.1289 -0.5907  0.0597
 9915WAT     H140380   2.793   5.880   7.731  0.5006 -0.8752  0.5039
 9915WAT     H240381   2.804   5.757   7.791 -2.1427 -0.0482  2.9265
 9915WAT    EPW40382   2.765   5.809   7.746 -0.3334 -0.5526  0.5488
 9916WAT      O40383   4.003   5.525   1.174  0.1674  0.5232 -0.4332
 9916WAT     H140384   3.965   5.470   1.230 -0.6503  1.2528 -0.2586
 9916WAT     H240385   4.076   5.549   1.216 -0.1444  0.6104  0.0591
 9916WAT    EPW40386   4.008   5.520   1.189  0.0005  0.6439 -0.3347
 9917WAT      O40387   1.525   5.287   7.092 -0.6747 -0.5484  0.5419
 9917WAT     H140388   1.537   5.358   7.141 -1.5728  1.4786 -1.9522
 9917WAT     H240389   1.584   5.230   7.123  2.1502  2.2804  0.8227
 9917WAT    EPW40390   1.535   5.289   7.104 -0.3901  0.1689  0.2150
 9918WAT      O40391   4.386   2.627   4.749  0.1490  0.4306 -0.3271
 9918WAT     H140392   4.371   2.614   4.664 -0.2937 -0.4025 -0.1327
 9918WAT     H240393   4.401   2.713   4.754  0.8840  0.3801 -1.3395
 9918WAT    EPW40394   4.386   2.638   4.737  0.1922  0.3001 -0.4480
 9919WAT      O40395   6.905   0.938   4.271  0.4633  0.1194 -0.4983
 9919WAT     H140396   6.825   0.925   4.239  0.9795 -0.0854 -1.7892
 9919WAT     H240397   6.905   1.022   4.293 -0.6341 -0.2762  1.1473
 9919WAT    EPW40398   6.893   0.948   4.269  0.3775  0.0307 -0.4459
 9920WAT      O40399   2.514   2.980   0.070 -0.3463  0.0636  0.0038
 9920WAT     H140400   2.491   3.064   0.065 -1.5236 -0.1624  1.1403
 9920WAT     H240401   2.522   2.966   0.156 -0.2435 -1.0098 -0.1711
 9920WAT    EPW40402   2.512   2.990   0.082 -0.5051 -0.1283  0.1458
 9921WAT      O40403   2.770   6.218   5.548  0.1781  0.3755  0.2273
 9921WAT     H140404   2.818   6.158   5.507 -0.5536  0.1003 -0.2446
 9921WAT     H240405   2.795   6.211   5.631  0.0794 -0.6005  0.1835
 9921WAT    EPW40406   2.781   6.208   5.554  0.0555  0.1906  0.1511
 9922WAT      O40407   2.464   4.544   2.978 -0.1707 -0.2871 -0.1481
 9922WAT     H140408   2.505   4.489   2.924  0.5167  0.1486 -0.0801
 9922WAT     H240409   2.415   4.491   3.026 -0.4900 -0.7225 -0.9259
 9922WAT    EPW40410   2.463   4.528   2.977 -0.1163 -0.2870 -0.2530
 9923WAT      O40411   1.759   4.491   3.231 -0.0762 -0.2742  0.4647
 9923WAT     H140412   1.739   4.576   3.229 -1.9059 -0.6501  0.7981
 9923WAT     H240413   1.742   4.468   3.314 -0.9865 -1.2536  0.0256
 9923WAT    EPW40414   1.754   4.500   3.243 -0.4809 -0.4744  0.4491
 9924WAT      O40415   2.172   1.230   5.513  0.5998  0.0972 -0.3923
 9924WAT     H140416   2.229   1.173   5.547  1.0239 -0.4723 -1.9667
 9924WAT     H240417   2.212   1.307   5.522  0.0710  0.1868  1.6598
 9924WAT    EPW40418   2.186   1.233   5.519  0.5843  0.0263 -0.3218
 9925WAT      O40419   7.557   3.146   6.452 -0.0877 -0.0339 -0.0266
 9925WAT     H140420   7.563   3.226   6.486 -1.5205  0.6171 -1.2282
 9925WAT     H240421   7.616   3.145   6.389 -0.1121  0.0927 -0.0507
 9925WAT    EPW40422   7.566   3.157   6.448 -0.3029  0.0810 -0.2077
 9926WAT      O40423   1.496   2.070   7.006  1.0725  0.2806  0.4058
 9926WAT     H140424   1.530   1.994   7.029  2.7375  0.9632  0.3370
 9926WAT     H240425   1.461   2.101   7.080 -1.7838 -1.5416 -0.0484
 9926WAT    EPW40426   1.496   2.064   7.020  0.8965  0.1123  0.3285
 9927WAT      O40427   7.654   0.535   4.630 -0.2797 -0.6804  0.4305
 9927WAT     H140428   7.619   0.614   4.637 -0.2533 -0.7847  2.3107
 9927WAT     H240429   7.590   0.487   4.595 -0.7569 -0.1192  0.5235
 9927WAT    EPW40430   7.639   0.539   4.626 -0.3463 -0.6129  0.7220
 9928WAT      O40431   6.854   5.260   7.141 -0.3047 -0.0576  0.4707
 9928WAT     H140432   6.784   5.221   7.106 -0.5293  0.9945 -0.2871
 9928WAT     H240433   6.873   5.209   7.209 -2.4169  0.1646  1.3066
 9928WAT    EPW40434   6.847   5.246   7.146 -0.6499  0.1307  0.4822
 9929WAT      O40435   3.354   6.004   4.778 -0.1987 -0.4635  0.4347
 9929WAT     H140436   3.268   5.990   4.773 -0.2950  0.1849  0.2123
 9929WAT     H240437   3.370   6.063   4.716  0.2375  0.1926  1.1353
 9929WAT    EPW40438   3.344   6.010   4.768 -0.1485 -0.2708  0.5054
 9930WAT      O40439   3.116   6.680   0.667 -0.4198 -0.5573 -0.3368
 9930WAT     H140440   3.056   6.743   0.660 -0.6320 -0.7994 -0.8051
 9930WAT     H240441   3.069   6.609   0.684 -0.0879 -0.4004  1.4476
 9930WAT    EPW40442   3.100   6.679   0.668 -0.4021 -0.5699 -0.1424
 9931WAT      O40443   4.041   0.318   0.376 -0.3254 -0.1768 -0.0724
 9931WAT     H140444   3.987   0.250   0.387  0.3067 -0.8629 -1.0343
 9931WAT     H240445   3.991   0.387   0.396 -0.6646 -0.9507  2.0387
 9931WAT    EPW40446   4.025   0.318   0.381 -0.2821 -0.3924  0.0974
 9932WAT      O40447   2.167   0.142   0.289 -0.5447 -0.2980 -0.4484
 9932WAT     H140448   2.080   0.147   0.285 -0.5586 -0.3211 -0.1742
 9932WAT     H240449   2.181   0.081   0.350 -0.3166  0.9483  0.7845
 9932WAT    EPW40450   2.156   0.134   0.297 -0.5131 -0.1173 -0.2258
 9933WAT      O40451   1.799   1.868   6.001  0.4900  0.2652 -0.3612
 9933WAT     H140452   1.862   1.927   6.011  1.9582 -1.2057 -0.3729
 9933WAT     H240453   1.798   1.854   5.915 -0.8285  1.2335 -0.5336
 9933WAT    EPW40454   1.808   1.874   5.990  0.5121  0.1910 -0.3884
 9934WAT      O40455   3.053   3.440   5.636  0.3629 -0.0120 -0.3271
 9934WAT     H140456   3.024   3.474   5.561  0.3445 -0.7821 -0.6817
 9934WAT     H240457   3.006   3.366   5.644 -0.5660  0.7042  1.1120
 9934WAT    EPW40458   3.042   3.434   5.626  0.2230 -0.0200 -0.1669
 9935WAT      O40459   0.866   5.698   6.293 -0.1233  0.0665 -0.0479
 9935WAT     H140460   0.901   5.778   6.288 -0.4598  0.1516 -2.9260
 9935WAT     H240461   0.878   5.675   6.376  1.1274  2.5871  0.5592
 9935WAT    EPW40462   0.873   5.707   6.304  0.0118  0.4514 -0.3834
 9936WAT      O40463   3.568   5.616   2.217  0.0865  0.3682  0.2965
 9936WAT     H140464   3.570   5.672   2.285  1.8916 -0.2683  0.8073
 9936WAT     H240465   3.649   5.619   2.185 -0.6337  0.3972 -1.6698
 9936WAT    EPW40466   3.580   5.625   2.223  0.2468  0.2785  0.0815
 9937WAT      O40467   4.566   1.741   0.274  0.2723  0.0415 -0.4293
 9937WAT     H140468   4.611   1.805   0.235  1.0879 -0.6485 -0.6420
 9937WAT     H240469   4.526   1.781   0.340 -1.0035  1.2188 -1.8265
 9937WAT    EPW40470   4.567   1.756   0.278  0.2043  0.1135 -0.6671
 9938WAT      O40471   1.998   7.320   4.274  0.2828  0.0210  0.6696
 9938WAT     H140472   1.974   7.363   4.345  0.1583 -1.3717  1.5037
 9938WAT     H240473   1.932   7.335   4.218  0.0948  0.6418  1.0463
 9938WAT    EPW40474   1.985   7.328   4.276  0.2366 -0.0930  0.8484
 9939WAT      O40475   0.421   6.757   5.349  0.2306 -0.1995  0.3118
 9939WAT     H140476   0.468   6.775   5.278  2.3167 -1.7512  1.1708
 9939WAT     H240477   0.354   6.709   5.318  1.1683 -0.9501 -0.6292
 9939WAT    EPW40478   0.418   6.752   5.334  0.6773 -0.5396  0.2997
 9940WAT      O40479   0.380   6.169   7.561  0.0416  0.2159  0.2852
 9940WAT     H140480   0.364   6.254   7.570 -0.8970  0.1324 -0.4357
 9940WAT     H240481   0.327   6.145   7.496 -0.3742 -1.1149  1.0948
 9940WAT    EPW40482   0.370   6.178   7.553 -0.1585  0.0070  0.2983
 9941WAT      O40483   0.351   6.700   3.785  0.4079  0.5832  0.4594
 9941WAT     H140484   0.417   6.645   3.769 -1.1397 -0.9821 -0.8798
 9941WAT     H240485   0.370   6.769   3.735  0.7394 -0.1179 -0.4129
 9941WAT    EPW40486   0.364   6.702   3.775  0.2283  0.2484  0.1327
 9942WAT      O40487   6.853   0.810   6.941 -0.0983 -0.3106  0.3818
 9942WAT     H140488   6.792   0.872   6.932  0.8451  0.5514 -0.4222
 9942WAT     H240489   6.899   0.837   7.011 -1.1503 -1.4471  1.5619
 9942WAT    EPW40490   6.851   0.823   6.950 -0.1143 -0.3511  0.4374
 9943WAT      O40491   1.268   4.867   6.200 -0.4701  0.3220  0.1513
 9943WAT     H140492   1.276   4.797   6.148 -3.1302 -1.0265  1.3891
 9943WAT     H240493   1.351   4.893   6.210  0.3658 -0.8412 -2.6963
 9943WAT    EPW40494   1.282   4.860   6.194 -0.7396 -0.0491 -0.0865
 9944WAT      O40495   1.295   6.715   6.100 -0.5992 -0.3330  0.2679
 9944WAT     H140496   1.274   6.761   6.172  0.0217 -0.4437  0.5280
 9944WAT     H240497   1.370   6.675   6.122  0.5394  0.9627 -1.0038
 9944WAT    EPW40498   1.303   6.716   6.114 -0.3393 -0.1579  0.1184
 9945WAT      O40499   3.646   2.575   0.421  0.1032  0.2075  0.1651
 9945WAT     H140500   3.607   2.645   0.387 -1.5697 -0.7689 -0.0149
 9945WAT     H240501   3.680   2.605   0.496 -1.5758  0.9773  0.6654
 9945WAT    EPW40502   3.645   2.590   0.427 -0.3920  0.1770  0.2124
 9946WAT      O40503   5.721   2.740   2.633 -0.1027 -0.3657 -0.4885
 9946WAT     H140504   5.676   2.793   2.686  0.0564 -0.1559 -0.5625
 9946WAT     H240505   5.693   2.763   2.553  0.6503  0.2553 -0.5816
 9946WAT    EPW40506   5.710   2.751   2.629  0.0320 -0.2430 -0.5132
 9947WAT      O40507   6.616   5.419   5.251  0.3270  0.4982  0.2948
 9947WAT     H140508   6.611   5.340   5.287 -0.4515  0.1978 -0.4411
 9947WAT     H240509   6.567   5.412   5.179 -0.6246  1.9522  0.7563
 9947WAT    EPW40510   6.608   5.406   5.246  0.0714  0.6686  0.2543
 9948WAT      O40511   2.536   3.978   6.533  0.1342 -0.6162  0.5967
 9948WAT     H140512   2.557   3.894   6.528  1.7886 -0.3615  2.5283
 9948WAT     H240513   2.450   3.977   6.549 -0.1057 -1.8452 -0.5853
 9948WAT    EPW40514   2.526   3.966   6.534  0.3432 -0.7601  0.7075
 9949WAT      O40515   1.874   0.816   5.948  0.4691 -0.0444 -0.2673
 9949WAT     H140516   1.788   0.826   5.962  0.5001  0.1637 -0.2258
 9949WAT     H240517   1.902   0.897   5.935  0.9084  0.0391  1.1159
 9949WAT    EPW40518   1.865   0.829   5.948  0.5386 -0.0013 -0.0568
 9950WAT      O40519   2.111   0.684   6.791  0.0175 -0.1735  0.5999
 9950WAT     H140520   2.037   0.691   6.835 -0.2760 -2.0479  0.4680
 9950WAT     H240521   2.089   0.707   6.710 -0.7372 -1.8266  0.3016
 9950WAT    EPW40522   2.097   0.688   6.785 -0.1373 -0.6946  0.5364
 9951WAT      O40523   7.692   1.728   7.494 -0.3455  0.1246 -0.4175
 9951WAT     H140524   7.760   1.780   7.511  1.0587 -2.1512  1.5895
 9951WAT     H240525   7.707   1.700   7.413 -0.1536  1.4119 -0.8395
 9951WAT    EPW40526   7.704   1.731   7.485 -0.1097 -0.0214 -0.1834
 9952WAT      O40527   4.545   0.947   3.985 -0.1263 -0.4305  0.4703
 9952WAT     H140528   4.587   0.972   4.057 -0.7491 -0.3282  0.7982
 9952WAT     H240529   4.475   0.905   4.015 -0.0467 -0.9652 -0.0762
 9952WAT    EPW40530   4.541   0.945   4.000 -0.2066 -0.4944  0.4380
 9953WAT      O40531   3.876   5.155   6.872 -0.5217 -0.2027 -0.5642
 9953WAT     H140532   3.933   5.177   6.810  0.4329  0.4757  0.5291
 9953WAT     H240533   3.915   5.089   6.914  0.0268  1.0298  0.9396
 9953WAT    EPW40534   3.890   5.148   6.869 -0.2997  0.0796 -0.1805
 9954WAT      O40535   0.078   1.331   3.963  0.6339  0.1892 -0.4875
 9954WAT     H140536   0.135   1.355   3.902  0.5311  0.3701 -0.5112
 9954WAT     H240537   0.000   1.346   3.926  0.5638  0.9098 -0.0738
 9954WAT    EPW40538   0.075   1.336   3.949  0.6084  0.3224 -0.4299
 9955WAT      O40539   2.748   0.440   5.108  0.5461 -0.0071 -0.1740
 9955WAT     H140540   2.800   0.426   5.177  2.0613  0.3763 -1.2041
 9955WAT     H240541   2.706   0.513   5.129  2.0297  0.8946 -0.2262
 9955WAT    EPW40542   2.749   0.449   5.121  0.9891  0.1827 -0.3339
 9956WAT      O40543   2.778   4.803   0.315  0.0317  0.3401  0.0635
 9956WAT     H140544   2.745   4.776   0.391  1.3755  2.3157  1.4607
 9956WAT     H240545   2.805   4.730   0.277 -1.5541 -0.7991  1.0073
 9956WAT    EPW40546   2.777   4.788   0.320 -0.0040  0.4637  0.4093
 9957WAT      O40547   2.361   7.494   6.059  0.5021 -0.0604  0.3888
 9957WAT     H140548   2.330   7.487   6.140  0.8693 -0.9768  0.4549
 9957WAT     H240549   2.438   7.534   6.071  1.2395 -1.4991  0.6669
 9957WAT    EPW40550   2.368   7.499   6.073  0.6653 -0.4083  0.4396
 9958WAT      O40551   0.380   6.032   0.201  0.3530 -0.2474  0.5076
 9958WAT     H140552   0.328   6.053   0.135  0.1820 -0.3127  0.6211
 9958WAT     H240553   0.420   6.108   0.220 -2.1561  0.7297  2.6168
 9958WAT    EPW40554   0.378   6.047   0.194 -0.0429 -0.1127  0.8359
 9959WAT      O40555   0.107   1.604   5.768  0.8072 -0.1446  0.5928
 9959WAT     H140556   0.160   1.659   5.812  0.0553 -1.0150  2.7464
 9959WAT     H240557   0.140   1.525   5.787  1.4518 -0.5665 -1.8903
 9959WAT    EPW40558   0.120   1.601   5.778  0.7913 -0.3355  0.5441
 9960WAT      O40559   3.615   1.517   4.983  0.3348  0.2436  0.5077
 9960WAT     H140560   3.581   1.479   4.912  0.3304  0.2820  0.4893
 9960WAT     H240561   3.595   1.601   4.972  1.4525  0.4591 -0.0979
 9960WAT    EPW40562   3.607   1.524   4.971  0.4992  0.2811  0.4156
 9961WAT      O40563   2.222   2.989   2.055 -0.6545  0.1754  0.2687
 9961WAT     H140564   2.136   2.988   2.064 -0.6474 -0.7156  0.2949
 9961WAT     H240565   2.238   2.927   1.995 -0.0868  0.7920 -0.2326
 9961WAT    EPW40566   2.212   2.980   2.048 -0.5696  0.1349  0.1985
 9962WAT      O40567   1.780   5.182   5.961 -0.1240 -0.1389 -0.4973
 9962WAT     H140568   1.700   5.164   5.931 -0.4597 -1.2347  0.9449
 9962WAT     H240569   1.769   5.186   6.048  1.2391  0.5261 -0.3277
 9962WAT    EPW40570   1.766   5.180   5.970  0.0278 -0.2025 -0.2592
 9963WAT      O40571   3.969   5.726   4.534  0.0111  0.4449  0.5982
 9963WAT     H140572   4.041   5.678   4.532  0.0607  0.5294 -0.7291
 9963WAT     H240573   3.991   5.795   4.583  1.0138  0.7344 -0.2225
 9963WAT    EPW40574   3.983   5.729   4.541  0.1665  0.5001  0.2809
 9964WAT      O40575   2.226   1.955   3.998  0.3833  0.7500 -0.1112
 9964WAT     H140576   2.212   2.038   4.021 -1.2263  0.4371  0.1687
 9964WAT     H240577   2.169   1.943   3.932 -0.2992 -0.4730  0.6779
 9964WAT    EPW40578   2.215   1.966   3.991  0.0447  0.5231  0.0467
 9965WAT      O40579   2.774   7.129   5.671  0.1142  0.4484 -0.3288
 9965WAT     H140580   2.733   7.149   5.597 -0.6956  2.3440  0.5682
 9965WAT     H240581   2.800   7.206   5.702 -0.7356 -0.1038  2.0226
 9965WAT    EPW40582   2.772   7.143   5.665 -0.1310  0.6468  0.1511
 9966WAT      O40583   6.635   2.592   0.096 -0.0916  0.3469  0.0908
 9966WAT     H140584   6.551   2.617   0.093  0.0231  1.1913  2.1561
 9966WAT     H240585   6.631   2.510   0.126 -0.1656  0.3631  0.1249
 9966WAT    EPW40586   6.622   2.583   0.100 -0.0856  0.4740  0.4009
 9967WAT      O40587   4.697   3.535   7.567  0.2468  0.2946 -0.1285
 9967WAT     H140588   4.696   3.515   7.482  0.7168  1.1712 -0.3510
 9967WAT     H240589   4.614   3.530   7.590  0.0329  0.6209 -0.7925
 9967WAT    EPW40590   4.685   3.531   7.558  0.2846  0.4723 -0.2594
 9968WAT      O40591   4.188   5.942   4.396  1.1025 -0.3590 -0.1815
 9968WAT     H140592   4.250   5.993   4.361  0.5118  1.4141  1.2629
 9968WAT     H240593   4.134   5.998   4.435 -0.3462 -2.0096  0.2921
 9968WAT    EPW40594   4.189   5.958   4.397  0.8012 -0.3409  0.1019
 9969WAT      O40595   4.246   6.769   6.931  0.0388 -0.5226  0.1421
 9969WAT     H140596   4.224   6.714   6.995  1.2043 -0.5242  0.5618
 9969WAT     H240597   4.279   6.717   6.869 -0.0317 -0.4154  0.0140
 9969WAT    EPW40598   4.248   6.753   6.931  0.2006 -0.5070  0.1852
 9970WAT      O40599   1.912   5.712   7.302 -0.2268  0.0129  0.4109
 9970WAT     H140600   1.912   5.625   7.295 -1.2947 -0.0551  0.9972
 9970WAT     H240601   1.938   5.740   7.224 -1.2376 -0.8146 -0.2346
 9970WAT    EPW40602   1.916   5.704   7.290 -0.5339 -0.1194  0.4021
 9971WAT      O40603   3.815   5.358   0.301 -0.2523 -0.0076  0.2017
 9971WAT     H140604   3.864   5.292   0.272 -0.8878 -0.2966 -0.2247
 9971WAT     H240605   3.739   5.347   0.261 -0.4160  0.9061  0.2407
 9971WAT    EPW40606   3.811   5.346   0.291 -0.3703  0.0847  0.1445
 9972WAT      O40607   1.608   2.231   4.671  0.2605 -0.0570  0.6053
 9972WAT     H140608   1.679   2.223   4.621 -0.4402 -0.7188 -0.3366
 9972WAT     H240609   1.551   2.176   4.633 -0.3437 -0.4788  2.0668
 9972WAT    EPW40610   1.610   2.222   4.658  0.0677 -0.2170  0.6821
 9973WAT      O40611   7.633   7.240   5.464  0.0045 -0.0341 -0.2969
 9973WAT     H140612   7.706   7.217   5.421  0.5940 -0.4691  0.8944
 9973WAT     H240613   7.569   7.210   5.413  0.6697 -0.2725 -1.0120
 9973WAT    EPW40614   7.635   7.232   5.450  0.1899 -0.1336 -0.2266
 9974WAT      O40615   2.423   6.054   6.317 -0.0249 -0.2840 -0.5108
 9974WAT     H140616   2.404   5.973   6.290 -1.0844 -0.6397  1.1946
 9974WAT     H240617   2.497   6.044   6.361 -0.9087 -0.6258  0.9510
 9974WAT    EPW40618   2.431   6.040   6.319 -0.3120 -0.3871 -0.0429
 9975WAT      O40619   1.824   3.993   7.757 -0.0745 -0.4520 -0.3610
 9975WAT     H140620   1.850   4.055   7.701  0.3610  0.7114  1.0252
 9975WAT     H240621   1.882   3.929   7.745  1.0127  0.4392 -0.1637
 9975WAT    EPW40622   1.837   3.993   7.747  0.1505 -0.1485 -0.1271
 9976WAT      O40623   2.019   5.851   7.077  0.1699  0.1090 -0.2088
 9976WAT     H140624   1.983   5.931   7.078 -0.9168 -0.3653 -0.5908
 9976WAT     H240625   1.982   5.812   7.009  1.9320 -0.1865 -1.0568
 9976WAT    EPW40626   2.008   5.857   7.067  0.2697 -0.0047 -0.3905
 9977WAT      O40627   1.938   1.079   5.863 -0.8689 -0.2078 -0.8704
 9977WAT     H140628   1.866   1.126   5.878 -1.0248 -0.6686 -0.1303
 9977WAT     H240629   1.925   1.045   5.784 -1.3588 -0.1034 -0.8327
 9977WAT    EPW40630   1.926   1.081   5.853 -0.9643 -0.2605 -0.7555
 9978WAT      O40631   0.147   7.290   6.679  0.1638  0.2297 -0.3004
 9978WAT     H140632   0.118   7.364   6.715  0.5514 -0.1768  0.8809
 9978WAT     H240633   0.100   7.228   6.718 -0.9951 -0.1189 -2.1265
 9978WAT    EPW40634   0.136   7.292   6.690  0.0499  0.1182 -0.3957
 9979WAT      O40635   6.120   1.681   3.265  0.1629  0.0259  0.0964
 9979WAT     H140636   6.138   1.612   3.215  1.2801 -2.9429  4.1060
 9979WAT     H240637   6.049   1.656   3.309  0.9629  1.0884  2.1086
 9979WAT    EPW40638   6.112   1.667   3.264  0.4461 -0.2557  0.9859
 9980WAT      O40639   5.570   7.035   5.218  0.2236  0.2269  0.2430
 9980WAT     H140640   5.603   6.954   5.222  0.9316  0.4942  0.0648
 9980WAT     H240641   5.564   7.049   5.132 -2.0862 -0.4763  0.2322
 9980WAT    EPW40642   5.574   7.025   5.206 -0.0130  0.1625  0.2151
 9981WAT      O40643   0.998   6.401   5.490  0.4582  0.2796 -0.1655
 9981WAT     H140644   1.021   6.356   5.419  0.4324  0.9980 -0.6404
 9981WAT     H240645   0.990   6.482   5.461  1.9312  0.8668  0.9707
 9981WAT    EPW40646   1.000   6.406   5.476  0.6720  0.4725 -0.0678
 9982WAT      O40647   4.653   4.636   7.415  0.3502  0.1017 -0.2679
 9982WAT     H140648   4.595   4.694   7.445  0.1060  0.6491 -1.7214
 9982WAT     H240649   4.726   4.656   7.459 -0.1200  0.5223  0.3421
 9982WAT    EPW40650   4.655   4.648   7.426  0.2447  0.2447 -0.3925
 9983WAT      O40651   7.271   7.212   5.918  0.0381  0.0769 -0.0576
 9983WAT     H140652   7.353   7.239   5.930 -0.4762  1.9798 -0.5212
 9983WAT     H240653   7.278   7.125   5.922  2.0718  0.1761 -0.1171
 9983WAT    EPW40654   7.284   7.203   5.921  0.2626  0.3727 -0.1349
 9984WAT      O40655   4.029   2.193   2.568  0.3941 -0.4367 -0.4522
 9984WAT     H140656   4.078   2.175   2.498  0.9086 -1.9743  0.2561
 9984WAT     H240657   4.043   2.278   2.582  1.6851 -0.5064 -1.1519
 9984WAT    EPW40658   4.038   2.203   2.560  0.6608 -0.6741 -0.4509
 9985WAT      O40659   5.707   6.189   0.666  0.5915  0.2172  0.3187
 9985WAT     H140660   5.742   6.114   0.694 -0.0514 -0.1154  0.2540
 9985WAT     H240661   5.770   6.247   0.680  0.9196 -0.2486  0.8258
 9985WAT    EPW40662   5.722   6.186   0.672  0.5450  0.0992  0.3840
 9986WAT      O40663   0.844   3.083   5.463  0.3834  0.0069  0.1561
 9986WAT     H140664   0.902   3.118   5.408  0.1458 -0.2655 -0.2756
 9986WAT     H240665   0.779   3.058   5.411  0.1394 -0.2287  0.5678
 9986WAT    EPW40666   0.843   3.084   5.447  0.3123 -0.0681  0.1531
 9987WAT      O40667   2.439   7.026   1.350  0.4069  0.9394  0.1085
 9987WAT     H140668   2.515   7.006   1.389 -0.2578 -0.3058  0.8401
 9987WAT     H240669   2.450   6.999   1.268 -0.3171 -2.4694  0.9547
 9987WAT    EPW40670   2.452   7.019   1.344  0.2018  0.2519  0.3416
 9988WAT      O40671   1.892   6.803   5.163 -0.3021 -0.2781  0.0989
 9988WAT     H140672   1.973   6.797   5.133  0.5087  1.1288  1.8505
 9988WAT     H240673   1.847   6.835   5.095  0.8770  0.1675 -0.4860
 9988WAT    EPW40674   1.897   6.806   5.148 -0.0081 -0.0045  0.2712
 9989WAT      O40675   2.093   2.286   1.272  0.0511 -0.1239  0.6807
 9989WAT     H140676   2.085   2.281   1.359  0.3145 -0.4845  0.6836
 9989WAT     H240677   2.031   2.233   1.243 -0.6389  0.6812  0.6253
 9989WAT    EPW40678   2.082   2.278   1.281 -0.0119 -0.0582  0.6729
 9990WAT      O40679   6.875   7.410   4.659 -0.3021 -0.9349  0.1291
 9990WAT     H140680   6.888   7.483   4.614 -0.5135 -0.3012  1.0753
 9990WAT     H240681   6.789   7.407   4.670 -0.1735 -0.5493  1.3441
 9990WAT    EPW40682   6.864   7.420   4.654 -0.3143 -0.7843  0.4484
 9991WAT      O40683   1.310   3.952   4.350 -0.3042  0.2072  0.5738
 9991WAT     H140684   1.396   3.959   4.340 -0.4704  1.8169 -0.1209
 9991WAT     H240685   1.286   4.032   4.377 -1.6460 -0.0200  0.1483
 9991WAT    EPW40686   1.319   3.965   4.352 -0.5270  0.4114  0.4083
 9992WAT      O40687   1.187   0.067   0.745  0.0670 -0.0621 -0.2890
 9992WAT     H140688   1.200  -0.013   0.712  1.9221  0.2528 -0.3995
 9992WAT     H240689   1.210   0.058   0.828  1.2184  0.5745 -0.5306
 9992WAT    EPW40690   1.192   0.054   0.752  0.5111  0.0784 -0.3410
 9993WAT      O40691   2.310   2.023   5.417  0.0906  0.2335  0.1432
 9993WAT     H140692   2.258   2.038   5.486 -0.3772 -1.2777  0.1574
 9993WAT     H240693   2.259   1.977   5.364  1.0759 -0.3056 -0.3492
 9993WAT    EPW40694   2.294   2.019   5.419  0.1670 -0.0694  0.0725
 9994WAT      O40695   3.340   0.482   6.483 -0.2776 -0.2381 -0.2023
 9994WAT     H140696   3.276   0.520   6.529  1.6184  1.5917  1.1588
 9994WAT     H240697   3.299   0.448   6.414 -2.7766  0.1538  0.9683
 9994WAT    EPW40698   3.324   0.483   6.480 -0.3667  0.0901  0.1717
 9995WAT      O40699   6.862   3.918   5.034 -0.0145  0.3701 -0.2462
 9995WAT     H140700   6.786   3.956   5.054 -0.5286 -0.0517 -1.3383
 9995WAT     H240701   6.921   3.977   5.059 -0.5893  0.0004  2.2288
 9995WAT    EPW40702   6.859   3.933   5.041 -0.1753  0.2531 -0.0419
 9996WAT      O40703   2.587   6.244   3.288 -0.7554  0.2250  0.0998
 9996WAT     H140704   2.631   6.316   3.312 -1.1018  0.0552  1.3619
 9996WAT     H240705   2.633   6.212   3.221 -0.4648  1.4910 -0.3311
 9996WAT    EPW40706   2.600   6.250   3.282 -0.7636  0.3869  0.2226
 9997WAT      O40707   5.877   3.795   7.081 -0.3746 -0.6768  0.0478
 9997WAT     H140708   5.908   3.803   7.162 -0.1863 -1.0914  0.0200
 9997WAT     H240709   5.798   3.832   7.086 -0.1296 -0.1708  0.2700
 9997WAT    EPW40710   5.870   3.801   7.094 -0.3106 -0.6633  0.0765
 9998WAT      O40711   3.183   7.411   4.489  0.3951 -0.4718 -0.2644
 9998WAT     H140712   3.240   7.389   4.426  1.7128 -0.2379  0.7908
 9998WAT     H240713   3.119   7.451   4.446  2.8512  2.8436 -1.2135
 9998WAT    EPW40714   3.182   7.414   4.473  0.9525  0.0525 -0.2488
 9999WAT      O40715   7.328   7.676   6.881 -0.3152 -0.3709  0.3698
 9999WAT     H140716   7.380   7.691   6.812  0.2032  0.8357  0.9927
 9999WAT     H240717   7.298   7.595   6.867 -3.2106  0.9982 -3.2217
 9999WAT    EPW40718   7.331   7.666   6.869 -0.6664  0.0096 -0.0687
10000WAT      O40719   3.462   7.397   5.964 -0.2173 -0.0759 -0.5841
10000WAT     H140720   3.375   7.396   5.956 -0.3144 -0.2955  0.4262
10000WAT     H240721   3.477   7.346   6.033  0.7210 -0.0387 -0.7452
10000WAT    EPW40722   3.451   7.389   5.973 -0.0930 -0.1029 -0.4587
10001WAT      O40723   2.084   6.147   6.755 -0.3402  0.0245  0.2567
10001WAT     H140724   2.142   6.088   6.727 -1.7235 -1.6022  0.5987
10001WAT     H240725   2.119   6.177   6.829 -0.0196 -1.1213  0.5974
10001WAT    EPW40726   2.098   6.143   6.762 -0.4972 -0.3851  0.3576
10002WAT      O40727   0.827   3.434   4.053 -0.2390 -0.1309  0.1516
10002WAT     H140728   0.761   3.467   4.006 -0.5520 -0.0725  0.6126
10002WAT     H240729   0.786   3.389   4.116  0.1845 -1.1979 -0.3168
10002WAT    EPW40730   0.811   3.433   4.056 -0.2227 -0.2799  0.1505
10003WAT      O40731   6.751   3.638   5.710 -0.4966 -0.7098 -1.1190
10003WAT     H140732   6.736   3.665   5.791 -0.9590 -0.4050 -1.3004
10003WAT     H240733   6.741   3.551   5.715 -0.7783 -0.6676 -0.8997
10003WAT    EPW40734   6.747   3.629   5.723 -0.6065 -0.6585 -1.1134
10004WAT      O40735   2.544   5.917   3.815 -0.1478 -0.6744  0.4182
10004WAT     H140736   2.580   5.845   3.781  1.4910  0.4964 -0.4533
10004WAT     H240737   2.517   5.961   3.745 -2.7812 -1.1815  1.0126
10004WAT    EPW40738   2.545   5.913   3.800 -0.2947 -0.5764  0.3772
10005WAT      O40739   1.714   0.080   5.858 -1.0606  0.0649  0.2661
10005WAT     H140740   1.672   0.104   5.786  0.6082  0.2749 -0.7010
10005WAT     H240741   1.652   0.077   5.919 -2.3534  0.8010 -0.9672
10005WAT    EPW40742   1.699   0.083   5.856 -1.0051  0.2047 -0.0589
10006WAT      O40743   3.874   7.491   0.522  0.0608 -0.2310 -0.3067
10006WAT     H140744   3.814   7.442   0.481  1.3444 -0.8267 -1.5705
10006WAT     H240745   3.949   7.455   0.497  1.0015  1.4130  0.0240
10006WAT    EPW40746   3.876   7.478   0.512  0.3894 -0.0761 -0.4445
10007WAT      O40747   5.636   6.434   4.209  0.2582 -0.4078 -0.5255
10007WAT     H140748   5.669   6.355   4.193  1.4174  0.0434 -0.4181
10007WAT     H240749   5.703   6.478   4.243 -0.4842  0.5043 -0.2103
10007WAT    EPW40750   5.651   6.429   4.211  0.3198 -0.2064 -0.4630
10008WAT      O40751   3.569   0.546   4.427 -0.1791 -0.0730  0.1476
10008WAT     H140752   3.643   0.548   4.472  0.0479  1.0746 -0.2545
10008WAT     H240753   3.534   0.469   4.448  0.5658 -0.1287  1.2300
10008WAT    EPW40754   3.574   0.535   4.437 -0.0355  0.0883  0.2481
10009WAT      O40755   5.233   6.474   6.233  0.1218 -0.5962  0.2248
10009WAT     H140756   5.266   6.400   6.266  1.3081  0.4362  1.4634
10009WAT     H240757   5.252   6.534   6.294 -3.4870  0.2492  0.7503
10009WAT    EPW40758   5.241   6.472   6.247 -0.2360 -0.3188  0.4854
10010WAT      O40759   4.163   5.210   3.795  0.6303  0.7536  0.4926
10010WAT     H140760   4.168   5.123   3.792  3.5398  0.8058  0.5629
10010WAT     H240761   4.090   5.229   3.752 -0.2952 -1.7164  0.8371
10010WAT    EPW40762   4.153   5.200   3.788  0.9234  0.3965  0.5539
10011WAT      O40763   2.488   7.211   1.664 -0.0352 -0.2593  0.3308
10011WAT     H140764   2.428   7.210   1.728 -0.7257  0.3852 -0.2937
10011WAT     H240765   2.559   7.242   1.704 -0.4645  0.1758  0.7749
10011WAT    EPW40766   2.490   7.215   1.680 -0.2006 -0.0998  0.3042
10012WAT      O40767   1.996   4.549   3.978 -0.6165 -0.3506  0.4649
10012WAT     H140768   2.021   4.470   3.950 -0.9349 -0.4543  0.4612
10012WAT     H240769   2.007   4.600   3.908  0.9354 -0.0849  0.8662
10012WAT    EPW40770   2.001   4.545   3.964 -0.4343 -0.3267  0.5236
10013WAT      O40771   0.430   3.173   3.793 -0.5045  0.6405 -0.2176
10013WAT     H140772   0.496   3.117   3.777  0.2990  0.9317  1.7867
10013WAT     H240773   0.361   3.133   3.759  0.7195  0.4809 -2.7026
10013WAT    EPW40774   0.430   3.158   3.786 -0.2050  0.6599 -0.2886
10014WAT      O40775   4.375   5.218   1.001 -0.5050 -0.0081  0.1199
10014WAT     H140776   4.317   5.154   1.013  0.2380 -0.8395 -0.6476
10014WAT     H240777   4.444   5.178   0.967  0.9046  0.8099  1.8550
10014WAT    EPW40778   4.376   5.203   0.998 -0.1871 -0.0101  0.2628
10015WAT      O40779   0.714   3.621   4.845  0.5315  0.2702  0.3176
10015WAT     H140780   0.757   3.686   4.883 -0.2173  0.0402  1.6189
10015WAT     H240781   0.756   3.610   4.769  0.5688  2.3480 -0.0073
10015WAT    EPW40782   0.727   3.629   4.839  0.4264  0.5432  0.4618
10016WAT      O40783   4.016   3.124   0.218 -0.4483  0.3234  0.1928
10016WAT     H140784   4.066   3.149   0.285 -0.9708  2.2505 -0.0686
10016WAT     H240785   3.964   3.063   0.253  0.0720  0.4566  1.2373
10016WAT    EPW40786   4.015   3.119   0.233 -0.4486  0.6277  0.3085
10017WAT      O40787   2.269   3.724   4.610  0.2927 -0.5193  0.3044
10017WAT     H140788   2.291   3.808   4.599 -1.2499 -0.2183 -0.8206
10017WAT     H240789   2.297   3.686   4.536  0.5217 -0.8869  0.5792
10017WAT    EPW40790   2.276   3.731   4.597  0.0987 -0.5291  0.1788
10018WAT      O40791   7.741   6.024   4.532  0.1408  0.1359 -0.1196
10018WAT     H140792   7.791   5.953   4.517 -0.0527 -0.1590  0.5943
10018WAT     H240793   7.663   5.990   4.551  0.4951  0.4092  2.1762
10018WAT    EPW40794   7.737   6.008   4.533  0.1646  0.1327  0.3250
10019WAT      O40795   1.698   5.181   4.865 -0.2334  0.2269  0.2014
10019WAT     H140796   1.632   5.175   4.922 -0.9356 -0.5500 -0.6579
10019WAT     H240797   1.732   5.260   4.880 -0.3825  0.0301  1.7009
10019WAT    EPW40798   1.693   5.192   4.876 -0.3592  0.0831  0.2960
10020WAT      O40799   3.412   3.083   6.584 -0.3423  0.1449  0.3247
10020WAT     H140800   3.366   3.116   6.518  0.4498 -1.9658 -1.4154
10020WAT     H240801   3.490   3.122   6.578 -0.8839  1.4516  1.3493
10020WAT    EPW40802   3.417   3.094   6.574 -0.3053  0.0261  0.2190
10021WAT      O40803   0.306   5.950   5.301  0.1023 -0.0380 -0.2911
10021WAT     H140804   0.248   5.914   5.355  0.8297 -1.2710 -0.2904
10021WAT     H240805   0.358   5.996   5.354  0.4007 -0.6787 -0.0266
10021WAT    EPW40806   0.305   5.952   5.317  0.2538 -0.3148 -0.2520
10022WAT      O40807   3.636   5.159   0.735 -0.0582 -0.1481 -0.0136
10022WAT     H140808   3.683   5.122   0.799 -1.2967 -0.4335  0.7784
10022WAT     H240809   3.596   5.226   0.775  0.1825  0.4973 -0.8265
10022WAT    EPW40810   3.637   5.163   0.750 -0.2056 -0.0949 -0.0167
10023WAT      O40811   3.325   1.713   3.232 -0.0564  0.1545 -0.4807
10023WAT     H140812   3.350   1.735   3.313  0.8471 -1.7751 -0.1799
10023WAT     H240813   3.384   1.752   3.181 -0.1130  0.6553 -0.1756
10023WAT    EPW40814   3.337   1.722   3.236  0.0687 -0.0565 -0.3912
10024WAT      O40815   2.414   5.614   1.885  0.6361 -0.1968 -0.7432
10024WAT     H140816   2.444   5.648   1.960  0.7586  0.8629 -1.2638
10024WAT     H240817   2.329   5.634   1.887  0.8881  1.0378 -1.5035
10024WAT    EPW40818   2.406   5.622   1.897  0.6914  0.1421 -0.9324
10025WAT      O40819   1.505   7.502   5.460  0.0938  0.5724 -0.1935
10025WAT     H140820   1.444   7.509   5.523  0.3628 -0.8539  0.2626
10025WAT     H240821   1.551   7.576   5.468 -2.1348  2.1957 -1.2128
10025WAT    EPW40822   1.503   7.514   5.471 -0.1957  0.6015 -0.2767
10026WAT      O40823   7.310   0.115   4.132  0.1216 -0.0300  0.2963
10026WAT     H140824   7.275   0.057   4.078 -0.3089 -0.7053  1.2637
10026WAT     H240825   7.314   0.072   4.208  3.4322 -0.1857  0.2085
10026WAT    EPW40826   7.306   0.100   4.135  0.5471 -0.1528  0.4262
10027WAT      O40827   0.303   5.783   5.631  0.0783  0.3019 -0.8675
10027WAT     H140828   0.226   5.741   5.624  0.8093 -1.1226 -0.6502
10027WAT     H240829   0.288   5.843   5.692 -0.4939 -0.8500  0.1628
10027WAT    EPW40830   0.289   5.786   5.639  0.1017 -0.0787 -0.6832
10028WAT      O40831   1.668   1.621   6.133 -0.0268 -0.1651  0.0452
10028WAT     H140832   1.583   1.619   6.116 -0.1109 -1.8269  0.5164
10028WAT     H240833   1.695   1.694   6.094 -1.8369  0.9671  0.7764
10028WAT    EPW40834   1.660   1.631   6.125 -0.3066 -0.2433  0.2228
10029WAT      O40835   2.892   4.500   2.964 -0.2611 -0.7453  0.0893
10029WAT     H140836   2.905   4.585   2.979  0.6482 -0.9502  0.5820
10029WAT     H240837   2.908   4.491   2.879  3.4917 -0.9974  0.6430
10029WAT    EPW40838   2.897   4.511   2.954  0.4276 -0.8128  0.2439
10030WAT      O40839   1.893   6.102   4.719  0.1182 -0.1142  0.1960
10030WAT     H140840   1.811   6.118   4.746  0.5164  1.1040  0.7553
10030WAT     H240841   1.904   6.158   4.653  0.1634 -1.0204 -0.5873
10030WAT    EPW40842   1.882   6.112   4.714  0.1837 -0.0681  0.1629
10031WAT      O40843   2.390   2.926   2.282 -0.0847 -0.0557 -0.2661
10031WAT     H140844   2.386   2.994   2.336  0.8256  0.0160 -0.2775
10031WAT     H240845   2.327   2.944   2.224 -0.6380  0.1847  0.3927
10031WAT    EPW40846   2.380   2.939   2.281 -0.0319 -0.0096 -0.1705
10032WAT      O40847   6.107   3.106   4.092  0.0855 -0.0747  0.0550
10032WAT     H140848   6.149   3.075   4.022  0.3911 -1.3815  0.7856
10032WAT     H240849   6.119   3.044   4.152  0.1508  1.1883  1.3964
10032WAT    EPW40850   6.115   3.092   4.091  0.1403 -0.0812  0.3611
10033WAT      O40851   3.840   5.774   5.673 -0.2497 -0.5155 -0.1626
10033WAT     H140852   3.776   5.734   5.718  0.8932 -1.7776  0.4120
10033WAT     H240853   3.839   5.733   5.596  0.6159 -1.3957  0.2651
10033WAT    EPW40854   3.830   5.762   5.669  0.0470 -0.8320 -0.0145
10034WAT      O40855   6.955   5.334   5.408  0.3399 -0.2770 -0.3751
10034WAT     H140856   6.946   5.295   5.485  1.6962  0.2793  0.0959
10034WAT     H240857   6.898   5.399   5.410  1.3502  0.6026  0.7579
10034WAT    EPW40858   6.945   5.338   5.420  0.6895 -0.0649 -0.1382
10035WAT      O40859   2.626   3.553   4.697  0.1307 -0.0850 -0.2249
10035WAT     H140860   2.637   3.594   4.773  1.6727 -0.3235 -0.3041
10035WAT     H240861   2.631   3.617   4.638  1.5316 -0.2199 -0.2804
10035WAT    EPW40862   2.628   3.568   4.699  0.5655 -0.1401 -0.2448
10036WAT      O40863   2.941   0.655   4.242 -0.3555 -0.3367 -0.2938
10036WAT     H140864   2.915   0.663   4.324  0.1822 -0.8593 -0.0604
10036WAT     H240865   2.933   0.570   4.226  0.1351 -0.3375 -0.5733
10036WAT    EPW40866   2.936   0.644   4.252 -0.2036 -0.4140 -0.3006
10037WAT      O40867   7.456   7.610   4.712  0.2900 -0.3896 -0.3597
10037WAT     H140868   7.373   7.590   4.729  0.6978 -1.1866  0.7931
10037WAT     H240869   7.478   7.666   4.775  1.6497 -2.9453  1.6221
10037WAT    EPW40870   7.447   7.615   4.724  0.5511 -0.8849  0.1033
10038WAT      O40871   2.469   5.493   6.114  0.4227 -0.7258  0.0680
10038WAT     H140872   2.509   5.419   6.138  1.0963 -0.4787 -0.2922
10038WAT     H240873   2.522   5.556   6.142 -0.6916 -0.3099  1.4091
10038WAT    EPW40874   2.483   5.491   6.122  0.3576 -0.6278  0.2129
10039WAT      O40875   4.041   6.156   4.497  0.0697 -0.1701  0.8779
10039WAT     H140876   3.961   6.190   4.494 -0.0225 -0.4439 -0.4124
10039WAT     H240877   4.068   6.173   4.579 -0.6167  1.4861  0.8105
10039WAT    EPW40878   4.033   6.164   4.509 -0.0453  0.0341  0.6773
10040WAT      O40879   3.625   3.725   5.921 -0.2240 -0.2813 -0.1102
10040WAT     H140880   3.626   3.763   6.000 -0.9001  0.7868 -0.5978
10040WAT     H240881   3.704   3.743   5.888 -0.0751 -0.4149  0.1677
10040WAT    EPW40882   3.637   3.733   5.928 -0.3019 -0.1432 -0.1412
10041WAT      O40883   0.435   5.230   4.695 -0.0142 -0.3999  0.0454
10041WAT     H140884   0.383   5.160   4.695  0.9708 -1.2644  2.8267
10041WAT     H240885   0.511   5.199   4.665  0.2458 -0.3811  0.6769
10041WAT    EPW40886   0.439   5.215   4.691  0.1697 -0.5248  0.5496
10042WAT      O40887   1.620   3.337   3.604  0.5020 -0.3785  0.2157
10042WAT     H140888   1.650   3.261   3.634 -2.0962 -0.9998  1.5174
10042WAT     H240889   1.633   3.331   3.518  2.7754 -1.0811  0.5256
10042WAT    EPW40890   1.627   3.325   3.596  0.4541 -0.5741  0.4538
10043WAT      O40891   5.103   2.767   3.980 -0.3525  0.3914 -0.5140
10043WAT     H140892   5.089   2.681   3.972  1.1834 -0.3236  2.7678
10043WAT     H240893   5.027   2.797   4.010 -0.4522 -0.0968 -0.2683
10043WAT    EPW40894   5.089   2.759   3.983 -0.1403  0.2136  0.0071
10044WAT      O40895   0.313   4.054   5.304 -0.0983 -0.3793  0.1608
10044WAT     H140896   0.391   4.016   5.304 -0.3570 -0.9370 -0.4494
10044WAT     H240897   0.293   4.059   5.389 -0.3728 -2.3267  0.2688
10044WAT    EPW40898   0.321   4.049   5.317 -0.1771 -0.7493  0.0866
10045WAT      O40899   2.999   4.330   4.310  0.3664  0.0826 -0.3015
10045WAT     H140900   3.033   4.325   4.390 -0.4441  2.4090  0.2518
10045WAT     H240901   2.918   4.299   4.321  0.5385 -0.4239 -0.4328
10045WAT    EPW40902   2.992   4.324   4.323  0.2721  0.3514 -0.2392
10046WAT      O40903   5.704   5.883   3.190 -0.4551  0.1299  0.2771
10046WAT     H140904   5.719   5.813   3.239 -1.4028  0.4776  1.1228
10046WAT     H240905   5.617   5.895   3.198 -0.6249  0.2664 -1.4203
10046WAT    EPW40906   5.693   5.875   3.199 -0.6202  0.2014  0.1513
10047WAT      O40907   4.287   5.310   6.820 -0.3735  0.2358 -0.2145
10047WAT     H140908   4.265   5.370   6.880  1.3626  0.0626  0.6413
10047WAT     H240909   4.331   5.250   6.866  1.9091  0.5946 -1.7983
10047WAT    EPW40910   4.290   5.310   6.836  0.2201  0.2632 -0.3221
10048WAT      O40911   6.401   3.619   5.662 -0.2054  0.5707 -0.4362
10048WAT     H140912   6.317   3.641   5.668 -0.1810  0.5582  0.0690
10048WAT     H240913   6.423   3.604   5.745 -0.2211 -1.3361 -0.7254
10048WAT    EPW40914   6.392   3.620   5.675 -0.2041  0.2872 -0.4043
10049WAT      O40915   6.246   3.009   2.691 -0.0282  0.6040 -0.2039
10049WAT     H140916   6.276   3.069   2.747 -2.9259  0.3453  1.8257
10049WAT     H240917   6.277   2.934   2.722  0.2991  0.6788 -0.3496
10049WAT    EPW40918   6.255   3.007   2.704 -0.4079  0.5769  0.0744
10050WAT      O40919   1.885   4.911   2.824 -0.2012  0.0379 -0.0235
10050WAT     H140920   1.885   4.828   2.798 -0.2624 -0.1442  0.5490
10050WAT     H240921   1.953   4.946   2.782 -1.1509  0.1090 -1.5634
10050WAT    EPW40922   1.895   4.904   2.814 -0.3505  0.0215 -0.1664
10051WAT      O40923   0.216   5.984   5.830  0.0702 -0.2591 -0.4048
10051WAT     H140924   0.198   5.948   5.907  0.5977 -0.1236 -0.2118
10051WAT     H240925   0.217   6.070   5.847  2.0219 -0.2961 -0.1301
10051WAT    EPW40926   0.213   5.991   5.844  0.4365 -0.2445 -0.3357
10052WAT      O40927   0.923   7.219   7.039 -0.4718  0.1867 -0.0360
10052WAT     H140928   0.867   7.182   7.095  1.1845 -0.8766  0.9929
10052WAT     H240929   0.946   7.293   7.079  1.2860 -0.9283  1.1349
10052WAT    EPW40930   0.918   7.224   7.053  0.0325 -0.1351  0.2890
10053WAT      O40931   7.165   6.534   0.453 -0.1379 -0.7031 -0.4167
10053WAT     H140932   7.145   6.613   0.482 -2.3485 -1.2533 -0.2651
10053WAT     H240933   7.235   6.512   0.499 -1.5146 -0.1857  2.0985
10053WAT    EPW40934   7.172   6.542   0.464 -0.6678 -0.7079 -0.0227
10054WAT      O40935   0.860   7.413   3.714 -0.2638  0.4794  0.2404
10054WAT     H140936   0.812   7.363   3.767 -0.4777  1.8769  1.4337
10054WAT     H240937   0.937   7.420   3.755  0.0702  0.4212 -0.3506
10054WAT    EPW40938   0.865   7.407   3.728 -0.2460  0.6773  0.3294
10055WAT      O40939   6.770   7.312   7.596  0.2675  0.1998  0.0558
10055WAT     H140940   6.807   7.390   7.595  0.7034  0.0344  1.0910
10055WAT     H240941   6.715   7.317   7.663  0.8219 -0.5892  0.5913
10055WAT    EPW40942   6.768   7.324   7.606  0.4137  0.0588  0.2878
10056WAT      O40943   2.504   7.581   3.709  0.3888 -0.1566 -0.1664
10056WAT     H140944   2.489   7.627   3.636 -1.1240  0.3761  0.4457
10056WAT     H240945   2.433   7.596   3.757  1.3319 -0.5551  1.3989
10056WAT    EPW40946   2.492   7.590   3.705  0.3046 -0.1367  0.1553
10057WAT      O40947   7.645   3.127   6.101 -0.5463 -0.1455 -0.3287
10057WAT     H140948   7.706   3.168   6.148 -0.4963  2.3108 -2.3033
10057WAT     H240949   7.686   3.054   6.075  1.1521  0.8219 -0.5595
10057WAT    EPW40950   7.660   3.122   6.104 -0.2880  0.3603 -0.6545
10058WAT      O40951   7.470   6.318   5.206  0.3491 -0.2286 -0.1360
10058WAT     H140952   7.483   6.234   5.185 -1.1574  0.1387 -2.8616
10058WAT     H240953   7.534   6.360   5.164  0.2715  0.1185  0.0878
10058WAT    EPW40954   7.481   6.312   5.197  0.1151 -0.1231 -0.5056
10059WAT      O40955   1.763   5.616   1.954  0.1600 -0.0494 -0.4041
10059WAT     H140956   1.747   5.698   1.929 -0.4043  0.0268  0.1579
10059WAT     H240957   1.729   5.567   1.890  0.0887  0.1532 -0.5201
10059WAT    EPW40958   1.755   5.621   1.941  0.0661 -0.0082 -0.3382
10060WAT      O40959   3.513   2.760   7.170 -0.0737 -0.1073 -0.3314
10060WAT     H140960   3.481   2.803   7.101  0.8580  0.8888 -0.1673
10060WAT     H240961   3.598   2.754   7.152  0.2987  0.7000  0.9853
10060WAT    EPW40962   3.521   2.766   7.157  0.1190  0.1591 -0.1126
10061WAT      O40963   7.353   7.399   4.199 -1.0277  0.2807  0.0833
10061WAT     H140964   7.272   7.373   4.222 -1.2499  1.2653  0.4732
10061WAT     H240965   7.404   7.365   4.261 -1.2011  0.0014  0.0722
10061WAT    EPW40966   7.348   7.390   4.212 -1.0861  0.3849  0.1393
10062WAT      O40967   2.962   2.727   4.953 -0.5663  0.2016  0.3087
10062WAT     H140968   3.024   2.693   5.004  0.1754  0.4841 -0.3723
10062WAT     H240969   2.923   2.785   5.004 -1.5944 -1.3651  1.3643
10062WAT    EPW40970   2.966   2.730   4.968 -0.6086  0.0119  0.3640
10063WAT      O40971   1.441   6.486   4.101  0.4068  0.0332 -0.3600
10063WAT     H140972   1.422   6.518   4.181  0.5531  0.0681 -0.3398
10063WAT     H240973   1.504   6.538   4.073  1.8142 -1.2210  0.3443
10063WAT    EPW40974   1.447   6.498   4.109  0.6363 -0.1469 -0.2529
10064WAT      O40975   1.990   4.954   5.987 -0.5247 -0.6078  0.1179
10064WAT     H140976   2.055   5.007   6.012  0.4679 -0.9705 -1.5497
10064WAT     H240977   1.919   4.998   6.010  0.2438 -0.6621  2.9687
10064WAT    EPW40978   1.989   4.968   5.994 -0.2645 -0.6694  0.2926
10065WAT      O40979   4.018   5.148   2.282  0.1693  0.0563 -0.5344
10065WAT     H140980   4.033   5.093   2.347 -1.7475 -0.4042 -0.4321
10065WAT     H240981   3.952   5.111   2.238 -1.2754  2.3143 -0.3833
10065WAT    EPW40982   4.011   5.134   2.285 -0.3272  0.3218 -0.4970
10066WAT      O40983   7.340   7.516   7.525 -0.3262  0.3957  0.1678
10066WAT     H140984   7.333   7.469   7.451 -1.0088  2.0334 -0.8604
10066WAT     H240985   7.314   7.460   7.587 -4.1609  0.2510 -1.3233
10066WAT    EPW40986   7.335   7.501   7.523 -0.9935  0.6162 -0.2044
10067WAT      O40987   0.437   3.545   4.814 -0.1465 -0.0920  0.1911
10067WAT     H140988   0.522   3.549   4.832  0.0258 -0.7579 -0.4493
10067WAT     H240989   0.407   3.483   4.868  0.0123 -0.7243 -0.4312
10067WAT    EPW40990   0.445   3.537   4.825 -0.0976 -0.2837  0.0045
10068WAT      O40991   1.772   7.037   3.976  0.0756 -0.3275  0.2973
10068WAT     H140992   1.856   7.017   3.963 -0.3167 -0.7318 -1.9475
10068WAT     H240993   1.733   7.011   3.903 -1.9227  0.4422  1.0271
10068WAT    EPW40994   1.779   7.030   3.963 -0.2776 -0.2735  0.0735
10069WAT      O40995   4.860   6.947   1.069 -0.4478 -0.0241  0.5559
10069WAT     H140996   4.898   7.010   1.116  1.9267 -0.1569 -1.0197
10069WAT     H240997   4.898   6.874   1.098 -1.3848 -0.4779  0.6728
10069WAT    EPW40998   4.871   6.946   1.080 -0.2354 -0.1108  0.3404
10070WAT      O40999   1.525   0.503   6.597  0.0328 -0.0253 -0.3751
10070WAT     H141000   1.563   0.458   6.661  0.3631  0.0673 -0.5016
10070WAT     H241001   1.559   0.469   6.524  1.0715  1.0975 -0.4478
10070WAT    EPW41002   1.536   0.491   6.595  0.2350  0.1542 -0.4045
10071WAT      O41003   1.022   0.360   5.711  0.3849 -0.4260 -0.0061
10071WAT     H141004   1.038   0.278   5.685  2.2024 -0.5901  1.3957
10071WAT     H241005   1.060   0.408   5.649  0.5029 -0.6746 -0.1303
10071WAT    EPW41006   1.030   0.355   5.698  0.6708 -0.4869  0.1826
10072WAT      O41007   5.853   4.896   5.007 -0.4035  0.0648 -0.8246
10072WAT     H141008   5.811   4.823   5.029 -1.0681  0.8593  0.7299
10072WAT     H241009   5.913   4.869   4.949 -1.3876 -1.4984 -1.1632
10072WAT    EPW41010   5.856   4.881   5.002 -0.6471 -0.0487 -0.6450
10073WAT      O41011   1.808   5.358   0.754 -0.3260  0.1467  0.5246
10073WAT     H141012   1.784   5.398   0.680 -0.4018 -1.0177 -0.1062
10073WAT     H241013   1.774   5.408   0.817  0.2228  1.4897 -0.1876
10073WAT    EPW41014   1.800   5.371   0.752 -0.2561  0.1731  0.3262
10074WAT      O41015   6.220   3.051   5.353 -0.0006 -0.4701  0.2893
10074WAT     H141016   6.295   3.095   5.363 -1.4840  2.4254 -0.4584
10074WAT     H241017   6.173   3.076   5.422 -0.4734 -1.9070  0.5126
10074WAT    EPW41018   6.224   3.061   5.365 -0.2896 -0.2547  0.2118
10075WAT      O41019   5.863   5.107   5.598  0.1802  0.4747 -0.7307
10075WAT     H141020   5.788   5.112   5.643  1.5018  2.6421  1.4667
10075WAT     H241021   5.875   5.021   5.590 -2.8828  0.0210 -1.9054
10075WAT    EPW41022   5.853   5.095   5.604 -0.0771  0.7278 -0.5796
10076WAT      O41023   3.334   6.112   5.824 -0.5316  0.1107 -0.2199
10076WAT     H141024   3.397   6.110   5.764 -0.0135 -1.5448  0.3101
10076WAT     H241025   3.361   6.173   5.880  1.2327 -1.3009  0.5756
10076WAT    EPW41026   3.348   6.120   5.824 -0.1944 -0.3424 -0.0241
10077WAT      O41027   3.489   5.709   7.805 -0.2197 -0.3804 -0.4934
10077WAT     H141028   3.428   5.647   7.815 -0.8345  0.3522  0.3990
10077WAT     H241029   3.471   5.742   7.726 -0.2228 -0.9666 -0.7446
10077WAT    EPW41030   3.478   5.705   7.795 -0.3110 -0.3588 -0.3987
10078WAT      O41031   1.805   5.709   2.968 -0.1374 -0.3662  0.0504
10078WAT     H141032   1.803   5.622   2.965 -1.9488 -0.3616 -0.2726
10078WAT     H241033   1.866   5.730   2.910  2.6736 -1.4205  2.3800
10078WAT    EPW41034   1.814   5.699   2.959  0.0103 -0.5213  0.3468
10079WAT      O41035   4.096   2.794   1.873 -0.3286  0.1968 -0.2856
10079WAT     H141036   4.152   2.809   1.808 -0.0784 -0.2066 -0.1669
10079WAT     H241037   4.101   2.867   1.920 -0.5696  0.5225 -0.7584
10079WAT    EPW41038   4.105   2.807   1.870 -0.3272  0.1853 -0.3379
10080WAT      O41039   2.921   7.444   1.842  0.1491  0.0040 -0.5533
10080WAT     H141040   2.946   7.455   1.759  1.1143 -1.0082 -0.4261
10080WAT     H241041   2.985   7.482   1.887  0.8884 -1.5490 -0.2406
10080WAT    EPW41042   2.934   7.452   1.836  0.4009 -0.3749 -0.4884
10081WAT      O41043   1.369   4.313   4.137  0.0393  0.2509 -0.8565
10081WAT     H141044   1.352   4.377   4.081 -0.3855  1.2925  0.4153
10081WAT     H241045   1.456   4.307   4.135 -0.0101 -1.2735 -3.2228
10081WAT    EPW41046   1.379   4.321   4.128 -0.0308  0.1796 -1.0182
10082WAT      O41047   1.724   1.137   6.583 -0.0902 -0.1434 -0.4306
10082WAT     H141048   1.679   1.199   6.542 -0.6968 -0.4489 -0.2482
10082WAT     H241049   1.806   1.148   6.554 -0.1570  0.8307 -0.2799
10082WAT    EPW41050   1.729   1.148   6.573 -0.1897 -0.0446 -0.3814
10083WAT      O41051   2.955   5.126   3.927  0.2681  0.2350  0.1915
10083WAT     H141052   2.936   5.072   3.994  0.2715 -0.4088 -0.3183
10083WAT     H241053   2.974   5.201   3.967 -0.6935  0.1351  0.8657
10083WAT    EPW41054   2.955   5.129   3.943  0.1266  0.1251  0.2158
10084WAT      O41055   0.242   4.895   4.228  0.1437 -0.3010 -0.7663
10084WAT     H141056   0.213   4.894   4.146 -1.5587 -0.0445 -0.2196
10084WAT     H241057   0.225   4.815   4.257  0.3940 -0.2777 -0.5472
10084WAT    EPW41058   0.235   4.883   4.220 -0.0708 -0.2597 -0.6532
10085WAT      O41059   7.407   6.433   0.548 -0.4760 -0.0503  0.0802
10085WAT     H141060   7.462   6.491   0.514 -1.0151 -0.1968 -1.0963
10085WAT     H241061   7.460   6.371   0.580  0.0679 -0.3020 -1.2343
10085WAT    EPW41062   7.423   6.432   0.548 -0.4753 -0.1091 -0.2878
10086WAT      O41063   3.396   0.340   1.204  0.6317 -0.5296  0.1781
10086WAT     H141064   3.326   0.318   1.156 -0.2596 -0.2243  1.2868
10086WAT     H241065   3.436   0.263   1.218  0.7609 -0.6534 -0.8176
10086WAT    EPW41066   3.392   0.325   1.199  0.5191 -0.5028  0.1948
10087WAT      O41067   6.412   6.153   6.561 -0.4232  0.4171 -0.0439
10087WAT     H141068   6.431   6.101   6.494 -1.2184  0.0707 -0.0192
10087WAT     H241069   6.398   6.097   6.627  0.6255  0.7632  0.4979
10087WAT    EPW41070   6.412   6.137   6.561 -0.3857  0.4170  0.0398
10088WAT      O41071   2.592   2.128   7.469 -0.2143  0.1681 -0.0070
10088WAT     H141072   2.537   2.090   7.525  0.8422 -2.3142 -0.4838
10088WAT     H241073   2.668   2.128   7.512  0.2192 -0.0697 -0.7497
10088WAT    EPW41074   2.595   2.122   7.484  0.0058 -0.2337 -0.1871
10089WAT      O41075   6.243   5.562   5.479  0.5318 -0.1436  0.0717
10089WAT     H141076   6.234   5.476   5.496  1.2586 -0.1255  0.5944
10089WAT     H241077   6.172   5.581   5.432  0.6334 -1.1533 -0.5170
10089WAT    EPW41078   6.231   5.552   5.474  0.6542 -0.2900  0.0619
10090WAT      O41079   6.020   1.276   3.511 -0.4729  0.1210 -0.5439
10090WAT     H141080   6.095   1.265   3.468 -0.4425  1.3863 -0.8653
10090WAT     H241081   6.043   1.271   3.595 -0.1138  0.0706 -0.6425
10090WAT    EPW41082   6.034   1.274   3.517 -0.4154  0.3005 -0.6059
10091WAT      O41083   3.327   1.168   7.856  0.3824  0.6687 -0.2914
10091WAT     H141084   3.282   1.124   7.915 -1.0257  2.6069  0.1730
10091WAT     H241085   3.268   1.220   7.819  2.0203  2.5761 -0.4000
10091WAT    EPW41086   3.312   1.169   7.859  0.4163  1.2368 -0.2389
10092WAT      O41087   7.463   3.185   4.604 -0.1941 -0.1307  0.6423
10092WAT     H141088   7.547   3.174   4.580 -1.0212 -2.9385 -1.6292
10092WAT     H241089   7.452   3.126   4.667 -1.0125 -1.8629 -1.0048
10092WAT    EPW41090   7.474   3.175   4.610 -0.4372 -0.8013  0.0635
10093WAT      O41091   2.469   6.859   4.214  0.7373 -0.0861  0.2862
10093WAT     H141092   2.382   6.858   4.210  0.6586 -3.2518  0.3996
10093WAT     H241093   2.487   6.828   4.293  1.9830  0.4131  0.2292
10093WAT    EPW41094   2.459   6.854   4.225  0.9097 -0.4800  0.2946
10094WAT      O41095   3.156   5.500   5.666  0.0354  0.0414  0.2667
10094WAT     H141096   3.155   5.448   5.596 -0.7513  0.5850 -0.1428
10094WAT     H241097   3.075   5.493   5.698 -0.1050  1.0309  0.1696
10094WAT    EPW41098   3.144   5.492   5.660 -0.1016  0.2679  0.1918
10095WAT      O41099   3.412   5.192   5.729  0.2373 -0.4091 -0.0759
10095WAT     H141100   3.377   5.256   5.778  1.2583 -1.0170  1.5214
10095WAT     H241101   3.478   5.232   5.688 -0.5307  0.0697 -0.8812
10095WAT    EPW41102   3.417   5.207   5.730  0.2747 -0.4281  0.0411
10096WAT      O41103   7.734   1.795   4.603 -0.3804 -0.5826 -0.4544
10096WAT     H141104   7.788   1.843   4.555  0.5927 -1.1388  0.0556
10096WAT     H241105   7.719   1.724   4.553  1.0485 -1.4098  0.2233
10096WAT    EPW41106   7.740   1.791   4.589 -0.0255 -0.7870 -0.2790
10097WAT      O41107   6.530   0.464   3.738 -0.1516 -0.4691 -0.0510
10097WAT     H141108   6.444   0.461   3.725 -0.1441  2.2797 -1.4462
10097WAT     H241109   6.549   0.383   3.765 -3.1955 -1.0611  0.7382
10097WAT    EPW41110   6.520   0.451   3.740 -0.6001 -0.1505 -0.1405
10098WAT      O41111   4.401   7.239   5.735 -0.0526  0.9186 -0.0119
10098WAT     H141112   4.360   7.242   5.657 -0.4418  0.5824  0.1752
10098WAT     H241113   4.445   7.314   5.737  1.7166  0.0135 -1.4993
10098WAT    EPW41114   4.401   7.251   5.724  0.1512  0.7352 -0.2040
10099WAT      O41115   2.803   3.392   7.129  0.1853  0.7857  0.2664
10099WAT     H141116   2.757   3.386   7.203 -0.3282 -0.2486 -0.1084
10099WAT     H241117   2.840   3.470   7.134  1.2286  0.2283  2.2300
10099WAT    EPW41118   2.802   3.403   7.141  0.2635  0.5506  0.5011
10100WAT      O41119   3.605   0.406   6.233 -1.0475 -0.0555  1.1024
10100WAT     H141120   3.619   0.428   6.150 -0.2083  0.1604  1.2919
10100WAT     H241121   3.600   0.482   6.274 -2.2523 -0.1397  1.1467
10100WAT    EPW41122   3.606   0.420   6.227 -1.1015 -0.0361  1.1370
10101WAT      O41123   4.504   6.631   4.237  0.4308  0.8537 -0.4091
10101WAT     H141124   4.487   6.668   4.160 -0.4527  1.1508 -0.0781
10101WAT     H241125   4.571   6.578   4.219  0.6353  1.3711 -1.2475
10101WAT    EPW41126   4.512   6.629   4.223  0.3305  0.9740 -0.4840
10102WAT      O41127   6.504   4.616   5.714  0.7214  0.6570  0.0288
10102WAT     H141128   6.430   4.649   5.746  0.8783  0.1945  0.8958
10102WAT     H241129   6.501   4.638   5.630 -1.2855 -0.9270 -0.3818
10102WAT    EPW41130   6.493   4.625   5.706  0.4481  0.3547  0.0962
10103WAT      O41131   0.575   1.638   5.399  0.8175 -0.1266  0.8638
10103WAT     H141132   0.615   1.580   5.348 -0.4572 -0.4958  0.2454
10103WAT     H241133   0.497   1.601   5.414  1.6193 -0.7704  4.3197
10103WAT    EPW41134   0.569   1.624   5.394  0.7477 -0.2762  1.2829
10104WAT      O41135   1.222   5.326   6.133  0.4203  0.5285  0.6063
10104WAT     H141136   1.198   5.278   6.202 -0.0607  1.3599  1.0386
10104WAT     H241137   1.307   5.308   6.124  0.5153  0.4903  1.4853
10104WAT    EPW41138   1.231   5.316   6.142  0.3633  0.6457  0.8000
10105WAT      O41139   7.543   0.003   6.053 -0.3966 -0.5435  0.3647
10105WAT     H141140   7.467  -0.024   6.086 -0.5541 -1.1062 -0.4231
10105WAT     H241141   7.520   0.050   5.983 -0.0122 -1.7628 -0.6247
10105WAT    EPW41142   7.529   0.006   6.047 -0.3631 -0.8068  0.1022
10106WAT      O41143   2.607   4.614   0.016 -0.4639 -0.3861 -0.2190
10106WAT     H141144   2.641   4.637  -0.060  2.4116  1.7374  1.5034
10106WAT     H241145   2.547   4.675   0.031 -0.2337 -0.1428 -0.2912
10106WAT    EPW41146   2.603   4.626   0.007 -0.0051 -0.0365  0.0248
10107WAT      O41147   2.573   4.153   4.626 -0.4134 -0.3185  0.1277
10107WAT     H141148   2.554   4.096   4.562  1.0853 -0.3905 -0.2814
10107WAT     H241149   2.645   4.121   4.662 -1.4285 -0.4960  2.1774
10107WAT    EPW41150   2.581   4.140   4.622 -0.3420 -0.3554  0.3701
10108WAT      O41151   2.541   6.375   5.230  0.0775 -0.0599  0.5018
10108WAT     H141152   2.620   6.360   5.196 -0.0137 -0.4096  0.4419
10108WAT     H241153   2.519   6.299   5.265 -0.2597  0.0221  0.4699
10108WAT    EPW41154   2.549   6.362   5.230  0.0142 -0.0995  0.4882
10109WAT      O41155   4.534   6.447   0.834  0.0226  0.5111  0.2349
10109WAT     H141156   4.524   6.364   0.809  1.1190  0.6586 -0.8199
10109WAT     H241157   4.536   6.442   0.921 -0.1117 -0.5385  0.1951
10109WAT    EPW41158   4.533   6.434   0.843  0.1647  0.3778  0.0732
10110WAT      O41159   4.019   6.299   2.790  0.1334 -0.2858 -0.2054
10110WAT     H141160   4.029   6.219   2.756  0.1130 -0.1751 -0.4774
10110WAT     H241161   4.100   6.328   2.800  0.2068 -0.9085  1.2921
10110WAT    EPW41162   4.032   6.292   2.786  0.1412 -0.3614 -0.0244
10111WAT      O41163   2.334   2.657   0.411  0.1504  0.5832 -0.3969
10111WAT     H141164   2.322   2.692   0.490  1.3547  2.2969 -0.9175
10111WAT     H241165   2.385   2.588   0.426  0.9281  1.2921  0.2522
10111WAT    EPW41166   2.340   2.652   0.425  0.4432  0.9411 -0.3779
10112WAT      O41167   2.293   5.241   7.327 -0.3311 -0.1145  0.5022
10112WAT     H141168   2.252   5.307   7.287 -0.6452 -0.8954 -0.5041
10112WAT     H241169   2.356   5.219   7.270 -0.8072 -1.2743  0.4061
10112WAT    EPW41170   2.296   5.247   7.313 -0.4478 -0.4012  0.3394
10113WAT      O41171   1.756   0.106   7.036  0.1197 -0.1063  0.0058
10113WAT     H141172   1.696   0.043   7.028  0.6034 -0.6125  0.3046
10113WAT     H241173   1.801   0.083   7.107 -0.3431  1.1237  0.7405
10113WAT    EPW41174   1.754   0.094   7.046  0.1228  0.0006  0.1585
10114WAT      O41175   2.617   1.330   3.113  0.0920 -0.3156  0.3657
10114WAT     H141176   2.657   1.364   3.182 -0.2973  0.9076  0.0140
10114WAT     H241177   2.616   1.396   3.055 -0.6297 -0.9419 -0.3624
10114WAT    EPW41178   2.622   1.345   3.115 -0.0721 -0.2274  0.2062
10115WAT      O41179   0.299   4.335   6.650  0.4572 -0.2910  0.3219
10115WAT     H141180   0.229   4.293   6.682 -0.1398  0.4521  0.0245
10115WAT     H241181   0.357   4.271   6.638 -0.6254 -1.1482 -0.6665
10115WAT    EPW41182   0.297   4.319   6.653  0.2091 -0.3079  0.1320
10116WAT      O41183   3.957   5.995   5.143 -0.0226 -0.3671 -0.1642
10116WAT     H141184   4.005   6.068   5.139 -1.3501  0.4822 -1.7615
10116WAT     H241185   4.016   5.931   5.137  1.2550  0.4785  2.0548
10116WAT    EPW41186   3.973   5.997   5.141 -0.0299 -0.1167 -0.0723
10117WAT      O41187   2.459   4.248   4.889  0.1583  0.3546  0.2546
10117WAT     H141188   2.452   4.193   4.957 -3.4854 -0.8841 -0.8690
10117WAT     H241189   2.513   4.206   4.835  0.4803 -0.2472  1.0099
10117WAT    EPW41190   2.466   4.234   4.891 -0.3324  0.0827  0.2002
10118WAT      O41191   2.338   6.114   4.607 -0.1560 -0.0059 -0.2339
10118WAT     H141192   2.365   6.088   4.685 -1.4191 -0.1928  0.1591
10118WAT     H241193   2.272   6.169   4.624  0.5153  1.1375 -1.1335
10118WAT    EPW41194   2.332   6.118   4.621 -0.2434  0.1354 -0.3087
10119WAT      O41195   1.539   5.922   1.018  0.1428  0.2633  0.3505
10119WAT     H141196   1.457   5.943   0.995 -0.0792 -2.6066 -2.0086
10119WAT     H241197   1.586   5.942   0.948  0.7378 -1.9155  0.0774
10119WAT    EPW41198   1.534   5.928   1.004  0.1979 -0.4825 -0.0383
10120WAT      O41199   1.704   6.691   4.428  0.1927  0.1779 -0.1540
10120WAT     H141200   1.693   6.605   4.417 -0.1291  0.2720 -0.5813
10120WAT     H241201   1.631   6.726   4.395  1.1137  0.7146 -1.7692
10120WAT    EPW41202   1.692   6.684   4.421  0.2812  0.2711 -0.4557
10121WAT      O41203   3.904   7.247   3.699 -0.5835  0.0918  0.0584
10121WAT     H141204   3.912   7.315   3.645  1.3557  0.4819  0.7606
10121WAT     H241205   3.927   7.178   3.650  1.7358  0.5111  0.4489
10121WAT    EPW41206   3.908   7.247   3.684  0.0456  0.2114  0.2198
10122WAT      O41207   2.510   7.539   3.278 -1.2055  0.5106  0.0150
10122WAT     H141208   2.536   7.598   3.336 -0.9277  0.9897 -0.5865
10122WAT     H241209   2.554   7.560   3.206 -1.1786 -0.3685 -0.2386
10122WAT    EPW41210   2.520   7.551   3.276 -1.1605  0.4515 -0.1113
10123WAT      O41211   3.106   0.231   3.796  0.3587 -0.3869  0.4566
10123WAT     H141212   3.151   0.218   3.722 -0.6477  1.2386 -0.4904
10123WAT     H241213   3.105   0.318   3.805 -1.8782 -0.4089  0.8760
10123WAT    EPW41214   3.113   0.242   3.787 -0.1204 -0.1501  0.3787
10124WAT      O41215   2.141   2.467   6.542 -0.2614 -0.2559  0.1652
10124WAT     H141216   2.126   2.405   6.483  0.8631 -0.2224 -0.1763
10124WAT     H241217   2.200   2.518   6.504 -0.9565  0.8831  0.5466
10124WAT    EPW41218   2.147   2.466   6.528 -0.1979 -0.0827  0.1711
10125WAT      O41219   2.687   6.533   4.923  0.2940 -0.0540  0.2290
10125WAT     H141220   2.600   6.533   4.911 -0.0612  0.8775  2.3253
10125WAT     H241221   2.700   6.599   4.979  2.4166  0.0239 -0.2632
10125WAT    EPW41222   2.676   6.543   4.929  0.5551  0.0951  0.4659
10126WAT      O41223   6.652   6.816   6.117 -0.3149 -0.0414  0.0779
10126WAT     H141224   6.620   6.826   6.198  0.3769 -0.6995  0.4477
10126WAT     H241225   6.654   6.897   6.085  0.9547  0.4527  1.3292
10126WAT    EPW41226   6.648   6.829   6.124 -0.0252 -0.0656  0.3174
10127WAT      O41227   2.371   4.182   6.023 -0.6613  0.3415  0.1204
10127WAT     H141228   2.452   4.209   6.005 -1.0779  1.9237  0.4304
10127WAT     H241229   2.345   4.142   5.950  0.0257  0.7614 -0.3622
10127WAT    EPW41230   2.379   4.180   6.010 -0.6214  0.6373  0.0949
10128WAT      O41231   5.432   5.831   4.875 -0.5552 -0.4447  0.2130
10128WAT     H141232   5.388   5.755   4.871  0.0114 -0.8086  0.7465
10128WAT     H241233   5.436   5.848   4.960  0.4246 -0.4656  0.1811
10128WAT    EPW41234   5.426   5.822   4.887 -0.3268 -0.5015  0.2871
10129WAT      O41235   0.238   3.941   4.226  0.2902 -0.5518 -0.1044
10129WAT     H141236   0.320   3.956   4.202  0.7571 -2.0327  0.4782
10129WAT     H241237   0.243   3.930   4.312 -1.0418  2.5138  0.4857
10129WAT    EPW41238   0.251   3.942   4.235  0.1624 -0.3177  0.0688
10130WAT      O41239   1.715   2.184   0.608 -0.0448 -0.8874 -0.0650
10130WAT     H141240   1.702   2.199   0.523  0.4805 -2.6878 -0.5093
10130WAT     H241241   1.681   2.105   0.620  0.1879 -0.7967  1.3455
10130WAT    EPW41242   1.708   2.175   0.597  0.0671 -1.1400  0.0777
10131WAT      O41243   4.173   6.558   1.550  0.3862 -0.3980 -0.4639
10131WAT     H141244   4.255   6.583   1.537  0.1178 -0.1419 -1.8349
10131WAT     H241245   4.147   6.531   1.472 -1.0096  0.0371 -0.1913
10131WAT    EPW41246   4.181   6.558   1.537  0.1404 -0.2959 -0.6262
10132WAT      O41247   0.382   3.313   4.025  0.0835  0.0273  0.1789
10132WAT     H141248   0.352   3.252   4.079  2.4560 -0.5213  0.9983
10132WAT     H241249   0.403   3.269   3.953 -0.6980  0.3416 -0.2494
10132WAT    EPW41250   0.380   3.298   4.022  0.3185 -0.0073  0.2367
10133WAT      O41251   1.438   4.423   6.097  0.5652 -0.4201  0.0505
10133WAT     H141252   1.507   4.464   6.132 -0.3686  0.7365  0.5943
10133WAT     H241253   1.379   4.422   6.161 -0.0720 -1.0607 -0.5239
10133WAT    EPW41254   1.439   4.429   6.111  0.3331 -0.3439  0.0460
10134WAT      O41255   7.706   4.930   4.247  0.5984 -0.2048 -0.2047
10134WAT     H141256   7.691   4.981   4.178 -0.1046  0.1429  0.1977
10134WAT     H241257   7.790   4.946   4.267  1.2411 -1.3394 -1.8012
10134WAT    EPW41258   7.716   4.940   4.240  0.5895 -0.3210 -0.3811
10135WAT      O41259   2.697   3.577   6.247  0.1728  0.0526 -0.3983
10135WAT     H141260   2.630   3.609   6.293  0.1134  0.2056 -0.5907
10135WAT     H241261   2.767   3.608   6.290  0.1530 -1.1454  0.5540
10135WAT    EPW41262   2.698   3.586   6.260  0.1611 -0.1018 -0.2860
10136WAT      O41263   1.279   0.071   4.989 -0.6409  0.5603  0.2575
10136WAT     H141264   1.203   0.034   4.967 -0.4055 -2.0999  3.2416
10136WAT     H241265   1.336   0.004   4.983  1.1591  2.0520 -0.1817
10136WAT    EPW41266   1.276   0.055   4.985 -0.3403  0.3877  0.6334
10137WAT      O41267   6.541   0.505   5.244  0.0621  0.3099  0.5748
10137WAT     H141268   6.601   0.465   5.195  0.5176 -0.3438  1.6371
10137WAT     H241269   6.498   0.439   5.282 -0.0542  0.8044  1.3265
10137WAT    EPW41270   6.544   0.489   5.242  0.1122  0.2864  0.8427
10138WAT      O41271   2.717   3.863   6.764 -0.0612 -0.7793 -0.2340
10138WAT     H141272   2.767   3.796   6.790  0.4846 -0.5540 -0.6721
10138WAT     H241273   2.636   3.830   6.764 -0.1200 -0.7402  1.9082
10138WAT    EPW41274   2.713   3.848   6.768  0.0107 -0.7403  0.0177
10139WAT      O41275   1.900   7.424   6.060 -0.2627  0.5942  1.0120
10139WAT     H141276   1.928   7.379   6.129 -0.3797  0.9798  1.3145
10139WAT     H241277   1.972   7.430   6.010 -0.2974 -0.0924  0.8726
10139WAT    EPW41278   1.915   7.418   6.062 -0.2851  0.5497  1.0361
10140WAT      O41279   2.312   4.060   1.176 -0.3865 -0.3607  0.2979
10140WAT     H141280   2.397   4.080   1.177 -0.7807  1.4564  0.6470
10140WAT     H241281   2.297   4.032   1.257 -0.4704  1.1429  0.8431
10140WAT    EPW41282   2.322   4.059   1.188 -0.4571  0.1299  0.4300
10141WAT      O41283   1.786   1.569   3.658 -0.4099 -0.0235  0.5573
10141WAT     H141284   1.809   1.585   3.576  0.0738 -0.5756  0.5836
10141WAT     H241285   1.859   1.581   3.703 -0.7034  0.4158  0.9396
10141WAT    EPW41286   1.800   1.573   3.653 -0.3818 -0.0402  0.6177
10142WAT      O41287   4.307   5.592   4.221  0.4261 -0.6302  0.3146
10142WAT     H141288   4.298   5.525   4.167  0.3174  0.8322 -1.6084
10142WAT     H241289   4.389   5.585   4.249  0.1501 -2.0084  0.8173
10142WAT    EPW41290   4.318   5.581   4.217  0.3693 -0.6177  0.1048
10143WAT      O41291   0.476   5.279   5.311  0.4845 -0.4272 -0.4211
10143WAT     H141292   0.475   5.195   5.289  0.6206 -0.6020  0.2402
10143WAT     H241293   0.539   5.285   5.370 -1.3635 -0.4106  1.6804
10143WAT    EPW41294   0.485   5.268   5.316  0.2316 -0.4506 -0.0130
10144WAT      O41295   1.254   1.184   7.286 -0.1941 -0.6758 -1.0785
10144WAT     H141296   1.314   1.161   7.346 -0.6902 -1.6134 -0.9198
10144WAT     H241297   1.179   1.170   7.327 -0.5442 -1.4342 -1.9512
10144WAT    EPW41298   1.252   1.178   7.301 -0.3191 -0.9263 -1.1839
10145WAT      O41299   3.065   4.822   6.721  0.2298  0.1884  0.4332
10145WAT     H141300   3.007   4.835   6.785 -1.3569  0.6592 -1.0354
10145WAT     H241301   3.058   4.737   6.703 -0.8979  0.4692 -0.5315
10145WAT    EPW41302   3.056   4.812   6.728 -0.1712  0.2994  0.0737
10146WAT      O41303   3.059   5.384   4.011 -0.3820 -0.0145  0.2701
10146WAT     H141304   3.103   5.459   4.012 -0.4763  0.0404  0.6844
10146WAT     H241305   3.070   5.353   4.092  0.2492 -0.7961 -0.0970
10146WAT    EPW41306   3.067   5.390   4.023 -0.3027 -0.1219  0.2771
10147WAT      O41307   0.695   3.076   4.623 -0.6508 -0.0510 -0.5902
10147WAT     H141308   0.737   3.038   4.557 -2.7019 -0.3336 -1.8033
10147WAT     H241309   0.703   3.161   4.606 -0.5928 -0.1031 -0.8258
10147WAT    EPW41310   0.703   3.083   4.611 -0.9452 -0.1004 -0.8042
10148WAT      O41311   1.019   6.107   0.125  0.4262 -0.7684 -0.2958
10148WAT     H141312   0.951   6.141   0.167  0.1832  0.7104 -1.7921
10148WAT     H241313   1.085   6.159   0.147  0.8786 -1.5609  0.2968
10148WAT    EPW41314   1.019   6.120   0.135  0.4572 -0.6670 -0.4293
10149WAT      O41315   2.378   6.903   3.449  0.3676  0.2146 -0.7450
10149WAT     H141316   2.416   6.915   3.527 -1.6737  1.5957  0.1318
10149WAT     H241317   2.374   6.984   3.416 -1.5140  0.1102 -0.8757
10149WAT    EPW41318   2.383   6.917   3.456 -0.2119  0.4032 -0.6348
10150WAT      O41319   5.612   6.339   1.899 -0.3709 -0.2262  0.0119
10150WAT     H141320   5.679   6.353   1.952  1.6945 -0.7476 -2.2612
10150WAT     H241321   5.572   6.269   1.934  0.5309 -0.1727  1.1883
10150WAT    EPW41322   5.616   6.331   1.912  0.0674 -0.2953 -0.1501
10151WAT      O41323   2.199   5.678   5.678 -0.1076  0.1963 -0.1408
10151WAT     H141324   2.145   5.701   5.743  1.7375 -0.3796  1.6929
10151WAT     H241325   2.172   5.597   5.657  0.9630 -0.7553  1.8973
10151WAT    EPW41326   2.187   5.669   5.684  0.3231 -0.0293  0.4312
10152WAT      O41327   3.326   0.092   3.024  0.0313 -0.5558  0.7110
10152WAT     H141328   3.329   0.011   3.057  1.5073 -1.5389 -1.5683
10152WAT     H241329   3.384   0.136   3.072 -0.6483 -0.8783  1.8562
10152WAT    EPW41330   3.335   0.086   3.036  0.1490 -0.7487  0.5435
10153WAT      O41331   2.480   3.856   6.059  0.0370 -0.1495 -0.2297
10153WAT     H141332   2.511   3.877   6.138 -0.0412 -0.9715  0.0319
10153WAT     H241333   2.514   3.917   6.007 -0.5149  0.8540  0.5468
10153WAT    EPW41334   2.490   3.868   6.063 -0.0561 -0.1227 -0.0764
10154WAT      O41335   1.778   3.599   1.920 -0.0104 -0.6177  0.0305
10154WAT     H141336   1.827   3.528   1.931 -1.4308 -1.8342 -0.9827
10154WAT     H241337   1.756   3.623   2.001  1.5123 -0.5290  0.4502
10154WAT    EPW41338   1.782   3.592   1.933  0.0047 -0.7843 -0.0572
10155WAT      O41339   2.638   3.424   3.590 -0.5458 -0.0097  0.0970
10155WAT     H141340   2.603   3.424   3.510 -0.1780 -0.1566 -0.0670
10155WAT     H241341   2.617   3.503   3.621 -0.4320  0.1675 -0.2609
10155WAT    EPW41342   2.630   3.436   3.583 -0.4746 -0.0052  0.0199
10156WAT      O41343   2.099   5.066   6.590 -0.3103  0.3993 -0.2950
10156WAT     H141344   2.075   5.128   6.647 -1.1709  0.0249 -0.2358
10156WAT     H241345   2.108   5.110   6.515 -0.5031  0.6764 -0.1598
10156WAT    EPW41346   2.097   5.081   6.587 -0.4659  0.3849 -0.2663
10157WAT      O41347   6.007   4.422   5.954 -0.2882  0.1607 -0.3332
10157WAT     H141348   5.997   4.404   5.869  0.0352 -1.0006 -0.1539
10157WAT     H241349   6.093   4.413   5.966 -0.5508 -1.8168  0.5197
10157WAT    EPW41350   6.019   4.418   5.943 -0.2792 -0.3030 -0.1807
10158WAT      O41351   6.880   1.057   3.854  0.2012  0.0804 -0.3422
10158WAT     H141352   6.899   1.110   3.787  0.0169 -2.4367 -2.5537
10158WAT     H241353   6.825   1.105   3.903  0.0271  1.9181 -2.1780
10158WAT    EPW41354   6.875   1.072   3.852  0.1483 -0.0200 -0.9401
10159WAT      O41355   0.582   3.110   5.836 -0.4959  0.3854  0.0117
10159WAT     H141356   0.654   3.158   5.825  0.2583 -0.5409  0.7690
10159WAT     H241357   0.606   3.031   5.808 -0.6652 -0.3405  1.7963
10159WAT    EPW41358   0.596   3.105   5.830 -0.4095  0.1413  0.3872
10160WAT      O41359   0.831   6.386   6.861  0.3657 -0.0639 -0.5270
10160WAT     H141360   0.844   6.341   6.934  1.3157  0.0944 -0.5826
10160WAT     H241361   0.893   6.447   6.863  0.1077  0.2359 -1.2325
10160WAT    EPW41362   0.842   6.388   6.872  0.4679  0.0037 -0.6394
10161WAT      O41363   5.869   6.968   7.782 -0.1695 -0.3643  0.4709
10161WAT     H141364   5.903   6.924   7.850  0.0390 -1.8074 -0.5423
10161WAT     H241365   5.823   6.908   7.739 -1.2765  0.8023 -0.0557
10161WAT    EPW41366   5.867   6.953   7.786 -0.3022 -0.4051  0.2434
10162WAT      O41367   6.636   5.163   5.371  0.0949  0.3390  0.8057
10162WAT     H141368   6.630   5.127   5.450 -0.7972  0.2911  0.7268
10162WAT     H241369   6.673   5.100   5.323  1.9542  0.8463  1.4534
10162WAT    EPW41370   6.641   5.148   5.376  0.2378  0.4069  0.8897
10163WAT      O41371   1.399   5.952   5.172 -0.3499 -0.1735  0.4990
10163WAT     H141372   1.448   5.997   5.116 -1.0685 -0.1877 -0.1506
10163WAT     H241373   1.318   5.971   5.150 -0.6587 -0.7207  1.0976
10163WAT    EPW41374   1.394   5.961   5.161 -0.5017 -0.2564  0.4915
10164WAT      O41375   2.821   6.645   7.771  0.3958 -0.1960  0.2966
10164WAT     H141376   2.737   6.634   7.791  0.9669 -3.8103  1.3864
10164WAT     H241377   2.821   6.650   7.684 -0.8705 -1.6173  0.1883
10164WAT    EPW41378   2.809   6.644   7.761  0.2931 -0.9399  0.4416
10165WAT      O41379   1.845   6.365   6.160  0.0965  0.4991  0.6659
10165WAT     H141380   1.875   6.373   6.078 -0.6490  0.8917  0.4163
10165WAT     H241381   1.800   6.439   6.172  0.2004  0.4381  1.4303
10165WAT    EPW41382   1.843   6.377   6.150  0.0018  0.5481  0.7419
10166WAT      O41383   6.056   2.868   0.935 -0.6777 -0.2960  0.2673
10166WAT     H141384   6.093   2.944   0.915 -0.1437 -0.9364 -1.2857
10166WAT     H241385   6.043   2.874   1.021 -2.9263  2.5349 -0.1174
10166WAT    EPW41386   6.059   2.880   0.945 -0.9309  0.0276 -0.0190
10167WAT      O41387   1.870   4.441   0.102 -0.0173 -0.0050 -0.0355
10167WAT     H141388   1.877   4.355   0.116  0.5118 -0.2867 -1.7962
10167WAT     H241389   1.892   4.476   0.179 -1.0331 -1.4349  0.9550
10167WAT    EPW41390   1.874   4.433   0.116 -0.0892 -0.2578 -0.1493
10168WAT      O41391   3.463   1.470   3.971 -0.1295  0.3062 -1.0087
10168WAT     H141392   3.426   1.391   3.975 -1.9882  1.1708  0.0805
10168WAT     H241393   3.396   1.525   3.980  1.2304  2.0266 -0.7629
10168WAT    EPW41394   3.448   1.467   3.973 -0.2032  0.6881 -0.8115
10169WAT      O41395   7.139   3.596   5.241  0.0907 -0.2701  0.2348
10169WAT     H141396   7.209   3.643   5.265  0.5283  0.8394 -2.7671
10169WAT     H241397   7.173   3.533   5.191 -0.9814 -0.0492 -0.8204
10169WAT    EPW41398   7.155   3.593   5.237 -0.0030 -0.0736 -0.3645
10170WAT      O41399   2.292   5.413   1.364  0.0762 -0.1133  0.2553
10170WAT     H141400   2.234   5.357   1.398 -1.4962  1.4092  0.2372
10170WAT     H241401   2.245   5.485   1.352  2.4167  1.8852  2.0824
10170WAT    EPW41402   2.276   5.415   1.367  0.1897  0.4069  0.5225
10171WAT      O41403   2.881   6.429   0.395  0.4833 -0.0759 -1.0022
10171WAT     H141404   2.905   6.508   0.365  0.3229  0.2124 -0.3801
10171WAT     H241405   2.948   6.378   0.373  2.9969  1.1420  2.8658
10171WAT    EPW41406   2.894   6.433   0.387  0.8309  0.1466 -0.3389
10172WAT      O41407   5.457   6.194   5.671  0.3658 -0.0406 -0.2599
10172WAT     H141408   5.493   6.208   5.592 -0.8418  0.1619 -0.7917
10172WAT     H241409   5.375   6.172   5.652  0.0778 -0.0559  0.9515
10172WAT    EPW41410   5.450   6.193   5.656  0.1449 -0.0129 -0.1595
10173WAT      O41411   1.584   0.384   5.231  0.2805  0.0438 -0.0854
10173WAT     H141412   1.574   0.427   5.156 -2.3574 -2.1996 -1.1848
10173WAT     H241413   1.643   0.323   5.212  1.4437  0.9295  0.4826
10173WAT    EPW41414   1.591   0.382   5.217  0.0626 -0.1568 -0.1639
10174WAT      O41415   4.745   6.826   3.386 -0.3765  0.5177 -0.0245
10174WAT     H141416   4.733   6.751   3.343  1.4338  0.1289  0.0340
10174WAT     H241417   4.687   6.822   3.451  0.6443 -1.5652  0.8587
10174WAT    EPW41418   4.735   6.814   3.389  0.0417  0.1525  0.1146
10175WAT      O41419   7.747   3.027   7.167 -0.2850  0.0528  0.5055
10175WAT     H141420   7.688   3.051   7.227  0.8367 -1.1493  2.2025
10175WAT     H241421   7.736   3.085   7.103 -2.0550  0.9598  1.5370
10175WAT    EPW41422   7.737   3.039   7.166 -0.3807  0.0092  0.9085
10176WAT      O41423   0.279   7.628   7.395 -0.9657  0.6514  0.0889
10176WAT     H141424   0.342   7.575   7.366 -0.4739  0.7599  0.9091
10176WAT     H241425   0.210   7.608   7.345 -0.7102 -0.5566  0.1857
10176WAT    EPW41426   0.278   7.617   7.383 -0.8553  0.4890  0.2244
10177WAT      O41427   2.571   6.576   0.718  0.8169  0.1922 -0.7268
10177WAT     H141428   2.531   6.635   0.668  0.6214 -0.2792 -1.1307
10177WAT     H241429   2.594   6.513   0.662 -1.0893 -1.2675 -0.0169
10177WAT    EPW41430   2.568   6.575   0.702  0.5064 -0.0930 -0.6816
10178WAT      O41431   3.005   6.861   7.755 -0.1101  0.4036  0.2601
10178WAT     H141432   3.000   6.840   7.671  1.1052  0.5534  0.1302
10178WAT     H241433   2.946   6.808   7.793  1.3385 -1.7699 -0.3389
10178WAT    EPW41434   2.996   6.850   7.748  0.2834  0.1047  0.1525
10179WAT      O41435   5.753   0.063   4.213 -0.6300  1.1551  0.0521
10179WAT     H141436   5.727  -0.020   4.213 -1.4127  1.3852  0.6725
10179WAT     H241437   5.721   0.094   4.288  0.5000  1.7638  0.3029
10179WAT    EPW41438   5.744   0.055   4.224 -0.5787  1.2790  0.1808
10180WAT      O41439   7.533   4.835   5.311 -0.4374  0.1096 -0.4662
10180WAT     H141440   7.592   4.794   5.360  0.7834  1.6726 -0.5404
10180WAT     H241441   7.581   4.871   5.248 -1.6004  0.6551 -1.0611
10180WAT    EPW41442   7.549   4.834   5.309 -0.4289  0.4211 -0.5650
10181WAT      O41443   2.617   6.346   4.267 -0.1074 -0.1533 -0.6609
10181WAT     H141444   2.672   6.394   4.220 -0.7782 -0.2475 -1.5703
10181WAT     H241445   2.543   6.349   4.221 -0.8580 -0.0636  0.5075
10181WAT    EPW41446   2.614   6.353   4.253 -0.3174 -0.1539 -0.6226
10182WAT      O41447   2.122   4.460   0.633 -0.2047  0.0423  0.0069
10182WAT     H141448   2.098   4.471   0.716  0.2613 -0.1690  0.1694
10182WAT     H241449   2.171   4.530   0.615  0.8850 -0.6085  0.3549
10182WAT    EPW41450   2.125   4.472   0.643  0.0251 -0.0850  0.0824
10183WAT      O41451   5.198   0.071   6.312 -0.0837 -0.2909 -0.0659
10183WAT     H141452   5.186   0.025   6.238  0.3344  0.8617 -0.8800
10183WAT     H241453   5.272   0.114   6.297  0.0232 -0.0554  1.0625
10183WAT    EPW41454   5.207   0.070   6.299 -0.0061 -0.0858 -0.0194
10184WAT      O41455   1.443   6.892   7.276 -0.1591  0.3387  0.6555
10184WAT     H141456   1.459   6.955   7.334  1.5065  0.3898  0.1860
10184WAT     H241457   1.407   6.936   7.209 -0.7609  0.4875  1.0636
10184WAT    EPW41458   1.440   6.908   7.275 -0.0019  0.3682  0.6464
10185WAT      O41459   1.718   5.494   6.735 -0.6789  0.0296  0.0373
10185WAT     H141460   1.672   5.529   6.670 -0.8335  0.6629  0.4800
10185WAT     H241461   1.780   5.554   6.751  0.3957 -0.8554 -0.6341
10185WAT    EPW41462   1.720   5.508   6.728 -0.5430 -0.0076  0.0035
10186WAT      O41463   4.601   5.390   1.853 -0.4482 -0.6529  0.0866
10186WAT     H141464   4.664   5.387   1.913 -1.0756  1.6697  0.9814
10186WAT     H241465   4.542   5.333   1.883  0.3591 -1.3949  0.2898
10186WAT    EPW41466   4.601   5.381   1.866 -0.4216 -0.4194  0.2488
10187WAT      O41467   1.772   2.306   0.864  0.0751  0.8648 -0.2599
10187WAT     H141468   1.755   2.258   0.793  0.3160  0.1040  0.1937
10187WAT     H241469   1.727   2.380   0.850 -1.4941 -0.0585 -0.2839
10187WAT    EPW41470   1.763   2.310   0.851 -0.1211  0.6160 -0.1965
10188WAT      O41471   3.237   6.251   4.437 -0.2106  0.4600  0.1729
10188WAT     H141472   3.186   6.288   4.498  0.6909 -0.0848  1.2987
10188WAT     H241473   3.308   6.227   4.482  1.1492  1.3748 -1.3947
10188WAT    EPW41474   3.240   6.253   4.453  0.1235  0.5147  0.1076
10189WAT      O41475   5.367   5.589   4.288  0.0564 -0.0735  0.1247
10189WAT     H141476   5.390   5.508   4.265  1.0162 -0.6787  2.8555
10189WAT     H241477   5.332   5.579   4.367 -1.5691  1.9957 -0.2380
10189WAT    EPW41478   5.365   5.575   4.296 -0.0419  0.1428  0.4745
10190WAT      O41479   3.755   5.892   7.811 -0.4241 -0.8420  0.0239
10190WAT     H141480   3.780   5.927   7.886  1.4271 -1.6037 -0.1979
10190WAT     H241481   3.709   5.821   7.835  1.6240 -2.0884  0.5048
10190WAT    EPW41482   3.752   5.887   7.825  0.1519 -1.1386  0.0621
10191WAT      O41483   2.229   3.215   3.464  0.5732  0.5755 -0.6765
10191WAT     H141484   2.295   3.223   3.521  0.7185  2.3000 -1.0323
10191WAT     H241485   2.225   3.129   3.450  0.2471 -0.0144  2.2487
10191WAT    EPW41486   2.238   3.204   3.470  0.5465  0.7431 -0.2969
10192WAT      O41487   2.923   4.578   4.214 -0.0196 -0.3187  0.3512
10192WAT     H141488   2.932   4.511   4.269 -1.0748 -0.5720  0.2374
10192WAT     H241489   2.997   4.623   4.223  1.3489 -2.2694 -0.6244
10192WAT    EPW41490   2.935   4.575   4.223  0.0267 -0.6442  0.1902
10193WAT      O41491   1.744   0.589   2.802  0.4152  0.6837 -0.2660
10193WAT     H141492   1.712   0.518   2.842  0.4275 -0.2385 -1.8151
10193WAT     H241493   1.673   0.636   2.784  0.0106 -0.5370 -2.1463
10193WAT    EPW41494   1.729   0.585   2.805  0.3573  0.3671 -0.7726
10194WAT      O41495   6.830   6.373   6.118 -0.0019 -0.1815 -0.1196
10194WAT     H141496   6.843   6.452   6.084 -4.0126 -0.2862 -2.5748
10194WAT     H241497   6.874   6.320   6.063  0.1395  0.1692 -0.3490
10194WAT    EPW41498   6.839   6.377   6.105 -0.5735 -0.1452 -0.5162
10195WAT      O41499   2.191   4.731   0.504  0.1177  0.0785 -0.0859
10195WAT     H141500   2.161   4.751   0.424  0.1836  1.2496  0.1647
10195WAT     H241501   2.270   4.768   0.505  0.6047 -0.9364  0.1140
10195WAT    EPW41502   2.198   4.740   0.492  0.1993  0.1016 -0.0194
10196WAT      O41503   1.817   3.470   3.261  0.5004  0.0963  0.2539
10196WAT     H141504   1.780   3.544   3.288 -2.8573 -1.5866  0.8234
10196WAT     H241505   1.832   3.484   3.177 -2.0293  0.8513 -0.1662
10196WAT    EPW41506   1.814   3.483   3.253 -0.3693 -0.0408  0.2759
10197WAT      O41507   0.416   3.013   6.040  0.0282 -0.1350  0.0624
10197WAT     H141508   0.467   2.961   6.088 -0.9092  0.4434  1.7453
10197WAT     H241509   0.473   3.056   5.990  1.0136 -0.9323  0.4504
10197WAT    EPW41510   0.432   3.012   6.040  0.0353 -0.1673  0.3683
10198WAT      O41511   3.068   1.352   3.008  0.1649 -0.0162 -0.1948
10198WAT     H141512   3.049   1.382   3.088  0.0332 -1.0448  0.1748
10198WAT     H241513   3.000   1.300   2.989  1.6527 -2.3555  0.4033
10198WAT    EPW41514   3.055   1.349   3.017  0.3652 -0.5137 -0.0519
10199WAT      O41515   1.775   7.633   4.930 -0.4159  0.7719  0.2564
10199WAT     H141516   1.733   7.613   4.855 -0.8528 -0.6833  0.8483
10199WAT     H241517   1.752   7.568   4.984 -0.5638  2.0906  1.8486
10199WAT    EPW41518   1.765   7.621   4.927 -0.5023  0.7517  0.5790
10200WAT      O41519   3.626   1.928   3.925  0.1091 -0.3978 -0.1223
10200WAT     H141520   3.584   1.989   3.971 -0.3891 -0.8058 -0.0208
10200WAT     H241521   3.565   1.896   3.872 -0.5696 -2.9679  1.9616
10200WAT    EPW41522   3.611   1.932   3.924 -0.0647 -0.8377  0.2005
10201WAT      O41523   5.993   1.591   2.358  0.0733  0.1494 -0.2554
10201WAT     H141524   6.017   1.636   2.429  0.9255 -1.1500  0.3238
10201WAT     H241525   5.992   1.651   2.295  0.2432  1.1492  0.6540
10201WAT    EPW41526   5.996   1.607   2.359  0.2243  0.1051 -0.0355
10202WAT      O41527   2.242   1.002   4.039  0.0553 -0.0080 -0.0965
10202WAT     H141528   2.196   0.928   4.038  1.3452 -0.8400  0.3796
10202WAT     H241529   2.253   1.020   3.954  1.6763 -1.6473 -0.3031
10202WAT    EPW41530   2.237   0.994   4.026  0.4853 -0.3731 -0.0567
10203WAT      O41531   5.664   6.067   1.465 -0.5594 -0.5101 -0.0534
10203WAT     H141532   5.599   6.124   1.477  0.0163  0.1477  0.0067
10203WAT     H241533   5.720   6.111   1.415 -0.9363 -1.6761 -1.5824
10203WAT    EPW41534   5.662   6.082   1.460 -0.5301 -0.5852 -0.2704
10204WAT      O41535   2.607   4.985   0.168  0.1479  0.1175  0.5412
10204WAT     H141536   2.660   4.924   0.200  0.5994 -1.0875 -2.2045
10204WAT     H241537   2.643   5.060   0.195  1.9733 -0.7400  0.6128
10204WAT    EPW41538   2.620   4.987   0.177  0.4842 -0.1872  0.1462
10205WAT      O41539   1.790   7.226   7.543  0.7234 -0.0858  0.0359
10205WAT     H141540   1.837   7.247   7.473  0.2029  0.5236 -0.1413
10205WAT     H241541   1.708   7.242   7.518  0.4799 -0.4832  0.5690
10205WAT    EPW41542   1.785   7.232   7.529  0.6105 -0.0545  0.0885
10206WAT      O41543   3.839   6.805   5.221  0.2768 -0.1844 -0.4853
10206WAT     H141544   3.864   6.881   5.256 -0.1615 -0.6630  0.9224
10206WAT     H241545   3.914   6.767   5.199  0.4951  0.6846 -1.3081
10206WAT    EPW41546   3.854   6.811   5.223  0.2443 -0.1268 -0.3989
10207WAT      O41547   7.408   3.981   4.647 -0.1494 -0.4195  0.0164
10207WAT     H141548   7.378   4.007   4.725  2.1741 -2.0486  1.5625
10207WAT     H241549   7.448   4.052   4.616 -0.1833 -0.0478  0.7908
10207WAT    EPW41550   7.409   3.995   4.654  0.1888 -0.6052  0.3592
10208WAT      O41551   5.050   6.431   2.372  0.0962 -0.4458 -0.9470
10208WAT     H141552   5.135   6.446   2.380 -0.0485  0.6451 -1.2545
10208WAT     H241553   5.013   6.498   2.414 -0.6079 -0.8345 -0.9239
10208WAT    EPW41554   5.057   6.443   2.379 -0.0292 -0.3421 -0.9890
10209WAT      O41555   3.900   7.304   2.169 -0.4218 -0.2687  0.1746
10209WAT     H141556   3.831   7.282   2.218 -2.3629  0.5195 -2.0573
10209WAT     H241557   3.960   7.327   2.229 -1.7505 -1.7275  2.2308
10209WAT    EPW41558   3.899   7.304   2.185 -0.9048 -0.3678  0.1486
10210WAT      O41559   3.061   5.619   3.553  0.5014 -0.1509 -0.2659
10210WAT     H141560   3.127   5.642   3.604  0.6944  0.8130 -0.9280
10210WAT     H241561   3.058   5.532   3.561 -0.7894  0.0644  2.9703
10210WAT    EPW41562   3.070   5.609   3.562  0.3392  0.0233  0.1143
10211WAT      O41563   1.392   6.978   4.750  0.4400 -0.0399 -0.1953
10211WAT     H141564   1.332   7.031   4.715  1.0310  1.6156  1.1503
10211WAT     H241565   1.453   6.973   4.688 -0.5276 -0.7883 -1.1145
10211WAT    EPW41566   1.392   6.985   4.736  0.3844  0.0941 -0.1323
10212WAT      O41567   2.188   6.505   4.383 -0.3254  0.3370 -0.1106
10212WAT     H141568   2.212   6.480   4.463  3.2319  0.8666 -0.8295
10212WAT     H241569   2.140   6.576   4.398 -0.5866 -0.1533  1.5695
10212WAT    EPW41570   2.184   6.512   4.397  0.1615  0.3428  0.0314
10213WAT      O41571   1.700   7.562   6.481  0.1050  0.0949  0.1167
10213WAT     H141572   1.759   7.559   6.417  0.6669 -0.4913  0.6566
10213WAT     H241573   1.718   7.492   6.529 -1.9009 -0.8745 -0.4550
10213WAT    EPW41574   1.711   7.551   6.479 -0.1083 -0.1349  0.1120
10214WAT      O41575   2.231   1.817   6.556 -0.2008  0.6596  0.7066
10214WAT     H141576   2.258   1.776   6.484 -1.2550  0.8895  0.1624
10214WAT     H241577   2.305   1.846   6.592  0.2212  2.4193 -1.4095
10214WAT    EPW41578   2.246   1.815   6.551 -0.2942  0.9535  0.3136
10215WAT      O41579   1.936   7.014   3.531 -1.4651  0.4623  0.6937
10215WAT     H141580   1.975   6.950   3.486 -1.1087  0.2953  1.2405
10215WAT     H241581   1.875   7.043   3.475 -0.0171  1.3118 -0.5077
10215WAT    EPW41582   1.933   7.009   3.516 -1.1986  0.5631  0.5970
10216WAT      O41583   4.547   6.417   5.105  0.5759  0.7506 -0.7929
10216WAT     H141584   4.532   6.352   5.162  0.4605  1.7769  0.3962
10216WAT     H241585   4.548   6.377   5.028  0.1109 -0.6057 -0.1277
10216WAT    EPW41586   4.545   6.401   5.102  0.4902  0.7019 -0.5190
10217WAT      O41587   5.128   4.044   3.659  0.7116  0.6808 -0.1534
10217WAT     H141588   5.083   3.996   3.716  2.8114  0.4234  1.4099
10217WAT     H241589   5.066   4.088   3.616 -1.2819 -2.7440 -1.1479
10217WAT    EPW41590   5.112   4.044   3.661  0.7273  0.1369 -0.0694
10218WAT      O41591   5.405   7.570   5.293  0.4774 -0.0427  0.5453
10218WAT     H141592   5.456   7.624   5.338 -0.2366  1.6395 -0.5247
10218WAT     H241593   5.439   7.573   5.212  0.1181 -0.8058  0.3609
10218WAT    EPW41594   5.417   7.578   5.287  0.3188  0.0930  0.3600
10219WAT      O41595   5.414   2.053   0.025 -0.0481  0.6395  0.4190
10219WAT     H141596   5.348   2.074   0.078 -0.9565 -1.1918  0.0998
10219WAT     H241597   5.475   2.022   0.079 -1.3541 -2.1759  0.4325
10219WAT    EPW41598   5.413   2.052   0.041 -0.3752 -0.0469  0.3739
10220WAT      O41599   1.076   5.795   6.011  0.2267 -0.0734 -0.2278
10220WAT     H141600   1.150   5.748   6.016  0.1604 -0.1316  0.2988
10220WAT     H241601   1.051   5.803   6.094 -0.3204  0.0134 -0.3926
10220WAT    EPW41602   1.083   5.789   6.024  0.1361 -0.0692 -0.1744
10221WAT      O41603   4.660   6.653   5.165  0.0693 -0.7401 -0.1072
10221WAT     H141604   4.664   6.625   5.247 -1.9575  0.0814  0.3458
10221WAT     H241605   4.630   6.584   5.121 -2.8724 -0.0937  0.6399
10221WAT    EPW41606   4.656   6.639   5.171 -0.6646 -0.5232  0.0700
10222WAT      O41607   1.417   7.262   4.038 -0.1868  0.1635  0.3166
10222WAT     H141608   1.448   7.287   3.961  1.8932 -2.3267  0.2477
10222WAT     H241609   1.458   7.314   4.095  1.2246 -0.5241 -0.0445
10222WAT    EPW41610   1.427   7.274   4.035  0.3290 -0.3059  0.2531
10223WAT      O41611   5.763   5.400   3.007  0.0133 -0.7597 -0.5130
10223WAT     H141612   5.838   5.356   2.996 -0.2338 -1.4821  0.6033
10223WAT     H241613   5.745   5.390   3.091 -1.0690 -0.1297 -0.6524
10223WAT    EPW41614   5.771   5.392   3.018 -0.1831 -0.7734 -0.3687
10224WAT      O41615   4.595   2.520   6.860 -0.0088 -0.2546  0.0280
10224WAT     H141616   4.563   2.487   6.786  0.6926 -0.8939 -0.0074
10224WAT     H241617   4.650   2.458   6.887  0.2081  0.2480  0.7600
10224WAT    EPW41618   4.598   2.506   6.853  0.1268 -0.2748  0.1309
10225WAT      O41619   2.022   5.912   0.794 -0.3376 -0.0432 -0.5481
10225WAT     H141620   2.103   5.932   0.820 -1.3555  2.5945  1.0208
10225WAT     H241621   2.018   5.942   0.713 -0.2871  1.7117  0.0646
10225WAT    EPW41622   2.033   5.919   0.786 -0.4805  0.6057 -0.2258
10226WAT      O41623   2.980   3.246   2.353 -0.0429  0.2271  0.1179
10226WAT     H141624   2.905   3.266   2.312  0.0710  0.9528  0.2423
10226WAT     H241625   3.002   3.321   2.391  1.3326  0.3195 -0.8267
10226WAT    EPW41626   2.972   3.260   2.352  0.1771  0.3479 -0.0032
10227WAT      O41627   4.269   6.178   0.370  0.3448  0.0496  0.4238
10227WAT     H141628   4.280   6.149   0.289  1.4707  0.7798  0.2942
10227WAT     H241629   4.234   6.110   0.412 -1.0759 -0.0432 -0.8578
10227WAT    EPW41630   4.266   6.164   0.364  0.3012  0.1437  0.2153
10228WAT      O41631   1.085   5.119   4.301  0.0846 -0.6494 -0.4363
10228WAT     H141632   1.037   5.061   4.345 -0.6022  1.1297  1.2930
10228WAT     H241633   1.164   5.082   4.299 -0.2988 -1.6183  0.7449
10228WAT    EPW41634   1.090   5.105   4.308 -0.0735 -0.5297 -0.0064
10229WAT      O41635   1.801   1.707   1.565 -0.7005 -0.1399  0.4349
10229WAT     H141636   1.798   1.690   1.651 -0.9692  0.3861  0.5351
10229WAT     H241637   1.815   1.793   1.562 -0.7281 -0.1491 -0.0514
10229WAT    EPW41638   1.803   1.717   1.577 -0.7443 -0.0635  0.3779
10230WAT      O41639   2.875   2.891   3.764  0.0454  0.1013  0.8788
10230WAT     H141640   2.948   2.862   3.801 -0.0346  1.0074  1.7768
10230WAT     H241641   2.858   2.966   3.806 -1.2016  0.0906  0.4474
10230WAT    EPW41642   2.883   2.898   3.776 -0.1506  0.2336  0.9477
10231WAT      O41643   3.747   4.360   7.215  0.2480  0.1481 -0.2590
10231WAT     H141644   3.749   4.341   7.300  0.1907  0.5200 -0.1729
10231WAT     H241645   3.692   4.428   7.210 -0.5921 -0.5540 -0.7338
10231WAT    EPW41646   3.739   4.368   7.227  0.1155  0.0993 -0.3164
10232WAT      O41647   1.774   7.060   1.776  0.4226 -0.1637 -0.3090
10232WAT     H141648   1.732   7.133   1.752  1.4333  0.5415 -0.0055
10232WAT     H241649   1.840   7.090   1.825  0.7994 -1.2986 -0.0985
10232WAT    EPW41650   1.777   7.075   1.780  0.6276 -0.2272 -0.2331
10233WAT      O41651   1.813   6.992   0.845 -0.2646 -0.0520 -0.1209
10233WAT     H141652   1.882   7.023   0.889 -0.8958  0.5385  0.4824
10233WAT     H241653   1.817   6.906   0.859  0.7050 -0.0994 -0.6223
10233WAT    EPW41654   1.823   6.984   0.854 -0.2146  0.0282 -0.1058
10234WAT      O41655   5.068   5.739   3.228  0.5281  0.3386  0.1365
10234WAT     H141656   5.121   5.694   3.175  1.1818 -0.8803  1.7212
10234WAT     H241657   5.000   5.758   3.178  0.9250 -1.1308 -1.0377
10234WAT    EPW41658   5.066   5.735   3.213  0.6833 -0.0585  0.1972
10235WAT      O41659   2.513   3.550   4.299 -0.1501  0.3028 -0.1389
10235WAT     H141660   2.567   3.557   4.367  1.7960 -1.6675 -1.3403
10235WAT     H241661   2.539   3.614   4.246 -0.0548  0.3500 -0.0361
10235WAT    EPW41662   2.525   3.560   4.301  0.1514  0.0187 -0.3012
10236WAT      O41663   1.604   4.546   5.795 -0.0250 -0.2165  0.1159
10236WAT     H141664   1.677   4.528   5.838  0.4880  0.3144 -0.5109
10236WAT     H241665   1.604   4.633   5.789 -2.0248  0.0433  2.3653
10236WAT    EPW41666   1.614   4.556   5.800 -0.2447 -0.0997  0.3556
10237WAT      O41667   5.549   4.321   6.887  0.6856 -0.1628  0.8265
10237WAT     H141668   5.621   4.278   6.911 -1.0324 -2.5266  2.1323
10237WAT     H241669   5.523   4.360   6.961 -0.0590 -0.3783  0.6798
10237WAT    EPW41670   5.556   4.321   6.901  0.3218 -0.5438  0.9977
10238WAT      O41671   2.875   5.839   3.628 -0.2553 -0.7679  0.5225
10238WAT     H141672   2.909   5.774   3.580 -2.2302  0.1388 -2.4001
10238WAT     H241673   2.797   5.810   3.651 -0.6985  0.0957  0.1797
10238WAT    EPW41674   2.869   5.825   3.624 -0.6125 -0.5064  0.0401
10239WAT      O41675   2.492   4.186   2.819 -0.0392 -0.0980  0.3991
10239WAT     H141676   2.515   4.182   2.903  0.1686  0.5053  0.3729
10239WAT     H241677   2.499   4.104   2.792  0.2464 -0.2333  0.8792
10239WAT    EPW41678   2.496   4.173   2.827  0.0336 -0.0289  0.4662
10240WAT      O41679   5.846   2.536   4.285 -0.4589 -0.3715  0.0330
10240WAT     H141680   5.924   2.539   4.324 -1.8107  0.8065  2.9608
10240WAT     H241681   5.816   2.617   4.292 -0.9208 -0.0304 -3.6706
10240WAT    EPW41682   5.853   2.548   4.292 -0.7268 -0.1471 -0.0816
10241WAT      O41683   0.082   4.110   6.736 -0.5156  0.1530  0.1075
10241WAT     H141684   0.091   4.090   6.821  0.6364 -1.1389 -0.3031
10241WAT     H241685  -0.002   4.132   6.730 -0.7484 -0.2451  1.4736
10241WAT    EPW41686   0.071   4.110   6.748 -0.3798 -0.0966  0.2487
10242WAT      O41687   0.579   2.392   5.015  0.1542  0.6332 -0.1987
10242WAT     H141688   0.661   2.362   5.025  0.1078  0.4688 -0.3206
10242WAT     H241689   0.549   2.349   4.946 -1.0493 -1.5463  1.5703
10242WAT    EPW41690   0.587   2.381   5.007 -0.0304  0.2869  0.0446
10243WAT      O41691   0.397   7.344   3.877 -0.1852 -0.2545 -0.1021
10243WAT     H141692   0.365   7.275   3.834  0.3512 -1.0319  0.7128
10243WAT     H241693   0.335   7.362   3.935  0.3671 -1.1122  0.7869
10243WAT    EPW41694   0.383   7.336   3.879 -0.0244 -0.4960  0.1496
10244WAT      O41695   3.013   7.091   3.643  0.4394  0.5480 -0.6975
10244WAT     H141696   2.980   7.171   3.646 -0.9795 -0.0290  0.9579
10244WAT     H241697   2.962   7.049   3.586 -0.7258  0.1057  0.6051
10244WAT    EPW41698   3.001   7.096   3.635  0.0577  0.3974 -0.2605
10245WAT      O41699   4.088   2.140   0.807 -0.0367 -0.0608  0.0188
10245WAT     H141700   4.173   2.145   0.822 -0.2126 -0.0855  1.1149
10245WAT     H241701   4.080   2.074   0.751  1.0703  2.7621 -3.9303
10245WAT    EPW41702   4.099   2.131   0.801  0.1008  0.3526 -0.4027
10246WAT      O41703   2.621   7.264   2.103  0.4870 -0.3258  0.0957
10246WAT     H141704   2.630   7.258   2.017 -0.4860  0.3810 -0.0728
10246WAT     H241705   2.536   7.248   2.117  0.8447 -1.5514  1.0466
10246WAT    EPW41706   2.610   7.261   2.092  0.3961 -0.4024  0.2113
10247WAT      O41707   2.985   5.478   3.102  0.3178 -0.6665 -0.1816
10247WAT     H141708   2.959   5.433   3.172  1.0284  2.2324  2.1738
10247WAT     H241709   3.070   5.459   3.097  0.2230 -1.0352 -0.3671
10247WAT    EPW41710   2.994   5.469   3.112  0.4088 -0.2928  0.1389
10248WAT      O41711   3.691   4.262   2.355  0.6198  0.0481 -0.7428
10248WAT     H141712   3.625   4.258   2.299  0.2357 -1.0703 -0.2411
10248WAT     H241713   3.717   4.345   2.351 -0.0723  0.2258 -1.7886
10248WAT    EPW41714   3.685   4.273   2.346  0.4608 -0.0908 -0.8232
10249WAT      O41715   7.714   3.727   5.154 -0.1133  0.2456 -0.4338
10249WAT     H141716   7.800   3.728   5.169 -0.1899  2.4090  0.1926
10249WAT     H241717   7.679   3.755   5.229 -1.2118  1.1587 -1.2395
10249WAT    EPW41718   7.721   3.731   5.167 -0.2869  0.7001 -0.4603
10250WAT      O41719   1.363   0.343   7.465 -0.3472 -0.2801  0.3238
10250WAT     H141720   1.443   0.369   7.443 -1.2491  0.4430 -2.3838
10250WAT     H241721   1.339   0.290   7.400 -1.0445 -2.9058  2.5202
10250WAT    EPW41722   1.371   0.339   7.452 -0.5835 -0.5612  0.2483
10251WAT      O41723   3.579   4.857   0.946 -0.1133 -0.3694  0.0927
10251WAT     H141724   3.591   4.777   0.978  1.0048 -0.4123 -0.4153
10251WAT     H241725   3.555   4.843   0.863  1.0367 -0.1816 -0.2928
10251WAT    EPW41726   3.577   4.843   0.938  0.2217 -0.3480 -0.0393
10252WAT      O41727   3.062   4.328   5.390  0.0382  1.0539  0.0554
10252WAT     H141728   3.138   4.338   5.348  0.5382 -2.0354  0.0198
10252WAT     H241729   3.003   4.338   5.327  0.5571  0.7563 -0.4904
10252WAT    EPW41730   3.065   4.331   5.374  0.1887  0.5536 -0.0305
10253WAT      O41731   4.891   4.110   2.430 -0.5353 -0.6845  0.7709
10253WAT     H141732   4.902   4.125   2.515  0.9533 -1.8197  0.8280
10253WAT     H241733   4.891   4.023   2.425  0.4928 -0.6401 -0.4972
10253WAT    EPW41734   4.893   4.099   2.441 -0.1635 -0.8456  0.5920
10254WAT      O41735   3.137   5.187   0.006  0.0432 -0.7280 -0.1228
10254WAT     H141736   3.221   5.179  -0.017  0.0697 -3.0728  0.4649
10254WAT     H241737   3.107   5.105   0.002 -2.4671  0.1253 -1.1265
10254WAT    EPW41738   3.145   5.173   0.002 -0.3237 -0.9484 -0.1842
10255WAT      O41739   4.284   4.970   7.677 -0.1882 -0.7762 -0.3868
10255WAT     H141740   4.322   5.026   7.621 -0.0505 -1.0804 -0.6007
10255WAT     H241741   4.200   4.993   7.675 -0.0576 -0.2607 -0.1008
10255WAT    EPW41742   4.277   4.982   7.668 -0.1486 -0.7450 -0.3761
10256WAT      O41743   2.352   2.116   3.279  0.5582 -0.4964  0.4716
10256WAT     H141744   2.328   2.147   3.201  0.8938  0.4369  0.7292
10256WAT     H241745   2.385   2.186   3.320 -0.1407 -0.8425  1.6643
10256WAT    EPW41746   2.353   2.131   3.273  0.5045 -0.4096  0.6858
10257WAT      O41747   1.829   3.482   3.935  0.0513  0.6040  0.2525
10257WAT     H141748   1.850   3.440   4.009  0.5762 -0.2314 -0.3495
10257WAT     H241749   1.750   3.513   3.951 -0.3842 -0.6606  0.7266
10257WAT    EPW41750   1.820   3.480   3.948  0.0645  0.2938  0.2336
10258WAT      O41751   2.306   5.827   7.107 -0.1175 -0.1170  0.0981
10258WAT     H141752   2.220   5.844   7.099  0.2461  2.5005  0.9487
10258WAT     H241753   2.343   5.883   7.052  1.0946 -1.5249 -0.5940
10258WAT    EPW41754   2.299   5.838   7.097  0.1152  0.0617  0.1215
10259WAT      O41755   1.450   4.697   6.609  0.3570 -0.1080  0.3647
10259WAT     H141756   1.374   4.658   6.592  0.1784  1.0993 -1.8925
10259WAT     H241757   1.507   4.631   6.610 -0.3043 -0.7226 -0.7842
10259WAT    EPW41758   1.447   4.682   6.607  0.2329 -0.0205 -0.1385
10260WAT      O41759   1.956   4.565   7.706  0.5799  0.2317 -0.0327
10260WAT     H141760   1.940   4.545   7.790  0.6288  2.2674  0.5300
10260WAT     H241761   2.038   4.536   7.693 -0.4988 -3.0018 -0.4456
10260WAT    EPW41762   1.966   4.558   7.717  0.4278  0.0548 -0.0105
10261WAT      O41763   3.201   4.697   2.669  0.2392  0.0155  0.0085
10261WAT     H141764   3.285   4.703   2.648  0.5653  0.3437  1.3351
10261WAT     H241765   3.194   4.617   2.704  0.0372  0.0591  0.0685
10261WAT    EPW41766   3.212   4.686   2.671  0.2575  0.0704  0.2133
10262WAT      O41767   0.826   6.073   4.290  0.2317 -0.2167  0.2416
10262WAT     H141768   0.819   5.988   4.304 -0.4394 -0.0477  1.0055
10262WAT     H241769   0.834   6.079   4.203 -0.3310 -1.0149  0.1305
10262WAT    EPW41770   0.826   6.062   4.279  0.0494 -0.3097  0.3380
10263WAT      O41771   2.541   5.745   1.482 -0.1288 -0.0687  0.0751
10263WAT     H141772   2.578   5.737   1.561 -0.1977 -1.7824 -0.0274
10263WAT     H241773   2.456   5.732   1.497 -0.2221  0.2366 -0.1867
10263WAT    EPW41774   2.534   5.742   1.496 -0.1528 -0.2767  0.0213
10264WAT      O41775   2.821   2.840   2.234  0.1519 -0.0980 -0.7487
10264WAT     H141776   2.830   2.901   2.296  1.6667 -1.0795  0.0673
10264WAT     H241777   2.847   2.767   2.274 -1.5267 -1.3015 -1.7148
10264WAT    EPW41778   2.826   2.838   2.249  0.1277 -0.4207 -0.7709
10265WAT      O41779   1.535   7.084   0.365  0.0777 -0.2309  0.2038
10265WAT     H141780   1.599   7.144   0.371 -0.3220  0.2890 -0.5944
10265WAT     H241781   1.563   7.020   0.417  0.3826  0.7618  1.3131
10265WAT    EPW41782   1.549   7.083   0.374  0.0637 -0.0075  0.2497
10266WAT      O41783   3.862   4.746   2.713 -0.2146 -0.0371 -0.0836
10266WAT     H141784   3.838   4.663   2.728 -0.7104  0.1084 -0.0604
10266WAT     H241785   3.914   4.764   2.781 -1.2690  0.1375  0.7002
10266WAT    EPW41786   3.866   4.736   2.725 -0.4436  0.0102  0.0356
10267WAT      O41787   0.266   5.107   6.945 -0.4570  0.0408 -0.1669
10267WAT     H141788   0.201   5.161   6.969  0.5695  0.6786  1.2893
10267WAT     H241789   0.338   5.148   6.972  0.3989 -1.8177  0.5219
10267WAT    EPW41790   0.267   5.121   6.953 -0.1789 -0.1395  0.1500
10268WAT      O41791   0.335   5.228   6.411  0.3610  0.2039 -0.0364
10268WAT     H141792   0.309   5.204   6.491 -0.1957  2.1040  0.4090
10268WAT     H241793   0.260   5.239   6.368  0.4518  2.4350  0.2392
10268WAT    EPW41794   0.320   5.226   6.417  0.2922  0.8142  0.0701
10269WAT      O41795   2.664   4.735   0.571 -0.7779  0.1501 -0.4638
10269WAT     H141796   2.632   4.669   0.618 -0.8151  0.7267  0.3455
10269WAT     H241797   2.712   4.780   0.628 -0.3008  0.5122 -1.1368
10269WAT    EPW41798   2.666   4.732   0.586 -0.7129  0.2888 -0.4437
10270WAT      O41799   4.826   2.909   1.293  0.3907  0.0697  0.0115
10270WAT     H141800   4.746   2.925   1.262 -0.2293 -0.5440  1.2342
10270WAT     H241801   4.829   2.822   1.300  0.5334  0.1636  1.4957
10270WAT    EPW41802   4.815   2.899   1.290  0.3202 -0.0071  0.4114
10271WAT      O41803   1.565   6.263   2.229  0.0941  0.0690  0.1400
10271WAT     H141804   1.540   6.282   2.310  1.1536  0.5835  0.3685
10271WAT     H241805   1.648   6.237   2.238 -0.5636 -2.5085 -0.4580
10271WAT    EPW41806   1.574   6.262   2.242  0.1534 -0.2358  0.0854
10272WAT      O41807   1.840   0.716   3.014 -0.3196 -0.2899  0.2999
10272WAT     H141808   1.796   0.696   2.941  0.7294  0.4807 -0.5542
10272WAT     H241809   1.906   0.659   3.015 -0.1064 -0.0433  0.4369
10272WAT    EPW41810   1.843   0.705   3.004 -0.1332 -0.1396  0.1940
10273WAT      O41811   4.115   6.854   7.299  0.2772 -0.1413  0.1442
10273WAT     H141812   4.165   6.865   7.370 -0.2651  0.2598  0.4760
10273WAT     H241813   4.034   6.870   7.329 -0.1466 -1.5073 -0.2054
10273WAT    EPW41814   4.110   6.858   7.314  0.1345 -0.2838  0.1416
10274WAT      O41815   6.186   5.553   1.305  0.0777  0.4040  0.6302
10274WAT     H141816   6.122   5.494   1.310  0.4423  0.0245  0.9342
10274WAT     H241817   6.183   5.594   1.381 -1.2797  1.9711 -0.2162
10274WAT    EPW41818   6.176   5.550   1.317 -0.0689  0.5794  0.5501
10275WAT      O41819   0.611   1.140   5.760  0.1513 -0.1402  0.1983
10275WAT     H141820   0.538   1.126   5.806 -0.5306 -3.0620 -1.4896
10275WAT     H241821   0.675   1.131   5.820 -0.7691  1.7668  1.5669
10275WAT    EPW41822   0.610   1.137   5.776 -0.0854 -0.2901  0.1512
10276WAT      O41823   1.925   4.610   2.231 -0.0302  0.0242  0.1744
10276WAT     H141824   1.906   4.582   2.311 -2.4262  1.1883  0.1037
10276WAT     H241825   1.950   4.692   2.243 -0.7698  0.3247 -0.2934
10276WAT    EPW41826   1.926   4.618   2.244 -0.4934  0.2405  0.0948
10277WAT      O41827   2.194   4.348   1.244  0.7108  0.2360  0.4110
10277WAT     H141828   2.273   4.378   1.223  0.5805  0.1116 -0.2709
10277WAT     H241829   2.203   4.262   1.240  0.2619  0.2338 -0.7381
10277WAT    EPW41830   2.207   4.340   1.240  0.6252  0.2173  0.1405
10278WAT      O41831   2.413   4.829   2.644 -0.1059 -0.3085  0.1268
10278WAT     H141832   2.351   4.802   2.699  0.5589 -3.0586 -0.3441
10278WAT     H241833   2.479   4.851   2.698 -0.0900 -1.2468  0.5016
10278WAT    EPW41834   2.414   4.828   2.660 -0.0053 -0.8534  0.1126
10279WAT      O41835   3.846   4.100   0.095 -0.1136 -0.3305 -0.1919
10279WAT     H141836   3.932   4.102   0.106  0.1155  1.3507 -1.6737
10279WAT     H241837   3.814   4.101   0.176  1.2927  1.0568  0.3956
10279WAT    EPW41838   3.854   4.101   0.108  0.1280  0.1228 -0.3240
10280WAT      O41839   3.020   6.143   1.628 -0.0604 -0.0486 -0.2763
10280WAT     H141840   2.966   6.151   1.696 -2.1808  3.5907 -2.1078
10280WAT     H241841   3.098   6.131   1.666 -1.5050 -1.2321  2.6181
10280WAT    EPW41842   3.024   6.142   1.644 -0.5870  0.3142 -0.1193
10281WAT      O41843   0.820   1.851   6.849  0.1611  0.6338 -0.1124
10281WAT     H141844   0.868   1.902   6.797 -0.1233 -0.5717 -1.6226
10281WAT     H241845   0.742   1.889   6.850 -0.2816 -0.1297 -1.8855
10281WAT    EPW41846   0.816   1.864   6.842  0.0537  0.3429 -0.5974
10282WAT      O41847   1.966   3.299   3.473 -0.0564  0.4788 -0.3280
10282WAT     H141848   2.052   3.291   3.487  0.1502 -1.3944 -2.1427
10282WAT     H241849   1.961   3.348   3.401 -0.4093 -0.3808 -0.9087
10282WAT    EPW41850   1.978   3.305   3.465 -0.0780  0.0751 -0.6819
10283WAT      O41851   3.731   5.603   4.475  0.1052  0.4411 -0.1336
10283WAT     H141852   3.743   5.572   4.395 -0.9399 -0.1081 -0.1000
10283WAT     H241853   3.807   5.640   4.495  0.3494  0.6883 -1.4206
10283WAT    EPW41854   3.744   5.604   4.466 -0.0131  0.3965 -0.3188
10284WAT      O41855   2.273   4.395   3.124  0.2975  0.0494 -0.1904
10284WAT     H141856   2.274   4.307   3.126  0.8944  0.0595  1.8281
10284WAT     H241857   2.192   4.416   3.149  0.3550  0.0830 -0.0343
10284WAT    EPW41858   2.261   4.385   3.128  0.3942  0.0558  0.1309
10285WAT      O41859   0.644   0.451   5.153  0.2641 -0.2137  0.0220
10285WAT     H141860   0.675   0.409   5.223  0.0401  0.5954  0.6130
10285WAT     H241861   0.626   0.531   5.183  1.6208  0.6416 -1.3066
10285WAT    EPW41862   0.646   0.456   5.168  0.4314  0.0322 -0.0869
10286WAT      O41863   1.040   3.902   4.874  0.0048  0.0553 -0.4545
10286WAT     H141864   1.073   3.977   4.905 -2.8485  1.7777 -1.1767
10286WAT     H241865   0.962   3.896   4.914  0.0816 -2.4903 -0.5511
10286WAT    EPW41866   1.033   3.912   4.885 -0.4054 -0.0663 -0.5755
10287WAT      O41867   2.565   2.809   4.021  0.5127 -0.3231 -0.0083
10287WAT     H141868   2.647   2.805   4.051 -0.0021 -0.5162  1.4011
10287WAT     H241869   2.566   2.880   3.969  1.9985 -1.3096 -1.4352
10287WAT    EPW41870   2.577   2.819   4.018  0.6561 -0.4973 -0.0109
10288WAT      O41871   6.172   7.092   0.053 -0.1717 -0.0080  0.5203
10288WAT     H141872   6.100   7.055   0.086 -0.1078  0.5360  1.3034
10288WAT     H241873   6.141   7.148  -0.006 -0.2178 -2.0928 -1.5383
10288WAT    EPW41874   6.157   7.095   0.049 -0.1690 -0.2356  0.3319
10289WAT      O41875   3.086   5.283   2.166 -0.3462  0.2497 -0.4433
10289WAT     H141876   3.061   5.351   2.118 -0.8438 -1.0815 -2.1471
10289WAT     H241877   3.103   5.318   2.244 -0.9383  2.2514 -1.1676
10289WAT    EPW41878   3.085   5.298   2.171 -0.5072  0.3488 -0.8020
10290WAT      O41879   5.421   3.343   3.122  0.2877  0.3311 -0.3071
10290WAT     H141880   5.485   3.356   3.064  1.0967  1.1373  0.7014
10290WAT     H241881   5.418   3.257   3.130  0.3416  0.2227 -1.3360
10290WAT    EPW41882   5.430   3.332   3.115  0.4152  0.4342 -0.3101
10291WAT      O41883   1.635   5.380   3.949 -0.3257 -0.0603 -0.0372
10291WAT     H141884   1.657   5.431   3.882  2.2974  0.8978  1.4127
10291WAT     H241885   1.650   5.299   3.920 -0.0510  0.2878 -0.8690
10291WAT    EPW41886   1.641   5.375   3.935  0.1024  0.1326  0.0541
10292WAT      O41887   0.205   3.466   4.438 -0.0364 -0.1373 -0.4094
10292WAT     H141888   0.291   3.466   4.453 -0.3807  1.1134  1.9280
10292WAT     H241889   0.196   3.526   4.375  0.8863 -1.3525 -1.7813
10292WAT    EPW41890   0.216   3.475   4.431  0.0490 -0.1321 -0.2668
10293WAT      O41891   5.862   1.704   1.636 -0.1499  0.6118 -0.1961
10293WAT     H141892   5.797   1.757   1.662 -1.1727  0.3492 -2.0612
10293WAT     H241893   5.922   1.759   1.604 -0.6695  0.7476 -0.9756
10293WAT    EPW41894   5.861   1.720   1.635 -0.3778  0.5931 -0.5867
10294WAT      O41895   2.678   6.054   6.428  0.1874  0.4973  0.1072
10294WAT     H141896   2.724   6.022   6.495 -0.4161 -1.4239 -0.3210
10294WAT     H241897   2.699   6.139   6.427  2.7675 -0.0534  0.6637
10294WAT    EPW41898   2.688   6.062   6.438  0.4794  0.1321  0.1261
10295WAT      O41899   3.438   6.170   6.254 -0.5190  0.7710 -0.3137
10295WAT     H141900   3.415   6.096   6.214 -0.0053 -0.8910  2.2176
10295WAT     H241901   3.368   6.189   6.302 -0.0541  0.9753  0.2932
10295WAT    EPW41902   3.424   6.162   6.255 -0.3744  0.5556  0.1499
10296WAT      O41903   5.769   6.311   3.234 -0.0030 -0.0754  0.0526
10296WAT     H141904   5.699   6.271   3.266  0.2874 -0.3618  0.3319
10296WAT     H241905   5.747   6.328   3.151 -0.3597 -0.2536  0.1098
10296WAT    EPW41906   5.756   6.308   3.227 -0.0128 -0.1440  0.1023
10297WAT      O41907   5.814   3.008   5.428  0.0204 -0.2727  0.2613
10297WAT     H141908   5.854   2.981   5.356  0.5125 -0.6003  0.6528
10297WAT     H241909   5.879   3.028   5.482 -0.3090 -1.6250  1.2083
10297WAT    EPW41910   5.829   3.007   5.425  0.0445 -0.5209  0.4590
10298WAT      O41911   3.708   5.872   6.004  0.1934  0.0723 -0.4454
10298WAT     H141912   3.681   5.800   5.964 -0.4655  1.3887 -2.5021
10298WAT     H241913   3.722   5.928   5.939 -0.6118  2.2383  1.1264
10298WAT    EPW41914   3.706   5.870   5.989 -0.0229  0.5867 -0.5170
10299WAT      O41915   5.868   4.460   7.739 -0.2613 -0.1607 -0.4135
10299WAT     H141916   5.954   4.475   7.747 -0.0249 -2.1312  3.9843
10299WAT     H241917   5.831   4.530   7.776 -0.4341 -0.2635 -0.3905
10299WAT    EPW41918   5.875   4.473   7.746 -0.2519 -0.4670  0.2395
10300WAT      O41919   4.394   6.149   2.399 -0.5386 -0.1102 -0.0200
10300WAT     H141920   4.419   6.090   2.340 -0.3683 -1.5902  1.4558
10300WAT     H241921   4.470   6.178   2.432 -0.6476 -0.2918  0.3987
10300WAT    EPW41922   4.409   6.144   2.395 -0.5296 -0.3557  0.2598
10301WAT      O41923   4.065   4.691   3.259  0.2465  1.0504 -0.7607
10301WAT     H141924   4.127   4.648   3.215  0.6493  0.9997 -0.1569
10301WAT     H241925   4.093   4.774   3.256 -0.5757  1.3135 -2.0035
10301WAT    EPW41926   4.078   4.697   3.252  0.1846  1.0818 -0.8551
10302WAT      O41927   3.536   6.060   2.175 -0.9678  0.1662  0.3295
10302WAT     H141928   3.485   6.032   2.239 -2.2646  0.5216 -0.5129
10302WAT     H241929   3.559   6.141   2.200  0.3324 -0.4802  1.3449
10302WAT    EPW41930   3.532   6.068   2.188 -0.9673  0.1232  0.3550
10303WAT      O41931   1.271   7.317   5.884  0.1198 -0.2041 -0.2518
10303WAT     H141932   1.274   7.230   5.888  4.1740 -0.3486 -1.7618
10303WAT     H241933   1.279   7.342   5.967 -0.0958 -1.3066  0.1080
10303WAT    EPW41934   1.273   7.308   5.897  0.6868 -0.3883 -0.4217
10304WAT      O41935   2.275   2.517   1.280 -0.5957 -0.0413  0.3021
10304WAT     H141936   2.204   2.468   1.263 -0.3480 -0.0129 -0.9280
10304WAT     H241937   2.258   2.591   1.238  0.2623 -0.1250 -0.2030
10304WAT    EPW41938   2.262   2.521   1.271 -0.4323 -0.0494  0.0458
10305WAT      O41939   4.028   7.205   4.195 -0.2383 -0.2690  0.8017
10305WAT     H141940   4.014   7.217   4.110  1.0480 -1.1599  0.4320
10305WAT     H241941   4.082   7.136   4.197  1.1604  0.7933  2.2415
10305WAT    EPW41942   4.034   7.196   4.183  0.1583 -0.2437  0.9597
10306WAT      O41943   2.789   4.807   4.351 -0.6524  0.4131 -0.0376
10306WAT     H141944   2.811   4.886   4.321 -0.0469  1.1341  2.1234
10306WAT     H241945   2.848   4.755   4.314 -0.9925  0.9682 -1.4174
10306WAT    EPW41946   2.801   4.811   4.341 -0.6132  0.6017  0.0778
10307WAT      O41947   1.484   4.179   0.467  0.0784  0.0599 -0.2998
10307WAT     H141948   1.569   4.182   0.486 -0.2671  2.4079  1.2272
10307WAT     H241949   1.467   4.257   0.432 -1.5936 -0.0412  0.1809
10307WAT    EPW41950   1.494   4.191   0.465 -0.2196  0.3918 -0.0032
10308WAT      O41951   5.418   0.525   4.462  0.1675 -0.5180 -0.3930
10308WAT     H141952   5.386   0.523   4.381  1.8972  0.6845 -1.1824
10308WAT     H241953   5.352   0.497   4.511 -2.0644  1.6535 -1.8854
10308WAT    EPW41954   5.403   0.521   4.457  0.0933 -0.0196 -0.7301
10309WAT      O41955   3.028   3.268   5.255 -0.0553  0.1033  1.0373
10309WAT     H141956   3.107   3.297   5.277 -0.4685  0.8869  1.5063
10309WAT     H241957   3.039   3.241   5.172  0.5760  0.6862  0.9220
10309WAT    EPW41958   3.041   3.268   5.246 -0.0231  0.3051  1.0896
10310WAT      O41959   4.385   1.506   4.635  0.2550  0.2248 -0.3413
10310WAT     H141960   4.336   1.462   4.692  0.3523  0.0472 -0.3939
10310WAT     H241961   4.437   1.445   4.602  1.4479  0.6557  0.6836
10310WAT    EPW41962   4.385   1.490   4.638  0.4456  0.2622 -0.1977
10311WAT      O41963   1.671   4.985   2.314 -0.1894 -0.3709  0.1400
10311WAT     H141964   1.654   5.049   2.258 -0.5791  0.1937  0.8778
10311WAT     H241965   1.718   5.025   2.376 -0.0311 -0.9057  0.3711
10311WAT    EPW41966   1.676   5.001   2.315 -0.2236 -0.3665  0.2831
10312WAT      O41967   1.840   3.923   2.915  0.3115 -0.2197  0.3218
10312WAT     H141968   1.904   3.894   2.966 -0.0967 -0.6358  0.6029
10312WAT     H241969   1.767   3.900   2.958 -0.0713  2.3907  1.2763
10312WAT    EPW41970   1.838   3.916   2.929  0.1947  0.1044  0.5043
10313WAT      O41971   2.269   2.787   4.408  0.3216 -0.0004 -0.1465
10313WAT     H141972   2.308   2.808   4.333 -0.9742  2.0002 -0.3292
10313WAT     H241973   2.334   2.757   4.457  1.1159 -1.9902 -2.2228
10313WAT    EPW41974   2.285   2.785   4.404  0.2475  0.0012 -0.4802
10314WAT      O41975   0.072   5.741   5.238 -0.7353  0.1589 -0.6871
10314WAT     H141976   0.089   5.655   5.242  1.6602  0.5927  0.4348
10314WAT     H241977   0.120   5.769   5.171  0.2466  0.9060  0.2845
10314WAT    EPW41978   0.081   5.732   5.229 -0.2364  0.3333 -0.3778
10315WAT      O41979   2.188   3.371   7.020 -0.3768 -0.0155 -0.2302
10315WAT     H141980   2.128   3.419   6.979 -1.1729 -0.2320  0.6622
10315WAT     H241981   2.208   3.418   7.090  0.0173 -0.2598 -0.1721
10315WAT    EPW41982   2.182   3.385   7.024 -0.4362 -0.0836 -0.0898
10316WAT      O41983   4.727   4.053   3.755  0.0143 -0.0083  0.4092
10316WAT     H141984   4.802   4.069   3.797  0.1677  2.0330 -0.5108
10316WAT     H241985   4.752   4.003   3.688  0.5213  0.3430  0.3241
10316WAT    EPW41986   4.742   4.048   3.751  0.1118  0.3451  0.2607
10317WAT      O41987   3.790   5.263   7.655 -0.2289 -0.3272  0.3145
10317WAT     H141988   3.757   5.255   7.575  1.3908 -0.1883 -0.4027
10317WAT     H241989   3.801   5.181   7.681 -1.6592 -0.3910  0.8278
10317WAT    EPW41990   3.786   5.250   7.647 -0.2009 -0.3161  0.2844
10318WAT      O41991   4.857   0.549   2.110 -0.0769  0.1134  0.6312
10318WAT     H141992   4.882   0.475   2.070 -0.9036 -0.1838  0.6314
10318WAT     H241993   4.789   0.576   2.062  0.8482  1.4657  0.0054
10318WAT    EPW41994   4.851   0.542   2.097 -0.0623  0.2692  0.5388
10319WAT      O41995   3.800   0.609   3.254  0.4096 -0.3142 -0.1592
10319WAT     H141996   3.784   0.541   3.306 -1.5407  0.6866  0.6563
10319WAT     H241997   3.859   0.655   3.298 -0.4244 -0.0358  0.7079
10319WAT    EPW41998   3.806   0.606   3.268 -0.0017 -0.1252  0.0893
10320WAT      O41999   1.465   6.954   1.979 -0.1383  0.2787 -0.2804
10320WAT     H142000   1.414   6.907   2.031  1.8915  0.5030  2.0914
10320WAT     H242001   1.495   6.895   1.922  0.0246 -0.6802  0.7678
10320WAT    EPW42002   1.462   6.939   1.978  0.1856  0.1702  0.2248
10321WAT      O42003   3.598   0.729   7.786  0.4079  0.5461  0.9428
10321WAT     H142004   3.665   0.700   7.834  2.5736  0.0475 -2.1147
10321WAT     H242005   3.636   0.766   7.717 -2.4692  0.6083 -0.7686
10321WAT    EPW42006   3.613   0.730   7.783  0.3028  0.4816  0.2384
10322WAT      O42007   2.127   6.179   3.562  0.2167 -0.2061  0.1444
10322WAT     H142008   2.093   6.196   3.641  0.9478 -2.7562  1.0833
10322WAT     H242009   2.208   6.210   3.568  0.5270 -1.0786  0.7231
10322WAT    EPW42010   2.134   6.186   3.574  0.3706 -0.7117  0.3686
10323WAT      O42011   1.598   7.150   0.846 -0.5671  0.0373 -0.4778
10323WAT     H142012   1.543   7.084   0.832  0.3609 -1.4054  1.9731
10323WAT     H242013   1.676   7.111   0.852  0.1131  1.4304  0.3359
10323WAT    EPW42014   1.601   7.135   0.845 -0.3295  0.0300  0.0044
10324WAT      O42015   5.096   5.176   6.523  0.3317  0.2351 -0.0332
10324WAT     H142016   5.047   5.246   6.543 -0.6958 -1.1323  2.7451
10324WAT     H242017   5.037   5.112   6.514  1.3164 -0.4850 -1.6891
10324WAT    EPW42018   5.080   5.177   6.525  0.3254 -0.0733  0.1326
10325WAT      O42019   1.490   3.758   7.155 -0.5388 -0.2339  0.0809
10325WAT     H142020   1.426   3.729   7.104 -1.5447  0.4807  0.9071
10325WAT     H242021   1.525   3.824   7.110  1.0424 -1.9051 -1.3122
10325WAT    EPW42022   1.486   3.763   7.141 -0.4538 -0.3752 -0.0029
10326WAT      O42023   3.501   7.361   4.000 -0.0060  0.0912 -0.2479
10326WAT     H142024   3.414   7.348   3.997  0.2015 -1.8124  0.5480
10326WAT     H242025   3.517   7.412   3.932 -1.9643  1.8153  0.4846
10326WAT    EPW42026   3.490   7.367   3.990 -0.2646  0.0647 -0.0221
10327WAT      O42027   6.575   2.630   4.022  0.3540 -0.3092 -0.1340
10327WAT     H142028   6.606   2.587   3.953 -0.5088  0.5501 -1.0923
10327WAT     H242029   6.604   2.584   4.090  1.6873 -0.8673 -1.0468
10327WAT    EPW42030   6.584   2.617   4.022  0.4235 -0.2647 -0.4104
10328WAT      O42031   2.748   4.268   1.289  0.0764  0.1869  0.3150
10328WAT     H142032   2.694   4.207   1.256 -1.9570  1.0687  1.8160
10328WAT     H242033   2.777   4.309   1.218 -0.2712 -1.0931 -0.6126
10328WAT    EPW42034   2.744   4.265   1.274 -0.2753  0.1280  0.3997
10329WAT      O42035   1.611   3.773   4.107  0.1603  0.1102 -0.1298
10329WAT     H142036   1.692   3.763   4.078 -0.5713 -0.9066 -1.9785
10329WAT     H242037   1.569   3.703   4.077 -1.5613  0.9125  0.2473
10329WAT    EPW42038   1.617   3.761   4.098 -0.2021  0.0785 -0.3472
10330WAT      O42039   2.666   5.426   5.143 -0.3535  0.2765  0.2078
10330WAT     H142040   2.663   5.411   5.229  1.8225 -1.6862  0.0389
10330WAT     H242041   2.602   5.484   5.130  0.2828  1.8871  3.3501
10330WAT    EPW42042   2.656   5.432   5.154  0.0620  0.2245  0.6470
10331WAT      O42043   2.789   5.602   4.506 -0.5772  0.5321 -0.1154
10331WAT     H142044   2.712   5.565   4.525  0.9971 -1.4531  3.5454
10331WAT     H242045   2.817   5.556   4.438 -1.0608 -1.5165  0.9633
10331WAT    EPW42046   2.782   5.590   4.499 -0.4161 -0.0638  0.5847
10332WAT      O42047   2.968   4.660   3.290  0.0671  0.1912 -0.0772
10332WAT     H142048   2.993   4.578   3.273  1.7724  0.6333  0.1876
10332WAT     H242049   3.041   4.700   3.315 -0.6733  1.8973 -0.4873
10332WAT    EPW42050   2.982   4.654   3.291  0.2096  0.5085 -0.0987
10333WAT      O42051   5.803   1.408   5.469 -0.5867 -0.3200 -0.2990
10333WAT     H142052   5.859   1.353   5.432 -0.6009 -0.1238 -0.6145
10333WAT     H242053   5.821   1.403   5.554 -0.7906 -1.0347 -0.2949
10333WAT    EPW42054   5.814   1.399   5.476 -0.6189 -0.3966 -0.3450
10334WAT      O42055   2.262   3.352   3.846 -0.1790  0.0668 -0.0794
10334WAT     H142056   2.335   3.370   3.891 -1.2124  0.6640  1.4752
10334WAT     H242057   2.249   3.424   3.799  0.1942 -0.0163 -0.3138
10334WAT    EPW42058   2.271   3.365   3.846 -0.2765  0.1427  0.1156
10335WAT      O42059   4.276   5.042   1.346 -0.4758  0.0670 -0.2793
10335WAT     H142060   4.265   4.963   1.311  1.7762  0.2716 -1.6505
10335WAT     H242061   4.209   5.088   1.313 -1.1437 -0.9640 -0.4106
10335WAT    EPW42062   4.264   5.038   1.336 -0.2418 -0.0551 -0.5013
10336WAT      O42063   7.724   5.949   5.651  0.5767  0.8796  0.3784
10336WAT     H142064   7.785   5.986   5.702  0.0576 -0.7553  2.2949
10336WAT     H242065   7.652   5.996   5.667  0.2936  0.0758  1.6150
10336WAT    EPW42066   7.723   5.961   5.661  0.4582  0.5194  0.8441
10337WAT      O42067   2.851   0.117   4.308  0.6318 -0.2316 -0.2546
10337WAT     H142068   2.814   0.191   4.281  0.2514 -0.9575 -1.7951
10337WAT     H242069   2.805   0.096   4.380 -0.0385  0.4031 -0.4869
10337WAT    EPW42070   2.839   0.125   4.315  0.4766 -0.2451 -0.5165
10338WAT      O42071   3.930   6.149   5.640 -0.4716 -0.5449 -0.3696
10338WAT     H142072   3.929   6.079   5.588 -0.8815 -0.2023 -0.8196
10338WAT     H242073   4.003   6.137   5.688  0.0519 -0.7356 -1.1896
10338WAT    EPW42074   3.941   6.137   5.639 -0.4548 -0.5224 -0.5572
10339WAT      O42075   1.454   5.442   4.148 -0.7656  0.1283  0.3383
10339WAT     H142076   1.496   5.486   4.210 -1.4521  0.0254  0.8955
10339WAT     H242077   1.516   5.424   4.089 -0.3305  1.1806  0.4586
10339WAT    EPW42078   1.470   5.446   4.148 -0.8027  0.2685  0.4384
10340WAT      O42079   4.823   5.267   3.264 -0.1273 -0.2051  0.2357
10340WAT     H142080   4.813   5.205   3.325 -0.4630 -0.0509  0.3398
10340WAT     H242081   4.747   5.267   3.222 -0.2030  0.2656  0.3614
10340WAT    EPW42082   4.810   5.258   3.267 -0.1881 -0.1128  0.2696
10341WAT      O42083   6.292   6.408   4.428 -0.1401 -0.0239 -0.0846
10341WAT     H142084   6.321   6.339   4.474  0.1530  1.1326  1.5594
10341WAT     H242085   6.309   6.476   4.481 -0.0364  1.3671 -1.8329
10341WAT    EPW42086   6.299   6.408   4.443 -0.0815  0.3524 -0.1000
10342WAT      O42087   7.320   6.587   0.084 -0.0726 -0.0442 -0.1074
10342WAT     H142088   7.366   6.538   0.028  2.0442  0.1974  1.2889
10342WAT     H242089   7.297   6.531   0.147  0.9555  0.3855  0.6852
10342WAT    EPW42090   7.324   6.571   0.085  0.3920  0.0550  0.2160
10343WAT      O42091   4.248   5.560   2.275  0.4815 -0.0778 -0.4858
10343WAT     H142092   4.258   5.605   2.349 -0.5469  0.0829 -0.4269
10343WAT     H242093   4.261   5.477   2.298 -2.2922 -0.3475  0.4716
10343WAT    EPW42094   4.251   5.555   2.289 -0.0801 -0.0939 -0.3357
10344WAT      O42095   3.902   4.763   7.839 -0.4122 -0.0428  0.3971
10344WAT     H142096   3.874   4.729   7.914 -2.3983 -1.4112 -0.8583
10344WAT     H242097   3.923   4.692   7.792 -0.0532  0.7361 -0.6491
10344WAT    EPW42098   3.901   4.747   7.843 -0.6526 -0.1299  0.0571
10345WAT      O42099   2.574   5.072   5.708 -0.0605 -0.5955 -0.5984
10345WAT     H142100   2.600   5.003   5.661 -0.0566  0.4708 -2.2714
10345WAT     H242101   2.638   5.129   5.697 -0.7314  0.1973 -0.4594
10345WAT    EPW42102   2.587   5.070   5.699 -0.1590 -0.3208 -0.8250
10346WAT      O42103   6.141   1.946   6.132 -0.6629 -0.3043 -0.2100
10346WAT     H142104   6.226   1.939   6.152 -0.3795 -1.0988 -1.5433
10346WAT     H242105   6.105   1.879   6.174 -0.6256 -0.0134  0.2957
10346WAT    EPW42106   6.148   1.935   6.141 -0.6155 -0.3787 -0.3322
10347WAT      O42107   2.002   5.454   3.211  0.6987  0.4955 -0.8289
10347WAT     H142108   2.049   5.521   3.240 -0.5753  1.1488 -0.2122
10347WAT     H242109   2.060   5.390   3.204  1.5439  1.0743  0.5946
10347WAT    EPW42110   2.017   5.454   3.214  0.6354  0.6775 -0.5275
10348WAT      O42111   7.583   3.454   7.347 -0.1322  0.6373  0.1749
10348WAT     H142112   7.634   3.487   7.409  2.1041 -0.0868 -1.1712
10348WAT     H242113   7.588   3.368   7.359  0.5033  0.4781 -1.1048
10348WAT    EPW42114   7.591   3.446   7.358  0.2920  0.5068 -0.2130
10349WAT      O42115   6.995   6.242   5.158  0.0719 -0.1574  0.0912
10349WAT     H142116   6.984   6.172   5.108 -0.4654 -1.0358  1.3949
10349WAT     H242117   6.962   6.307   5.111 -0.3260 -0.9392 -0.7248
10349WAT    EPW42118   6.989   6.242   5.144 -0.0663 -0.4027  0.1633
10350WAT      O42119   1.351   3.586   5.872 -0.6058  0.0066  0.4905
10350WAT     H142120   1.342   3.598   5.958 -1.7343 -1.7344  0.6639
10350WAT     H242121   1.397   3.512   5.866  0.0910  0.4861 -0.4422
10350WAT    EPW42122   1.357   3.577   5.884 -0.6696 -0.1798  0.3783
10351WAT      O42123   1.807   6.881   0.155  0.5395  0.2696  0.0891
10351WAT     H142124   1.861   6.814   0.139 -0.1853 -0.2198 -0.3507
10351WAT     H242125   1.775   6.862   0.234 -1.4508 -1.1855 -0.9708
10351WAT    EPW42126   1.810   6.868   0.164  0.1385 -0.0176 -0.1324
10352WAT      O42127   7.428   7.486   6.327 -0.0891  0.5582  0.1929
10352WAT     H142128   7.502   7.530   6.312 -0.2441  0.7069 -0.1729
10352WAT     H242129   7.454   7.404   6.339 -0.0287  0.0273 -2.6953
10352WAT    EPW42130   7.443   7.481   6.326 -0.1031  0.5017 -0.2878
10353WAT      O42131   2.434   7.530   0.898 -0.3873 -0.1783  0.4877
10353WAT     H142132   2.476   7.561   0.968  0.3899 -0.4093  0.1316
10353WAT     H242133   2.427   7.445   0.914  1.0462 -0.4700 -0.3388
10353WAT    EPW42134   2.439   7.522   0.911 -0.0608 -0.2555  0.3130
10354WAT      O42135   3.733   0.107   4.094 -0.1835  0.9908 -0.1342
10354WAT     H142136   3.794   0.066   4.048 -0.0217 -0.0366  0.9231
10354WAT     H242137   3.706   0.045   4.150 -1.4824  1.7154  0.0807
10354WAT    EPW42138   3.738   0.092   4.096 -0.3514  0.9461  0.0537
10355WAT      O42139   6.025   0.699   4.243 -0.0043 -0.0142  0.3729
10355WAT     H142140   6.017   0.614   4.259  0.7384 -0.7805 -2.7899
10355WAT     H242141   6.027   0.734   4.323  2.7767 -3.2343  2.0060
10355WAT    EPW42142   6.024   0.692   4.257  0.5162 -0.6031  0.1470
10356WAT      O42143   0.946   2.744   3.670 -0.6477  0.7476  0.0966
10356WAT     H142144   0.963   2.711   3.749 -0.4021  0.6424  0.0019
10356WAT     H242145   0.984   2.688   3.615 -2.8224 -0.4885 -0.2422
10356WAT    EPW42146   0.954   2.731   3.673 -0.9327  0.5494  0.0326
10357WAT      O42147   0.168   4.225   4.214 -0.0212  0.4450 -0.1260
10357WAT     H142148   0.189   4.142   4.228  2.1894  0.8518 -0.6920
10357WAT     H242149   0.081   4.225   4.214 -0.0609 -1.8444 -0.0603
10357WAT    EPW42150   0.158   4.213   4.216  0.2995  0.1669 -0.1999
10358WAT      O42151   4.424   5.913   7.598 -0.2903 -0.2329  0.0304
10358WAT     H142152   4.496   5.961   7.612 -0.1563 -0.7937  1.3714
10358WAT     H242153   4.391   5.948   7.525  1.1684  0.2367 -0.4553
10358WAT    EPW42154   4.430   5.925   7.589 -0.0550 -0.2464  0.1568
10359WAT      O42155   6.130   4.504   7.476  0.1169  0.1794 -0.4550
10359WAT     H142156   6.080   4.563   7.517 -0.2238  0.7444 -1.6524
10359WAT     H242157   6.208   4.514   7.515 -0.4410 -0.0562  0.7847
10359WAT    EPW42158   6.134   4.514   7.488 -0.0158  0.2281 -0.4488
10360WAT      O42159   2.553   7.126   4.154  0.0677 -0.1238  0.5562
10360WAT     H142160   2.471   7.147   4.134  0.4446 -0.6349 -1.8849
10360WAT     H242161   2.546   7.047   4.190 -0.6322  0.6484  2.2044
10360WAT    EPW42162   2.540   7.117   4.156  0.0200 -0.0853  0.4391
10361WAT      O42163   1.078   5.554   4.458  0.3632  0.2263 -0.0278
10361WAT     H142164   1.120   5.527   4.387 -0.0759  0.4681 -0.3854
10361WAT     H242165   1.027   5.487   4.478 -0.5956  0.6958 -0.8120
10361WAT    EPW42166   1.077   5.540   4.451  0.1567  0.3314 -0.1965
10362WAT      O42167   3.733   5.604   2.928  0.2305  0.2957  0.6974
10362WAT     H142168   3.665   5.628   2.978 -0.1115  0.7256  0.0396
10362WAT     H242169   3.711   5.632   2.848  1.0818  0.2351  0.4316
10362WAT    EPW42170   3.720   5.612   2.924  0.3058  0.3502  0.5609
10363WAT      O42171   2.067   3.647   2.856 -0.1522  0.0264 -0.0538
10363WAT     H142172   2.136   3.596   2.872  2.2101  2.3410 -1.8983
10363WAT     H242173   2.040   3.621   2.777 -1.1975 -0.5983  0.4871
10363WAT    EPW42174   2.073   3.635   2.847  0.0423  0.2761 -0.2464
10364WAT      O42175   4.447   2.507   6.619  0.1443 -0.2492  0.0160
10364WAT     H142176   4.523   2.532   6.585  1.4087 -2.7853  0.7157
10364WAT     H242177   4.396   2.494   6.549  1.2230 -0.9887 -0.6566
10364WAT    EPW42178   4.450   2.509   6.604  0.4904 -0.7331  0.0200
10365WAT      O42179   1.734   5.956   5.460  0.1349  0.4385  0.0055
10365WAT     H142180   1.657   5.995   5.447  1.0348  2.2588 -0.2600
10365WAT     H242181   1.776   5.966   5.384  0.8595  0.0258  0.3320
10365WAT    EPW42182   1.729   5.963   5.447  0.3749  0.6465  0.0145
10366WAT      O42183   5.626   3.943   1.925  0.2977 -0.4114 -0.3966
10366WAT     H142184   5.554   3.980   1.956  0.5717  0.2998 -0.5828
10366WAT     H242185   5.687   3.962   1.984  0.5241 -0.2406 -0.6819
10366WAT    EPW42186   5.624   3.951   1.938  0.3716 -0.2811 -0.4662
10367WAT      O42187   1.007   6.628   0.169  0.1915 -0.0948 -0.1103
10367WAT     H142188   0.982   6.709   0.151 -1.3048 -0.5529 -0.2717
10367WAT     H242189   0.962   6.579   0.112  0.9156 -1.0456  0.1060
10367WAT    EPW42190   0.997   6.633   0.158  0.0774 -0.3030 -0.1021
10368WAT      O42191   5.703   4.473   4.566 -0.7515  0.8096  0.5355
10368WAT     H142192   5.627   4.494   4.604 -2.5311 -2.9612 -0.4284
10368WAT     H242193   5.728   4.401   4.609 -0.2988 -0.7924 -2.1829
10368WAT    EPW42194   5.695   4.465   4.578 -0.9475  0.0159 -0.0084
10369WAT      O42195   6.359   3.690   0.292 -0.0805  0.5135  0.1055
10369WAT     H142196   6.307   3.715   0.227 -2.5157 -1.0200  1.3093
10369WAT     H242197   6.330   3.736   0.360  0.7915  0.3348  0.6086
10369WAT    EPW42198   6.347   3.701   0.292 -0.3114  0.2606  0.3576
10370WAT      O42199   1.794   4.956   4.052  0.1741 -0.1944 -0.3696
10370WAT     H142200   1.866   5.004   4.065 -0.6207  1.3870 -1.3674
10370WAT     H242201   1.816   4.877   4.080  2.8833 -0.2027 -2.1549
10370WAT    EPW42202   1.808   4.952   4.058  0.4569  0.0380 -0.7807
10371WAT      O42203   3.100   5.370   2.439 -0.1042  0.4597 -0.4083
10371WAT     H142204   3.020   5.396   2.461 -0.1041  0.1082  0.0105
10371WAT     H242205   3.110   5.294   2.481  0.5809  0.6744 -0.1671
10371WAT    EPW42206   3.090   5.363   2.448 -0.0030  0.4395 -0.3108
10372WAT      O42207   3.470   6.437   4.031 -0.0843  0.2600 -0.0688
10372WAT     H142208   3.548   6.430   4.070 -0.4780  1.3712  0.9664
10372WAT     H242209   3.483   6.498   3.970  0.5454 -1.5159 -1.7878
10372WAT    EPW42210   3.483   6.445   4.028 -0.0494  0.1618 -0.1698
10373WAT      O42211   2.245   7.659   3.781 -0.1413 -0.1283  0.1863
10373WAT     H142212   2.190   7.648   3.714 -0.4202 -0.6107  0.4850
10373WAT     H242213   2.227   7.739   3.809  0.1735  0.1845 -0.4909
10373WAT    EPW42214   2.234   7.669   3.775 -0.1360 -0.1534  0.1304
10374WAT      O42215   3.568   7.119   5.354 -0.3409  0.1118  0.2907
10374WAT     H142216   3.554   7.076   5.428 -0.6669  0.1491  0.2550
10374WAT     H242217   3.488   7.148   5.332 -0.6594 -1.7118 -1.2044
10374WAT    EPW42218   3.554   7.117   5.362 -0.4361 -0.1521  0.0646
10375WAT      O42219   1.788   6.860   2.242 -0.0872  0.5049 -0.2955
10375WAT     H142220   1.830   6.806   2.188  0.3617 -0.9388  1.4257
10375WAT     H242221   1.851   6.894   2.291 -0.5361  1.4621 -0.3525
10375WAT    EPW42222   1.804   6.857   2.241 -0.0872  0.4330 -0.0496
10376WAT      O42223   1.514   7.582   1.408 -0.4676  0.1667 -0.2612
10376WAT     H142224   1.560   7.519   1.367 -0.2253  2.3428 -3.7318
10376WAT     H242225   1.431   7.555   1.399 -0.2465 -0.9294  0.7477
10376WAT    EPW42226   1.509   7.569   1.400 -0.3991  0.3263 -0.6248
10377WAT      O42227   6.273   4.771   0.282 -0.5450  0.0929  0.2870
10377WAT     H142228   6.212   4.716   0.252 -0.1465  0.3904 -1.1770
10377WAT     H242229   6.292   4.741   0.361 -0.3090 -1.9110 -0.4801
10377WAT    EPW42230   6.267   4.758   0.289 -0.4512 -0.1592 -0.0426
10378WAT      O42231   4.370   5.415   2.963  0.3303 -0.1959  0.2978
10378WAT     H142232   4.359   5.333   2.937 -0.7375  0.4954 -1.6021
10378WAT     H242233   4.416   5.452   2.899  0.3600  0.8360  0.8728
10378WAT    EPW42234   4.375   5.409   2.950  0.1769  0.0586  0.1021
10379WAT      O42235   4.350   4.014   2.354  0.3847  0.3898 -0.7456
10379WAT     H142236   4.417   4.068   2.370  0.4511  0.2615 -0.5860
10379WAT     H242237   4.280   4.064   2.364  0.3568  0.0208  1.2353
10379WAT    EPW42238   4.350   4.029   2.358  0.3904  0.3163 -0.4294
10380WAT      O42239   3.249   1.045   0.911 -0.1320  0.9206  0.5480
10380WAT     H142240   3.171   1.068   0.880  0.6174  2.7353 -0.1059
10380WAT     H242241   3.272   0.978   0.859 -1.8938 -0.7607  1.8007
10380WAT    EPW42242   3.241   1.038   0.899 -0.2815  0.9403  0.6365
10381WAT      O42243   2.068   5.641   4.438  0.5608  0.3591  0.1453
10381WAT     H142244   1.998   5.613   4.394  0.5374 -1.3968  1.2024
10381WAT     H242245   2.102   5.702   4.386 -2.3864  2.1359  0.0986
10381WAT    EPW42246   2.063   5.646   4.424  0.1219  0.3622  0.2946
10382WAT      O42247   1.964   5.455   3.845 -0.4390 -0.4290  0.2484
10382WAT     H142248   1.954   5.485   3.927 -1.5817  0.2498 -0.1167
10382WAT     H242249   1.908   5.503   3.799 -0.4734 -1.4340 -0.7950
10382WAT    EPW42250   1.954   5.467   3.850 -0.6129 -0.4772  0.0404
10383WAT      O42251   2.237   5.413   5.004  0.4140  0.7628  0.2184
10383WAT     H142252   2.231   5.394   4.919  1.3829  1.1657  0.0509
10383WAT     H242253   2.237   5.500   5.006 -0.0399  0.7587  0.6759
10383WAT    EPW42254   2.236   5.423   4.992  0.4901  0.8217  0.2612
10384WAT      O42255   6.122   7.419   0.485  0.0773 -0.3939  0.3015
10384WAT     H142256   6.169   7.475   0.532 -0.9828  0.4775  0.3680
10384WAT     H242257   6.178   7.390   0.425  1.4625 -1.5223  2.0499
10384WAT    EPW42258   6.137   7.423   0.483  0.1253 -0.4319  0.5696
10385WAT      O42259   1.659   5.996   7.059  0.3315  0.0924  0.2437
10385WAT     H142260   1.720   6.057   7.050 -1.3282  1.6142 -1.4936
10385WAT     H242261   1.672   5.943   6.991 -0.0407  0.2208  0.0674
10385WAT    EPW42262   1.670   5.997   7.048  0.0313  0.3361 -0.0390
10386WAT      O42263   4.180   6.538   6.589 -0.2928  0.6241  0.1109
10386WAT     H142264   4.123   6.603   6.603 -0.3739  0.2385  1.6805
10386WAT     H242265   4.140   6.468   6.622  0.2388 -0.0510 -0.6275
10386WAT    EPW42266   4.166   6.537   6.596 -0.2262  0.4674  0.2337
10387WAT      O42267   2.810   3.390   4.512 -0.2443  0.2706 -0.3444
10387WAT     H142268   2.863   3.443   4.468 -0.7684  0.8491 -0.2810
10387WAT     H242269   2.775   3.441   4.573  0.3356 -0.4863  0.6339
10387WAT    EPW42270   2.812   3.405   4.514 -0.2361  0.2443 -0.1906
10388WAT      O42271   1.731   3.363   7.305 -0.0942  0.3033  0.3721
10388WAT     H142272   1.648   3.385   7.292  0.0585  1.0156  0.5447
10388WAT     H242273   1.735   3.280   7.279 -0.5806  0.6221 -0.8024
10388WAT    EPW42274   1.719   3.354   7.299 -0.1435  0.4556  0.2241
10389WAT      O42275   1.868   3.552   1.616 -0.3178  0.3092  0.3092
10389WAT     H142276   1.905   3.473   1.609 -1.4614 -0.0788 -2.6739
10389WAT     H242277   1.812   3.542   1.682  1.3654 -0.5109  1.7198
10389WAT    EPW42278   1.866   3.539   1.625 -0.2381  0.1308  0.0769
10390WAT      O42279   0.231   4.695   5.802 -0.1042 -0.5136  0.1269
10390WAT     H142280   0.229   4.682   5.888 -0.5841  0.4066  0.2685
10390WAT     H242281   0.311   4.668   5.779 -0.0259 -0.8930  0.8324
10390WAT    EPW42282   0.243   4.689   5.811 -0.1635 -0.4337  0.2520
10391WAT      O42283   6.143   3.393   0.969 -0.9096 -0.3133 -0.0763
10391WAT     H142284   6.096   3.406   0.897 -2.3718 -1.5231  0.6024
10391WAT     H242285   6.216   3.356   0.939 -1.7657 -1.3887 -0.9124
10391WAT    EPW42286   6.147   3.390   0.954 -1.2520 -0.6509 -0.0995
10392WAT      O42287   1.923   7.544   1.415  0.0190 -0.2566  0.1755
10392WAT     H142288   1.873   7.519   1.482 -0.8180  1.0830  0.0829
10392WAT     H242289   1.971   7.609   1.449  0.1803 -0.1267 -0.3018
10392WAT    EPW42290   1.923   7.550   1.430 -0.0808 -0.0395  0.0913
10393WAT      O42291   3.051   2.708   6.282 -0.2383  1.1037  0.2211
10393WAT     H142292   3.074   2.789   6.305 -0.0684  1.5777 -1.4749
10393WAT     H242293   2.966   2.704   6.304 -0.3492  1.8831 -0.0521
10393WAT    EPW42294   3.042   2.719   6.289 -0.2296  1.2889 -0.0698
10394WAT      O42295   1.592   2.736   5.781  0.2312  0.4842  0.1621
10394WAT     H142296   1.539   2.783   5.832  0.3128 -0.0835  0.7861
10394WAT     H242297   1.553   2.658   5.778  1.1256 -0.0013  0.7799
10394WAT    EPW42298   1.578   2.731   5.788  0.3754  0.3286  0.3456
10395WAT      O42299   3.515   0.949   3.794 -0.0278 -1.0805  0.3026
10395WAT     H142300   3.567   1.019   3.801  0.2696 -1.1010 -1.2853
10395WAT     H242301   3.518   0.929   3.709 -2.1421 -1.4674  0.2418
10395WAT    EPW42302   3.523   0.956   3.782 -0.2962 -1.1407  0.0590
10396WAT      O42303   4.366   6.956   6.677  0.1893 -0.1871  0.6121
10396WAT     H142304   4.428   6.913   6.634 -1.2438 -1.3603 -0.4059
10396WAT     H242305   4.351   6.905   6.747  0.1233 -0.1082  0.6558
10396WAT    EPW42306   4.373   6.942   6.681 -0.0322 -0.3487  0.4681
10397WAT      O42307   1.472   5.139   7.410  0.2993  0.3011 -0.7234
10397WAT     H142308   1.393   5.175   7.412 -0.2025 -0.7369 -0.9612
10397WAT     H242309   1.518   5.185   7.468 -0.0755  1.7948 -1.5746
10397WAT    EPW42310   1.467   5.151   7.419  0.1698  0.3684 -0.8843
10398WAT      O42311   7.458   5.091   4.707  0.0182 -0.5914 -0.1837
10398WAT     H142312   7.485   5.110   4.788  0.0014 -0.5494 -0.1880
10398WAT     H242313   7.426   5.010   4.714  1.9235 -1.4189 -0.5901
10398WAT    EPW42314   7.457   5.081   4.720  0.2972 -0.7074 -0.2444
10399WAT      O42315   6.287   7.106   0.816 -0.1054  0.0511 -0.1735
10399WAT     H142316   6.321   7.134   0.741  1.7118  0.2781  0.6651
10399WAT     H242317   6.260   7.180   0.855  0.5852  0.1609  0.1234
10399WAT    EPW42318   6.288   7.121   0.811  0.2651  0.1009 -0.0058
10400WAT      O42319   3.412   4.940   5.578 -0.0527  0.6308  0.6874
10400WAT     H142320   3.439   5.003   5.632  1.5440  0.0532  0.6062
10400WAT     H242321   3.404   4.980   5.501  0.7196  0.8079  0.6914
10400WAT    EPW42322   3.415   4.955   5.575  0.2973  0.5716  0.6760
10401WAT      O42323   3.305   7.624   1.049 -0.0706  0.5641  0.2540
10401WAT     H142324   3.357   7.566   1.009  0.6977  0.3472  1.5232
10401WAT     H242325   3.240   7.575   1.080 -0.0959  0.5675  0.2058
10401WAT    EPW42326   3.303   7.608   1.047  0.0391  0.5326  0.4344
10402WAT      O42327   2.608   2.522   3.897  0.1605 -0.1470 -0.7325
10402WAT     H142328   2.683   2.518   3.942 -0.9669  2.4063  1.5993
10402WAT     H242329   2.557   2.573   3.945 -1.9457  1.0718 -3.9261
10402WAT    EPW42330   2.612   2.529   3.910 -0.3172  0.4102 -0.8598
10403WAT      O42331   1.583   3.654   6.632 -0.2059  0.3318  0.1235
10403WAT     H142332   1.637   3.621   6.572  0.5234  1.2209  0.2770
10403WAT     H242333   1.622   3.638   6.708 -0.8206 -0.2198  0.3369
10403WAT    EPW42334   1.597   3.647   6.634 -0.1890  0.3817  0.1777
10404WAT      O42335   2.875   1.341   0.838  0.1201 -0.5788  0.1607
10404WAT     H142336   2.929   1.391   0.884  1.3745 -1.7982  0.0886
10404WAT     H242337   2.823   1.306   0.898 -0.3285  0.2738  0.2802
10404WAT    EPW42338   2.875   1.343   0.854  0.2391 -0.6330  0.1677
10405WAT      O42339   2.111   5.211   1.460  0.2230  0.1543 -0.5730
10405WAT     H142340   2.048   5.258   1.422 -0.3302 -0.5788 -0.5918
10405WAT     H242341   2.079   5.194   1.539  0.2440 -0.5218 -0.7091
10405WAT    EPW42342   2.097   5.216   1.466  0.1444 -0.0539 -0.5959
10406WAT      O42343   3.184   2.384   0.153 -0.0457 -0.0490 -0.0567
10406WAT     H142344   3.221   2.404   0.229  0.7996  1.1100 -0.7457
10406WAT     H242345   3.117   2.439   0.148 -0.6983 -0.7905  0.2727
10406WAT    EPW42346   3.180   2.395   0.164 -0.0173  0.0127 -0.1098
10407WAT      O42347   3.300   6.859   7.794 -0.1011  0.0886 -0.3719
10407WAT     H142348   3.214   6.866   7.801 -0.0420 -0.8108  2.1908
10407WAT     H242349   3.313   6.773   7.789  0.7168  0.0942  1.2449
10407WAT    EPW42350   3.289   6.847   7.794  0.0284 -0.0434  0.2455
10408WAT      O42351   1.828   3.998   6.895 -0.5191  0.3907  0.3493
10408WAT     H142352   1.864   3.927   6.933  1.5997  0.9023 -0.5405
10408WAT     H242353   1.892   4.057   6.899 -2.1626  2.2194  0.8493
10408WAT    EPW42354   1.843   3.996   6.901 -0.4489  0.7364  0.2917
10409WAT      O42355   1.161   7.514   6.580 -0.3133 -0.4353  0.2525
10409WAT     H142356   1.139   7.579   6.526 -1.2366  0.3560  1.5473
10409WAT     H242357   1.245   7.530   6.597  0.0805 -0.8512 -1.1139
10409WAT    EPW42358   1.170   7.526   6.574 -0.3915 -0.3798  0.2420
10410WAT      O42359   2.168   2.744   1.178 -0.4201  0.4796  0.0058
10410WAT     H142360   2.120   2.755   1.250  1.7648 -0.3648  1.7350
10410WAT     H242361   2.221   2.814   1.179 -0.2595  0.3712 -0.6887
10410WAT    EPW42362   2.169   2.756   1.189 -0.0737  0.3388  0.1587
10411WAT      O42363   5.538   2.858   0.771  0.1982  0.2829  0.6418
10411WAT     H142364   5.625   2.869   0.779  0.0882  1.4743  0.3547
10411WAT     H242365   5.506   2.901   0.840 -0.1545 -0.6835  1.0982
10411WAT    EPW42366   5.546   2.866   0.783  0.1299  0.3161  0.6668
10412WAT      O42367   1.736   0.098   0.524 -0.2860  0.4347 -0.5982
10412WAT     H142368   1.781   0.060   0.588  2.4486  0.8521 -2.1400
10412WAT     H242369   1.689   0.032   0.490 -0.6994 -0.0756  0.8795
10412WAT    EPW42370   1.736   0.083   0.529  0.0569  0.4209 -0.6077
10413WAT      O42371   5.163   2.486   3.952  0.2891  0.4801 -0.0498
10413WAT     H142372   5.207   2.429   3.902  0.4322  1.1421 -0.6943
10413WAT     H242373   5.093   2.440   3.976  0.4821 -0.0323 -0.4270
10413WAT    EPW42374   5.159   2.471   3.948  0.3387  0.5022 -0.2007
10414WAT      O42375   1.584   4.560   1.236  0.0936 -0.5937  0.3735
10414WAT     H142376   1.576   4.647   1.243 -1.1458 -0.6433 -0.2210
10414WAT     H242377   1.644   4.551   1.174  0.5070 -0.1663  0.6993
10414WAT    EPW42378   1.592   4.572   1.228 -0.0284 -0.5379  0.3338
10415WAT      O42379   4.135   4.401   1.073 -0.6307  0.5155 -0.1449
10415WAT     H142380   4.222   4.403   1.066 -0.3714 -1.3996  1.3628
10415WAT     H242381   4.121   4.424   1.156 -1.2427 -2.0150  0.5549
10415WAT    EPW42382   4.146   4.405   1.085 -0.6828 -0.1412  0.1812
10416WAT      O42383   7.552   5.138   4.962  0.3569 -0.0353 -0.6228
10416WAT     H142384   7.468   5.129   4.984 -0.2268 -1.7004 -3.0557
10416WAT     H242385   7.595   5.098   5.026 -0.6859  0.7302  0.6001
10416WAT    EPW42386   7.546   5.131   4.974  0.1166 -0.1682 -0.8016
10417WAT      O42387   2.244   3.302   0.789  0.0870  0.2514 -0.0758
10417WAT     H142388   2.211   3.382   0.801  0.1227  0.0405  1.7343
10417WAT     H242389   2.330   3.315   0.789  0.0899  0.4400 -1.8866
10417WAT    EPW42390   2.252   3.316   0.791  0.0927  0.2481 -0.0759
10418WAT      O42391   3.734   7.191   7.451  0.2122  0.2181 -0.5529
10418WAT     H142392   3.656   7.152   7.456 -0.0800  0.8743  0.6834
10418WAT     H242393   3.723   7.263   7.500  1.7031  0.1264 -0.0475
10418WAT    EPW42394   3.720   7.196   7.459  0.3893  0.3015 -0.2956
10419WAT      O42395   1.588   5.709   5.147  0.6086 -0.0190 -0.6783
10419WAT     H142396   1.535   5.775   5.166  1.4704  0.5909 -0.3375
10419WAT     H242397   1.588   5.660   5.219  0.4814 -0.0416 -0.6938
10419WAT    EPW42398   1.580   5.711   5.160  0.7171  0.0677 -0.6302
10420WAT      O42399   3.513   4.692   5.653 -0.0539  0.3995  0.0894
10420WAT     H142400   3.590   4.734   5.652  0.6685 -0.8330  1.4217
10420WAT     H242401   3.459   4.749   5.615  1.9712  0.3239 -3.3246
10420WAT    EPW42402   3.516   4.707   5.647  0.3520  0.2063 -0.2181
10421WAT      O42403   1.622   5.462   0.155  0.2543 -0.5007 -0.3074
10421WAT     H142404   1.631   5.376   0.147 -1.6507 -0.6408 -1.5599
10421WAT     H242405   1.705   5.491   0.158  1.0267 -2.1529 -2.6512
10421WAT    EPW42406   1.636   5.454   0.154  0.0870 -0.7655 -0.8387
10422WAT      O42407   5.427   3.993   0.236 -0.0450 -0.4656 -0.1826
10422WAT     H142408   5.384   4.009   0.162 -0.8036 -0.6740  0.2076
10422WAT     H242409   5.418   3.906   0.246  1.1605 -0.6454 -0.5208
10422WAT    EPW42410   5.419   3.982   0.227  0.0210 -0.5230 -0.1749
10423WAT      O42411   7.074   6.236   7.701 -0.4931  0.0165 -0.1400
10423WAT     H142412   7.153   6.217   7.735 -0.3290  0.9556  0.0393
10423WAT     H242413   7.022   6.174   7.733 -0.1780  0.4151  1.2042
10423WAT    EPW42414   7.078   6.224   7.711 -0.4223  0.2141  0.0851
10424WAT      O42415   7.587   5.699   7.599  0.3741  0.2104 -0.0359
10424WAT     H142416   7.621   5.779   7.587  1.4024 -0.1107  0.5684
10424WAT     H242417   7.650   5.646   7.571 -0.1881 -0.4025 -0.1693
10424WAT    EPW42418   7.601   5.703   7.593  0.4430  0.0724  0.0337
10425WAT      O42419   0.296   6.663   6.297 -0.1005 -0.1113 -0.6575
10425WAT     H142420   0.243   6.715   6.251  0.5423  0.5513 -0.6692
10425WAT     H242421   0.376   6.685   6.269  0.4204  1.1855  1.5924
10425WAT    EPW42422   0.300   6.674   6.286  0.0714  0.1782 -0.3269
10426WAT      O42423   2.845   7.043   3.905 -0.0633  0.1256  0.2266
10426WAT     H142424   2.890   7.036   3.831 -1.0386 -1.2217 -0.2990
10426WAT     H242425   2.837   6.960   3.931 -1.4778  0.3847  0.7266
10426WAT    EPW42426   2.850   7.029   3.898 -0.4163 -0.0352  0.2228
10427WAT      O42427   6.643   4.886   7.301 -0.1023 -0.1288 -0.5780
10427WAT     H142428   6.696   4.954   7.310  0.8624 -1.0622  1.5642
10427WAT     H242429   6.577   4.904   7.355 -1.5188  0.5191 -2.4128
10427WAT    EPW42430   6.641   4.899   7.311 -0.1690 -0.1710 -0.5326
10428WAT      O42431   7.597   7.635   4.364 -0.0449 -0.1523  0.1000
10428WAT     H142432   7.598   7.573   4.426 -1.2639 -0.6078 -0.3036
10428WAT     H242433   7.632   7.704   4.404 -1.0492 -0.3618  1.4240
10428WAT    EPW42434   7.602   7.636   4.379 -0.3733 -0.2506  0.2359
10429WAT      O42435   1.966   1.570   7.440 -0.2452 -0.3870 -0.0779
10429WAT     H142436   1.902   1.579   7.381 -0.1528  0.1805 -0.0945
10429WAT     H242437   1.931   1.600   7.514  0.6563  1.9917 -0.5230
10429WAT    EPW42438   1.952   1.575   7.442 -0.0984  0.0482 -0.1461
10430WAT      O42439   3.434   5.376   2.743  0.2049 -0.2335  0.1029
10430WAT     H142440   3.367   5.319   2.745  0.3340 -0.4013 -0.2335
10430WAT     H242441   3.440   5.396   2.659  0.2320  0.2013  0.2096
10430WAT    EPW42442   3.425   5.370   2.731  0.2279 -0.1940  0.0690
10431WAT      O42443   1.720   3.805   2.455  0.1930 -0.7902  0.2300
10431WAT     H142444   1.644   3.841   2.476  0.7635  0.6594 -0.0989
10431WAT     H242445   1.777   3.843   2.509  1.0412 -0.0695 -1.1199
10431WAT    EPW42446   1.717   3.816   2.466  0.4026 -0.4696 -0.0180
10432WAT      O42447   2.877   5.516   2.527 -0.2319 -0.6303 -0.4831
10432WAT     H142448   2.816   5.458   2.505  1.0274 -1.7277 -1.2701
10432WAT     H242449   2.901   5.492   2.607 -0.4125 -0.5631 -0.4082
10432WAT    EPW42450   2.872   5.504   2.535 -0.0726 -0.7825 -0.5883
10433WAT      O42451   5.771   3.576   0.950 -0.4303 -0.3918  0.3459
10433WAT     H142452   5.696   3.602   0.987 -2.0707 -1.9463 -1.6040
10433WAT     H242453   5.764   3.604   0.868  1.2473 -0.4069  0.1690
10433WAT    EPW42454   5.759   3.584   0.944 -0.4248 -0.6237  0.0317
10434WAT      O42455   2.846   2.662   2.962  0.2488  0.1120  0.2253
10434WAT     H142456   2.862   2.594   2.910 -0.1963 -0.7648  1.2090
10434WAT     H242457   2.900   2.724   2.931 -0.0745 -0.3272 -1.3428
10434WAT    EPW42458   2.856   2.661   2.949  0.1353 -0.0824  0.1390
10435WAT      O42459   3.793   3.108   1.630 -0.3684 -0.5052 -0.4983
10435WAT     H142460   3.751   3.178   1.599 -2.4979 -1.2720  0.4582
10435WAT     H242461   3.782   3.048   1.567 -0.2548 -0.5482 -0.4760
10435WAT    EPW42462   3.785   3.109   1.616 -0.6662 -0.6248 -0.3537
10436WAT      O42463   0.493   3.896   6.812  0.7081 -0.3263 -1.0821
10436WAT     H142464   0.536   3.826   6.782  1.1615 -0.7062  0.3957
10436WAT     H242465   0.435   3.912   6.748  1.2504 -1.4410 -1.8979
10436WAT    EPW42466   0.491   3.888   6.798  0.8552 -0.5471 -0.9843
10437WAT      O42467   7.117   6.425   5.425 -0.4177 -0.2210 -0.6821
10437WAT     H142468   7.067   6.363   5.390 -0.7992 -0.9854  1.1150
10437WAT     H242469   7.196   6.388   5.429 -0.5853 -0.4999  0.1357
10437WAT    EPW42470   7.122   6.410   5.420 -0.4988 -0.3751 -0.2958
10438WAT      O42471   3.184   2.217   2.054 -0.5511 -0.5230  0.1481
10438WAT     H142472   3.193   2.199   1.969  2.0473  1.1742 -0.0597
10438WAT     H242473   3.234   2.156   2.093  0.7998  0.5378  0.1516
10438WAT    EPW42474   3.193   2.205   2.047  0.0323 -0.1156  0.1179
10439WAT      O42475   5.323   7.162   1.993  0.6097  0.5805 -0.4933
10439WAT     H142476   5.359   7.083   2.004 -1.9289 -0.4001  1.9957
10439WAT     H242477   5.281   7.154   1.917 -0.1498 -0.7859  0.0209
10439WAT    EPW42478   5.322   7.149   1.983  0.1225  0.2338 -0.0497
10440WAT      O42479   3.653   6.986   5.088 -0.2172 -0.3046 -0.1954
10440WAT     H142480   3.635   7.026   5.164 -1.0997  1.7737 -1.4029
10440WAT     H242481   3.713   6.927   5.110 -1.6986 -1.0266  2.4222
10440WAT    EPW42482   3.659   6.983   5.102 -0.5664 -0.1043  0.0129
10441WAT      O42483   2.675   4.143   6.812 -0.4519  0.5176 -0.2307
10441WAT     H142484   2.702   4.060   6.808 -2.6963 -0.4791  2.2267
10441WAT     H242485   2.621   4.151   6.744 -1.1061 -0.4476  0.1555
10441WAT    EPW42486   2.671   4.132   6.802 -0.8801  0.2278  0.1894
10442WAT      O42487   4.097   3.022   2.060 -0.8717 -0.3976 -0.1513
10442WAT     H142488   4.090   3.097   2.015 -1.1170 -2.3531 -3.7850
10442WAT     H242489   4.183   3.011   2.068 -0.7156 -0.9396 -2.0863
10442WAT    EPW42490   4.109   3.032   2.054 -0.8848 -0.7665 -0.9739
10443WAT      O42491   3.616   2.395   2.297 -0.0054 -0.0439  0.3557
10443WAT     H142492   3.585   2.422   2.374  0.9046  0.2754  0.6135
10443WAT     H242493   3.544   2.386   2.249 -0.4193  2.1206  0.4712
10443WAT    EPW42494   3.600   2.397   2.302  0.0679  0.3230  0.4108
10444WAT      O42495   6.098   2.981   2.441 -0.1168 -0.0281 -0.6472
10444WAT     H142496   6.141   2.983   2.517  0.2230 -2.8087 -0.6400
10444WAT     H242497   6.158   3.005   2.383  0.9190 -1.7879 -0.3977
10444WAT    EPW42498   6.114   2.985   2.444  0.0864 -0.6988 -0.6093
10445WAT      O42499   7.470   0.918   7.776  0.0440 -0.1519 -0.2716
10445WAT     H142500   7.428   0.914   7.700  0.6806 -1.4555 -0.5980
10445WAT     H242501   7.500   1.000   7.779 -0.3383  0.0418 -1.2328
10445WAT    EPW42502   7.468   0.929   7.765  0.0816 -0.3158 -0.4618
10446WAT      O42503   2.758   6.998   6.975 -0.8032 -0.3834  0.0770
10446WAT     H142504   2.683   6.953   6.984 -0.8198 -0.0110  2.2561
10446WAT     H242505   2.817   6.947   7.014 -0.3988  0.4520  0.5698
10446WAT    EPW42506   2.755   6.984   6.982 -0.7459 -0.2050  0.4717
10447WAT      O42507   2.590   6.956   1.974 -0.0203 -0.0775 -0.4064
10447WAT     H142508   2.541   6.982   1.907 -0.4294  0.4199  0.0767
10447WAT     H242509   2.672   6.961   1.943 -0.1111  1.3096 -0.5003
10447WAT    EPW42510   2.595   6.961   1.959 -0.0942  0.2009 -0.3489
10448WAT      O42511   1.491   6.346   2.514 -0.3919 -0.4566  0.6938
10448WAT     H142512   1.440   6.416   2.523 -2.4266 -1.7481  0.0378
10448WAT     H242513   1.481   6.304   2.590  2.3048  0.7521  1.8588
10448WAT    EPW42514   1.482   6.350   2.526 -0.2941 -0.4688  0.7690
10449WAT      O42515   2.511   2.024   6.135 -0.1500 -0.4939  0.2077
10449WAT     H142516   2.491   2.106   6.116 -2.3488 -1.3380 -1.6326
10449WAT     H242517   2.567   2.031   6.202 -1.4497  2.4190  1.1621
10449WAT    EPW42518   2.516   2.037   6.142 -0.6668 -0.1883  0.0768
10450WAT      O42519   5.693   1.945   6.805  0.2488 -0.0253  0.3925
10450WAT     H142520   5.610   1.961   6.829  0.1581 -0.0174  0.0805
10450WAT     H242521   5.715   1.877   6.855  0.1330  0.1203  0.6466
10450WAT    EPW42522   5.684   1.937   6.816  0.2183 -0.0026  0.3840
10451WAT      O42523   5.796   6.993   4.048  0.0110 -0.7781  0.0342
10451WAT     H142524   5.879   6.967   4.052  1.3019  2.4452 -2.0509
10451WAT     H242525   5.763   6.946   3.982  0.1474 -1.9799  0.7838
10451WAT    EPW42526   5.803   6.982   4.039  0.2219 -0.4795 -0.1631
10452WAT      O42527   6.783   6.396   0.860  0.6758  0.1193  0.2801
10452WAT     H142528   6.841   6.361   0.806  0.7722 -0.3469  0.6725
10452WAT     H242529   6.796   6.353   0.935 -1.2858 -1.1778 -0.0599
10452WAT    EPW42530   6.793   6.385   0.863  0.4003 -0.1412  0.2878
10453WAT      O42531   3.679   7.074   1.936  0.7240  0.0975  0.0061
10453WAT     H142532   3.693   7.063   1.851  0.9200 -1.4422  0.2225
10453WAT     H242533   3.614   7.019   1.954  0.1369  0.9905  0.7095
10453WAT    EPW42534   3.671   7.065   1.927  0.6663  0.0019  0.1420
10454WAT      O42535   1.122   6.314   6.636  0.0342 -0.5608  0.0464
10454WAT     H142536   1.056   6.258   6.620 -2.0555  1.4381  1.1085
10454WAT     H242537   1.096   6.387   6.596  0.7950  0.7714  1.8932
10454WAT    EPW42538   1.108   6.316   6.628 -0.1621 -0.0687  0.4761
10455WAT      O42539   3.245   0.464   5.990  0.0622 -0.0213 -0.2629
10455WAT     H142540   3.169   0.436   5.959  0.6831 -0.1128 -1.7831
10455WAT     H242541   3.295   0.393   5.991  1.0331  0.5360 -2.2372
10455WAT    EPW42542   3.241   0.450   5.986  0.2973  0.0475 -0.7791
10456WAT      O42543   5.682   3.813   0.376  0.3103 -0.0275 -0.2934
10456WAT     H142544   5.715   3.742   0.337 -2.1405  0.3948 -3.5582
10456WAT     H242545   5.712   3.879   0.327  1.1393  1.1182  1.6341
10456WAT    EPW42546   5.692   3.812   0.363  0.0707  0.2041 -0.4909
10457WAT      O42547   5.646   5.044   5.309 -0.0968  0.0708 -0.0177
10457WAT     H142548   5.620   4.973   5.264 -1.8350 -0.3001  1.4491
10457WAT     H242549   5.606   5.035   5.386 -0.6079  2.7978  0.1307
10457WAT    EPW42550   5.636   5.032   5.314 -0.4291  0.4188  0.2209
10458WAT      O42551   1.955   6.694   3.812  0.1884  0.4506  0.1389
10458WAT     H142552   1.971   6.622   3.766 -0.4166  1.5226 -1.8810
10458WAT     H242553   2.016   6.750   3.783 -0.5203  1.3065  0.2646
10458WAT    EPW42554   1.966   6.692   3.801 -0.0057  0.7354 -0.1409
10459WAT      O42555   2.033   3.738   1.491  0.2575 -0.1890 -0.1735
10459WAT     H142556   2.084   3.731   1.561 -0.2139 -1.0463  0.0992
10459WAT     H242557   1.967   3.684   1.508 -0.7774  0.9154 -0.5014
10459WAT    EPW42558   2.031   3.729   1.504  0.0350 -0.1525 -0.1816
10460WAT      O42559   5.579   4.151   2.290 -0.0628  0.0273  0.4141
10460WAT     H142560   5.547   4.204   2.351 -2.9780  0.5452 -1.3693
10460WAT     H242561   5.662   4.178   2.282  0.4044  0.0533  3.8547
10460WAT    EPW42562   5.587   4.163   2.298 -0.4244  0.1077  0.6589
10461WAT      O42563   7.390   2.513   5.549  0.3093  0.2881  0.1628
10461WAT     H142564   7.359   2.441   5.586  1.6482 -0.8531 -0.8191
10461WAT     H242565   7.361   2.507   5.466 -0.7950  1.6609  0.4119
10461WAT    EPW42566   7.381   2.502   5.542  0.3440  0.3223  0.0546
10462WAT      O42567   4.264   7.002   7.121 -0.1223  0.0051 -0.0537
10462WAT     H142568   4.270   6.956   7.047  0.6452 -0.8567  0.5201
10462WAT     H242569   4.208   6.955   7.169  0.2593 -0.0551  0.3380
10462WAT    EPW42570   4.257   6.988   7.117  0.0475 -0.1311  0.0889
10463WAT      O42571   4.701   4.400   0.883  0.5597 -0.6632  0.6573
10463WAT     H142572   4.733   4.324   0.910  3.2051 -0.9172 -2.6279
10463WAT     H242573   4.733   4.457   0.941  2.6406 -1.5713  0.4769
10463WAT    EPW42574   4.710   4.397   0.896  1.2579 -0.8348  0.1453
10464WAT      O42575   3.325   2.504   7.793 -0.2663  0.0060 -0.6652
10464WAT     H142576   3.360   2.441   7.841 -2.0857 -1.7283 -1.4497
10464WAT     H242577   3.243   2.509   7.823  0.0760  2.7263  0.0163
10464WAT    EPW42578   3.318   2.495   7.804 -0.4845  0.1517 -0.6804
10465WAT      O42579   6.839   0.686   7.611  0.1451  0.0024  0.2482
10465WAT     H142580   6.850   0.704   7.526  1.8681 -0.6172  0.3101
10465WAT     H242581   6.756   0.708   7.626  0.1969  1.4328 -1.2662
10465WAT    EPW42582   6.828   0.692   7.601  0.4073  0.1222  0.0336
10466WAT      O42583   3.288   5.757   5.908  0.3747 -0.0016 -0.3979
10466WAT     H142584   3.356   5.788   5.863 -0.3975 -1.0291 -2.4000
10466WAT     H242585   3.296   5.671   5.901  1.1869 -0.3257  3.0591
10466WAT    EPW42586   3.299   5.749   5.900  0.3806 -0.2013 -0.1830
10467WAT      O42587   2.727   4.023   7.517  0.7280 -0.0006  0.3403
10467WAT     H142588   2.807   4.008   7.486  1.2340  0.3428  1.4127
10467WAT     H242589   2.742   4.074   7.587 -0.2546 -1.5746  1.7657
10467WAT    EPW42590   2.741   4.028   7.523  0.6576 -0.1824  0.7093
10468WAT      O42591   7.229   4.269   4.348  0.0479 -0.0570 -0.3702
10468WAT     H142592   7.278   4.210   4.307 -0.3231 -0.0020 -0.8911
10468WAT     H242593   7.194   4.316   4.283  0.3103  0.7153  0.0290
10468WAT    EPW42594   7.231   4.268   4.332  0.0318  0.0652 -0.3882
10469WAT      O42595   2.882   4.521   4.571 -0.7630 -0.3031 -0.2192
10469WAT     H142596   2.950   4.576   4.576  0.3572 -1.6410 -0.2213
10469WAT     H242597   2.860   4.508   4.655 -2.2539  1.5231 -0.2467
10469WAT    EPW42598   2.889   4.527   4.584 -0.8178 -0.2309 -0.2235
10470WAT      O42599   5.322   6.715   6.341 -0.3213  0.3925 -0.4586
10470WAT     H142600   5.404   6.686   6.335  0.8382  2.4916  2.5900
10470WAT     H242601   5.316   6.771   6.274 -0.1984 -1.4928 -2.1441
10470WAT    EPW42602   5.333   6.719   6.330 -0.1318  0.4241 -0.2572
10471WAT      O42603   5.379   4.163   3.721 -0.3239  0.3908 -0.3394
10471WAT     H142604   5.308   4.116   3.702 -0.5658  0.0925  1.2045
10471WAT     H242605   5.353   4.215   3.786  0.5170  1.1901 -0.6241
10471WAT    EPW42606   5.365   4.163   3.728 -0.2354  0.4648 -0.1534
10472WAT      O42607   0.281   1.421   3.810 -0.3299 -0.4421  0.3797
10472WAT     H142608   0.354   1.374   3.811 -0.1359 -0.1524  0.2321
10472WAT     H242609   0.300   1.490   3.860 -1.1638 -1.3093  1.9654
10472WAT    EPW42610   0.295   1.425   3.817 -0.4245 -0.5274  0.5921
10473WAT      O42611   3.507   6.014   0.731 -0.3042 -0.3070 -0.0085
10473WAT     H142612   3.554   5.955   0.773 -1.3774 -0.7086  0.6827
10473WAT     H242613   3.558   6.038   0.664  0.1758 -1.9879 -0.2937
10473WAT    EPW42614   3.521   6.009   0.727 -0.3919 -0.6146  0.0515
10474WAT      O42615   3.558   4.933   3.455  0.3891  0.0914 -0.1111
10474WAT     H142616   3.537   5.004   3.409 -0.7853 -0.2910 -0.1923
10474WAT     H242617   3.599   4.965   3.525  0.7920  0.7748 -0.6434
10474WAT    EPW42618   3.561   4.948   3.458  0.2751  0.1359 -0.2017
10475WAT      O42619   2.097   0.085   1.842  0.2437  0.2677 -0.0632
10475WAT     H142620   2.113   0.055   1.923  0.0729 -0.1952 -0.1970
10475WAT     H242621   2.136   0.163   1.841  0.6944  0.0549  0.3009
10475WAT    EPW42622   2.105   0.092   1.854  0.2851  0.1679 -0.0292
10476WAT      O42623   3.127   6.191   5.336  0.3689  0.2083  0.0426
10476WAT     H142624   3.129   6.243   5.406 -0.1290 -0.3666  0.4963
10476WAT     H242625   3.191   6.134   5.351 -0.0112 -0.1729  0.2438
10476WAT    EPW42626   3.136   6.190   5.348  0.2392  0.0671  0.1394
10477WAT      O42627   3.214   7.553   6.374 -0.2373  0.0265  0.4042
10477WAT     H142628   3.231   7.469   6.357 -1.5420 -0.6661  2.1747
10477WAT     H242629   3.126   7.556   6.375 -0.2680  0.7474  2.9106
10477WAT    EPW42630   3.203   7.541   6.371 -0.4346  0.0307  1.0360
10478WAT      O42631   4.899   7.248   7.264 -0.4016 -0.3961 -0.0548
10478WAT     H142632   4.934   7.326   7.286 -0.1510 -0.7975  1.0303
10478WAT     H242633   4.927   7.236   7.183 -0.7947  0.8473 -0.3945
10478WAT    EPW42634   4.908   7.258   7.256 -0.4226 -0.2717  0.0553
10479WAT      O42635   2.555   3.737   4.101  0.4893 -0.1607  0.2356
10479WAT     H142636   2.477   3.710   4.070  0.0439  1.2901  0.0412
10479WAT     H242637   2.609   3.721   4.034 -0.1641  1.3626 -0.7219
10479WAT    EPW42638   2.551   3.730   4.086  0.3270  0.2787  0.0654
10480WAT      O42639   7.323   3.577   3.952 -0.1034 -0.0821  0.3352
10480WAT     H142640   7.404   3.603   3.935 -0.4361  0.0921 -1.1428
10480WAT     H242641   7.293   3.637   4.007  0.9044 -0.3957  1.2473
10480WAT    EPW42642   7.330   3.590   3.957 -0.0037 -0.1027  0.2516
10481WAT      O42643   6.832   6.966   6.437 -0.6324  0.2346 -0.1474
10481WAT     H142644   6.799   7.042   6.410  0.2228  0.6536 -0.0339
10481WAT     H242645   6.894   6.948   6.378 -1.6804 -1.0558 -0.9451
10481WAT    EPW42646   6.836   6.974   6.424 -0.6608  0.1059 -0.2485
10482WAT      O42647   1.924   0.417   3.036  0.0925  0.0952  0.2128
10482WAT     H142648   1.960   0.348   3.077 -1.2706  0.0476  1.4142
10482WAT     H242649   1.853   0.383   2.999  0.5034  0.4707 -0.9580
10482WAT    EPW42650   1.919   0.401   3.037 -0.0482  0.1437  0.2173
10483WAT      O42651   2.487   6.788   4.478  0.3628 -0.0310  0.3224
10483WAT     H142652   2.435   6.850   4.511  1.4158  0.1959  1.6376
10483WAT     H242653   2.567   6.818   4.493  0.8897 -1.2440  0.0587
10483WAT    EPW42654   2.491   6.801   4.485  0.5962 -0.1767  0.4777
10484WAT      O42655   3.174   3.662   6.746  0.1841 -0.5467 -0.7427
10484WAT     H142656   3.203   3.744   6.748  0.6561 -0.6873  2.3659
10484WAT     H242657   3.244   3.615   6.766 -0.4492 -1.5641 -0.8295
10484WAT    EPW42658   3.188   3.667   6.749  0.1603 -0.7178 -0.2963
10485WAT      O42659   2.199   5.594   5.300  0.7119 -0.3728  0.7570
10485WAT     H142660   2.197   5.611   5.214  0.6537 -3.0191  0.1515
10485WAT     H242661   2.191   5.673   5.337 -2.6083  0.6229 -1.6306
10485WAT    EPW42662   2.197   5.609   5.293  0.2128 -0.6166  0.3149
10486WAT      O42663   4.177   5.974   2.452  0.1057  0.7234 -0.4919
10486WAT     H142664   4.186   5.910   2.511  0.4441 -1.6204 -2.8971
10486WAT     H242665   4.245   6.026   2.468  1.1022 -0.7312  0.1889
10486WAT    EPW42666   4.188   5.973   2.463  0.3029  0.1623 -0.7467
10487WAT      O42667   2.134   6.581   6.885 -0.5609  0.0853  0.2189
10487WAT     H142668   2.217   6.555   6.885  1.1172  4.6150  0.8858
10487WAT     H242669   2.120   6.606   6.803 -0.8883  0.3365  0.3490
10487WAT    EPW42670   2.144   6.581   6.873 -0.3614  0.7916  0.3366
10488WAT      O42671   6.985   4.851   0.219  0.3120  0.1359 -0.1490
10488WAT     H142672   6.905   4.816   0.213  0.4878 -0.1248 -1.2139
10488WAT     H242673   6.976   4.929   0.180  1.4787 -1.5598 -4.3010
10488WAT    EPW42674   6.972   4.857   0.213  0.5103 -0.1531 -0.9197
10489WAT      O42675   2.505   2.687   1.689  0.3360 -0.4317 -0.1774
10489WAT     H142676   2.481   2.626   1.632  1.6616 -0.6263 -0.5527
10489WAT     H242677   2.569   2.650   1.734 -0.5413 -0.2040  1.3367
10489WAT    EPW42678   2.511   2.673   1.687  0.4022 -0.4268 -0.0091
10490WAT      O42679   3.943   6.759   4.925  0.1049 -0.2916 -0.3909
10490WAT     H142680   3.911   6.727   4.850 -0.7143 -2.3937  0.7711
10490WAT     H242681   4.004   6.700   4.947 -0.6983 -0.5500  1.2989
10490WAT    EPW42682   3.947   6.745   4.917 -0.1348 -0.6403  0.0304
10491WAT      O42683   2.264   4.173   5.228  0.0849 -0.0625  0.1404
10491WAT     H142684   2.335   4.176   5.278 -0.2396 -0.0524  0.6122
10491WAT     H242685   2.231   4.254   5.235 -0.7462 -0.4599  1.0875
10491WAT    EPW42686   2.269   4.185   5.237 -0.0858 -0.1197  0.3500
10492WAT      O42687   1.666   6.376   4.944  0.1075 -0.3324  0.3812
10492WAT     H142688   1.702   6.416   5.013 -0.8548  0.4499  0.4424
10492WAT     H242689   1.721   6.394   4.879  2.3665 -3.0614  1.3112
10492WAT    EPW42690   1.679   6.384   4.945  0.2991 -0.6200  0.5276
10493WAT      O42691   4.002   3.680   1.426 -0.4481  0.1458  0.4047
10493WAT     H142692   3.962   3.628   1.484  0.0952  0.6445  1.2512
10493WAT     H242693   4.081   3.646   1.418  0.1621  1.2156  1.5228
10493WAT    EPW42694   4.008   3.667   1.433 -0.2777  0.3775  0.6949
10494WAT      O42695   2.680   1.388   1.784  0.9693  0.0638 -0.0730
10494WAT     H142696   2.654   1.434   1.715 -0.8159 -0.4306  0.2133
10494WAT     H242697   2.766   1.402   1.788  0.6073  2.8783 -0.3453
10494WAT    EPW42698   2.689   1.396   1.775  0.6521  0.4065 -0.0710
10495WAT      O42699   2.350   4.473   1.636 -0.1672  0.0554  0.5085
10495WAT     H142700   2.283   4.424   1.609  0.0644 -0.8072  1.4446
10495WAT     H242701   2.351   4.461   1.722  0.6148  0.8109  0.6192
10495WAT    EPW42702   2.340   4.464   1.645 -0.0174  0.0396  0.6632
10496WAT      O42703   1.792   6.652   6.256 -0.1184  0.4993 -0.1712
10496WAT     H142704   1.824   6.656   6.337  0.9243  0.2485 -0.5578
10496WAT     H242705   1.854   6.689   6.207  0.1203 -0.9974 -1.0724
10496WAT    EPW42706   1.806   6.658   6.260  0.0709  0.2412 -0.3614
10497WAT      O42707   6.743   7.081   5.051  0.5406 -0.2545  0.0825
10497WAT     H142708   6.734   7.153   5.099  1.4619  0.1679 -0.3428
10497WAT     H242709   6.667   7.040   5.060  0.2318  0.4615  0.8414
10497WAT    EPW42710   6.731   7.086   5.059  0.6311 -0.0864  0.1318
10498WAT      O42711   0.333   1.263   6.182 -0.3103 -0.2191 -0.5537
10498WAT     H142712   0.378   1.269   6.256 -0.9087 -1.2134 -0.0922
10498WAT     H242713   0.384   1.304   6.124 -0.3656  1.5898  0.6148
10498WAT    EPW42714   0.347   1.270   6.184 -0.4068 -0.0987 -0.3129
10499WAT      O42715   6.477   6.553   6.374  0.3792  0.5747 -0.0105
10499WAT     H142716   6.515   6.497   6.429  1.0212  1.7773  0.8130
10499WAT     H242717   6.523   6.626   6.384 -1.1357  1.6048 -0.1860
10499WAT    EPW42718   6.489   6.555   6.384  0.2503  0.9045  0.0852
10500WAT      O42719   3.188   5.199   6.793 -0.2322 -0.3655  0.1912
10500WAT     H142720   3.208   5.117   6.774  1.0887  0.0375 -0.2650
10500WAT     H242721   3.147   5.228   6.722  0.4106 -0.2783 -0.1516
10500WAT    EPW42722   3.185   5.191   6.780  0.0579 -0.2931  0.0732
10501WAT      O42723   3.511   7.026   7.466 -0.1177 -0.2385  0.3122
10501WAT     H142724   3.455   6.960   7.474 -0.5236  0.0641 -0.0097
10501WAT     H242725   3.472   7.080   7.410  0.5694 -0.1075 -0.0568
10501WAT    EPW42726   3.497   7.024   7.459 -0.0762 -0.1745  0.2101
10502WAT      O42727   2.951   5.458   0.658 -0.1364 -0.7889  0.7738
10502WAT     H142728   2.929   5.375   0.645 -1.3172 -0.5863  1.3800
10502WAT     H242729   2.934   5.496   0.581  1.6889 -1.3122  0.0359
10502WAT    EPW42730   2.946   5.451   0.645 -0.0412 -0.8363  0.7543
10503WAT      O42731   3.059   3.716   2.681 -0.4929 -0.8909  0.2246
10503WAT     H142732   2.978   3.711   2.715 -1.7059  1.8723 -1.9003
10503WAT     H242733   3.054   3.665   2.610 -1.2161  0.9513 -1.1472
10503WAT    EPW42734   3.046   3.708   2.675 -0.7789 -0.2106 -0.2919
10504WAT      O42735   3.934   3.728   7.406  0.4009 -0.2168  0.2496
10504WAT     H142736   3.988   3.670   7.442  1.1011  1.1300  1.4395
10504WAT     H242737   3.877   3.746   7.469 -0.0282  0.1164 -0.2218
10504WAT    EPW42738   3.934   3.722   7.420  0.4409  0.0314  0.3557
10505WAT      O42739   2.780   4.004   3.055 -0.1567 -0.3431  0.4811
10505WAT     H142740   2.736   3.947   3.007 -1.8683  0.7116  0.7182
10505WAT     H242741   2.800   3.958   3.127  1.2027 -1.5070 -0.5862
10505WAT    EPW42742   2.776   3.989   3.059 -0.2087 -0.3593  0.3585
10506WAT      O42743   0.405   3.896   5.733  0.8467  0.0383 -0.7459
10506WAT     H142744   0.485   3.882   5.703  0.6253  2.7774 -3.2264
10506WAT     H242745   0.412   3.971   5.778 -0.1111 -0.2736 -0.0346
10506WAT    EPW42746   0.418   3.905   5.735  0.6725  0.3968 -1.0072
10507WAT      O42747   1.530   5.668   7.615 -0.3375  0.0460 -0.3787
10507WAT     H142748   1.519   5.753   7.596 -0.7140  0.2212  0.5419
10507WAT     H242749   1.617   5.659   7.619 -0.2168  1.1672  2.5415
10507WAT    EPW42750   1.541   5.679   7.613 -0.3753  0.2375  0.1887
10508WAT      O42751   6.687   7.057   0.709 -0.7833 -0.7667 -0.4776
10508WAT     H142752   6.744   6.991   0.709  1.9127  1.1850  2.9494
10508WAT     H242753   6.647   7.049   0.786 -1.7859  0.5330 -0.8261
10508WAT    EPW42754   6.690   7.046   0.720 -0.5332 -0.2864 -0.0228
10509WAT      O42755   3.332   0.096   4.327 -0.1026 -0.0517 -0.1669
10509WAT     H142756   3.255   0.056   4.331 -0.1056 -0.6552 -3.3099
10509WAT     H242757   3.386   0.032   4.302  0.9595  0.8190 -0.1736
10509WAT    EPW42758   3.329   0.081   4.324  0.0539 -0.0122 -0.6322
10510WAT      O42759   0.748   3.276   6.115 -0.1898 -0.6622 -0.8651
10510WAT     H142760   0.809   3.329   6.148  0.4687 -2.7307  1.5480
10510WAT     H242761   0.789   3.233   6.052 -0.6131  1.2552 -2.5554
10510WAT    EPW42762   0.763   3.278   6.111 -0.1550 -0.6845 -0.7583
10511WAT      O42763   0.712   2.644   7.377 -0.6811  0.2112 -0.1964
10511WAT     H142764   0.718   2.701   7.311 -0.5961 -0.3500 -0.6804
10511WAT     H242765   0.766   2.580   7.353 -1.1704 -0.3151  0.0932
10511WAT    EPW42766   0.721   2.643   7.364 -0.7408  0.0505 -0.2251
10512WAT      O42767   4.001   6.201   1.229  0.3167 -0.7147 -0.1453
10512WAT     H142768   4.035   6.121   1.218 -1.9880 -1.6415 -1.4478
10512WAT     H242769   3.915   6.187   1.220 -0.2532  1.7676  0.7044
10512WAT    EPW42770   3.993   6.187   1.226 -0.1079 -0.4849 -0.2122
10513WAT      O42771   2.144   6.636   5.940  0.4076  0.1900  0.0458
10513WAT     H142772   2.170   6.575   5.997 -0.8107  0.1441  0.5890
10513WAT     H242773   2.085   6.681   5.984  1.2475  1.7652 -0.3766
10513WAT    EPW42774   2.139   6.633   5.955  0.3517  0.4159  0.0637
10514WAT      O42775   4.462   2.874   6.373 -0.0286  0.5193  0.1964
10514WAT     H142776   4.439   2.955   6.352 -0.0112  0.7861  1.1734
10514WAT     H242777   4.386   2.835   6.392  0.1893  1.2134  2.7754
10514WAT    EPW42778   4.448   2.880   6.372  0.0062  0.6612  0.7217
10515WAT      O42779   3.523   4.206   1.155 -0.0440 -0.1939  0.0445
10515WAT     H142780   3.582   4.209   1.091 -0.2104 -0.7546 -0.1355
10515WAT     H242781   3.464   4.149   1.127 -1.9852  2.0832 -0.9010
10515WAT    EPW42782   3.523   4.198   1.142 -0.3553  0.0597 -0.1218
10516WAT      O42783   2.889   4.378   6.353  0.5608 -0.2846 -0.5573
10516WAT     H142784   2.840   4.419   6.411  0.1479 -1.7274  0.1768
10516WAT     H242785   2.965   4.421   6.355  0.7553 -0.6193  1.4819
10516WAT    EPW42786   2.893   4.390   6.362  0.5285 -0.5472 -0.1476
10517WAT      O42787   2.801   4.271   2.412 -0.0002  0.5869 -0.2867
10517WAT     H142788   2.838   4.251   2.336  0.1313  1.1782 -0.3785
10517WAT     H242789   2.719   4.291   2.391 -0.2777 -0.3491 -0.1294
10517WAT    EPW42790   2.794   4.271   2.398 -0.0218  0.5360 -0.2770
10518WAT      O42791   2.803   3.307   6.241  0.1068  0.1312  0.2380
10518WAT     H142792   2.826   3.301   6.325  0.1222 -0.5240  0.1878
10518WAT     H242793   2.752   3.378   6.240  1.0525  0.8565  0.5823
10518WAT    EPW42794   2.799   3.317   6.253  0.2488  0.1415  0.2815
10519WAT      O42795   3.951   6.361   4.995 -0.3409 -0.1286  0.6328
10519WAT     H142796   3.991   6.434   4.970 -0.1195 -0.4269  0.1031
10519WAT     H242797   3.994   6.339   5.068 -2.7048  2.1973  2.9290
10519WAT    EPW42798   3.963   6.368   5.002 -0.6574  0.1709  0.8937
10520WAT      O42799   0.970   3.902   5.609 -0.2221 -0.0567 -0.1029
10520WAT     H142800   1.005   3.885   5.687 -0.2569 -0.4505 -0.1690
10520WAT     H242801   1.014   3.849   5.555  0.1789  0.6075 -0.4393
10520WAT    EPW42802   0.982   3.892   5.613 -0.1680 -0.0167 -0.1624
10521WAT      O42803   0.239   3.685   6.233  0.5356 -0.0376 -0.3227
10521WAT     H142804   0.203   3.726   6.164 -0.4161  1.9415  1.2394
10521WAT     H242805   0.187   3.707   6.299  0.5273 -3.1382  0.8435
10521WAT    EPW42806   0.226   3.694   6.233  0.3938 -0.2033  0.0803
10522WAT      O42807   3.465   7.659   6.475 -0.2455 -0.4402  0.0782
10522WAT     H142808   3.397   7.612   6.446  0.9892 -2.1508 -0.2269
10522WAT     H242809   3.460   7.733   6.429 -0.5777 -1.5050 -1.7125
10522WAT    EPW42810   3.454   7.663   6.464 -0.1122 -0.8502 -0.2314
10523WAT      O42811   3.166   4.491   5.864 -0.1576 -0.0578 -0.0664
10523WAT     H142812   3.097   4.449   5.899 -1.4992  1.9946 -0.0740
10523WAT     H242813   3.141   4.507   5.782  0.2507  0.8325 -0.0317
10523WAT    EPW42814   3.152   4.487   5.857 -0.2955  0.3769 -0.0624
10524WAT      O42815   0.599   4.786   4.469  0.0750 -0.0534 -0.0151
10524WAT     H142816   0.535   4.733   4.443 -0.5076  0.6120  0.0561
10524WAT     H242817   0.664   4.768   4.414 -0.4699 -0.0919 -0.6552
10524WAT    EPW42818   0.599   4.775   4.457 -0.0915  0.0392 -0.0991
10525WAT      O42819   1.967   1.837   4.864 -0.2385 -0.3210 -0.3869
10525WAT     H142820   2.033   1.868   4.816  0.2205 -0.4594  0.1464
10525WAT     H242821   1.965   1.752   4.844  1.4415 -0.8832  1.4949
10525WAT    EPW42822   1.976   1.829   4.854  0.0775 -0.4245 -0.0302
10526WAT      O42823   7.011   6.768   4.509  0.1012  0.2859 -0.2257
10526WAT     H142824   7.038   6.702   4.559  0.3691  0.4549 -0.1499
10526WAT     H242825   7.055   6.837   4.539 -0.4860  0.5860 -0.0303
10526WAT    EPW42826   7.022   6.768   4.521  0.0541  0.3552 -0.1856
10527WAT      O42827   4.610   5.252   6.207 -0.6555  0.5642 -0.0429
10527WAT     H142828   4.629   5.185   6.261 -0.0357  1.6483  1.1532
10527WAT     H242829   4.524   5.261   6.216 -0.3768  1.8926  2.3349
10527WAT    EPW42830   4.600   5.244   6.217 -0.5227  0.9206  0.4850
10528WAT      O42831   3.060   1.888   1.039 -0.3585  0.6181 -0.7136
10528WAT     H142832   3.005   1.956   1.042  0.5223  1.4665 -2.3267
10528WAT     H242833   3.066   1.871   0.954  0.9943 -0.1813 -0.4828
10528WAT    EPW42834   3.053   1.896   1.027 -0.0285  0.6253 -0.9178
10529WAT      O42835   3.252   0.298   0.454  0.8322  0.1686  0.7277
10529WAT     H142836   3.193   0.258   0.403  1.7905  0.2090 -0.4812
10529WAT     H242837   3.284   0.360   0.402  2.6281 -0.4866  0.9847
10529WAT    EPW42838   3.248   0.301   0.439  1.2391  0.0778  0.5871
10530WAT      O42839   7.303   3.984   4.302  0.3201  0.0476  0.2308
10530WAT     H142840   7.260   3.941   4.239 -1.1330 -0.8492  1.7383
10530WAT     H242841   7.292   3.934   4.372 -0.5907  2.3530  1.8745
10530WAT    EPW42842   7.295   3.970   4.303 -0.0291  0.2557  0.6963
10531WAT      O42843   2.113   3.892   1.928  0.1776  0.3400 -0.0321
10531WAT     H142844   2.028   3.902   1.914 -0.1798 -0.3278  1.4468
10531WAT     H242845   2.149   3.963   1.892 -0.9787  0.5509 -0.7995
10531WAT    EPW42846   2.106   3.904   1.921 -0.0460  0.2725  0.0730
10532WAT      O42847   7.659   1.702   6.564 -0.8556  0.1861 -0.2505
10532WAT     H142848   7.655   1.677   6.647  1.0482 -1.7612 -0.6379
10532WAT     H242849   7.708   1.640   6.527 -2.7299  0.2256 -3.1167
10532WAT    EPW42850   7.665   1.689   6.571 -0.8512 -0.0957 -0.7311
10533WAT      O42851   1.240   0.984   4.963  0.5501  0.1606 -0.1926
10533WAT     H142852   1.156   1.006   4.955  0.8456  1.0295 -1.1470
10533WAT     H242853   1.282   1.056   4.940  1.5552 -0.9545 -2.1398
10533WAT    EPW42854   1.233   0.998   4.958  0.7422  0.1242 -0.6212
10534WAT      O42855   4.106   6.715   5.189 -0.2412  0.6383 -0.0034
10534WAT     H142856   4.184   6.753   5.188  0.8859 -1.2984 -3.6231
10534WAT     H242857   4.122   6.636   5.224 -0.6246  0.3104 -0.5596
10534WAT    EPW42858   4.120   6.709   5.194 -0.1313  0.3038 -0.6202
10535WAT      O42859   3.089   6.334   7.052  0.3437  0.2972 -0.1147
10535WAT     H142860   3.128   6.273   7.003 -0.6366  0.7410 -1.4939
10535WAT     H242861   3.155   6.387   7.074  0.8789 -0.1625 -0.5672
10535WAT    EPW42862   3.104   6.333   7.048  0.2780  0.2948 -0.3853
10536WAT      O42863   3.744   7.081   1.660  0.5656 -0.7112 -0.1241
10536WAT     H142864   3.695   7.111   1.595 -1.1742  0.6333  1.6669
10536WAT     H242865   3.722   6.996   1.665  1.2581 -1.0150 -1.6664
10536WAT    EPW42866   3.733   7.073   1.651  0.4109 -0.5575 -0.0873
10537WAT      O42867   1.870   2.537   1.296  0.0752  0.0581  0.0801
10537WAT     H142868   1.902   2.601   1.346  0.4941  0.0910 -0.2335
10537WAT     H242869   1.910   2.548   1.220 -1.5622  0.8598 -0.7248
10537WAT    EPW42870   1.880   2.548   1.292 -0.1048  0.1814 -0.0851
10538WAT      O42871   0.747   2.168   7.333  0.1244  0.3554 -0.0090
10538WAT     H142872   0.790   2.105   7.290  0.3084  0.0366  0.6333
10538WAT     H242873   0.798   2.238   7.322  0.5299  0.1109  0.2765
10538WAT    EPW42874   0.761   2.169   7.325  0.2115  0.2722  0.1281
10539WAT      O42875   3.249   4.415   7.528  0.0096  0.1480 -0.2536
10539WAT     H142876   3.202   4.429   7.599 -2.8676  0.4778 -2.0816
10539WAT     H242877   3.248   4.328   7.519  0.6766  0.0773  0.2349
10539WAT    EPW42878   3.242   4.404   7.537 -0.3169  0.1863 -0.4514
10540WAT      O42879   0.725   3.969   5.701 -0.7522  0.0635 -0.7505
10540WAT     H142880   0.709   4.049   5.671 -0.7445 -0.3576 -1.9489
10540WAT     H242881   0.807   3.953   5.675  0.2658  0.6740  1.8471
10540WAT    EPW42882   0.735   3.978   5.692 -0.6007  0.0915 -0.5438
10541WAT      O42883   1.452   7.333   3.489  0.2648  0.5100 -0.0386
10541WAT     H142884   1.379   7.336   3.537 -0.4553  0.0075 -1.0628
10541WAT     H242885   1.516   7.332   3.549 -0.6041 -0.3032  0.9214
10541WAT    EPW42886   1.451   7.333   3.505  0.0301  0.3157 -0.0481
10542WAT      O42887   1.187   2.172   6.122  0.1885  0.2480 -0.4108
10542WAT     H142888   1.103   2.174   6.145  0.2461  1.0309 -0.2375
10542WAT     H242889   1.228   2.161   6.198  0.2981  1.0702 -0.3502
10542WAT    EPW42890   1.181   2.171   6.137  0.2132  0.4851 -0.3762
10543WAT      O42891   3.653   4.260   1.617 -0.2546 -0.3682 -0.3491
10543WAT     H142892   3.608   4.334   1.606 -1.0476 -0.9499 -1.1229
10543WAT     H242893   3.680   4.264   1.700 -0.1917  0.8276 -0.4165
10543WAT    EPW42894   3.651   4.271   1.628 -0.3625 -0.2775 -0.4734
10544WAT      O42895   2.671   2.054   1.568  0.2003  0.1107 -0.2861
10544WAT     H142896   2.622   1.985   1.584  0.1665  0.2228  0.1097
10544WAT     H242897   2.695   2.044   1.484  1.3990 -1.1403  0.1616
10544WAT    EPW42898   2.667   2.043   1.558  0.3724 -0.0576 -0.1615
10545WAT      O42899   2.211   3.350   5.575  0.3058  0.1789  0.1730
10545WAT     H142900   2.257   3.404   5.524 -1.0741  0.8519 -0.4063
10545WAT     H242901   2.131   3.384   5.574 -0.0788 -0.6058  1.6609
10545WAT    EPW42902   2.206   3.363   5.567  0.0452  0.1624  0.3072
10546WAT      O42903   2.238   3.890   2.194 -0.7619  0.2241 -0.0594
10546WAT     H142904   2.201   3.869   2.118 -0.3602 -2.0262  0.2952
10546WAT     H242905   2.179   3.943   2.232 -1.0625  1.2202 -1.7970
10546WAT    EPW42906   2.224   3.895   2.188 -0.7470  0.0388 -0.2637
10547WAT      O42907   3.898   2.728   1.606  0.0332 -0.8410  0.1140
10547WAT     H142908   3.830   2.720   1.551 -0.0521  1.0597 -0.1073
10547WAT     H242909   3.941   2.797   1.575  0.3095 -0.0747  2.0804
10547WAT    EPW42910   3.894   2.737   1.593  0.0614 -0.4470  0.3718
10548WAT      O42911   4.874   5.039   0.299 -0.0408  1.0067  0.0841
10548WAT     H142912   4.927   5.020   0.366  3.0591  0.7127 -2.1926
10548WAT     H242913   4.887   5.124   0.287  1.2987  0.6314 -1.4743
10548WAT    EPW42914   4.884   5.049   0.307  0.6150  0.9078 -0.4824
10549WAT      O42915   5.338   6.551   7.630 -0.3298  0.4115 -0.1691
10549WAT     H142916   5.391   6.589   7.689  0.4734  1.0484 -1.2482
10549WAT     H242917   5.375   6.473   7.617 -0.8665  0.0150  0.6097
10549WAT    EPW42918   5.352   6.545   7.637 -0.2904  0.4470 -0.2135
10550WAT      O42919   2.748   5.804   3.286  0.9060 -0.1645  0.1239
10550WAT     H142920   2.777   5.870   3.335  1.9102  0.1660 -0.8852
10550WAT     H242921   2.813   5.790   3.230 -0.0990 -0.7207 -0.9391
10550WAT    EPW42922   2.762   5.812   3.285  0.9059 -0.1978 -0.1822
10551WAT      O42923   5.232   0.843   0.454 -0.2471  0.1326  0.0808
10551WAT     H142924   5.260   0.783   0.396  1.2497  1.1490 -0.3172
10551WAT     H242925   5.217   0.913   0.405  0.0874  0.7101  0.7959
10551WAT    EPW42926   5.234   0.844   0.438  0.0234  0.3681  0.1277
10552WAT      O42927   4.705   6.018   7.386  0.7585 -0.6843  0.2197
10552WAT     H142928   4.672   5.938   7.373  1.7424 -1.1870  0.6672
10552WAT     H242929   4.782   6.016   7.345  0.4040  0.3649 -0.5544
10552WAT    EPW42930   4.712   6.006   7.378  0.8515 -0.6036  0.1715
10553WAT      O42931   4.306   4.707   7.648  0.2289  0.4802  0.0101
10553WAT     H142932   4.299   4.793   7.657 -0.0678  0.6266 -1.3374
10553WAT     H242933   4.327   4.679   7.728  0.2369  1.7840  0.4851
10553WAT    EPW42934   4.308   4.716   7.661  0.1862  0.6944 -0.1188
10554WAT      O42935   6.023   6.365   2.042 -0.6464 -0.0584  0.4153
10554WAT     H142936   5.968   6.420   2.002  0.9341  0.8538 -0.6599
10554WAT     H242937   5.989   6.286   2.026 -1.0904  0.4089 -1.1550
10554WAT    EPW42938   6.010   6.361   2.033 -0.4785  0.1453  0.0245
10555WAT      O42939   1.113   6.988   3.017  0.7826  0.2845  0.3239
10555WAT     H142940   1.171   6.924   3.005 -1.4759 -2.0618  1.0200
10555WAT     H242941   1.092   6.981   3.102 -1.2129  0.3352 -0.1161
10555WAT    EPW42942   1.118   6.977   3.028  0.1542 -0.0546  0.3617
10556WAT      O42943   3.725   5.390   1.820 -0.0519 -0.2786  0.1847
10556WAT     H142944   3.756   5.364   1.897 -0.8094  0.6879  0.8418
10556WAT     H242945   3.695   5.471   1.836  0.8261  0.4141 -1.3968
10556WAT    EPW42946   3.725   5.398   1.833 -0.0341 -0.0335  0.0482
10557WAT      O42947   2.633   4.903   5.935 -0.3268 -0.2501  0.1581
10557WAT     H142948   2.720   4.902   5.942 -0.2587 -1.4742 -0.6326
10557WAT     H242949   2.619   4.954   5.866 -0.1711 -0.7839 -0.2786
10557WAT    EPW42950   2.644   4.911   5.926 -0.2938 -0.5098 -0.0232
10558WAT      O42951   3.829   5.828   2.320  0.0471 -0.0488 -0.3503
10558WAT     H142952   3.761   5.845   2.372  1.9983 -0.4791  2.5474
10558WAT     H242953   3.842   5.904   2.278 -0.8540  0.7380  0.7385
10558WAT    EPW42954   3.821   5.842   2.321  0.2022  0.0038  0.2386
10559WAT      O42955   2.330   0.770   6.963  0.2164 -0.1031  0.2554
10559WAT     H142956   2.358   0.702   7.009  2.1320  0.7741  0.4745
10559WAT     H242957   2.263   0.738   6.918  0.4389 -1.8638  1.0826
10559WAT    EPW42958   2.324   0.755   6.963  0.5323 -0.2336  0.4099
10560WAT      O42959   3.756   4.717   0.217  0.3199  0.0807 -0.0074
10560WAT     H142960   3.755   4.790   0.264  0.0750 -0.1578  0.3616
10560WAT     H242961   3.672   4.693   0.214  0.5190 -0.7817  0.8199
10560WAT    EPW42962   3.743   4.724   0.224  0.3131 -0.0820  0.1693
10561WAT      O42963   5.256   7.632   3.382 -0.1744  0.1752 -0.2675
10561WAT     H142964   5.308   7.690   3.420  0.0658 -0.9266  1.1734
10561WAT     H242965   5.309   7.590   3.327  0.7529 -1.4406  1.7194
10561WAT    EPW42966   5.271   7.634   3.379 -0.0020 -0.2262  0.2388
10562WAT      O42967   1.832   2.401   3.492 -0.1825  0.2039 -0.0312
10562WAT     H142968   1.795   2.476   3.516 -0.1622  0.4914 -0.8674
10562WAT     H242969   1.914   2.409   3.520 -0.4584  0.0234  0.8569
10562WAT    EPW42970   1.839   2.413   3.500 -0.2202  0.2197 -0.0235
10563WAT      O42971   2.743   1.147   4.502 -0.1845 -0.5367  0.1027
10563WAT     H142972   2.788   1.216   4.474 -1.9878  0.3197 -0.8492
10563WAT     H242973   2.662   1.163   4.475 -1.1795 -1.8188  2.0784
10563WAT    EPW42974   2.738   1.159   4.494 -0.5979 -0.5996  0.2540
10564WAT      O42975   2.869   4.861   0.780 -0.1007 -0.0251  0.5339
10564WAT     H142976   2.810   4.923   0.797 -0.0993 -0.1171  0.8844
10564WAT     H242977   2.899   4.839   0.859  1.6308  1.1903  0.2605
10564WAT    EPW42978   2.864   4.867   0.794  0.1553  0.1409  0.5453
10565WAT      O42979   1.131   2.675   6.544  0.1341 -0.0725  0.0008
10565WAT     H142980   1.158   2.752   6.576 -1.2939  1.8925 -3.0998
10565WAT     H242981   1.206   2.632   6.527  0.9887  1.0582  0.7463
10565WAT    EPW42982   1.146   2.680   6.546  0.0494  0.3848 -0.3471
10566WAT      O42983   4.801   7.116   0.285  0.1279 -0.0956  1.0393
10566WAT     H142984   4.813   7.051   0.228 -0.7275 -0.0610  0.7987
10566WAT     H242985   4.730   7.092   0.329 -0.5020  0.8832  0.6181
10566WAT    EPW42986   4.792   7.103   0.283 -0.0915  0.0541  0.9415
10567WAT      O42987   2.037   4.057   2.290 -1.3338  0.1864 -0.4546
10567WAT     H142988   2.051   4.094   2.212 -0.1519  0.5718 -0.0929
10567WAT     H242989   1.977   3.997   2.274 -1.6396  0.7481 -1.5198
10567WAT    EPW42990   2.030   4.054   2.276 -1.2044  0.3263 -0.5585
10568WAT      O42991   5.619   5.199   7.416  0.2588 -0.1523  0.1231
10568WAT     H142992   5.619   5.172   7.334 -1.2027 -1.2771  0.4583
10568WAT     H242993   5.697   5.175   7.446  0.8007  0.2633 -0.9083
10568WAT    EPW42994   5.630   5.192   7.409  0.1229 -0.2570  0.0202
10569WAT      O42995   1.077   7.006   7.013 -0.1339  0.2540  0.3158
10569WAT     H142996   1.014   6.949   6.995  0.3027  0.0689 -0.7288
10569WAT     H242997   1.035   7.081   7.024 -0.4699  0.4698 -1.9320
10569WAT    EPW42998   1.062   7.009   7.012 -0.1191  0.2586 -0.1706
10570WAT      O42999   2.981   5.612   7.503 -0.1777  0.0431  0.3257
10570WAT     H143000   2.992   5.639   7.421 -0.5188  1.1794  0.6245
10570WAT     H243001   3.042   5.550   7.513  0.7438  0.7954 -0.3982
10570WAT    EPW43002   2.992   5.607   7.492 -0.0919  0.3221  0.2629
10571WAT      O43003   0.059   5.397   4.567 -0.3160 -0.3698 -0.0256
10571WAT     H143004   0.110   5.464   4.586  0.5693 -1.0542  0.0832
10571WAT     H243005   0.060   5.349   4.640 -0.7032 -0.6555 -0.2005
10571WAT    EPW43006   0.067   5.400   4.580 -0.2424 -0.5131 -0.0354
10572WAT      O43007   2.795   0.129   0.164  0.1073 -0.4284  0.4910
10572WAT     H143008   2.751   0.058   0.188 -0.7113  0.2361  1.0659
10572WAT     H243009   2.732   0.188   0.150  0.7299 -0.0030 -0.6209
10572WAT    EPW43010   2.779   0.127   0.165  0.0784 -0.2674  0.4117
10573WAT      O43011   6.697   4.306   6.565  0.7784 -0.3854  0.6291
10573WAT     H143012   6.612   4.317   6.581  0.8872  0.2316  0.7813
10573WAT     H243013   6.726   4.387   6.550  0.8535 -0.7883 -1.8534
10573WAT    EPW43014   6.689   4.319   6.565  0.8056 -0.3538  0.2848
10574WAT      O43015   1.995   6.830   1.136  0.7794 -0.2859  0.3400
10574WAT     H143016   1.999   6.915   1.114  1.4442 -0.2715  0.5229
10574WAT     H243017   2.078   6.807   1.148  0.5536 -0.7837  1.0036
10574WAT    EPW43018   2.008   6.839   1.134  0.8443 -0.3573  0.4651
10575WAT      O43019   4.351   5.141   2.919 -0.0259 -0.3198 -0.3103
10575WAT     H143020   4.336   5.112   2.838 -1.7637  0.0257 -0.1417
10575WAT     H243021   4.353   5.068   2.967 -0.4499 -0.4284 -0.4554
10575WAT    EPW43022   4.349   5.126   2.914 -0.3452 -0.2848 -0.3068
10576WAT      O43023   2.303   1.493   5.008 -0.6956 -0.2561 -0.1686
10576WAT     H143024   2.330   1.560   4.959  0.5381 -0.1592  0.5995
10576WAT     H243025   2.366   1.434   4.998 -0.8545 -0.5722  0.6257
10576WAT    EPW43026   2.316   1.494   5.000 -0.5368 -0.2885  0.0622
10577WAT      O43027   5.377   1.791   0.418 -0.1966  0.6145 -0.5240
10577WAT     H143028   5.441   1.776   0.475  0.4980 -0.6608 -1.5806
10577WAT     H243029   5.306   1.796   0.468  0.7040  2.1979  0.6949
10577WAT    EPW43030   5.376   1.790   0.434  0.0391  0.6600 -0.5000
10578WAT      O43031   2.120   5.486   2.863  0.5628  0.1067 -0.0128
10578WAT     H143032   2.075   5.549   2.823  0.7157  0.3766  0.2440
10578WAT     H243033   2.140   5.520   2.940  2.0825  0.3664 -0.4943
10578WAT    EPW43034   2.116   5.500   2.869  0.8099  0.1849 -0.0460
10579WAT      O43035   2.071   5.951   2.080  0.1041 -0.4373 -0.2755
10579WAT     H143036   2.069   6.027   2.037 -2.6156 -0.2997 -0.0758
10579WAT     H243037   2.130   5.964   2.143 -2.6756  2.9087  2.0033
10579WAT    EPW43038   2.079   5.964   2.083 -0.7083  0.0773  0.0906
10580WAT      O43039   1.927   2.531   6.279 -0.0924 -0.4500 -0.0416
10580WAT     H143040   1.974   2.599   6.307 -0.0296 -0.4862 -0.0566
10580WAT     H243041   1.868   2.566   6.226 -1.0826 -0.2155  1.1646
10580WAT    EPW43042   1.925   2.546   6.276 -0.2294 -0.4207  0.1344
10581WAT      O43043   3.170   4.405   6.454 -0.2525  0.6127  0.1671
10581WAT     H143044   3.124   4.337   6.485 -0.5261  0.9022  0.4021
10581WAT     H243045   3.200   4.375   6.378 -0.3455  0.2148  0.2813
10581WAT    EPW43046   3.167   4.390   6.447 -0.3066  0.5967  0.2187
10582WAT      O43047   1.735   3.546   6.428  0.5015 -0.4565 -0.1796
10582WAT     H143048   1.684   3.531   6.359  1.0030 -0.5487 -0.5428
10582WAT     H243049   1.809   3.576   6.392  0.3880  0.5283  0.3878
10582WAT    EPW43050   1.739   3.548   6.413  0.5588 -0.3246 -0.1495
10583WAT      O43051   2.274   5.423   4.299  0.1936  0.4045 -0.1947
10583WAT     H143052   2.319   5.372   4.244  0.0379  1.2532 -1.1388
10583WAT     H243053   2.234   5.366   4.352  1.9792 -0.4110  0.3981
10583WAT    EPW43054   2.275   5.407   4.299  0.4344  0.4094 -0.2466
10584WAT      O43055   4.148   1.539   4.165 -0.0333  0.7508 -0.1281
10584WAT     H143056   4.197   1.542   4.093  0.8262 -2.0209  0.2273
10584WAT     H243057   4.205   1.553   4.230 -0.5862  2.0669  0.0908
10584WAT    EPW43058   4.163   1.541   4.164  0.0120  0.5357 -0.0432
10585WAT      O43059   0.927   4.571   7.795 -0.0418 -0.0376  0.3907
10585WAT     H143060   0.997   4.556   7.745 -0.1016 -1.1026  0.6000
10585WAT     H243061   0.876   4.621   7.745  0.3705 -0.1932 -0.1961
10585WAT    EPW43062   0.930   4.577   7.780  0.0103 -0.2179  0.3349
10586WAT      O43063   7.491   0.093   5.804  0.0137  0.3077 -0.0201
10586WAT     H143064   7.540   0.118   5.736  1.9042 -2.2629  0.2327
10586WAT     H243065   7.436   0.035   5.769 -0.6695  0.7786  0.2600
10586WAT    EPW43066   7.490   0.088   5.789  0.1920 -0.0025  0.0586
10587WAT      O43067   7.722   6.597   4.568  0.5113  0.5186 -0.2941
10587WAT     H143068   7.687   6.624   4.643  0.6538 -0.4868  0.1452
10587WAT     H243069   7.662   6.543   4.535  0.6768  0.5495 -0.6497
10587WAT    EPW43070   7.708   6.593   4.574  0.5568  0.3747 -0.2818
10588WAT      O43071   2.395   3.664   1.125  0.0146  0.4458 -0.6751
10588WAT     H143072   2.375   3.729   1.070 -0.1493  0.4547 -0.6050
10588WAT     H243073   2.327   3.660   1.178 -0.8550 -0.9857 -1.8068
10588WAT    EPW43074   2.382   3.673   1.125 -0.1380  0.2357 -0.8319
10589WAT      O43075   2.605   2.107   4.091  0.5767 -0.0657  0.2612
10589WAT     H143076   2.676   2.145   4.056 -0.7622  2.8464  0.4586
10589WAT     H243077   2.590   2.040   4.038  1.9805  0.8090 -1.3465
10589WAT    EPW43078   2.613   2.103   4.078  0.5863  0.4937  0.0529
10590WAT      O43079   1.608   5.156   2.114  0.2976  0.3057 -0.0448
10590WAT     H143080   1.653   5.148   2.039  1.0386 -0.2634  0.4448
10590WAT     H243081   1.615   5.241   2.133 -1.1616  0.7743 -1.3752
10590WAT    EPW43082   1.616   5.167   2.106  0.1915  0.2908 -0.1690
10591WAT      O43083   3.097   4.111   0.638  0.2249 -0.3022  0.7863
10591WAT     H143084   3.091   4.044   0.582  0.8444 -1.3581  1.9528
10591WAT     H243085   3.168   4.093   0.685 -0.3800  0.4699  2.0552
10591WAT    EPW43086   3.107   4.099   0.636  0.2270 -0.3441  1.1461
10592WAT      O43087   0.901   0.087   6.542  0.5549  0.0672  0.4934
10592WAT     H143088   0.971   0.058   6.498  1.3137  2.1531  0.1993
10592WAT     H243089   0.868   0.149   6.489 -0.7179  0.0726  1.2464
10592WAT    EPW43090   0.906   0.092   6.527  0.4790  0.3761  0.5612
10593WAT      O43091   0.163   1.011   5.894  0.2163  0.4319 -0.3077
10593WAT     H143092   0.159   0.937   5.849  0.8934 -0.5378  1.1496
10593WAT     H243093   0.099   1.003   5.953  1.8195 -0.1559  1.4509
10593WAT    EPW43094   0.153   0.999   5.896  0.5531  0.2018  0.1674
10594WAT      O43095   0.503   4.006   4.168  0.3478  0.4968 -0.0829
10594WAT     H143096   0.571   3.953   4.162  0.2563  0.4529 -0.9451
10594WAT     H243097   0.532   4.074   4.215  1.0196  0.5294 -0.5380
10594WAT    EPW43098   0.517   4.008   4.174  0.4335  0.4951 -0.2775
10595WAT      O43099   0.131   5.220   6.227 -0.0188 -0.1958  0.1602
10595WAT     H143100   0.194   5.196   6.171  1.5671  0.4569  1.5685
10595WAT     H243101   0.125   5.306   6.216 -1.4649 -0.3814 -0.7066
10595WAT    EPW43102   0.140   5.229   6.217  0.0018 -0.1268  0.2402
10596WAT      O43103   2.946   7.432   7.073 -0.7467 -0.2778 -0.4694
10596WAT     H143104   2.917   7.511   7.096  1.2794  0.5175 -0.4054
10596WAT     H243105   2.935   7.431   6.986 -0.7220  0.1093 -0.4784
10596WAT    EPW43106   2.940   7.444   7.063 -0.4437 -0.1031 -0.4613
10597WAT      O43107   6.144   2.415   0.469  0.3888  0.0442  0.2853
10597WAT     H143108   6.167   2.331   0.460 -1.5986 -0.4645 -0.5036
10597WAT     H243109   6.219   2.458   0.454  1.2805 -1.5466 -0.0900
10597WAT    EPW43110   6.158   2.409   0.466  0.2270 -0.2660  0.1133
10598WAT      O43111   6.630   2.073   7.763 -0.3109  0.2345 -0.0815
10598WAT     H143112   6.596   2.140   7.718  0.7485 -0.5567 -2.2128
10598WAT     H243113   6.561   2.021   7.777 -0.8081  0.8713 -0.1045
10598WAT    EPW43114   6.615   2.075   7.759 -0.2278  0.2117 -0.3997
10599WAT      O43115   2.984   3.990   7.418  0.1573 -0.2420  0.4835
10599WAT     H143116   3.038   3.949   7.473 -0.3130  0.5846  1.5905
10599WAT     H243117   2.932   3.926   7.389 -0.4003 -0.5085  1.9801
10599WAT    EPW43118   2.984   3.975   7.421  0.0055 -0.1593  0.8681
10600WAT      O43119   2.876   2.510   2.073  0.1279  0.0918  0.0427
10600WAT     H143120   2.811   2.516   2.130 -1.4474 -1.2242 -1.5140
10600WAT     H243121   2.852   2.564   2.009 -0.0477 -1.2435 -1.0659
10600WAT    EPW43122   2.863   2.519   2.072 -0.1307 -0.2999 -0.3510
10601WAT      O43123   1.862   5.769   0.394  0.0720 -0.3600 -0.3553
10601WAT     H143124   1.795   5.814   0.427 -0.1219 -0.7925 -0.1593
10601WAT     H243125   1.928   5.827   0.396 -0.5182  0.4008 -1.4723
10601WAT    EPW43126   1.862   5.785   0.399 -0.0438 -0.3115 -0.4913
10602WAT      O43127   2.099   3.631   0.521  0.1136  0.0375 -0.4447
10602WAT     H143128   2.106   3.718   0.521  0.0076  0.0834  1.3121
10602WAT     H243129   2.019   3.618   0.489 -0.5115  0.6993  0.7714
10602WAT    EPW43130   2.088   3.642   0.516  0.0056  0.1421 -0.0056
10603WAT      O43131   6.989   4.645   7.518  0.5597 -0.2469 -0.3048
10603WAT     H143132   6.985   4.679   7.438  1.0454 -3.5625 -1.8713
10603WAT     H243133   7.073   4.625   7.528  0.3363 -0.7690  0.6491
10603WAT    EPW43134   7.000   4.647   7.508  0.5984 -0.8138 -0.3953
10604WAT      O43135   1.284   7.250   6.733  0.3408 -0.8679  0.2098
10604WAT     H143136   1.238   7.177   6.744 -0.6621 -0.3038 -0.1470
10604WAT     H243137   1.255   7.303   6.795  1.8716 -1.1153  1.2078
10604WAT    EPW43138   1.273   7.247   6.744  0.4187 -0.8211  0.3045
10605WAT      O43139   2.716   4.900   6.473  0.2139 -0.4158  0.4976
10605WAT     H143140   2.726   4.941   6.550  1.0554  1.0479 -0.3309
10605WAT     H243141   2.798   4.887   6.447 -0.0581 -0.5010 -0.3397
10605WAT    EPW43142   2.730   4.904   6.481  0.2980 -0.2122  0.2516
10606WAT      O43143   7.097   0.253   4.281  0.1659  0.0259 -0.3895
10606WAT     H143144   7.156   0.216   4.229  0.0151  1.8252 -1.9453
10606WAT     H243145   7.021   0.220   4.254  0.1592  0.3581 -0.7796
10606WAT    EPW43146   7.095   0.243   4.270  0.1426  0.3408 -0.6770
10607WAT      O43147   2.312   3.143   2.760  0.3178 -0.4973  0.1969
10607WAT     H143148   2.272   3.066   2.750 -0.7256  0.0484  0.0660
10607WAT     H243149   2.393   3.121   2.785 -0.0016 -1.6298  0.2759
10607WAT    EPW43150   2.318   3.128   2.762  0.1165 -0.5840  0.1892
10608WAT      O43151   6.872   1.926   7.724 -0.6247 -0.1912  0.3663
10608WAT     H143152   6.918   1.971   7.783  0.5799  0.8605 -1.3045
10608WAT     H243153   6.792   1.961   7.730 -1.4277 -2.1490  3.4162
10608WAT    EPW43154   6.867   1.938   7.734 -0.5653 -0.3251  0.5700
10609WAT      O43155   4.037   1.713   7.560 -0.1266  0.6401  0.0708
10609WAT     H143156   4.086   1.651   7.522 -0.8673  1.0899 -1.6977
10609WAT     H243157   4.095   1.769   7.592  0.5381 -0.4030  0.7350
10609WAT    EPW43158   4.053   1.712   7.559 -0.1378  0.5524 -0.0923
10610WAT      O43159   7.322   2.173   6.164  0.4099  0.6366 -0.0528
10610WAT     H143160   7.369   2.188   6.092 -0.2129  1.1498 -0.3631
10610WAT     H243161   7.317   2.252   6.201  1.0623  0.3082  0.7737
10610WAT    EPW43162   7.328   2.187   6.159  0.4143  0.6639  0.0234
10611WAT      O43163   1.779   1.957   7.511 -0.5188  0.4321 -0.1425
10611WAT     H143164   1.834   2.013   7.550 -0.8214 -0.2174  1.2836
10611WAT     H243165   1.827   1.923   7.447  0.3005  0.9038  0.2002
10611WAT    EPW43166   1.794   1.960   7.507 -0.4425  0.4058  0.1188
10612WAT      O43167   3.117   1.837   1.469 -0.0280 -0.0242  0.4067
10612WAT     H143168   3.085   1.770   1.424  0.7203 -0.2262  0.1551
10612WAT     H243169   3.075   1.906   1.436  0.2554 -0.2117 -0.3588
10612WAT    EPW43170   3.106   1.837   1.457  0.1244 -0.0817  0.2565
10613WAT      O43171   2.613   7.415   2.639 -0.2649  0.6532  0.1933
10613WAT     H143172   2.671   7.359   2.673 -0.6169 -0.3139 -0.7469
10613WAT     H243173   2.560   7.363   2.593 -0.8651  1.7241 -0.3349
10613WAT    EPW43174   2.614   7.399   2.637 -0.4056  0.6685 -0.0236
10614WAT      O43175   7.622   1.075   4.582 -0.1824 -0.1575 -0.0235
10614WAT     H143176   7.587   1.155   4.578  0.9980  0.4332  0.9901
10614WAT     H243177   7.651   1.062   4.501 -1.7885 -0.2509 -0.6246
10614WAT    EPW43178   7.621   1.085   4.569 -0.2453 -0.0840  0.0375
10615WAT      O43179   1.576   0.609   7.209 -0.0575 -0.1182 -0.1215
10615WAT     H143180   1.555   0.551   7.147  1.7864  1.0216 -1.9866
10615WAT     H243181   1.515   0.671   7.200 -0.2359 -0.3155 -0.2941
10615WAT    EPW43182   1.564   0.610   7.198  0.1885  0.0210 -0.4225
10616WAT      O43183   7.727   3.959   7.398 -0.0644  1.2218 -1.0761
10616WAT     H143184   7.740   3.917   7.323 -0.5027  1.5757 -1.3573
10616WAT     H243185   7.775   3.914   7.456 -0.3031  0.5083 -1.4221
10616WAT    EPW43186   7.736   3.946   7.396 -0.1644  1.1687 -1.1687
10617WAT      O43187   2.047   4.148   5.961 -0.0156 -0.4715  0.5639
10617WAT     H143188   2.080   4.067   5.968 -1.8311 -1.2764  0.5946
10617WAT     H243189   1.969   4.141   6.000 -1.1266  0.7023 -1.2773
10617WAT    EPW43190   2.040   4.135   5.968 -0.4479 -0.4170  0.2964
10618WAT      O43191   2.136   4.339   1.548 -0.1122 -0.1301 -0.2009
10618WAT     H143192   2.156   4.354   1.464  0.6338 -1.6339 -0.3217
10618WAT     H243193   2.062   4.384   1.559 -1.1475 -1.2081 -2.1540
10618WAT    EPW43194   2.128   4.348   1.537 -0.1549 -0.5115 -0.5073
10619WAT      O43195   0.926   0.845   4.283  0.1892 -0.2493  0.0019
10619WAT     H143196   0.877   0.821   4.351 -0.4282 -0.7411 -0.6053
10619WAT     H243197   0.979   0.777   4.270 -1.1637 -1.0938 -1.3518
10619WAT    EPW43198   0.927   0.832   4.291 -0.1018 -0.4467 -0.2877
10620WAT      O43199   3.927   5.340   1.377  0.4863  0.1778  0.6157
10620WAT     H143200   3.927   5.337   1.464  0.5327 -2.5073  0.6071
10620WAT     H243201   3.844   5.322   1.356  0.5937  0.2618  0.0998
10620WAT    EPW43202   3.915   5.337   1.387  0.5090 -0.2065  0.5382
10621WAT      O43203   0.010   6.981   7.044  0.0207  0.3201 -0.0265
10621WAT     H143204  -0.024   6.942   7.114  0.5739  0.5226  0.3621
10621WAT     H243205   0.064   7.041   7.078  1.3438 -0.4977 -0.6073
10621WAT    EPW43206   0.013   6.984   7.059  0.2979  0.2292 -0.0549
10622WAT      O43207   0.170   2.916   4.341 -0.0288  0.2923  0.4749
10622WAT     H143208   0.200   2.834   4.340 -0.0643  0.2647 -1.2383
10622WAT     H243209   0.099   2.912   4.290 -1.2673  0.9798  2.0545
10622WAT    EPW43210   0.164   2.903   4.334 -0.2170  0.3898  0.4552
10623WAT      O43211   0.523   4.971   0.136  0.1175  0.5501  0.1119
10623WAT     H143212   0.534   5.046   0.179 -1.8161  0.6506  0.5029
10623WAT     H243213   0.441   4.949   0.153  0.6457 -1.7065  0.0581
10623WAT    EPW43214   0.512   4.979   0.145 -0.0901  0.2316  0.1617
10624WAT      O43215   0.587   6.326   7.782  0.2210  1.1727  0.0253
10624WAT     H143216   0.640   6.265   7.749 -1.2489 -0.3218  0.2776
10624WAT     H243217   0.554   6.366   7.712 -0.6900 -0.0439 -0.2781
10624WAT    EPW43218   0.590   6.323   7.767 -0.1307  0.7722  0.0178
10625WAT      O43219   3.557   4.978   0.031 -0.5291  0.0271  0.5550
10625WAT     H143220   3.525   4.896   0.031 -1.6678  0.3236 -3.0335
10625WAT     H243221   3.635   4.969  -0.008 -0.6693  0.6862  0.1335
10625WAT    EPW43222   3.564   4.964   0.025 -0.7181  0.1683 -0.0373
10626WAT      O43223   4.476   3.949   6.464  0.2367 -0.8878  0.4323
10626WAT     H143224   4.429   3.946   6.537 -0.7858 -1.0931 -0.2233
10626WAT     H243225   4.417   3.952   6.401  1.1090  0.5337 -0.3586
10626WAT    EPW43226   4.460   3.949   6.466  0.2145 -0.7081  0.2186
10627WAT      O43227   2.872   6.026   7.617  0.0695 -0.3430 -0.1810
10627WAT     H143228   2.849   6.106   7.591  1.3409  0.4098  0.8744
10627WAT     H243229   2.899   5.987   7.543  0.6479  0.6535 -0.5081
10627WAT    EPW43230   2.872   6.032   7.602  0.3427 -0.0846 -0.0734
10628WAT      O43231   2.294   2.661   5.831  0.3820 -0.1563 -1.0218
10628WAT     H143232   2.246   2.734   5.829  0.8233  0.1371 -1.0569
10628WAT     H243233   2.258   2.615   5.896 -0.2379 -0.1465 -1.3468
10628WAT    EPW43234   2.282   2.665   5.840  0.3556 -0.1115 -1.0750
10629WAT      O43235   0.774   7.200   7.558 -0.0379 -0.8424 -0.3723
10629WAT     H143236   0.759   7.253   7.490  2.6107  2.2630  1.2015
10629WAT     H243237   0.732   7.239   7.624  3.2347  0.4415  1.1723
10629WAT    EPW43238   0.765   7.214   7.558  0.8368 -0.1940  0.0883
10630WAT      O43239   6.904   1.516   5.431  0.5030  0.1323  0.0278
10630WAT     H143240   6.958   1.508   5.363 -0.3594 -3.8507 -0.4235
10630WAT     H243241   6.838   1.563   5.398  0.8749 -0.2796 -1.4138
10630WAT    EPW43242   6.902   1.522   5.416  0.4305 -0.5170 -0.2518
10631WAT      O43243   7.311   4.048   6.638 -0.5990  0.0225  0.0619
10631WAT     H143244   7.260   4.112   6.666 -0.7587 -0.4690  0.9327
10631WAT     H243245   7.344   4.014   6.712 -0.8479 -1.1615 -0.3504
10631WAT    EPW43246   7.309   4.052   6.653 -0.6593 -0.2250  0.1297
10632WAT      O43247   2.331   1.589   2.647 -0.4700  0.5079 -0.2232
10632WAT     H143248   2.374   1.526   2.604 -0.6812 -0.2137  0.5804
10632WAT     H243249   2.248   1.576   2.626 -0.7368 -0.6555  1.3046
10632WAT    EPW43250   2.325   1.578   2.638 -0.5406  0.2294  0.1212
10633WAT      O43251   2.662   4.273   6.169  0.4785 -0.7090 -0.4029
10633WAT     H143252   2.660   4.287   6.083  1.5779 -3.1078 -0.8944
10633WAT     H243253   2.745   4.286   6.191  0.5391 -1.6426 -0.0281
10633WAT    EPW43254   2.674   4.277   6.160  0.6499 -1.2013 -0.4201
10634WAT      O43255   2.785   7.295   4.209 -0.4914 -0.2434 -0.5149
10634WAT     H143256   2.854   7.259   4.170  0.7101 -0.8649  1.9318
10634WAT     H243257   2.720   7.238   4.193  0.2650 -1.1174 -0.5324
10634WAT    EPW43258   2.785   7.281   4.201 -0.2022 -0.4643 -0.1560
10635WAT      O43259   1.915   0.231   3.457  0.2044 -0.3804 -0.1275
10635WAT     H143260   1.912   0.251   3.542 -1.7134 -1.0803  0.0101
10635WAT     H243261   1.935   0.307   3.419  2.4011 -0.3207  0.9931
10635WAT    EPW43262   1.917   0.245   3.464  0.2456 -0.4749  0.0583
10636WAT      O43263   3.847   6.526   7.786 -0.0496  0.2106  0.1773
10636WAT     H143264   3.932   6.514   7.800  0.0470 -0.1872 -0.7009
10636WAT     H243265   3.817   6.445   7.772 -0.3423  0.4708 -0.7357
10636WAT    EPW43266   3.855   6.512   7.786 -0.0786  0.1903 -0.0873
10637WAT      O43267   3.054   3.146   4.368  0.3213 -0.1107 -0.1201
10637WAT     H143268   3.139   3.160   4.360  0.0234  1.7227 -0.4664
10637WAT     H243269   3.020   3.226   4.376 -1.3756 -0.7880 -0.0187
10637WAT    EPW43270   3.061   3.160   4.368  0.0267  0.0601 -0.1563
10638WAT      O43271   6.029   3.840   3.959  0.1023  0.2568  0.2705
10638WAT     H143272   6.022   3.789   3.889 -0.3057  0.3870  0.2131
10638WAT     H243273   6.095   3.805   4.004  0.7435  0.5029 -0.4482
10638WAT    EPW43274   6.038   3.828   3.956  0.1368  0.3124  0.1559
10639WAT      O43275   3.298   5.588   4.576 -0.0413  0.2523  0.0296
10639WAT     H143276   3.338   5.633   4.640  0.9722  0.1351 -0.5044
10639WAT     H243277   3.355   5.524   4.557 -1.3665 -1.1730  0.6430
10639WAT    EPW43278   3.312   5.585   4.583 -0.0874  0.0244  0.0413
10640WAT      O43279   6.843   2.819   0.109 -0.0765  0.2510 -0.1514
10640WAT     H143280   6.915   2.773   0.091  0.0127 -0.1881  1.2344
10640WAT     H243281   6.780   2.759   0.108 -0.0945  0.2404  0.7519
10640WAT    EPW43282   6.845   2.803   0.106 -0.0660  0.1846  0.1867
10641WAT      O43283   0.968   2.854   7.124 -0.2092  0.0199 -0.0536
10641WAT     H143284   1.049   2.850   7.155 -0.0473  0.2094 -0.4405
10641WAT     H243285   0.965   2.932   7.086 -0.6190  0.0720  0.0823
10641WAT    EPW43286   0.980   2.865   7.123 -0.2458  0.0556 -0.0907
10642WAT      O43287   4.773   5.357   7.443 -0.4487  0.6454 -0.0516
10642WAT     H143288   4.784   5.443   7.433 -1.7946  0.9838  1.1565
10642WAT     H243289   4.728   5.350   7.517 -1.8881 -1.0080 -1.0223
10642WAT    EPW43290   4.768   5.369   7.452 -0.8602  0.4511 -0.0165
10643WAT      O43291   0.552   1.745   7.558  1.0999  0.1016 -0.6616
10643WAT     H143292   0.575   1.778   7.480  1.3221  1.0584 -0.2021
10643WAT     H243293   0.625   1.752   7.605  1.1410 -1.0143 -0.5185
10643WAT    EPW43294   0.566   1.751   7.553  1.1388  0.0781 -0.5726
10644WAT      O43295   4.380   6.721   6.023 -0.6602  0.0431  0.2550
10644WAT     H143296   4.310   6.699   6.069 -0.3695  0.8566  1.1208
10644WAT     H243297   4.431   6.762   6.081 -0.3662  1.2877 -0.8261
10644WAT    EPW43298   4.377   6.724   6.038 -0.5738  0.3471  0.2232
10645WAT      O43299   4.012   4.062   5.085  0.0434  0.2907  0.3120
10645WAT     H143300   3.964   4.002   5.126  0.3344  0.9295  1.6415
10645WAT     H243301   3.955   4.126   5.068  0.2589  0.7282  1.2140
10645WAT    EPW43302   3.996   4.063   5.088  0.1182  0.4497  0.6417
10646WAT      O43303   0.884   5.377   4.564 -0.1406  0.6545  0.7817
10646WAT     H143304   0.844   5.341   4.495  0.5473  0.8124  0.2877
10646WAT     H243305   0.902   5.309   4.616  1.5147  0.1879 -0.3288
10646WAT    EPW43306   0.881   5.362   4.562  0.2056  0.6089  0.5447
10647WAT      O43307   1.413   2.848   7.089  0.2913  0.5951 -0.1279
10647WAT     H143308   1.371   2.830   7.163  0.6283  0.8594  0.1325
10647WAT     H243309   1.368   2.914   7.054  0.9272  1.3946  0.5343
10647WAT    EPW43310   1.400   2.855   7.095  0.4350  0.7522  0.0084
10648WAT      O43311   3.787   5.399   0.578  0.2620 -0.4807 -0.4261
10648WAT     H143312   3.761   5.389   0.496  0.5626 -1.0287 -0.4576
10648WAT     H243313   3.739   5.342   0.622 -0.1988  0.1026 -0.1527
10648WAT    EPW43314   3.776   5.389   0.573  0.2383 -0.4755 -0.3904
10649WAT      O43315   1.814   5.088   5.673 -0.0901  0.5180  0.0599
10649WAT     H143316   1.857   5.132   5.735  0.8295  0.0520 -0.2157
10649WAT     H243317   1.830   5.135   5.600  0.0243  0.2982 -0.0582
10649WAT    EPW43318   1.823   5.102   5.671  0.0626  0.4167  0.0018
10650WAT      O43319   7.731   6.404   0.223  0.7793  0.2819 -0.5465
10650WAT     H143320   7.747   6.406   0.137  0.1198  1.0452 -0.6620
10650WAT     H243321   7.809   6.387   0.257  1.1619  0.5176 -1.2703
10650WAT    EPW43322   7.745   6.402   0.215  0.7384  0.4295 -0.6705
10651WAT      O43323   7.476   4.685   6.191 -1.2295 -0.1439 -0.0534
10651WAT     H143324   7.542   4.732   6.159 -0.4999  0.2427  1.8578
10651WAT     H243325   7.406   4.720   6.152 -0.5317  1.2097 -0.1822
10651WAT    EPW43326   7.476   4.697   6.180 -1.0186  0.1131  0.2099
10652WAT      O43327   7.483   0.767   5.531  0.0472  0.3917 -0.5110
10652WAT     H143328   7.482   0.684   5.558 -0.3402  0.6756  0.3868
10652WAT     H243329   7.556   0.772   5.483 -0.2166 -0.6013 -1.0390
10652WAT    EPW43330   7.494   0.755   5.528 -0.0490  0.2869 -0.4564
10653WAT      O43331   2.469   4.177   0.841 -0.3926 -0.6452  0.1493
10653WAT     H143332   2.505   4.098   0.849 -1.7936 -1.2742  0.5169
10653WAT     H243333   2.475   4.194   0.755 -0.0247 -1.1196  0.0795
10653WAT    EPW43334   2.475   4.168   0.829 -0.5452 -0.8082  0.1933
10654WAT      O43335   2.377   5.700   7.337  0.2570 -0.3660  0.3318
10654WAT     H143336   2.373   5.746   7.263 -0.1080 -1.5302 -0.3998
10654WAT     H243337   2.376   5.761   7.399 -0.9792  0.5934 -0.5802
10654WAT    EPW43338   2.376   5.716   7.335  0.0205 -0.3963  0.0890
10655WAT      O43339   7.222   3.188   6.521 -0.4683 -0.2867  0.0703
10655WAT     H143340   7.241   3.270   6.499  0.6604 -0.9945 -1.7658
10655WAT     H243341   7.290   3.142   6.493 -2.2424 -2.1970 -1.4306
10655WAT    EPW43342   7.235   3.193   6.514 -0.5636 -0.6735 -0.4227
10656WAT      O43343   1.747   6.267   2.496  0.2354  0.2754 -0.1230
10656WAT     H143344   1.794   6.296   2.563 -0.7954 -0.7218  1.0876
10656WAT     H243345   1.667   6.295   2.513 -0.1100 -0.2914 -0.7530
10656WAT    EPW43346   1.742   6.275   2.508  0.0321  0.0443 -0.0372
10657WAT      O43347   7.214   5.870   0.234  0.9102  0.1905 -0.5090
10657WAT     H143348   7.297   5.845   0.230  0.7113 -0.6413  0.2582
10657WAT     H243349   7.177   5.828   0.166  0.8543 -0.5182 -0.0479
10657WAT    EPW43350   7.221   5.860   0.223  0.8726 -0.0371 -0.3275
10658WAT      O43351   0.787   3.944   6.225 -0.0361  0.6853  0.4500
10658WAT     H143352   0.862   3.941   6.270 -0.8405  1.7207  1.9381
10658WAT     H243353   0.754   3.865   6.235  1.3930 -0.2009 -1.2705
10658WAT    EPW43354   0.793   3.932   6.233  0.0562  0.7073  0.4157
10659WAT      O43355   2.731   1.820   6.949 -0.0721  0.0419 -0.1915
10659WAT     H143356   2.669   1.840   7.007 -0.2009 -1.5921  0.2953
10659WAT     H243357   2.805   1.825   6.995 -0.0260  0.2223 -0.2857
10659WAT    EPW43358   2.733   1.824   6.964 -0.0843 -0.1728 -0.1335
10660WAT      O43359   2.749   2.541   5.488 -0.2908 -0.1888  0.1323
10660WAT     H143360   2.762   2.490   5.418 -3.1211  0.2486 -0.8523
10660WAT     H243361   2.688   2.598   5.461  0.8796  2.1468  1.9722
10660WAT    EPW43362   2.742   2.542   5.474 -0.5360  0.2208  0.2586
10661WAT      O43363   5.255   6.983   7.813 -0.2531 -0.0987  0.4361
10661WAT     H143364   5.226   7.062   7.791  1.1202  0.2919 -0.0691
10661WAT     H243365   5.188   6.948   7.856 -0.8278  1.4029  0.8309
10661WAT    EPW43366   5.241   6.990   7.816 -0.1351  0.1808  0.4198
10662WAT      O43367   6.078   2.878   1.221  0.3258 -0.2981  0.3491
10662WAT     H143368   6.116   2.803   1.242 -1.7517 -1.4246  0.3390
10662WAT     H243369   6.033   2.899   1.293 -0.4437  0.0522 -0.2145
10662WAT    EPW43370   6.077   2.870   1.235 -0.0947 -0.4128  0.2644
10663WAT      O43371   2.494   2.206   4.710  0.3447 -0.0031  0.2357
10663WAT     H143372   2.547   2.267   4.678  0.7010 -1.1257 -1.4445
10663WAT     H243373   2.548   2.150   4.751  0.7746 -1.8796 -2.6347
10663WAT    EPW43374   2.510   2.207   4.712  0.4608 -0.4461 -0.4365
10664WAT      O43375   3.537   0.436   1.990 -0.0152 -0.0739  0.3257
10664WAT     H143376   3.495   0.502   1.951  3.1190  1.5253 -0.6444
10664WAT     H243377   3.503   0.366   1.951 -2.9709  0.8801  0.8903
10664WAT    EPW43378   3.526   0.436   1.979  0.0111  0.3033  0.2658
10665WAT      O43379   4.969   0.066   0.444  0.2840  0.0968  0.1686
10665WAT     H143380   4.895   0.097   0.479  0.9574  1.7610  0.2272
10665WAT     H243381   4.951  -0.017   0.428 -0.3376 -0.6022  3.7369
10665WAT    EPW43382   4.955   0.059   0.447  0.2916  0.2394  0.7044
10666WAT      O43383   4.258   5.606   6.358 -0.3446  0.7019 -0.1604
10666WAT     H143384   4.256   5.624   6.443  0.5433  1.8615 -0.3677
10666WAT     H243385   4.336   5.569   6.346 -0.0489  1.4657 -0.6387
10666WAT    EPW43386   4.269   5.603   6.369 -0.1697  0.9860 -0.2617
10667WAT      O43387   1.194   4.237   6.676 -0.5613  0.3524  0.2754
10667WAT     H143388   1.258   4.251   6.733  0.6724  1.0342 -1.1987
10667WAT     H243389   1.233   4.193   6.611 -1.7682  0.1277 -0.3400
10667WAT    EPW43390   1.209   4.232   6.674 -0.5573  0.4199 -0.0332
10668WAT      O43391   5.003   1.516   4.933  0.0682  0.0833  0.5523
10668WAT     H143392   5.019   1.589   4.977 -1.7151  1.3014 -0.6734
10668WAT     H243393   5.051   1.523   4.861  0.0278 -0.0391  0.5115
10668WAT    EPW43394   5.012   1.528   4.929 -0.2012  0.2452  0.3652
10669WAT      O43395   3.082   6.101   2.083  0.1755  0.6507 -0.3243
10669WAT     H143396   3.169   6.100   2.092  0.1981 -1.4696 -0.1167
10669WAT     H243397   3.054   6.058   2.154 -0.9430  0.2983 -0.9458
10669WAT    EPW43398   3.091   6.094   2.095  0.0136  0.2854 -0.3855
10670WAT      O43399   2.632   0.856   1.891 -0.0902 -0.3042 -0.5135
10670WAT     H143400   2.632   0.915   1.956 -1.3524 -0.8054 -0.0447
10670WAT     H243401   2.598   0.900   1.824  1.1439  0.1905 -0.8584
10670WAT    EPW43402   2.627   0.871   1.891 -0.0944 -0.3052 -0.4952
10671WAT      O43403   5.946   4.653   4.838 -0.1522 -0.0596 -0.3898
10671WAT     H143404   6.028   4.657   4.808 -0.4555 -0.1876 -1.2420
10671WAT     H243405   5.942   4.575   4.877 -0.1245 -0.4369 -1.1228
10671WAT    EPW43406   5.957   4.642   4.840 -0.1929 -0.1342 -0.6240
10672WAT      O43407   2.340   6.884   5.280 -0.2589 -0.0489  0.2190
10672WAT     H143408   2.394   6.951   5.292 -0.5529  0.4110 -0.9226
10672WAT     H243409   2.341   6.844   5.358  2.6796 -0.7936 -0.0534
10672WAT    EPW43410   2.348   6.888   5.293  0.1317 -0.0910  0.0101
10673WAT      O43411   7.515   6.743   5.013  0.2465 -0.4093 -0.4023
10673WAT     H143412   7.511   6.689   4.945  0.5542 -0.8076 -0.1125
10673WAT     H243413   7.515   6.689   5.082 -1.1204  0.0237 -0.0389
10673WAT    EPW43414   7.515   6.727   5.013  0.0901 -0.4042 -0.3058
10674WAT      O43415   1.771   1.962   4.720 -0.0425  0.9021 -0.2726
10674WAT     H143416   1.829   1.901   4.745  0.9006  0.7564 -2.5543
10674WAT     H243417   1.696   1.918   4.717  0.0665  0.6005  0.8426
10674WAT    EPW43418   1.768   1.946   4.723  0.1129  0.8360 -0.4449
10675WAT      O43419   1.569   6.219   2.761  0.2665  0.5328  0.5333
10675WAT     H143420   1.598   6.145   2.797  1.2475  0.4863 -0.3208
10675WAT     H243421   1.585   6.279   2.822  0.6692  0.2467  0.7090
10675WAT    EPW43422   1.576   6.217   2.775  0.4709  0.4837  0.4331
10676WAT      O43423   6.158   5.553   6.120 -0.1695 -0.7721  0.1054
10676WAT     H143424   6.225   5.600   6.090  0.6418 -0.1817  2.6046
10676WAT     H243425   6.189   5.471   6.120 -0.3877 -0.8664 -1.1287
10676WAT    EPW43426   6.173   5.548   6.116 -0.0819 -0.6988  0.2923
10677WAT      O43427   1.331   4.921   5.117 -0.0577  0.4405 -0.5071
10677WAT     H143428   1.248   4.939   5.136 -0.7432 -0.7159 -2.1953
10677WAT     H243429   1.341   4.952   5.036  0.8803 -0.2711 -0.6776
10677WAT    EPW43430   1.320   4.929   5.108 -0.0204  0.1646 -0.7816
10678WAT      O43431   4.471   6.672   0.691 -0.8463  0.1154  0.4561
10678WAT     H143432   4.490   6.597   0.732 -0.4564  0.4992  0.9894
10678WAT     H243433   4.531   6.677   0.628 -0.0718  0.5821  1.1996
10678WAT    EPW43434   4.483   6.661   0.688 -0.6743  0.2410  0.6447
10679WAT      O43435   2.525   5.271   6.669 -0.3020 -0.4598 -0.9579
10679WAT     H143436   2.502   5.222   6.600  0.7059  0.9119 -2.3438
10679WAT     H243437   2.602   5.239   6.693  0.3425  0.3695 -1.8445
10679WAT    EPW43438   2.533   5.259   6.662 -0.0579 -0.1346 -1.2936
10680WAT      O43439   1.087   1.879   6.353 -0.6138  0.3970 -0.4246
10680WAT     H143440   1.064   1.872   6.437  1.0640 -2.6302 -0.0614
10680WAT     H243441   1.118   1.960   6.347  0.3463  0.3455  2.2320
10680WAT    EPW43442   1.088   1.890   6.365 -0.2241 -0.0577  0.0215
10681WAT      O43443   1.843   2.125   5.352 -0.3455 -0.3787 -0.8790
10681WAT     H143444   1.858   2.086   5.276  1.3352 -2.1851  0.2790
10681WAT     H243445   1.762   2.102   5.372 -0.2241 -1.2661 -1.3648
10681WAT    EPW43446   1.833   2.116   5.344 -0.0793 -0.7766 -0.7797
10682WAT      O43447   3.564   5.679   1.254 -0.1531  0.2267 -0.8670
10682WAT     H143448   3.585   5.598   1.278 -0.6817  0.0782 -0.8801
10682WAT     H243449   3.635   5.725   1.271  0.8343 -0.5640 -2.5847
10682WAT    EPW43450   3.577   5.674   1.260 -0.0854  0.0879 -1.1227
10683WAT      O43451   2.278   1.231   4.445 -0.1009 -0.3211  0.8746
10683WAT     H143452   2.227   1.193   4.385  1.0824  0.2448 -0.5729
10683WAT     H243453   2.236   1.305   4.464 -0.8963 -0.8980  1.3775
10683WAT    EPW43454   2.264   1.236   4.439 -0.0436 -0.3228  0.7351
10684WAT      O43455   2.064   6.983   0.434  0.4852 -0.0823  0.2322
10684WAT     H143456   2.059   7.044   0.372 -1.9664 -1.2862 -0.8826
10684WAT     H243457   1.988   6.991   0.477  0.2756 -2.0662  0.3047
10684WAT    EPW43458   2.052   6.993   0.431  0.0921 -0.5532  0.0782
10685WAT      O43459   5.500   7.124   7.588 -0.3199 -0.9492  0.2345
10685WAT     H143460   5.463   7.049   7.565  1.2929 -1.7450  0.1170
10685WAT     H243461   5.575   7.124   7.545 -0.3234  0.8018  0.1570
10685WAT    EPW43462   5.505   7.113   7.579 -0.0822 -0.8081  0.2057
10686WAT      O43463   1.443   4.294   6.788 -0.1633  0.1582 -0.0244
10686WAT     H143464   1.496   4.233   6.755  1.0502 -1.1087  3.7677
10686WAT     H243465   1.481   4.369   6.764  0.5015 -0.6070 -1.5292
10686WAT    EPW43466   1.456   4.296   6.779  0.1142 -0.1420  0.3135
10687WAT      O43467   5.922   3.956   7.457 -0.4354  0.5093  0.1066
10687WAT     H143468   5.988   3.921   7.502 -1.8708 -2.1724  0.3905
10687WAT     H243469   5.896   4.022   7.507 -0.1190 -0.5502  1.7795
10687WAT    EPW43470   5.928   3.960   7.471 -0.6007 -0.0433  0.3957
10688WAT      O43471   3.072   4.804   1.398 -0.0118 -0.3532  0.6398
10688WAT     H143472   3.150   4.840   1.381  0.1383 -1.3936 -1.2294
10688WAT     H243473   3.088   4.749   1.464  0.4897  0.5320  1.2698
10688WAT    EPW43474   3.086   4.801   1.405  0.0844 -0.3761  0.4568
10689WAT      O43475   1.356   3.858   4.953 -0.3398 -0.1180 -0.3156
10689WAT     H143476   1.392   3.810   5.016 -4.0126  0.0463  2.1980
10689WAT     H243477   1.307   3.801   4.909  0.2877  0.2470 -1.5392
10689WAT    EPW43478   1.354   3.843   4.956 -0.7896 -0.0398 -0.1250
10690WAT      O43479   1.564   2.369   5.713 -0.4352  0.5772  0.0828
10690WAT     H143480   1.557   2.390   5.629 -1.5139  0.8096  0.2147
10690WAT     H243481   1.498   2.412   5.751 -2.0689 -2.1216  0.5579
10690WAT    EPW43482   1.553   2.379   5.706 -0.8359  0.2128  0.1724
10691WAT      O43483   2.003   6.873   2.994 -0.0096  0.0393  0.1519
10691WAT     H143484   2.025   6.939   3.046  0.8756 -0.5364  0.5273
10691WAT     H243485   1.933   6.903   2.952 -1.4312  0.1436  2.4224
10691WAT    EPW43486   1.996   6.887   2.996 -0.0888 -0.0303  0.5427
10692WAT      O43487   1.972   2.481   6.762 -0.3155  0.2166  0.4521
10692WAT     H143488   1.890   2.452   6.753  0.4870 -3.2103  2.1334
10692WAT     H243489   2.011   2.454   6.689 -0.7766  2.6670 -0.7784
10692WAT    EPW43490   1.966   2.472   6.750 -0.2650  0.0723  0.5187
10693WAT      O43491   2.390   0.541   7.111  0.5520 -0.1265  0.3691
10693WAT     H143492   2.310   0.530   7.143  0.2016 -0.0297 -0.4382
10693WAT     H243493   2.442   0.539   7.181 -0.2263  0.5330  0.9746
10693WAT    EPW43494   2.386   0.539   7.126  0.3853 -0.0148  0.3393
10694WAT      O43495   3.613   1.198   6.668 -0.2469 -0.0506 -0.4064
10694WAT     H143496   3.699   1.201   6.655 -0.1028 -0.5723  0.3377
10694WAT     H243497   3.580   1.229   6.594  0.6423  2.8058  0.2370
10694WAT    EPW43498   3.621   1.203   6.655 -0.0943  0.2943 -0.2014
10695WAT      O43499   2.353   6.649   1.561 -0.3391 -0.1935  0.3118
10695WAT     H143500   2.298   6.717   1.556 -0.8223 -0.5572  0.5780
10695WAT     H243501   2.394   6.651   1.485  1.3386  1.7890  1.1707
10695WAT    EPW43502   2.351   6.660   1.549 -0.1626  0.0456  0.4780
10696WAT      O43503   0.084   2.681   5.869  0.4202 -0.3423  0.1993
10696WAT     H143504   0.028   2.738   5.904 -0.3260 -2.1314  2.1316
10696WAT     H243505   0.063   2.606   5.907  2.7315 -1.5239 -0.6733
10696WAT    EPW43506   0.072   2.678   5.880  0.6514 -0.7811  0.3558
10697WAT      O43507   0.359   2.837   5.192  0.4436 -0.0962 -0.2980
10697WAT     H143508   0.297   2.862   5.249  0.4493 -0.7807  0.0130
10697WAT     H243509   0.360   2.750   5.199  1.9550 -0.0569  0.2360
10697WAT    EPW43510   0.350   2.828   5.201  0.6677 -0.1915 -0.1731
10698WAT      O43511   2.628   2.849   1.513 -0.0679  0.7237 -0.9394
10698WAT     H143512   2.561   2.898   1.486 -0.1120  0.5882 -1.0817
10698WAT     H243513   2.592   2.796   1.572  0.0445  1.0704 -0.5603
10698WAT    EPW43514   2.613   2.848   1.517 -0.0578  0.7549 -0.9044
10699WAT      O43515   2.197   5.834   4.258 -0.0650 -0.2312  0.1916
10699WAT     H143516   2.279   5.860   4.268  0.3637 -1.8003  1.1482
10699WAT     H243517   2.203   5.768   4.200 -1.2033  2.0135 -2.7455
10699WAT    EPW43518   2.210   5.828   4.251 -0.1698 -0.1314 -0.1009
10700WAT      O43519   5.357   7.458   4.902 -0.3858 -0.9596  0.1795
10700WAT     H143520   5.392   7.445   4.823 -1.8647  0.9626 -0.8599
10700WAT     H243521   5.404   7.524   4.934  1.1139 -2.5955  1.5832
10700WAT    EPW43522   5.369   7.466   4.895 -0.3827 -0.9173  0.2333
10701WAT      O43523   2.861   0.961   7.350 -0.0452 -0.3363  0.4355
10701WAT     H143524   2.851   0.889   7.399 -0.4657 -0.4498  0.1826
10701WAT     H243525   2.852   0.931   7.268 -1.0822  0.1557  0.3675
10701WAT    EPW43526   2.858   0.946   7.345 -0.2605 -0.2804  0.3881
10702WAT      O43527   6.118   0.443   5.900  0.5254  0.5595 -0.0482
10702WAT     H143528   6.120   0.357   5.918 -0.6374  0.1788 -1.4755
10702WAT     H243529   6.034   0.457   5.880  1.2112  1.2816 -2.9912
10702WAT    EPW43530   6.106   0.432   5.899  0.4549  0.6100 -0.6938
10703WAT      O43531   1.945   1.968   5.137  0.1036  0.2116  0.5248
10703WAT     H143532   2.026   1.938   5.148 -1.0579 -3.6227 -0.0976
10703WAT     H243533   1.948   2.005   5.058  1.1519 -0.2232  0.3379
10703WAT    EPW43534   1.958   1.969   5.127  0.0869 -0.4191  0.4052
10704WAT      O43535   0.060   3.288   4.150  0.2947 -0.2000 -0.0996
10704WAT     H143536   0.035   3.314   4.229 -1.0766  0.3680 -0.7053
10704WAT     H243537   0.119   3.225   4.168 -0.4753 -0.5569  1.3705
10704WAT    EPW43538   0.065   3.282   4.164 -0.0217 -0.1688  0.0281
10705WAT      O43539   1.950   4.603   6.606  0.0373  0.4882 -0.1098
10705WAT     H143540   1.970   4.679   6.568  1.0062  0.0974 -0.4376
10705WAT     H243541   2.005   4.598   6.674 -0.8743  0.6380  0.6617
10705WAT    EPW43542   1.961   4.613   6.610  0.0458  0.4526 -0.0442
10706WAT      O43543   7.527   1.183   7.715 -0.1207 -0.8215  0.0081
10706WAT     H143544   7.584   1.176   7.649 -0.5652  0.5924 -0.5504
10706WAT     H243545   7.576   1.213   7.781 -0.1511  0.1115 -0.3880
10706WAT    EPW43546   7.543   1.186   7.715 -0.1908 -0.4749 -0.1329
10707WAT      O43547   0.724   5.639   5.621  0.1670 -0.2540  0.0682
10707WAT     H143548   0.649   5.678   5.600 -0.9920 -1.2476  2.0937
10707WAT     H243549   0.766   5.634   5.544 -1.1802  1.6050 -0.8815
10707WAT    EPW43550   0.719   5.644   5.606 -0.2032 -0.1262  0.2271
10708WAT      O43551   7.416   6.308   3.908 -0.4024  0.0527  0.4046
10708WAT     H143552   7.363   6.257   3.955 -1.4362  0.0134 -0.7484
10708WAT     H243553   7.367   6.377   3.889 -0.1843 -0.1407 -0.9770
10708WAT    EPW43554   7.401   6.311   3.912 -0.5229  0.0183  0.0302
10709WAT      O43555   1.824   4.022   0.359  0.4332  0.4449  0.1312
10709WAT     H143556   1.751   4.020   0.311  2.2838  2.2477 -3.0937
10709WAT     H243557   1.807   4.081   0.421 -0.9926  0.3933 -0.1826
10709WAT    EPW43558   1.810   4.030   0.361  0.4960  0.7036 -0.3915
10710WAT      O43559   1.239   4.388   0.018 -0.4007 -0.2304 -0.2607
10710WAT     H143560   1.241   4.465  -0.024 -2.8694 -0.0417 -0.2040
10710WAT     H243561   1.192   4.406   0.089 -0.7794 -1.7491 -0.1079
10710WAT    EPW43562   1.232   4.402   0.022 -0.8213 -0.4269 -0.2298
10711WAT      O43563   3.104   2.614   0.697  0.4217  0.0188 -0.2808
10711WAT     H143564   3.109   2.633   0.612 -1.2322  0.0296 -0.4214
10711WAT     H243565   3.037   2.558   0.701 -0.1166  0.7223  1.1146
10711WAT    EPW43566   3.095   2.609   0.685  0.0978  0.1243 -0.0954
10712WAT      O43567   0.246   0.842   4.461  0.3168  0.3953 -0.4443
10712WAT     H143568   0.316   0.803   4.497  0.9757  0.7296 -1.3131
10712WAT     H243569   0.193   0.776   4.442  0.7321  0.0649 -0.4677
10712WAT    EPW43570   0.249   0.826   4.464  0.4755  0.3958 -0.5761
10713WAT      O43571   1.278   3.691   0.030  0.6051  0.0694  0.5211
10713WAT     H143572   1.274   3.706   0.116  0.8513 -1.9414  0.9466
10713WAT     H243573   1.215   3.632   0.017  1.1695 -0.3285 -0.5008
10713WAT    EPW43574   1.268   3.684   0.041  0.7249 -0.2864  0.4330
10714WAT      O43575   2.498   3.558   3.025 -0.7171  0.0053  0.2158
10714WAT     H143576   2.535   3.635   3.008  1.1507 -0.7072  0.7935
10714WAT     H243577   2.559   3.500   3.003 -0.6630 -1.1932  3.0879
10714WAT    EPW43578   2.512   3.561   3.019 -0.4332 -0.2770  0.7254
10715WAT      O43579   2.936   6.871   5.921  0.6810  0.0290 -0.0230
10715WAT     H143580   2.870   6.926   5.937 -0.3754 -1.0966 -0.3384
10715WAT     H243581   2.965   6.850   6.000  1.8607  1.8721  0.0911
10715WAT    EPW43582   2.930   6.876   5.935  0.6992  0.1350 -0.0528
10716WAT      O43583   3.407   6.463   2.236 -0.3944  0.0089  0.6485
10716WAT     H143584   3.354   6.509   2.185 -0.4827  1.3397  1.8787
10716WAT     H243585   3.353   6.408   2.277 -0.1767 -1.9687 -1.5020
10716WAT    EPW43586   3.391   6.462   2.235 -0.3753 -0.0867  0.5125
10717WAT      O43587   0.171   1.413   5.560 -0.4370 -0.3545  0.4895
10717WAT     H143588   0.091   1.445   5.545 -0.6101 -1.3343 -0.8754
10717WAT     H243589   0.170   1.336   5.519  1.3614 -0.1799  0.0391
10717WAT    EPW43590   0.159   1.407   5.552 -0.1969 -0.4734  0.2214
10718WAT      O43591   7.062   5.706   6.895 -0.1318  0.7085 -0.0345
10718WAT     H143592   7.064   5.625   6.863  0.8182  1.2448 -1.4631
10718WAT     H243593   7.003   5.746   6.845 -2.4327  0.3780  2.2065
10718WAT    EPW43594   7.054   5.700   6.883 -0.3314  0.7389  0.0855
10719WAT      O43595   2.650   2.508   7.225 -0.5394  0.1331 -0.3446
10719WAT     H143596   2.628   2.495   7.309 -0.9918  0.6208 -0.3813
10719WAT     H243597   2.675   2.429   7.198 -2.9754 -0.6642 -0.5145
10719WAT    EPW43598   2.650   2.495   7.234 -0.9661  0.0873 -0.3751
10720WAT      O43599   0.122   1.909   4.399  0.0756  0.0612  0.1181
10720WAT     H143600   0.100   1.941   4.321  2.0128  2.5624  0.4785
10720WAT     H243601   0.202   1.877   4.386  0.9014  1.5441  1.2708
10720WAT    EPW43602   0.131   1.909   4.385  0.4837  0.6497  0.3416
10721WAT      O43603   6.748   4.296   5.625  0.3858  0.4509 -0.0074
10721WAT     H143604   6.769   4.212   5.619 -1.7068 -0.1151 -0.2442
10721WAT     H243605   6.726   4.317   5.544  2.4278  1.7328 -0.2949
10721WAT    EPW43606   6.748   4.287   5.612  0.3783  0.5566 -0.0849
10722WAT      O43607   2.376   2.163   6.554  0.0477  0.4987 -0.3519
10722WAT     H143608   2.430   2.231   6.546 -1.1183  1.3668 -1.3235
10722WAT     H243609   2.321   2.188   6.617 -0.1973  0.3418 -0.4987
10722WAT    EPW43610   2.376   2.177   6.562 -0.1608  0.6038 -0.5171
10723WAT      O43611   2.999   5.120   0.467  0.3903 -0.1340  0.2141
10723WAT     H143612   2.994   5.090   0.385 -1.6294  2.2965 -0.6780
10723WAT     H243613   3.079   5.154   0.471  0.4490 -0.1084 -0.8075
10723WAT    EPW43614   3.010   5.120   0.456  0.1006  0.2288 -0.0686
10724WAT      O43615   0.370   1.756   4.721  0.3965  0.1844 -0.5989
10724WAT     H143616   0.303   1.788   4.768  1.0415  0.5288  0.0999
10724WAT     H243617   0.341   1.678   4.695 -0.6697  0.7422 -1.1504
10724WAT    EPW43618   0.356   1.749   4.724  0.3343  0.3177 -0.5771
10725WAT      O43619   5.504   4.961   5.982  0.0755  0.0753  0.3981
10725WAT     H143620   5.489   5.017   6.047 -0.4781 -0.9597  1.1902
10725WAT     H243621   5.550   4.898   6.020  0.4648 -0.1463 -0.4182
10725WAT    EPW43622   5.509   4.960   5.997  0.0512 -0.1103  0.3945
10726WAT      O43623   3.923   0.652   7.417  0.0860 -0.1217  0.1176
10726WAT     H143624   3.843   0.683   7.400  0.2868 -0.0304 -0.7023
10726WAT     H243625   3.973   0.724   7.417  0.3910 -0.3256 -0.7785
10726WAT    EPW43626   3.918   0.667   7.414  0.1607 -0.1383 -0.1359
10727WAT      O43627   1.119   0.182   7.265 -0.6578 -0.2546  0.0524
10727WAT     H143628   1.151   0.256   7.231 -0.5070 -0.6355 -0.6656
10727WAT     H243629   1.040   0.206   7.293 -1.0360 -0.0343 -1.1163
10727WAT    EPW43630   1.112   0.196   7.264 -0.6914 -0.2783 -0.2263
10728WAT      O43631   4.011   2.338   7.341  0.4080 -0.2177  0.0379
10728WAT     H143632   4.084   2.293   7.354  1.5920  1.5124 -0.2421
10728WAT     H243633   4.019   2.407   7.394  0.3460  1.4408 -1.9736
10728WAT    EPW43634   4.023   2.342   7.351  0.5737  0.2829 -0.3006
10729WAT      O43635   5.895   4.571   3.193  0.0883  0.0939  0.1977
10729WAT     H143636   5.898   4.488   3.220  2.6021  0.7434  2.3881
10729WAT     H243637   5.820   4.601   3.225  1.0331 -0.3486  3.1652
10729WAT    EPW43638   5.885   4.563   3.202  0.5992  0.1245  0.9596
10730WAT      O43639   4.501   4.993   3.726  0.1876 -0.0061  0.7540
10730WAT     H143640   4.535   4.915   3.707  0.5254  0.2423  0.3270
10730WAT     H243641   4.425   4.973   3.764 -0.2320 -0.5441 -0.3099
10730WAT    EPW43642   4.495   4.978   3.729  0.1755 -0.0489  0.5337
10731WAT      O43643   1.708   6.824   0.456 -0.5288  0.5468 -0.4558
10731WAT     H143644   1.723   6.742   0.432  0.7466  0.9394 -1.0992
10731WAT     H243645   1.633   6.819   0.501 -0.7643 -0.8649 -0.9540
10731WAT    EPW43646   1.699   6.811   0.459 -0.3752  0.3963 -0.6244
10732WAT      O43647   4.065   6.629   4.245 -0.4133 -0.1206 -0.1583
10732WAT     H143648   4.113   6.567   4.207  1.1266  1.7473 -1.5089
10732WAT     H243649   4.049   6.685   4.180  0.2538  2.0374  1.4058
10732WAT    EPW43650   4.070   6.628   4.230 -0.0873  0.4741 -0.1268
10733WAT      O43651   1.024   6.547   6.532 -0.2126  0.6356 -0.1182
10733WAT     H143652   0.972   6.602   6.575  0.1455  1.5424 -0.8152
10733WAT     H243653   0.999   6.555   6.449 -0.4399 -0.5887 -0.1888
10733WAT    EPW43654   1.013   6.557   6.526 -0.1932  0.5887 -0.2316
10734WAT      O43655   4.646   7.299   4.502 -0.6670 -0.1253  0.2050
10734WAT     H143656   4.629   7.326   4.421  0.6785  0.2733  0.0339
10734WAT     H243657   4.583   7.241   4.518 -2.1175  1.2042 -0.3799
10734WAT    EPW43658   4.634   7.295   4.493 -0.6825  0.1300  0.0933
10735WAT      O43659   7.477   3.905   6.128 -0.5252 -0.2197  0.4127
10735WAT     H143660   7.541   3.915   6.187  1.7919  4.5283 -2.2694
10735WAT     H243661   7.430   3.978   6.136 -3.3437 -1.8047 -0.3599
10735WAT    EPW43662   7.480   3.917   6.138 -0.5993  0.2476 -0.0976
10736WAT      O43663   1.955   2.275   5.580  0.0147 -0.0932  0.2181
10736WAT     H143664   2.039   2.288   5.559  1.0890 -2.4795  2.5051
10736WAT     H243665   1.924   2.232   5.511  0.7822  0.4240 -0.4729
10736WAT    EPW43666   1.963   2.271   5.567  0.2868 -0.3693  0.4539
10737WAT      O43667   0.652   4.729   7.284  0.5738 -0.0186 -0.0700
10737WAT     H143668   0.723   4.759   7.325 -0.4230  0.6677  1.2156
10737WAT     H243669   0.596   4.796   7.288 -0.3274 -0.7216 -0.6147
10737WAT    EPW43670   0.654   4.743   7.291  0.2934 -0.0211  0.0394
10738WAT      O43671   2.626   3.677   2.371  0.1859  0.0007  0.1065
10738WAT     H143672   2.652   3.742   2.319 -0.2953 -0.4866 -0.7574
10738WAT     H243673   2.540   3.690   2.378 -0.0183 -0.9024 -0.5952
10738WAT    EPW43674   2.618   3.689   2.365  0.0846 -0.2047 -0.1248
10739WAT      O43675   4.835   5.322   1.164  0.0285  0.2304 -0.0168
10739WAT     H143676   4.908   5.366   1.177 -1.1322  2.3440 -0.2051
10739WAT     H243677   4.840   5.298   1.080  0.1876  0.9891 -0.2267
10739WAT    EPW43678   4.846   5.325   1.153 -0.1194  0.6547 -0.0756
10740WAT      O43679   0.374   5.578   6.723 -0.9667 -0.8232 -0.4197
10740WAT     H143680   0.448   5.566   6.679  0.2342  0.2795  1.1963
10740WAT     H243681   0.325   5.624   6.667 -0.8039 -2.2050 -1.8002
10740WAT    EPW43682   0.378   5.583   6.708 -0.7653 -0.8644 -0.3849
10741WAT      O43683   1.907   3.929   5.613 -0.1935  0.2622 -0.2414
10741WAT     H143684   1.898   3.852   5.574 -2.4338  0.7692 -0.8625
10741WAT     H243685   1.889   3.986   5.550 -0.3038  1.2241  0.6343
10741WAT    EPW43686   1.903   3.926   5.598 -0.5408  0.4792 -0.2038
10742WAT      O43687   7.249   3.958   5.618  0.1454  0.1701 -0.0096
10742WAT     H143688   7.175   4.004   5.625  0.5518  0.8948 -0.3364
10742WAT     H243689   7.229   3.882   5.656 -0.9665  0.1199 -0.6331
10742WAT    EPW43690   7.235   3.954   5.624  0.0412  0.2697 -0.1500
10743WAT      O43691   1.902   0.409   0.158 -0.0005  0.4116 -0.5884
10743WAT     H143692   1.911   0.376   0.078 -0.8329 -0.5713 -0.2921
10743WAT     H243693   1.904   0.339   0.210 -0.9005  0.8951  0.1248
10743WAT    EPW43694   1.903   0.394   0.154 -0.2564  0.3378 -0.4393
10744WAT      O43695   7.234   7.420   6.529  0.0346 -0.6658  0.1981
10744WAT     H143696   7.284   7.445   6.463 -2.3319  1.0425 -1.1150
10744WAT     H243697   7.230   7.334   6.521  2.0207 -0.7741 -0.1160
10744WAT    EPW43698   7.241   7.411   6.518 -0.0216 -0.4295 -0.0422
10745WAT      O43699   1.594   3.777   6.175  0.0594 -0.6485 -0.1880
10745WAT     H143700   1.612   3.779   6.260  1.0179  1.4926 -0.3828
10745WAT     H243701   1.646   3.714   6.144  0.8140 -0.4281  0.6013
10745WAT    EPW43702   1.604   3.768   6.183  0.3125 -0.2996 -0.1002
10746WAT      O43703   1.157   3.385   0.525  0.0059  0.0360 -0.8848
10746WAT     H143704   1.111   3.409   0.455  0.3823 -0.6698 -1.3878
10746WAT     H243705   1.126   3.306   0.544  0.4166 -0.0813 -0.6977
10746WAT    EPW43706   1.146   3.377   0.518  0.1222 -0.0856 -0.9315
10747WAT      O43707   2.451   0.098   2.251 -0.5192 -0.0668 -0.5465
10747WAT     H143708   2.404   0.077   2.321 -2.4661 -0.3760 -1.8766
10747WAT     H243709   2.468   0.183   2.262 -0.6339 -0.1580  0.3761
10747WAT    EPW43710   2.447   0.108   2.263 -0.8237 -0.1259 -0.6067
10748WAT      O43711   1.094   2.364   6.419 -0.2819  0.2000 -0.2476
10748WAT     H143712   1.088   2.414   6.348 -0.0764 -0.8968 -1.0561
10748WAT     H243713   1.040   2.403   6.476 -1.6440  0.2536 -1.5159
10748WAT    EPW43714   1.085   2.377   6.417 -0.4528  0.0459 -0.5544
10749WAT      O43715   1.957   6.273   4.405  0.3102  0.0956  0.6480
10749WAT     H143716   2.014   6.317   4.355 -0.7695  0.8577  0.0490
10749WAT     H243717   1.950   6.196   4.364  0.9871 -0.0525  0.7926
10749WAT    EPW43718   1.964   6.268   4.391  0.2507  0.1863  0.5809
10750WAT      O43719   0.504   7.281   5.255  0.0038 -0.1441 -0.2836
10750WAT     H143720   0.589   7.296   5.241  0.3708 -0.1366  1.7352
10750WAT     H243721   0.489   7.208   5.209  1.0536 -0.0569 -0.8015
10750WAT    EPW43722   0.515   7.272   5.246  0.2131 -0.1301 -0.0619
10751WAT      O43723   2.823   2.847   0.376  0.4905 -0.6459 -0.3330
10751WAT     H143724   2.887   2.852   0.317 -0.9009 -0.8267 -1.9252
10751WAT     H243725   2.823   2.926   0.412  1.3346 -0.5105 -0.5981
10751WAT    EPW43726   2.833   2.860   0.373  0.4097 -0.6526 -0.6074
10752WAT      O43727   3.360   3.427   0.909  0.5379  0.0860 -0.0747
10752WAT     H143728   3.296   3.444   0.966  0.3274  0.1759 -0.3372
10752WAT     H243729   3.416   3.493   0.922  0.5390  0.0532  0.0947
10752WAT    EPW43730   3.359   3.439   0.920  0.5070  0.0945 -0.0885
10753WAT      O43731   1.910   1.876   2.987  0.1531  1.2318  0.9895
10753WAT     H143732   1.847   1.920   3.028 -0.5208  0.6941  0.5535
10753WAT     H243733   1.937   1.818   3.045 -2.8725 -1.5965 -0.1504
10753WAT    EPW43734   1.905   1.874   3.001 -0.3934  0.7346  0.7567
10754WAT      O43735   2.278   5.113   5.714 -0.2495 -0.1062  0.4657
10754WAT     H143736   2.255   5.030   5.726 -0.6398  0.0876  1.0800
10754WAT     H243737   2.364   5.113   5.730 -0.4437 -0.1906  1.5827
10754WAT    EPW43738   2.288   5.101   5.718 -0.3358 -0.0900  0.7214
10755WAT      O43739   5.464   5.580   0.490  0.5208  0.6042  0.4610
10755WAT     H143740   5.528   5.630   0.521  0.5226  0.7302  0.2586
10755WAT     H243741   5.508   5.513   0.454  0.4784 -0.2003  1.8342
10755WAT    EPW43742   5.480   5.577   0.489  0.5148  0.5040  0.6339
10756WAT      O43743   1.970   3.065   5.153  0.2100 -0.1285  0.2050
10756WAT     H143744   2.004   3.115   5.216 -0.4012 -0.3092  0.6878
10756WAT     H243745   1.927   3.122   5.102 -0.0361 -0.0938  0.4508
10756WAT    EPW43746   1.969   3.081   5.155  0.0834 -0.1501  0.3126
10757WAT      O43747   3.819   4.448   5.831  0.4013  0.6959  0.3062
10757WAT     H143748   3.827   4.448   5.744  0.8321  1.1542  0.3410
10757WAT     H243749   3.738   4.419   5.845  0.6907 -0.4298 -0.2106
10757WAT    EPW43750   3.809   4.444   5.820  0.5077  0.5973  0.2350
10758WAT      O43751   2.785   5.964   4.532  0.2262 -0.1324  0.2361
10758WAT     H143752   2.779   6.013   4.604  0.2054 -1.8706  1.4945
10758WAT     H243753   2.710   5.920   4.531  1.0358 -1.5852  0.3005
10758WAT    EPW43754   2.773   5.965   4.543  0.3427 -0.6038  0.4315
10759WAT      O43755   5.674   3.451   1.362 -0.0216 -0.0257 -1.0801
10759WAT     H143756   5.677   3.476   1.445 -1.0173 -0.2550 -0.9582
10759WAT     H243757   5.714   3.374   1.361  1.1659  0.5700 -1.0688
10759WAT    EPW43758   5.680   3.443   1.374  0.0067  0.0285 -1.0604
10760WAT      O43759   6.744   0.242   6.009 -0.5601  0.8589 -0.4294
10760WAT     H143760   6.766   0.243   5.925  1.5180 -0.9537 -0.0051
10760WAT     H243761   6.821   0.234   6.050 -1.6463 -0.8014  1.4890
10760WAT    EPW43762   6.759   0.241   6.003 -0.4136  0.3459 -0.0833
10761WAT      O43763   5.442   7.117   7.127  0.3419 -0.0237 -0.2214
10761WAT     H143764   5.505   7.175   7.113  0.9795 -0.6074  0.1406
10761WAT     H243765   5.407   7.143   7.203  0.2437  0.2154 -0.3482
10761WAT    EPW43766   5.446   7.129   7.136  0.4216 -0.0746 -0.1867
10762WAT      O43767   6.523   1.795   7.432  0.5867 -0.4894  0.5477
10762WAT     H143768   6.468   1.766   7.371 -0.6060  1.4013  0.6636
10762WAT     H243769   6.523   1.731   7.491  0.7278 -1.7596 -0.7564
10762WAT    EPW43770   6.515   1.781   7.432  0.4314 -0.3978  0.3722
10763WAT      O43771   6.781   2.957   6.977  0.0238 -0.2150  0.2248
10763WAT     H143772   6.855   2.913   6.962 -0.7847 -1.3160 -0.6765
10763WAT     H243773   6.725   2.895   7.003 -0.1683  0.8334  2.5568
10763WAT    EPW43774   6.784   2.941   6.979 -0.1240 -0.2228  0.4362
10764WAT      O43775   2.024   4.919   5.594 -0.1428 -0.1634 -0.3483
10764WAT     H143776   1.995   4.837   5.581  0.5337 -0.4138 -0.3121
10764WAT     H243777   1.951   4.964   5.608 -0.4959 -0.8458  0.0716
10764WAT    EPW43778   2.009   4.914   5.594 -0.0951 -0.3012 -0.2810
10765WAT      O43779   1.154   2.248   5.596  0.2104 -0.0571  0.3622
10765WAT     H143780   1.183   2.254   5.678  1.7055  0.9247 -0.1832
10765WAT     H243781   1.141   2.163   5.584 -1.0600 -0.1354  1.9152
10765WAT    EPW43782   1.156   2.237   5.606  0.2436  0.0764  0.5110
10766WAT      O43783   1.495   6.165   0.119  0.2568  0.8619 -0.1001
10766WAT     H143784   1.499   6.124   0.042 -1.9203  2.0993 -0.9540
10766WAT     H243785   1.470   6.103   0.174  1.9600 -0.0701 -0.3190
10766WAT    EPW43786   1.492   6.150   0.116  0.1868  0.9070 -0.2586
10767WAT      O43787   1.502   5.461   0.395  0.0849 -0.0622  0.5230
10767WAT     H143788   1.542   5.439   0.321 -0.9979 -2.0216  0.4443
10767WAT     H243789   1.557   5.518   0.432  2.0442 -1.2258 -0.4273
10767WAT    EPW43790   1.516   5.466   0.390  0.2144 -0.5235  0.3710
10768WAT      O43791   4.985   4.778   1.509  0.0788 -0.6534 -0.1176
10768WAT     H143792   5.068   4.803   1.520 -0.0498 -0.2372 -0.0639
10768WAT     H243793   4.948   4.791   1.587 -0.5559  1.2376 -0.6616
10768WAT    EPW43794   4.992   4.784   1.522 -0.0340 -0.3125 -0.1901
10769WAT      O43795   3.771   3.949   6.705 -0.5807 -0.7683  0.3787
10769WAT     H143796   3.835   3.962   6.647  0.0673 -1.7388  0.8572
10769WAT     H243797   3.747   4.030   6.727  2.6981 -0.1823  2.5905
10769WAT    EPW43798   3.777   3.963   6.700 -0.0007 -0.8251  0.7761
10770WAT      O43799   2.296   5.868   3.938 -0.1867 -0.2392  0.4477
10770WAT     H143800   2.382   5.882   3.930 -0.2527 -0.5218 -1.2330
10770WAT     H243801   2.292   5.795   3.986  0.4789  0.1275  1.0862
10770WAT    EPW43802   2.308   5.859   3.944 -0.0981 -0.2268  0.2937
10771WAT      O43803   2.206   0.664   0.786  0.3367  0.0727 -0.1799
10771WAT     H143804   2.177   0.658   0.704  1.3960 -0.8851 -0.5104
10771WAT     H243805   2.293   0.663   0.778  0.5106  1.8451  0.8475
10771WAT    EPW43806   2.215   0.663   0.773  0.5188  0.1931 -0.0770
10772WAT      O43807   3.266   5.602   4.083 -0.3089  0.3633 -0.2440
10772WAT     H143808   3.228   5.594   4.161 -0.1413 -2.4040 -0.3406
10772WAT     H243809   3.315   5.674   4.091 -0.0582 -0.0014  2.3247
10772WAT    EPW43810   3.268   5.611   4.096 -0.2471 -0.0994  0.1212
10773WAT      O43811   1.167   3.923   7.756 -0.4297  0.0647  0.8726
10773WAT     H143812   1.221   3.984   7.788 -0.1740  0.0035  0.5657
10773WAT     H243813   1.198   3.848   7.789 -0.1167 -0.0072  0.4217
10773WAT    EPW43814   1.179   3.921   7.765 -0.3457  0.0450  0.7606
10774WAT      O43815   1.801   4.998   0.565  0.1187 -0.0944 -0.0843
10774WAT     H143816   1.772   5.072   0.529  1.4749  0.2029 -0.6257
10774WAT     H243817   1.849   5.025   0.632  1.4273 -0.3934 -0.8580
10774WAT    EPW43818   1.804   5.013   0.569  0.5124 -0.0946 -0.2786
10775WAT      O43819   1.606   2.488   1.232  0.0305  0.2671  0.2220
10775WAT     H143820   1.689   2.513   1.241 -0.3186  1.5000  0.1108
10775WAT     H243821   1.613   2.411   1.190  1.2242 -1.0114  2.5606
10775WAT    EPW43822   1.620   2.480   1.227  0.1552  0.2604  0.5510
10776WAT      O43823   6.499   5.381   4.969 -0.5326 -0.0558  0.5092
10776WAT     H143824   6.443   5.369   4.904  0.6416 -0.3389 -0.5030
10776WAT     H243825   6.540   5.455   4.946 -0.3744  0.0496  1.1221
10776WAT    EPW43826   6.497   5.390   4.956 -0.3357 -0.0821  0.4502
10777WAT      O43827   7.120   0.106   7.855 -0.0464  0.2990  0.6786
10777WAT     H143828   7.073   0.084   7.925  0.1290 -2.6384  0.0353
10777WAT     H243829   7.088   0.054   7.792  1.6798  0.7860 -0.6851
10777WAT    EPW43830   7.109   0.095   7.856  0.2345 -0.0629  0.3821
10778WAT      O43831   0.084   2.384   3.777 -0.3830 -0.0493  0.6554
10778WAT     H143832   0.006   2.416   3.753  0.0699 -0.2595 -1.2501
10778WAT     H243833   0.134   2.455   3.784  0.0445 -0.0951 -1.3522
10778WAT    EPW43834   0.080   2.400   3.775 -0.2529 -0.0871  0.0773
10779WAT      O43835   2.936   6.039   2.309  0.1969 -0.2294 -0.0940
10779WAT     H143836   2.858   6.005   2.329  1.0391 -1.2341  1.7635
10779WAT     H243837   2.977   6.044   2.386  0.4059  4.5896 -0.2046
10779WAT    EPW43838   2.931   6.035   2.323  0.3522  0.3340  0.1641
10780WAT      O43839   0.143   1.937   5.758 -0.6035  0.0713  0.2405
10780WAT     H143840   0.181   1.913   5.832 -1.4490  0.6013  0.8688
10780WAT     H243841   0.177   1.883   5.698  0.2742 -0.1913  0.9615
10780WAT    EPW43842   0.154   1.926   5.760 -0.5988  0.1108  0.4398
10781WAT      O43843   6.993   4.428   6.846 -0.4910  0.1364  0.7703
10781WAT     H143844   6.987   4.468   6.769 -1.5872 -0.9238  0.2744
10781WAT     H243845   6.944   4.356   6.836  1.0043 -1.0820  1.7861
10781WAT    EPW43846   6.985   4.423   6.833 -0.4320 -0.2002  0.8471
10782WAT      O43847   1.607   1.767   3.200 -0.0378 -0.1291  0.0443
10782WAT     H143848   1.624   1.683   3.186 -1.3698 -0.3610 -0.4029
10782WAT     H243849   1.653   1.787   3.271  0.0866 -1.3032  0.3046
10782WAT    EPW43850   1.616   1.758   3.208 -0.2162 -0.3368  0.0167
10783WAT      O43851   2.831   0.971   6.274  0.0994 -0.2692 -0.4616
10783WAT     H143852   2.759   1.011   6.244 -0.3037 -0.5994  0.0602
10783WAT     H243853   2.893   0.996   6.217 -1.0139 -2.4531 -2.8410
10783WAT    EPW43854   2.829   0.980   6.261 -0.1246 -0.6406 -0.7360
10784WAT      O43855   3.150   4.090   3.584 -0.0157  0.4184  0.3323
10784WAT     H143856   3.105   4.050   3.521 -3.2221  0.5562  2.2753
10784WAT     H243857   3.106   4.068   3.657  1.8051  2.4697  2.1960
10784WAT    EPW43858   3.137   4.081   3.585 -0.2204  0.7418  0.8946
10785WAT      O43859   1.857   4.212   2.442  0.1145 -0.2600 -0.3562
10785WAT     H143860   1.824   4.159   2.502  1.5914  1.8442  2.5630
10785WAT     H243861   1.928   4.170   2.413  0.2384 -0.6818  0.5465
10785WAT    EPW43862   1.863   4.198   2.447  0.3509 -0.0115  0.2084
10786WAT      O43863   0.667   5.608   6.947  0.3132  0.1274  0.0724
10786WAT     H143864   0.634   5.532   6.974 -0.5435 -0.3252 -2.0562
10786WAT     H243865   0.611   5.667   6.977 -1.4715 -0.4800 -1.8098
10786WAT    EPW43866   0.654   5.605   6.955 -0.0770 -0.0291 -0.5201
10787WAT      O43867   6.032   0.393   0.785  0.5172 -0.2726 -0.1837
10787WAT     H143868   5.954   0.366   0.756 -0.0546  0.5115  0.5776
10787WAT     H243869   6.086   0.328   0.764 -0.4500 -1.0788 -0.2044
10787WAT    EPW43870   6.028   0.380   0.777  0.2899 -0.2759 -0.0743
10788WAT      O43871   2.808   7.474   4.604  0.9000  0.3789 -0.0824
10788WAT     H143872   2.782   7.417   4.542  1.5908 -2.5446  2.0885
10788WAT     H243873   2.736   7.522   4.619 -0.9379 -2.2880  0.3466
10788WAT    EPW43874   2.793   7.473   4.597  0.7305 -0.4469  0.3017
10789WAT      O43875   1.077   1.018   4.577  0.2532  0.2290  0.2003
10789WAT     H143876   1.001   1.061   4.578  0.9906  1.5775  0.7716
10789WAT     H243877   1.087   0.997   4.493 -1.7899 -1.9843  0.3930
10789WAT    EPW43878   1.067   1.021   4.565  0.0603  0.1012  0.3132
10790WAT      O43879   1.835   4.125   5.436 -0.4267 -0.5091 -0.0569
10790WAT     H143880   1.776   4.184   5.411 -1.5922 -1.6845 -0.1845
10790WAT     H243881   1.881   4.167   5.497 -1.5661  0.3642  0.2454
10790WAT    EPW43882   1.833   4.140   5.441 -0.7672 -0.5537 -0.0311
10791WAT      O43883   6.617   6.119   5.810 -0.4332  0.1278 -0.7551
10791WAT     H143884   6.540   6.079   5.819 -0.7061  0.4538 -1.5717
10791WAT     H243885   6.618   6.176   5.875  0.7704 -2.4100  1.6502
10791WAT    EPW43886   6.606   6.121   5.821 -0.2957 -0.1989 -0.5204
10792WAT      O43887   4.553   5.497   3.820  0.6706  0.4476 -0.2481
10792WAT     H143888   4.561   5.418   3.784 -0.0456  0.7224 -1.0368
10792WAT     H243889   4.632   5.532   3.811  0.9370 -0.0994 -0.0807
10792WAT    EPW43890   4.566   5.490   3.813  0.6042  0.4074 -0.3399
10793WAT      O43891   0.420   3.236   6.489  0.4969 -0.3875 -0.3497
10793WAT     H143892   0.402   3.172   6.434 -1.4398  0.5868 -0.9483
10793WAT     H243893   0.425   3.196   6.567 -1.3642 -1.1901 -0.6072
10793WAT    EPW43894   0.418   3.221   6.493 -0.0641 -0.3622 -0.4761
10794WAT      O43895   2.713   5.251   1.887  0.0681 -0.2749  0.5484
10794WAT     H143896   2.690   5.246   1.803  1.9615 -3.6992  0.0286
10794WAT     H243897   2.755   5.327   1.893  1.0201 -0.4899 -2.0078
10794WAT    EPW43898   2.716   5.261   1.875  0.4884 -0.8125  0.0940
10795WAT      O43899   1.398   4.350   5.705  0.1819 -0.5973  0.0706
10795WAT     H143900   1.313   4.351   5.688 -0.0857  1.5920  1.1885
10795WAT     H243901   1.421   4.434   5.704  1.8925 -0.9549  1.8106
10795WAT    EPW43902   1.389   4.362   5.702  0.3950 -0.3267  0.4928
10796WAT      O43903   7.284   3.462   6.543  0.2833  0.4508 -0.1692
10796WAT     H143904   7.257   3.526   6.596  0.2172 -0.2028  0.5994
10796WAT     H243905   7.359   3.437   6.577  0.5408  0.4190 -0.7433
10796WAT    EPW43906   7.291   3.468   6.556  0.3116  0.3495 -0.1405
10797WAT      O43907   0.409   2.059   5.924  0.2954 -0.0799  0.7522
10797WAT     H143908   0.452   1.987   5.950 -2.0118 -2.3027 -1.0093
10797WAT     H243909   0.408   2.053   5.837 -1.5047  1.0758  0.6307
10797WAT    EPW43910   0.415   2.047   5.915 -0.3114 -0.2375  0.4740
10798WAT      O43911   1.439   1.724   3.630 -0.3944  0.2190  0.3147
10798WAT     H143912   1.434   1.639   3.611 -0.8719  0.4796 -0.8564
10798WAT     H243913   1.415   1.763   3.555  1.7532  1.4152  0.1785
10798WAT    EPW43914   1.435   1.717   3.616 -0.1477  0.4342  0.1216
10799WAT      O43915   1.643   0.500   2.253 -0.1356 -0.1982 -0.7755
10799WAT     H143916   1.710   0.460   2.291 -0.6570  1.4836  2.1887
10799WAT     H243917   1.672   0.581   2.240 -1.1208  0.1756 -0.7316
10799WAT    EPW43918   1.657   0.506   2.256 -0.3582  0.1055 -0.3312
10800WAT      O43919   0.490   1.099   7.419 -0.1964  0.3373 -0.2118
10800WAT     H143920   0.479   1.067   7.500 -0.3723  0.2485 -0.2703
10800WAT     H243921   0.566   1.141   7.424 -1.5950  3.0027  0.8599
10800WAT    EPW43922   0.500   1.101   7.432 -0.4290  0.7179 -0.0622
10801WAT      O43923   3.807   1.825   0.012 -0.0470  0.2492  0.2135
10801WAT     H143924   3.835   1.900  -0.023  0.7549 -0.0433  0.2107
10801WAT     H243925   3.739   1.804  -0.038  0.5019  0.3238 -0.5988
10801WAT    EPW43926   3.801   1.833  -0.001  0.1526  0.2170  0.0931
10802WAT      O43927   3.301   2.138   0.096 -0.0695  0.2735  0.1994
10802WAT     H143928   3.380   2.175   0.085 -0.2608  0.6915  0.2406
10802WAT     H243929   3.250   2.204   0.118 -0.6355  0.1595 -0.7319
10802WAT    EPW43930   3.305   2.153   0.097 -0.1813  0.3184  0.0679
10803WAT      O43931   1.297   7.250   5.046  0.7007  0.0637 -0.4096
10803WAT     H143932   1.326   7.286   5.120  0.8258  0.4576 -0.6522
10803WAT     H243933   1.370   7.222   5.007  0.6505  0.0326 -0.4820
10803WAT    EPW43934   1.312   7.251   5.051  0.7118  0.1173 -0.4561
10804WAT      O43935   1.585   1.773   4.324  0.3739 -0.1430 -0.3545
10804WAT     H143936   1.506   1.809   4.327  0.8607  0.9543 -0.0034
10804WAT     H243937   1.638   1.842   4.316  1.3747 -0.7457  0.8152
10804WAT    EPW43938   1.581   1.789   4.324  0.5937 -0.0699 -0.1299
10805WAT      O43939   1.397   4.386   3.871  0.6796 -0.4156  0.4953
10805WAT     H143940   1.474   4.422   3.890  1.1918 -0.3048 -1.5720
10805WAT     H243941   1.418   4.312   3.830 -0.3682 -1.6833  2.1214
10805WAT    EPW43942   1.411   4.381   3.868  0.6005 -0.5865  0.4301
10806WAT      O43943   3.088   5.911   4.794 -0.4114  0.0390  0.3047
10806WAT     H143944   3.060   5.987   4.763 -1.2984  0.0756  1.1690
10806WAT     H243945   3.028   5.854   4.768  1.7655 -1.0005 -3.0521
10806WAT    EPW43946   3.075   5.913   4.786 -0.2209 -0.1092 -0.0635
10807WAT      O43947   6.710   3.532   3.752  0.3186  0.6419 -0.0945
10807WAT     H143948   6.711   3.615   3.725 -1.1357  1.0975  1.0932
10807WAT     H243949   6.635   3.526   3.796 -0.3168 -1.7021 -1.3275
10807WAT    EPW43950   6.699   3.543   3.754  0.0099  0.3629 -0.1012
10808WAT      O43951   1.610   3.781   4.372 -0.0004 -0.0538 -0.5002
10808WAT     H143952   1.605   3.770   4.286 -0.5366 -0.4137 -0.4233
10808WAT     H243953   1.695   3.798   4.386  0.4161 -1.7050 -0.9009
10808WAT    EPW43954   1.622   3.782   4.362 -0.0181 -0.3509 -0.5480
10809WAT      O43955   3.760   5.369   3.244 -0.0176 -0.0150 -0.3510
10809WAT     H143956   3.811   5.381   3.314  0.4639  0.7999 -0.8202
10809WAT     H243957   3.717   5.444   3.237  0.5323  0.2245 -1.3828
10809WAT    EPW43958   3.762   5.382   3.253  0.1347  0.1407 -0.5727
10810WAT      O43959   2.850   3.765   7.337  0.2268 -0.1392 -0.0735
10810WAT     H143960   2.879   3.732   7.261  0.9807  3.1059 -1.3857
10810WAT     H243961   2.763   3.759   7.329  0.3173 -0.8991 -0.6565
10810WAT    EPW43962   2.841   3.759   7.324  0.3516  0.2279 -0.3534
10811WAT      O43963   2.789   5.242   5.663  0.1827  0.1414 -1.2710
10811WAT     H143964   2.856   5.297   5.667 -0.7969  1.3062 -0.0213
10811WAT     H243965   2.771   5.238   5.578 -0.0931  2.2760 -1.3710
10811WAT    EPW43966   2.796   5.249   5.651 -0.0027  0.6288 -1.1012
10812WAT      O43967   2.454   3.418   2.534 -0.2656 -0.2524 -0.7702
10812WAT     H143968   2.399   3.471   2.492 -1.6972 -1.7346 -0.8693
10812WAT     H243969   2.532   3.456   2.523 -1.3117  2.3523  0.0359
10812WAT    EPW43970   2.457   3.432   2.526 -0.6316 -0.0866 -0.6658
10813WAT      O43971   3.548   6.268   3.152 -0.5916  0.0877  0.5854
10813WAT     H143972   3.483   6.297   3.102 -1.6041 -2.7220  0.0627
10813WAT     H243973   3.620   6.288   3.106 -1.3539 -0.2993 -0.8337
10813WAT    EPW43974   3.549   6.275   3.138 -0.8538 -0.3845  0.2985
10814WAT      O43975   7.302   1.895   6.586 -0.4333  0.5050  0.2474
10814WAT     H143976   7.240   1.953   6.563 -0.3621  1.4974  2.3364
10814WAT     H243977   7.260   1.818   6.584 -1.5226  1.0516  0.7511
10814WAT    EPW43978   7.286   1.892   6.582 -0.5837  0.7324  0.6304
10815WAT      O43979   7.574   6.442   4.102  0.4513 -1.0487 -0.0344
10815WAT     H143980   7.549   6.412   4.180 -2.0188  0.4914 -0.1205
10815WAT     H243981   7.528   6.393   4.046 -1.1666  0.6141 -0.2751
10815WAT    EPW43982   7.563   6.431   4.105 -0.1526 -0.5756 -0.0827
10816WAT      O43983   3.352   2.858   0.586 -0.1873  0.3759 -0.4562
10816WAT     H143984   3.379   2.881   0.666  0.7911  1.0267 -0.9499
10816WAT     H243985   3.274   2.894   0.579 -0.5612 -0.2234  0.4350
10816WAT    EPW43986   3.345   2.866   0.597 -0.0980  0.3835 -0.3975
10817WAT      O43987   2.560   2.638   5.900 -0.3710 -0.3308  0.3566
10817WAT     H143988   2.477   2.654   5.876 -0.5063  0.2730  1.1661
10817WAT     H243989   2.558   2.650   5.987 -0.0952 -3.1561  0.8635
10817WAT    EPW43990   2.547   2.642   5.909 -0.3503 -0.6590  0.5510
10818WAT      O43991   2.122   3.229   1.394 -0.5656 -0.1108 -0.1525
10818WAT     H143992   2.079   3.274   1.332  0.8701  0.9254 -0.4317
10818WAT     H243993   2.203   3.260   1.390  0.0487 -1.4853  0.8874
10818WAT    EPW43994   2.127   3.240   1.385 -0.2628 -0.1608 -0.0401
10819WAT      O43995   2.895   2.255   1.956 -0.2933  0.2304 -0.0125
10819WAT     H143996   2.896   2.328   2.003  0.5476  0.0584  0.2511
10819WAT     H243997   2.963   2.264   1.902 -1.6527  0.7612 -1.7512
10819WAT    EPW43998   2.905   2.267   1.955 -0.3699  0.2834 -0.2304
10820WAT      O43999   0.624   6.646   4.063  0.2361  0.1666  0.3708
10820WAT     H144000   0.555   6.653   4.115 -1.2637 -0.8634 -1.3445
10820WAT     H244001   0.624   6.721   4.019 -0.0246  0.0345  0.1384
10820WAT    EPW44002   0.614   6.658   4.064 -0.0240 -0.0051  0.0831
10821WAT      O44003   6.455   3.833   3.807 -0.0662 -0.1615  0.6088
10821WAT     H144004   6.529   3.805   3.845 -0.4843 -1.7033  0.3553
10821WAT     H244005   6.444   3.778   3.740 -1.6319 -0.1912  0.8503
10821WAT    EPW44006   6.465   3.820   3.803 -0.3592 -0.3936  0.6070
10822WAT      O44007   0.641   4.077   4.770  0.3759  0.3192 -0.3791
10822WAT     H144008   0.572   4.129   4.777 -0.0427 -0.1092 -1.2173
10822WAT     H244009   0.625   4.030   4.698  0.6219 -1.1460  0.4767
10822WAT    EPW44010   0.628   4.078   4.760  0.3504  0.0395 -0.3765
10823WAT      O44011   5.979   5.866   6.810  0.4253 -0.4478 -0.0407
10823WAT     H144012   6.012   5.788   6.831  0.1034 -0.9182 -1.1655
10823WAT     H244013   6.035   5.898   6.752  0.5679  0.1855  0.4285
10823WAT    EPW44014   5.992   5.859   6.805  0.3988 -0.4237 -0.1376
10824WAT      O44015   3.058   5.347   3.580 -0.2286  0.2432 -0.3157
10824WAT     H144016   3.137   5.324   3.608  0.2951  0.5553 -1.4460
10824WAT     H244017   3.004   5.311   3.638  0.6508 -1.7014 -0.6073
10824WAT    EPW44018   3.062   5.338   3.592 -0.0214  0.0021 -0.5258
10825WAT      O44019   5.784   4.165   7.605 -0.2981  0.0484 -0.7225
10825WAT     H144020   5.718   4.194   7.556 -0.3555  0.7314 -0.2515
10825WAT     H244021   5.793   4.226   7.666 -0.4374 -0.9186  0.3111
10825WAT    EPW44022   5.775   4.178   7.607 -0.3272  0.0064 -0.5002
10826WAT      O44023   1.295   5.880   4.122  0.1949 -0.1284  0.8280
10826WAT     H144024   1.337   5.912   4.054 -0.4166 -0.8228  0.0953
10826WAT     H244025   1.290   5.794   4.105 -0.9409 -0.1600  1.1848
10826WAT    EPW44026   1.300   5.872   4.109 -0.0632 -0.2357  0.7725
10827WAT      O44027   6.079   3.688   0.619 -0.0480 -0.3068  0.0998
10827WAT     H144028   6.050   3.608   0.638 -2.0279 -0.1246 -1.7763
10827WAT     H244029   6.038   3.739   0.677 -0.1075 -0.4887  0.2189
10827WAT    EPW44030   6.068   3.684   0.630 -0.3493 -0.3068 -0.1597
10828WAT      O44031   7.545   0.807   6.776  0.7078 -0.6978 -0.4519
10828WAT     H144032   7.575   0.889   6.789  0.4125 -0.6253 -0.2110
10828WAT     H244033   7.460   0.814   6.794  0.9850 -1.4465  1.4273
10828WAT    EPW44034   7.537   0.820   6.781  0.7051 -0.7977 -0.1387
10829WAT      O44035   2.467   3.029   3.856  0.9075  0.0355 -0.2605
10829WAT     H144036   2.470   3.096   3.800 -0.8573  0.5534  0.2047
10829WAT     H244037   2.442   2.962   3.806  0.1893  0.3059 -0.2785
10829WAT    EPW44038   2.464   3.029   3.840  0.5407  0.1519 -0.1944
10830WAT      O44039   1.062   1.281   5.101 -0.4381 -0.1632  0.3287
10830WAT     H144040   1.141   1.251   5.079 -0.3788  0.6899 -0.7313
10830WAT     H244041   1.053   1.257   5.184  1.2410  0.2952  0.6863
10830WAT    EPW44042   1.072   1.273   5.110 -0.1813  0.0305  0.2249
10831WAT      O44043   6.741   6.686   4.876  0.7002 -0.2782  0.1439
10831WAT     H144044   6.728   6.669   4.960  1.1732 -1.9178 -0.0808
10831WAT     H244045   6.739   6.773   4.872  1.3132 -0.1475  1.9476
10831WAT    EPW44046   6.738   6.697   4.888  0.8607 -0.5011  0.3771
10832WAT      O44047   7.704   5.942   4.835  0.2104 -0.5363 -0.2380
10832WAT     H144048   7.701   6.021   4.872 -1.3920 -0.6263 -0.1160
10832WAT     H244049   7.785   5.938   4.802  1.4329 -0.0437  2.3573
10832WAT    EPW44050   7.716   5.953   4.836  0.1543 -0.4768  0.1634
10833WAT      O44051   7.275   2.695   5.736  0.7745  0.1504  0.1886
10833WAT     H144052   7.281   2.664   5.654  1.0918  1.9234 -0.5162
10833WAT     H244053   7.335   2.650   5.780 -0.2185 -1.6985 -0.2223
10833WAT    EPW44054   7.285   2.684   5.730  0.6747  0.1392  0.0238
10834WAT      O44055   2.935   1.113   1.891 -0.0010  0.0203  0.3189
10834WAT     H144056   2.850   1.112   1.911 -0.8111  1.4884 -2.5040
10834WAT     H244057   2.946   1.040   1.844 -0.0386  0.4332 -0.3497
10834WAT    EPW44058   2.924   1.102   1.887 -0.1262  0.2982 -0.1969
10835WAT      O44059   3.860   1.385   4.327 -0.7613 -0.0047  0.3264
10835WAT     H144060   3.813   1.326   4.370 -1.0717 -0.8995 -1.1552
10835WAT     H244061   3.921   1.338   4.287 -0.8545  0.6913 -0.6789
10835WAT    EPW44062   3.862   1.370   4.327 -0.8209 -0.0340 -0.0410
10836WAT      O44063   2.405   5.050   7.530 -0.2151  0.0188 -0.4376
10836WAT     H144064   2.378   5.094   7.459  0.5565 -0.5492 -1.1009
10836WAT     H244065   2.447   5.110   7.576  0.4511  0.0917 -1.1233
10836WAT    EPW44066   2.407   5.066   7.526 -0.0027 -0.0544 -0.6369
10837WAT      O44067   1.796   6.017   3.517  0.0445  0.7570 -0.1701
10837WAT     H144068   1.788   6.026   3.603  1.6260 -0.6978  0.1722
10837WAT     H244069   1.739   5.954   3.497 -1.7896  2.4445 -0.5670
10837WAT    EPW44070   1.787   6.009   3.527  0.0072  0.7914 -0.1781
10838WAT      O44071   6.272   4.560   5.986 -0.2291 -0.3283  0.6247
10838WAT     H144072   6.314   4.483   5.987  0.4143  0.0156  0.2971
10838WAT     H244073   6.326   4.613   6.029 -1.0993 -0.2689  1.6890
10838WAT    EPW44074   6.286   4.557   5.993 -0.2626 -0.2687  0.7335
10839WAT      O44075   0.524   0.606   7.191  0.2459  0.2505  0.0296
10839WAT     H144076   0.483   0.557   7.251 -2.0444  0.4576 -1.2351
10839WAT     H244077   0.510   0.688   7.218  0.2527  0.3097 -0.1465
10839WAT    EPW44078   0.516   0.611   7.204 -0.0914  0.2898 -0.1832
10840WAT      O44079   6.061   2.390   3.696 -0.8762  0.1276 -0.1166
10840WAT     H144080   6.072   2.408   3.611 -0.1254 -1.7005 -0.4638
10840WAT     H244081   6.139   2.410   3.731 -0.8025 -0.2197 -0.0816
10840WAT    EPW44082   6.074   2.396   3.689 -0.7544 -0.1938 -0.1627
10841WAT      O44083   3.067   2.056   3.979  0.2898  0.5635  0.0010
10841WAT     H144084   3.046   2.093   4.055 -1.0956  0.4247 -0.2967
10841WAT     H244085   3.121   2.114   3.943  0.0656  1.1562  0.5927
10841WAT    EPW44086   3.072   2.070   3.985  0.0521  0.6305  0.0444
10842WAT      O44087   7.670   1.346   4.317 -0.1554  0.5075 -0.4433
10842WAT     H144088   7.598   1.297   4.307  0.0942 -0.6346  2.3424
10842WAT     H244089   7.713   1.333   4.242 -1.4620 -1.2296 -0.9880
10842WAT    EPW44090   7.666   1.337   4.304 -0.3116  0.0821 -0.1123
10843WAT      O44091   6.027   5.307   4.615 -0.6501  0.1050  0.0517
10843WAT     H144092   5.987   5.366   4.665  0.9158 -0.8184  2.6475
10843WAT     H244093   6.092   5.352   4.578 -1.8152  0.7986 -1.2314
10843WAT    EPW44094   6.031   5.322   4.617 -0.5909  0.0711  0.2456
10844WAT      O44095   0.895   1.006   5.685  0.6903 -0.3579 -0.0471
10844WAT     H144096   0.855   0.929   5.690 -2.0450  0.8858 -0.7667
10844WAT     H244097   0.943   1.009   5.758  0.0680 -2.3128  0.5054
10844WAT    EPW44098   0.896   0.995   5.696  0.1943 -0.4630 -0.0718
10845WAT      O44099   3.722   5.996   4.336 -0.0826  0.3175  0.1225
10845WAT     H144100   3.677   5.937   4.381 -1.3285  0.6524 -0.6328
10845WAT     H244101   3.727   6.064   4.390 -0.8687  0.4300  0.0558
10845WAT    EPW44102   3.716   5.997   4.351 -0.3828  0.3836  0.0010
10846WAT      O44103   7.366   3.195   5.776 -0.2960  0.7342  0.2256
10846WAT     H144104   7.409   3.247   5.831  0.6223 -0.0080  0.2591
10846WAT     H244105   7.282   3.209   5.795 -0.0147  0.2625  2.0669
10846WAT    EPW44106   7.360   3.205   5.787 -0.1188  0.5549  0.5026
10847WAT      O44107   1.079   2.687   3.916 -0.0060 -0.0734  0.6936
10847WAT     H144108   1.053   2.654   3.992  1.3740  0.0933  1.2713
10847WAT     H244109   1.086   2.772   3.931  0.0636 -0.0067  0.3126
10847WAT    EPW44110   1.076   2.695   3.929  0.2081 -0.0390  0.7226
10848WAT      O44111   2.740   2.128   5.758  0.5795  0.5618  0.7367
10848WAT     H144112   2.787   2.109   5.830 -0.1102  1.8302  1.5611
10848WAT     H244113   2.714   2.211   5.772 -2.6814 -0.3300  0.7722
10848WAT    EPW44114   2.743   2.138   5.771 -0.0041  0.6174  0.8637
10849WAT      O44115   2.335   3.562   2.764 -0.5784 -0.6318  0.0880
10849WAT     H144116   2.379   3.543   2.836 -1.1983  1.2842  1.0525
10849WAT     H244117   2.377   3.518   2.701  2.6222  0.8915  0.9494
10849WAT    EPW44118   2.348   3.553   2.765 -0.1972 -0.1238  0.3577
10850WAT      O44119   1.962   0.649   3.569 -0.4315  0.4124  0.5667
10850WAT     H144120   1.897   0.620   3.619  0.2431  1.5675  2.2140
10850WAT     H244121   1.971   0.733   3.594  1.0002  0.5586 -0.3449
10850WAT    EPW44122   1.954   0.657   3.580 -0.1204  0.6046  0.6754
10851WAT      O44123   6.759   1.030   5.539 -0.0200 -0.2386  0.3303
10851WAT     H144124   6.843   1.011   5.549  0.7301  2.5096 -0.0509
10851WAT     H244125   6.728   0.961   5.494  1.9850 -1.3034  0.4679
10851WAT    EPW44126   6.767   1.017   5.534  0.3870  0.0101  0.2944
10852WAT      O44127   6.914   6.232   5.437  0.2549 -0.0285 -0.4266
10852WAT     H144128   6.910   6.216   5.523  0.9063 -0.7333 -0.5198
10852WAT     H244129   6.834   6.212   5.409 -0.4262  1.5755  0.2113
10852WAT    EPW44130   6.901   6.227   5.445  0.2505  0.1043 -0.3462
10853WAT      O44131   7.277   4.620   7.550  0.3330 -0.2912 -0.1637
10853WAT     H144132   7.285   4.534   7.556  0.6689 -0.3680 -1.4086
10853WAT     H244133   7.329   4.641   7.484 -0.3227  0.7713 -0.3744
10853WAT    EPW44134   7.286   4.611   7.541  0.2858 -0.1456 -0.3787
10854WAT      O44135   3.966   6.551   6.346  0.2414 -0.0999  0.3495
10854WAT     H144136   3.978   6.615   6.405  0.5779  2.5471 -2.3427
10854WAT     H244137   3.880   6.534   6.352  0.7808 -2.5757  3.9246
10854WAT    EPW44138   3.955   6.558   6.356  0.3708 -0.0746  0.4799
10855WAT      O44139   0.546   5.223   0.259  0.1086  0.0197  0.5320
10855WAT     H144140   0.618   5.255   0.224 -0.3325  1.2979  0.7404
10855WAT     H244141   0.486   5.285   0.245  0.2307  1.5150  4.8712
10855WAT    EPW44142   0.548   5.237   0.252  0.0615  0.4294  1.2038
10856WAT      O44143   2.622   6.177   2.591  0.2339  0.1216 -0.0509
10856WAT     H144144   2.683   6.238   2.580  0.8211 -0.4660 -0.1325
10856WAT     H244145   2.655   6.107   2.550  0.2237 -0.6638  1.2128
10856WAT    EPW44146   2.636   6.176   2.583  0.3192 -0.0812  0.1237
10857WAT      O44147   7.193   5.427   0.165 -0.1027 -0.4517 -0.6020
10857WAT     H144148   7.237   5.471   0.225  0.6462 -1.0330 -0.7161
10857WAT     H244149   7.239   5.440   0.092 -0.4575 -0.5640 -0.8482
10857WAT    EPW44150   7.206   5.435   0.163 -0.0445 -0.5541 -0.6552
10858WAT      O44151   2.064   1.886   1.929 -0.5284  0.6899  0.4293
10858WAT     H144152   2.087   1.931   1.858 -0.6673 -0.0623 -0.0916
10858WAT     H244153   1.986   1.853   1.910 -0.0612 -0.4920  0.4595
10858WAT    EPW44154   2.056   1.888   1.916 -0.4799  0.4042  0.3568
10859WAT      O44155   6.116   5.522   5.159  0.3702  0.1689  0.2237
10859WAT     H144156   6.059   5.566   5.209  0.1057 -0.6927  0.7032
10859WAT     H244157   6.134   5.578   5.095 -1.5281  0.2213 -0.3193
10859WAT    EPW44158   6.110   5.537   5.157  0.0507  0.0493  0.2143
10860WAT      O44159   4.704   6.812   7.796  0.3944  0.4540  0.0108
10860WAT     H144160   4.694   6.816   7.710 -0.4791  0.5192  0.1090
10860WAT     H244161   4.706   6.726   7.813 -0.2509  0.4314  0.0046
10860WAT    EPW44162   4.703   6.800   7.786  0.1700  0.4603  0.0244
10861WAT      O44163   2.137   7.536   6.626  0.8666  0.0469 -0.0651
10861WAT     H144164   2.192   7.603   6.618 -0.2506  1.1605  1.0243
10861WAT     H244165   2.184   7.476   6.667  1.8430  0.2112 -0.9053
10861WAT    EPW44166   2.152   7.537   6.631  0.8458  0.2356 -0.0283
10862WAT      O44167   3.952   3.441   6.564  0.0064 -0.3733 -0.2109
10862WAT     H144168   3.960   3.527   6.551  1.4290  0.0991  2.9214
10862WAT     H244169   3.938   3.410   6.484 -2.7054  2.9240 -1.2684
10862WAT    EPW44170   3.951   3.449   6.551 -0.1840  0.1836  0.0956
10863WAT      O44171   5.515   0.714   1.789 -0.2573 -0.3590  0.6177
10863WAT     H144172   5.536   0.679   1.713 -3.5491 -2.0818  0.3419
10863WAT     H244173   5.519   0.800   1.774  0.8628 -0.6497 -0.9179
10863WAT    EPW44174   5.518   0.722   1.776 -0.5781 -0.6565  0.3501
10864WAT      O44175   4.875   4.037   4.017 -0.3327 -0.2204  0.9247
10864WAT     H144176   4.810   4.039   4.075 -0.1701  1.0172  1.0989
10864WAT     H244177   4.925   4.105   4.040  1.4347 -1.5555  1.2414
10864WAT    EPW44178   4.873   4.047   4.029 -0.0476 -0.2348  0.9972
10865WAT      O44179   6.932   4.496   4.714  0.7184 -0.2340 -0.2340
10865WAT     H144180   6.854   4.495   4.676  1.4614  0.0755 -1.8157
10865WAT     H244181   6.932   4.424   4.763  0.3917 -1.6881 -2.2528
10865WAT    EPW44182   6.921   4.485   4.716  0.7799 -0.4031 -0.7659
10866WAT      O44183   1.889   0.554   4.295  0.1008  0.3903  0.2605
10866WAT     H144184   1.968   0.591   4.301  0.1903  0.5162 -1.3633
10866WAT     H244185   1.900   0.477   4.334  1.2028  0.1661 -0.4492
10866WAT    EPW44186   1.902   0.548   4.302  0.2768  0.3757 -0.0842
10867WAT      O44187   5.891   6.496   3.424  0.0121 -0.0668  0.0437
10867WAT     H144188   5.963   6.448   3.410 -0.8587 -1.3393 -0.2401
10867WAT     H244189   5.835   6.467   3.364 -0.7100  1.0136  0.1585
10867WAT    EPW44190   5.894   6.485   3.413 -0.2232 -0.0952  0.0188
10868WAT      O44191   4.168   7.169   2.494  0.1089  0.8493  0.0738
10868WAT     H144192   4.141   7.088   2.473 -1.0663  1.4122 -0.7162
10868WAT     H244193   4.142   7.179   2.576 -0.6324  0.7696 -0.1438
10868WAT    EPW44194   4.160   7.158   2.503 -0.1742  0.9207 -0.0751
10869WAT      O44195   4.299   6.969   4.772  0.2231 -0.3939 -0.4391
10869WAT     H144196   4.273   6.897   4.729 -0.1609 -0.0533 -0.7853
10869WAT     H244197   4.336   7.017   4.709  1.2314 -0.6435 -0.0494
10869WAT    EPW44198   4.301   6.965   4.756  0.3153 -0.3804 -0.4327
10870WAT      O44199   2.423   4.921   2.370  0.4056 -0.3219  0.2925
10870WAT     H144200   2.390   4.920   2.450  0.2581  0.9299  0.2568
10870WAT     H244201   2.506   4.898   2.382  0.4527  0.1134  0.8400
10870WAT    EPW44202   2.430   4.917   2.383  0.3908 -0.0726  0.3681
10871WAT      O44203   2.692   4.353   7.298 -0.1857  0.4859 -0.6420
10871WAT     H144204   2.642   4.282   7.289  1.1140 -0.7457  1.1498
10871WAT     H244205   2.764   4.333   7.254  0.1262  0.7513 -0.2583
10871WAT    EPW44206   2.695   4.339   7.290  0.0523  0.3432 -0.3207
10872WAT      O44207   1.540   7.483   1.838  0.4058  0.0060 -0.4988
10872WAT     H144208   1.574   7.476   1.918 -0.0664  0.5424 -0.2389
10872WAT     H244209   1.552   7.404   1.803 -1.4315 -0.9919  0.9448
10872WAT    EPW44210   1.546   7.471   1.845  0.0646 -0.0622 -0.2471
10873WAT      O44211   1.181   3.968   6.127 -0.3991  0.7236 -0.4466
10873WAT     H144212   1.188   4.003   6.048 -0.7942 -0.6897 -1.1330
10873WAT     H244213   1.246   4.005   6.172 -0.3828  1.7945 -1.3131
10873WAT    EPW44214   1.192   3.979   6.122 -0.4550  0.6730 -0.6760
10874WAT      O44215   1.685   4.050   3.761  0.7675 -0.4017  0.2530
10874WAT     H144216   1.664   4.027   3.842 -1.6170 -1.7850 -0.6416
10874WAT     H244217   1.713   3.975   3.725  2.5929  0.3569 -0.0547
10874WAT    EPW44218   1.686   4.036   3.767  0.6849 -0.4940  0.0754
10875WAT      O44219   2.825   2.907   5.169  0.7541 -0.2018 -0.1419
10875WAT     H144220   2.876   2.934   5.235  0.5389  0.0743 -0.0882
10875WAT     H244221   2.795   2.981   5.134  0.1772 -0.3591 -0.0049
10875WAT    EPW44222   2.828   2.922   5.174  0.6371 -0.1843 -0.1137
10876WAT      O44223   5.661   5.574   5.137 -0.3263 -0.2915  0.2531
10876WAT     H144224   5.667   5.493   5.168 -0.8365 -0.2542  0.4623
10876WAT     H244225   5.625   5.564   5.058 -1.1213 -0.2149  0.5963
10876WAT    EPW44226   5.657   5.561   5.130 -0.5191 -0.2747  0.3347
10877WAT      O44227   3.206   4.588   6.143  0.1038  0.1438  0.5244
10877WAT     H144228   3.263   4.652   6.125  1.5056 -1.5568 -1.5767
10877WAT     H244229   3.170   4.570   6.066 -0.8323 -1.0994  1.2125
10877WAT    EPW44230   3.209   4.595   6.129  0.1726 -0.2911  0.3157
10878WAT      O44231   1.871   3.863   4.422  0.4852 -0.4544 -0.1210
10878WAT     H144232   1.885   3.790   4.468  1.2312  0.4071  1.0844
10878WAT     H244233   1.866   3.925   4.483 -2.0349  0.2988 -0.9467
10878WAT    EPW44234   1.872   3.861   4.438  0.2231 -0.2158 -0.0649
10879WAT      O44235   4.498   7.075   2.250 -0.2221 -0.5457  0.6067
10879WAT     H144236   4.495   6.988   2.245  0.3208 -0.5459  0.1193
10879WAT     H244237   4.417   7.100   2.227  0.0906 -0.8694 -0.9417
10879WAT    EPW44238   4.485   7.066   2.246 -0.0957 -0.5935  0.3060
10880WAT      O44239   0.244   1.619   6.889 -0.2337  0.3196 -0.1043
10880WAT     H144240   0.328   1.595   6.882 -0.2749  0.2919 -0.5139
10880WAT     H244241   0.240   1.656   6.968 -0.3014 -1.5487  0.8091
10880WAT    EPW44242   0.256   1.621   6.900 -0.2498  0.0395 -0.0299
10881WAT      O44243   2.363   2.248   5.767 -0.2136 -0.0428  0.0062
10881WAT     H144244   2.286   2.224   5.801 -0.4972  0.1996 -0.4567
10881WAT     H244245   2.411   2.175   5.772 -0.6496 -0.3479 -0.1891
10881WAT    EPW44246   2.359   2.234   5.773 -0.3199 -0.0520 -0.0910
10882WAT      O44247   0.983   2.019   4.593  0.8837  0.4968 -0.1950
10882WAT     H144248   0.964   2.064   4.665  0.1981 -0.2425  0.1022
10882WAT     H244249   0.986   2.080   4.530 -1.2678  0.8445 -0.0263
10882WAT    EPW44250   0.980   2.035   4.594  0.4646  0.4389 -0.1262
10883WAT      O44251   1.305   3.858   4.033 -0.4335 -0.0835  0.1359
10883WAT     H144252   1.229   3.821   4.015 -0.2266 -1.8740  2.4918
10883WAT     H244253   1.299   3.880   4.117  1.2019  0.9010  0.0559
10883WAT    EPW44254   1.293   3.856   4.042 -0.1613 -0.2026  0.4721
10884WAT      O44255   3.559   4.344   0.451 -0.4725  0.4705  0.6813
10884WAT     H144256   3.474   4.332   0.466 -0.2088 -0.5554  1.4610
10884WAT     H244257   3.563   4.364   0.366 -1.6374  2.3520  1.0033
10884WAT    EPW44258   3.547   4.345   0.440 -0.6056  0.5969  0.8441
10885WAT      O44259   2.641   5.529   5.864  0.1009 -0.2514  0.2663
10885WAT     H144260   2.577   5.505   5.918  0.3709  0.2541  0.8222
10885WAT     H244261   2.600   5.540   5.787 -0.5435  0.3555  0.6814
10885WAT    EPW44262   2.626   5.527   5.860  0.0456 -0.0870  0.4097
10886WAT      O44263   4.774   1.808   4.701  0.2374  0.8498 -0.2997
10886WAT     H144264   4.815   1.731   4.713 -0.3365  0.7346  1.2189
10886WAT     H244265   4.837   1.866   4.719 -0.2311  0.6732  2.4049
10886WAT    EPW44266   4.790   1.805   4.706  0.0834  0.8067  0.3241
10887WAT      O44267   7.060   4.789   4.579 -0.0017 -0.2297  0.5252
10887WAT     H144268   7.060   4.876   4.580  0.7270 -0.1243  4.1214
10887WAT     H244269   6.977   4.769   4.562 -0.7176  1.2800  1.9560
10887WAT    EPW44270   7.048   4.799   4.577  0.0002  0.0089  1.2678
10888WAT      O44271   3.080   3.154   6.809  0.2280  0.2749  0.2170
10888WAT     H144272   3.096   3.232   6.773 -0.3074 -0.1880 -1.0473
10888WAT     H244273   3.076   3.173   6.895  0.4582  1.5695 -0.0277
10888WAT    EPW44274   3.082   3.169   6.817  0.1829  0.3977 -0.0059
10889WAT      O44275   1.849   5.683   4.030 -0.4741  0.3656  0.2499
10889WAT     H144276   1.909   5.709   3.973  0.0176 -2.1754 -0.5140
10889WAT     H244277   1.774   5.713   3.996  0.0643  1.0733 -0.3424
10889WAT    EPW44278   1.847   5.691   4.017 -0.3219  0.0948  0.0496
10890WAT      O44279   1.818   5.186   5.395  0.4575  0.6968  0.1198
10890WAT     H144280   1.788   5.146   5.323 -0.7515  2.0951 -0.2104
10890WAT     H244281   1.905   5.176   5.389  0.2634 -1.1505 -0.3283
10890WAT    EPW44282   1.827   5.179   5.383  0.2502  0.6305  0.0049
10891WAT      O44283   1.303   1.089   0.212 -0.3065 -0.5814  0.2194
10891WAT     H144284   1.221   1.119   0.215 -0.2133 -0.1092 -1.0692
10891WAT     H244285   1.294   1.003   0.221 -0.9530 -0.5328  0.0846
10891WAT    EPW44286   1.289   1.081   0.214 -0.3882 -0.5045  0.0091
10892WAT      O44287   4.284   1.079   6.207 -0.0276 -0.0656  0.1503
10892WAT     H144288   4.275   1.115   6.129 -0.9481  0.4044  0.4709
10892WAT     H244289   4.369   1.089   6.224  0.0519  0.4160 -0.4972
10892WAT    EPW44290   4.295   1.086   6.198 -0.1518  0.0750  0.1020
10893WAT      O44291   2.082   2.407   7.327  0.2560  0.3062 -0.1264
10893WAT     H144292   2.167   2.406   7.307  0.0422 -1.0049 -1.0438
10893WAT     H244293   2.051   2.333   7.292 -1.0561  0.2140  1.1172
10893WAT    EPW44294   2.090   2.396   7.319  0.0306  0.0989 -0.0782
10894WAT      O44295   0.497   5.318   7.263 -0.2920  0.3508  0.0274
10894WAT     H144296   0.508   5.386   7.210  0.3977  0.9189  0.8665
10894WAT     H244297   0.573   5.277   7.259  0.5660  1.5746  2.1375
10894WAT    EPW44298   0.510   5.322   7.255 -0.0634  0.6155  0.4631
10895WAT      O44299   3.428   4.247   2.295  0.3011 -0.1791  0.1244
10895WAT     H144300   3.466   4.198   2.357  0.9120  0.5898  0.3768
10895WAT     H244301   3.442   4.329   2.322  0.0816  0.1588 -0.7448
10895WAT    EPW44302   3.436   4.252   2.308  0.3589 -0.0156  0.0333
10896WAT      O44303   1.283   3.392   3.836  0.0553 -0.6759  0.2800
10896WAT     H144304   1.330   3.382   3.909 -0.4608  0.3473  0.7766
10896WAT     H244305   1.216   3.441   3.861  1.0589  1.7209 -1.3283
10896WAT    EPW44306   1.280   3.398   3.850  0.1273 -0.1707  0.1158
10897WAT      O44307   1.951   1.014   5.568 -0.4550  0.0316 -1.1044
10897WAT     H144308   2.025   1.060   5.561 -0.8976  0.7347 -1.2129
10897WAT     H244309   1.898   1.050   5.509 -1.4635  0.6595  0.1476
10897WAT    EPW44310   1.954   1.026   5.558 -0.6694  0.2282 -0.9355
10898WAT      O44311   6.416   4.343   6.649  0.1515 -0.1110  0.0019
10898WAT     H144312   6.384   4.308   6.576  2.6154  0.6892 -1.5627
10898WAT     H244313   6.428   4.275   6.702  3.0130 -1.5515 -2.2409
10898WAT    EPW44314   6.413   4.328   6.646  0.9382 -0.2056 -0.5606
10899WAT      O44315   5.508   0.993   4.906 -0.6465 -0.3558  0.5099
10899WAT     H144316   5.534   1.023   4.984 -0.0113  0.2385  0.0814
10899WAT     H244317   5.582   0.967   4.868 -0.8488  0.0085 -0.1588
10899WAT    EPW44318   5.523   0.994   4.912 -0.5825 -0.2142  0.3478
10900WAT      O44319   2.534   3.932   4.445  0.1046  0.5879 -0.2789
10900WAT     H144320   2.595   3.960   4.388 -0.8256  2.8743 -0.2648
10900WAT     H244321   2.568   3.858   4.476  1.4106  0.0932 -2.5897
10900WAT    EPW44322   2.548   3.926   4.441  0.1601  0.8526 -0.6181
10901WAT      O44323   5.983   5.168   4.244 -0.0072 -0.5857  0.5389
10901WAT     H144324   5.971   5.087   4.272 -0.9651  0.2312  2.6900
10901WAT     H244325   5.910   5.186   4.199 -0.3257 -0.5232  1.0801
10901WAT    EPW44326   5.970   5.159   4.241 -0.1958 -0.4558  0.9366
10902WAT      O44327   2.660   4.660   3.863  0.3060 -0.4118 -0.0143
10902WAT     H144328   2.688   4.583   3.894 -1.1881 -0.7243  0.6778
10902WAT     H244329   2.627   4.700   3.933 -0.8122 -0.0368 -0.7203
10902WAT    EPW44330   2.659   4.654   3.878 -0.0799 -0.4026 -0.0164
10903WAT      O44331   7.738   3.862   4.728 -0.0016 -0.3027  0.4802
10903WAT     H144332   7.781   3.787   4.741 -1.8332 -1.5019  0.0264
10903WAT     H244333   7.667   3.837   4.685 -0.2526  1.8474 -0.4681
10903WAT    EPW44334   7.734   3.847   4.724 -0.3092 -0.1622  0.2731
10904WAT      O44335   2.843   1.194   3.056  0.3085 -0.1242  0.0963
10904WAT     H144336   2.766   1.229   3.076  0.4626  0.1099  0.2799
10904WAT     H244337   2.871   1.161   3.132 -0.2080 -1.3842 -0.2367
10904WAT    EPW44338   2.836   1.194   3.070  0.2550 -0.2758  0.0742
10905WAT      O44339   1.636   0.311   7.853  0.0064  0.2138 -0.1039
10905WAT     H144340   1.677   0.239   7.880 -1.8824 -0.7707  0.3228
10905WAT     H244341   1.587   0.334   7.922 -1.1323  0.5820 -1.0038
10905WAT    EPW44342   1.635   0.304   7.867 -0.4409  0.1228 -0.1738
10906WAT      O44343   4.234   0.649   5.176 -0.0063 -0.1925  0.8364
10906WAT     H144344   4.219   0.701   5.244  1.0861  1.1348  0.1282
10906WAT     H244345   4.198   0.692   5.109 -2.3728 -2.1733  0.7088
10906WAT    EPW44346   4.226   0.663   5.176 -0.1945 -0.2891  0.7129
10907WAT      O44347   0.346   1.608   7.397 -0.1252  0.1134  0.2260
10907WAT     H144348   0.303   1.669   7.442 -2.4831 -2.0038  1.0911
10907WAT     H244349   0.360   1.545   7.456  2.5783 -0.1187 -0.5217
10907WAT    EPW44350   0.342   1.607   7.413 -0.0742 -0.2337  0.2434
10908WAT      O44351   7.244   3.168   7.799 -0.3150 -0.3692  0.1828
10908WAT     H144352   7.204   3.097   7.828 -2.0623  0.6610  0.4506
10908WAT     H244353   7.179   3.215   7.763  0.7177  1.2112  0.2800
10908WAT    EPW44354   7.229   3.165   7.798 -0.4205  0.0164  0.2367
10909WAT      O44355   1.807   4.436   7.483  0.2329  0.1501 -0.7804
10909WAT     H144356   1.846   4.490   7.540 -0.1879 -0.1983 -0.1492
10909WAT     H244357   1.840   4.358   7.503 -1.4097 -0.2997  0.3691
10909WAT    EPW44358   1.818   4.433   7.495 -0.0720  0.0322 -0.5174
10910WAT      O44359   2.716   5.044   4.610 -0.1677 -0.7842 -0.1337
10910WAT     H144360   2.675   5.082   4.542  1.4857  0.2263 -0.6233
10910WAT     H244361   2.677   5.079   4.680  0.8190  1.3430 -0.5736
10910WAT    EPW44362   2.704   5.055   4.610  0.2223 -0.3207 -0.2710
10911WAT      O44363   1.999   2.840   1.911 -0.4566 -0.1135  0.0245
10911WAT     H144364   2.039   2.804   1.842 -0.7569 -0.4488  0.0203
10911WAT     H244365   1.986   2.773   1.965  0.8332  0.3404  0.9481
10911WAT    EPW44366   2.003   2.825   1.909 -0.3104 -0.0960  0.1603
10912WAT      O44367   1.222   7.647   6.004 -0.0807 -0.2241 -0.1850
10912WAT     H144368   1.165   7.705   6.034  1.0230  0.6866  0.2035
10912WAT     H244369   1.214   7.579   6.058  0.1699  0.4463  0.7076
10912WAT    EPW44370   1.213   7.645   6.016  0.1193  0.0095  0.0042
10913WAT      O44371   0.781   3.922   4.998  0.2494 -0.5312  0.4530
10913WAT     H144372   0.755   3.944   5.078  2.6782  0.3932  1.0658
10913WAT     H244373   0.744   3.983   4.947 -0.0388 -0.1936  1.0550
10913WAT    EPW44374   0.771   3.934   5.002  0.5656 -0.3447  0.6325
10914WAT      O44375   2.769   3.113   3.925  0.2937  0.0166  0.0218
10914WAT     H144376   2.683   3.111   3.914  0.3902  0.1474 -0.8710
10914WAT     H244377   2.793   3.186   3.884  1.0388 -1.0339 -1.5219
10914WAT    EPW44378   2.760   3.123   3.917  0.4180 -0.1193 -0.3381
10915WAT      O44379   1.805   6.915   6.659 -0.5445 -0.2355  0.0292
10915WAT     H144380   1.721   6.916   6.635 -0.8031 -0.3506  0.9069
10915WAT     H244381   1.834   6.839   6.627 -0.3780  0.4582 -1.5504
10915WAT    EPW44382   1.797   6.904   6.650 -0.5581 -0.1500 -0.0745
10916WAT      O44383   3.901   7.335   1.000 -1.1048  0.0290 -0.1795
10916WAT     H144384   3.955   7.344   0.932  0.1543  0.4664  0.8351
10916WAT     H244385   3.930   7.394   1.057 -2.3975 -0.0366  0.5895
10916WAT    EPW44386   3.913   7.345   0.999 -1.1098  0.0839  0.0840
10917WAT      O44387   0.991   5.488   6.919  0.5284  0.0061 -0.4130
10917WAT     H144388   1.005   5.483   7.005  0.1538  0.6761 -0.3089
10917WAT     H244389   1.020   5.567   6.898 -0.0568  0.1358 -0.7682
10917WAT    EPW44390   0.997   5.499   6.929  0.3866  0.1242 -0.4501
10918WAT      O44391   2.939   0.995   4.993  0.6626  0.0381 -0.4065
10918WAT     H144392   2.928   1.080   5.007  1.4646  0.3998 -1.7096
10918WAT     H244393   2.868   0.972   4.947  0.3772 -0.0425  0.0668
10918WAT    EPW44394   2.927   1.004   4.988  0.7389  0.0796 -0.5291
10919WAT      O44395   6.615   7.576   5.672  0.1531 -0.5031  0.3307
10919WAT     H144396   6.650   7.656   5.675 -1.2562  0.2200 -0.9600
10919WAT     H244397   6.529   7.592   5.678 -0.2668 -1.7496 -1.5027
10919WAT    EPW44398   6.607   7.590   5.673 -0.1171 -0.5804 -0.1308
10920WAT      O44399   1.829   4.601   4.563 -0.4229  0.6694  0.3763
10920WAT     H144400   1.886   4.656   4.601  1.0522  0.1519 -0.9793
10920WAT     H244401   1.765   4.654   4.537 -0.0758  1.4273  0.9917
10920WAT    EPW44402   1.828   4.617   4.565 -0.1537  0.7049  0.2670
10921WAT      O44403   6.201   4.793   3.501  0.4984 -0.4052  0.1453
10921WAT     H144404   6.258   4.753   3.448 -0.9669 -0.4464 -1.4569
10921WAT     H244405   6.135   4.737   3.507 -0.9861  1.1043 -1.0258
10921WAT    EPW44406   6.200   4.779   3.494  0.0626 -0.1883 -0.2644
10922WAT      O44407   2.453   5.111   5.313  0.0175 -0.0897  0.2586
10922WAT     H144408   2.399   5.175   5.337 -0.4010 -1.0061  1.8410
10922WAT     H244409   2.460   5.122   5.226 -0.2083  1.9404  0.4599
10922WAT    EPW44410   2.446   5.122   5.303 -0.0777  0.0748  0.5221
10923WAT      O44411   2.317   5.203   4.692  0.2696  0.0944 -0.2751
10923WAT     H144412   2.249   5.177   4.741  0.7732  0.6906  0.7637
10923WAT     H244413   2.292   5.281   4.662  0.7059  0.5820  0.5851
10923WAT    EPW44414   2.303   5.210   4.695  0.4085  0.2545  0.0054
10924WAT      O44415   1.979   0.078   4.584  0.2733  0.1425 -0.4434
10924WAT     H144416   1.985   0.074   4.671 -0.8512 -1.2571 -0.3911
10924WAT     H244417   2.062   0.081   4.558  0.6311  1.9221  0.6852
10924WAT    EPW44418   1.992   0.078   4.593  0.1600  0.1987 -0.2690
10925WAT      O44419   1.614   6.040   0.771 -0.0493  0.1661  0.2782
10925WAT     H144420   1.679   6.073   0.723  0.7729 -1.5374  0.1732
10925WAT     H244421   1.542   6.071   0.731  0.6613  1.2113 -0.2373
10925WAT    EPW44422   1.613   6.050   0.758  0.1771  0.0688  0.1865
10926WAT      O44423   2.259   0.779   3.689 -0.3178 -0.0391 -0.3875
10926WAT     H144424   2.303   0.848   3.717  0.6138 -0.5200 -0.6262
10926WAT     H244425   2.253   0.728   3.759  0.5442 -0.4902 -0.6247
10926WAT    EPW44426   2.265   0.782   3.703 -0.0529 -0.1768 -0.4578
10927WAT      O44427   4.839   5.307   6.904 -0.2637 -0.0313 -0.3873
10927WAT     H144428   4.850   5.221   6.910  1.3460  0.2179  0.8509
10927WAT     H244429   4.789   5.326   6.973 -1.4558 -0.0680 -1.2124
10927WAT    EPW44430   4.833   5.297   6.915 -0.2020  0.0001 -0.3263
10928WAT      O44431   0.799   5.643   4.487  0.4538 -0.7101 -0.2228
10928WAT     H144432   0.759   5.576   4.526  0.5042 -0.9074 -0.5061
10928WAT     H244433   0.871   5.607   4.453  0.6581 -0.4433 -0.0822
10928WAT    EPW44434   0.804   5.628   4.488  0.4915 -0.6998 -0.2439
10929WAT      O44435   2.415   6.616   4.911  0.0242  0.1776  0.0351
10929WAT     H144436   2.356   6.608   4.975  1.2493 -0.2550  1.1699
10929WAT     H244437   2.369   6.603   4.838 -1.5317  1.2244  0.7757
10929WAT    EPW44438   2.400   6.613   4.910 -0.0247  0.2683  0.3121
10930WAT      O44439   6.973   5.823   5.332  0.6585  0.4923 -0.3064
10930WAT     H144440   6.935   5.761   5.381  1.4802 -0.8628 -1.2967
10930WAT     H244441   6.931   5.818   5.256 -1.2959  3.2685  0.4438
10930WAT    EPW44442   6.961   5.813   5.328  0.4912  0.7023 -0.3418
10931WAT      O44443   1.033   7.404   5.334  0.1140  0.2643  0.1606
10931WAT     H144444   1.000   7.475   5.372 -2.1700 -0.5526 -0.1559
10931WAT     H244445   1.025   7.343   5.395 -0.3488 -0.2741 -0.4251
10931WAT    EPW44446   1.027   7.406   5.349 -0.2917  0.0641  0.0273
10932WAT      O44447   3.300   5.937   6.749  0.0114 -0.0307 -0.0143
10932WAT     H144448   3.374   5.903   6.781  0.1124  1.8148  1.9437
10932WAT     H244449   3.249   5.868   6.739  0.6887 -1.0164  2.3972
10932WAT    EPW44450   3.304   5.922   6.753  0.1264  0.0963  0.6312
10933WAT      O44451   1.439   5.681   3.417 -0.2554 -0.4249  0.2754
10933WAT     H144452   1.457   5.597   3.407  3.2523 -0.1795  2.6152
10933WAT     H244453   1.380   5.683   3.481  2.0944 -1.2306  2.6618
10933WAT    EPW44454   1.433   5.669   3.425  0.6099 -0.5077  0.9735
10934WAT      O44455   1.545   4.604   4.067 -0.1779  0.9017  0.7006
10934WAT     H144456   1.515   4.594   4.148  2.1990  1.6305  1.7477
10934WAT     H244457   1.517   4.684   4.045 -1.3226  0.4748  0.5284
10934WAT    EPW44458   1.537   4.614   4.076  0.0041  0.9463  0.8299
10935WAT      O44459   1.507   0.859   7.578  0.4988 -0.1473 -0.2193
10935WAT     H144460   1.435   0.836   7.535  0.3543  0.1187 -0.1263
10935WAT     H244461   1.571   0.848   7.520  0.1757  1.3356 -0.9142
10935WAT    EPW44462   1.506   0.854   7.563  0.4297  0.1110 -0.3082
10936WAT      O44463   1.551   4.087   5.541 -0.4632 -0.3398  0.4166
10936WAT     H144464   1.510   4.053   5.610 -0.5002 -0.8042  0.1683
10936WAT     H244465   1.611   4.140   5.577  1.0403 -2.2591  0.9024
10936WAT    EPW44466   1.554   4.090   5.556 -0.2466 -0.6919  0.4517
10937WAT      O44467   4.274   2.049   2.035 -0.1109 -0.0454 -0.0544
10937WAT     H144468   4.290   2.129   2.067  0.4919 -0.6487  1.2239
10937WAT     H244469   4.277   2.061   1.949  0.3431  1.2447  0.1125
10937WAT    EPW44470   4.277   2.063   2.027  0.0452  0.0561  0.1591
10938WAT      O44471   3.203   3.983   7.831 -0.8691  0.2277 -0.8341
10938WAT     H144472   3.254   3.984   7.901 -0.7612 -0.4924 -0.8986
10938WAT     H244473   3.136   3.932   7.854 -0.3154 -0.8950 -1.5991
10938WAT    EPW44474   3.201   3.976   7.845 -0.7714 -0.0445 -0.9566
10939WAT      O44475   0.413   2.320   3.765  0.2653  0.1887 -0.3003
10939WAT     H144476   0.334   2.290   3.742  0.5152  0.2393 -1.2494
10939WAT     H244477   0.459   2.247   3.777 -0.4104  0.0764  2.1928
10939WAT    EPW44478   0.408   2.305   3.764  0.2024  0.1795 -0.0722
10940WAT      O44479   3.709   7.545   2.084  0.8243 -0.4390  0.2570
10940WAT     H144480   3.755   7.477   2.115  0.6626 -0.4979  0.3687
10940WAT     H244481   3.771   7.601   2.059  0.9708  0.0437  1.6057
10940WAT    EPW44482   3.725   7.543   2.085  0.8221 -0.3764  0.4727
10941WAT      O44483   7.562   1.243   6.213  0.2709  0.3260  0.1876
10941WAT     H144484   7.529   1.182   6.161 -0.0860  1.1230 -0.5515
10941WAT     H244485   7.534   1.318   6.177  1.6431  0.9696  0.3798
10941WAT    EPW44486   7.553   1.245   6.200  0.4209  0.5388  0.1068
10942WAT      O44487   1.120   5.062   5.234  0.1355  0.9166  0.4969
10942WAT     H144488   1.037   5.088   5.224 -0.2433 -0.8860 -2.4549
10942WAT     H244489   1.126   5.044   5.319 -2.1923  1.9777  0.9788
10942WAT    EPW44490   1.109   5.063   5.245 -0.2643  0.8071  0.1320
10943WAT      O44491   2.710   4.200   3.974 -0.1927  0.1009  0.3069
10943WAT     H144492   2.744   4.272   4.011  1.1203 -1.4572  2.3229
10943WAT     H244493   2.663   4.164   4.038 -2.2313 -0.0501 -1.1824
10943WAT    EPW44494   2.708   4.206   3.989 -0.2999 -0.1515  0.3847
10944WAT      O44495   1.332   4.413   4.500  0.1164  0.5153 -0.4237
10944WAT     H144496   1.396   4.376   4.546  0.7773  1.7543 -0.3045
10944WAT     H244497   1.305   4.349   4.447 -0.0583 -0.6951  1.0399
10944WAT    EPW44498   1.337   4.398   4.499  0.1882  0.5195 -0.1899
10945WAT      O44499   1.250   3.140   5.469 -0.1968 -0.0562 -0.3852
10945WAT     H144500   1.260   3.087   5.538 -0.7088 -0.2210 -0.4300
10945WAT     H244501   1.290   3.213   5.493 -1.4834  0.3615  0.6222
10945WAT    EPW44502   1.258   3.143   5.483 -0.4625 -0.0188 -0.2430
10946WAT      O44503   6.036   3.979   5.516 -0.0657 -0.1265 -0.2780
10946WAT     H144504   5.979   3.949   5.457 -0.5362  2.1623 -1.1023
10946WAT     H244505   5.984   4.013   5.578  0.3403  1.2686 -0.6553
10946WAT    EPW44506   6.020   3.980   5.517 -0.0752  0.4177 -0.4555
10947WAT      O44507   2.201   2.900   2.729  0.1175  0.0475  0.0190
10947WAT     H144508   2.257   2.853   2.777  0.1934 -0.4242 -0.5195
10947WAT     H244509   2.123   2.878   2.760  0.1190 -0.8594 -0.5810
10947WAT    EPW44510   2.198   2.890   2.740  0.1289 -0.1561 -0.1492
10948WAT      O44511   0.984   3.202   4.831  0.3336  0.4404 -0.8161
10948WAT     H144512   0.990   3.141   4.893 -0.1495 -0.0076 -1.1937
10948WAT     H244513   0.985   3.155   4.757 -0.8657  0.8214 -1.0866
10948WAT    EPW44514   0.985   3.186   4.829  0.0851  0.4305 -0.9118
10949WAT      O44515   0.134   5.326   7.691  0.4113  0.2248 -0.0110
10949WAT     H144516   0.116   5.254   7.645  1.6888 -0.5952  0.7214
10949WAT     H244517   0.064   5.335   7.743 -0.3341  0.2633 -1.0013
10949WAT    EPW44518   0.121   5.317   7.692  0.4899  0.1093 -0.0491
10950WAT      O44519   1.099   1.083   5.872  0.3300  0.8612  0.1451
10950WAT     H144520   1.134   1.153   5.832  1.8947  0.2424  0.3549
10950WAT     H244521   1.168   1.031   5.885 -0.8902 -0.9962 -0.5321
10950WAT    EPW44522   1.114   1.086   5.868  0.3809  0.4954  0.0760
10951WAT      O44523   0.960   3.800   6.688 -0.0994  0.3138 -0.1453
10951WAT     H144524   0.919   3.863   6.644 -0.6811 -1.3669 -2.1874
10951WAT     H244525   0.927   3.727   6.654  1.3174 -1.1212  1.3761
10951WAT    EPW44526   0.949   3.799   6.677  0.0239 -0.1465 -0.2222
10952WAT      O44527   0.345   4.040   6.165  0.6929 -0.3657 -0.1540
10952WAT     H144528   0.366   4.116   6.202 -0.5374 -0.1960  0.2468
10952WAT     H244529   0.383   3.981   6.218  0.1202 -0.0766  0.6085
10952WAT    EPW44530   0.353   4.043   6.179  0.4265 -0.2979  0.0179
10953WAT      O44531   6.091   6.886   6.401 -0.5270  0.3739  0.0547
10953WAT     H144532   6.037   6.819   6.416  1.6684 -2.0871 -2.0492
10953WAT     H244533   6.059   6.924   6.330  0.3078 -0.9677 -1.0809
10953WAT    EPW44534   6.078   6.882   6.393 -0.0793 -0.1878 -0.4238
10954WAT      O44535   3.698   0.818   7.103  0.0482  0.0564  0.6997
10954WAT     H144536   3.656   0.814   7.027  1.4956  1.2452 -0.2252
10954WAT     H244537   3.654   0.878   7.148  0.2685  0.7097  0.0574
10954WAT    EPW44538   3.685   0.826   7.098  0.2946  0.3285  0.4682
10955WAT      O44539   5.283   2.995   4.880 -0.5090 -0.1977  0.3253
10955WAT     H144540   5.278   2.911   4.903 -1.7873 -0.3914 -0.5849
10955WAT     H244541   5.240   3.036   4.944 -1.3813 -0.4230 -0.1025
10955WAT    EPW44542   5.276   2.989   4.893 -0.8267 -0.2596  0.1277
10956WAT      O44543   0.562   4.733   3.694  0.7725 -0.3348 -0.2579
10956WAT     H144544   0.611   4.801   3.670 -1.1701  0.8581 -1.1172
10956WAT     H244545   0.595   4.711   3.772  0.6819  2.4950  0.7051
10956WAT    EPW44546   0.574   4.740   3.702  0.4722  0.2595 -0.2426
10957WAT      O44547   6.519   7.265   5.886  0.2931  0.6675  0.8557
10957WAT     H144548   6.585   7.316   5.909  1.7369 -0.9418  0.4381
10957WAT     H244549   6.531   7.193   5.932  0.1460 -0.5167 -0.8494
10957WAT    EPW44550   6.530   7.262   5.896  0.4847  0.2549  0.5422
10958WAT      O44551   2.931   1.296  -0.003  0.1845 -0.4155  0.4724
10958WAT     H144552   2.995   1.346   0.030  1.6635 -1.7752 -0.2302
10958WAT     H244553   2.879   1.281   0.066  0.5675  0.7654  1.0463
10958WAT    EPW44554   2.933   1.301   0.012  0.4596 -0.4419  0.4534
10959WAT      O44555   2.019   2.838   4.756 -0.2419  0.5730  0.3343
10959WAT     H144556   2.051   2.792   4.823 -1.7410 -0.7402  0.2120
10959WAT     H244557   1.951   2.880   4.791 -0.9951 -0.0721 -0.3080
10959WAT    EPW44558   2.014   2.837   4.771 -0.5746  0.2837  0.2213
10960WAT      O44559   3.378   2.514   7.070 -0.0454  0.0914  0.0679
10960WAT     H144560   3.397   2.520   6.985  0.8367 -1.9555  0.0462
10960WAT     H244561   3.429   2.574   7.106 -0.5740  1.1276 -0.8538
10960WAT    EPW44562   3.389   2.523   7.062  0.0068 -0.0579 -0.0715
10961WAT      O44563   6.982   3.923   5.380  0.5516  0.5267 -0.1162
10961WAT     H144564   7.067   3.926   5.402  0.3469  2.5989  0.6030
10961WAT     H244565   6.980   3.957   5.300  0.1912  2.7961  0.7942
10961WAT    EPW44566   6.994   3.928   5.371  0.4681  1.1681  0.1245
10962WAT      O44567   3.248   5.298   5.944  0.7166  0.6163  0.4108
10962WAT     H144568   3.269   5.380   5.964  1.4922  0.6550 -0.5140
10962WAT     H244569   3.162   5.303   5.928  0.4830  0.9703  1.6626
10962WAT    EPW44570   3.238   5.311   5.945  0.7966  0.6743  0.4591
10963WAT      O44571   1.185   3.466   6.940 -0.2509  0.5944  0.0269
10963WAT     H144572   1.167   3.434   6.861 -1.1747 -0.5112  0.6454
10963WAT     H244573   1.265   3.498   6.931 -0.9842  2.1320 -1.8210
10963WAT    EPW44574   1.194   3.466   6.927 -0.4957  0.6582 -0.1547
10964WAT      O44575   3.885   0.366   3.685  0.3721 -0.2246 -0.1070
10964WAT     H144576   3.971   0.352   3.693  0.4399  1.1309  3.1670
10964WAT     H244577   3.873   0.442   3.725 -2.1982  0.3781 -1.8327
10964WAT    EPW44578   3.896   0.375   3.692  0.0024  0.0647  0.1217
10965WAT      O44579   6.229   5.719   4.427 -0.0867 -0.2087 -0.1750
10965WAT     H144580   6.288   5.754   4.481  0.5451 -1.0924 -0.2659
10965WAT     H244581   6.154   5.754   4.454  0.5642  1.6826 -0.6753
10965WAT    EPW44582   6.227   5.729   4.439  0.1028 -0.0598 -0.2623
10966WAT      O44583   1.968   5.161   7.010  0.1169  0.1419 -0.4444
10966WAT     H144584   1.989   5.238   6.975  1.6307  0.7439  1.5960
10966WAT     H244585   2.023   5.105   6.972 -0.1662  0.2571 -1.0425
10966WAT    EPW44586   1.979   5.164   6.999  0.2987  0.2479 -0.2314
10967WAT      O44587   3.150   5.864   7.023 -0.2750  0.2002  0.3238
10967WAT     H144588   3.198   5.813   6.972 -0.6875  0.0406  0.0889
10967WAT     H244589   3.150   5.941   6.981  0.0546  0.2992  0.4996
10967WAT    EPW44590   3.157   5.868   7.009 -0.2873  0.1912  0.3151
10968WAT      O44591   1.947   0.478   5.280 -0.4991 -0.2243 -0.0845
10968WAT     H144592   1.886   0.539   5.268 -0.4276 -0.3923 -1.5509
10968WAT     H244593   1.999   0.488   5.210 -1.3487 -2.9441 -1.2300
10968WAT    EPW44594   1.946   0.488   5.268 -0.6140 -0.6509 -0.4703
10969WAT      O44595   7.190   0.918   4.618 -0.0468 -0.4891 -0.7276
10969WAT     H144596   7.135   0.850   4.623 -0.4183 -0.1834 -0.6749
10969WAT     H244597   7.214   0.918   4.534  0.1721 -0.8559 -0.6689
10969WAT    EPW44598   7.185   0.908   4.606 -0.0694 -0.4981 -0.7111
10970WAT      O44599   2.409   0.430   0.894  0.3226  0.2306  0.6417
10970WAT     H144600   2.361   0.409   0.824  0.2712  0.6494  0.5454
10970WAT     H244601   2.455   0.500   0.867  0.1286  0.5403  1.1008
10970WAT    EPW44602   2.409   0.437   0.880  0.2864  0.3382  0.6953
10971WAT      O44603   3.434   4.520   6.456  0.1907  0.2646 -0.4721
10971WAT     H144604   3.357   4.482   6.464  1.2596 -1.7534  1.1665
10971WAT     H244605   3.436   4.578   6.521 -0.0675  0.5886 -0.7499
10971WAT    EPW44606   3.423   4.523   6.467  0.3105  0.0143 -0.2711
10972WAT      O44607   3.286   5.260   1.957  0.0131  0.8968 -0.2328
10972WAT     H144608   3.366   5.229   1.975  0.7503  3.3931  1.1443
10972WAT     H244609   3.244   5.256   2.033 -0.6645  1.0733 -0.5872
10972WAT    EPW44610   3.292   5.255   1.971  0.0219  1.2917 -0.0817
10973WAT      O44611   6.136   0.837   6.406 -0.2639 -0.1970  0.2589
10973WAT     H144612   6.087   0.807   6.340  0.3427  0.4455 -0.5180
10973WAT     H244613   6.178   0.766   6.435 -0.6655 -0.5187  0.0586
10973WAT    EPW44614   6.135   0.822   6.400 -0.2336 -0.1496  0.1146
10974WAT      O44615   0.004   0.223   6.955 -0.3134 -0.1912 -0.0971
10974WAT     H144616   0.075   0.272   6.969 -0.1395 -0.0336 -1.4019
10974WAT     H244617  -0.062   0.273   6.981 -0.1269  0.6833 -1.2623
10974WAT    EPW44618   0.005   0.237   6.961 -0.2602 -0.0388 -0.4620
10975WAT      O44619   1.866   5.065   4.673  0.2784  0.0681 -0.0030
10975WAT     H144620   1.810   5.096   4.733  1.2956  0.1960  0.9252
10975WAT     H244621   1.819   5.008   4.628 -0.4088 -0.3627  1.2135
10975WAT    EPW44622   1.851   5.061   4.675  0.3271  0.0233  0.3138
10976WAT      O44623   5.779   3.931   7.799  0.8330  0.4654  0.0098
10976WAT     H144624   5.699   3.914   7.770  1.9822 -1.2850 -2.5524
10976WAT     H244625   5.809   3.992   7.744  1.6193  0.2911  0.2215
10976WAT    EPW44626   5.772   3.937   7.787  1.1189  0.1811 -0.3374
10977WAT      O44627   2.826   4.443   4.840 -0.6973  0.1044 -0.0844
10977WAT     H144628   2.845   4.359   4.855 -0.1030 -0.0285 -1.4193
10977WAT     H244629   2.868   4.485   4.904  1.5775 -0.4257 -1.1202
10977WAT    EPW44630   2.835   4.437   4.852 -0.2735  0.0064 -0.4346
10978WAT      O44631   4.070   7.007   3.179  0.2983  0.1762 -0.3795
10978WAT     H144632   4.023   6.971   3.115  0.6655 -1.3491  0.1634
10978WAT     H244633   4.135   6.950   3.192  1.3260  1.3910  0.0534
10978WAT    EPW44634   4.073   6.993   3.172  0.5044  0.1303 -0.2353
10979WAT      O44635   6.973   3.493   7.220 -0.1635 -0.1767  0.6322
10979WAT     H144636   6.986   3.487   7.307 -1.7118 -0.2337  0.8928
10979WAT     H244637   6.886   3.481   7.212 -0.0053 -0.4312 -0.9539
10979WAT    EPW44638   6.962   3.490   7.232 -0.3689 -0.2227  0.4364
10980WAT      O44639   1.412   2.366   4.233  0.7575  0.5332 -0.1483
10980WAT     H144640   1.482   2.315   4.225  0.0879 -0.8983  2.2179
10980WAT     H244641   1.425   2.406   4.310  1.4434  4.3889 -2.0108
10980WAT    EPW44642   1.424   2.365   4.243  0.7599  0.8913 -0.0739
10981WAT      O44643   7.264   0.646   4.368  0.1172  0.7383  0.5891
10981WAT     H144644   7.232   0.621   4.445  0.5443 -1.0852  0.2144
10981WAT     H244645   7.206   0.615   4.311  0.9753  0.0408  0.0720
10981WAT    EPW44646   7.250   0.638   4.371  0.3071  0.3659  0.4573
10982WAT      O44647   7.191   4.447   6.196 -0.1468 -0.0483  0.0552
10982WAT     H144648   7.231   4.512   6.154  2.2609 -1.5190 -0.1029
10982WAT     H244649   7.246   4.426   6.260 -1.5032 -1.0436  0.9574
10982WAT    EPW44650   7.205   4.453   6.199  0.0085 -0.4126  0.1651
10983WAT      O44651   1.784   2.301   1.487  0.0714 -0.1404 -0.1221
10983WAT     H144652   1.752   2.378   1.460  0.2891 -0.3778 -1.1050
10983WAT     H244653   1.787   2.254   1.414 -0.4603 -1.2344  0.5366
10983WAT    EPW44654   1.780   2.306   1.472  0.0250 -0.3371 -0.1700
10984WAT      O44655   2.896   5.077   5.882  0.2238 -0.2108  0.0018
10984WAT     H144656   2.981   5.099   5.877  0.2774 -0.2096  0.8189
10984WAT     H244657   2.859   5.124   5.818  0.5546  1.2300  0.8295
10984WAT    EPW44658   2.903   5.087   5.872  0.2806  0.0022  0.2448
10985WAT      O44659   3.497   0.074   1.207  0.4953 -0.0952  0.0818
10985WAT     H144660   3.565   0.040   1.166  0.9201  1.5204 -0.6070
10985WAT     H244661   3.429   0.034   1.171  0.9899 -0.5160 -0.3981
10985WAT    EPW44662   3.497   0.063   1.196  0.6311  0.0813 -0.0909
10986WAT      O44663   5.259   1.961   0.702 -0.3560 -0.1089 -0.4242
10986WAT     H144664   5.209   1.996   0.763 -1.0394 -0.5385 -0.7199
10986WAT     H244665   5.332   1.940   0.744  0.9584  3.4392 -0.6158
10986WAT    EPW44666   5.263   1.963   0.717 -0.2628  0.3518 -0.4962
10987WAT      O44667   7.694   3.797   4.339 -1.0026  0.5099 -0.8680
10987WAT     H144668   7.781   3.789   4.336 -1.1388 -1.0236 -2.7236
10987WAT     H244669   7.671   3.755   4.412 -0.2189  0.3764 -0.6947
10987WAT    EPW44670   7.703   3.790   4.349 -0.9070  0.2636 -1.1165
10988WAT      O44671   2.025   4.827   4.332 -0.2240  0.1863  0.0595
10988WAT     H144672   2.043   4.906   4.300 -1.4664  0.7778  0.7323
10988WAT     H244673   1.970   4.793   4.274  0.1514 -0.1079 -0.1267
10988WAT    EPW44674   2.020   4.834   4.319 -0.3521  0.2302  0.1314
10989WAT      O44675   2.839   3.074   3.550  0.3648  0.0376 -0.6220
10989WAT     H144676   2.848   3.013   3.611  0.5241 -0.0792 -0.7608
10989WAT     H244677   2.852   3.149   3.593  1.0276 -0.0736 -0.6233
10989WAT    EPW44678   2.842   3.076   3.565  0.4862  0.0039 -0.6427
10990WAT      O44679   3.433   5.547   5.015 -0.3657 -0.0864  0.2219
10990WAT     H144680   3.392   5.470   5.008  1.8729 -1.2917 -0.9877
10990WAT     H244681   3.399   5.595   4.951 -0.1134 -0.9617 -0.5953
10990WAT    EPW44682   3.422   5.543   5.005  0.0023 -0.3938 -0.0775
10991WAT      O44683   6.066   4.662   4.303 -0.2649 -0.2914  0.4295
10991WAT     H144684   6.028   4.720   4.250 -1.0081 -0.6339  0.5725
10991WAT     H244685   6.013   4.592   4.298  0.5559 -0.9254  0.3378
10991WAT    EPW44686   6.053   4.660   4.294 -0.2534 -0.4356  0.4371
10992WAT      O44687   3.642   2.213   1.560 -0.2238  0.3734 -0.8065
10992WAT     H144688   3.715   2.248   1.528  0.3992 -0.0095  0.1514
10992WAT     H244689   3.587   2.213   1.492  0.9644 -0.1887 -1.7947
10992WAT    EPW44690   3.644   2.218   1.545  0.0437  0.2338 -0.8110
10993WAT      O44691   1.965   3.122   4.138  0.6053  0.7312 -0.3258
10993WAT     H144692   2.036   3.116   4.188  1.1284 -1.0932 -1.2396
10993WAT     H244693   1.997   3.131   4.057 -0.2001  0.4370 -0.6846
10993WAT    EPW44694   1.980   3.123   4.134  0.5636  0.4182 -0.5138
10994WAT      O44695   0.653   3.793   4.203  0.1335  0.0397 -0.0003
10994WAT     H144696   0.739   3.776   4.210  0.0569 -0.3517  0.0389
10994WAT     H244697   0.621   3.769   4.280  0.2732  2.1499  0.7800
10994WAT    EPW44698   0.661   3.787   4.215  0.1428  0.2936  0.1208
10995WAT      O44699   1.653   2.378   6.712  0.6106 -0.1534 -0.6116
10995WAT     H144700   1.643   2.327   6.642 -0.7077 -0.0715 -0.5109
10995WAT     H244701   1.684   2.323   6.773  2.0802 -0.1529 -1.3312
10995WAT    EPW44702   1.656   2.362   6.711  0.6330 -0.1412 -0.7031
10996WAT      O44703   1.542   6.196   4.457 -0.0430  0.2208  0.8225
10996WAT     H144704   1.459   6.220   4.468 -0.0678  0.8964 -0.6010
10996WAT     H244705   1.537   6.124   4.408  0.2172  1.4229 -1.0797
10996WAT    EPW44706   1.529   6.189   4.451 -0.0083  0.4982  0.3312
10997WAT      O44707   2.166   3.547   3.324 -0.0591 -0.8045  0.2406
10997WAT     H144708   2.221   3.500   3.373  1.4469 -0.4232 -1.0047
10997WAT     H244709   2.120   3.593   3.382  1.5985 -0.4442  1.3344
10997WAT    EPW44710   2.167   3.547   3.340  0.4082 -0.6949  0.2182
10998WAT      O44711   4.873   1.127   7.089 -0.5097  0.9369 -0.3912
10998WAT     H144712   4.906   1.125   7.008  0.4485  1.2531 -0.0162
10998WAT     H244713   4.821   1.197   7.087 -1.6110  0.1361 -1.1379
10998WAT    EPW44714   4.870   1.137   7.077 -0.5308  0.8653 -0.4461
10999WAT      O44715   1.345   2.375   6.531  0.6301  0.5255 -0.0535
10999WAT     H144716   1.382   2.300   6.556 -0.2974 -0.6084 -1.9107
10999WAT     H244717   1.273   2.350   6.488  2.5453  2.0127 -4.8566
10999WAT    EPW44718   1.340   2.360   6.528  0.7760  0.5777 -1.0373
11000WAT      O44719   1.621   2.715   0.416  0.1218 -0.1732 -0.3132
11000WAT     H144720   1.645   2.773   0.356  0.1167 -0.1377 -0.2805
11000WAT     H244721   1.688   2.713   0.472  0.6622 -1.0955 -0.9737
11000WAT    EPW44722   1.634   2.723   0.416  0.2009 -0.3042 -0.4059
11001WAT      O44723   1.926   6.046   7.780 -0.2515  0.1453 -0.0914
11001WAT     H144724   1.991   6.038   7.721 -0.8045 -1.0267 -0.5600
11001WAT     H244725   1.888   6.121   7.757 -0.1900 -0.0760 -0.9610
11001WAT    EPW44726   1.930   6.056   7.768 -0.3241 -0.0605 -0.2891
11002WAT      O44727   4.964   4.294   1.870  0.3261 -0.4691 -0.3264
11002WAT     H144728   5.005   4.317   1.944 -1.5408  1.2187  0.2645
11002WAT     H244729   4.969   4.365   1.820 -1.8976 -0.1276 -0.1688
11002WAT    EPW44730   4.970   4.308   1.874 -0.2781 -0.1694 -0.2158
11003WAT      O44731   2.745   4.675   2.663  0.0964 -0.2719  0.4644
11003WAT     H144732   2.722   4.601   2.703  1.2910 -0.4885  0.7748
11003WAT     H244733   2.812   4.651   2.613 -1.2179  0.0315 -1.5735
11003WAT    EPW44734   2.752   4.660   2.662  0.0788 -0.2591  0.2092
11004WAT      O44735   4.096   3.037   0.470  0.7715 -0.0814  0.3515
11004WAT     H144736   4.181   3.047   0.449  1.0303 -0.6314  1.1082
11004WAT     H244737   4.089   2.952   0.488 -0.2100 -0.2612 -0.7866
11004WAT    EPW44738   4.108   3.026   0.470  0.6648 -0.1892  0.2951
11005WAT      O44739   1.742   0.789   2.310  0.6896  0.5784 -0.6080
11005WAT     H144740   1.769   0.738   2.375  0.2843  1.8159  0.5854
11005WAT     H244741   1.672   0.829   2.343 -0.2854  0.3201 -2.2616
11005WAT    EPW44742   1.736   0.787   2.325  0.4857  0.7230 -0.6760
11006WAT      O44743   1.785   0.877   4.802  0.5327  0.4763 -0.3757
11006WAT     H144744   1.706   0.891   4.836  1.3461 -0.0380  1.8815
11006WAT     H244745   1.780   0.796   4.771  0.2157  0.3952 -0.1214
11006WAT    EPW44746   1.772   0.867   4.802  0.6061  0.3883 -0.0047
11007WAT      O44747   4.816   5.628   4.083 -0.8598  0.3820  0.3655
11007WAT     H144748   4.830   5.666   4.005  2.4426  0.0065  0.6377
11007WAT     H244749   4.853   5.683   4.139 -0.6267 -0.7172  1.3228
11007WAT    EPW44750   4.824   5.641   4.080 -0.3376  0.1642  0.5471
11008WAT      O44751   1.111   1.713   7.841 -0.0311  0.2881  0.3114
11008WAT     H144752   1.172   1.772   7.863 -0.3416  1.3601 -1.4904
11008WAT     H244753   1.158   1.646   7.810  0.2855  0.2915  0.7828
11008WAT    EPW44754   1.127   1.712   7.839 -0.0302  0.4470  0.1148
11009WAT      O44755   3.273   6.533   3.684 -0.0102 -0.1582 -0.0935
11009WAT     H144756   3.290   6.606   3.641 -1.4815  0.3605  0.1587
11009WAT     H244757   3.257   6.474   3.622 -0.0072  0.0427 -0.2820
11009WAT    EPW44758   3.273   6.535   3.669 -0.2271 -0.0519 -0.0841
11010WAT      O44759   2.317   4.679   0.879 -0.5538  0.0758  0.2094
11010WAT     H144760   2.231   4.695   0.870 -0.3337  1.2320  0.0576
11010WAT     H244761   2.355   4.747   0.840  0.4522 -0.7401 -0.2838
11010WAT    EPW44762   2.310   4.691   0.872 -0.3727  0.1261  0.1141
11011WAT      O44763   5.404   6.787   3.084  0.4127  0.3534  0.4574
11011WAT     H144764   5.414   6.735   3.014 -3.0343 -3.3471  2.3393
11011WAT     H244765   5.478   6.774   3.129  1.8036  1.2352 -1.3879
11011WAT    EPW44766   5.417   6.777   3.080  0.1089 -0.0630  0.4628
11012WAT      O44767   0.189   4.045   4.587 -0.0056 -0.8575 -0.1667
11012WAT     H144768   0.253   4.091   4.624 -0.3666  1.8293 -2.5402
11012WAT     H244769   0.117   4.075   4.626 -0.0998 -1.0158 -0.2174
11012WAT    EPW44770   0.188   4.057   4.598 -0.0728 -0.4840 -0.5248
11013WAT      O44771   4.516   4.597   0.612  0.5010 -0.1456  0.0312
11013WAT     H144772   4.591   4.556   0.598 -0.3134 -1.5230 -0.4619
11013WAT     H244773   4.468   4.578   0.542 -1.1047 -1.1897  1.3366
11013WAT    EPW44774   4.520   4.588   0.599  0.1435 -0.5033  0.1512
11014WAT      O44775   4.353   0.148   3.973 -0.5136  0.3501  0.1748
11014WAT     H144776   4.398   0.160   4.047  0.4217 -0.4792 -0.2389
11014WAT     H244777   4.415   0.139   3.912 -1.2563 -0.1940 -0.5262
11014WAT    EPW44778   4.369   0.149   3.975 -0.4852  0.1472  0.0101
11015WAT      O44779   0.133   6.638   5.019  0.3248  0.4314  0.8381
11015WAT     H144780   0.128   6.724   5.010  1.6120  0.4953  0.4512
11015WAT     H244781   0.188   6.614   4.955 -1.8661 -0.9857 -0.6450
11015WAT    EPW44782   0.140   6.647   5.008  0.1913  0.2315  0.5619
11016WAT      O44783   2.348   0.866   2.651  0.0548 -0.5500  0.3857
11016WAT     H144784   2.308   0.830   2.583  2.1079 -0.7303 -0.7893
11016WAT     H244785   2.330   0.812   2.717  0.8185 -2.2728 -0.7639
11016WAT    EPW44786   2.339   0.853   2.651  0.4709 -0.8312  0.0423
11017WAT      O44787   3.922   7.393   5.379 -0.9880 -0.0608  0.2619
11017WAT     H144788   3.930   7.367   5.462 -1.7854 -2.1845 -0.2543
11017WAT     H244789   3.949   7.476   5.381 -1.8721  0.2697  2.8178
11017WAT    EPW44790   3.927   7.401   5.392 -1.2364 -0.3257  0.5632
11018WAT      O44791   2.535   4.824   3.059 -0.1943 -0.1600 -0.3886
11018WAT     H144792   2.520   4.740   3.042  0.3000 -0.0942 -1.2069
11018WAT     H244793   2.554   4.858   2.981 -0.6133  0.7628 -0.0967
11018WAT    EPW44794   2.536   4.817   3.045 -0.1831 -0.0140 -0.4664
11019WAT      O44795   1.054   7.246   6.385 -0.4024 -0.3868 -0.4467
11019WAT     H144796   1.063   7.307   6.446 -1.9960  0.2056 -0.7737
11019WAT     H244797   1.029   7.175   6.430  0.7101 -0.6140 -0.1594
11019WAT    EPW44798   1.052   7.244   6.401 -0.4735 -0.3328 -0.4525
11020WAT      O44799   4.954   1.616   3.682 -0.0567  0.3221  0.4513
11020WAT     H144800   5.018   1.665   3.716 -1.1703  2.0835  0.1552
11020WAT     H244801   4.915   1.670   3.626 -0.2748 -1.5007 -1.2479
11020WAT    EPW44802   4.958   1.631   3.679 -0.2534  0.3130  0.1565
11021WAT      O44803   2.302   5.464   1.661  0.5671 -0.8573 -0.2773
11021WAT     H144804   2.371   5.495   1.705 -0.5742 -0.6190  1.4314
11021WAT     H244805   2.338   5.417   1.596  2.3169  0.4416 -0.3103
11021WAT    EPW44806   2.317   5.461   1.658  0.6570 -0.6302 -0.0298
11022WAT      O44807   1.997   3.874   3.790 -0.2921  0.0293 -0.3909
11022WAT     H144808   1.947   3.835   3.730 -0.7385  0.0131 -0.0058
11022WAT     H244809   2.029   3.943   3.747  0.0608 -0.4437 -0.9043
11022WAT    EPW44810   1.995   3.878   3.775 -0.3059 -0.0429 -0.4098
11023WAT      O44811   1.278   6.712   4.623 -0.4515  0.0474 -0.2635
11023WAT     H144812   1.261   6.759   4.552  2.3647  0.6077 -0.6958
11023WAT     H244813   1.242   6.758   4.688 -0.2058  1.2941 -0.9868
11023WAT    EPW44814   1.270   6.726   4.622  0.0008  0.3143 -0.4342
11024WAT      O44815   3.391   0.680   7.591 -0.3924 -0.1563  0.4129
11024WAT     H144816   3.410   0.654   7.672 -0.6055 -1.8690 -0.0506
11024WAT     H244817   3.398   0.767   7.595 -0.7406 -0.1840  2.3417
11024WAT    EPW44818   3.395   0.689   7.603 -0.4753 -0.4134  0.6293
11025WAT      O44819   1.942   5.703   0.996  0.3956 -0.4303 -0.3050
11025WAT     H144820   1.953   5.763   0.935  1.0423  1.2638  1.3686
11025WAT     H244821   2.023   5.688   1.026  0.1326 -1.4010 -0.0291
11025WAT    EPW44822   1.956   5.709   0.992  0.4523 -0.3235 -0.0170
11026WAT      O44823   7.430   3.118   3.847  0.1827  0.3671  0.5124
11026WAT     H144824   7.362   3.165   3.874 -0.6539 -1.0362  0.9169
11026WAT     H244825   7.481   3.113   3.917 -0.2094 -0.1520  0.7676
11026WAT    EPW44826   7.428   3.125   3.861  0.0012  0.0831  0.6098
11027WAT      O44827   2.334   7.495   2.231 -0.3880 -0.1571  0.2573
11027WAT     H144828   2.351   7.409   2.230  1.5680  0.0641  2.7613
11027WAT     H244829   2.399   7.529   2.184 -0.9512 -0.0203 -0.4251
11027WAT    EPW44830   2.346   7.487   2.224 -0.1823 -0.1042  0.5264
11028WAT      O44831   2.280   4.293   3.553 -0.0267  0.0877 -0.1427
11028WAT     H144832   2.198   4.300   3.523 -0.7296 -0.2878  1.6090
11028WAT     H244833   2.280   4.219   3.599  0.5744  1.3185  1.9713
11028WAT    EPW44834   2.268   4.283   3.555 -0.0418  0.2140  0.4284
11029WAT      O44835   7.509   1.795   6.348  0.0420 -1.4737  0.2899
11029WAT     H144836   7.558   1.780   6.418  1.5593  0.0584 -0.3829
11029WAT     H244837   7.455   1.859   6.373  0.0500 -1.4683  0.2936
11029WAT    EPW44838   7.508   1.802   6.362  0.2673 -1.2466  0.1911
11030WAT      O44839   7.052   4.063   5.144 -0.1974  0.3987 -0.4348
11030WAT     H144840   7.132   4.028   5.151 -0.0545  0.7140 -0.5049
11030WAT     H244841   7.067   4.145   5.121 -0.5335  0.5585 -0.0904
11030WAT    EPW44842   7.066   4.070   5.141 -0.2259  0.4689 -0.3943
11031WAT      O44843   3.499   3.889   7.045  0.2634 -0.0389  0.5722
11031WAT     H144844   3.549   3.960   7.055  1.2559 -0.6152 -0.1581
11031WAT     H244845   3.500   3.875   6.959 -3.3446  1.4461  0.0889
11031WAT    EPW44846   3.507   3.898   7.034 -0.1230  0.0953  0.3929
11032WAT      O44847   3.417   6.610   7.793  0.2376 -0.9559  0.6537
11032WAT     H144848   3.386   6.534   7.765 -0.9360 -0.2787 -0.0002
11032WAT     H244849   3.481   6.629   7.737 -0.7010 -0.6033 -0.3231
11032WAT    EPW44850   3.422   6.602   7.781 -0.0745 -0.8038  0.4128
11033WAT      O44851   3.350   4.702   0.395  0.4359  0.1755 -0.1933
11033WAT     H144852   3.357   4.775   0.444  3.1651 -0.0364 -0.0701
11033WAT     H244853   3.265   4.686   0.394  0.0829  0.9191  3.4552
11033WAT    EPW44854   3.339   4.711   0.402  0.7869  0.2540  0.3638
11034WAT      O44855   2.879   4.590   0.174 -0.4448 -0.1365  0.1821
11034WAT     H144856   2.943   4.600   0.232 -0.1624  1.6406 -0.3759
11034WAT     H244857   2.818   4.546   0.218 -0.5763  1.7928  2.1352
11034WAT    EPW44858   2.879   4.585   0.189 -0.4225  0.4111  0.3882
11035WAT      O44859   4.128   4.190   1.871 -0.1098 -0.0985 -0.5283
11035WAT     H144860   4.211   4.199   1.896 -0.1924  2.1546 -0.8356
11035WAT     H244861   4.106   4.271   1.845 -1.6062 -1.1690 -2.9208
11035WAT    EPW44862   4.137   4.204   1.871 -0.3431  0.0762 -0.9271
11036WAT      O44863   5.514   1.666   2.706 -0.0806 -0.9742  0.2090
11036WAT     H144864   5.457   1.713   2.660 -0.7481  0.2959  2.2062
11036WAT     H244865   5.513   1.588   2.667 -2.5869 -0.7500 -0.3123
11036WAT    EPW44866   5.506   1.662   2.693 -0.5494 -0.7534  0.4270
11037WAT      O44867   6.734   5.196   0.468 -0.2454  0.5514  0.0097
11037WAT     H144868   6.713   5.274   0.436 -2.3646 -0.2564 -0.7286
11037WAT     H244869   6.738   5.145   0.397 -0.1542 -0.2792  0.5962
11037WAT    EPW44870   6.732   5.200   0.452 -0.5450  0.3094 -0.0127
11038WAT      O44871   6.828   1.458   5.728 -0.0232  0.1113  0.0377
11038WAT     H144872   6.780   1.394   5.763 -1.8764  1.4034  0.0029
11038WAT     H244873   6.829   1.438   5.643  0.2283 -0.3749  0.1511
11038WAT    EPW44874   6.821   1.445   5.721 -0.2598  0.2304  0.0493
11039WAT      O44875   2.471   5.894   4.338 -0.0038  0.2644  0.6596
11039WAT     H144876   2.504   5.868   4.414 -0.0968 -1.0395  0.2689
11039WAT     H244877   2.509   5.972   4.325  0.0039  0.5186  2.0244
11039WAT    EPW44878   2.481   5.902   4.348 -0.0164  0.1094  0.8035
11040WAT      O44879   4.007   4.031   2.154 -0.2069  0.1757  0.1910
11040WAT     H144880   4.071   3.973   2.142  0.5221  0.7936  0.9523
11040WAT     H244881   3.964   4.000   2.222 -0.6263 -0.1514 -0.2175
11040WAT    EPW44882   4.010   4.018   2.162 -0.1612  0.2187  0.2431
11041WAT      O44883   3.696   4.466   3.930 -0.0607  0.2253 -0.1097
11041WAT     H144884   3.633   4.443   3.986 -0.6352  1.0751 -0.3799
11041WAT     H244885   3.718   4.547   3.956 -0.5960  0.7848 -1.2999
11041WAT    EPW44886   3.690   4.475   3.942 -0.2247  0.4335 -0.3254
11042WAT      O44887   1.871   4.842   1.923  0.3475  0.0819 -0.6080
11042WAT     H144888   1.894   4.821   2.005 -0.0171 -0.0504 -0.5381
11042WAT     H244889   1.874   4.765   1.881  0.4126  0.1290 -0.6893
11042WAT    EPW44890   1.875   4.827   1.929  0.3032  0.0693 -0.6097
11043WAT      O44891   2.525   1.959   0.928 -0.0085 -0.5286 -0.0413
11043WAT     H144892   2.457   1.957   0.873 -0.9905 -0.4677  1.1438
11043WAT     H244893   2.517   2.036   0.968  0.0980 -1.0003  0.9120
11043WAT    EPW44894   2.514   1.970   0.926 -0.1378 -0.5893  0.2746
11044WAT      O44895   1.435   6.753   3.962  0.0628 -0.1305  0.4265
11044WAT     H144896   1.427   6.813   4.024  0.1611 -0.0611  0.3717
11044WAT     H244897   1.519   6.731   3.965  0.4104  0.9411 -0.6667
11044WAT    EPW44898   1.446   6.758   3.971  0.1287  0.0381  0.2569
11045WAT      O44899   3.795   2.950   0.272  0.3662 -0.4412  0.5793
11045WAT     H144900   3.746   2.940   0.201 -0.3103  1.7368  0.6667
11045WAT     H244901   3.740   2.938   0.338  0.4687 -0.1927  0.7108
11045WAT    EPW44902   3.780   2.947   0.271  0.2814 -0.0827  0.6116
11046WAT      O44903   5.437   1.041   3.331  0.1788  0.0159 -0.0215
11046WAT     H144904   5.431   1.085   3.407  1.6350  0.9591 -0.3951
11046WAT     H244905   5.520   1.056   3.306  0.6382 -2.6425 -0.3961
11046WAT    EPW44906   5.449   1.050   3.339  0.4618 -0.2375 -0.1320
11047WAT      O44907   3.090   0.357   1.909 -0.1952 -0.6022  0.0307
11047WAT     H144908   3.032   0.293   1.925  0.0786 -0.4576  1.9407
11047WAT     H244909   3.143   0.354   1.978 -0.4917  2.0049  0.5102
11047WAT    EPW44910   3.089   0.347   1.922 -0.1986 -0.1957  0.3837
11048WAT      O44911   1.915   0.461   1.847 -0.1923 -0.1013  0.5604
11048WAT     H144912   1.997   0.431   1.842 -0.5947 -1.2766  0.7583
11048WAT     H244913   1.883   0.423   1.919 -0.7763  0.7108  0.7513
11048WAT    EPW44914   1.922   0.451   1.857 -0.3380 -0.1549  0.6178
11049WAT      O44915   4.341   4.295   7.634  0.4530 -0.1197 -0.0433
11049WAT     H144916   4.398   4.324   7.694  0.8611 -2.9171  1.1043
11049WAT     H244917   4.265   4.297   7.676  0.3542  0.0495 -0.2325
11049WAT    EPW44918   4.339   4.299   7.649  0.4987 -0.5080  0.0982
11050WAT      O44919   3.466   6.429   3.354 -0.3977 -0.2570  0.2160
11050WAT     H144920   3.477   6.349   3.322 -0.3382 -1.3502  2.7492
11050WAT     H244921   3.548   6.459   3.363 -0.4389  0.5374 -1.6135
11050WAT    EPW44922   3.480   6.422   3.351 -0.3950 -0.3011  0.3199
11051WAT      O44923   1.236   6.706   7.389 -0.3613  0.4246 -0.0857
11051WAT     H144924   1.300   6.751   7.351 -1.3164  1.8017 -0.1313
11051WAT     H244925   1.222   6.640   7.334  1.1781 -0.0618  0.0558
11051WAT    EPW44926   1.243   6.703   7.375 -0.2750  0.5562 -0.0715
11052WAT      O44927   0.872   5.971   6.914 -0.1148 -0.2021 -0.5066
11052WAT     H144928   0.871   5.896   6.959  1.5017 -0.4324 -0.7936
11052WAT     H244929   0.830   5.951   6.840 -1.7416 -0.1509  0.3704
11052WAT    EPW44930   0.866   5.957   6.910 -0.1163 -0.2286 -0.4194
11053WAT      O44931   3.012   0.472   3.670 -0.4631  0.2766  0.1084
11053WAT     H144932   3.079   0.481   3.615 -1.0109  0.8216 -0.4927
11053WAT     H244933   2.960   0.415   3.629 -0.7166  0.4309  0.2157
11053WAT    EPW44934   3.014   0.465   3.655 -0.5814  0.3799  0.0354
11054WAT      O44935   5.148   3.403   3.105  0.0959 -0.6799 -0.1624
11054WAT     H144936   5.228   3.425   3.131  0.7566 -3.5954  0.6579
11054WAT     H244937   5.149   3.419   3.019  1.3287 -0.0424 -0.0438
11054WAT    EPW44938   5.160   3.408   3.096  0.3756 -1.0164 -0.0237
11055WAT      O44939   7.510   2.085   5.666 -0.1036 -0.4029  0.1227
11055WAT     H144940   7.485   2.041   5.737  0.0560  1.3164  1.3060
11055WAT     H244941   7.436   2.124   5.639 -0.4409 -2.0236 -1.4388
11055WAT    EPW44942   7.495   2.084   5.672 -0.1299 -0.3884  0.0668
11056WAT      O44943   2.394   0.086   1.985  0.2400 -0.5047  0.3421
11056WAT     H144944   2.397   0.172   1.967 -1.0786 -0.2883  1.0004
11056WAT     H244945   2.387   0.084   2.072  0.5059 -1.2916  0.3485
11056WAT    EPW44946   2.393   0.099   1.995  0.0845 -0.5890  0.4403
11057WAT      O44947   2.441   4.042   5.050 -0.5359  0.4477 -0.0817
11057WAT     H144948   2.393   4.045   5.123 -2.0737 -2.1980 -0.8509
11057WAT     H244949   2.469   3.959   5.047  1.4542  1.1023 -1.3321
11057WAT    EPW44950   2.438   4.030   5.060 -0.4691  0.1536 -0.3801
11058WAT      O44951   6.555   0.180   6.403 -0.7902  0.5703 -0.2309
11058WAT     H144952   6.495   0.178   6.467 -0.6575 -0.0472 -0.1232
11058WAT     H244953   6.509   0.205   6.333 -0.5988  3.1433  0.4510
11058WAT    EPW44954   6.539   0.184   6.402 -0.7423  0.8591 -0.1143
11059WAT      O44955   7.176   1.358   4.541 -0.1072  0.4772 -0.3252
11059WAT     H144956   7.128   1.311   4.597  0.2860  0.1759 -0.2376
11059WAT     H244957   7.258   1.339   4.563  0.0716  1.4594 -0.0787
11059WAT    EPW44958   7.181   1.348   4.553 -0.0227  0.5778 -0.2758
11060WAT      O44959   7.551   5.445   4.469 -0.3641 -0.1428  0.5008
11060WAT     H144960   7.625   5.410   4.499 -1.3615 -1.8633  1.0850
11060WAT     H244961   7.555   5.528   4.497  1.0963 -0.3405  0.9540
11060WAT    EPW44962   7.563   5.452   4.477 -0.2957 -0.4261  0.6541
11061WAT      O44963   1.895   6.718   3.245  0.8473  0.3653 -0.0613
11061WAT     H144964   1.909   6.638   3.213 -1.2206 -0.2035  0.2991
11061WAT     H244965   1.875   6.765   3.174 -1.8609 -0.4481  0.0531
11061WAT    EPW44966   1.894   6.713   3.230  0.1418  0.1611  0.0088
11062WAT      O44967   1.436   3.087   3.350  0.3569 -0.1896  0.1178
11062WAT     H144968   1.494   3.146   3.378 -1.0280  1.2587  0.0813
11062WAT     H244969   1.368   3.136   3.324 -0.6263 -1.7841 -0.4476
11062WAT    EPW44970   1.435   3.103   3.350  0.0071 -0.2112  0.0289
11063WAT      O44971   0.807   2.775   6.779 -0.0769  0.2882 -0.1080
11063WAT     H144972   0.872   2.748   6.830  0.3952  0.8123 -0.4127
11063WAT     H244973   0.813   2.862   6.784 -1.6784  0.3645  1.0131
11063WAT    EPW44974   0.818   2.784   6.787 -0.2437  0.3769  0.0126
11064WAT      O44975   5.686   6.084   4.374  0.5910 -0.4240  0.3028
11064WAT     H144976   5.643   6.012   4.399 -0.8099  0.6268  1.0364
11064WAT     H244977   5.648   6.148   4.419  0.3490  1.0912 -1.8875
11064WAT    EPW44978   5.674   6.083   4.384  0.3483 -0.0450  0.0876
11065WAT      O44979   7.333   4.276   5.170 -0.7626  0.2085  0.4094
11065WAT     H144980   7.398   4.253   5.117 -1.4647 -0.0558 -0.3580
11065WAT     H244981   7.349   4.230   5.243 -0.7303 -0.7513 -0.1896
11065WAT    EPW44982   7.345   4.266   5.173 -0.8615  0.0277  0.2076
11066WAT      O44983   7.316   3.935   5.190  0.0191  0.4344  0.1746
11066WAT     H144984   7.346   3.867   5.236  0.3158  0.7055  0.3888
11066WAT     H244985   7.380   3.994   5.198  0.7300 -0.0057 -1.7544
11066WAT    EPW44986   7.330   3.934   5.198  0.1680  0.4095 -0.0787
11067WAT      O44987   3.634   6.038   3.990 -0.3649 -0.2854 -0.3020
11067WAT     H144988   3.599   5.963   4.016  1.4567 -1.1279 -0.1729
11067WAT     H244989   3.634   6.087   4.062  0.0279 -0.7812  0.0385
11067WAT    EPW44990   3.629   6.034   4.004 -0.0378 -0.4831 -0.2326
11068WAT      O44991   2.860   0.311   5.357  0.2652 -0.1673 -0.1702
11068WAT     H144992   2.827   0.361   5.420  3.7663  1.2685  0.7358
11068WAT     H244993   2.876   0.235   5.398  1.4554  0.3794  0.4224
11068WAT    EPW44994   2.858   0.307   5.372  0.9582  0.1256  0.0511
11069WAT      O44995   2.581   6.807   5.829  0.4165  0.6410  0.3618
11069WAT     H144996   2.495   6.812   5.813  0.3762 -0.2709  0.2504
11069WAT     H244997   2.601   6.888   5.854 -0.4920  0.8530  0.4656
11069WAT    EPW44998   2.571   6.819   5.830  0.2763  0.5376  0.3606
11070WAT      O44999   4.219   5.793   1.518  0.1379  0.0668  0.1154
11070WAT     H145000   4.191   5.744   1.585 -0.2311  1.5705  1.1138
11070WAT     H245001   4.146   5.831   1.489  0.5141  0.5961 -0.1554
11070WAT    EPW45002   4.204   5.791   1.524  0.1390  0.3671  0.2229
11071WAT      O45003   1.743   5.207   1.515 -0.2022 -0.1395 -0.3097
11071WAT     H145004   1.665   5.177   1.541 -0.5658  1.4361  0.5532
11071WAT     H245005   1.799   5.151   1.551 -0.8885 -0.5106  0.2201
11071WAT    EPW45006   1.740   5.194   1.524 -0.3573  0.0384 -0.1040
11072WAT      O45007   3.054   1.479   3.257  0.3431 -0.2401 -0.3555
11072WAT     H145008   3.037   1.562   3.280 -0.2179  0.0461 -1.7214
11072WAT     H245009   3.070   1.440   3.333  1.9133  1.4102  0.2341
11072WAT    EPW45010   3.054   1.486   3.271  0.4922  0.0460 -0.4702
11073WAT      O45011   3.973   6.017   0.758 -0.3976 -0.0903  0.2295
11073WAT     H145012   4.036   5.957   0.752  0.4808  0.8634 -0.3030
11073WAT     H245013   3.950   6.031   0.675  1.0536  1.9965  0.1177
11073WAT    EPW45014   3.979   6.010   0.745 -0.0535  0.3589  0.1343
11074WAT      O45015   4.336   0.761   7.411  0.2979  0.0213  0.3460
11074WAT     H145016   4.294   0.786   7.339  0.7620  2.3308  0.7796
11074WAT     H245017   4.415   0.738   7.381  0.4637  0.8985  0.0676
11074WAT    EPW45018   4.342   0.762   7.396  0.3910  0.4920  0.3690
11075WAT      O45019   2.484   5.585   3.951  0.0452  0.5582 -0.5389
11075WAT     H145020   2.517   5.637   4.013 -0.1855 -0.7032  0.7114
11075WAT     H245021   2.510   5.622   3.877  0.5926  1.9678  0.3053
11075WAT    EPW45022   2.492   5.598   3.949  0.0920  0.5801 -0.2295
11076WAT      O45023   0.744   6.875   6.192  0.0963 -0.4567 -0.7071
11076WAT     H145024   0.682   6.814   6.195 -1.9211  1.4204 -1.2322
11076WAT     H245025   0.699   6.950   6.190  2.4209  1.1102  0.3721
11076WAT    EPW45026   0.728   6.877   6.192  0.1417  0.0521 -0.6252
11077WAT      O45027   0.166   7.243   7.613  0.0807 -0.6180  0.0575
11077WAT     H145028   0.116   7.282   7.553 -0.1084 -0.7137  0.1533
11077WAT     H245029   0.232   7.210   7.566  1.0085  1.0230  0.1140
11077WAT    EPW45030   0.169   7.244   7.597  0.1898 -0.3897  0.0800
11078WAT      O45031   1.769   3.798   3.617  0.1704  0.1474 -0.5325
11078WAT     H145032   1.786   3.713   3.614 -0.8640 -0.1535  0.7542
11078WAT     H245033   1.684   3.803   3.597 -0.5969  0.4673  2.3477
11078WAT    EPW45034   1.759   3.786   3.614 -0.0957  0.1502  0.0831
11079WAT      O45035   1.473   0.765   6.516  0.0182  0.7974  0.1940
11079WAT     H145036   1.538   0.817   6.490  0.0836  1.3234  1.3458
11079WAT     H245037   1.513   0.691   6.537 -0.1174  0.0713 -1.8258
11079WAT    EPW45038   1.488   0.762   6.515  0.0078  0.7678  0.0658
11080WAT      O45039   5.698   6.188   1.031 -0.4665 -0.4757 -0.1488
11080WAT     H145040   5.704   6.255   0.976 -0.7706 -0.8051 -0.5976
11080WAT     H245041   5.726   6.120   0.983 -0.8579 -0.7884  0.0544
11080WAT    EPW45042   5.703   6.188   1.016 -0.5692 -0.5706 -0.1851
11081WAT      O45043   3.714   6.004   0.206  0.3157 -0.2056 -0.1183
11081WAT     H145044   3.777   5.947   0.225 -0.7594 -1.1981  0.6695
11081WAT     H245045   3.720   6.064   0.269  0.3441 -0.4082  0.0726
11081WAT    EPW45046   3.724   6.004   0.218  0.1611 -0.3821  0.0263
11082WAT      O45047   2.650   5.232   4.165  0.1888  0.2686 -0.5665
11082WAT     H145048   2.684   5.308   4.191  2.0315 -1.0344  1.2240
11082WAT     H245049   2.658   5.234   4.079  0.1186  2.1106 -0.5674
11082WAT    EPW45050   2.656   5.243   4.156  0.4507  0.3482 -0.3022
11083WAT      O45051   0.315   4.476   6.408 -0.0370  0.5536  0.4721
11083WAT     H145052   0.241   4.440   6.380  1.2085 -0.7998 -1.3042
11083WAT     H245053   0.322   4.448   6.490 -0.2261 -1.5401 -0.1679
11083WAT    EPW45054   0.305   4.467   6.416  0.1190  0.0444  0.1151
11084WAT      O45055   2.421   1.739   5.021 -0.1177 -0.2166 -0.2259
11084WAT     H145056   2.470   1.796   4.976 -0.8996 -0.4619 -1.4342
11084WAT     H245057   2.471   1.719   5.090  0.8772  0.6224 -0.6775
11084WAT    EPW45058   2.436   1.744   5.025 -0.0862 -0.1289 -0.4711
11085WAT      O45059   3.934   3.737   6.534 -0.3904 -0.4969 -0.4377
11085WAT     H145060   3.972   3.776   6.603 -0.5325 -0.1038 -0.5790
11085WAT     H245061   3.951   3.791   6.468  1.5854 -1.8894 -1.1851
11085WAT    EPW45062   3.942   3.751   6.535 -0.1196 -0.6446 -0.5690
11086WAT      O45063   3.948   1.295   5.411 -0.1138  0.3822  0.1612
11086WAT     H145064   4.013   1.338   5.372 -0.6244  0.9777 -0.0561
11086WAT     H245065   3.907   1.255   5.346 -0.5428  0.7985  0.1694
11086WAT    EPW45066   3.952   1.296   5.396 -0.2526  0.5316  0.1303
11087WAT      O45067   2.830   5.163   4.893  0.0866  0.8245 -0.3996
11087WAT     H145068   2.799   5.237   4.858 -1.5714  0.9066  1.1218
11087WAT     H245069   2.887   5.135   4.833  0.5997  3.1949 -1.1419
11087WAT    EPW45070   2.834   5.170   4.879 -0.0825  1.1868 -0.2845
11088WAT      O45071   1.039   7.612   4.951  0.4744 -0.5674  0.1285
11088WAT     H145072   0.955   7.629   4.967  0.4318 -0.9634  0.3414
11088WAT     H245073   1.036   7.537   4.906  0.7225 -0.6772  0.2937
11088WAT    EPW45074   1.026   7.604   4.947  0.5048 -0.6421  0.1843
11089WAT      O45075   7.365   4.352   7.399 -0.3771 -0.0852 -0.3186
11089WAT     H145076   7.307   4.315   7.345 -0.0127 -1.6136  0.2901
11089WAT     H245077   7.399   4.284   7.442 -0.8781  1.0516  2.0723
11089WAT    EPW45078   7.361   4.336   7.398 -0.3972 -0.1430  0.1245
11090WAT      O45079   0.425   7.669   6.040  0.2003 -0.0731  0.5953
11090WAT     H145080   0.499   7.640   6.003  0.5216  1.1605  0.2200
11090WAT     H245081   0.367   7.608   6.020  0.5314  0.1603 -1.3250
11090WAT    EPW45082   0.428   7.656   6.032  0.2967  0.1436  0.2562
11091WAT      O45083   2.223   4.126   2.959  0.7392 -0.5019 -0.0169
11091WAT     H145084   2.264   4.182   2.906  1.9500 -1.0132  0.3490
11091WAT     H245085   2.286   4.099   3.012 -0.0484 -1.4607  0.4491
11091WAT    EPW45086   2.239   4.131   2.959  0.8017 -0.7190  0.1060
11092WAT      O45087   1.976   1.438   0.194 -0.2445 -0.7333  0.4413
11092WAT     H145088   2.021   1.500   0.236  0.6302  0.3808 -1.9971
11092WAT     H245089   2.032   1.407   0.136 -2.1353 -0.3340 -1.7299
11092WAT    EPW45090   1.991   1.442   0.192 -0.3946 -0.5097 -0.2396
11093WAT      O45091   2.587   5.985   1.329 -0.0222  0.6190 -0.1544
11093WAT     H145092   2.602   5.917   1.381  3.3415 -0.1337 -1.8189
11093WAT     H245093   2.551   6.044   1.382 -1.4043 -1.7899  1.7592
11093WAT    EPW45094   2.584   5.984   1.344  0.2705  0.1520 -0.1176
11094WAT      O45095   2.564   5.919   7.228 -0.3275 -0.1000 -0.3609
11094WAT     H145096   2.490   5.958   7.250 -1.0679 -1.8732  0.4996
11094WAT     H245097   2.580   5.864   7.294  2.0140  0.5231 -0.2970
11094WAT    EPW45098   2.556   5.916   7.241 -0.0910 -0.2699 -0.2243
11095WAT      O45099   2.536   5.655   5.058 -0.0643 -0.0260 -0.4662
11095WAT     H145100   2.611   5.658   5.014 -0.2673  1.5863 -0.7738
11095WAT     H245101   2.546   5.717   5.119 -1.0615  0.0519 -0.3637
11095WAT    EPW45102   2.549   5.665   5.061 -0.2416  0.2237 -0.4965
11096WAT      O45103   7.223   0.719   7.108 -0.3942 -0.3026 -0.1207
11096WAT     H145104   7.199   0.647   7.152 -0.6150 -0.8916 -1.1685
11096WAT     H245105   7.291   0.749   7.154 -1.0336 -0.5073  0.9959
11096WAT    EPW45106   7.230   0.713   7.122 -0.5212 -0.4198 -0.1105
11097WAT      O45107   2.295   6.542   5.163  0.3391 -0.1787  0.2084
11097WAT     H145108   2.380   6.526   5.169  0.7358  0.7931 -1.8218
11097WAT     H245109   2.258   6.465   5.178  1.6024 -0.7038  0.7072
11097WAT    EPW45110   2.302   6.528   5.166  0.5843 -0.1127 -0.0178
11098WAT      O45111   1.014   7.284   7.822 -0.2688 -0.0615 -0.4254
11098WAT     H145112   1.045   7.317   7.748 -0.3567  0.5972 -0.1833
11098WAT     H245113   1.065   7.320   7.883 -0.9827  0.3965 -0.0814
11098WAT    EPW45114   1.026   7.295   7.820 -0.3872  0.1035 -0.3388
11099WAT      O45115   3.740   2.127   2.339 -0.2960 -0.0089 -0.4116
11099WAT     H145116   3.702   2.205   2.327  1.9371  1.0838 -0.9217
11099WAT     H245117   3.821   2.139   2.309  0.5354 -2.1333  0.7759
11099WAT    EPW45118   3.747   2.140   2.333  0.1567 -0.1613 -0.3115
11100WAT      O45119   0.181   7.446   7.791 -0.0073 -0.2435 -0.3004
11100WAT     H145120   0.100   7.444   7.824 -1.0858 -0.0149 -2.7002
11100WAT     H245121   0.188   7.368   7.751  0.0868  0.5400 -1.8930
11100WAT    EPW45122   0.170   7.434   7.790 -0.1527 -0.0940 -0.8902
11101WAT      O45123   3.843   6.144   4.762  0.4863 -0.0804  0.2165
11101WAT     H145124   3.912   6.093   4.776 -0.9999 -1.7883  1.7456
11101WAT     H245125   3.867   6.221   4.795  1.8651 -0.4506  0.1153
11101WAT    EPW45126   3.857   6.148   4.769  0.4704 -0.3874  0.4274
11102WAT      O45127   0.525   3.420   6.188  0.3998  0.1412  0.0671
11102WAT     H145128   0.588   3.360   6.181 -0.1878 -0.2958 -2.0595
11102WAT     H245129   0.567   3.490   6.220  1.6274 -0.6302  0.1983
11102WAT    EPW45130   0.540   3.422   6.192  0.4943 -0.0373 -0.2277
11103WAT      O45131   6.159   4.113   4.608  0.2088 -0.4621 -0.7523
11103WAT     H145132   6.231   4.121   4.560 -0.1708  0.5410 -1.1685
11103WAT     H245133   6.101   4.077   4.553  0.6410 -2.2253 -0.1368
11103WAT    EPW45134   6.161   4.109   4.593  0.2166 -0.5744 -0.7229
11104WAT      O45135   1.057   4.334   3.562  0.1366 -0.0539 -0.5826
11104WAT     H145136   0.985   4.384   3.553 -2.0536 -2.2679  2.5454
11104WAT     H245137   1.115   4.389   3.596 -0.0095  1.7771 -3.0251
11104WAT    EPW45138   1.055   4.350   3.566 -0.2085 -0.1105 -0.4813
11105WAT      O45139   1.120   1.288   3.312  0.1706  0.3943  0.2440
11105WAT     H145140   1.073   1.316   3.244  0.6444 -0.4416 -0.4505
11105WAT     H245141   1.182   1.349   3.320  0.9561 -0.2001 -0.9928
11105WAT    EPW45142   1.122   1.301   3.303  0.3566  0.1830 -0.0413
11106WAT      O45143   5.662   5.594   3.822  0.2366  0.6040  0.2342
11106WAT     H145144   5.638   5.523   3.866 -0.6612 -0.7608 -2.2439
11106WAT     H245145   5.743   5.609   3.850 -0.2308 -0.2410  2.1784
11106WAT    EPW45146   5.670   5.585   3.832  0.0349  0.2776  0.1554
11107WAT      O45147   2.531   1.853   5.471 -0.2989  0.2390  0.4395
11107WAT     H145148   2.597   1.907   5.489  2.1514 -1.5131 -2.3344
11107WAT     H245149   2.469   1.907   5.440  2.3134  1.6542 -2.9675
11107WAT    EPW45150   2.532   1.869   5.469  0.4489  0.1893 -0.4736
11108WAT      O45151   0.955   4.006   3.755  0.1356 -0.4954  0.1109
11108WAT     H145152   0.992   4.084   3.770  1.1866 -1.1764  1.1893
11108WAT     H245153   0.964   3.997   3.668  0.9394  0.1322  0.1069
11108WAT    EPW45154   0.962   4.016   3.744  0.4096 -0.5033  0.2696
11109WAT      O45155   1.681   2.902   3.430  0.0198  0.4749  0.2784
11109WAT     H145156   1.731   2.953   3.480  1.0067  0.2452 -0.4323
11109WAT     H245157   1.621   2.957   3.398  1.5903  1.4318 -1.1773
11109WAT    EPW45158   1.679   2.917   3.433  0.3976  0.5824 -0.0416
11110WAT      O45159   0.791   2.193   6.489 -0.2999  0.2227  0.0120
11110WAT     H145160   0.710   2.224   6.493 -0.2811  0.3847 -0.7428
11110WAT     H245161   0.829   2.225   6.561 -1.0744 -0.3673  0.7077
11110WAT    EPW45162   0.785   2.202   6.501 -0.4115  0.1595  0.0032
11111WAT      O45163   2.587   0.263   6.446 -0.6618  0.3623  0.4737
11111WAT     H145164   2.548   0.185   6.434 -1.1961  0.9544 -2.0259
11111WAT     H245165   2.542   0.297   6.513 -0.8584 -1.1597  1.1794
11111WAT    EPW45166   2.574   0.256   6.454 -0.7698  0.2249  0.2087
11112WAT      O45167   2.880   4.065   4.455  0.1761 -0.7648  0.5689
11112WAT     H145168   2.848   4.038   4.531 -0.7798 -1.3749 -0.0391
11112WAT     H245169   2.853   4.005   4.397  0.8948 -0.3284 -0.2620
11112WAT    EPW45170   2.872   4.052   4.457  0.1410 -0.7904  0.3564
11113WAT      O45171   1.818   3.170   5.909 -0.1041  0.4396 -0.3861
11113WAT     H145172   1.737   3.202   5.911 -0.4157 -0.3298  1.4068
11113WAT     H245173   1.861   3.219   5.967  0.4253  0.1044 -0.4879
11113WAT    EPW45174   1.812   3.182   5.918 -0.0719  0.2764 -0.1363
11114WAT      O45175   2.814   4.097   2.643 -0.3205 -0.2845 -0.1867
11114WAT     H145176   2.894   4.066   2.634  0.6317  1.5790  1.1510
11114WAT     H245177   2.796   4.134   2.566  0.3837 -0.1103 -0.2664
11114WAT    EPW45178   2.823   4.098   2.630 -0.0758  0.0165 -0.0009
11115WAT      O45179   3.088   5.046   7.233  0.1863 -0.1071  0.2690
11115WAT     H145180   3.036   5.088   7.289 -1.3224 -0.8392 -0.5283
11115WAT     H245181   3.080   5.091   7.160 -0.4215 -0.9979 -0.2350
11115WAT    EPW45182   3.079   5.059   7.231 -0.1264 -0.3468  0.0767
11116WAT      O45183   0.296   3.842   4.496  0.0678  0.1057 -0.4296
11116WAT     H145184   0.267   3.918   4.528 -0.2427  0.3151 -1.1909
11116WAT     H245185   0.263   3.783   4.552 -0.5717  0.4516 -0.4248
11116WAT    EPW45186   0.287   3.845   4.509 -0.0725  0.1877 -0.5414
11117WAT      O45187   0.579   0.726   5.176 -0.1211  0.2168  0.9166
11117WAT     H145188   0.564   0.747   5.260 -1.5841  3.3293  0.0351
11117WAT     H245189   0.660   0.755   5.163 -0.4675  1.2047  0.8859
11117WAT    EPW45190   0.589   0.734   5.187 -0.3884  0.8225  0.7819
11118WAT      O45191   0.812   6.500   7.594  0.3871 -0.9395 -0.1930
11118WAT     H145192   0.745   6.446   7.585 -0.0455 -0.5182  0.3871
11118WAT     H245193   0.782   6.575   7.561  1.1537 -1.1610 -1.4617
11118WAT    EPW45194   0.798   6.503   7.587  0.4364 -0.9100 -0.2947
11119WAT      O45195   2.335   7.225   6.481 -0.2898 -0.1476  0.1461
11119WAT     H145196   2.262   7.179   6.468 -0.0582 -0.5161  0.1548
11119WAT     H245197   2.399   7.167   6.471  0.0378  0.3103 -0.5099
11119WAT    EPW45198   2.334   7.210   6.477 -0.2072 -0.1344  0.0505
11120WAT      O45199   1.357   1.687   6.181 -0.2819 -0.2957 -0.1010
11120WAT     H145200   1.293   1.671   6.124 -1.8745  2.2258  0.8176
11120WAT     H245201   1.327   1.654   6.256 -0.0200 -0.0418  0.1164
11120WAT    EPW45202   1.343   1.680   6.183 -0.4785  0.1143  0.0668
11121WAT      O45203   2.628   4.232   1.775 -0.2666  0.4423  0.1379
11121WAT     H145204   2.678   4.298   1.747  0.6068  0.3918  1.5010
11121WAT     H245205   2.563   4.271   1.819 -1.5131  0.5089 -1.6516
11121WAT    EPW45206   2.626   4.247   1.777 -0.3217  0.4446  0.0749
11122WAT      O45207   6.070   0.629   3.586 -0.3303  0.2744  0.6919
11122WAT     H145208   6.017   0.670   3.642 -2.2600 -0.4746 -0.5067
11122WAT     H245209   6.020   0.567   3.552  1.4491 -0.7184 -0.2421
11122WAT    EPW45210   6.055   0.626   3.589 -0.3525  0.0171  0.3769
11123WAT      O45211   2.222   1.148   4.925  0.2056 -0.4196 -0.6129
11123WAT     H145212   2.197   1.232   4.921  0.9581 -0.1773 -0.4120
11123WAT     H245213   2.154   1.109   4.964  1.0111  0.6349  2.1581
11123WAT    EPW45214   2.208   1.155   4.930  0.4357 -0.2281 -0.1739
11124WAT      O45215   1.761   0.748   3.301 -0.0331  0.2694  0.1404
11124WAT     H145216   1.764   0.768   3.216  1.3838  0.1545  0.1439
11124WAT     H245217   1.677   0.757   3.321 -0.5116 -0.3586 -1.4331
11124WAT    EPW45218   1.749   0.752   3.291  0.1055  0.1597 -0.0915
11125WAT      O45219   2.241   4.693   4.794  0.5537 -0.3461 -0.0368
11125WAT     H145220   2.253   4.607   4.802  0.8250 -0.2962  0.1242
11125WAT     H245221   2.178   4.700   4.734  0.8130 -0.6427 -0.3426
11125WAT    EPW45222   2.233   4.682   4.786  0.6321 -0.3826 -0.0582
11126WAT      O45223   7.076   5.884   5.655  0.0002  0.1768 -0.2837
11126WAT     H145224   7.116   5.913   5.583 -1.3169  0.8427 -0.7729
11126WAT     H245225   7.010   5.940   5.666 -0.7257 -0.8164  0.5702
11126WAT    EPW45226   7.072   5.897   5.646 -0.3016  0.1285 -0.2298
11127WAT      O45227   2.548   6.348   7.684 -0.0689  0.0407 -0.4520
11127WAT     H145228   2.517   6.367   7.764 -0.5460  0.3467 -0.7022
11127WAT     H245229   2.476   6.334   7.637  0.2045  0.0035 -0.8641
11127WAT    EPW45230   2.532   6.349   7.689 -0.0990  0.0804 -0.5498
11128WAT      O45231   3.506   6.164   4.947  0.3132  0.6860  0.0498
11128WAT     H145232   3.460   6.110   4.897  1.3439  1.2362 -1.6032
11128WAT     H245233   3.580   6.120   4.963  0.3514  0.8528  0.3387
11128WAT    EPW45234   3.510   6.150   4.942  0.4711  0.7919 -0.1517
11129WAT      O45235   1.436   0.019   3.767  0.0382 -0.4473  0.2033
11129WAT     H145236   1.368  -0.030   3.741 -0.4596  0.7734 -0.8861
11129WAT     H245237   1.398   0.091   3.800  0.7842  0.1740 -0.2648
11129WAT    EPW45238   1.420   0.022   3.768  0.0749 -0.1752 -0.0268
11130WAT      O45239   3.436   0.787   4.393  0.1816 -0.2280 -0.1606
11130WAT     H145240   3.379   0.808   4.331  0.8435  2.2842 -0.0126
11130WAT     H245241   3.444   0.700   4.385 -1.9302 -0.3610 -1.6307
11130WAT    EPW45242   3.429   0.777   4.383 -0.0326  0.1235 -0.3559
11131WAT      O45243   4.464   0.512   5.131  0.7571 -0.0077  0.5102
11131WAT     H145244   4.464   0.491   5.046  0.1909 -2.2512  1.0123
11131WAT     H245245   4.392   0.560   5.140  1.8789  2.0656 -0.5984
11131WAT    EPW45246   4.453   0.516   5.120  0.8392 -0.0328  0.4206
11132WAT      O45247   0.275   0.190   4.370 -0.3231  0.1502 -0.9113
11132WAT     H145248   0.225   0.198   4.441  0.3780  0.0267 -0.3927
11132WAT     H245249   0.294   0.272   4.349 -0.9645  0.2103 -1.2773
11132WAT    EPW45250   0.271   0.203   4.378 -0.3143  0.1408 -0.8888
11133WAT      O45251   7.101   3.283   7.056 -0.4503  0.1092 -0.0339
11133WAT     H145252   7.078   3.363   7.081 -0.6710  0.0086  0.0892
11133WAT     H245253   7.147   3.297   6.983  1.1366  0.4930  1.0036
11133WAT    EPW45254   7.104   3.297   7.049 -0.2484  0.1510  0.1376
11134WAT      O45255   4.405   5.742   3.049  0.0743  0.5080 -0.1308
11134WAT     H145256   4.353   5.750   2.979  1.6138 -0.9878 -1.5158
11134WAT     H245257   4.474   5.791   3.029  0.5472  0.0297  0.3318
11134WAT    EPW45258   4.407   5.750   3.036  0.3715  0.2164 -0.2671
11135WAT      O45259   3.296   5.322   0.832 -0.3957 -0.4855  0.0055
11135WAT     H145260   3.374   5.345   0.864 -0.3367  0.5406 -0.8265
11135WAT     H245261   3.245   5.391   0.851 -0.0619  0.7704 -3.1373
11135WAT    EPW45262   3.300   5.336   0.840 -0.3377 -0.1484 -0.5816
11136WAT      O45263   2.086   4.085   3.636 -0.1237 -1.1058 -0.7819
11136WAT     H145264   2.138   4.038   3.583  0.1460 -0.7398 -0.8452
11136WAT     H245265   2.020   4.109   3.584 -0.3699 -1.5830 -0.6979
11136WAT    EPW45266   2.084   4.081   3.620 -0.1202 -1.1222 -0.7788
11137WAT      O45267   1.517   3.776   5.730 -0.2998  0.3219 -0.2789
11137WAT     H145268   1.539   3.728   5.661 -0.4401 -0.3880  0.1532
11137WAT     H245269   1.483   3.717   5.786  1.2331  0.6167  1.0211
11137WAT    EPW45270   1.515   3.760   5.728 -0.0941  0.2606 -0.0231
11138WAT      O45271   3.431   1.414   5.613  0.1243 -0.2523  0.1060
11138WAT     H145272   3.491   1.423   5.676 -0.0011  0.3725  0.1403
11138WAT     H245273   3.400   1.334   5.626  0.2904 -0.2332  0.6721
11138WAT    EPW45274   3.435   1.403   5.624  0.1303 -0.1572  0.1947
11139WAT      O45275   4.144   3.780   6.997  0.1946  0.4177  0.3960
11139WAT     H145276   4.173   3.855   6.962  1.7508 -1.1533 -2.0021
11139WAT     H245277   4.062   3.774   6.967  1.0326 -0.1962 -2.0397
11139WAT    EPW45278   4.136   3.790   6.987  0.5482  0.0950 -0.3180
11140WAT      O45279   1.523   0.527   3.482 -0.3759 -0.1096 -0.6190
11140WAT     H145280   1.521   0.614   3.475 -1.6650 -0.0537  0.0298
11140WAT     H245281   1.510   0.499   3.401 -0.3054  0.3067 -0.7764
11140WAT    EPW45282   1.521   0.536   3.469 -0.5559 -0.0398 -0.5464
11141WAT      O45283   3.112   2.167   3.371 -0.4423  0.4069 -0.0789
11141WAT     H145284   3.156   2.231   3.332  0.5883  0.3825  0.9784
11141WAT     H245285   3.167   2.139   3.433 -0.8465 -1.5026 -0.4992
11141WAT    EPW45286   3.127   2.172   3.374 -0.3498  0.1212  0.0152
11142WAT      O45287   4.148   0.439   4.556  0.1084 -0.2591 -0.5550
11142WAT     H145288   4.089   0.400   4.505 -2.7371  0.8736  1.5466
11142WAT     H245289   4.105   0.450   4.631  2.3086  2.5998  0.4675
11142WAT    EPW45290   4.133   0.435   4.560  0.0131  0.3305 -0.0935
11143WAT      O45291   0.463   3.465   4.549  0.1502 -0.4840 -0.3383
11143WAT     H145292   0.441   3.481   4.632 -0.3548 -2.7649  0.0350
11143WAT     H245293   0.486   3.544   4.518 -0.0945  0.4989  1.8123
11143WAT    EPW45294   0.463   3.479   4.557  0.0394 -0.6757  0.0345
11144WAT      O45295   3.074   2.918   6.651 -0.5629  0.1641  0.3559
11144WAT     H145296   3.071   2.851   6.706 -1.9194  0.4794  0.7042
11144WAT     H245297   3.085   2.987   6.704  1.8394  0.2061 -0.0532
11144WAT    EPW45298   3.075   2.918   6.667 -0.4084  0.2169  0.3469
11145WAT      O45299   5.218   6.443   3.944  0.0793  0.4276  0.2003
11145WAT     H145300   5.253   6.473   4.018  0.6948  0.0429  0.0688
11145WAT     H245301   5.248   6.497   3.883  0.7597 -0.1266  0.0362
11145WAT    EPW45302   5.228   6.456   3.946  0.2707  0.2889  0.1566
11146WAT      O45303   0.650   2.023   5.242 -0.1548 -0.4664 -0.3998
11146WAT     H145304   0.614   2.010   5.164  0.2885  0.0134 -0.6962
11146WAT     H245305   0.710   1.960   5.248 -0.2467 -0.5540 -0.4129
11146WAT    EPW45306   0.654   2.012   5.232 -0.1029 -0.4084 -0.4455
11147WAT      O45307   4.042   3.127   5.072  0.0568  0.1878 -0.1775
11147WAT     H145308   3.989   3.106   5.006  0.6458  1.9893 -1.2808
11147WAT     H245309   3.989   3.167   5.128 -0.2048 -0.2260 -0.1215
11147WAT    EPW45310   4.026   3.130   5.071  0.1052  0.3928 -0.3322
11148WAT      O45311   4.188   2.480   6.005  0.2860  0.3343 -0.4130
11148WAT     H145312   4.199   2.400   6.036 -1.9058  0.2681  0.3575
11148WAT     H245313   4.269   2.507   5.988  1.3121 -1.0273  1.8820
11148WAT    EPW45314   4.202   2.472   6.007  0.1138  0.1234  0.0398
11149WAT      O45315   1.915   3.130   5.582 -0.1292 -0.7435  0.2126
11149WAT     H145316   1.912   3.213   5.610 -1.8283 -0.5328 -0.4510
11149WAT     H245317   1.927   3.084   5.655 -0.9345 -0.0040  0.8318
11149WAT    EPW45318   1.916   3.136   5.597 -0.4991 -0.6031  0.2060
11150WAT      O45319   3.533   2.870   2.363 -0.6014 -0.6088 -0.1916
11150WAT     H145320   3.502   2.866   2.445 -1.5618 -0.0998 -0.5243
11150WAT     H245321   3.576   2.946   2.362  1.1721 -1.5478  0.4222
11150WAT    EPW45322   3.535   2.881   2.375 -0.4813 -0.6723 -0.1501
11151WAT      O45323   2.043   7.008   3.931  0.5782 -0.4268  0.2760
11151WAT     H145324   2.077   7.088   3.921  0.4932 -0.0308  2.5647
11151WAT     H245325   2.072   6.964   3.861  1.4381  1.3265 -0.5300
11151WAT    EPW45326   2.052   7.013   3.919  0.6927 -0.1093  0.4950
11152WAT      O45327   1.316   3.349   0.193  0.1684  0.5291 -0.4644
11152WAT     H145328   1.233   3.351   0.219 -0.1262 -2.5976 -0.8203
11152WAT     H245329   1.320   3.278   0.143  2.9790  0.8125 -0.7920
11152WAT    EPW45330   1.304   3.339   0.190  0.5400  0.1091 -0.5653
11153WAT      O45331   4.549   1.106   3.548  0.0587  0.5216 -0.1629
11153WAT     H145332   4.466   1.094   3.523 -0.0913  1.3327 -0.0740
11153WAT     H245333   4.549   1.186   3.582  0.6556  0.1450  0.7882
11153WAT    EPW45334   4.537   1.116   3.550  0.1247  0.5858 -0.0093
11154WAT      O45335   0.911   2.502   6.572  0.2691  0.1773 -0.0172
11154WAT     H145336   0.968   2.567   6.585  1.1904 -0.3520 -1.2656
11154WAT     H245337   0.922   2.451   6.641  1.1846  0.1825 -0.1463
11154WAT    EPW45338   0.921   2.504   6.584  0.5404  0.0999 -0.2207
11155WAT      O45339   0.500   0.041   4.526 -0.1944 -0.1405 -0.7860
11155WAT     H145340   0.535   0.084   4.593  0.9750 -0.6610 -1.0528
11155WAT     H245341   0.414   0.044   4.543  0.1267 -1.3616  1.4098
11155WAT    EPW45342   0.492   0.048   4.538  0.0258 -0.3978 -0.5010
11156WAT      O45343   1.518   5.390   3.367  0.0354  0.4288  0.1785
11156WAT     H145344   1.603   5.407   3.359 -0.1629  0.7760 -1.5093
11156WAT     H245345   1.498   5.348   3.293 -1.4729  1.2603  0.0748
11156WAT    EPW45346   1.527   5.386   3.355 -0.2167  0.6029 -0.0862
11157WAT      O45347   1.548   5.589   2.355  0.7726 -0.2193 -0.5863
11157WAT     H145348   1.608   5.575   2.293  0.2390 -0.8271 -0.9845
11157WAT     H245349   1.501   5.516   2.355 -0.5391  0.5661 -0.9380
11157WAT    EPW45350   1.550   5.576   2.346  0.5000 -0.1931 -0.6971
11158WAT      O45351   0.109   5.665   4.898  0.1810  0.1041  0.8043
11158WAT     H145352   0.130   5.731   4.951 -1.0970 -0.4825  2.1459
11158WAT     H245353   0.169   5.604   4.916  0.4537  0.3474  0.7108
11158WAT    EPW45354   0.121   5.666   4.908  0.0325  0.0534  0.9887
11159WAT      O45355   3.443   7.385   0.721 -0.0600  0.3955  0.6008
11159WAT     H145356   3.522   7.354   0.703 -0.3616 -0.9749  1.4858
11159WAT     H245357   3.434   7.369   0.807 -1.6833 -0.4538  0.3092
11159WAT    EPW45358   3.453   7.378   0.731 -0.3443  0.0676  0.6885
11160WAT      O45359   2.460   5.537   6.725  0.4416  0.0559 -0.0572
11160WAT     H145360   2.541   5.566   6.740  0.7062 -0.9375  0.4670
11160WAT     H245361   2.472   5.456   6.697 -0.2780  0.5252 -1.8524
11160WAT    EPW45362   2.474   5.530   6.723  0.3744 -0.0215 -0.2449
11161WAT      O45363   1.009   3.482   0.281  0.4109  0.6247 -0.3059
11161WAT     H145364   1.003   3.518   0.202 -0.3029  0.8185 -0.1705
11161WAT     H245365   0.926   3.474   0.306  0.5114 -1.5850 -0.5166
11161WAT    EPW45366   0.996   3.486   0.273  0.3203  0.3269 -0.3170
11162WAT      O45367   3.865   3.576   7.773 -0.6219  0.0123 -0.3099
11162WAT     H145368   3.899   3.510   7.821 -0.0119 -2.0066 -3.2378
11162WAT     H245369   3.779   3.564   7.780 -0.5437 -0.2795  0.2391
11162WAT    EPW45370   3.857   3.564   7.781 -0.5203 -0.3290 -0.6613
11163WAT      O45371   5.583   4.785   1.459  0.7328  0.1751 -0.1504
11163WAT     H145372   5.656   4.811   1.418  0.3889 -2.0345 -2.4431
11163WAT     H245373   5.543   4.734   1.400 -1.9513  0.0810  1.5470
11163WAT    EPW45374   5.588   4.781   1.444  0.2855 -0.1652 -0.2383
11164WAT      O45375   0.235   3.758   5.180 -0.9794  0.0173  0.1676
11164WAT     H145376   0.282   3.744   5.253 -0.3322 -0.9904 -0.4081
11164WAT     H245377   0.296   3.763   5.118 -1.5167  1.0811 -0.2856
11164WAT    EPW45378   0.251   3.756   5.182 -0.9632  0.0256  0.0156
11165WAT      O45379   7.197   0.244   4.533  0.2766  0.0812 -0.0894
11165WAT     H145380   7.166   0.256   4.452 -0.1394  0.3207  0.0969
11165WAT     H245381   7.237   0.167   4.529  0.9907  0.4690 -0.7402
11165WAT    EPW45382   7.198   0.235   4.521  0.3206  0.1739 -0.1580
11166WAT      O45383   3.141   2.128   4.731  0.8794 -0.4903  0.2067
11166WAT     H145384   3.167   2.060   4.780  2.1683  0.2913  0.6711
11166WAT     H245385   3.182   2.196   4.768  0.8598  0.3109 -1.1938
11166WAT    EPW45386   3.151   2.128   4.744  1.0669 -0.2565  0.0685
11167WAT      O45387   7.351   0.551   5.951 -0.2392  0.2619  0.4106
11167WAT     H145388   7.327   0.613   5.895 -1.8248  0.3885  1.1975
11167WAT     H245389   7.338   0.477   5.906 -0.9954  0.3893  0.4042
11167WAT    EPW45390   7.346   0.549   5.936 -0.5851  0.2994  0.5259
11168WAT      O45391   2.462   4.738   3.651 -0.1648  0.2611  0.0809
11168WAT     H145392   2.501   4.702   3.720  1.7293  0.8045 -0.6525
11168WAT     H245393   2.379   4.712   3.660  0.4011 -1.3415  1.4672
11168WAT    EPW45394   2.455   4.728   3.663  0.1986  0.1046  0.1773
11169WAT      O45395   2.618   6.301   1.776 -0.1417  0.5538 -0.4147
11169WAT     H145396   2.679   6.246   1.804 -2.2707 -1.0407  1.4972
11169WAT     H245397   2.551   6.249   1.755 -2.3780  2.2799  1.7642
11169WAT    EPW45398   2.617   6.285   1.777 -0.7866  0.5733  0.1896
11170WAT      O45399   5.803   5.445   0.234  0.4574  0.1108  0.1079
11170WAT     H145400   5.825   5.408   0.310  1.6881  0.1203 -0.2290
11170WAT     H245401   5.766   5.380   0.190 -0.2835  0.1089  0.7051
11170WAT    EPW45402   5.801   5.430   0.239  0.5297  0.1119  0.1464
11171WAT      O45403   4.580   3.333   1.120 -0.8104  0.0280 -0.5860
11171WAT     H145404   4.594   3.381   1.049  1.0914 -1.0254 -1.0186
11171WAT     H245405   4.583   3.391   1.185 -2.8110  1.0400 -1.3168
11171WAT    EPW45406   4.583   3.348   1.119 -0.8250  0.0219 -0.7578
11172WAT      O45407   2.563   5.862   5.254  0.5257  0.4997  0.3007
11172WAT     H145408   2.582   5.835   5.335  0.1087  0.6128  0.4431
11172WAT     H245409   2.630   5.913   5.233  1.2290 -0.4816  0.1057
11172WAT    EPW45410   2.575   5.865   5.263  0.5680  0.3714  0.2929
11173WAT      O45411   1.168   0.803   6.888 -0.3706 -0.2936 -0.2758
11173WAT     H145412   1.100   0.766   6.927  0.6086 -1.3677  0.4897
11173WAT     H245413   1.192   0.865   6.945  0.3067 -1.0507  0.2952
11173WAT    EPW45414   1.162   0.807   6.903 -0.1259 -0.5641 -0.0784
11174WAT      O45415   7.111   7.269   3.871 -0.0564  0.3347  0.7523
11174WAT     H145416   7.077   7.251   3.793 -0.1634  0.0570  0.8594
11174WAT     H245417   7.156   7.342   3.858  1.7349 -0.8534 -0.0739
11174WAT    EPW45418   7.112   7.277   3.858  0.1924  0.1182  0.6460
11175WAT      O45419   2.656   2.677   5.149 -0.3004  0.1568  0.2694
11175WAT     H145420   2.714   2.615   5.130  0.3575  0.8389  0.0316
11175WAT     H245421   2.703   2.750   5.150 -1.2342  0.7902 -0.3908
11175WAT    EPW45422   2.671   2.679   5.147 -0.3412  0.3511  0.1368
11176WAT      O45423   3.389   6.436   7.132 -0.6754 -0.5988  0.1440
11176WAT     H145424   3.412   6.352   7.131 -1.0474 -0.7139 -0.8949
11176WAT     H245425   3.463   6.478   7.147 -0.1427 -1.0584 -1.0273
11176WAT    EPW45426   3.403   6.430   7.134 -0.6517 -0.6837 -0.1825
11177WAT      O45427   5.127   6.826   2.160  0.0618  0.5754 -0.0109
11177WAT     H145428   5.135   6.770   2.094  1.3582 -0.9034  1.3188
11177WAT     H245429   5.192   6.883   2.146  0.7321 -0.0919  0.2674
11177WAT    EPW45430   5.138   6.826   2.148  0.3523  0.2584  0.2266
11178WAT      O45431   3.968   6.893   1.800 -0.4022 -1.2642  0.1869
11178WAT     H145432   3.975   6.944   1.870  1.2379  0.2134 -0.9604
11178WAT     H245433   3.997   6.815   1.828  0.9356 -0.5123  1.0049
11178WAT    EPW45434   3.973   6.889   1.814  0.0377 -0.9348  0.1382
11179WAT      O45435   3.126   6.042   6.526 -0.5983 -0.2188  0.1281
11179WAT     H145436   3.059   6.007   6.570 -0.2100  1.4259  2.2331
11179WAT     H245437   3.193   6.035   6.582  0.3684  0.3921 -0.9112
11179WAT    EPW45438   3.126   6.036   6.541 -0.3982  0.1144  0.2855
11180WAT      O45439   3.451   3.979   2.406 -0.1162  0.0664 -0.0707
11180WAT     H145440   3.388   3.971   2.346 -1.3934 -1.6740  1.4039
11180WAT     H245441   3.411   3.963   2.481  1.7472  0.6523  1.1268
11180WAT    EPW45442   3.436   3.975   2.408 -0.0296 -0.1041  0.3240
11181WAT      O45443   0.288   0.499   6.630  0.4604  0.6937  0.4929
11181WAT     H145444   0.314   0.470   6.552 -1.5872  1.1784 -0.4356
11181WAT     H245445   0.209   0.464   6.639  0.7847  0.3921  2.5273
11181WAT    EPW45446   0.280   0.490   6.620  0.2058  0.7208  0.6563
11182WAT      O45447   0.106   6.931   5.402  0.5548 -0.3720  0.2796
11182WAT     H145448   0.181   6.945   5.444  0.9414 -0.3486 -0.4148
11182WAT     H245449   0.077   6.857   5.438  2.0629 -1.6685 -1.0130
11182WAT    EPW45450   0.113   6.922   5.414  0.8347 -0.5600 -0.0139
11183WAT      O45451   1.823   3.629   4.784  0.7984 -0.5090  0.0077
11183WAT     H145452   1.785   3.707   4.784 -1.1253 -1.3696  0.3163
11183WAT     H245453   1.814   3.602   4.702 -1.1599 -1.4994  0.4692
11183WAT    EPW45454   1.816   3.636   4.772  0.2249 -0.7825  0.1214
11184WAT      O45455   6.870   1.422   6.679 -0.1987  0.5953 -0.0137
11184WAT     H145456   6.909   1.422   6.600 -0.6036  0.9468 -0.2119
11184WAT     H245457   6.862   1.337   6.697  0.5004  0.5088 -0.0473
11184WAT    EPW45458   6.875   1.409   6.670 -0.1552  0.6345 -0.0479
11185WAT      O45459   3.596   3.405   0.719 -0.2831 -0.0742  0.5452
11185WAT     H145460   3.598   3.342   0.658 -1.3032  2.0564 -1.8903
11185WAT     H245461   3.512   3.408   0.742 -0.5843  1.3427 -0.5654
11185WAT    EPW45462   3.584   3.396   0.713 -0.4783  0.4498  0.0214
11186WAT      O45463   4.283   7.138   2.083  0.6034 -0.5672  0.6908
11186WAT     H145464   4.330   7.119   2.012 -1.3288 -0.3562 -0.7349
11186WAT     H245465   4.303   7.222   2.098 -1.1908  0.3888 -1.5713
11186WAT    EPW45466   4.293   7.148   2.075  0.0529 -0.3948  0.1460
11187WAT      O45467   0.334   3.697   7.228  0.1079 -0.2535  0.0426
11187WAT     H145468   0.374   3.667   7.157 -0.6732 -1.9143  0.2482
11187WAT     H245469   0.300   3.625   7.265 -1.7023  0.8483  0.6945
11187WAT    EPW45470   0.335   3.682   7.223 -0.2749 -0.3361  0.1693
11188WAT      O45471   3.642   2.500   7.402 -0.0284  0.9090 -0.5277
11188WAT     H145472   3.637   2.528   7.485 -1.2131 -0.5167 -0.0800
11188WAT     H245473   3.585   2.435   7.399  1.8631 -0.8288 -1.7473
11188WAT    EPW45474   3.633   2.495   7.414  0.0760  0.4417 -0.6417
11189WAT      O45475   7.706   1.443   7.132  0.0894 -0.8785  0.6715
11189WAT     H145476   7.711   1.522   7.167  0.4148 -1.6635  2.5118
11189WAT     H245477   7.778   1.403   7.162  0.8494 -1.3715 -1.6049
11189WAT    EPW45478   7.717   1.449   7.142  0.2497 -1.0673  0.6070
11190WAT      O45479   6.082   0.722   3.152 -0.3680 -0.2683 -0.2594
11190WAT     H145480   6.061   0.739   3.070  0.3749 -1.0368 -0.6199
11190WAT     H245481   6.038   0.783   3.198 -1.1147 -0.0978 -1.1786
11190WAT    EPW45482   6.072   0.733   3.147 -0.3685 -0.3566 -0.4484
11191WAT      O45483   5.663   3.012   1.308 -0.1342 -0.4656  0.0517
11191WAT     H145484   5.717   3.070   1.344 -0.5230  1.3813 -2.1473
11191WAT     H245485   5.608   3.061   1.261 -0.2752 -2.5915 -2.2014
11191WAT    EPW45486   5.663   3.028   1.306 -0.2125 -0.5068 -0.6059
11192WAT      O45487   1.541   0.750   4.081 -0.5158 -0.2725 -0.2703
11192WAT     H145488   1.493   0.759   4.009 -2.3719 -0.3776  0.8996
11192WAT     H245489   1.567   0.832   4.099 -1.4672  0.0171 -0.1499
11192WAT    EPW45490   1.538   0.764   4.073 -0.9306 -0.2452 -0.0797
11193WAT      O45491   3.689   1.383   1.492 -0.0104 -0.6335  0.2346
11193WAT     H145492   3.648   1.310   1.468 -0.5368 -0.9316  1.9233
11193WAT     H245493   3.770   1.373   1.459 -0.8616 -0.6151 -2.0411
11193WAT    EPW45494   3.695   1.371   1.484 -0.2139 -0.6748  0.1479
11194WAT      O45495   6.150   3.107   6.001  0.2325  0.3185  0.2689
11194WAT     H145496   6.087   3.047   6.009  0.1601 -0.1429 -2.6645
11194WAT     H245497   6.220   3.069   6.038  0.1550 -1.5809 -1.3953
11194WAT    EPW45498   6.151   3.093   6.008  0.2104 -0.0303 -0.4103
11195WAT      O45499   0.201   0.984   6.896 -0.7694 -0.1123 -0.5005
11195WAT     H145500   0.263   1.041   6.875 -1.3140  0.3740 -0.8070
11195WAT     H245501   0.212   0.919   6.840  1.7395 -1.7531  1.6662
11195WAT    EPW45502   0.212   0.983   6.885 -0.4793 -0.2828 -0.2257
11196WAT      O45503   4.296   4.574   5.364  0.0137  0.0775  0.5640
11196WAT     H145504   4.343   4.569   5.291 -0.4622  3.4878 -0.1369
11196WAT     H245505   4.218   4.601   5.336 -0.5936  0.1488  2.2249
11196WAT    EPW45506   4.292   4.577   5.349 -0.1463  0.5918  0.7058
11197WAT      O45507   4.767   0.623   6.456  0.3384 -0.1173  0.1757
11197WAT     H145508   4.762   0.692   6.510 -0.7311 -0.1030  0.0896
11197WAT     H245509   4.819   0.651   6.392  0.7979  0.2277  0.6891
11197WAT    EPW45510   4.774   0.638   6.455  0.2483 -0.0642  0.2388
11198WAT      O45511   1.818   2.091   1.266  0.1104 -0.4309 -0.6334
11198WAT     H145512   1.877   2.094   1.201  1.6229  0.3221  0.6928
11198WAT     H245513   1.864   2.059   1.333 -0.8459  0.6403  0.5786
11198WAT    EPW45514   1.834   2.087   1.266  0.1926 -0.1614 -0.2584
11199WAT      O45515   3.059   1.409   5.593 -0.1522 -0.3572  0.3881
11199WAT     H145516   3.049   1.354   5.660  0.5432  0.5608  1.2867
11199WAT     H245517   3.033   1.486   5.626  1.2415  0.3234 -0.0319
11199WAT    EPW45518   3.054   1.413   5.608  0.1564 -0.1210  0.4588
11200WAT      O45519   6.561   6.656   7.786 -0.3413 -0.4550  0.3711
11200WAT     H145520   6.624   6.697   7.742 -0.6410 -0.4431 -0.0504
11200WAT     H245521   6.495   6.713   7.785 -0.0457 -0.0455  1.6814
11200WAT    EPW45522   6.561   6.671   7.780 -0.3419 -0.3928  0.5024
11201WAT      O45523   3.615   3.707   0.093  0.0992  0.4292  0.5243
11201WAT     H145524   3.650   3.745   0.163 -1.1236  0.5534  1.0909
11201WAT     H245525   3.627   3.622   0.108  0.4055  0.4812  0.5772
11201WAT    EPW45526   3.622   3.700   0.105 -0.0362  0.4552  0.6158
11202WAT      O45527   2.054   2.307   1.547 -0.4110 -0.3328 -0.2416
11202WAT     H145528   2.084   2.360   1.610  0.0355 -0.2411 -0.5282
11202WAT     H245529   1.967   2.314   1.554 -0.3603  0.3831 -0.2216
11202WAT    EPW45530   2.045   2.316   1.557 -0.3376 -0.2135 -0.2810
11203WAT      O45531   5.074   6.720   6.457 -0.4546  0.8692  0.0297
11203WAT     H145532   5.157   6.721   6.432 -0.4476  0.3940  0.0093
11203WAT     H245533   5.042   6.796   6.429 -0.9378 -0.3352 -3.0831
11203WAT    EPW45534   5.082   6.731   6.449 -0.5250  0.6211 -0.4331
11204WAT      O45535   2.791   4.431   1.666 -0.0475 -0.2592 -0.0992
11204WAT     H145536   2.855   4.372   1.665  1.8440  1.6230  1.2603
11204WAT     H245537   2.799   4.470   1.744 -0.6325  2.3451 -1.2291
11204WAT    EPW45538   2.801   4.428   1.677  0.1455  0.4036 -0.0653
11205WAT      O45539   7.160   4.196   7.233  0.1210 -0.2962  0.5696
11205WAT     H145540   7.084   4.154   7.236  0.3734 -1.1611 -2.1693
11205WAT     H245541   7.217   4.135   7.207  0.9702  1.1076 -1.0952
11205WAT    EPW45542   7.157   4.181   7.230  0.2837 -0.2166 -0.0809
11206WAT      O45543   0.479   2.056   4.984 -0.2721  0.3180  0.6621
11206WAT     H145544   0.423   2.065   4.918 -2.0136  1.8227  2.2569
11206WAT     H245545   0.554   2.034   4.944 -1.3412  0.7570 -1.7497
11206WAT    EPW45546   0.482   2.054   4.968 -0.6873  0.6051  0.5414
11207WAT      O45547   4.112   7.693   7.135  0.0365 -0.0423  0.0056
11207WAT     H145548   4.138   7.768   7.097 -1.2616  1.2657  1.5503
11207WAT     H245549   4.155   7.632   7.090  0.2900  1.5386 -2.0774
11207WAT    EPW45550   4.122   7.695   7.123 -0.1178  0.3844 -0.0739
11208WAT      O45551   1.128   3.816   5.838  0.2298 -0.1229 -0.1063
11208WAT     H145552   1.176   3.743   5.843 -0.1054 -0.3936 -0.7106
11208WAT     H245553   1.056   3.796   5.881 -0.0322 -0.2994 -0.6114
11208WAT    EPW45554   1.125   3.802   5.845  0.1416 -0.1890 -0.2702
11209WAT      O45555   1.837   6.294   5.384 -0.0728  0.2251  0.0455
11209WAT     H145556   1.911   6.251   5.366  0.3793  0.0162  2.1543
11209WAT     H245557   1.865   6.371   5.413 -0.5183 -0.4606  2.5233
11209WAT    EPW45558   1.852   6.299   5.385 -0.0718  0.0929  0.7230
11210WAT      O45559   2.284   5.728   1.517  0.6108 -0.5044 -0.4207
11210WAT     H145560   2.229   5.661   1.529 -0.3232  0.2802 -0.1491
11210WAT     H245561   2.272   5.748   1.432 -2.3334  1.9484  0.3965
11210WAT    EPW45562   2.274   5.721   1.506  0.0379 -0.0262 -0.2598
11211WAT      O45563   1.802   2.921   1.135 -0.0706  0.2944 -0.2692
11211WAT     H145564   1.741   2.866   1.106  0.2936  1.2283 -3.1305
11211WAT     H245565   1.762   2.998   1.135  0.2284  0.4719  0.9629
11211WAT    EPW45566   1.787   2.924   1.130  0.0274  0.4586 -0.5099
11212WAT      O45567   2.391   5.736   0.917  0.1072 -0.0264 -0.4639
11212WAT     H145568   2.424   5.707   0.842  1.2312  1.4975 -0.5912
11212WAT     H245569   2.361   5.815   0.898 -2.1093 -0.6591  0.0861
11212WAT    EPW45570   2.391   5.743   0.903 -0.0542  0.1052 -0.4015
11213WAT      O45571   3.285   5.807   1.766 -0.2096 -0.4219  0.1945
11213WAT     H145572   3.272   5.889   1.741  0.0095 -0.3523  0.3035
11213WAT     H245573   3.225   5.794   1.828 -0.6322 -0.5356 -0.2263
11213WAT    EPW45574   3.274   5.817   1.771 -0.2397 -0.4284  0.1485
11214WAT      O45575   2.635   3.365   1.773 -0.0431  0.0334 -0.4131
11214WAT     H145576   2.660   3.369   1.690 -0.1165 -0.9390 -0.4938
11214WAT     H245577   2.549   3.379   1.769 -0.5131 -2.4062 -0.8224
11214WAT    EPW45578   2.626   3.367   1.760 -0.1234 -0.4706 -0.4855
11215WAT      O45579   1.370   5.027   4.842  0.4291 -0.3733 -0.0915
11215WAT     H145580   1.346   5.096   4.795  0.8281  0.1527  0.4686
11215WAT     H245581   1.314   4.965   4.818 -0.7062  0.4845  0.2973
11215WAT    EPW45582   1.358   5.028   4.831  0.3203 -0.1689  0.0486
11216WAT      O45583   3.745   7.267   5.216  0.2037  0.5230 -0.8250
11216WAT     H145584   3.802   7.311   5.265 -0.0938 -0.8491  0.8201
11216WAT     H245585   3.687   7.237   5.273  0.8457 -2.7178 -1.7059
11216WAT    EPW45586   3.745   7.269   5.231  0.2546 -0.1584 -0.7121
11217WAT      O45587   5.215   7.299   2.209  0.2377  0.1794 -0.3838
11217WAT     H145588   5.248   7.249   2.145 -0.4359 -0.8340  0.0430
11217WAT     H245589   5.130   7.279   2.209  0.2211  0.1907  0.8127
11217WAT    EPW45590   5.207   7.289   2.199  0.1358  0.0314 -0.1440
11218WAT      O45591   2.808   2.096   2.605  0.6875 -0.8162  0.2120
11218WAT     H145592   2.775   2.027   2.646 -0.2934 -1.0527 -0.9176
11218WAT     H245593   2.893   2.079   2.600  0.2889 -2.7882 -1.4832
11218WAT    EPW45594   2.816   2.083   2.610  0.4837 -1.1424 -0.2053
11219WAT      O45595   0.807   1.548   7.597 -0.7907  0.1958  0.0220
11219WAT     H145596   0.831   1.628   7.623  1.9622  0.3679 -2.4284
11219WAT     H245597   0.825   1.498   7.666  0.6054  1.2990  0.5148
11219WAT    EPW45598   0.813   1.553   7.611 -0.1778  0.3842 -0.2672
11220WAT      O45599   1.369   1.902   1.110  0.0787 -0.0409  0.5714
11220WAT     H145600   1.445   1.898   1.153 -0.3213 -0.5951  1.2452
11220WAT     H245601   1.327   1.830   1.136  0.3707 -1.1710 -1.8231
11220WAT    EPW45602   1.374   1.890   1.120  0.0628 -0.2897  0.3173
11221WAT      O45603   4.401   4.908   0.732  0.0154 -0.0270 -0.1024
11221WAT     H145604   4.375   4.980   0.692  1.2844 -0.8413 -2.5782
11221WAT     H245605   4.485   4.900   0.710  0.3888 -1.3674  1.5195
11221WAT    EPW45606   4.409   4.917   0.723  0.2580 -0.3453 -0.2285
11222WAT      O45607   1.565   3.409   1.071 -0.5251  0.0933  1.0064
11222WAT     H145608   1.497   3.358   1.053  1.7703 -2.4353 -1.7449
11222WAT     H245609   1.554   3.478   1.019 -0.7746 -0.5558  0.1698
11222WAT    EPW45610   1.554   3.411   1.061 -0.2229 -0.3761  0.4764
11223WAT      O45611   7.225   3.325   6.806  0.0113  0.4428  0.3195
11223WAT     H145612   7.229   3.397   6.757 -0.7670  0.2027 -0.1221
11223WAT     H245613   7.306   3.316   6.836  0.4187  0.8156 -0.6222
11223WAT    EPW45614   7.237   3.334   6.803 -0.0435  0.4624  0.1152
11224WAT      O45615   3.407   5.649   0.581  0.5271 -0.6959 -0.4289
11224WAT     H145616   3.351   5.703   0.619  0.3842 -1.8319  1.0518
11224WAT     H245617   3.482   5.662   0.624  0.3687 -1.9905  0.2687
11224WAT    EPW45618   3.410   5.659   0.593  0.4826 -1.0550 -0.1071
11225WAT      O45619   1.316   3.596   0.624  0.4096  0.2025  0.1139
11225WAT     H145620   1.271   3.521   0.622 -1.6856  1.3951  0.5708
11225WAT     H245621   1.286   3.641   0.556  1.2477  0.8827  0.1740
11225WAT    EPW45622   1.305   3.591   0.614  0.2239  0.4791  0.1903
11226WAT      O45623   1.370   6.522   5.155  0.5215 -0.4220  0.1436
11226WAT     H145624   1.427   6.519   5.089  1.3975 -0.0158  0.8518
11226WAT     H245625   1.419   6.508   5.226 -0.7879 -3.6082  0.5778
11226WAT    EPW45626   1.386   6.520   5.156  0.4575 -0.8327  0.3124
11227WAT      O45627   1.857   3.556   1.087  0.0150 -0.1916 -0.0012
11227WAT     H145628   1.837   3.516   1.012  0.4484  0.6078 -0.5575
11227WAT     H245629   1.779   3.567   1.126 -0.3205  0.1794 -0.7508
11227WAT    EPW45630   1.842   3.552   1.082  0.0295 -0.0187 -0.1941
11228WAT      O45631   3.246   5.153   7.501  0.2133 -0.5686 -0.5839
11228WAT     H145632   3.298   5.115   7.442  0.2941 -0.5914 -0.4979
11228WAT     H245633   3.206   5.085   7.538 -0.3992 -0.5203 -1.1304
11228WAT    EPW45634   3.248   5.137   7.498  0.1348 -0.5648 -0.6519
11229WAT      O45635   1.964   1.853   0.145 -0.2868 -0.7599 -0.6848
11229WAT     H145636   1.957   1.937   0.123 -0.1436 -0.9735 -1.5858
11229WAT     H245637   1.906   1.844   0.210 -0.6280 -0.0686 -0.8804
11229WAT    EPW45638   1.954   1.864   0.151 -0.3161 -0.6894 -0.8468
11230WAT      O45639   3.448   0.227   5.404  0.3741  0.3677  0.0420
11230WAT     H145640   3.422   0.169   5.345  1.0628  0.6575 -0.5694
11230WAT     H245641   3.433   0.188   5.481  0.2611 -0.3615 -0.3483
11230WAT    EPW45642   3.442   0.213   5.407  0.4592  0.3028 -0.1060
11231WAT      O45643   3.370   4.169   7.238  0.1755  0.3473 -0.6562
11231WAT     H145644   3.337   4.090   7.221 -0.4056  0.1398  1.1731
11231WAT     H245645   3.446   4.169   7.196 -1.0304 -0.0797 -3.0191
11231WAT    EPW45646   3.376   4.157   7.229 -0.0885  0.2536 -0.7350
11232WAT      O45647   1.066   2.184   7.738 -0.4033  0.4208  0.2166
11232WAT     H145648   1.063   2.191   7.825 -1.4121  1.3021  0.1343
11232WAT     H245649   1.037   2.261   7.710  0.6047  0.4204 -0.9218
11232WAT    EPW45650   1.061   2.196   7.747 -0.4034  0.5509  0.0363
11233WAT      O45651   3.346   3.021   7.520  0.3262  0.0449 -0.0650
11233WAT     H145652   3.310   3.007   7.599  1.5095 -0.4397  0.4134
11233WAT     H245653   3.373   2.942   7.495  1.1065  0.3877 -0.3612
11233WAT    EPW45654   3.345   3.007   7.528  0.6163  0.0239 -0.0381
11234WAT      O45655   0.985   5.886   5.747 -0.3357 -0.2312 -0.0872
11234WAT     H145656   1.031   5.908   5.818 -1.2340 -0.0056  0.4461
11234WAT     H245657   0.930   5.952   5.737 -2.5213 -1.7538  1.0508
11234WAT    EPW45658   0.984   5.899   5.756 -0.7912 -0.4228  0.1597
11235WAT      O45659   1.074   4.369   0.247  0.2960 -0.3919 -0.0427
11235WAT     H145660   1.015   4.430   0.269 -0.2798 -0.3440 -1.5827
11235WAT     H245661   1.144   4.389   0.295 -0.8444 -0.2985  1.6396
11235WAT    EPW45662   1.076   4.381   0.257  0.0425 -0.3710 -0.0217
11236WAT      O45663   0.154   2.690   4.944 -0.2549  0.3835  0.0664
11236WAT     H145664   0.125   2.772   4.953  1.0139  0.9284 -0.5513
11236WAT     H245665   0.139   2.654   5.022 -1.6249  0.9206  0.0808
11236WAT    EPW45666   0.148   2.697   4.957 -0.2698  0.5433 -0.0227
11237WAT      O45667   6.450   6.771   3.562  0.6455  0.6715  0.1536
11237WAT     H145668   6.504   6.750   3.627 -2.2748 -0.7260  2.3410
11237WAT     H245669   6.438   6.695   3.520 -0.0901  0.7891  0.1296
11237WAT    EPW45670   6.456   6.757   3.565  0.1054  0.4824  0.4732
11238WAT      O45671   3.135   4.648   1.148 -0.1400 -0.4271 -0.1010
11238WAT     H145672   3.162   4.672   1.227  0.4396 -0.7246 -0.2040
11238WAT     H245673   3.205   4.610   1.112 -0.7052 -1.2805 -0.3508
11238WAT    EPW45674   3.149   4.646   1.154 -0.1379 -0.5971 -0.1531
11239WAT      O45675   2.728   5.891   0.296 -0.1654  0.0139 -0.2014
11239WAT     H145676   2.738   5.944   0.365 -1.3962  0.0045  0.0121
11239WAT     H245677   2.669   5.833   0.324 -0.8719  0.1609 -1.3502
11239WAT    EPW45678   2.721   5.891   0.310 -0.4516  0.0342 -0.3396
11240WAT      O45679   1.690   5.308   7.534 -0.2243 -0.5709  0.1082
11240WAT     H145680   1.755   5.279   7.483  0.9264  0.7902  0.7478
11240WAT     H245681   1.675   5.389   7.504 -1.6746 -0.8683 -0.0519
11240WAT    EPW45682   1.697   5.316   7.522 -0.2686 -0.4138  0.1791
11241WAT      O45683   3.481   4.703   6.262  0.3582 -0.2244  0.4075
11241WAT     H145684   3.440   4.658   6.325  0.4500 -0.4776  0.2871
11241WAT     H245685   3.464   4.786   6.282  1.3284 -0.2534  1.4243
11241WAT    EPW45686   3.472   4.708   6.274  0.5151 -0.2661  0.5399
11242WAT      O45687   2.357   7.627   1.583  0.0319 -0.5934 -0.2652
11242WAT     H145688   2.286   7.662   1.547  0.8913  0.6422 -0.8039
11242WAT     H245689   2.370   7.554   1.537 -0.6502 -0.6164 -0.4252
11242WAT    EPW45690   2.349   7.621   1.571  0.0581 -0.4143 -0.3684
11243WAT      O45691   7.611   2.820   7.408 -0.0266 -0.0186  0.5439
11243WAT     H145692   7.535   2.815   7.451 -0.2459 -1.8106  0.0268
11243WAT     H245693   7.588   2.832   7.325  0.3045  0.7626  0.5607
11243WAT    EPW45694   7.597   2.821   7.402 -0.0101 -0.1679  0.4700
11244WAT      O45695   4.471   1.023   0.245  0.1468  0.7788 -0.0842
11244WAT     H145696   4.542   1.064   0.276  0.0799  0.6119  0.2945
11244WAT     H245697   4.422   1.010   0.316  0.6092 -0.8394 -0.0201
11244WAT    EPW45698   4.474   1.027   0.260  0.2052  0.5151 -0.0188
11245WAT      O45699   1.979   4.480   5.448  0.4196  0.1027  0.0910
11245WAT     H145700   2.044   4.433   5.483 -0.6954 -1.5009  0.1194
11245WAT     H245701   1.986   4.463   5.362  0.3171  0.2979  0.0429
11245WAT    EPW45702   1.990   4.471   5.440  0.2398 -0.1053  0.0881
11246WAT      O45703   3.605   1.779   3.352  0.0275  0.2309 -0.3361
11246WAT     H145704   3.591   1.857   3.387  0.0299  0.1607 -0.1771
11246WAT     H245705   3.567   1.784   3.274 -2.1941 -0.4152  0.6083
11246WAT    EPW45706   3.597   1.791   3.346 -0.3003  0.1251 -0.1731
11247WAT      O45707   7.035   6.856   6.833  0.1726  0.6262  0.0675
11247WAT     H145708   6.971   6.800   6.849  0.4137  1.0230  2.9488
11247WAT     H245709   6.997   6.918   6.785 -1.3297  0.3328  0.8237
11247WAT    EPW45710   7.020   6.857   6.828 -0.0137  0.6415  0.6048
11248WAT      O45711   3.710   0.959   0.504 -0.5731  0.4166  0.4006
11248WAT     H145712   3.762   0.889   0.513  0.1031  0.3281 -2.9406
11248WAT     H245713   3.641   0.927   0.461 -0.2699  1.7376 -1.1515
11248WAT    EPW45714   3.707   0.944   0.499 -0.4284  0.5987 -0.3223
11249WAT      O45715   3.753   6.330   4.117  0.3943 -0.4918 -0.5109
11249WAT     H145716   3.777   6.375   4.187 -0.8026 -1.3301  0.4918
11249WAT     H245717   3.821   6.278   4.101  1.3440  0.8499 -1.0219
11249WAT    EPW45718   3.767   6.329   4.125  0.3578 -0.4174 -0.4383
11250WAT      O45719   3.482   2.936   1.871 -0.0293  0.2958 -0.4167
11250WAT     H145720   3.548   2.878   1.874  0.1645  0.5032  2.9566
11250WAT     H245721   3.488   2.978   1.947 -2.7531  1.8882 -0.9489
11250WAT    EPW45722   3.493   2.934   1.883 -0.4030  0.5617  0.0030
11251WAT      O45723   0.895   5.409   5.311  0.1542  0.4622  0.1245
11251WAT     H145724   0.869   5.492   5.302  0.9893  0.6554 -0.6912
11251WAT     H245725   0.906   5.382   5.229 -1.7140 -1.0072  0.2996
11251WAT    EPW45726   0.893   5.417   5.298  0.0016  0.2737  0.0299
11252WAT      O45727   2.699   1.471   7.129 -0.0692  0.2664 -0.5060
11252WAT     H145728   2.751   1.484   7.061  0.5289 -1.5191 -0.4389
11252WAT     H245729   2.738   1.406   7.173 -0.0386  1.8017  1.9559
11252WAT    EPW45730   2.712   1.463   7.125  0.0237  0.2295 -0.1324
11253WAT      O45731   2.348   2.227   0.653  0.2801  0.1299 -0.0668
11253WAT     H145732   2.291   2.258   0.711  0.8734  1.6309 -0.2421
11253WAT     H245733   2.415   2.283   0.658 -0.2238  1.2315 -3.1878
11253WAT    EPW45734   2.349   2.240   0.662  0.2933  0.5143 -0.5537
11254WAT      O45735   4.200   7.649   2.634  0.6308 -0.1135  0.1130
11254WAT     H145736   4.123   7.662   2.675  1.3578 -0.6697  1.7515
11254WAT     H245737   4.203   7.714   2.577 -1.2457 -0.3062 -0.2862
11254WAT    EPW45738   4.189   7.661   2.632  0.4610 -0.2241  0.2961
11255WAT      O45739   6.105   2.181   7.526  0.3703 -0.2574  0.2546
11255WAT     H145740   6.107   2.181   7.439 -0.5470 -0.0873  0.2206
11255WAT     H245741   6.174   2.229   7.548  0.3436  0.0870 -0.3845
11255WAT    EPW45742   6.116   2.188   7.516  0.2309 -0.1814  0.1552
11256WAT      O45743   3.623   4.136   7.104 -0.2423 -0.1634 -0.2858
11256WAT     H145744   3.656   4.207   7.141  1.0027 -0.6766 -0.3525
11256WAT     H245745   3.647   4.142   7.021  0.1145 -0.7827 -0.2364
11256WAT    EPW45746   3.631   4.147   7.097 -0.0057 -0.3307 -0.2883
11257WAT      O45747   5.885   1.814   0.556 -0.5060 -0.1437 -0.3705
11257WAT     H145748   5.908   1.891   0.590 -0.4285 -0.2726 -0.1240
11257WAT     H245749   5.961   1.773   0.545 -0.5847 -0.4366  0.1207
11257WAT    EPW45750   5.899   1.820   0.559 -0.5061 -0.2060 -0.2615
11258WAT      O45751   1.553   5.530   7.238 -0.3131  0.2701  0.5133
11258WAT     H145752   1.579   5.613   7.245  1.0412 -0.0051 -0.6159
11258WAT     H245753   1.490   5.522   7.298 -1.3568  2.4356 -0.1941
11258WAT    EPW45754   1.548   5.541   7.248 -0.2672  0.5493  0.2420
11259WAT      O45755   2.704   2.910   3.150  0.0271 -0.4332 -0.2576
11259WAT     H145756   2.791   2.919   3.150  0.0407 -0.2636 -1.7364
11259WAT     H245757   2.677   2.963   3.213  0.9759 -0.1550 -0.0762
11259WAT    EPW45758   2.713   2.919   3.159  0.1693 -0.3670 -0.4493
11260WAT      O45759   3.310   0.021   2.773 -0.2367  0.3593  0.1974
11260WAT     H145760   3.313   0.041   2.858  0.4411  1.4097 -0.0461
11260WAT     H245761   3.365   0.078   2.737  0.4375 -0.8800 -0.8097
11260WAT    EPW45762   3.318   0.033   2.780 -0.0370  0.3314  0.0127
11261WAT      O45763   2.939   0.459   1.502  0.5313  0.4732 -0.1271
11261WAT     H145764   2.907   0.530   1.543  0.0788  0.8745 -1.1500
11261WAT     H245765   2.870   0.406   1.496  1.0380 -0.4073  1.3138
11261WAT    EPW45766   2.924   0.462   1.507  0.5393  0.4025 -0.0653
11262WAT      O45767   2.514   2.931   0.631 -0.0120  0.1951  0.4694
11262WAT     H145768   2.437   2.899   0.653 -1.1624  1.7160 -1.0746
11262WAT     H245769   2.567   2.861   0.631 -1.5946 -1.0420  0.5687
11262WAT    EPW45770   2.511   2.916   0.634 -0.4157  0.2371  0.2559
11263WAT      O45771   2.044   1.648   6.669  0.6660 -0.3759 -0.0495
11263WAT     H145772   1.974   1.678   6.627  0.4879  0.4102  0.7798
11263WAT     H245773   2.108   1.703   6.645  0.5731  0.0531  0.6472
11263WAT    EPW45774   2.043   1.661   6.659  0.6260 -0.1964  0.1759
11264WAT      O45775   1.003   4.095   7.399  0.4086 -0.6918 -0.2777
11264WAT     H145776   0.925   4.131   7.414 -0.1404 -1.3464 -1.4798
11264WAT     H245777   1.056   4.138   7.454 -0.8222 -0.3921  0.7289
11264WAT    EPW45778   0.999   4.106   7.410  0.1457 -0.7442 -0.3066
11265WAT      O45779   6.747   4.826   5.547  0.4782  0.5056  0.3206
11265WAT     H145780   6.757   4.769   5.612  0.1894  1.0196  0.8279
11265WAT     H245781   6.823   4.868   5.545  0.4043  0.6461  0.4778
11265WAT    EPW45782   6.759   4.824   5.556  0.4246  0.6023  0.4187
11266WAT      O45783   5.035   5.282   1.628 -0.1570 -0.2559  0.0233
11266WAT     H145784   5.048   5.305   1.545  0.0435 -1.3788 -0.2845
11266WAT     H245785   4.949   5.266   1.631 -0.5544  1.7483  0.5898
11266WAT    EPW45786   5.024   5.283   1.616 -0.1861 -0.1257  0.0615
11267WAT      O45787   1.283   4.644   7.775 -0.4430  0.0258  0.5411
11267WAT     H145788   1.360   4.671   7.746  0.0491 -0.1800  1.6000
11267WAT     H245789   1.236   4.633   7.703  0.7113 -0.4379 -0.1516
11267WAT    EPW45790   1.287   4.647   7.760 -0.1998 -0.0731  0.5952
11268WAT      O45791   2.251   5.688   6.564  0.4419  0.0950 -0.0620
11268WAT     H145792   2.319   5.645   6.597  0.4880  1.6880  2.1234
11268WAT     H245793   2.253   5.667   6.479  1.6201 -2.5362  0.5089
11268WAT    EPW45794   2.261   5.679   6.556  0.6228 -0.0584  0.3452
11269WAT      O45795   2.547   6.837   6.703  0.1503  0.0808  0.1554
11269WAT     H145796   2.631   6.823   6.688  1.1328  4.9429 -0.5202
11269WAT     H245797   2.536   6.812   6.786  2.0160 -1.3535  0.0173
11269WAT    EPW45798   2.558   6.831   6.713  0.5711  0.5872  0.0352
11270WAT      O45799   0.015   5.237   4.795  0.0982 -0.3946 -0.3155
11270WAT     H145800  -0.058   5.238   4.842  0.7151  0.9914  0.6844
11270WAT     H245801   0.046   5.156   4.806  0.3846 -0.0540  2.0180
11270WAT    EPW45802   0.009   5.225   4.804  0.2317 -0.1396  0.1770
11271WAT      O45803   3.568   4.392   0.192 -0.4142  0.3702  0.6876
11271WAT     H145804   3.643   4.383   0.149 -0.4709 -0.6860  0.7844
11271WAT     H245805   3.550   4.477   0.185  0.6252  0.5777  0.3985
11271WAT    EPW45806   3.576   4.403   0.185 -0.2690  0.2448  0.6592
11272WAT      O45807   2.633   3.792   2.955 -0.2944  0.3943  0.0477
11272WAT     H145808   2.691   3.748   2.906  0.0790  0.9860 -0.0575
11272WAT     H245809   2.586   3.836   2.897 -0.1793  0.7085  0.1892
11272WAT    EPW45810   2.635   3.792   2.939 -0.2223  0.5281  0.0531
11273WAT      O45811   6.957   4.557   0.383  0.1352 -0.4126 -0.3097
11273WAT     H145812   7.003   4.601   0.324  2.4330 -2.3288 -0.1095
11273WAT     H245813   6.912   4.499   0.336 -0.0184 -0.2888 -0.3187
11273WAT    EPW45814   6.957   4.555   0.367  0.4519 -0.6774 -0.2815
11274WAT      O45815   3.399   5.415   6.940  0.2733 -0.2633  0.5443
11274WAT     H145816   3.406   5.409   7.027 -2.9795  0.5184  0.9900
11274WAT     H245817   3.370   5.336   6.917 -1.3975  0.2994  0.5901
11274WAT    EPW45818   3.396   5.402   6.950 -0.4540 -0.0647  0.6169
11275WAT      O45819   2.992   1.234   4.084  0.1137 -0.1862  0.1149
11275WAT     H145820   2.993   1.193   4.161 -0.3415  0.7838  0.6628
11275WAT     H245821   2.935   1.299   4.097  1.8938  1.5231 -0.2367
11275WAT    EPW45822   2.984   1.237   4.097  0.3094  0.2096  0.1439
11276WAT      O45823   1.984   4.677   3.382 -0.0417  0.3669  0.3063
11276WAT     H145824   2.040   4.742   3.401  0.2347 -0.2765  1.7988
11276WAT     H245825   2.001   4.661   3.298  0.3277  1.7912  0.0690
11276WAT    EPW45826   1.995   4.685   3.372  0.0537  0.4822  0.4918
11277WAT      O45827   3.098   5.735   6.684 -0.2141  0.3233  0.2455
11277WAT     H145828   3.044   5.666   6.678  0.6450 -0.2570 -1.5830
11277WAT     H245829   3.048   5.802   6.659 -0.5306  0.0472  0.1224
11277WAT    EPW45830   3.082   5.735   6.679 -0.1339  0.1968 -0.0428
11278WAT      O45831   3.566   6.207   2.770  0.2084 -0.4661 -0.4018
11278WAT     H145832   3.502   6.148   2.770  0.0289 -0.2771 -0.0160
11278WAT     H245833   3.524   6.282   2.782  0.4656 -0.2955 -0.5677
11278WAT    EPW45834   3.551   6.209   2.772  0.2199 -0.4129 -0.3693
11279WAT      O45835   2.644   3.866   2.125  0.2109 -0.8488  0.1935
11279WAT     H145836   2.720   3.900   2.097 -0.7096 -0.2253 -1.6882
11279WAT     H245837   2.648   3.783   2.100  0.6240 -1.0645  0.9230
11279WAT    EPW45838   2.656   3.859   2.117  0.1359 -0.7885  0.0233
11280WAT      O45839   0.921   1.263   7.343  0.0542  0.3279 -0.2030
11280WAT     H145840   0.949   1.282   7.262  2.6854  1.6813  0.9061
11280WAT     H245841   0.945   1.332   7.390 -0.4891 -0.8653  1.9577
11280WAT    EPW45842   0.929   1.276   7.338  0.3626  0.3516  0.2800
11281WAT      O45843   1.992   1.989   3.417  0.0700 -0.0628 -0.2077
11281WAT     H145844   1.993   2.071   3.389  2.4778 -0.3398 -1.1696
11281WAT     H245845   2.070   1.980   3.455  0.7273 -2.4335 -1.9090
11281WAT    EPW45846   2.004   2.000   3.419  0.5228 -0.4539 -0.6011
11282WAT      O45847   0.737   0.252   6.754 -0.0449 -0.3151  0.0324
11282WAT     H145848   0.765   0.185   6.706 -1.7919 -0.9863 -0.1310
11282WAT     H245849   0.650   0.241   6.756 -0.3679  1.8238  0.2005
11282WAT    EPW45850   0.728   0.241   6.747 -0.3507 -0.0983  0.0331
11283WAT      O45851   6.168   3.066   3.587 -0.4607 -0.8177  0.0584
11283WAT     H145852   6.224   3.011   3.626 -1.3621 -2.9375 -1.4411
11283WAT     H245853   6.090   3.042   3.619 -0.8869 -0.5454 -0.7413
11283WAT    EPW45854   6.165   3.055   3.597 -0.6568 -1.0907 -0.2812
11284WAT      O45855   1.892   2.257   3.890 -0.2952  0.3332 -0.3630
11284WAT     H145856   1.936   2.313   3.840 -2.1504  1.3928 -0.9133
11284WAT     H245857   1.810   2.286   3.886 -1.6875 -3.1856 -1.8349
11284WAT    EPW45858   1.886   2.270   3.882 -0.7749 -0.0301 -0.6618
11285WAT      O45859   2.901   5.631   1.288 -0.0352  0.3353 -0.0691
11285WAT     H145860   2.940   5.632   1.367  0.1406 -0.8061 -0.1223
11285WAT     H245861   2.819   5.609   1.306 -0.7151  2.6529  0.0308
11285WAT    EPW45862   2.895   5.628   1.303 -0.1097  0.5090 -0.0622
11286WAT      O45863   1.787   6.528   5.137  0.4812  0.2950  0.3462
11286WAT     H145864   1.735   6.508   5.204 -0.7512  0.0801 -0.6293
11286WAT     H245865   1.821   6.604   5.159  1.8064 -0.7540  2.1722
11286WAT    EPW45866   1.784   6.536   5.150  0.4949  0.1083  0.4719
11287WAT      O45867   1.444   5.227   3.166  0.4380 -0.2534 -0.1987
11287WAT     H145868   1.379   5.180   3.201  0.1477 -0.1771 -0.6303
11287WAT     H245869   1.507   5.168   3.153  0.3153 -0.4005 -0.1259
11287WAT    EPW45870   1.443   5.211   3.169  0.3770 -0.2639 -0.2517
11288WAT      O45871   1.856   6.257   2.242  0.7067 -0.2942  0.3067
11288WAT     H145872   1.826   6.265   2.323 -1.0463  1.7707 -0.4461
11288WAT     H245873   1.942   6.267   2.251  0.4672  0.6924  1.8252
11288WAT    EPW45874   1.864   6.260   2.255  0.4123  0.1566  0.4198
11289WAT      O45875   2.234   2.941   3.432 -0.7368 -0.0352  0.1083
11289WAT     H145876   2.303   2.887   3.432  0.2555  1.1857 -0.0760
11289WAT     H245877   2.201   2.933   3.352 -0.9542 -0.7876  0.2662
11289WAT    EPW45878   2.239   2.932   3.420 -0.6224  0.0340  0.1044
11290WAT      O45879   4.368   4.691   3.239  0.0095  0.0979 -0.1186
11290WAT     H145880   4.316   4.723   3.301  1.0849  0.7040  0.5052
11290WAT     H245881   4.324   4.622   3.207 -0.9519  0.3325  0.6890
11290WAT    EPW45882   4.354   4.685   3.243  0.0264  0.2221  0.0929
11291WAT      O45883   0.635   7.007   5.875 -0.1320 -0.4270  0.4305
11291WAT     H145884   0.559   6.976   5.905 -0.2953 -0.3617  0.0843
11291WAT     H245885   0.658   6.949   5.815  0.0811 -0.4307  0.5150
11291WAT    EPW45886   0.627   6.994   5.871 -0.1246 -0.4179  0.3919
11292WAT      O45887   6.935   2.714   3.997 -0.0591 -0.0712  0.2355
11292WAT     H145888   7.010   2.754   4.018  0.1736 -0.3991  0.0363
11292WAT     H245889   6.874   2.769   4.026  0.2567  0.0040  0.7690
11292WAT    EPW45890   6.937   2.728   4.004  0.0219 -0.1085  0.2849
11293WAT      O45891   7.746   7.318   7.406 -0.0943  0.2777 -0.2977
11293WAT     H145892   7.691   7.358   7.460 -2.4290 -1.1112 -1.4684
11293WAT     H245893   7.772   7.381   7.352 -2.2511  0.6471 -1.0032
11293WAT    EPW45894   7.741   7.333   7.406 -0.7578  0.1271 -0.5748
11294WAT      O45895   3.061   6.979   0.973 -0.0252  0.1290 -0.3645
11294WAT     H145896   3.102   6.904   0.953 -1.5601 -0.8465 -0.0614
11294WAT     H245897   3.052   7.018   0.896  1.2076  0.2469 -0.4672
11294WAT    EPW45898   3.066   6.974   0.959 -0.0698  0.0023 -0.3349
11295WAT      O45899   1.988   0.856   1.015 -0.3946  0.2294  0.0244
11295WAT     H145900   1.902   0.862   0.998 -0.3063  1.5136 -0.0460
11295WAT     H245901   2.025   0.894   0.945  0.2303 -0.1485  0.1465
11295WAT    EPW45902   1.981   0.862   1.002 -0.2893  0.3633  0.0320
11296WAT      O45903   0.105   3.552   4.013 -0.2257  0.1429  0.5706
11296WAT     H145904   0.169   3.561   3.955 -0.0942  1.6648  0.9225
11296WAT     H245905   0.111   3.468   4.037  0.0517 -0.3768 -1.1895
11296WAT    EPW45906   0.115   3.541   4.008 -0.1653  0.2910  0.3625
11297WAT      O45907   0.979   2.638   6.944  0.0080  0.1053 -0.1178
11297WAT     H145908   0.979   2.704   7.001 -0.9973  0.0148  0.0138
11297WAT     H245909   1.060   2.637   6.913  0.1688  1.0868  0.2388
11297WAT    EPW45910   0.991   2.647   6.948 -0.1167  0.2369 -0.0457
11298WAT      O45911   4.869   7.465   0.054 -0.3142  0.7142  0.0111
11298WAT     H145912   4.937   7.517   0.040 -1.3313  1.7028 -1.7305
11298WAT     H245913   4.851   7.476   0.138 -0.4183  3.2142 -0.2597
11298WAT    EPW45914   4.876   7.474   0.064 -0.4799  1.2296 -0.2862
11299WAT      O45915   2.554   0.354   7.582 -0.2671  0.0717  0.5322
11299WAT     H145916   2.641   0.354   7.587 -0.3260  0.3982  1.6076
11299WAT     H245917   2.528   0.402   7.650 -1.2723  0.6537 -0.2295
11299WAT    EPW45918   2.563   0.361   7.593 -0.4243  0.2059  0.5786
11300WAT      O45919   5.779   2.611   7.838  0.0997 -0.1416 -0.2375
11300WAT     H145920   5.833   2.556   7.878  0.0529 -0.9896 -1.3136
11300WAT     H245921   5.779   2.681   7.890  0.4936 -0.9809  0.9292
11300WAT    EPW45922   5.787   2.613   7.852  0.1510 -0.3908 -0.2241
11301WAT      O45923   3.465   5.948   6.097  0.2545  0.1344 -0.1030
11301WAT     H145924   3.538   5.942   6.050  0.0900 -2.8930 -0.1330
11301WAT     H245925   3.402   5.926   6.041 -0.3376 -0.3007  0.7098
11301WAT    EPW45926   3.467   5.944   6.082  0.1427 -0.3771  0.0126
11302WAT      O45927   3.400   1.828   6.996  0.6726 -0.3915  0.2824
11302WAT     H145928   3.342   1.799   6.938  0.8305 -1.5596  0.6980
11302WAT     H245929   3.395   1.915   6.987  0.9684 -0.5249 -1.7435
11302WAT    EPW45930   3.391   1.837   6.986  0.7396 -0.5837  0.0445
11303WAT      O45931   7.443   0.407   4.523  0.6662  0.6287  0.0214
11303WAT     H145932   7.438   0.485   4.484  1.4685  0.7534  0.1638
11303WAT     H245933   7.362   0.395   4.555  0.0243  0.5859 -1.5396
11303WAT    EPW45934   7.430   0.416   4.522  0.6899  0.6408 -0.1882
11304WAT      O45935   5.043   4.667   1.224 -0.3768 -0.2503  0.8186
11304WAT     H145936   5.013   4.740   1.260  1.9533  1.1801  0.1144
11304WAT     H245937   5.087   4.628   1.289  0.0757  0.0419  0.6950
11304WAT    EPW45938   5.045   4.672   1.239  0.0342  0.0042  0.6963
11305WAT      O45939   4.173   4.192   6.733 -0.1962  0.1569  0.2932
11305WAT     H145940   4.255   4.216   6.753 -0.6935  0.7148  1.7177
11305WAT     H245941   4.130   4.196   6.808 -1.1689 -1.8341 -0.0810
11305WAT    EPW45942   4.179   4.197   6.747 -0.4133 -0.0548  0.4484
11306WAT      O45943   2.693   7.501   1.371  0.2913 -0.5619 -0.6644
11306WAT     H145944   2.700   7.551   1.442  1.4775 -1.4044 -0.1440
11306WAT     H245945   2.659   7.554   1.311  3.0684  1.4066 -0.6644
11306WAT    EPW45946   2.689   7.516   1.372  0.8768 -0.3956 -0.5875
11307WAT      O45947   1.613   2.741   1.048 -0.0390 -0.2680 -0.8521
11307WAT     H145948   1.571   2.669   1.072  0.3599 -1.3230 -3.0618
11307WAT     H245949   1.548   2.795   1.025 -0.3350 -1.5774 -3.4166
11307WAT    EPW45950   1.597   2.738   1.048 -0.0238 -0.6173 -1.5574
11308WAT      O45951   1.455   6.583   0.632 -0.7378 -0.1420 -0.4858
11308WAT     H145952   1.408   6.646   0.594  0.1617  1.5432  1.0856
11308WAT     H245953   1.516   6.565   0.572 -1.5464 -0.2357 -1.3194
11308WAT    EPW45954   1.457   6.590   0.617 -0.7244  0.0931 -0.3768
11309WAT      O45955   6.405   3.430   3.370 -0.0929 -0.3062  0.2513
11309WAT     H145956   6.383   3.478   3.301 -0.5255 -0.2511  0.4258
11309WAT     H245957   6.338   3.374   3.379 -0.0162 -0.3470  0.5953
11309WAT    EPW45958   6.392   3.429   3.361 -0.1455 -0.3040  0.3279
11310WAT      O45959   4.766   1.664   0.728 -0.2802  0.1533  0.0086
11310WAT     H145960   4.795   1.726   0.782  0.6055 -1.1493  1.1086
11310WAT     H245961   4.719   1.612   0.780 -0.1367 -0.6619 -0.6544
11310WAT    EPW45962   4.764   1.666   0.744 -0.1282 -0.1596  0.0732
11311WAT      O45963   5.399   4.346   1.375  0.3353  0.8492 -0.7082
11311WAT     H145964   5.416   4.408   1.316  0.3980  0.9779 -0.5559
11311WAT     H245965   5.446   4.370   1.445  2.4300 -0.7283 -1.4736
11311WAT    EPW45966   5.408   4.359   1.377  0.6540  0.6352 -0.7987
11312WAT      O45967   4.308   3.781   7.500  0.1734  0.3519 -0.0892
11312WAT     H145968   4.304   3.779   7.413 -0.8918  0.3785 -0.0541
11312WAT     H245969   4.340   3.860   7.518  0.8520  0.1654 -0.4621
11312WAT    EPW45970   4.312   3.793   7.490  0.1163  0.3283 -0.1391
11313WAT      O45971   7.074   3.141   7.282 -0.2444  0.0443 -0.4697
11313WAT     H145972   7.153   3.116   7.308 -0.2695  0.3918 -0.0641
11313WAT     H245973   7.091   3.191   7.212 -0.1901 -1.0202 -1.2560
11313WAT    EPW45974   7.088   3.145   7.275 -0.2401 -0.0616 -0.5259
11314WAT      O45975   0.752   7.211   6.018 -0.0706 -0.8904  0.0656
11314WAT     H145976   0.811   7.167   6.065  0.4993 -0.2748 -0.0640
11314WAT     H245977   0.721   7.151   5.963 -0.0697 -1.3919  0.6002
11314WAT    EPW45978   0.756   7.195   6.017  0.0137 -0.8736  0.1255
11315WAT      O45979   1.592   6.472   5.358 -0.3185 -0.1578 -0.7747
11315WAT     H145980   1.595   6.529   5.424 -1.7329 -0.2312 -0.6078
11315WAT     H245981   1.657   6.417   5.375 -0.8302 -0.3428  0.7465
11315WAT    EPW45982   1.602   6.472   5.370 -0.6030 -0.1960 -0.5254
11316WAT      O45983   3.734   4.960   6.490 -0.2857 -0.3437 -0.7827
11316WAT     H145984   3.731   5.016   6.423  1.4295  0.2403 -0.4396
11316WAT     H245985   3.703   5.007   6.557  1.9422  0.5805 -0.3098
11316WAT    EPW45986   3.729   4.975   6.490  0.2968 -0.1209 -0.6621
11317WAT      O45987   2.571   4.014   3.332 -0.3491 -0.0869  0.1185
11317WAT     H145988   2.581   4.090   3.375 -0.0285  2.1469 -3.5001
11317WAT     H245989   2.653   3.984   3.325 -0.1533  0.6058 -0.6495
11317WAT    EPW45990   2.585   4.021   3.338 -0.2728  0.3454 -0.5295
11318WAT      O45991   2.289   3.459   0.437 -0.0431  0.5246 -0.3865
11318WAT     H145992   2.279   3.383   0.477  1.2108  0.3735 -0.3141
11318WAT     H245993   2.230   3.511   0.475 -2.4756 -0.9347 -1.9405
11318WAT    EPW45994   2.279   3.456   0.448 -0.2172  0.2867 -0.6054
11319WAT      O45995   7.375   2.364   4.178  0.5866  0.1162 -0.3135
11319WAT     H145996   7.434   2.429   4.182 -0.2683  0.9169 -0.1722
11319WAT     H245997   7.301   2.404   4.201 -0.2783 -0.5217 -1.8661
11319WAT    EPW45998   7.373   2.380   4.182  0.3326  0.1402 -0.5220
11320WAT      O45999   7.071   7.214   6.395 -0.8959 -0.4689 -0.3291
11320WAT     H146000   7.071   7.270   6.328 -0.1302 -0.1633 -0.0916
11320WAT     H246001   7.111   7.143   6.363  1.5992  0.5004  0.4090
11320WAT    EPW46002   7.077   7.212   6.381 -0.4142 -0.2806 -0.1850
11321WAT      O46003   6.767   6.284   6.405 -0.2455 -0.1005  0.3308
11321WAT     H146004   6.835   6.236   6.432  0.9935  1.4652  0.1707
11321WAT     H246005   6.798   6.323   6.333 -1.0654  1.2177  0.6644
11321WAT    EPW46006   6.782   6.282   6.398 -0.1836  0.3255  0.3564
11322WAT      O46007   1.631   5.400   1.833  0.1297  0.2918  0.0341
11322WAT     H146008   1.655   5.317   1.843  0.0856  0.3173  0.3664
11322WAT     H246009   1.683   5.429   1.768  2.6969  0.9832  2.1829
11322WAT    EPW46010   1.642   5.392   1.825  0.5024  0.3977  0.4006
11323WAT      O46011   1.520   6.263   6.150  0.3833  0.3434  0.1644
11323WAT     H146012   1.544   6.189   6.188 -0.0835  0.1880  0.1687
11323WAT     H246013   1.567   6.266   6.077  0.3429  0.0046  0.1273
11323WAT    EPW46014   1.530   6.253   6.145  0.3084  0.2704  0.1595
11324WAT      O46015   6.428   0.723   7.086  0.1367  0.2046 -0.2684
11324WAT     H146016   6.485   0.673   7.042  0.8816  0.2329  0.6393
11324WAT     H246017   6.434   0.694   7.168  0.1893  1.4336  0.1797
11324WAT    EPW46018   6.437   0.711   7.091  0.2545  0.3903 -0.0681
11325WAT      O46019   4.900   1.568   3.224  0.3866  0.3372 -0.0584
11325WAT     H146020   4.982   1.537   3.222  0.4658  0.5493 -1.6935
11325WAT     H246021   4.877   1.561   3.308  1.8889 -0.2236  0.3354
11325WAT    EPW46022   4.909   1.562   3.236  0.6202  0.2857 -0.2417
11326WAT      O46023   0.749   3.531   7.819  1.0097  0.1096 -0.0986
11326WAT     H146024   0.704   3.497   7.753  1.8818 -1.0638 -0.1247
11326WAT     H246025   0.745   3.617   7.806 -1.9034  0.1235  0.3704
11326WAT    EPW46026   0.742   3.538   7.808  0.7082 -0.0617 -0.0332
11327WAT      O46027   2.539   4.260   6.595 -0.5597  0.2110  0.2685
11327WAT     H146028   2.553   4.182   6.559 -1.1786 -0.4809  1.4483
11327WAT     H246029   2.591   4.313   6.551  0.6425 -1.0580  0.1009
11327WAT    EPW46030   2.548   4.256   6.583 -0.4735 -0.0786  0.4180
11328WAT      O46031   1.545   2.392   7.606 -0.7195 -0.4143 -0.4605
11328WAT     H146032   1.482   2.334   7.617  1.6908 -2.8967  1.5424
11328WAT     H246033   1.599   2.353   7.550  0.4101  0.3531  0.0543
11328WAT    EPW46034   1.544   2.378   7.599 -0.1966 -0.6676 -0.0886
11329WAT      O46035   4.142   7.416   2.339 -0.3135  0.2400  0.3317
11329WAT     H146036   4.224   7.448   2.340  0.1643 -0.7308 -1.8540
11329WAT     H246037   4.153   7.333   2.364 -0.8198  0.4071  1.1296
11329WAT    EPW46038   4.156   7.409   2.343 -0.3177  0.1213  0.1267
11330WAT      O46039   1.519   4.952   6.249 -0.0498 -0.1460 -0.2916
11330WAT     H146040   1.506   5.005   6.317 -0.1034  1.4960 -1.5127
11330WAT     H246041   1.605   4.940   6.248 -0.0393 -0.1118 -0.0003
11330WAT    EPW46042   1.530   4.958   6.259 -0.0561  0.1016 -0.4289
11331WAT      O46043   2.397   3.998   3.953 -0.5201 -0.7081 -0.0471
11331WAT     H146044   2.406   4.028   3.872 -1.3431  0.4624  0.2731
11331WAT     H246045   2.467   4.030   3.995  0.1031 -1.6202 -0.3600
11331WAT    EPW46046   2.409   4.007   3.948 -0.5496 -0.6700 -0.0460
11332WAT      O46047   4.578   4.571   2.172 -0.7960  0.1944 -0.4227
11332WAT     H146048   4.527   4.640   2.188 -2.0120 -1.0453  1.4571
11332WAT     H246049   4.594   4.539   2.252  1.4910 -0.5129 -1.0883
11332WAT    EPW46050   4.573   4.577   2.186 -0.6378 -0.0932 -0.2433
11333WAT      O46051   1.101   6.658   3.394 -0.1561  0.1704  0.6350
11333WAT     H146052   1.135   6.578   3.392 -1.2817 -0.3164 -0.3322
11333WAT     H246053   1.054   6.659   3.467  0.8798  0.4276  1.3302
11333WAT    EPW46054   1.099   6.647   3.404 -0.1694  0.1365  0.5948
11334WAT      O46055   2.593   4.253   3.062  0.1375  0.2387  1.0173
11334WAT     H146056   2.611   4.314   3.122  2.6543  0.6745 -0.0519
11334WAT     H246057   2.586   4.179   3.109  0.9424  0.7408  1.9557
11334WAT    EPW46058   2.594   4.251   3.078  0.6282  0.3772  0.9980
11335WAT      O46059   1.718   3.252   0.571 -0.3789  0.0516  0.3196
11335WAT     H146060   1.775   3.244   0.507  0.5086  2.0025  0.7860
11335WAT     H246061   1.651   3.293   0.534 -0.7519 -0.6537  0.1904
11335WAT    EPW46062   1.716   3.257   0.556 -0.3029  0.2356  0.3694
11336WAT      O46063   1.498   3.696   5.133  0.2450  0.2421  0.4018
11336WAT     H146064   1.563   3.750   5.155  2.0221 -1.0661 -1.2569
11336WAT     H246065   1.538   3.633   5.088 -1.8792 -1.8671  1.2154
11336WAT    EPW46066   1.513   3.694   5.130  0.1938 -0.2627  0.2770
11337WAT      O46067   2.592   4.335   3.757 -1.1118  0.1353  0.2083
11337WAT     H146068   2.619   4.289   3.826  1.2915  0.3603 -0.4572
11337WAT     H246069   2.534   4.390   3.790  0.5912  0.8433  2.2964
11337WAT    EPW46070   2.588   4.337   3.772 -0.5052  0.2731  0.4184
11338WAT      O46071   1.366   5.148   1.981 -0.0197  0.2902  0.2359
11338WAT     H146072   1.423   5.163   2.045 -2.1389  0.5916  2.1689
11338WAT     H246073   1.383   5.066   1.956  1.0110  0.2658  0.9953
11338WAT    EPW46074   1.377   5.138   1.987 -0.1805  0.3311  0.6336
11339WAT      O46075   1.923   3.359   6.885 -0.0270  0.4083 -0.0342
11339WAT     H146076   1.863   3.301   6.863 -0.1502  0.6579 -0.3660
11339WAT     H246077   1.939   3.402   6.811  1.4006 -0.4099 -0.2510
11339WAT    EPW46078   1.917   3.357   6.871  0.1657  0.3243 -0.1152
11340WAT      O46079   3.157   0.986   0.132 -0.0834 -0.3788  0.9547
11340WAT     H146080   3.218   0.927   0.109  0.5817  0.5353  0.2949
11340WAT     H246081   3.090   0.967   0.079 -0.7448 -1.9299  2.2613
11340WAT    EPW46082   3.156   0.974   0.120 -0.0829 -0.4729  1.0502
11341WAT      O46083   2.566   1.650   4.461  0.1050 -0.4044  0.0535
11341WAT     H146084   2.651   1.668   4.463 -0.1557  0.9814  3.0227
11341WAT     H246085   2.528   1.728   4.461 -1.2101 -1.0040 -0.3038
11341WAT    EPW46086   2.573   1.664   4.461 -0.1278 -0.2882  0.4393
11342WAT      O46087   1.643   1.019   6.844 -1.0263  0.3633  0.1658
11342WAT     H146088   1.576   1.074   6.854  0.7639  2.6387  0.8672
11342WAT     H246089   1.671   1.035   6.763  0.8884  2.3661  1.1111
11342WAT    EPW46090   1.637   1.030   6.834 -0.4790  0.9953  0.4091
11343WAT      O46091   2.469   2.322   6.034 -0.0947 -0.3373 -0.1568
11343WAT     H146092   2.427   2.334   5.958 -0.9033  0.2256  0.3671
11343WAT     H246093   2.540   2.372   6.026  0.4064 -1.1499 -0.9786
11343WAT    EPW46094   2.473   2.331   6.022 -0.1401 -0.3742 -0.2008
11344WAT      O46095   2.477   6.947   2.248 -0.8743 -0.6215 -0.2273
11344WAT     H146096   2.511   6.964   2.170  1.2804 -3.1569  0.0078
11344WAT     H246097   2.449   6.865   2.240 -1.6815 -0.5301  1.3369
11344WAT    EPW46098   2.478   6.937   2.236 -0.6752 -0.9826  0.0385
11345WAT      O46099   2.041   2.414   3.708  0.3639  0.1009  0.0860
11345WAT     H146100   2.076   2.493   3.722 -0.7913  0.8307 -0.9086
11345WAT     H246101   2.110   2.360   3.710  1.2747  1.2232  0.0681
11345WAT    EPW46102   2.057   2.418   3.710  0.3278  0.3745 -0.0635
11346WAT      O46103   3.479   0.396   7.773 -0.2071  0.4709 -0.3140
11346WAT     H146104   3.553   0.382   7.816  0.2583  1.8434 -0.6390
11346WAT     H246105   3.504   0.407   7.690 -0.7878  0.8142 -0.4510
11346WAT    EPW46106   3.494   0.396   7.767 -0.2241  0.7243 -0.3822
11347WAT      O46107   7.506   2.882   4.378 -0.4258  0.0798  0.0958
11347WAT     H146108   7.437   2.830   4.367  0.1838 -0.7560  0.1568
11347WAT     H246109   7.534   2.862   4.458 -0.6486  1.0821  0.4412
11347WAT    EPW46110   7.500   2.872   4.388 -0.3687  0.1044  0.1559
11348WAT      O46111   1.329   1.943   6.574 -0.0183 -0.3489  0.1996
11348WAT     H146112   1.261   1.889   6.583 -0.0305 -0.1604  1.4870
11348WAT     H246113   1.343   1.972   6.656  0.9310  0.4375 -0.2186
11348WAT    EPW46114   1.321   1.939   6.588  0.1202 -0.2049  0.3280
11349WAT      O46115   1.294   3.082   7.655  0.0783  0.0804 -0.3619
11349WAT     H146116   1.352   3.024   7.624  0.9211 -0.4725  2.0156
11349WAT     H246117   1.334   3.158   7.644  1.1474 -0.2654  0.9189
11349WAT    EPW46118   1.308   3.084   7.648  0.3607 -0.0523  0.1785
11350WAT      O46119   3.548   3.534   7.323 -0.0871 -0.0823 -0.4693
11350WAT     H146120   3.622   3.495   7.347  1.1130  2.7423  0.8280
11350WAT     H246121   3.507   3.548   7.398  0.1167  2.1215 -0.7056
11350WAT    EPW46122   3.553   3.531   7.338  0.1203  0.6605 -0.3125
11351WAT      O46123   0.532   2.547   6.028 -0.0044 -0.2350  0.2628
11351WAT     H146124   0.455   2.561   6.068 -0.5939 -2.2563 -0.0601
11351WAT     H246125   0.588   2.535   6.094  0.0738  1.2919  0.5020
11351WAT    EPW46126   0.529   2.547   6.043 -0.0799 -0.3080  0.2505
11352WAT      O46127   6.788   0.296   7.543 -0.1289  0.3830  0.2431
11352WAT     H146128   6.779   0.231   7.485 -0.2829 -0.3472  1.0557
11352WAT     H246129   6.789   0.254   7.620 -0.7332  1.3996  0.8170
11352WAT    EPW46130   6.787   0.280   7.546 -0.2409  0.4253  0.4479
11353WAT      O46131   5.707   1.778   6.297 -0.3534  0.4236  0.5386
11353WAT     H146132   5.780   1.801   6.256  0.0563 -0.9631  0.4220
11353WAT     H246133   5.717   1.812   6.377 -0.0483  1.1074  0.2102
11353WAT    EPW46134   5.719   1.786   6.303 -0.2478  0.3198  0.4728
11354WAT      O46135   2.816   4.434   5.689 -0.3201 -0.1183  0.0321
11354WAT     H146136   2.752   4.491   5.704 -0.6231 -0.1325 -1.1493
11354WAT     H246137   2.775   4.361   5.668  0.0529 -1.0188  2.1789
11354WAT    EPW46138   2.801   4.432   5.688 -0.3097 -0.2534  0.1747
11355WAT      O46139   1.718   5.068   5.178 -0.3146  0.7655 -0.5103
11355WAT     H146140   1.640   5.046   5.210 -0.7203 -0.1961 -2.0549
11355WAT     H246141   1.762   4.993   5.176  0.0522  0.9853 -1.2244
11355WAT    EPW46142   1.713   5.054   5.183 -0.3204  0.6559 -0.8440
11356WAT      O46143   2.007   1.572   1.433  0.3299 -0.1115  0.5936
11356WAT     H146144   1.972   1.497   1.459  1.3102 -0.2804  1.4827
11356WAT     H246145   1.944   1.630   1.449  0.1621 -0.5172  1.4738
11356WAT    EPW46146   1.993   1.570   1.439  0.4499 -0.1964  0.8550
11357WAT      O46147   4.804   5.702   1.829  0.0955  0.7482 -0.2308
11357WAT     H146148   4.875   5.656   1.804  0.7308  3.2137 -3.8246
11357WAT     H246149   4.835   5.783   1.838 -1.5872  1.1888  2.4587
11357WAT    EPW46150   4.819   5.707   1.826 -0.0592  1.1775 -0.3644
11358WAT      O46151   1.832   4.061   6.388  0.5071  0.2619  0.1900
11358WAT     H146152   1.832   4.138   6.430  1.0699  0.0945  0.5063
11358WAT     H246153   1.795   4.007   6.445 -0.2695  0.3773 -0.1948
11358WAT    EPW46154   1.827   4.064   6.402  0.4755  0.2542  0.1798
11359WAT      O46155   6.385   3.115   0.378  0.1963 -0.1619 -0.0132
11359WAT     H146156   6.464   3.087   0.404  0.4943 -1.8658 -2.4084
11359WAT     H246157   6.402   3.193   0.343  1.4211 -1.5167 -2.7573
11359WAT    EPW46158   6.399   3.122   0.377  0.4212 -0.6138 -0.7724
11360WAT      O46159   5.075   5.469   7.641  0.6442 -0.0595  0.1169
11360WAT     H146160   4.989   5.465   7.651  0.6446  1.7561  1.2702
11360WAT     H246161   5.085   5.517   7.569  0.7430 -2.4169 -1.5552
11360WAT    EPW46162   5.064   5.476   7.632  0.6589 -0.1396  0.0403
11361WAT      O46163   7.015   3.171   4.655  0.1035 -0.0970  0.6222
11361WAT     H146164   6.933   3.157   4.681  0.7401 -0.8283  2.3153
11361WAT     H246165   7.058   3.190   4.729  1.8365 -1.4830  0.0452
11361WAT    EPW46166   7.009   3.172   4.670  0.4535 -0.4098  0.7871
11362WAT      O46167   1.945   3.106   2.185 -0.6063 -0.4308 -0.0947
11362WAT     H146168   1.999   3.148   2.240 -0.8956  0.8582 -0.7484
11362WAT     H246169   1.934   3.028   2.223 -1.2007  0.5644  1.9684
11362WAT    EPW46170   1.951   3.101   2.199 -0.7369 -0.0934  0.1135
11363WAT      O46171   7.043   5.159   3.839 -0.3914 -0.4384  0.0199
11363WAT     H146172   6.984   5.097   3.856 -0.0414 -0.6761  0.3697
11363WAT     H246173   7.100   5.152   3.904 -0.6396  0.6122  0.3583
11363WAT    EPW46174   7.042   5.149   3.851 -0.3764 -0.3183  0.1216
11364WAT      O46175   4.065   1.337   1.719 -0.1412 -0.2644 -0.3441
11364WAT     H146176   3.997   1.387   1.696  0.2673  2.1902  2.9964
11364WAT     H246177   4.131   1.394   1.723  0.6775 -1.2468  2.3305
11364WAT    EPW46178   4.064   1.353   1.716  0.0401 -0.0469  0.5445
11365WAT      O46179   1.619   5.795   3.900  0.1198 -0.3533  0.2828
11365WAT     H146180   1.559   5.857   3.912  0.1199 -0.5494  1.3734
11365WAT     H246181   1.573   5.728   3.867 -0.1267 -0.2420  0.3950
11365WAT    EPW46182   1.603   5.794   3.897  0.0834 -0.3658  0.4605
11366WAT      O46183   4.327   4.913   3.050 -0.4234  0.3507  0.0768
11366WAT     H146184   4.346   4.828   3.038  1.9858  0.7117  0.9666
11366WAT     H246185   4.292   4.914   3.130 -0.8106  0.1709 -0.0843
11366WAT    EPW46186   4.324   4.900   3.060 -0.1247  0.3774  0.1844
11367WAT      O46187   3.525   6.272   0.498 -0.1837  0.1036  0.5594
11367WAT     H146188   3.491   6.328   0.556  0.5366 -0.6845  1.7883
11367WAT     H246189   3.455   6.242   0.455 -0.7753  0.5014  1.2246
11367WAT    EPW46190   3.509   6.276   0.500 -0.1647  0.0459  0.8392
11368WAT      O46191   2.055   0.595   1.033 -0.5304 -0.1616  0.2481
11368WAT     H146192   2.033   0.680   1.030 -1.5580 -0.4308 -0.1863
11368WAT     H246193   2.081   0.578   0.951 -0.9890 -0.4322  0.1563
11368WAT    EPW46194   2.056   0.605   1.020 -0.7499 -0.2413  0.1703
11369WAT      O46195   2.184   3.684   1.721  0.2578  0.0909  0.8931
11369WAT     H146196   2.166   3.609   1.763  0.6435 -0.3935  0.2111
11369WAT     H246197   2.176   3.744   1.784  0.4747 -0.5790  1.5862
11369WAT    EPW46198   2.180   3.681   1.737  0.3468 -0.0796  0.8948
11370WAT      O46199   2.146   4.184   4.962 -0.3578  0.0636 -0.2276
11370WAT     H146200   2.185   4.126   4.909  1.4794  2.2152 -1.4547
11370WAT     H246201   2.174   4.162   5.041  1.0238 -0.2412 -0.7671
11370WAT    EPW46202   2.156   4.172   4.966  0.1177  0.3364 -0.4886
11371WAT      O46203   2.302   5.310   2.761 -0.4350 -0.1189 -0.4382
11371WAT     H146204   2.370   5.357   2.735 -1.1389  1.1360 -0.1044
11371WAT     H246205   2.253   5.367   2.806 -0.9074 -1.3710  0.7401
11371WAT    EPW46206   2.304   5.325   2.764 -0.6088 -0.1185 -0.2148
11372WAT      O46207   0.775   4.853   6.678 -0.0703 -0.0298 -1.2651
11372WAT     H146208   0.705   4.818   6.640 -0.3888  1.1215 -1.7849
11372WAT     H246209   0.783   4.808   6.753 -1.2877 -0.2579 -1.2556
11372WAT    EPW46210   0.766   4.841   6.684 -0.2972  0.1066 -1.3405
11373WAT      O46211   0.193   6.782   4.027  0.1907  0.0401 -0.8704
11373WAT     H146212   0.231   6.750   3.955  0.3399  1.3465 -1.3921
11373WAT     H246213   0.260   6.808   4.076  0.0434  0.2191 -0.7646
11373WAT    EPW46214   0.209   6.781   4.024  0.1910  0.2595 -0.9319
11374WAT      O46215   4.448   1.482   1.094  0.5436  0.0942  0.5245
11374WAT     H146216   4.520   1.473   1.045  0.2936  0.1661  0.1390
11374WAT     H246217   4.476   1.467   1.175  1.2624  1.3580  0.5466
11374WAT    EPW46218   4.463   1.479   1.099  0.6128  0.2915  0.4708
11375WAT      O46219   0.998   2.778   6.335  0.0938  0.2780  0.0540
11375WAT     H146220   0.920   2.785   6.374  0.1969 -0.6094  0.4447
11375WAT     H246221   1.053   2.763   6.401  0.1838 -1.8952 -0.4233
11375WAT    EPW46222   0.995   2.777   6.350  0.1223 -0.1741  0.0412
11376WAT      O46223   0.717   2.189   4.023  0.1118 -0.1530  0.2831
11376WAT     H146224   0.750   2.270   4.013  2.7252 -1.3389 -1.7124
11376WAT     H246225   0.766   2.155   4.087  1.1130 -1.0727 -0.9189
11376WAT    EPW46226   0.729   2.196   4.031  0.6457 -0.4641 -0.1893
11377WAT      O46227   6.742   7.292   6.110 -0.2687  0.0226 -0.9949
11377WAT     H146228   6.732   7.350   6.045 -1.4919  1.7608  0.6421
11377WAT     H246229   6.827   7.297   6.128 -0.2425  0.8713 -1.2916
11377WAT    EPW46230   6.753   7.301   6.103 -0.4455  0.4047 -0.7969
11378WAT      O46231   5.472   4.802   3.942 -0.4884 -0.0461 -0.5482
11378WAT     H146232   5.401   4.776   3.985  1.0715 -0.5263  1.9465
11378WAT     H246233   5.515   4.728   3.926  0.3688  0.3833 -0.2775
11378WAT    EPW46234   5.468   4.787   3.946 -0.1314 -0.0536 -0.1397
11379WAT      O46235   6.212   7.583   0.097  0.4826  0.3335 -0.7739
11379WAT     H146236   6.141   7.610   0.140 -0.2752  0.4949 -2.0859
11379WAT     H246237   6.272   7.643   0.118  0.2973  0.1261  0.4464
11379WAT    EPW46238   6.210   7.596   0.106  0.3433  0.3267 -0.7874
11380WAT      O46239   2.153   7.448   3.124 -0.4349  0.1115  0.1590
11380WAT     H146240   2.118   7.527   3.139  0.0117  0.5481 -0.9960
11380WAT     H246241   2.084   7.396   3.120 -0.8208  0.6435 -0.2266
11380WAT    EPW46242   2.138   7.452   3.126 -0.4259  0.2546 -0.0686
11381WAT      O46243   0.047   1.915   5.137  0.0906  0.4246  0.0880
11381WAT     H146244   0.070   1.960   5.066  0.5768  0.5131  0.2981
11381WAT     H246245   0.018   1.840   5.105  2.8527 -0.6815 -0.1468
11381WAT    EPW46246   0.046   1.910   5.122  0.5704  0.2743  0.0844
11382WAT      O46247   4.545   2.422   7.773  0.5502  0.1382  0.5729
11382WAT     H146248   4.519   2.473   7.840  0.8180 -0.3777  1.0705
11382WAT     H246249   4.478   2.367   7.763  1.6758 -1.6225  2.2886
11382WAT    EPW46250   4.531   2.422   7.781  0.7560 -0.1981  0.8998
11383WAT      O46251   3.034   1.116   6.124 -0.4042  0.1482  0.4481
11383WAT     H146252   3.052   1.124   6.039 -0.4510 -0.8703  0.3265
11383WAT     H246253   3.030   1.198   6.152 -0.3612  0.4982 -0.5306
11383WAT    EPW46254   3.036   1.129   6.116 -0.4048  0.0494  0.2855
11384WAT      O46255   7.579   0.562   7.611  0.5810 -0.1237 -0.0910
11384WAT     H146256   7.540   0.484   7.600  0.0205  0.1643 -0.1790
11384WAT     H246257   7.535   0.614   7.556 -0.3877  0.7117  1.4247
11384WAT    EPW46258   7.567   0.558   7.601  0.3551  0.0422  0.1199
11385WAT      O46259   5.358   0.327   4.078 -0.7621  0.0006  0.6972
11385WAT     H146260   5.432   0.368   4.055 -0.2915  0.1613  2.3669
11385WAT     H246261   5.385   0.247   4.098 -1.4270 -0.6649 -0.9238
11385WAT    EPW46262   5.373   0.322   4.077 -0.7908 -0.0740  0.7044
11386WAT      O46263   2.295   4.000   1.448  0.0562  0.5170 -0.6101
11386WAT     H146264   2.359   3.943   1.437 -0.1961 -0.1177  0.9500
11386WAT     H246265   2.316   4.041   1.523 -0.5714  1.3740 -0.8791
11386WAT    EPW46266   2.307   3.998   1.458 -0.0738  0.5498 -0.4194
11387WAT      O46267   1.878   0.656   2.566 -0.7653 -0.2102  0.2923
11387WAT     H146268   1.836   0.632   2.639 -2.0099  0.6499 -0.1174
11387WAT     H246269   1.909   0.735   2.585 -1.5097  0.2249 -0.2578
11387WAT    EPW46270   1.877   0.664   2.580 -1.0591 -0.0189  0.1505
11388WAT      O46271   1.730   1.796   5.035 -0.2660  0.2635 -0.0250
11388WAT     H146272   1.760   1.716   5.053  1.1303  0.7108 -0.2163
11388WAT     H246273   1.801   1.838   5.006 -1.1924  1.2793 -0.8987
11388WAT    EPW46274   1.745   1.791   5.034 -0.1966  0.4797 -0.1823
11389WAT      O46275   1.494   5.916   7.486  0.1017 -0.0625 -0.3669
11389WAT     H146276   1.430   5.959   7.445  0.7500  0.3677 -0.9360
11389WAT     H246277   1.540   5.880   7.422 -1.0218 -2.5552  0.1017
11389WAT    EPW46278   1.491   5.917   7.471  0.0315 -0.3671 -0.3817
11390WAT      O46279   6.725   4.358   6.032  0.1039 -0.3878 -0.6837
11390WAT     H146280   6.669   4.314   6.083  1.5549 -1.1250  0.3533
11390WAT     H246281   6.764   4.295   5.985 -0.6083  0.2101 -2.1205
11390WAT    EPW46282   6.723   4.342   6.033  0.2130 -0.4084 -0.7428
11391WAT      O46283   5.354   7.221   5.061  1.0194  0.3580  0.1094
11391WAT     H146284   5.334   7.288   5.008  0.1665 -0.8203 -1.1194
11391WAT     H246285   5.410   7.174   5.014  0.9133 -0.2709  0.6045
11391WAT    EPW46286   5.359   7.224   5.046  0.8777  0.0910  0.0010
11392WAT      O46287   4.718   2.201   4.722  0.4894  0.1052  0.1556
11392WAT     H146288   4.741   2.264   4.666  0.9123  0.0573  0.2707
11392WAT     H246289   4.788   2.149   4.724  0.0576 -0.4938 -0.1070
11392WAT    EPW46290   4.732   2.202   4.714  0.4881  0.0096  0.1338
11393WAT      O46291   1.687   6.474   7.064  0.9180  0.0184 -0.2786
11393WAT     H146292   1.642   6.521   7.005 -0.4975 -2.6277 -1.5237
11393WAT     H246293   1.686   6.524   7.135 -1.0470  1.5917 -1.2885
11393WAT    EPW46294   1.680   6.489   7.065  0.4186 -0.1401 -0.6117
11394WAT      O46295   1.413   6.104   7.172  0.1630  0.3107 -0.1456
11394WAT     H146296   1.357   6.037   7.167 -0.1519  0.4602  1.0400
11394WAT     H246297   1.477   6.082   7.117 -1.1608  0.2481 -1.7167
11394WAT    EPW46298   1.414   6.091   7.163 -0.0791  0.3236 -0.2025
11395WAT      O46299   6.856   2.824   3.456 -0.1189  0.3512 -0.3498
11395WAT     H146300   6.877   2.908   3.442  1.2827  0.3288  1.3673
11395WAT     H246301   6.881   2.810   3.538 -0.6024 -1.6952 -0.5054
11395WAT    EPW46302   6.863   2.835   3.466  0.0167  0.0456 -0.1191
11396WAT      O46303   4.327   0.679   1.197 -0.5972 -0.6174  0.7776
11396WAT     H146304   4.300   0.755   1.165  0.6367 -0.5334 -0.1213
11396WAT     H246305   4.369   0.642   1.130  0.7839 -1.0822  1.8587
11396WAT    EPW46306   4.329   0.684   1.182 -0.2110 -0.6737  0.8045
11397WAT      O46307   2.704   6.303   3.644 -0.0300  0.7189 -0.1821
11397WAT     H146308   2.630   6.340   3.617 -0.1632 -0.9858 -2.4753
11397WAT     H246309   2.686   6.277   3.725 -1.9444  0.4526 -0.6405
11397WAT    EPW46310   2.691   6.304   3.652 -0.3325  0.4277 -0.5885
11398WAT      O46311   1.975   0.602   7.309 -0.9674  0.2764  0.1119
11398WAT     H146312   1.996   0.682   7.284 -1.6196  0.1747 -0.8121
11398WAT     H246313   1.924   0.573   7.245 -0.6534 -0.9230  0.3752
11398WAT    EPW46314   1.970   0.609   7.296 -1.0174  0.0842  0.0143
11399WAT      O46315   2.384   7.607   2.478  0.0002 -0.3387 -0.3020
11399WAT     H146316   2.303   7.628   2.503 -0.5610 -1.5661 -0.9774
11399WAT     H246317   2.372   7.573   2.398  1.2644 -0.0095 -0.6483
11399WAT    EPW46318   2.370   7.605   2.470  0.1041 -0.4714 -0.4529
11400WAT      O46319   1.392   2.671   5.109  0.7229 -0.3132 -0.4582
11400WAT     H146320   1.405   2.597   5.065  0.7461  0.5367 -1.9188
11400WAT     H246321   1.466   2.715   5.099  0.9385 -0.3016  0.9072
11400WAT    EPW46322   1.405   2.667   5.101  0.7582 -0.1860 -0.4722
11401WAT      O46323   0.621   0.851   7.316  0.1127 -0.1703  0.3492
11401WAT     H146324   0.576   0.922   7.338 -0.5881 -0.1884 -0.9310
11401WAT     H246325   0.667   0.876   7.247  0.3825 -0.7661  0.3026
11401WAT    EPW46326   0.621   0.865   7.309  0.0490 -0.2610  0.1532
11402WAT      O46327   2.470   6.659   3.786  0.4656  0.1474 -0.7652
11402WAT     H146328   2.513   6.669   3.711  0.5017 -0.0646 -0.7745
11402WAT     H246329   2.448   6.574   3.786 -1.5027  0.5948 -1.6122
11402WAT    EPW46330   2.473   6.648   3.775  0.1802  0.1822 -0.8917
11403WAT      O46331   1.403   4.641   4.338  1.0858 -0.0680 -0.0499
11403WAT     H146332   1.417   4.586   4.405  2.0255 -0.6010 -0.6486
11403WAT     H246333   1.317   4.650   4.337  0.6820 -2.9500 -0.9871
11403WAT    EPW46334   1.392   4.634   4.348  1.1650 -0.5725 -0.2768
11404WAT      O46335   6.368   5.014   5.692  0.1321 -0.1373 -0.2022
11404WAT     H146336   6.339   4.932   5.697 -0.9486  0.2135 -0.4341
11404WAT     H246337   6.365   5.041   5.775 -1.5199  0.3012 -0.3598
11404WAT    EPW46338   6.363   5.006   5.705 -0.2716 -0.0207 -0.2597
11405WAT      O46339   7.526   2.841   7.724 -0.2732 -0.0486 -0.6235
11405WAT     H146340   7.573   2.913   7.743  0.5131 -1.0369  1.5724
11405WAT     H246341   7.586   2.777   7.726 -1.3542 -1.0700 -0.0102
11405WAT    EPW46342   7.542   2.842   7.727 -0.3167 -0.3455 -0.2085
11406WAT      O46343   1.110   4.937   5.514 -0.0247 -0.4757 -0.3904
11406WAT     H146344   1.136   5.018   5.531  1.7646 -1.0572 -0.1613
11406WAT     H246345   1.026   4.937   5.536  0.1481  1.0901  0.3726
11406WAT    EPW46346   1.102   4.949   5.520  0.2651 -0.3303 -0.2439
11407WAT      O46347   2.400   3.029   1.461  0.5037 -0.2882  0.2727
11407WAT     H146348   2.442   3.105   1.450  0.6859 -0.3311  0.6766
11407WAT     H246349   2.355   3.021   1.387 -0.6248  0.9036  0.7924
11407WAT    EPW46350   2.400   3.039   1.448  0.3639 -0.1184  0.4091
11408WAT      O46351   3.136   0.897   6.608  0.1158  0.3819 -0.2418
11408WAT     H146352   3.062   0.936   6.632 -1.4089 -2.1947 -0.3898
11408WAT     H246353   3.140   0.911   6.522  0.1212  1.0212 -0.1396
11408WAT    EPW46354   3.125   0.905   6.599 -0.1086  0.0957 -0.2486
11409WAT      O46355   1.148   0.514   7.469 -0.4822  0.2446  0.7207
11409WAT     H146356   1.177   0.596   7.468  0.8585 -0.1806  2.3384
11409WAT     H246357   1.217   0.467   7.495 -1.2027 -1.4215 -0.2014
11409WAT    EPW46358   1.162   0.519   7.472 -0.3906 -0.0644  0.8234
11410WAT      O46359   0.163   6.467   0.534 -0.4477 -0.6397 -0.3146
11410WAT     H146360   0.180   6.399   0.482  1.3432 -1.3985  1.1307
11410WAT     H246361   0.227   6.524   0.514  0.0768 -0.8195  0.7799
11410WAT    EPW46362   0.175   6.466   0.523 -0.1056 -0.7783  0.0606
11411WAT      O46363   7.747   2.676   5.195  0.4030  0.0053  0.3187
11411WAT     H146364   7.758   2.606   5.246  0.3649 -0.4947 -0.3379
11411WAT     H246365   7.792   2.739   5.236  0.6211 -0.4606  0.8068
11411WAT    EPW46366   7.755   2.675   5.209  0.4296 -0.1374  0.2938
11412WAT      O46367   0.400   6.255   5.149  0.2275  0.5429 -0.7525
11412WAT     H146368   0.433   6.192   5.099  0.1947 -1.9075  2.0264
11412WAT     H246369   0.437   6.240   5.227 -3.3876  0.9533  1.2313
11412WAT    EPW46370   0.411   6.244   5.153 -0.3114  0.2415 -0.0490
11413WAT      O46371   1.380   5.782   0.544 -0.0506  0.6955  0.0067
11413WAT     H146372   1.377   5.822   0.467  1.0938 -0.3360 -0.6111
11413WAT     H246373   1.296   5.777   0.567 -0.3592  1.6414 -0.8258
11413WAT    EPW46374   1.367   5.787   0.536  0.0729  0.6829 -0.2075
11414WAT      O46375   2.191   3.262   4.473  0.0793 -0.0831 -0.2707
11414WAT     H146376   2.241   3.238   4.541 -2.8732  0.1183  2.2089
11414WAT     H246377   2.188   3.191   4.423 -0.3209 -1.5082  1.6335
11414WAT    EPW46378   2.198   3.248   4.476 -0.4159 -0.2638  0.3769
11415WAT      O46379   2.189   6.387   0.256  0.0655  0.1611 -0.0106
11415WAT     H146380   2.160   6.429   0.185  0.2681 -1.3429 -1.0173
11415WAT     H246381   2.271   6.417   0.266 -0.0344  0.5256 -0.2823
11415WAT    EPW46382   2.197   6.398   0.247  0.0807 -0.0072 -0.1994
11416WAT      O46383   2.689   2.439   3.524 -0.2162 -0.2356  0.1708
11416WAT     H146384   2.744   2.435   3.457 -0.0644 -1.1394  0.3350
11416WAT     H246385   2.689   2.523   3.546  1.0549 -0.2169  0.1422
11416WAT    EPW46386   2.697   2.451   3.517 -0.0060 -0.3664  0.1908
11417WAT      O46387   1.638   1.861   5.313 -0.4195 -0.0678  0.2908
11417WAT     H146388   1.603   1.782   5.322 -0.0316 -0.3455 -0.5323
11417WAT     H246389   1.687   1.854   5.241  1.4669  0.2481  1.4836
11417WAT    EPW46390   1.640   1.849   5.304 -0.0835 -0.0622  0.3454
11418WAT      O46391   7.223   2.110   4.019 -0.4722 -0.3696 -0.8032
11418WAT     H146392   7.301   2.145   4.000 -0.1028  0.1145  1.3229
11418WAT     H246393   7.239   2.024   4.022  0.5134 -0.1809  1.4565
11418WAT    EPW46394   7.237   2.103   4.016 -0.2720 -0.2702 -0.1553
11419WAT      O46395   1.689   3.776   7.400  0.7709 -0.0335  0.1728
11419WAT     H146396   1.634   3.758   7.336  0.9941  0.7003 -0.2356
11419WAT     H246397   1.649   3.840   7.444  1.5478  0.9454 -0.4956
11419WAT    EPW46398   1.675   3.783   7.397  0.9187  0.2195  0.0137
11420WAT      O46399   4.134   2.062   5.734 -0.8489  0.2070 -0.8130
11420WAT     H146400   4.157   2.011   5.801  0.2683  0.7896 -0.7273
11420WAT     H246401   4.082   2.121   5.771 -1.3424 -0.2738 -0.7258
11420WAT    EPW46402   4.130   2.063   5.749 -0.7568  0.2220 -0.7874
11421WAT      O46403   7.455   2.226   5.941  0.3188 -0.4107 -0.3842
11421WAT     H146404   7.415   2.216   5.864  1.7248 -1.2917 -1.0260
11421WAT     H246405   7.530   2.182   5.932  2.0753  2.2116  0.3197
11421WAT    EPW46406   7.460   2.218   5.928  0.7860 -0.1534 -0.3750
11422WAT      O46407   3.280   4.406   7.089 -0.3308 -0.4066  0.0552
11422WAT     H146408   3.345   4.452   7.126 -0.1332  0.6281 -1.4912
11422WAT     H246409   3.286   4.328   7.128  0.7482  0.1853  1.1629
11422WAT    EPW46410   3.291   4.402   7.100 -0.1422 -0.1663 -0.0096
11423WAT      O46411   1.639   4.194   6.627  0.5487  0.3635  0.5227
11423WAT     H146412   1.626   4.107   6.630  1.0783  0.3104  1.5850
11423WAT     H246413   1.608   4.216   6.548  2.3204 -1.1231 -0.6782
11423WAT    EPW46414   1.632   4.184   6.616  0.8887  0.1361  0.5022
11424WAT      O46415   0.505   2.276   7.170 -0.4776  0.3364  0.0298
11424WAT     H146416   0.573   2.244   7.215 -0.9233  1.7333  1.7888
11424WAT     H246417   0.451   2.207   7.164  0.2315 -0.2664  0.3186
11424WAT    EPW46418   0.507   2.261   7.175 -0.4387  0.4537  0.3323
11425WAT      O46419   7.510   4.109   0.050 -0.1233  0.2679 -0.5597
11425WAT     H146420   7.527   4.159   0.120 -1.5901  2.7800 -1.8513
11425WAT     H246421   7.431   4.077   0.067  0.2705 -0.6061 -0.3184
11425WAT    EPW46422   7.501   4.112   0.063 -0.2818  0.5099 -0.7149
11426WAT      O46423   2.894   7.317   7.530 -0.1016  0.0570  0.4995
11426WAT     H146424   2.960   7.279   7.488  2.0386  2.4456  1.4409
11426WAT     H246425   2.853   7.362   7.468 -1.0295 -1.5213 -0.1098
11426WAT    EPW46426   2.897   7.318   7.515  0.0775  0.1767  0.5485
11427WAT      O46427   6.433   3.500   7.325 -0.1228 -0.0114 -0.0958
11427WAT     H146428   6.380   3.512   7.257 -2.6271 -4.6172  0.6444
11427WAT     H246429   6.400   3.552   7.386 -0.2838  1.2681 -1.2335
11427WAT    EPW46430   6.421   3.509   7.324 -0.5166 -0.5028 -0.1545
11428WAT      O46431   5.234   6.824   5.872  0.1393  0.0582  0.4239
11428WAT     H146432   5.261   6.748   5.905  1.4068  0.3671  0.1308
11428WAT     H246433   5.294   6.843   5.812 -0.8136  0.7115 -0.3482
11428WAT    EPW46434   5.247   6.816   5.868  0.1858  0.2003  0.2665
11429WAT      O46435   4.568   6.971   0.386 -0.4413  0.6623 -0.3093
11429WAT     H146436   4.554   6.977   0.300 -1.4973 -0.2730 -0.2355
11429WAT     H246437   4.489   6.987   0.421 -0.1685  0.4020  0.4501
11429WAT    EPW46438   4.554   6.974   0.379 -0.5570  0.4857 -0.1862
11430WAT      O46439   1.250   6.918   0.061 -0.0466 -0.3693  0.3782
11430WAT     H146440   1.312   6.875   0.106  1.0866  1.0415  0.2585
11430WAT     H246441   1.295   6.976   0.015 -1.4633  0.5085  0.0380
11430WAT    EPW46442   1.266   6.920   0.061 -0.0885 -0.0313  0.3103
11431WAT      O46443   5.472   0.179   6.332  0.2213 -0.3520 -0.1961
11431WAT     H146444   5.488   0.185   6.247 -0.5648 -0.8549 -0.3829
11431WAT     H246445   5.445   0.258   6.354  1.9641  0.2570 -0.0663
11431WAT    EPW46446   5.470   0.191   6.323  0.3626 -0.3363 -0.2045
11432WAT      O46447   2.722   6.521   1.890 -0.4000  0.0744  0.0417
11432WAT     H146448   2.675   6.463   1.846 -1.2736  0.5186  0.3661
11432WAT     H246449   2.663   6.562   1.940  0.5562 -0.4156  1.6308
11432WAT    EPW46450   2.707   6.519   1.891 -0.3878  0.0677  0.3244
11433WAT      O46451   1.723   3.195   1.098 -0.0215  0.4122 -0.0619
11433WAT     H146452   1.759   3.210   1.020  0.1643 -0.6063 -0.1901
11433WAT     H246453   1.668   3.261   1.109  1.2163  1.5188 -0.2714
11433WAT    EPW46454   1.720   3.207   1.088  0.1888  0.4252 -0.1118
11434WAT      O46455   1.668   3.867   4.842  0.1436  0.5001  0.2735
11434WAT     H146456   1.592   3.837   4.811  0.7805 -0.5787 -0.3252
11434WAT     H246457   1.644   3.918   4.908 -1.1189  0.5007 -0.1450
11434WAT    EPW46458   1.653   3.870   4.847  0.0512  0.3409  0.1233
11435WAT      O46459   3.546   1.421   5.361  0.0917  0.2759 -0.0837
11435WAT     H146460   3.496   1.410   5.431  0.7995 -0.2274  0.3596
11435WAT     H246461   3.543   1.344   5.321 -0.5337  0.6473 -0.7691
11435WAT    EPW46462   3.538   1.408   5.365  0.1039  0.2564 -0.1195
11436WAT      O46463   0.672   1.361   6.219 -0.2006 -0.2134  0.3760
11436WAT     H146464   0.684   1.444   6.195  1.0426 -0.9862 -2.0128
11436WAT     H246465   0.738   1.346   6.274  3.1013 -0.9782 -3.3320
11436WAT    EPW46466   0.683   1.371   6.224  0.4708 -0.4406 -0.5246
11437WAT      O46467   1.992   2.253   3.319 -0.1917  0.0823  0.0885
11437WAT     H146468   1.925   2.285   3.365 -1.0865 -0.5935 -0.7021
11437WAT     H246469   2.028   2.323   3.284 -0.3587  0.4792  0.7005
11437WAT    EPW46470   1.987   2.268   3.321 -0.3485  0.0411  0.0621
11438WAT      O46471   0.992   1.436   5.859 -0.2206  0.6307  0.0546
11438WAT     H146472   0.914   1.442   5.897 -0.3308 -0.0660 -0.0600
11438WAT     H246473   1.018   1.519   5.855 -0.2089  0.7199  1.6189
11438WAT    EPW46474   0.984   1.449   5.864 -0.2351  0.5410  0.2688
11439WAT      O46475   6.818   0.253   6.485 -0.3253 -0.0684  0.2677
11439WAT     H146476   6.750   0.206   6.458 -0.2492  1.0380 -2.0851
11439WAT     H246477   6.785   0.333   6.495  0.0598 -0.0734  1.9549
11439WAT    EPW46478   6.803   0.258   6.483 -0.2572  0.0943  0.1693
11440WAT      O46479   3.361   6.357   5.188 -0.0669 -0.0044  0.5978
11440WAT     H146480   3.306   6.327   5.248 -1.1696 -0.3928 -0.5559
11440WAT     H246481   3.393   6.284   5.151 -0.2771  0.2243 -0.0473
11440WAT    EPW46482   3.358   6.342   5.191 -0.2609 -0.0280  0.3321
11441WAT      O46483   0.252   3.226   5.208 -0.1964  0.3772 -0.2699
11441WAT     H146484   0.243   3.186   5.285 -0.1074 -1.9968 -1.3803
11441WAT     H246485   0.171   3.251   5.189 -0.3774  0.1556  0.1816
11441WAT    EPW46486   0.239   3.224   5.217 -0.2100 -0.0062 -0.3672
11442WAT      O46487   0.064   1.604   6.106  0.5285 -0.2106 -0.3280
11442WAT     H146488   0.046   1.522   6.081  1.0777  0.2987 -2.6982
11442WAT     H246489  -0.014   1.641   6.114  0.1281 -1.4636  3.0908
11442WAT    EPW46490   0.050   1.597   6.103  0.5505 -0.3205 -0.1731
11443WAT      O46491   2.730   2.755   7.741  0.4411 -0.3933  0.6633
11443WAT     H146492   2.680   2.771   7.671  2.4498  1.3425 -0.5077
11443WAT     H246493   2.685   2.793   7.806  0.3385  1.4975 -0.4148
11443WAT    EPW46494   2.716   2.763   7.740  0.7227  0.1424  0.3311
11444WAT      O46495   2.777   3.668   4.962 -0.8595  0.4040  0.1417
11444WAT     H146496   2.713   3.617   4.992  0.4112 -0.0040  2.3897
11444WAT     H246497   2.736   3.743   4.944 -2.0439  0.0355  1.1825
11444WAT    EPW46498   2.762   3.672   4.964 -0.8468  0.2893  0.6275
11445WAT      O46499   3.592   1.049   5.659 -0.2449 -0.3023 -0.7236
11445WAT     H146500   3.649   1.066   5.722 -0.9219  1.6123 -0.5719
11445WAT     H246501   3.597   0.962   5.650  1.4405 -0.3756  0.4242
11445WAT    EPW46502   3.601   1.039   5.667 -0.0959 -0.0303 -0.5316
11446WAT      O46503   1.378   3.215   0.925  0.8917 -0.1730  0.2812
11446WAT     H146504   1.382   3.143   0.875  1.3744 -0.5313  0.8245
11446WAT     H246505   1.324   3.267   0.881  1.4335 -0.4138 -0.7037
11446WAT    EPW46506   1.371   3.212   0.911  1.0430 -0.2615  0.2160
11447WAT      O46507   7.445   1.535   6.252  0.3740 -0.3017 -0.0622
11447WAT     H146508   7.446   1.620   6.270  1.9515  0.2082 -2.2227
11447WAT     H246509   7.489   1.499   6.319  2.0137  0.9325 -0.4228
11447WAT    EPW46510   7.452   1.542   6.265  0.8492 -0.0441 -0.4346
11448WAT      O46511   2.058   2.947   3.724 -0.1742 -0.6023  0.5181
11448WAT     H146512   2.073   2.951   3.638  2.6351  0.6759  0.9306
11448WAT     H246513   2.053   2.862   3.741  0.0764 -0.8980 -0.8165
11448WAT    EPW46514   2.060   2.935   3.714  0.2778 -0.4572  0.3819
11449WAT      O46515   2.345   7.099   6.176 -0.4604  0.5870  0.0465
11449WAT     H146516   2.331   7.144   6.103 -0.2670 -1.0255 -1.0210
11449WAT     H246517   2.431   7.110   6.190 -0.1140 -0.5856 -1.0217
11449WAT    EPW46518   2.356   7.107   6.167 -0.3806  0.1755 -0.2690
11450WAT      O46519   1.848   3.816   0.788 -0.7502 -0.0576 -0.5718
11450WAT     H146520   1.876   3.863   0.720 -0.0091 -1.4689 -1.2861
11450WAT     H246521   1.764   3.802   0.769 -0.8677  0.5804 -0.5679
11450WAT    EPW46522   1.840   3.821   0.775 -0.6581 -0.1718 -0.6768
11451WAT      O46523   6.623   0.489   6.396  0.1897  0.0186 -0.1967
11451WAT     H146524   6.648   0.511   6.477  0.0737 -1.2013  0.1773
11451WAT     H246525   6.606   0.404   6.401  2.4686 -0.6700 -2.0682
11451WAT    EPW46526   6.624   0.480   6.409  0.5092 -0.2633 -0.4179
11452WAT      O46527   6.121   1.676   0.601 -0.1496  0.3442  0.0265
11452WAT     H146528   6.206   1.698   0.604 -0.1694  0.5481 -0.7079
11452WAT     H246529   6.102   1.657   0.684  0.6013  0.3560  0.2100
11452WAT    EPW46530   6.131   1.677   0.614 -0.0416  0.3761 -0.0549
11453WAT      O46531   2.205   1.792   4.227 -0.0154  0.0131  0.0427
11453WAT     H146532   2.188   1.712   4.197 -0.8981 -0.5693  1.9015
11453WAT     H246533   2.198   1.843   4.157 -0.8659 -1.3718 -0.9152
11453WAT    EPW46534   2.201   1.788   4.212 -0.2714 -0.2775  0.1758
11454WAT      O46535   0.535   3.543   5.216 -0.2285  0.8594  0.7015
11454WAT     H146536   0.474   3.527   5.277  1.0305  1.1436  2.0889
11454WAT     H246537   0.518   3.625   5.191 -1.1458  0.5281  0.1642
11454WAT    EPW46538   0.523   3.552   5.221 -0.1780  0.8524  0.8271
11455WAT      O46539   1.057   1.501   6.814  0.0469 -0.5320  0.0406
11455WAT     H146540   1.007   1.531   6.879  0.4511 -1.8243  1.0058
11455WAT     H246541   1.127   1.470   6.855  1.2139  0.3612 -1.2074
11455WAT    EPW46542   1.060   1.501   6.830  0.2790 -0.5910 -0.0012
11456WAT      O46543   0.974   3.430   5.861  0.1013 -0.5691  0.5022
11456WAT     H146544   0.939   3.359   5.825  0.2786 -0.1471 -0.5274
11456WAT     H246545   1.042   3.448   5.810 -0.1070  0.4967  0.5716
11456WAT    EPW46546   0.979   3.422   5.848  0.0967 -0.3493  0.3603
11457WAT      O46547   3.172   2.858   1.355 -0.1623 -0.0346  0.0777
11457WAT     H146548   3.200   2.900   1.426  0.6995 -0.0810 -0.2273
11457WAT     H246549   3.086   2.849   1.370 -0.2543  1.2447  0.4461
11457WAT    EPW46550   3.164   2.863   1.368 -0.0486  0.1475  0.0871
11458WAT      O46551   7.715   0.432   6.174  0.0441  0.1708  0.4682
11458WAT     H146552   7.715   0.489   6.240 -1.6674  1.1876 -0.3221
11458WAT     H246553   7.677   0.361   6.208 -0.3032  0.4868  0.7550
11458WAT    EPW46554   7.709   0.430   6.189 -0.2600  0.3677  0.3938
11459WAT      O46555   0.797   3.082   6.760 -0.0620  0.3098  0.6989
11459WAT     H146556   0.818   3.094   6.676  1.5649 -1.5306  0.7589
11459WAT     H246557   0.721   3.122   6.768 -0.9331 -0.5592 -2.0183
11459WAT    EPW46558   0.789   3.089   6.749  0.0496 -0.0904  0.3064
11460WAT      O46559   0.318   1.043   7.204 -0.1672 -0.6175  0.3729
11460WAT     H146560   0.369   1.024   7.136 -0.7227  0.7099 -0.4463
11460WAT     H246561   0.375   1.070   7.265  0.2672 -1.0548  0.1643
11460WAT    EPW46562   0.334   1.044   7.203 -0.1851 -0.4860  0.2211
11461WAT      O46563   0.819   2.000   7.833 -0.8836  0.2189  0.0639
11461WAT     H146564   0.814   2.076   7.791 -0.7467  1.4117  2.1056
11461WAT     H246565   0.857   2.020   7.908 -4.1779 -1.1230  2.3187
11461WAT    EPW46566   0.824   2.014   7.838 -1.3500  0.1969  0.6986
11462WAT      O46567   4.262   0.016   7.527 -0.1549 -0.4653 -0.1745
11462WAT     H146568   4.296  -0.031   7.462 -0.1735 -1.9207  0.8419
11462WAT     H246569   4.176   0.014   7.512 -0.0581  0.9723 -1.2316
11462WAT    EPW46570   4.254   0.009   7.515 -0.1433 -0.4680 -0.1805
11463WAT      O46571   3.397   6.383   6.704  0.4510  0.3554 -0.3533
11463WAT     H146572   3.456   6.319   6.695 -0.7745 -1.0393  0.8573
11463WAT     H246573   3.445   6.455   6.713  1.8829 -0.2174 -2.6399
11463WAT    EPW46574   3.413   6.384   6.704  0.4815  0.0647 -0.5123
11464WAT      O46575   6.608   3.045   7.513  0.1845 -0.0750 -0.2337
11464WAT     H146576   6.620   3.019   7.595  0.3903 -1.9439 -0.8114
11464WAT     H246577   6.535   3.091   7.517 -0.3897 -1.0208  0.8457
11464WAT    EPW46578   6.599   3.048   7.526  0.1301 -0.4908 -0.1596
11465WAT      O46579   3.980   0.048   7.805 -0.2455 -0.1118  0.6016
11465WAT     H146580   3.990  -0.023   7.754  2.7510 -0.7944  1.9817
11465WAT     H246581   3.943   0.016   7.877  0.5284 -0.1883  0.9739
11465WAT    EPW46582   3.976   0.032   7.808  0.3115 -0.2239  0.8605
11466WAT      O46583   0.933   0.926   7.135  0.3683 -0.6323  0.6437
11466WAT     H146584   0.923   1.011   7.122 -1.0422 -0.7978  0.5247
11466WAT     H246585   1.017   0.912   7.117  1.1460  1.0473  2.5709
11466WAT    EPW46586   0.944   0.936   7.131  0.2748 -0.4086  0.9108
11467WAT      O46587   0.895   6.997   4.573  0.0806  0.4574  0.2437
11467WAT     H146588   0.860   7.059   4.624  0.6747  2.4385 -1.6269
11467WAT     H246589   0.830   6.938   4.566 -0.4811  0.7749  2.1134
11467WAT    EPW46590   0.880   6.997   4.580  0.0854  0.7970  0.2436
11468WAT      O46591   7.468   1.348   6.467  0.1674  0.9321  0.1115
11468WAT     H146592   7.393   1.329   6.508 -0.0278  2.0022  0.2903
11468WAT     H246593   7.475   1.287   6.406  0.6435 -0.9621  1.9493
11468WAT    EPW46594   7.458   1.337   6.464  0.2089  0.8104  0.4094
11469WAT      O46595   2.819   6.307   6.704  0.0773 -0.2910 -0.1387
11469WAT     H146596   2.773   6.315   6.778 -1.2103 -1.5870 -0.7497
11469WAT     H246597   2.876   6.243   6.723  1.3077  0.9267  0.4322
11469WAT    EPW46598   2.820   6.298   6.718  0.0689 -0.3026 -0.1446
11470WAT      O46599   0.690   0.796   3.607  0.5098 -0.0403  0.8350
11470WAT     H146600   0.684   0.713   3.632 -0.4355 -0.8290 -1.6521
11470WAT     H246601   0.732   0.791   3.530 -0.1910  1.6914  0.2922
11470WAT    EPW46602   0.695   0.783   3.599  0.2667  0.0990  0.3874
11471WAT      O46603   4.114   3.374   5.673 -0.1185  0.6064 -0.2619
11471WAT     H146604   4.131   3.400   5.592 -0.3710 -0.0482 -0.5261
11471WAT     H246605   4.193   3.367   5.710 -0.0232  1.2955 -0.3200
11471WAT    EPW46606   4.128   3.377   5.667 -0.1417  0.6115 -0.3095
11472WAT      O46607   2.384   2.336   3.057  0.3362  0.1256  0.7237
11472WAT     H146608   2.400   2.404   3.109  0.3611 -0.4588  1.5031
11472WAT     H246609   2.457   2.329   3.009  0.0008  1.1567  0.0315
11472WAT    EPW46610   2.397   2.345   3.058  0.2903  0.1916  0.7366
11473WAT      O46611   0.406   4.898   5.552  0.1300 -0.2756  0.2973
11473WAT     H146612   0.456   4.919   5.620 -0.3983 -0.2055  0.6696
11473WAT     H246613   0.428   4.815   5.535 -0.4304 -0.6190  1.1822
11473WAT    EPW46614   0.417   4.889   5.560 -0.0308 -0.3160  0.4830
11474WAT      O46615   6.168   7.360   6.816 -0.1726 -0.6022  0.0881
11474WAT     H146616   6.252   7.371   6.791 -0.1028 -0.2056  0.4859
11474WAT     H246617   6.168   7.282   6.855 -0.3758 -1.4549 -1.5366
11474WAT    EPW46618   6.181   7.350   6.818 -0.1923 -0.6696 -0.0932
11475WAT      O46619   1.332   4.146   7.796 -0.3825 -0.3534 -0.5789
11475WAT     H146620   1.417   4.140   7.811 -0.2993  0.6305 -0.5962
11475WAT     H246621   1.313   4.229   7.814 -1.3115 -0.5165 -0.7116
11475WAT    EPW46622   1.342   4.158   7.801 -0.5074 -0.2321 -0.6011
11476WAT      O46623   2.145   1.867   6.914 -0.4721 -0.2544  0.1109
11476WAT     H146624   2.199   1.804   6.939  0.6683  0.9786  0.8955
11476WAT     H246625   2.147   1.864   6.827  1.5124  0.2652  0.1007
11476WAT    EPW46626   2.153   1.857   6.905 -0.0104  0.0045  0.2253
11477WAT      O46627   6.329   1.095   7.010  0.5398 -0.3189 -0.1464
11477WAT     H146628   6.247   1.101   6.980 -0.0322 -0.8484  1.2406
11477WAT     H246629   6.374   1.064   6.942 -0.8522 -2.2626 -0.2486
11477WAT    EPW46630   6.324   1.092   6.996  0.2496 -0.6842  0.0434
11478WAT      O46631   7.734   1.079   7.037  0.0436  0.8806 -0.5333
11478WAT     H146632   7.798   1.038   6.994  0.3914  2.2639 -1.3895
11478WAT     H246633   7.768   1.157   7.056 -1.1025  1.3445 -0.2776
11478WAT    EPW46634   7.748   1.084   7.034 -0.0743  1.1535 -0.6220
11479WAT      O46635   6.518   7.002   0.913  0.2165  0.5844  0.5936
11479WAT     H146636   6.501   6.919   0.893 -0.1263  0.4012  1.5698
11479WAT     H246637   6.451   7.046   0.877  0.1506  0.3856  0.4731
11479WAT    EPW46638   6.505   6.996   0.905  0.1562  0.5280  0.7200
11480WAT      O46639   7.435   0.415   4.993 -0.5079 -0.2093 -0.5828
11480WAT     H146640   7.511   0.386   4.961 -0.7010  0.1239 -1.3534
11480WAT     H246641   7.375   0.366   4.952 -0.7412 -0.0229 -0.4673
11480WAT    EPW46642   7.437   0.404   4.982 -0.5709 -0.1325 -0.6795
11481WAT      O46643   6.116   1.937   3.606 -0.0703  0.0880  0.0339
11481WAT     H146644   6.146   1.884   3.669 -1.6078 -1.6088 -0.5553
11481WAT     H246645   6.062   1.991   3.648  1.0407  0.8279  0.5537
11481WAT    EPW46646   6.113   1.937   3.622 -0.1333 -0.0534  0.0237
11482WAT      O46647   2.256   3.649   3.779 -0.1295  0.1715 -0.0193
11482WAT     H146648   2.323   3.683   3.734 -1.1254  0.5427 -1.2711
11482WAT     H246649   2.276   3.668   3.862  1.1693  0.5336 -0.3903
11482WAT    EPW46650   2.269   3.657   3.784 -0.0848  0.2798 -0.2590
11483WAT      O46651   6.461   4.082   7.377  0.2732 -0.4248  0.2221
11483WAT     H146652   6.517   4.147   7.361  0.9427 -1.2954 -1.1863
11483WAT     H246653   6.437   4.095   7.459 -0.2234  2.0589 -0.2521
11483WAT    EPW46654   6.466   4.093   7.386  0.2987 -0.1865 -0.0560
11484WAT      O46655   0.259   1.016   6.452 -0.0595 -0.4305 -0.3341
11484WAT     H146656   0.173   1.008   6.448  0.0274 -1.3130 -0.6693
11484WAT     H246657   0.286   0.936   6.475  0.6830 -0.2266 -0.4623
11484WAT    EPW46658   0.251   1.003   6.455  0.0630 -0.5308 -0.4026
11485WAT      O46659   1.301   1.060   6.300 -0.1385  0.2546 -0.0961
11485WAT     H146660   1.253   1.005   6.251  0.1528  1.6784 -2.0681
11485WAT     H246661   1.250   1.130   6.307  0.0188  0.2547  1.3384
11485WAT    EPW46662   1.286   1.062   6.294 -0.0722  0.4650 -0.1755
11486WAT      O46663   5.955   1.452   1.269  0.5194 -0.2172 -0.3689
11486WAT     H146664   5.878   1.419   1.244  0.9460 -1.3786 -0.2176
11486WAT     H246665   5.997   1.464   1.194  0.5001 -0.3577 -0.4017
11486WAT    EPW46666   5.950   1.449   1.254  0.5795 -0.4096 -0.3514
11487WAT      O46667   3.824   4.494   2.308 -0.2274 -0.3855  0.5321
11487WAT     H146668   3.903   4.514   2.339  0.0084  1.5042 -1.1110
11487WAT     H246669   3.778   4.568   2.319 -2.0714 -1.6588  2.1589
11487WAT    EPW46670   3.829   4.508   2.315 -0.4650 -0.2944  0.5297
11488WAT      O46671   2.696   4.453   0.342  0.1254  0.2394 -0.1899
11488WAT     H146672   2.647   4.520   0.370  0.2736  1.0981 -1.8494
11488WAT     H246673   2.743   4.431   0.412 -1.6620  0.2600  1.0701
11488WAT    EPW46674   2.696   4.460   0.356 -0.1168  0.3693 -0.2489
11489WAT      O46675   2.857   5.475   3.776 -0.0520 -0.5399  0.3207
11489WAT     H146676   2.799   5.430   3.823 -0.4502 -1.5395 -1.0531
11489WAT     H246677   2.924   5.486   3.831 -1.2488  0.0791  1.7350
11489WAT    EPW46678   2.858   5.470   3.791 -0.2876 -0.5961  0.3267
11490WAT      O46679   3.654   0.743   3.066  0.9295 -0.2577  0.3200
11490WAT     H146680   3.700   0.700   3.127 -0.3539 -0.0283  1.5066
11490WAT     H246681   3.604   0.681   3.031 -0.1309  0.0417  1.2661
11490WAT    EPW46682   3.654   0.727   3.070  0.5832 -0.1796  0.6351
11491WAT      O46683   0.502   1.168   6.410 -0.1511  0.1441  0.0103
11491WAT     H146684   0.546   1.102   6.373  1.1618  0.1686  1.4258
11491WAT     H246685   0.426   1.132   6.432  1.3491 -1.6290  2.7961
11491WAT    EPW46686   0.497   1.153   6.408  0.2645 -0.1142  0.6309
11492WAT      O46687   3.565   7.628   0.363 -0.5510  0.5299 -0.3193
11492WAT     H146688   3.590   7.545   0.374 -0.6201  0.8217  2.8920
11492WAT     H246689   3.483   7.620   0.332  0.3344 -0.4897 -2.6194
11492WAT    EPW46690   3.556   7.614   0.360 -0.4304  0.4224 -0.1847
11493WAT      O46691   1.057   2.480   4.980  0.0325  0.1316 -0.7441
11493WAT     H146692   1.138   2.450   4.993  0.8693  1.7841 -1.6953
11493WAT     H246693   1.068   2.542   4.919 -2.3575 -1.3972 -2.9284
11493WAT    EPW46694   1.071   2.485   4.973 -0.1970  0.1498 -1.2073
11494WAT      O46695   1.145   3.497   5.591  0.1441 -0.3360 -0.3206
11494WAT     H146696   1.098   3.498   5.517  0.4855 -0.5375 -0.5465
11494WAT     H246697   1.227   3.487   5.562  0.4142  0.7734  0.0184
11494WAT    EPW46698   1.151   3.495   5.576  0.2345 -0.2019 -0.3039
11495WAT      O46699   4.148   6.216   4.741 -0.2108  0.4462  0.2121
11495WAT     H146700   4.189   6.173   4.805 -0.6871  0.8254  0.7857
11495WAT     H246701   4.100   6.276   4.783  1.2036  2.2441 -0.6070
11495WAT    EPW46702   4.147   6.218   4.756 -0.0722  0.7678  0.1759
11496WAT      O46703   5.408   6.435   6.808  0.8269 -0.1194 -0.7541
11496WAT     H146704   5.360   6.425   6.736  0.9066  0.2724 -0.8648
11496WAT     H246705   5.404   6.521   6.823 -0.5270 -0.3807  0.6317
11496WAT    EPW46706   5.400   6.446   6.799  0.6387 -0.1001 -0.5657
11497WAT      O46707   0.592   3.076   4.213  0.0311 -0.6372 -0.2622
11497WAT     H146708   0.582   3.161   4.229 -0.5093 -0.4540 -1.4795
11497WAT     H246709   0.620   3.074   4.130 -0.3200 -1.6544 -0.3644
11497WAT    EPW46710   0.595   3.088   4.203 -0.1006 -0.7604 -0.4571
11498WAT      O46711   6.015   3.687   1.090 -0.2330 -0.0645 -0.0641
11498WAT     H146712   6.084   3.649   1.052  0.4782  0.9950  0.1054
11498WAT     H246713   5.962   3.620   1.109  1.8741 -1.2839  2.1321
11498WAT    EPW46714   6.018   3.671   1.087  0.1833 -0.0881  0.2853
11499WAT      O46715   2.486   2.652   1.143 -0.3582  0.0789 -0.0818
11499WAT     H146716   2.547   2.631   1.202 -0.3732  0.0274 -0.0844
11499WAT     H246717   2.450   2.575   1.123 -1.5534  0.2656  1.1515
11499WAT    EPW46718   2.490   2.637   1.149 -0.5370  0.0989  0.1000
11500WAT      O46719   4.026   5.708   3.014 -0.1224  0.5374 -0.2415
11500WAT     H146720   3.955   5.704   2.963 -0.9103 -0.1804  0.8484
11500WAT     H246721   4.081   5.758   2.969 -0.5195 -0.6140 -2.0769
11500WAT    EPW46722   4.023   5.715   3.000 -0.2975  0.2613 -0.3516
11501WAT      O46723   0.508   1.867   7.090 -1.0922  0.3488  0.4320
11501WAT     H146724   0.456   1.920   7.136 -1.0060  0.4713  0.3846
11501WAT     H246725   0.562   1.834   7.151 -1.1779  0.2745  0.4693
11501WAT    EPW46726   0.508   1.870   7.106 -1.0921  0.3559  0.4305
11502WAT      O46727   5.341   3.751   0.218 -0.2961 -0.1716 -0.4725
11502WAT     H146728   5.402   3.698   0.186 -0.3094 -0.0213 -0.7500
11502WAT     H246729   5.295   3.774   0.148  0.1362  0.7640 -0.4574
11502WAT    EPW46730   5.343   3.746   0.203 -0.2342 -0.0112 -0.5112
11503WAT      O46731   2.629   3.496   5.528  0.4935  0.3277  0.0109
11503WAT     H146732   2.610   3.567   5.575  0.9160  2.1461 -2.3511
11503WAT     H246733   2.713   3.506   5.507  0.8809 -1.4844  0.5164
11503WAT    EPW46734   2.638   3.508   5.532  0.6132  0.3286 -0.2634
11504WAT      O46735   2.257   3.561   4.997 -0.1132 -0.5001 -0.6614
11504WAT     H146736   2.221   3.627   4.953  0.0786  0.2257  0.2262
11504WAT     H246737   2.304   3.519   4.937 -1.0087 -0.3982 -1.4422
11504WAT    EPW46738   2.259   3.565   4.982 -0.2171 -0.3779 -0.6456
11505WAT      O46739   1.961   6.333   2.712  0.8108 -0.3528 -0.1905
11505WAT     H146740   2.003   6.345   2.637  1.2865 -0.4948  0.0474
11505WAT     H246741   1.961   6.412   2.748 -0.6982  0.0338 -0.9815
11505WAT    EPW46742   1.967   6.346   2.706  0.6581 -0.3167 -0.2722
11506WAT      O46743   2.706   2.045   1.281  0.1962 -0.5425  0.1597
11506WAT     H146744   2.692   2.105   1.218  0.8895 -2.0327 -1.4879
11506WAT     H246745   2.646   1.984   1.266  0.4755 -1.0090  0.8669
11506WAT    EPW46746   2.695   2.045   1.270  0.3399 -0.8315  0.0208
11507WAT      O46747   2.907   2.464   1.423  0.0534 -0.0144 -0.0818
11507WAT     H146748   2.933   2.506   1.495  0.0572 -1.1511  0.5966
11507WAT     H246749   2.958   2.496   1.361 -1.1294  2.3190  0.0251
11507WAT    EPW46750   2.918   2.475   1.424 -0.1207  0.1624  0.0342
11508WAT      O46751   6.011   1.693   6.230  0.3186 -0.0503 -0.0203
11508WAT     H146752   5.977   1.625   6.188 -2.3863 -0.7791  2.9254
11508WAT     H246753   6.069   1.656   6.284  0.2394  0.2281  0.2576
11508WAT    EPW46754   6.014   1.678   6.232 -0.0927 -0.1169  0.4559
11509WAT      O46755   1.511   0.427   3.240 -0.1817 -0.3517 -0.3999
11509WAT     H146756   1.577   0.372   3.232  0.9950  0.8047  0.8438
11509WAT     H246757   1.513   0.473   3.165  2.6581  1.9173  0.8780
11509WAT    EPW46758   1.521   0.426   3.228  0.4116  0.1543 -0.0274
11510WAT      O46759   5.373   7.549   1.258  0.1543 -0.0283  0.4966
11510WAT     H146760   5.369   7.611   1.197 -0.9412 -0.6932 -0.1393
11510WAT     H246761   5.327   7.582   1.324  1.2846  0.6638  0.9566
11510WAT    EPW46762   5.365   7.563   1.259  0.1595 -0.0243  0.4707
11511WAT      O46763   1.349   1.884   5.219  0.3376 -0.6500  0.8809
11511WAT     H146764   1.409   1.941   5.247  0.3885 -0.5756  0.6209
11511WAT     H246765   1.313   1.855   5.293  1.1482 -1.1975  1.0784
11511WAT    EPW46766   1.353   1.889   5.234  0.4649 -0.7199  0.8716
11512WAT      O46767   0.548   4.157   3.927  0.5202  0.3904 -0.1596
11512WAT     H146768   0.526   4.092   3.980  0.3298 -1.0432 -1.9327
11512WAT     H246769   0.498   4.145   3.856  0.3680  2.5594 -0.4889
11512WAT    EPW46770   0.537   4.146   3.924  0.4696  0.4991 -0.4701
11513WAT      O46771   5.980   1.192   0.536  0.2697  0.4769  0.0572
11513WAT     H146772   6.001   1.118   0.577 -0.4664  0.1998 -0.0443
11513WAT     H246773   6.015   1.181   0.456 -2.1055 -0.9910 -0.8829
11513WAT    EPW46774   5.988   1.179   0.530 -0.1899  0.2191 -0.0967
11514WAT      O46775   4.617   3.116   7.646  0.0153 -0.3481  0.7386
11514WAT     H146776   4.691   3.128   7.601  1.6535 -2.2077  2.7303
11514WAT     H246777   4.607   3.030   7.647 -2.3305 -0.1564  0.4398
11514WAT    EPW46778   4.627   3.105   7.639 -0.0892 -0.5945  0.9887
11515WAT      O46779   4.322   0.185   4.596  0.7318  0.1531  0.5606
11515WAT     H146780   4.406   0.206   4.586  0.8865 -0.1004  1.2790
11515WAT     H246781   4.281   0.261   4.588  0.7483 -0.0080 -2.4170
11515WAT    EPW46782   4.328   0.199   4.593  0.7571  0.0919  0.2269
11516WAT      O46783   3.003   1.828   7.039  0.0774  0.2760 -0.3010
11516WAT     H146784   3.030   1.825   6.956  0.7925 -0.2513 -0.0650
11516WAT     H246785   3.032   1.906   7.067 -0.3891  0.5638 -0.6146
11516WAT    EPW46786   3.011   1.839   7.031  0.1141  0.2406 -0.3125
11517WAT      O46787   0.467   0.447   7.410  0.4717  0.1339 -0.5740
11517WAT     H146788   0.438   0.367   7.389 -0.9150  0.3102  0.5614
11517WAT     H246789   0.469   0.447   7.497  1.1475  1.1071 -0.5721
11517WAT    EPW46790   0.463   0.435   7.419  0.3667  0.3037 -0.4060
11518WAT      O46791   3.069   4.616   0.415  0.7678  0.2117 -0.2601
11518WAT     H146792   3.047   4.687   0.461 -2.5600 -0.3052 -0.8436
11518WAT     H246793   3.112   4.567   0.474 -0.1026  1.1563  1.2308
11518WAT    EPW46794   3.072   4.619   0.431  0.1476  0.2749 -0.1261
11519WAT      O46795   0.146   1.357   6.747 -0.1524  0.2047 -0.1004
11519WAT     H146796   0.110   1.348   6.669  1.5718  0.8583 -1.0384
11519WAT     H246797   0.151   1.444   6.757  2.3233  0.2054 -0.6675
11519WAT    EPW46798   0.142   1.369   6.737  0.4680  0.3014 -0.3227
11520WAT      O46799   7.737   7.133   6.496 -0.2505  0.3837 -0.2785
11520WAT     H146800   7.737   7.047   6.513  1.2726  0.2804 -0.6993
11520WAT     H246801   7.813   7.146   6.456  0.8256  2.4020  2.1861
11520WAT    EPW46802   7.748   7.122   6.492  0.1334  0.6666  0.0234
11521WAT      O46803   7.563   5.713   4.563 -0.4886 -0.3114  0.0259
11521WAT     H146804   7.477   5.714   4.547 -0.2776 -2.8455 -1.7101
11521WAT     H246805   7.567   5.690   4.647 -1.4767 -0.1541  0.1373
11521WAT    EPW46806   7.551   5.710   4.573 -0.6034 -0.6625 -0.2141
11522WAT      O46807   2.598   0.705   6.238  0.1358  0.1891 -0.0191
11522WAT     H146808   2.682   0.703   6.263 -0.1152  2.0329  1.1851
11522WAT     H246809   2.595   0.771   6.181 -0.6817  0.9264  0.8421
11522WAT    EPW46810   2.610   0.715   6.233 -0.0220  0.5704  0.2860
11523WAT      O46811   2.691   3.586   2.084  0.1933  0.4778 -0.9373
11523WAT     H146812   2.628   3.526   2.083 -0.7673  1.4561 -1.9736
11523WAT     H246813   2.763   3.540   2.102 -0.7135 -0.7576 -0.3167
11523WAT    EPW46814   2.692   3.570   2.087 -0.0825  0.4398 -0.9987
11524WAT      O46815   1.730   3.836   5.892  0.0346  0.0534  0.0910
11524WAT     H146816   1.667   3.819   5.834 -1.0128 -0.8191  1.3997
11524WAT     H246817   1.802   3.806   5.854 -0.9143 -2.3015 -0.0450
11524WAT    EPW46818   1.731   3.829   5.878 -0.2603 -0.4234  0.2642
11525WAT      O46819   1.896   3.263   0.333  0.4098 -0.6927  0.3290
11525WAT     H146820   1.973   3.232   0.359  1.4152  0.9682 -0.5316
11525WAT     H246821   1.894   3.245   0.248 -0.4267 -1.2347  0.4495
11525WAT    EPW46822   1.907   3.256   0.325  0.4348 -0.5274  0.2197
11526WAT      O46823   2.939   1.946   0.529  0.1340  0.3217 -1.0819
11526WAT     H146824   2.866   1.899   0.520  0.2308  0.0442 -0.5044
11526WAT     H246825   3.000   1.897   0.489  0.1318  0.2133 -0.9545
11526WAT    EPW46826   2.938   1.932   0.522  0.1480  0.2647 -0.9778
11527WAT      O46827   1.716   5.518   3.685  0.1434  0.1171 -0.2338
11527WAT     H146828   1.738   5.441   3.651  2.7949  0.8224 -0.3509
11527WAT     H246829   1.727   5.573   3.618 -2.3504  0.5849 -0.3446
11527WAT    EPW46830   1.721   5.515   3.670  0.1667  0.2904 -0.2675
11528WAT      O46831   0.401   5.335   7.812 -0.1203 -0.0500 -0.5131
11528WAT     H146832   0.363   5.256   7.818 -0.6380  0.2813  3.3831
11528WAT     H246833   0.343   5.383   7.770 -0.7163 -1.2511 -1.1129
11528WAT    EPW46834   0.387   5.330   7.807 -0.2849 -0.1785 -0.0262
11529WAT      O46835   2.420   4.487   1.186  0.2934 -0.0900 -0.3403
11529WAT     H146836   2.387   4.552   1.138 -1.7177  0.1148  1.1454
11529WAT     H246837   2.467   4.529   1.247 -1.3928  0.0937  0.9069
11529WAT    EPW46838   2.422   4.503   1.188 -0.2528 -0.0326  0.0634
11530WAT      O46839   5.263   2.865   3.775  0.1281  0.5815 -0.0532
11530WAT     H146840   5.204   2.906   3.726  0.0369  0.8697  0.2999
11530WAT     H246841   5.217   2.831   3.840  0.2076 -0.0579 -0.3179
11530WAT    EPW46842   5.248   2.866   3.777  0.1264  0.5296 -0.0401
11531WAT      O46843   1.967   4.260   5.662  0.1733  0.1330  0.0231
11531WAT     H146844   1.965   4.251   5.749 -0.6813 -1.2164 -0.1112
11531WAT     H246845   2.052   4.256   5.644  0.5354  2.2046  0.9139
11531WAT    EPW46846   1.979   4.258   5.672  0.1006  0.2397  0.1349
11532WAT      O46847   2.836   2.033   0.771  0.5885  0.0525  0.3958
11532WAT     H146848   2.791   1.960   0.785  0.0597  0.5918  1.5996
11532WAT     H246849   2.892   2.011   0.707 -0.4077 -1.0302 -0.1293
11532WAT    EPW46850   2.838   2.019   0.763  0.3632 -0.0278  0.4960
11533WAT      O46851   1.000   1.024   3.917 -0.1211 -0.2130 -0.1733
11533WAT     H146852   1.059   0.960   3.908  0.1189 -0.0145 -0.0311
11533WAT     H246853   0.938   0.988   3.967  0.5177 -0.0036  0.7991
11533WAT    EPW46854   1.000   1.009   3.923  0.0087 -0.1527 -0.0087
11534WAT      O46855   7.291   6.075   7.772  0.5759  0.5463  0.7349
11534WAT     H146856   7.244   6.032   7.713  2.1820 -0.5965  0.2334
11534WAT     H246857   7.259   6.048   7.848 -1.4340  1.9415  0.4627
11534WAT    EPW46858   7.280   6.065   7.774  0.5163  0.5836  0.6206
11535WAT      O46859   1.191   0.973   5.465  0.5894  0.3387  0.0842
11535WAT     H146860   1.219   0.939   5.540  0.2675  1.3582  0.6944
11535WAT     H246861   1.199   0.908   5.408  0.1690 -0.6740  1.1552
11535WAT    EPW46862   1.196   0.958   5.468  0.4797  0.3397  0.3326
11536WAT      O46863   2.337   0.196   0.663 -0.5414 -0.1882  0.0057
11536WAT     H146864   2.422   0.215   0.658 -0.6485  0.2645 -0.1173
11536WAT     H246865   2.302   0.241   0.597 -0.4858 -2.6378 -1.8203
11536WAT    EPW46866   2.344   0.206   0.652 -0.5490 -0.4832 -0.2822
11537WAT      O46867   3.981   7.690   2.832  0.1341  0.0695 -0.0993
11537WAT     H146868   4.022   7.659   2.903  0.1351  0.0023 -0.1290
11537WAT     H246869   3.980   7.776   2.845 -0.7957 -0.0219  0.4773
11537WAT    EPW46870   3.987   7.698   2.844 -0.0031  0.0461 -0.0185
11538WAT      O46871   0.496   7.154   4.583  0.6040  0.3704  0.1668
11538WAT     H146872   0.518   7.116   4.508  0.2408  0.2052  0.1376
11538WAT     H246873   0.432   7.208   4.560 -0.0001 -0.2001  0.4571
11538WAT    EPW46874   0.489   7.156   4.569  0.4611  0.2617  0.2053
11539WAT      O46875   1.415   0.168   0.617  0.1860  0.2801  0.2688
11539WAT     H146876   1.335   0.139   0.635  0.2406 -0.4282 -0.5615
11539WAT     H246877   1.468   0.111   0.656  0.2966  0.4434  0.3631
11539WAT    EPW46878   1.411   0.155   0.625  0.2104  0.1996  0.1601
11540WAT      O46879   0.935   6.688   4.489  0.2605  0.5196 -0.0818
11540WAT     H146880   0.910   6.655   4.412 -0.0303 -0.7663  0.5271
11540WAT     H246881   0.867   6.737   4.513  0.1132  0.4652 -0.3733
11540WAT    EPW46882   0.921   6.690   4.481  0.1958  0.3216 -0.0349
11541WAT      O46883   7.554   4.407   6.154  0.4619 -0.4484  0.3223
11541WAT     H146884   7.618   4.390   6.211  0.9577 -0.4681 -0.2302
11541WAT     H246885   7.513   4.476   6.189  1.0648 -0.1540  0.4638
11541WAT    EPW46886   7.557   4.415   6.168  0.6242 -0.4078  0.2616
11542WAT      O46887   1.272   7.204   7.072 -0.5534  0.0814  0.5505
11542WAT     H146888   1.253   7.142   7.013 -0.9987  0.7496 -0.0200
11542WAT     H246889   1.232   7.275   7.041  0.2930  0.7635  0.9765
11542WAT    EPW46890   1.264   7.205   7.059 -0.4941  0.2809  0.5292
11543WAT      O46891   1.691   4.730   7.211 -0.1606 -0.1610 -0.0324
11543WAT     H146892   1.639   4.781   7.259 -2.0111 -1.2292 -0.7976
11543WAT     H246893   1.771   4.761   7.227 -0.9364  1.0355  1.8331
11543WAT    EPW46894   1.695   4.742   7.220 -0.5486 -0.1420  0.1301
11544WAT      O46895   6.293   2.710   3.681 -0.0185  0.1087  0.3319
11544WAT     H146896   6.357   2.767   3.696 -2.0114  2.8077 -0.6546
11544WAT     H246897   6.331   2.632   3.694  2.8079  1.6140  1.9136
11544WAT    EPW46898   6.308   2.707   3.685  0.1046  0.7298  0.4198
11545WAT      O46899   6.501   2.640   7.491  0.4224  0.2300  0.3487
11545WAT     H146900   6.564   2.616   7.545  0.6322  0.1334  0.0642
11545WAT     H246901   6.504   2.580   7.428 -1.0963 -0.8078  1.1944
11545WAT    EPW46902   6.510   2.628   7.490  0.2290  0.0625  0.4316
11546WAT      O46903   7.377   6.120   6.432  0.7866  0.0448  0.8901
11546WAT     H146904   7.426   6.062   6.390 -0.0409 -0.5155  0.6760
11546WAT     H246905   7.404   6.197   6.400  2.4566 -0.1271  1.7686
11546WAT    EPW46906   7.388   6.123   6.421  0.9111 -0.0634  0.9882
11547WAT      O46907   0.238   2.933   5.650 -0.2651  0.4021  0.4220
11547WAT     H146908   0.165   2.971   5.679  0.4293  1.3134  1.0336
11547WAT     H246909   0.265   2.886   5.718 -1.0055 -1.0894 -0.2602
11547WAT    EPW46910   0.232   2.932   5.664 -0.2719  0.3164  0.4115
11548WAT      O46911   2.393   3.109   5.397  0.0418 -0.1792 -0.3795
11548WAT     H146912   2.306   3.103   5.404  0.0879 -1.4401 -0.7695
11548WAT     H246913   2.412   3.057   5.330  1.0695  0.4105 -0.5638
11548WAT    EPW46914   2.383   3.101   5.388  0.2004 -0.2784 -0.4643
11549WAT      O46915   2.508   1.210   4.327 -0.6129  0.0941  0.1291
11549WAT     H146916   2.516   1.289   4.290 -1.3037 -0.7934 -2.0805
11549WAT     H246917   2.428   1.211   4.360 -1.0285 -0.0154 -0.8380
11549WAT    EPW46918   2.498   1.222   4.326 -0.7764 -0.0532 -0.3402
11550WAT      O46919   1.978   2.118   7.627 -0.4056  0.0509 -0.0363
11550WAT     H146920   2.007   2.090   7.704 -1.5765 -0.1812  0.3329
11550WAT     H246921   1.984   2.205   7.633  0.1237  0.0124  0.0545
11550WAT    EPW46922   1.983   2.127   7.639 -0.5004  0.0109  0.0317
11551WAT      O46923   2.527   1.598   0.815 -0.3893  0.1184 -0.0830
11551WAT     H146924   2.579   1.666   0.798  0.6006 -0.6175 -0.1288
11551WAT     H246925   2.539   1.586   0.901  2.1885 -2.0804 -0.6094
11551WAT    EPW46926   2.537   1.606   0.825  0.1377 -0.3151 -0.1676
11552WAT      O46927   3.042   5.257   6.342 -0.0556  0.1321 -0.3475
11552WAT     H146928   2.973   5.213   6.312  0.1573  0.4117 -1.2829
11552WAT     H246929   3.106   5.236   6.287  0.6815 -0.3095  0.6497
11552WAT    EPW46930   3.041   5.248   6.330  0.0847  0.1082 -0.3384
11553WAT      O46931   2.269   1.203   7.051  0.2806  0.6139 -0.4152
11553WAT     H146932   2.296   1.132   7.094  0.5357  0.6663 -0.4835
11553WAT     H246933   2.206   1.236   7.101  0.6321  0.7194 -0.0436
11553WAT    EPW46934   2.264   1.198   7.064  0.3702  0.6372 -0.3704
11554WAT      O46935   2.377   6.138   0.617  0.3412 -0.1386  0.2570
11554WAT     H146936   2.372   6.102   0.538 -0.2907  1.3503 -0.4233
11554WAT     H246937   2.305   6.188   0.621 -0.1188 -0.8445  2.1315
11554WAT    EPW46938   2.365   6.140   0.606  0.1799 -0.0229  0.4334
11555WAT      O46939   0.231   0.195   6.264 -0.3774  0.0060 -0.2051
11555WAT     H146940   0.295   0.211   6.207 -0.1405  0.6499  0.2223
11555WAT     H246941   0.159   0.191   6.214 -0.1027  0.0061 -0.6080
11555WAT    EPW46942   0.230   0.197   6.248 -0.3018  0.1011 -0.2015
11556WAT      O46943   1.173   5.650   7.384  0.0142 -0.0597  0.3617
11556WAT     H146944   1.224   5.589   7.420 -2.5028 -1.1941  2.3149
11556WAT     H246945   1.114   5.666   7.446 -1.6143  1.6643 -1.5027
11556WAT    EPW46946   1.172   5.644   7.399 -0.5982  0.0274  0.3748
11557WAT      O46947   2.168   0.112   1.170  0.5236  0.5271  0.0555
11557WAT     H146948   2.239   0.130   1.122 -1.1638  3.1178 -1.7007
11557WAT     H246949   2.102   0.139   1.120 -1.5777  0.4809  2.6172
11557WAT    EPW46950   2.169   0.118   1.155 -0.0361  0.9030  0.1745
11558WAT      O46951   0.121   7.452   6.993 -0.1925  0.5377  0.3035
11558WAT     H146952   0.147   7.522   6.947 -0.9528  0.4765 -0.2470
11558WAT     H246953   0.196   7.411   7.012  0.1817  0.8849 -0.3764
11558WAT    EPW46954   0.136   7.456   6.989 -0.2495  0.5800  0.1217
11559WAT      O46955   6.419   5.942   4.930  0.0058 -0.0529  0.1067
11559WAT     H146956   6.399   6.003   4.989  1.6899 -0.2874  0.9885
11559WAT     H246957   6.413   5.868   4.974  1.6821 -0.2046  0.1407
11559WAT    EPW46958   6.415   5.940   4.945  0.5022 -0.1100  0.2420
11560WAT      O46959   2.699   0.096   6.792 -0.1272 -0.0480 -0.2781
11560WAT     H146960   2.719   0.144   6.863  1.2219  0.1557 -0.7544
11560WAT     H246961   2.731   0.144   6.726  2.1102 -1.9452 -0.7192
11560WAT    EPW46962   2.707   0.110   6.793  0.4026 -0.2981 -0.4137
11561WAT      O46963   1.660   0.713   6.831  0.0560 -0.0920 -0.1776
11561WAT     H146964   1.647   0.798   6.843 -1.0485  0.0728 -2.0264
11561WAT     H246965   1.587   0.677   6.861 -0.4431 -0.1373 -1.3628
11561WAT    EPW46966   1.647   0.720   6.837 -0.1809 -0.0744 -0.6258
11562WAT      O46967   0.151   0.789   7.238 -0.3312  0.0353  0.4035
11562WAT     H146968   0.207   0.851   7.213  0.1343  0.3744  2.1555
11562WAT     H246969   0.202   0.724   7.265 -0.7579 -1.9820 -3.0088
11562WAT    EPW46970   0.167   0.789   7.239 -0.3255 -0.2126  0.1582
11563WAT      O46971   5.719   6.429   5.720 -0.3665  0.7391 -0.2636
11563WAT     H146972   5.703   6.465   5.798  2.0114 -0.1725  0.7112
11563WAT     H246973   5.803   6.446   5.707 -0.4180 -0.2518 -2.0625
11563WAT    EPW46974   5.729   6.437   5.730 -0.0229  0.4581 -0.3853
11564WAT      O46975   0.511   2.302   6.513 -0.0750 -0.5397 -0.1498
11564WAT     H146976   0.497   2.238   6.455  1.3501 -0.5037 -0.5632
11564WAT     H246977   0.477   2.271   6.587 -0.1654 -1.4071 -0.5474
11564WAT    EPW46978   0.504   2.288   6.515  0.1222 -0.6625 -0.2696
11565WAT      O46979   6.498   6.746   0.841  0.1242  0.3981  0.9899
11565WAT     H146980   6.541   6.740   0.766 -2.4533  1.2419 -0.6760
11565WAT     H246981   6.536   6.686   0.892  0.9234 -1.3469 -1.5184
11565WAT    EPW46982   6.510   6.737   0.838 -0.1385  0.2650  0.3733
11566WAT      O46983   0.420   2.707   6.369 -0.5820  0.1204  0.2492
11566WAT     H146984   0.371   2.659   6.316 -1.7195 -0.1938  1.5517
11566WAT     H246985   0.481   2.652   6.398 -0.9913 -0.1598  0.5847
11566WAT    EPW46986   0.422   2.692   6.366 -0.8105  0.0326  0.4912
11567WAT      O46987   2.416   0.234   5.379  0.4756 -0.1023 -0.1675
11567WAT     H146988   2.330   0.218   5.382  0.3121  0.7700  0.1276
11567WAT     H246989   2.422   0.307   5.332  1.1173 -0.4846 -0.7010
11567WAT    EPW46990   2.404   0.242   5.372  0.5462 -0.0299 -0.2027
11568WAT      O46991   3.737   2.016   5.196 -0.4591 -0.1464 -0.2700
11568WAT     H146992   3.679   1.955   5.218  0.0492 -0.6590 -0.3570
11568WAT     H246993   3.705   2.047   5.120 -2.0640  1.4392  0.9701
11568WAT    EPW46994   3.723   2.012   5.188 -0.6211  0.0121 -0.0997
11569WAT      O46995   1.392   4.086   4.815  0.2490 -0.5084 -0.3584
11569WAT     H146996   1.372   4.008   4.849 -0.1739 -0.5932 -0.7870
11569WAT     H246997   1.447   4.120   4.873 -1.1209 -0.2777  0.8925
11569WAT    EPW46998   1.397   4.080   4.829 -0.0158 -0.4868 -0.2369
11570WAT      O46999   3.459   7.029   0.101 -0.4743 -0.1126 -0.3458
11570WAT     H147000   3.406   6.975   0.057  0.6745 -0.2681 -1.6038
11570WAT     H247001   3.501   6.976   0.157  0.2317 -0.4643 -1.1776
11570WAT    EPW47002   3.457   7.013   0.103 -0.2003 -0.1875 -0.6545
11571WAT      O47003   2.563   6.534   7.071 -0.0865  0.1138  0.2738
11571WAT     H147004   2.533   6.527   7.153 -1.6825  1.7954 -0.0937
11571WAT     H247005   2.646   6.509   7.077 -0.1456  0.2607  2.4130
11571WAT    EPW47006   2.571   6.529   7.084 -0.3310  0.3839  0.5355
11572WAT      O47007   2.791   0.573   5.472  0.4516  0.4972 -0.2962
11572WAT     H147008   2.709   0.600   5.488 -0.0921 -0.9762 -0.4256
11572WAT     H247009   2.838   0.612   5.534 -0.8340 -1.0861  1.8092
11572WAT    EPW47010   2.786   0.583   5.483  0.1814  0.0456 -0.0043
11573WAT      O47011   6.098   5.969   0.536  0.7040 -0.5203 -0.0164
11573WAT     H147012   6.034   5.910   0.529 -1.5437  1.8236 -1.3701
11573WAT     H247013   6.133   5.971   0.456  0.8805 -0.1742  0.0686
11573WAT    EPW47014   6.093   5.961   0.523  0.3980 -0.1230 -0.2038
11574WAT      O47015   2.865   1.075   5.415 -0.2519 -0.1462 -0.0181
11574WAT     H147016   2.889   1.055   5.497 -0.3757 -2.6226 -0.5026
11574WAT     H247017   2.782   1.049   5.411 -0.2026 -0.1868 -0.9717
11574WAT    EPW47018   2.857   1.068   5.427 -0.2629 -0.5180 -0.2305
11575WAT      O47019   0.798   1.597   4.805  0.3058 -0.4142  0.1184
11575WAT     H147020   0.846   1.524   4.796  3.0570  1.2580  0.1753
11575WAT     H247021   0.828   1.649   4.742 -0.0893  1.4241  1.3849
11575WAT    EPW47022   0.809   1.594   4.794  0.6538  0.1044  0.3139
11576WAT      O47023   3.359   2.435   0.355 -0.0538 -0.1348 -0.0418
11576WAT     H147024   3.444   2.436   0.335 -0.0412 -0.4326 -0.0151
11576WAT     H247025   3.355   2.386   0.427  0.0109  1.7361  1.2948
11576WAT    EPW47026   3.371   2.428   0.362 -0.0424  0.0976  0.1596
11577WAT      O47027   0.556   0.978   4.507  0.2613  0.5507  0.2751
11577WAT     H147028   0.496   1.006   4.564 -1.8310 -0.4349 -1.2634
11577WAT     H247029   0.569   0.895   4.530  0.6506  0.6126  0.2867
11577WAT    EPW47030   0.549   0.970   4.519  0.0097  0.4142  0.0495
11578WAT      O47031   0.681   3.898   4.533 -0.7779  0.4535  0.0028
11578WAT     H147032   0.706   3.950   4.468  0.6904  0.2048  0.3394
11578WAT     H247033   0.756   3.874   4.571 -1.4619 -1.2333  0.3829
11578WAT    EPW47034   0.696   3.902   4.529 -0.6620  0.1676  0.1087
11579WAT      O47035   2.004   2.454   7.025  0.8818 -0.5307  0.3983
11579WAT     H147036   2.015   2.454   6.938  0.6027 -3.0114  0.3080
11579WAT     H247037   2.046   2.383   7.052  0.8862  0.1341  2.3150
11579WAT    EPW47038   2.012   2.444   7.016  0.8412 -0.7990  0.6681
11580WAT      O47039   4.402   3.178   0.161 -0.5119  0.6756  0.3092
11580WAT     H147040   4.371   3.259   0.149 -2.0189 -0.1483 -2.0674
11580WAT     H247041   4.487   3.186   0.141 -0.6659  1.6615 -0.0423
11580WAT    EPW47042   4.410   3.191   0.156 -0.7573  0.6995 -0.0938
11581WAT      O47043   2.067   5.871   2.442  0.0737  0.2088 -0.0702
11581WAT     H147044   2.124   5.931   2.415  0.7286  0.4002  1.5947
11581WAT     H247045   1.998   5.918   2.467  0.6071  0.3450  1.2850
11581WAT    EPW47046   2.065   5.887   2.442  0.2493  0.2572  0.3760
11582WAT      O47047   3.267   5.603   2.447  0.7586 -0.3977 -0.5913
11582WAT     H147048   3.205   5.541   2.449 -1.7522  1.9388  1.5755
11582WAT     H247049   3.240   5.656   2.383  1.4901 -0.2318 -0.7645
11582WAT    EPW47050   3.254   5.602   2.438  0.4958 -0.0280 -0.2968
11583WAT      O47051   1.607   6.895   6.247 -0.4900 -0.1184  0.1957
11583WAT     H147052   1.524   6.874   6.266 -0.6302  1.4854  1.6120
11583WAT     H247053   1.649   6.818   6.248 -1.5977 -0.7354  1.4220
11583WAT    EPW47054   1.601   6.880   6.250 -0.6744  0.0273  0.5861
11584WAT      O47055   3.637   7.140   2.194 -0.0081 -0.0139  0.1488
11584WAT     H147056   3.647   7.069   2.243  1.8077 -0.4773 -0.7747
11584WAT     H247057   3.665   7.114   2.115 -1.5529  1.0765 -0.7974
11584WAT    EPW47058   3.643   7.126   2.190  0.0319  0.0788 -0.1274
11585WAT      O47059   1.545   6.837   4.994  0.3769 -0.0998  0.4677
11585WAT     H147060   1.485   6.895   5.019  1.6742  0.7415  1.7515
11585WAT     H247061   1.505   6.794   4.929 -1.7827  0.0939  1.5611
11585WAT    EPW47062   1.530   6.839   4.988  0.2495  0.0531  0.8188
11586WAT      O47063   3.206   1.473   3.708  0.0858  0.4017  0.4493
11586WAT     H147064   3.153   1.503   3.771 -0.6846  0.7672 -0.3625
11586WAT     H247065   3.247   1.406   3.747 -1.6054 -0.4561  0.8334
11586WAT    EPW47066   3.204   1.467   3.723 -0.2778  0.3290  0.3861
11587WAT      O47067   7.062   1.852   5.481  0.3755 -0.0564  0.0653
11587WAT     H147068   6.997   1.880   5.429 -1.0826 -2.1468  0.6151
11587WAT     H247069   7.104   1.794   5.432  0.6168 -0.1378  0.3671
11587WAT    EPW47070   7.058   1.848   5.466  0.1958 -0.3772  0.1911
11588WAT      O47071   0.025   3.498   7.552 -0.2264  0.1023  0.2531
11588WAT     H147072   0.037   3.581   7.577  0.7466  0.4302 -1.2225
11588WAT     H247073   0.090   3.483   7.497 -0.6952 -1.4897  0.0836
11588WAT    EPW47074   0.036   3.508   7.548 -0.1519 -0.0844  0.0101
11589WAT      O47075   3.690   6.117   1.758 -0.5492 -0.2394 -0.3275
11589WAT     H147076   3.675   6.041   1.798 -3.7823  0.1347 -0.5940
11589WAT     H247077   3.677   6.099   1.674  0.0009  0.3598 -0.5485
11589WAT    EPW47078   3.686   6.103   1.752 -0.9456 -0.0956 -0.3995
11590WAT      O47079   5.759   3.261   4.660 -0.6767 -0.2703 -0.0023
11590WAT     H147080   5.749   3.227   4.581  0.3149  0.9216 -0.6920
11590WAT     H247081   5.825   3.215   4.694  0.1773  0.4252 -0.6471
11590WAT    EPW47082   5.767   3.250   4.653 -0.4041  0.0085 -0.1994
11591WAT      O47083   0.474   2.739   3.999  0.2269  0.1210  0.2050
11591WAT     H147084   0.487   2.820   3.968 -1.7863  0.3575 -0.1328
11591WAT     H247085   0.509   2.687   3.939 -0.8255  0.6836 -0.9353
11591WAT    EPW47086   0.481   2.744   3.986 -0.2260  0.2391 -0.0133
11592WAT      O47087   5.966   2.450   5.957  0.0355  0.0680  1.0460
11592WAT     H147088   6.035   2.402   5.982 -0.2533 -2.4154 -2.2758
11592WAT     H247089   5.897   2.404   5.985 -0.2397 -0.8733 -1.0577
11592WAT    EPW47090   5.966   2.436   5.965 -0.0478 -0.4379  0.2445
11593WAT      O47091   2.011   1.573   3.893  0.2055 -0.4079 -0.1938
11593WAT     H147092   2.003   1.516   3.959  0.8971  0.6136  0.8113
11593WAT     H247093   2.089   1.554   3.859 -1.2454 -2.7648 -2.5871
11593WAT    EPW47094   2.022   1.562   3.898  0.0933 -0.6052 -0.3988
11594WAT      O47095   0.879   3.129   6.487  0.6563 -0.2640  0.1777
11594WAT     H147096   0.963   3.142   6.465  0.3059  1.4040 -0.3429
11594WAT     H247097   0.853   3.067   6.432  0.7215  1.4951 -2.0022
11594WAT    EPW47098   0.888   3.122   6.476  0.6142  0.2423 -0.2212
11595WAT      O47099   1.525   4.258   4.626 -0.8318 -0.0961  0.1892
11595WAT     H147100   1.545   4.209   4.557 -1.0617  0.2890 -0.1571
11595WAT     H247101   1.500   4.200   4.687  2.0341 -0.7141  0.9355
11595WAT    EPW47102   1.525   4.242   4.625 -0.4424 -0.1305  0.2483
11596WAT      O47103   4.815   0.182   3.613 -0.4542 -0.5765  0.2489
11596WAT     H147104   4.873   0.117   3.623  1.3670  0.6290 -1.4850
11596WAT     H247105   4.855   0.250   3.650 -1.6009 -0.0789  0.6042
11596WAT    EPW47106   4.830   0.182   3.620 -0.3545 -0.3249  0.0452
11597WAT      O47107   6.902   4.775   5.116 -0.0244  0.1505 -0.1182
11597WAT     H147108   6.932   4.767   5.197  1.8305  0.3680 -0.7287
11597WAT     H247109   6.839   4.835   5.122 -1.4485 -1.4096  1.4789
11597WAT    EPW47110   6.897   4.783   5.129  0.0392 -0.0478  0.0275
11598WAT      O47111   3.072   5.837   5.608 -0.4339  0.4836  0.2329
11598WAT     H147112   3.155   5.820   5.592 -0.8962  0.0657 -2.0142
11598WAT     H247113   3.073   5.873   5.688  2.1522  2.5261 -0.5852
11598WAT    EPW47114   3.084   5.840   5.618 -0.1202  0.7236 -0.2199
11599WAT      O47115   3.243   5.950   3.448  0.0155 -0.3767 -0.6651
11599WAT     H147116   3.248   5.950   3.535  0.3215 -0.1411 -0.6806
11599WAT     H247117   3.175   6.002   3.431  1.7383  2.0207 -0.6451
11599WAT    EPW47118   3.233   5.957   3.458  0.3152  0.0123 -0.6644
11600WAT      O47119   1.775   0.286   4.503  0.4503 -0.6822  0.3967
11600WAT     H147120   1.739   0.304   4.581 -1.1346 -3.5791  0.4609
11600WAT     H247121   1.848   0.242   4.524  0.6848 -0.3799  0.2260
11600WAT    EPW47122   1.780   0.282   4.518  0.2508 -1.0655  0.3810
11601WAT      O47123   5.751   7.543   0.198 -0.0619 -0.5940 -0.0193
11601WAT     H147124   5.776   7.490   0.263 -1.2038 -1.3604 -0.1664
11601WAT     H247125   5.664   7.539   0.202 -0.1451  0.0011 -1.0823
11601WAT    EPW47126   5.742   7.534   0.208 -0.2429 -0.6193 -0.1980
11602WAT      O47127   5.498   2.070   4.749  0.5125 -0.1307  0.2342
11602WAT     H147128   5.444   2.004   4.730  0.6028  0.0102 -0.5390
11602WAT     H247129   5.577   2.033   4.743  0.5928  0.1640 -0.7687
11602WAT    EPW47130   5.502   2.054   4.745  0.5377 -0.0663 -0.0282
11603WAT      O47131   2.492   1.095   7.563  0.5742 -0.2481  0.4125
11603WAT     H147132   2.507   1.121   7.481  0.0258  1.1439  0.7295
11603WAT     H247133   2.451   1.163   7.599 -2.3095 -2.0303  0.8986
11603WAT    EPW47134   2.488   1.109   7.556  0.0672 -0.3057  0.5312
11604WAT      O47135   3.810   2.646   0.666  0.4103 -0.2384  0.5031
11604WAT     H147136   3.767   2.596   0.723 -0.3218 -0.2962 -0.0795
11604WAT     H247137   3.886   2.606   0.655  0.7836  0.0729  1.8521
11604WAT    EPW47138   3.814   2.633   0.673  0.3573 -0.2010  0.6163
11605WAT      O47139   3.511   0.399   4.175  0.2173  0.1455  0.0360
11605WAT     H147140   3.535   0.347   4.109  1.7707  0.8623  0.0007
11605WAT     H247141   3.585   0.417   4.216 -0.6738  0.0000  1.8137
11605WAT    EPW47142   3.525   0.394   4.171  0.3151  0.2299  0.2934
11606WAT      O47143   1.997   4.670   3.738  0.1167 -0.0049  1.0253
11606WAT     H147144   1.929   4.703   3.694  2.5172  3.1283 -0.7307
11606WAT     H247145   2.038   4.621   3.679  0.0256 -0.9973  1.7542
11606WAT    EPW47146   1.993   4.668   3.723  0.4579  0.3113  0.8736
11607WAT      O47147   7.582   0.209   3.994  0.1170  0.0522  0.2510
11607WAT     H147148   7.607   0.127   4.014 -2.3190 -0.8259  0.0899
11607WAT     H247149   7.497   0.210   4.016 -0.3121  2.0512 -1.2245
11607WAT    EPW47150   7.573   0.197   4.000 -0.3062  0.2178  0.0093
11608WAT      O47151   0.629   1.989   5.664  0.6260  0.0645 -0.8724
11608WAT     H147152   0.689   1.931   5.689  0.9043 -0.2198 -2.1203
11608WAT     H247153   0.615   1.969   5.580 -0.6791  0.6008 -0.8074
11608WAT    EPW47154   0.636   1.977   5.655  0.4743  0.1017 -1.0472
11609WAT      O47155   1.620   7.160   2.475 -0.4648  0.1933  0.0404
11609WAT     H147156   1.600   7.088   2.520 -1.9209 -0.0845 -0.9855
11609WAT     H247157   1.629   7.131   2.393 -0.2141  1.0538 -0.2476
11609WAT    EPW47158   1.618   7.145   2.470 -0.6428  0.2794 -0.1537
11610WAT      O47159   5.216   3.954   2.666 -0.2672 -0.1458  0.0467
11610WAT     H147160   5.203   4.031   2.628  0.1148 -0.8604 -1.5827
11610WAT     H247161   5.208   3.972   2.751 -1.6390  1.3902 -0.3698
11610WAT    EPW47162   5.213   3.968   2.673 -0.4134 -0.0245 -0.2555
11611WAT      O47163   3.409   3.136   0.975  0.3411  0.3667 -0.8469
11611WAT     H147164   3.385   3.203   0.925  1.6499  1.9566  0.5162
11611WAT     H247165   3.336   3.117   1.019  0.1513  1.5040 -0.6240
11611WAT    EPW47166   3.395   3.143   0.974  0.5064  0.7696 -0.6126
11612WAT      O47167   3.099   3.474   1.962  0.5946  0.8688 -0.5022
11612WAT     H147168   3.015   3.454   1.951  0.5154  0.9823 -0.1155
11612WAT     H247169   3.133   3.402   1.996  1.0313  0.1913 -2.2553
11612WAT    EPW47170   3.091   3.461   1.965  0.6474  0.7855 -0.7041
11613WAT      O47171   6.184   2.087   3.960 -0.3552 -0.5879 -0.4093
11613WAT     H147172   6.250   2.076   4.016 -1.0318 -0.1570  0.5022
11613WAT     H247173   6.163   2.006   3.937 -0.4191 -0.8105  0.4031
11613WAT    EPW47174   6.190   2.073   3.965 -0.4646 -0.5571 -0.1547
11614WAT      O47175   5.800   0.471   3.816  0.2322  0.6344 -0.6891
11614WAT     H147176   5.771   0.455   3.897  2.7478 -1.1755 -0.0325
11614WAT     H247177   5.806   0.558   3.814 -1.3552  0.8245  0.4552
11614WAT    EPW47178   5.797   0.482   3.828  0.3693  0.3951 -0.4230
11615WAT      O47179   1.803   1.142   5.342 -0.5005 -0.1608 -0.0758
11615WAT     H147180   1.740   1.108   5.292 -0.3640 -2.1577  1.0076
11615WAT     H247181   1.861   1.173   5.284 -2.2307  1.3633 -1.0886
11615WAT    EPW47182   1.803   1.141   5.326 -0.7359 -0.2307 -0.0654
11616WAT      O47183   7.465   2.945   5.790 -0.3863 -0.1570 -0.2990
11616WAT     H147184   7.431   3.026   5.792 -1.4598 -0.5801 -0.8901
11616WAT     H247185   7.397   2.895   5.769  0.2963 -1.2120 -0.0403
11616WAT    EPW47186   7.450   2.950   5.787 -0.4440 -0.3754 -0.3481
11617WAT      O47187   1.833   0.517   5.894 -0.2893 -0.1643  0.0706
11617WAT     H147188   1.784   0.574   5.849  0.0116 -1.8015 -2.5814
11617WAT     H247189   1.914   0.546   5.882 -0.1035 -1.2084 -1.5795
11617WAT    EPW47190   1.837   0.529   5.886 -0.2174 -0.5604 -0.5649
11618WAT      O47191   5.656   2.275   2.870  0.1955  0.2948  0.1959
11618WAT     H147192   5.741   2.285   2.850  0.1340 -0.3201 -0.3924
11618WAT     H247193   5.615   2.301   2.797 -0.0766 -0.6871 -0.0128
11618WAT    EPW47194   5.662   2.280   2.856  0.1462  0.0589  0.0782
11619WAT      O47195   0.264   2.251   6.244  0.2581  0.1901  0.1826
11619WAT     H147196   0.312   2.202   6.298 -0.0153  0.2745  0.5074
11619WAT     H247197   0.315   2.261   6.174  1.0419  0.9657  0.8492
11619WAT    EPW47198   0.278   2.245   6.241  0.3335  0.3172  0.3290
11620WAT      O47199   0.350   6.612   5.623 -0.3486 -0.1501 -0.3929
11620WAT     H147200   0.395   6.665   5.570  0.3633 -0.7272 -0.3809
11620WAT     H247201   0.358   6.534   5.585 -1.8326 -0.1781 -0.6982
11620WAT    EPW47202   0.358   6.608   5.610 -0.4627 -0.2395 -0.4363
11621WAT      O47203   0.825   1.346   4.480 -0.0465  0.3597 -0.0768
11621WAT     H147204   0.891   1.392   4.514  0.3995  0.4355 -1.0211
11621WAT     H247205   0.825   1.369   4.396 -0.9912  0.0114 -0.1846
11621WAT    EPW47206   0.835   1.356   4.473 -0.1202  0.3195 -0.2322
11622WAT      O47207   0.962   4.347   6.815 -0.4018  0.3202  0.4143
11622WAT     H147208   1.001   4.389   6.880  0.2850  3.1776 -1.6563
11622WAT     H247209   1.016   4.280   6.799 -0.3676 -0.1826  2.3984
11622WAT    EPW47210   0.976   4.343   6.822 -0.2952  0.6680  0.4015
11623WAT      O47211   0.182   3.251   4.644  0.0133 -0.2187  0.2299
11623WAT     H147212   0.265   3.254   4.672  0.2588  2.1056 -0.5047
11623WAT     H247213   0.178   3.317   4.586 -2.1355 -0.8190 -0.3869
11623WAT    EPW47214   0.194   3.261   4.639 -0.2678  0.0360  0.0303
11624WAT      O47215   5.060   0.622   5.504 -0.0956 -0.7266 -0.2080
11624WAT     H147216   4.994   0.618   5.560 -0.1155 -0.1261 -0.1804
11624WAT     H247217   5.100   0.545   5.513 -0.6814 -1.0168 -0.0927
11624WAT    EPW47218   5.056   0.610   5.514 -0.1851 -0.6808 -0.1869
11625WAT      O47219   2.518   4.252   2.350 -0.2393  0.4087 -0.0746
11625WAT     H147220   2.461   4.245   2.415 -1.0368  1.5196 -0.6268
11625WAT     H247221   2.484   4.201   2.287 -1.6771  2.4871 -1.0863
11625WAT    EPW47222   2.504   4.243   2.350 -0.5695  0.8798 -0.3056
11626WAT      O47223   7.306   3.101   5.512  0.0248 -0.0230 -0.3305
11626WAT     H147224   7.233   3.055   5.520 -0.2795  0.5570  0.3998
11626WAT     H247225   7.311   3.145   5.588  0.6895  0.5743 -0.7054
11626WAT    EPW47226   7.296   3.101   5.525  0.0780  0.1509 -0.2780
11627WAT      O47227   2.922   4.318   7.162  0.3781  0.5425  0.2233
11627WAT     H147228   2.931   4.362   7.088 -0.3622  0.8991  0.3329
11627WAT     H247229   2.944   4.236   7.141 -0.2363  0.5564 -0.5023
11627WAT    EPW47230   2.927   4.312   7.148  0.1780  0.5973  0.1323
11628WAT      O47231   3.064   4.406   3.189  0.4003  0.1227  0.5650
11628WAT     H147232   3.022   4.346   3.235  1.4523  0.3129  1.8332
11628WAT     H247233   3.028   4.401   3.109  0.0014 -1.6843  0.8303
11628WAT    EPW47234   3.053   4.397   3.184  0.4968 -0.1162  0.7915
11629WAT      O47235   1.262   2.358   6.993 -0.0907 -0.1979  0.1044
11629WAT     H147236   1.232   2.434   7.024  1.2352  0.7068 -0.7559
11629WAT     H247237   1.306   2.381   6.921  0.4537 -1.7685 -0.0956
11629WAT    EPW47238   1.264   2.373   6.987  0.1856 -0.2963 -0.0523
11630WAT      O47239   0.760   3.546   5.372 -0.0295 -0.1155 -0.6151
11630WAT     H147240   0.703   3.548   5.305  1.2930 -0.4855 -1.8154
11630WAT     H247241   0.792   3.626   5.374 -1.7770  0.6142  1.2096
11630WAT    EPW47242   0.756   3.558   5.362 -0.0923 -0.0624 -0.5228
11631WAT      O47243   1.821   2.840   4.413  0.5433 -0.2815  0.5242
11631WAT     H147244   1.827   2.830   4.326  0.8263  1.5231  0.2974
11631WAT     H247245   1.893   2.801   4.442  0.9140 -0.1212 -0.1410
11631WAT    EPW47246   1.833   2.833   4.404  0.6398  0.0087  0.3925
11632WAT      O47247   0.450   3.055   6.721  0.0418  0.1581  0.2471
11632WAT     H147248   0.432   2.976   6.690  0.8887 -0.1322  0.4760
11632WAT     H247249   0.441   3.046   6.807  0.0669  0.3320  0.2686
11632WAT    EPW47250   0.446   3.042   6.729  0.1706  0.1409  0.2841
11633WAT      O47251   4.219   5.579   1.334 -0.3653 -0.1271 -0.2482
11633WAT     H147252   4.215   5.639   1.397 -2.7215  0.4494 -0.8519
11633WAT     H247253   4.288   5.530   1.356 -0.6759  0.4781  2.3569
11633WAT    EPW47254   4.229   5.581   1.346 -0.7593  0.0475  0.0474
11634WAT      O47255   2.090   5.119   4.834  0.6567  1.0016 -0.1217
11634WAT     H147256   2.052   5.177   4.886  2.6376  1.6186  0.7411
11634WAT     H247257   2.030   5.103   4.772 -1.3593  1.0627  1.7151
11634WAT    EPW47258   2.076   5.125   4.832  0.6515  1.1017  0.2771
11635WAT      O47259   0.559   6.668   6.191  0.2351  0.0044 -0.0180
11635WAT     H147260   0.602   6.601   6.228  0.8758  1.1362  1.3773
11635WAT     H247261   0.552   6.643   6.108  1.3393 -1.3634  0.2435
11635WAT    EPW47262   0.564   6.654   6.184  0.4929 -0.0304  0.2268
11636WAT      O47263   5.959   6.061   4.388 -0.0132  0.0156 -0.1620
11636WAT     H147264   5.969   5.982   4.423 -1.6839 -0.5424 -0.8642
11636WAT     H247265   5.873   6.073   4.389  0.2076  1.8561 -0.0521
11636WAT    EPW47266   5.948   6.051   4.394 -0.2274  0.2050 -0.2495
11637WAT      O47267   6.950   5.938   4.201 -0.0075 -0.1042  0.3556
11637WAT     H147268   7.007   5.883   4.165 -0.3269 -0.4713  0.4056
11637WAT     H247269   6.873   5.900   4.187 -0.2424  0.3905  0.2855
11637WAT    EPW47270   6.947   5.924   4.194 -0.0894 -0.0854  0.3526
11638WAT      O47271   1.648   1.200   7.286 -0.5055  0.0338 -0.5941
11638WAT     H147272   1.711   1.196   7.346  0.2675 -1.1119 -1.4254
11638WAT     H247273   1.619   1.282   7.292 -1.1365 -0.2957  1.9700
11638WAT    EPW47274   1.653   1.212   7.296 -0.4846 -0.1841 -0.3381
11639WAT      O47275   1.862   5.740   4.606 -0.1565 -0.0986  0.6488
11639WAT     H147276   1.919   5.802   4.629  0.5891 -0.5451  0.0362
11639WAT     H247277   1.909   5.687   4.555 -1.0796 -0.5587  0.2588
11639WAT    EPW47278   1.877   5.742   4.602 -0.1827 -0.2325  0.5007
11640WAT      O47279   1.270   1.501   4.184 -0.1835  0.0429  0.7139
11640WAT     H147280   1.242   1.546   4.115 -1.5023 -2.8477 -0.7644
11640WAT     H247281   1.224   1.535   4.250 -2.5522 -0.3104 -0.6546
11640WAT    EPW47282   1.259   1.513   4.184 -0.7282 -0.4363  0.2934
11641WAT      O47283   6.222   0.011   4.217  0.6577 -0.3238  0.0183
11641WAT     H147284   6.162  -0.038   4.257  0.5542 -0.3599 -0.1798
11641WAT     H247285   6.293   0.000   4.266  0.0318  1.2347  1.4058
11641WAT    EPW47286   6.223   0.003   4.230  0.5500 -0.0989  0.1940
11642WAT      O47287   4.968   6.633   4.265 -0.3061 -0.1448 -0.2916
11642WAT     H147288   4.896   6.595   4.236 -0.6385 -0.4717  0.9022
11642WAT     H247289   5.015   6.648   4.193 -0.7428 -1.6212 -0.9025
11642WAT    EPW47290   4.964   6.630   4.250 -0.4197 -0.4112 -0.2055
11643WAT      O47291   1.787   6.966   7.617  0.1141  0.2477  0.0564
11643WAT     H147292   1.726   6.941   7.674  0.6774 -1.2852  0.0372
11643WAT     H247293   1.774   7.052   7.610  0.1515  0.5572  2.6345
11643WAT    EPW47294   1.776   6.975   7.624  0.2028  0.0669  0.4344
11644WAT      O47295   2.593   0.173   3.072  0.1636  0.0350 -0.2171
11644WAT     H147296   2.632   0.245   3.100 -0.1298  0.7661 -1.5723
11644WAT     H247297   2.628   0.160   2.993  1.2425 -2.1331  0.5490
11644WAT    EPW47298   2.604   0.182   3.064  0.2796 -0.1773 -0.3041
11645WAT      O47299   0.848   2.301   5.054 -0.2563 -0.0512  0.2732
11645WAT     H147300   0.854   2.313   5.140 -0.3861  1.8551  0.0626
11645WAT     H247301   0.908   2.355   5.021  0.0044 -0.9769 -0.8369
11645WAT    EPW47302   0.857   2.311   5.062 -0.2369  0.0937  0.0781
11646WAT      O47303   0.599   2.847   6.198  0.6490  0.0125 -0.3435
11646WAT     H147304   0.568   2.782   6.248 -1.7455  0.3877 -1.2210
11646WAT     H247305   0.652   2.806   6.142  1.5237 -0.7199  0.9518
11646WAT    EPW47306   0.603   2.831   6.197  0.4245 -0.0403 -0.2818
11647WAT      O47307   0.905   2.540   5.832  0.1626  0.4736 -0.2738
11647WAT     H147308   0.913   2.478   5.893 -0.3503  0.5039 -0.1746
11647WAT     H247309   0.894   2.495   5.758  0.5024  0.4412 -0.3075
11647WAT    EPW47310   0.905   2.524   5.830  0.1370  0.4733 -0.2641
11648WAT      O47311   3.839   2.896   5.561 -0.9984  0.3893 -0.3606
11648WAT     H147312   3.901   2.839   5.540 -1.7625 -0.4182 -0.4779
11648WAT     H247313   3.847   2.958   5.501 -0.4642  0.1704 -0.5173
11648WAT    EPW47314   3.849   2.897   5.549 -1.0324  0.2377 -0.4011
11649WAT      O47315   7.226   4.828   5.101  0.3226 -0.2226  0.1207
11649WAT     H147316   7.206   4.810   5.184 -0.3546  1.1773  0.2970
11649WAT     H247317   7.149   4.822   5.060  0.7471 -1.5036 -0.5609
11649WAT    EPW47318   7.211   4.824   5.107  0.2853 -0.2050  0.0461
11650WAT      O47319   2.070   4.258   2.041  0.4496  0.0725  0.5682
11650WAT     H147320   1.995   4.265   1.997  1.0002  0.9351 -0.2857
11650WAT     H247321   2.061   4.313   2.107  0.5660  0.6684  0.0958
11650WAT    EPW47322   2.058   4.267   2.044  0.5482  0.2879  0.3723
11651WAT      O47323   4.041   5.607   1.659  0.2254  0.3070  0.0162
11651WAT     H147324   4.036   5.521   1.650 -1.6747  0.4729 -0.9731
11651WAT     H247325   4.083   5.617   1.735 -0.3966 -1.4945  0.6416
11651WAT    EPW47326   4.047   5.596   1.669 -0.1472  0.0654 -0.0376
11652WAT      O47327   0.598   6.374   4.019 -0.4676  0.2848  0.1475
11652WAT     H147328   0.608   6.369   3.932  1.7851 -0.0367  0.3693
11652WAT     H247329   0.623   6.456   4.038 -1.1904  0.4381  0.4981
11652WAT    EPW47330   0.603   6.386   4.009 -0.2416  0.2600  0.2321
11653WAT      O47331   0.970   7.517   6.230 -0.2876 -0.2119  0.0691
11653WAT     H147332   0.922   7.515   6.157  0.1260  0.0525 -0.2067
11653WAT     H247333   0.925   7.464   6.284 -0.7385 -0.1946 -0.2800
11653WAT    EPW47334   0.956   7.509   6.227 -0.2931 -0.1703 -0.0232
11654WAT      O47335   5.115   0.856   3.345 -0.0223  0.1320  0.1278
11654WAT     H147336   5.098   0.941   3.345 -0.8579 -0.0219  1.1778
11654WAT     H247337   5.108   0.833   3.429 -2.0249 -1.3863 -0.3671
11654WAT    EPW47338   5.112   0.865   3.357 -0.4416 -0.1150  0.2098
11655WAT      O47339   0.820   4.146   4.030 -0.3628 -0.2667  0.0257
11655WAT     H147340   0.744   4.182   4.007  0.0652 -0.2954 -1.5804
11655WAT     H247341   0.878   4.188   3.980  0.8324  0.4046  1.8788
11655WAT    EPW47342   0.817   4.157   4.019 -0.1230 -0.1717  0.0622
11656WAT      O47343   6.893   5.647   0.151  0.1223 -0.0244 -0.2170
11656WAT     H147344   6.894   5.678   0.233  1.6790 -0.4930 -0.0335
11656WAT     H247345   6.891   5.560   0.163  1.3753 -0.1271 -0.6396
11656WAT    EPW47346   6.893   5.639   0.165  0.5374 -0.1088 -0.2523
11657WAT      O47347   1.200   7.526   0.572 -0.2481  0.3093 -0.2158
11657WAT     H147348   1.227   7.553   0.494 -0.2439  0.7031 -0.0827
11657WAT     H247349   1.238   7.448   0.582 -1.1401 -0.2521 -1.0792
11657WAT    EPW47350   1.210   7.518   0.562 -0.3793  0.2846 -0.3237
11658WAT      O47351   2.558   2.282   4.329  0.4507 -0.1011 -0.2103
11658WAT     H147352   2.546   2.232   4.258  0.5920 -0.1278 -0.2154
11658WAT     H247353   2.496   2.253   4.384 -0.5090  0.7788 -0.7762
11658WAT    EPW47354   2.547   2.270   4.327  0.3298  0.0249 -0.2947
11659WAT      O47355   1.701   0.238   3.213  0.3054 -0.3145 -0.3467
11659WAT     H147356   1.654   0.165   3.219 -0.1624 -0.0670 -0.9068
11659WAT     H247357   1.752   0.236   3.283 -1.1385 -0.1750  0.7447
11659WAT    EPW47358   1.702   0.227   3.224  0.0230 -0.2573 -0.2682
11660WAT      O47359   2.830   4.452   7.546  0.3485 -0.6848  0.1983
11660WAT     H147360   2.784   4.390   7.506  1.7240 -2.3085  1.0132
11660WAT     H247361   2.898   4.464   7.492  1.1214 -1.3647  0.9941
11660WAT    EPW47362   2.833   4.445   7.532  0.6659 -1.0251  0.4363
11661WAT      O47363   3.893   1.765   4.893 -0.6588  0.9215  0.7540
11661WAT     H147364   3.819   1.782   4.937 -2.2092 -1.4924 -0.6618
11661WAT     H247365   3.893   1.824   4.829 -1.7983  0.5109  0.3506
11661WAT    EPW47366   3.882   1.776   4.890 -1.0562  0.5042  0.4853
11662WAT      O47367   1.559   1.676   5.619  0.1527  0.2203  0.6591
11662WAT     H147368   1.588   1.644   5.543  0.2166 -0.4029  0.9386
11662WAT     H247369   1.619   1.736   5.640  0.3492  0.1111  0.4105
11662WAT    EPW47370   1.572   1.680   5.611  0.1912  0.1121  0.6637
11663WAT      O47371   0.977   6.768   5.000 -0.3964 -0.1181  0.6893
11663WAT     H147372   1.040   6.755   5.058  1.0548  1.2057 -0.5003
11663WAT     H247373   0.923   6.824   5.040  0.2926  0.3561  0.9591
11663WAT    EPW47374   0.978   6.774   5.014 -0.0802  0.1475  0.5534
11664WAT      O47375   3.421   1.090   3.380  0.5930  0.0266  0.3269
11664WAT     H147376   3.441   1.022   3.330 -1.8254 -1.2953  1.0117
11664WAT     H247377   3.360   1.132   3.334  2.1667  1.9122 -0.1613
11664WAT    EPW47378   3.415   1.086   3.366  0.4683  0.1098  0.3559
11665WAT      O47379   5.194   6.867   6.148  0.0327  0.4221  0.7251
11665WAT     H147380   5.230   6.879   6.069  1.9032 -0.8034  1.3287
11665WAT     H247381   5.129   6.811   6.132 -0.1718  0.8625 -0.0566
11665WAT    EPW47382   5.189   6.860   6.134  0.2788  0.3061  0.6988
11666WAT      O47383   1.790   2.716   6.599  0.2146  0.9375 -0.0386
11666WAT     H147384   1.858   2.748   6.555 -0.2633  1.4720 -0.4099
11666WAT     H247385   1.791   2.761   6.674  2.4603 -1.6298  1.6250
11666WAT    EPW47386   1.800   2.728   6.604  0.4757  0.6372  0.1523
11667WAT      O47387   0.759   5.360   6.010 -0.2428 -0.1715 -0.4912
11667WAT     H147388   0.827   5.398   6.050 -1.1772 -0.7867  1.8699
11667WAT     H247389   0.772   5.275   6.023 -1.1958 -0.3208 -0.4437
11667WAT    EPW47390   0.771   5.353   6.018 -0.5216 -0.2844 -0.1354
11668WAT      O47391   0.456   7.321   5.770  0.1169 -0.1738 -0.0885
11668WAT     H147392   0.540   7.334   5.791  0.1692  1.8896 -1.2488
11668WAT     H247393   0.460   7.268   5.701  0.3199 -1.5532  0.9434
11668WAT    EPW47394   0.469   7.315   5.763  0.1546 -0.0727 -0.1075
11669WAT      O47395   1.895   2.704   0.531  0.2956 -0.3916 -0.6533
11669WAT     H147396   1.933   2.638   0.573 -0.6306 -0.8052 -0.4331
11669WAT     H247397   1.898   2.679   0.447  1.8082  0.2627 -0.8166
11669WAT    EPW47398   1.901   2.691   0.524  0.3823 -0.3561 -0.6449
11670WAT      O47399   3.449   2.514   2.486  0.2382 -0.1682  0.8168
11670WAT     H147400   3.377   2.538   2.442  0.5922 -0.5413  0.0077
11670WAT     H247401   3.478   2.589   2.520  0.9296  0.4809 -1.0742
11670WAT    EPW47402   3.443   2.529   2.484  0.3927 -0.1274  0.4180
11671WAT      O47403   2.984   2.020   1.340  0.0445  0.0257 -0.2376
11671WAT     H147404   2.962   2.082   1.397 -0.1062  1.4890 -1.8093
11671WAT     H247405   2.907   1.992   1.309  0.1627  1.0900 -1.5753
11671WAT    EPW47406   2.969   2.025   1.344  0.0397  0.3991 -0.6674
11672WAT      O47407   6.098   1.957   4.676 -0.1750  0.1341 -0.8660
11672WAT     H147408   6.073   1.915   4.749  2.3210 -2.7068 -1.4295
11672WAT     H247409   6.152   2.018   4.705 -0.9887  0.5768 -0.2294
11672WAT    EPW47410   6.102   1.960   4.691  0.0735 -0.2201 -0.8552
11673WAT      O47411   3.335   2.628   5.935  0.3135 -0.8338  0.1190
11673WAT     H147412   3.327   2.685   5.870  0.1685 -0.8820  0.0949
11673WAT     H247413   3.265   2.642   5.985  1.8479  1.2711  1.9025
11673WAT    EPW47414   3.323   2.638   5.933  0.5188 -0.5300  0.3789
11674WAT      O47415   7.227   0.915   4.344 -0.1229 -0.2911  0.4322
11674WAT     H147416   7.156   0.941   4.300 -2.2877  0.7819  4.0693
11674WAT     H247417   7.222   0.828   4.341 -0.7206 -0.2399 -0.6014
11674WAT    EPW47418   7.216   0.906   4.337 -0.5310 -0.1250  0.8168
11675WAT      O47419   1.247   3.638   4.810  0.0195 -0.3529  0.0172
11675WAT     H147420   1.275   3.695   4.750  0.4983  0.2585  0.7889
11675WAT     H247421   1.316   3.587   4.824 -0.5134 -1.3601 -0.9159
11675WAT    EPW47422   1.261   3.639   4.803  0.0115 -0.4114 -0.0067
11676WAT      O47423   3.951   2.631   5.233  0.5984 -0.1704  0.8203
11676WAT     H147424   3.960   2.679   5.161 -1.0735 -1.5207 -0.3860
11676WAT     H247425   3.884   2.669   5.275 -0.6249 -1.2640 -0.0590
11676WAT    EPW47426   3.942   2.644   5.229  0.1707 -0.5314  0.5122
11677WAT      O47427   7.227   3.044   6.789 -0.0831 -0.1126 -0.6087
11677WAT     H147428   7.150   3.027   6.825  0.4767  0.4283  0.9127
11677WAT     H247429   7.222   3.128   6.767  0.7394  0.4959  1.3541
11677WAT    EPW47430   7.215   3.054   6.791  0.1211  0.0572 -0.0940
11678WAT      O47431   4.054   5.393   2.546  0.1330 -0.2720  0.2987
11678WAT     H147432   3.992   5.332   2.555 -1.0667  0.9287  0.5928
11678WAT     H247433   4.091   5.398   2.625 -0.2598 -0.1301  0.4770
11678WAT    EPW47434   4.050   5.385   2.559 -0.1023 -0.0737  0.3685
11679WAT      O47435   2.290   4.370   6.650  0.0587  0.3294 -0.1330
11679WAT     H147436   2.369   4.337   6.632  0.5728  0.1599  2.2164
11679WAT     H247437   2.249   4.366   6.573  3.0393  2.6130 -2.0805
11679WAT    EPW47438   2.295   4.364   6.636  0.5749  0.6417 -0.0737
11680WAT      O47439   2.326   2.302   4.905  0.3976  0.3762 -0.1943
11680WAT     H147440   2.377   2.269   4.843  0.7577  1.6792 -0.6377
11680WAT     H247441   2.375   2.365   4.940 -0.7365  1.3834 -0.3600
11680WAT    EPW47442   2.341   2.307   4.901  0.2833  0.7175 -0.2843
11681WAT      O47443   5.725   2.449   5.333  0.2673  0.2602 -0.0488
11681WAT     H147444   5.743   2.372   5.370  0.3408  0.0419 -0.5318
11681WAT     H247445   5.646   2.469   5.363 -0.3554 -0.6867 -1.0386
11681WAT    EPW47446   5.716   2.441   5.343  0.1862  0.0881 -0.2664
11682WAT      O47447   3.783   0.178   1.819  0.3155  0.1085 -0.0220
11682WAT     H147448   3.797   0.188   1.733  0.3149 -0.1344 -0.0523
11682WAT     H247449   3.790   0.259   1.851  1.3574  0.0669 -0.1005
11682WAT    EPW47450   3.786   0.191   1.811  0.4693  0.0665 -0.0380
11683WAT      O47451   2.877   6.874   3.468  0.5371  0.3074 -0.0473
11683WAT     H147452   2.848   6.911   3.395 -0.5286 -0.2925  0.0499
11683WAT     H247453   2.958   6.848   3.448  0.5697  0.9207 -0.7283
11683WAT    EPW47454   2.884   6.876   3.454  0.3845  0.3094 -0.1335
11684WAT      O47455   3.289   1.130   4.287 -0.3760 -0.2350 -0.0895
11684WAT     H147456   3.334   1.197   4.319 -0.6257  0.6286 -1.4507
11684WAT     H247457   3.299   1.067   4.347  1.1528  0.5159  0.4866
11684WAT    EPW47458   3.297   1.130   4.300 -0.1871  0.0035 -0.2055
11685WAT      O47459   2.475   5.250   5.900  0.3862 -0.1652  0.2671
11685WAT     H147460   2.520   5.215   5.966  1.9481 -1.1310 -1.2100
11685WAT     H247461   2.494   5.198   5.832 -1.4153  0.5765 -0.8924
11685WAT    EPW47462   2.485   5.237   5.899  0.3508 -0.1983 -0.1224
11686WAT      O47463   3.343   7.596   5.364  0.2830  0.1152 -0.1498
11686WAT     H147464   3.407   7.577   5.309 -0.6623  0.6502 -1.5054
11686WAT     H247465   3.292   7.651   5.318 -0.9014  0.0639  1.0227
11686WAT    EPW47466   3.345   7.602   5.349 -0.0316  0.1867 -0.1768
11687WAT      O47467   6.254   4.413   5.571 -0.6232  0.5373  0.1142
11687WAT     H147468   6.242   4.354   5.508 -1.2152 -1.9609  2.4072
11687WAT     H247469   6.324   4.383   5.614 -1.1801  1.2555  1.5814
11687WAT    EPW47470   6.262   4.400   5.568 -0.7929  0.2743  0.6696
11688WAT      O47471   7.306   1.683   4.277  0.1300  0.3628 -0.0473
11688WAT     H147472   7.345   1.734   4.335  0.0241 -0.8681  1.1586
11688WAT     H247473   7.356   1.690   4.206  1.5007  0.2328  0.8797
11688WAT    EPW47474   7.319   1.691   4.275  0.3169  0.1618  0.2678
11689WAT      O47475   0.457   5.214   3.676  0.1277 -0.9118 -0.4523
11689WAT     H147476   0.518   5.224   3.615  1.5143 -2.7139  0.5368
11689WAT     H247477   0.419   5.138   3.656 -0.7896 -0.5335 -0.2040
11689WAT    EPW47478   0.460   5.204   3.664  0.1970 -1.1221 -0.2695
11690WAT      O47479   5.891   2.999   7.587  0.2833 -0.3119  0.6736
11690WAT     H147480   5.910   2.915   7.576  1.1586 -0.2024  1.2291
11690WAT     H247481   5.804   3.002   7.581  0.2874 -1.1613  0.0890
11690WAT    EPW47482   5.881   2.987   7.585  0.4132 -0.4212  0.6693
11691WAT      O47483   7.225   7.428   6.800 -0.4797  0.3175  0.2908
11691WAT     H147484   7.147   7.389   6.799 -0.8622  1.0404 -0.9174
11691WAT     H247485   7.248   7.429   6.715  1.1472 -0.4589  0.6899
11691WAT    EPW47486   7.217   7.422   6.787 -0.2959  0.3096  0.1713
11692WAT      O47487   2.848   0.360   3.055 -0.1685 -0.1412  0.4769
11692WAT     H147488   2.904   0.294   3.049  0.0780 -0.0003  1.0875
11692WAT     H247489   2.832   0.365   3.141  0.4856  1.1351  0.5459
11692WAT    EPW47490   2.854   0.351   3.067 -0.0354  0.0681  0.5773
11693WAT      O47491   6.847   4.272   7.431  0.6363 -0.5039 -0.1145
11693WAT     H147492   6.857   4.266   7.518 -1.2508 -0.9039  0.1060
11693WAT     H247493   6.863   4.191   7.403  1.3730 -0.3460 -0.1702
11693WAT    EPW47494   6.851   4.259   7.440  0.4663 -0.5396 -0.0901
11694WAT      O47495   6.247   1.046   4.421 -0.0707  0.2150  0.1622
11694WAT     H147496   6.215   1.016   4.345  1.0920 -0.5352 -0.0640
11694WAT     H247497   6.326   1.009   4.425 -0.3062 -0.1859  1.9997
11694WAT    EPW47498   6.254   1.036   4.410  0.0663  0.0450  0.4002
11695WAT      O47499   1.846   2.553   4.263  0.3446 -1.0676  0.0398
11695WAT     H147500   1.902   2.575   4.200 -1.8005  2.3402 -0.9533
11695WAT     H247501   1.883   2.584   4.336  0.6340 -0.5097 -0.3346
11695WAT    EPW47502   1.860   2.561   4.264  0.0705 -0.4817 -0.1622
11696WAT      O47503   6.815   3.253   6.993 -0.1811  0.3571  0.8539
11696WAT     H147504   6.892   3.284   7.019  0.9734 -0.2045 -1.6127
11696WAT     H247505   6.823   3.166   7.003 -0.5070  0.3044  0.6802
11696WAT    EPW47506   6.827   3.244   6.998 -0.0587  0.2663  0.4638
11697WAT      O47507   3.073   2.435   5.091  0.2250 -0.3353  0.2787
11697WAT     H147508   3.120   2.420   5.019 -0.2519 -0.8085  0.0571
11697WAT     H247509   3.099   2.371   5.145 -0.3105 -0.7240  0.0805
11697WAT    EPW47510   3.084   2.423   5.088  0.0755 -0.4627  0.2167
11698WAT      O47511   6.862   1.979   3.862 -0.3323 -0.0985 -0.5009
11698WAT     H147512   6.776   1.961   3.867 -0.6182  1.3903  0.7133
11698WAT     H247513   6.865   2.066   3.873  1.3865 -0.2222  0.2289
11698WAT    EPW47514   6.849   1.989   3.864 -0.1207  0.1031 -0.2137
11699WAT      O47515   3.405   0.758   5.242  0.4631 -0.0340  0.6126
11699WAT     H147516   3.334   0.736   5.287  0.6454  0.2431  1.0461
11699WAT     H247517   3.432   0.682   5.208 -0.9033  0.0810 -0.8503
11699WAT    EPW47518   3.399   0.743   5.243  0.2882  0.0239  0.4605
11700WAT      O47519   6.357   5.304   7.353 -0.1533 -0.4956 -0.2965
11700WAT     H147520   6.323   5.378   7.320  0.4594  0.4209  1.0475
11700WAT     H247521   6.395   5.266   7.284 -1.2796 -0.0379 -1.2033
11700WAT    EPW47522   6.357   5.309   7.338 -0.2291 -0.2926 -0.2319
11701WAT      O47523   6.091   2.354   3.227  0.0323 -0.4808 -0.8468
11701WAT     H147524   6.007   2.357   3.207  0.2776 -1.7025 -2.1681
11701WAT     H247525   6.100   2.280   3.272  0.3771 -0.2768 -0.5707
11701WAT    EPW47526   6.080   2.344   3.231  0.1195 -0.6311 -1.0012
11702WAT      O47527   2.568   3.973   5.813 -0.5712  0.1779 -0.4939
11702WAT     H147528   2.489   3.992   5.781  0.3203  1.1845 -2.1985
11702WAT     H247529   2.622   4.025   5.768  0.9468  0.5275  1.5876
11702WAT    EPW47530   2.564   3.983   5.802 -0.2153  0.3782 -0.4382
11703WAT      O47531   5.406   1.372   0.947 -0.1934  0.3730 -0.5853
11703WAT     H147532   5.461   1.306   0.930 -1.3549 -1.1041  1.0243
11703WAT     H247533   5.363   1.345   1.018 -1.8099  2.2191 -0.7791
11703WAT    EPW47534   5.408   1.358   0.955 -0.6038  0.4275 -0.3762
11704WAT      O47535   6.875   2.131   6.157 -0.0002  0.2299 -0.0120
11704WAT     H147536   6.841   2.132   6.237  0.3197  2.4719  0.1470
11704WAT     H247537   6.953   2.094   6.169 -0.5622 -0.8687  0.4054
11704WAT    EPW47538   6.882   2.125   6.171 -0.0359  0.3988  0.0732
11705WAT      O47539   0.978   7.158   5.440  0.3815 -0.0626 -0.1271
11705WAT     H147540   1.035   7.101   5.407 -0.8869 -1.8434  0.5457
11705WAT     H247541   0.999   7.160   5.525 -0.6029 -0.8845  0.1611
11705WAT    EPW47542   0.989   7.150   5.448  0.0487 -0.4471  0.0148
11706WAT      O47543   5.060   5.991   4.067 -1.1019  0.1466  0.1723
11706WAT     H147544   5.122   5.929   4.064 -0.5309  0.5231  2.5526
11706WAT     H247545   5.003   5.960   4.126 -1.6583  1.1467  0.1682
11706WAT    EPW47546   5.061   5.977   4.075 -1.0998  0.3499  0.5233
11707WAT      O47547   6.049   3.672   3.299 -0.1547 -0.3580  0.2503
11707WAT     H147548   5.967   3.643   3.307  0.3007 -1.4651  1.3502
11707WAT     H247549   6.080   3.666   3.380  1.9123 -2.9078 -0.5919
11707WAT    EPW47550   6.041   3.667   3.312  0.2180 -0.8982  0.2884
11708WAT      O47551   6.258   3.017   3.891  0.2896  0.0829  0.6937
11708WAT     H147552   6.301   3.080   3.847  0.6109 -1.4410 -1.3019
11708WAT     H247553   6.322   2.973   3.930  0.1343  0.4351  1.3611
11708WAT    EPW47554   6.274   3.020   3.890  0.3141 -0.0902  0.4975
11709WAT      O47555   1.913   6.100   7.072 -0.1950  0.0716 -0.1846
11709WAT     H147556   1.927   6.181   7.042  1.1828  0.5370  1.5357
11709WAT     H247557   1.923   6.108   7.158  0.1717 -1.9698  0.0126
11709WAT    EPW47558   1.917   6.113   7.080  0.0627 -0.1612  0.0986
11710WAT      O47559   1.863   2.530   5.421  0.1875  0.1487 -0.0366
11710WAT     H147560   1.885   2.481   5.489 -0.4165  1.2924  1.0446
11710WAT     H247561   1.825   2.600   5.458  1.2907  1.5844 -1.4522
11710WAT    EPW47562   1.861   2.533   5.436  0.2612  0.5297 -0.0860
11711WAT      O47563   7.674   2.642   4.799  0.0256 -0.2985 -0.2287
11711WAT     H147564   7.757   2.633   4.824 -0.1907 -0.3871  0.4589
11711WAT     H247565   7.638   2.565   4.819 -0.7427  0.4611  1.4991
11711WAT    EPW47566   7.681   2.629   4.806 -0.1198 -0.1994  0.1281
11712WAT      O47567   2.226   1.471   3.096 -0.1456 -0.5292 -0.1152
11712WAT     H147568   2.233   1.515   3.171 -2.0132  1.0054 -0.7423
11712WAT     H247569   2.277   1.516   3.041 -1.8011  0.7698 -0.6742
11712WAT    EPW47570   2.235   1.484   3.099 -0.6661 -0.1106 -0.2904
11713WAT      O47571   1.879   0.368   6.414  0.3032 -0.0646  0.0187
11713WAT     H147572   1.795   0.371   6.390  0.8537  2.7901 -2.1148
11713WAT     H247573   1.876   0.385   6.500 -1.3161  0.2246 -0.0595
11713WAT    EPW47574   1.866   0.371   6.423  0.1453  0.3998 -0.3080
11714WAT      O47575   0.445   4.077   5.913 -0.0269  0.5740  0.0260
11714WAT     H147576   0.420   4.033   5.984  2.0735  0.7365  0.9247
11714WAT     H247577   0.532   4.076   5.917  0.2191 -0.1715 -3.0267
11714WAT    EPW47578   0.454   4.070   5.924  0.3197  0.4879 -0.2922
11715WAT      O47579   4.767   1.397   4.819  0.4002 -0.6097  0.4727
11715WAT     H147580   4.812   1.331   4.784  0.3675  0.3161 -1.4910
11715WAT     H247581   4.827   1.441   4.864  0.4912 -1.7564  1.5163
11715WAT    EPW47582   4.782   1.394   4.820  0.4088 -0.6423  0.3368
11716WAT      O47583   1.462   4.142   5.193  0.2568 -0.3384 -0.1326
11716WAT     H147584   1.534   4.186   5.170  2.4616 -2.8160  1.4594
11716WAT     H247585   1.438   4.179   5.268  1.2977 -0.8821  0.5001
11716WAT    EPW47586   1.469   4.154   5.201  0.7362 -0.7847  0.1960
11717WAT      O47587   0.876   6.808   0.037  0.1865  0.1784 -0.2344
11717WAT     H147588   0.888   6.893   0.056  0.0246 -0.0271  0.8609
11717WAT     H247589   0.901   6.802  -0.046 -1.0928  1.5828 -0.7866
11717WAT    EPW47590   0.881   6.820   0.028 -0.0264  0.3555 -0.1542
11718WAT      O47591   3.459   0.515   5.549  0.0929 -0.6073 -0.0961
11718WAT     H147592   3.460   0.438   5.508  0.7558 -0.3875 -0.5050
11718WAT     H247593   3.391   0.508   5.604 -0.3410 -1.1859 -0.6889
11718WAT    EPW47594   3.449   0.502   5.551  0.1267 -0.6603 -0.2441
11719WAT      O47595   2.917   0.689   5.720 -0.5610  0.4051  0.2882
11719WAT     H147596   2.866   0.702   5.790 -0.1558 -1.8722  1.0956
11719WAT     H247597   2.983   0.744   5.732 -0.2811 -0.2267  1.9986
11719WAT    EPW47598   2.919   0.699   5.732 -0.4598 -0.0246  0.6602
11720WAT      O47599   0.185   4.874   3.969 -0.4448  0.5676  0.1555
11720WAT     H147600   0.224   4.916   3.904  1.5440  2.0011  2.1214
11720WAT     H247601   0.105   4.910   3.972 -0.5194  0.5856 -1.3134
11720WAT    EPW47602   0.179   4.885   3.960 -0.1620  0.7820  0.2289
11721WAT      O47603   0.611   4.598   4.691  0.2733 -0.7185 -0.0109
11721WAT     H147604   0.657   4.529   4.662 -0.9771 -1.0684 -1.2144
11721WAT     H247605   0.625   4.659   4.630  0.6616 -0.1764  0.6070
11721WAT    EPW47606   0.620   4.597   4.678  0.1460 -0.6901 -0.0974
11722WAT      O47607   3.115   7.212   5.644  0.2628  0.1807 -0.2371
11722WAT     H147608   3.048   7.248   5.687  1.8696  1.0939  1.7051
11722WAT     H247609   3.135   7.272   5.584 -0.2080  0.2331 -0.3439
11722WAT    EPW47610   3.108   7.226   5.641  0.4306  0.3233  0.0340
11723WAT      O47611   0.988   0.248   4.271  0.5673 -0.4720  0.6074
11723WAT     H147612   0.957   0.173   4.303  1.4205 -1.0324  0.1648
11723WAT     H247613   1.004   0.295   4.343  2.3160 -1.6672  1.0681
11723WAT    EPW47614   0.986   0.244   4.287  0.9517 -0.7313  0.6101
11724WAT      O47615   2.020   7.238   5.469 -0.0795  0.0307  0.1301
11724WAT     H147616   2.069   7.254   5.540  0.5732 -1.2683  0.0035
11724WAT     H247617   1.940   7.262   5.494 -0.0623 -1.3287  1.6906
11724WAT    EPW47618   2.016   7.244   5.483  0.0194 -0.3620  0.3419
11725WAT      O47619   1.914   2.199   1.918 -0.3037  0.0128 -0.1972
11725WAT     H147620   1.958   2.150   1.860 -0.0840  0.4713 -0.4249
11725WAT     H247621   1.931   2.161   1.995  0.8662  0.4295 -0.2260
11725WAT    EPW47622   1.923   2.186   1.921 -0.0984  0.1421 -0.2351
11726WAT      O47623   6.355   4.379   5.143 -0.5613  0.0284 -0.1667
11726WAT     H147624   6.416   4.398   5.202 -0.5715 -1.9476  0.5595
11726WAT     H247625   6.396   4.388   5.067  0.4320 -0.5814  0.2851
11726WAT    EPW47626   6.370   4.383   5.141 -0.4161 -0.3536  0.0073
11727WAT      O47627   2.981   4.647   6.306  0.4243  0.4095  0.2967
11727WAT     H147628   3.006   4.717   6.351 -0.1922  0.2442  0.9194
11727WAT     H247629   3.048   4.631   6.253  0.6110  1.3975  0.2302
11727WAT    EPW47630   2.995   4.655   6.305  0.3608  0.5310  0.3789
11728WAT      O47631   0.642   4.161   6.356  0.0927  0.9995 -0.4785
11728WAT     H147632   0.691   4.103   6.312  0.1983 -0.2022  1.1291
11728WAT     H247633   0.701   4.220   6.384  0.5826 -0.1044  0.9206
11728WAT    EPW47634   0.658   4.161   6.354  0.1806  0.6589 -0.0344
11729WAT      O47635   5.577   2.375   0.933 -0.0249  0.5888  0.7321
11729WAT     H147636   5.585   2.449   0.978 -1.5445  0.0279  2.0496
11729WAT     H247637   5.639   2.323   0.966 -0.3747  0.5716  1.3792
11729WAT    EPW47638   5.587   2.378   0.944 -0.3011  0.5034  1.0224
11730WAT      O47639   6.990   0.559   5.640 -0.2008 -0.5977 -0.0891
11730WAT     H147640   6.921   0.565   5.692 -1.5617 -4.6160 -1.0068
11730WAT     H247641   6.955   0.548   5.561  1.5682 -0.5059 -0.9423
11730WAT    EPW47642   6.975   0.558   5.636 -0.1405 -1.1777 -0.3507
11731WAT      O47643   0.878   2.361   6.032 -0.1876  0.5029  0.1506
11731WAT     H147644   0.827   2.292   6.012  1.8710 -1.0239 -0.2226
11731WAT     H247645   0.945   2.325   6.075  1.2999  2.1715 -0.6355
11731WAT    EPW47646   0.881   2.345   6.035  0.3363  0.5239 -0.0207
11732WAT      O47647   7.038   0.304   5.786  0.9899  0.2000 -0.4530
11732WAT     H147648   7.018   0.338   5.864  1.0542 -0.5905 -0.0910
11732WAT     H247649   7.036   0.374   5.733 -1.9653  0.2980 -0.3309
11732WAT    EPW47650   7.035   0.320   5.790  0.5628  0.0977 -0.3815
11733WAT      O47651   2.691   5.597   6.378 -0.1881  0.2688 -0.0926
11733WAT     H147652   2.650   5.660   6.423 -0.3988 -0.8210  1.3109
11733WAT     H247653   2.742   5.641   6.322 -0.7722  1.6690  0.4430
11733WAT    EPW47654   2.693   5.613   6.376 -0.3055  0.3147  0.1938
11734WAT      O47655   1.460   6.654   4.803 -0.1049  0.4792  0.4849
11734WAT     H147656   1.414   6.672   4.731  2.2704  3.3916 -0.5272
11734WAT     H247657   1.502   6.580   4.782  0.6905  1.3743 -1.2770
11734WAT    EPW47658   1.460   6.646   4.789  0.3634  1.0416  0.0751
11735WAT      O47659   7.148   1.116   6.237 -0.4292  0.0449 -0.1291
11735WAT     H147660   7.151   1.202   6.220 -1.2812 -0.1571 -1.4156
11735WAT     H247661   7.134   1.113   6.323  0.2405  1.1807  0.0386
11735WAT    EPW47662   7.146   1.128   6.247 -0.4561  0.1829 -0.2944
11736WAT      O47663   2.661   0.295   2.125  0.2494 -0.4637 -0.0561
11736WAT     H147664   2.735   0.328   2.158  0.1672  1.6842 -1.7959
11736WAT     H247665   2.674   0.295   2.039 -1.4586 -0.8831 -0.3639
11736WAT    EPW47666   2.673   0.300   2.117 -0.0150 -0.2083 -0.3586
11737WAT      O47667   3.073   2.276   1.747  0.7567  0.1739 -0.2289
11737WAT     H147668   3.032   2.242   1.679  1.7810 -0.9444 -0.3241
11737WAT     H247669   3.151   2.298   1.716  0.6179  1.3240  0.1775
11737WAT    EPW47670   3.079   2.274   1.733  0.8875  0.1786 -0.1829
11738WAT      O47671   1.288   2.323   5.060  0.0048 -0.1773  0.0183
11738WAT     H147672   1.280   2.289   5.139  1.4574 -0.1213  0.2202
11738WAT     H247673   1.325   2.260   5.013  0.9633  0.4402 -0.0909
11738WAT    EPW47674   1.292   2.309   5.064  0.3609 -0.0778  0.0320
11739WAT      O47675   4.674   0.430   7.446  0.2828  0.1996 -0.3525
11739WAT     H147676   4.689   0.515   7.450  0.9664  0.0939 -0.6016
11739WAT     H247677   4.681   0.404   7.529 -0.7996  0.5169 -0.1430
11739WAT    EPW47678   4.677   0.438   7.459  0.2239  0.2308 -0.3584
11740WAT      O47679   0.187   3.565   5.627 -0.2461  0.0025 -0.7066
11740WAT     H147680   0.213   3.594   5.705  0.1388 -3.4908  0.6100
11740WAT     H247681   0.106   3.596   5.620 -0.2374  0.5193  0.9974
11740WAT    EPW47682   0.179   3.574   5.637 -0.1879 -0.4372 -0.2604
11741WAT      O47683   4.238   6.821   0.714 -0.6667  0.3296  0.5546
11741WAT     H147684   4.169   6.776   0.687 -0.0080  0.6358 -1.8263
11741WAT     H247685   4.305   6.769   0.694 -0.0373  1.3758 -0.1460
11741WAT    EPW47686   4.238   6.807   0.707 -0.4764  0.5294  0.0994
11742WAT      O47687   6.007   1.190   7.135 -0.4717 -0.2460  0.5474
11742WAT     H147688   5.973   1.258   7.178 -0.5987  0.0662 -0.0519
11742WAT     H247689   6.025   1.221   7.056 -1.2805 -1.1191 -0.0021
11742WAT    EPW47690   6.005   1.204   7.130 -0.6099 -0.3289  0.3777
11743WAT      O47691   1.884   1.616   3.376 -0.4414 -0.0777  0.3078
11743WAT     H147692   1.874   1.547   3.323  0.1329  0.3098 -0.3247
11743WAT     H247693   1.927   1.674   3.327  1.0722 -0.0976  1.5065
11743WAT    EPW47694   1.889   1.614   3.361 -0.1329 -0.0234  0.3914
11744WAT      O47695   1.619   7.606   4.712  0.3177 -0.3954 -0.3791
11744WAT     H147696   1.638   7.619   4.628 -0.7617  1.9946 -0.3201
11744WAT     H247697   1.566   7.537   4.710 -0.2851  0.0693 -1.7603
11744WAT    EPW47698   1.614   7.598   4.699  0.0692  0.0263 -0.5744
11745WAT      O47699   2.505   2.979   5.170 -0.5676 -0.0928 -0.0579
11745WAT     H147700   2.576   3.025   5.152  1.1300 -1.9122  1.4924
11745WAT     H247701   2.452   2.993   5.102  1.8495  0.1866 -1.9864
11745WAT    EPW47702   2.508   2.988   5.157  0.0402 -0.3203 -0.1138
11746WAT      O47703   0.173   0.779   4.780 -0.2629 -0.0053 -0.4508
11746WAT     H147704   0.230   0.790   4.845  0.1260  0.1870 -0.8210
11746WAT     H247705   0.131   0.855   4.777  0.3957  0.3441 -1.0658
11746WAT    EPW47706   0.175   0.792   4.789 -0.1082  0.0747 -0.5963
11747WAT      O47707   7.185   3.164   3.621  0.1226 -0.3014  0.4001
11747WAT     H147708   7.270   3.181   3.616 -0.2205  1.4242 -0.4202
11747WAT     H247709   7.152   3.235   3.661 -0.6883 -1.9617  2.9135
11747WAT    EPW47710   7.193   3.177   3.626 -0.0479 -0.2918  0.6502
11748WAT      O47711   7.481   1.676   4.015 -0.3707 -0.4950 -0.1542
11748WAT     H147712   7.540   1.699   4.075  0.3894  1.2025 -1.4865
11748WAT     H247713   7.501   1.593   3.997  1.0961 -0.1926 -0.0131
11748WAT    EPW47714   7.492   1.667   4.021 -0.0417 -0.1996 -0.3302
11749WAT      O47715   4.361   0.356   5.746  0.0956  0.2873 -0.4042
11749WAT     H147716   4.331   0.315   5.675  1.0330 -0.9445 -0.1297
11749WAT     H247717   4.419   0.300   5.778  1.0471  1.6389  0.3025
11749WAT    EPW47718   4.365   0.341   5.740  0.3746  0.3050 -0.2592
11750WAT      O47719   0.473   0.572   6.157 -0.0468  0.2938 -0.2041
11750WAT     H147720   0.391   0.577   6.127  0.1132 -0.5719 -0.8139
11750WAT     H247721   0.464   0.531   6.234 -0.3174  1.4231  0.3987
11750WAT    EPW47722   0.460   0.567   6.164 -0.0632  0.3327 -0.2051
11751WAT      O47723   7.639   1.965   5.377 -0.2686 -0.1673  0.0130
11751WAT     H147724   7.695   1.940   5.314 -0.8581  2.3365 -1.6253
11751WAT     H247725   7.595   1.892   5.394  1.1864 -1.3907 -1.1106
11751WAT    EPW47726   7.641   1.950   5.370 -0.1407  0.0218 -0.3950
11752WAT      O47727   6.798   5.520   0.428  0.2355 -0.4471  0.2152
11752WAT     H147728   6.717   5.549   0.413  0.4349 -0.3637 -0.7546
11752WAT     H247729   6.792   5.484   0.508 -0.8837 -0.8938 -0.0493
11752WAT    EPW47730   6.785   5.519   0.438  0.0996 -0.5008  0.0329
11753WAT      O47731   0.783   5.017   4.203  0.0084 -0.3909  0.0477
11753WAT     H147732   0.734   5.016   4.130  0.3284 -2.5585 -0.2241
11753WAT     H247733   0.857   5.057   4.178 -1.5982  3.2680  0.5683
11753WAT    EPW47734   0.787   5.023   4.188 -0.1817 -0.1706  0.0845
11754WAT      O47735   7.555   4.704   7.062  0.4375  0.1426 -0.6914
11754WAT     H147736   7.529   4.625   7.088 -0.6982  0.5132 -0.6555
11754WAT     H247737   7.544   4.703   6.976  2.2072 -0.3525 -0.9675
11754WAT    EPW47738   7.550   4.692   7.053  0.5311  0.1242 -0.7269
11755WAT      O47739   2.560   5.813   4.591 -0.1603 -0.4743 -0.5838
11755WAT     H147740   2.521   5.861   4.652 -0.3028 -0.9130 -0.3261
11755WAT     H247741   2.517   5.737   4.594  0.0986 -0.6380 -0.9460
11755WAT    EPW47742   2.548   5.809   4.600 -0.1431 -0.5633 -0.5992
11756WAT      O47743   2.881   5.088   1.285 -0.2483 -0.3260  0.0859
11756WAT     H147744   2.946   5.114   1.336 -0.1800 -1.1887  0.4543
11756WAT     H247745   2.849   5.162   1.252  0.0537  0.1926  0.9536
11756WAT    EPW47746   2.886   5.102   1.288 -0.1936 -0.3769  0.2685
11757WAT      O47747   3.018   4.187   0.012  0.1381  0.1148 -0.0779
11757WAT     H147748   2.949   4.175  -0.041  0.6804  0.5263 -0.8946
11757WAT     H247749   3.077   4.131  -0.018  0.6802  0.8088 -0.3426
11757WAT    EPW47750   3.016   4.177  -0.000  0.2983  0.2781 -0.2377
11758WAT      O47751   1.794   2.972   4.819  0.2800 -0.1452 -0.0110
11758WAT     H147752   1.795   3.046   4.866  1.7866 -0.5116  0.5989
11758WAT     H247753   1.751   2.916   4.870 -0.1253  0.0711 -0.1076
11758WAT    EPW47754   1.788   2.975   4.833  0.4427 -0.1673  0.0648
11759WAT      O47755   4.285   6.162   6.818  0.1476 -0.8570  0.0455
11759WAT     H147756   4.331   6.093   6.842  0.0329 -0.3204  1.9170
11759WAT     H247757   4.244   6.187   6.891 -2.4184 -0.7577 -1.2983
11759WAT    EPW47758   4.286   6.156   6.832 -0.2484 -0.7630  0.1235
11760WAT      O47759   1.949   7.252   3.144  0.0520  0.2538  0.0909
11760WAT     H147760   1.905   7.258   3.070 -1.0518 -0.8753  0.6296
11760WAT     H247761   2.008   7.190   3.128 -0.7648 -0.6177  0.4282
11760WAT    EPW47762   1.951   7.244   3.131 -0.2317 -0.0417  0.2203
11761WAT      O47763   4.422   5.406   6.586 -0.0647  0.1216  0.2686
11761WAT     H147764   4.386   5.393   6.665 -1.4542 -0.0456 -0.3504
11761WAT     H247765   4.494   5.356   6.588 -0.8425 -1.0433  0.9283
11761WAT    EPW47766   4.427   5.396   6.598 -0.3848 -0.0752  0.2747
11762WAT      O47767   1.358   1.447   3.596 -0.5099 -0.5450 -0.5891
11762WAT     H147768   1.342   1.365   3.570 -1.2592 -0.0037 -1.9076
11762WAT     H247769   1.290   1.466   3.648 -1.1511 -0.2409 -1.5244
11762WAT    EPW47770   1.346   1.438   3.600 -0.7153 -0.4201 -0.9220
11763WAT      O47771   2.847   7.412   2.995 -0.0030  0.4932 -0.0366
11763WAT     H147772   2.775   7.458   3.012  1.0567  2.4562 -0.5157
11763WAT     H247773   2.873   7.385   3.074 -1.3726 -0.4988  0.1124
11763WAT    EPW47774   2.840   7.415   3.009 -0.0488  0.6367 -0.0854
11764WAT      O47775   4.054   1.413   4.532  0.2806 -0.1942  0.1451
11764WAT     H147776   4.010   1.438   4.604  1.7032  0.6351  0.7868
11764WAT     H247777   3.995   1.420   4.469 -0.6144  0.5617  1.0176
11764WAT    EPW47778   4.039   1.418   4.533  0.3585  0.0400  0.3688
11765WAT      O47779   2.600   5.928   0.057 -0.1986 -0.6302  0.5942
11765WAT     H147780   2.654   5.928   0.125  0.8322  1.7712 -0.1098
11765WAT     H247781   2.646   5.888  -0.006  1.3884  2.2802 -0.3049
11765WAT    EPW47782   2.615   5.922   0.058  0.1881  0.1545  0.3574
11766WAT      O47783   1.755   6.499   1.461 -0.1662 -0.4855  0.2819
11766WAT     H147784   1.783   6.573   1.497 -0.5592 -1.1711  2.0585
11766WAT     H247785   1.703   6.526   1.396 -0.9224  0.8272  1.3881
11766WAT    EPW47786   1.751   6.514   1.456 -0.3359 -0.3929  0.7077
11767WAT      O47787   2.502   4.687   6.533  0.5109 -0.3017 -0.0748
11767WAT     H147788   2.548   4.760   6.546 -0.4769  0.2139  0.6688
11767WAT     H247789   2.476   4.694   6.450  0.4890  0.1467 -0.0321
11767WAT    EPW47790   2.505   4.699   6.523  0.3618 -0.1593  0.0413
11768WAT      O47791   1.807   0.731   3.957 -0.0568  0.1286  0.7217
11768WAT     H147792   1.746   0.727   4.019 -0.3927  0.4770  0.4163
11768WAT     H247793   1.766   0.704   3.885 -0.1967  1.4833  0.2605
11768WAT    EPW47794   1.792   0.727   3.956 -0.1271  0.3802  0.6084
11769WAT      O47795   1.917   6.813   7.435 -0.3362  0.1316 -0.0726
11769WAT     H147796   1.994   6.852   7.430  0.1910 -0.5232  2.1706
11769WAT     H247797   1.877   6.854   7.501 -0.6449 -1.5671  0.8433
11769WAT    EPW47798   1.922   6.825   7.444 -0.3039 -0.2161  0.3941
11770WAT      O47799   1.047   1.270   3.598  0.2359 -0.0502 -0.0881
11770WAT     H147800   0.983   1.236   3.646  1.2369 -0.1329  1.2701
11770WAT     H247801   1.017   1.266   3.517 -0.4991 -2.3304  0.2236
11770WAT    EPW47802   1.033   1.264   3.593  0.2752 -0.3992  0.1586
11771WAT      O47803   0.832   1.113   7.703 -0.7385 -0.0442 -0.4700
11771WAT     H147804   0.901   1.097   7.652 -2.0072 -2.4116 -1.6366
11771WAT     H247805   0.789   1.176   7.660 -0.1177  0.3455 -0.5371
11771WAT    EPW47806   0.836   1.120   7.689 -0.8342 -0.3364 -0.6522
11772WAT      O47807   3.424   0.675   5.977  0.1792 -0.3954 -0.0257
11772WAT     H147808   3.376   0.740   5.943 -1.5592 -0.0974  2.6904
11772WAT     H247809   3.367   0.610   5.986  1.0160 -1.0588  0.6433
11772WAT    EPW47810   3.409   0.675   5.973  0.0460 -0.4494  0.4744
11773WAT      O47811   6.556   1.346   5.832  0.2804 -0.3739  0.0749
11773WAT     H147812   6.537   1.387   5.757 -0.5838  0.1692  0.5688
11773WAT     H247813   6.479   1.316   5.858  0.8575 -2.0940 -0.1151
11773WAT    EPW47814   6.542   1.348   5.825  0.2380 -0.5478  0.1198
11774WAT      O47815   4.335   0.021   3.611 -0.0626 -0.0883  0.4145
11774WAT     H147816   4.405   0.058   3.647 -0.9218 -0.0147  2.0721
11774WAT     H247817   4.349  -0.064   3.622  0.2766 -0.1396 -0.2994
11774WAT    EPW47818   4.348   0.014   3.618 -0.1394 -0.0850  0.5539
11775WAT      O47819   2.332   7.222   2.234  0.1664 -0.3861 -0.0255
11775WAT     H147820   2.326   7.161   2.172  2.8193 -2.3081  1.4026
11775WAT     H247821   2.257   7.215   2.278  0.0108 -1.9687 -0.5052
11775WAT    EPW47822   2.320   7.212   2.231  0.5353 -0.9038  0.1146
11776WAT      O47823   3.775   2.002   6.392 -0.1755  0.6644 -0.3517
11776WAT     H147824   3.847   2.047   6.373  0.7826  0.1978  1.8689
11776WAT     H247825   3.753   2.031   6.471  0.2284 -2.3555  0.9905
11776WAT    EPW47826   3.782   2.013   6.401  0.0257  0.1494  0.1746
11777WAT      O47827   7.417   7.429   5.526 -0.7952  0.1819  0.0882
11777WAT     H147828   7.380   7.360   5.565 -2.5905  0.4788 -1.0134
11777WAT     H247829   7.497   7.401   5.507 -1.0044 -1.0925  0.9611
11777WAT    EPW47830   7.423   7.415   5.529 -1.0913  0.0375  0.0544
11778WAT      O47831   2.853   6.899   1.851 -0.3900  0.0959 -0.0042
11778WAT     H147832   2.805   6.840   1.809 -0.9595 -0.0846  0.8899
11778WAT     H247833   2.935   6.872   1.838 -0.6130 -0.5303 -0.1191
11778WAT    EPW47834   2.858   6.887   1.843 -0.5071 -0.0233  0.1109
11779WAT      O47835   6.575   1.789   5.705 -0.1980 -0.4749 -0.3445
11779WAT     H147836   6.623   1.745   5.761 -1.9477 -2.0337  0.0230
11779WAT     H247837   6.579   1.871   5.734  1.4927 -0.6995  0.1365
11779WAT    EPW47838   6.583   1.795   5.717 -0.2067 -0.7383 -0.2192
11780WAT      O47839   0.668   1.219   4.039  0.0380 -0.0587 -0.1340
11780WAT     H147840   0.732   1.260   4.082 -1.7765  1.0701  1.6753
11780WAT     H247841   0.690   1.135   4.046  1.1352  0.2778  0.7593
11780WAT    EPW47842   0.681   1.213   4.047 -0.0679  0.1578  0.2652
11781WAT      O47843   7.371   2.937   4.758  0.2511 -0.3527  0.3480
11781WAT     H147844   7.441   2.899   4.721  0.9467  0.4096  0.8425
11781WAT     H247845   7.383   2.922   4.843  0.4982  0.8637  0.5500
11781WAT    EPW47846   7.383   2.929   4.765  0.3904 -0.0604  0.4509
11782WAT      O47847   2.292   6.284   7.494  0.7388 -0.0719 -0.0136
11782WAT     H147848   2.277   6.209   7.451  1.3811  0.1799 -0.6909
11782WAT     H247849   2.310   6.341   7.431 -1.4566  1.1319  0.3342
11782WAT    EPW47850   2.293   6.281   7.479  0.5094  0.1431 -0.0623
11783WAT      O47851   6.280   6.601   4.659 -0.2279  0.4010  0.1372
11783WAT     H147852   6.346   6.596   4.715 -0.5478  2.5437  0.7929
11783WAT     H247853   6.304   6.665   4.605 -2.2683  2.1473  1.1837
11783WAT    EPW47854   6.293   6.609   4.659 -0.5765  0.9755  0.3886
11784WAT      O47855   7.441   1.639   7.271 -0.2743 -0.3022  0.1168
11784WAT     H147856   7.409   1.628   7.352 -1.2893 -3.2303 -0.5566
11784WAT     H247857   7.378   1.606   7.220  0.5177  1.1022 -1.8787
11784WAT    EPW47858   7.427   1.632   7.275 -0.3072 -0.5273 -0.2775
11785WAT      O47859   0.865   2.933   7.512  0.4085 -0.2880  0.3671
11785WAT     H147860   0.901   2.898   7.584  0.6010  1.0616  0.9592
11785WAT     H247861   0.928   2.984   7.480  0.5548 -1.3898 -1.1677
11785WAT    EPW47862   0.879   2.936   7.518  0.4585 -0.2514  0.2278
11786WAT      O47863   6.721   1.310   5.459  0.4229  0.1990  0.7228
11786WAT     H147864   6.758   1.232   5.447  0.9166  0.7075 -1.7416
11786WAT     H247865   6.783   1.366   5.435  0.0558  1.3759  2.3751
11786WAT    EPW47866   6.735   1.307   5.454  0.4416  0.4480  0.6029
11787WAT      O47867   4.936   0.173   2.657 -0.3897 -0.3830  0.7719
11787WAT     H147868   4.988   0.122   2.610 -2.6737  0.1901 -2.7306
11787WAT     H247869   4.984   0.245   2.670  1.0824 -1.4280  1.3896
11787WAT    EPW47870   4.951   0.176   2.652 -0.5096 -0.4527  0.3457
11788WAT      O47871   6.445   7.306   4.292  0.2234  0.2409  0.2061
11788WAT     H147872   6.414   7.324   4.372 -0.2427  0.4657 -0.0240
11788WAT     H247873   6.524   7.273   4.308 -0.1463 -0.3779  0.8039
11788WAT    EPW47874   6.452   7.304   4.306  0.1000  0.1827  0.2604
11789WAT      O47875   2.124   1.685   2.441 -0.4608 -0.3123 -0.1720
11789WAT     H147876   2.118   1.658   2.359 -0.1986 -0.1756 -0.2362
11789WAT     H247877   2.056   1.647   2.480 -0.0055 -1.1953 -0.2213
11789WAT    EPW47878   2.113   1.676   2.435 -0.3548 -0.4225 -0.1888
11790WAT      O47879   3.062   2.072   7.164  0.3900 -0.3773 -0.0061
11790WAT     H147880   3.035   2.150   7.136  1.3424  0.3070  0.8554
11790WAT     H247881   2.990   2.034   7.194  0.1459  0.9059  1.1546
11790WAT    EPW47882   3.047   2.078   7.164  0.4946 -0.0867  0.2926
11791WAT      O47883   0.255   3.453   6.453  0.1046 -0.4370  0.4996
11791WAT     H147884   0.253   3.477   6.370 -1.5159  0.2525  0.7055
11791WAT     H247885   0.291   3.373   6.451 -1.2964 -1.0760 -1.0386
11791WAT    EPW47886   0.260   3.445   6.441 -0.3417 -0.4296  0.3028
11792WAT      O47887   4.592   3.793   0.743  0.1727 -0.2877  0.2358
11792WAT     H147888   4.615   3.867   0.783 -0.7930 -0.7148  1.6538
11792WAT     H247889   4.520   3.768   0.786 -0.6706 -1.0208 -1.5129
11792WAT    EPW47890   4.585   3.801   0.756 -0.0945 -0.4591  0.1869
11793WAT      O47891   1.623   6.142   4.755 -0.5185  0.0170  0.1329
11793WAT     H147892   1.583   6.191   4.815 -0.0937  0.6962 -0.1300
11793WAT     H247893   1.580   6.159   4.682 -0.4764 -0.1315  0.0734
11793WAT    EPW47894   1.611   6.152   4.753 -0.4495  0.0954  0.0853
11794WAT      O47895   0.154   1.279   7.470  0.2132  0.5670 -0.3739
11794WAT     H147896   0.233   1.306   7.496  0.2688 -0.3325  0.4730
11794WAT     H247897   0.151   1.301   7.386  1.6928 -0.0920 -0.6269
11794WAT    EPW47898   0.165   1.286   7.462  0.4400  0.3368 -0.2861
11795WAT      O47899   2.117   0.475   4.063  0.0810  0.3000  0.2000
11795WAT     H147900   2.137   0.473   4.148  1.3516 -0.2649 -0.0912
11795WAT     H247901   2.038   0.438   4.061 -0.4115  1.2230  1.2284
11795WAT    EPW47902   2.108   0.469   4.075  0.1960  0.3529  0.3089
11796WAT      O47903   6.149   6.155   3.827  0.2455  0.0289  0.2444
11796WAT     H147904   6.068   6.162   3.795  0.7351  1.9393 -0.7157
11796WAT     H247905   6.175   6.076   3.802 -1.3207 -0.6465  0.6193
11796WAT    EPW47906   6.141   6.144   3.819  0.0865  0.2114  0.1579
11797WAT      O47907   7.639   3.973   6.338 -0.7000  0.7363  0.0105
11797WAT     H147908   7.588   4.021   6.392 -1.1470  1.5598 -1.1090
11797WAT     H247909   7.701   4.029   6.314 -0.0725  0.1474  0.2508
11797WAT    EPW47910   7.640   3.989   6.343 -0.6733  0.7710 -0.1194
11798WAT      O47911   6.224   6.807   5.515  0.2149  0.7603  0.4538
11798WAT     H147912   6.164   6.795   5.453 -0.2525 -0.1456  1.0516
11798WAT     H247913   6.188   6.865   5.569 -0.7268 -0.7464  1.5151
11798WAT    EPW47914   6.210   6.814   5.514  0.0067  0.4039  0.6989
11799WAT      O47915   3.632   2.319   2.679 -0.2639  0.2207  0.0943
11799WAT     H147916   3.567   2.273   2.643  0.2573 -0.7462  0.3420
11799WAT     H247917   3.687   2.258   2.708  0.2034  1.0070  0.9237
11799WAT    EPW47918   3.631   2.303   2.678 -0.1179  0.1940  0.2534
11800WAT      O47919   3.388   5.773   2.668  0.1957  0.2069  0.0382
11800WAT     H147920   3.359   5.699   2.632 -1.0546 -1.8639  4.5572
11800WAT     H247921   3.463   5.750   2.705 -1.4440  0.1532  3.7907
11800WAT    EPW47922   3.395   5.759   2.668 -0.2312 -0.1069  1.2601
11801WAT      O47923   2.458   4.407   4.589 -0.4840  0.0404 -0.1373
11801WAT     H147924   2.505   4.452   4.646 -1.3135  2.4784 -1.2268
11801WAT     H247925   2.495   4.328   4.589  2.6262  1.3565  0.1596
11801WAT    EPW47926   2.470   4.402   4.597 -0.1471  0.5950 -0.2544
11802WAT      O47927   2.368   6.185   1.728 -0.0733  0.7163  0.0246
11802WAT     H147928   2.298   6.234   1.709  0.1205  0.8034 -0.4710
11802WAT     H247929   2.335   6.105   1.738 -0.5207  1.0703  1.6927
11802WAT    EPW47930   2.353   6.181   1.726 -0.1107  0.7815  0.1978
11803WAT      O47931   2.034   7.490   5.093  0.0491  0.9271  0.3030
11803WAT     H147932   2.079   7.424   5.129 -2.0912 -1.2913 -0.8338
11803WAT     H247933   2.030   7.549   5.157 -0.3599 -1.2324  2.4080
11803WAT    EPW47934   2.040   7.489   5.107 -0.3275  0.2804  0.4460
11804WAT      O47935   1.923   2.210   7.219  0.0157  0.1983  0.2740
11804WAT     H147936   1.885   2.131   7.229  0.4803  0.1351  1.8737
11804WAT     H247937   1.907   2.230   7.136 -2.0785 -0.5866  0.4219
11804WAT    EPW47938   1.915   2.201   7.208 -0.2250  0.0730  0.5321
11805WAT      O47939   3.389   2.157   1.361  0.0784 -0.3387 -0.4590
11805WAT     H147940   3.314   2.152   1.317 -0.1879  1.0734 -0.1981
11805WAT     H247941   3.450   2.158   1.298 -0.0039 -2.6841 -0.6475
11805WAT    EPW47942   3.387   2.156   1.345  0.0269 -0.4766 -0.4483
11806WAT      O47943   6.374   1.652   6.546  0.3211 -0.6302  0.1039
11806WAT     H147944   6.354   1.629   6.464  0.9329 -0.4884 -0.0941
11806WAT     H247945   6.456   1.624   6.555 -0.3013 -2.2252  1.2839
11806WAT    EPW47946   6.383   1.645   6.535  0.3195 -0.8449  0.2489
11807WAT      O47947   2.510   2.521   4.169 -0.0464 -0.3715  0.3050
11807WAT     H147948   2.517   2.450   4.218 -0.0391 -1.1848 -0.8232
11807WAT     H247949   2.566   2.577   4.205  1.5410 -1.6896 -0.0227
11807WAT    EPW47950   2.519   2.519   4.181  0.1892 -0.6864  0.0899
11808WAT      O47951   4.733   6.051   4.004  0.8334  0.7236 -0.4870
11808WAT     H147952   4.713   5.967   4.020  1.2606  0.6300 -0.4217
11808WAT     H247953   4.815   6.047   3.974  1.1463  1.1904  0.2866
11808WAT    EPW47954   4.742   6.038   4.002  0.9427  0.7787 -0.3631
11809WAT      O47955   2.169   0.390   1.847  0.1629  0.8152  0.4293
11809WAT     H147956   2.226   0.406   1.911  0.6391  0.1545  0.1779
11809WAT     H247957   2.215   0.403   1.774 -0.1295  0.7072  0.2243
11809WAT    EPW47958   2.184   0.395   1.846  0.1900  0.7016  0.3618
11810WAT      O47959   2.159   0.447   3.564 -0.3386  0.6694 -0.4909
11810WAT     H147960   2.079   0.471   3.588 -1.0854 -2.2490  0.2402
11810WAT     H247961   2.202   0.442   3.640 -0.6658 -1.6322 -0.3973
11810WAT    EPW47962   2.154   0.450   3.579 -0.4972 -0.1017 -0.3691
11811WAT      O47963   0.583   0.184   5.087 -0.1535 -0.3679 -0.2870
11811WAT     H147964   0.647   0.219   5.039  0.3451  0.5789  1.0179
11811WAT     H247965   0.575   0.238   5.155  0.7776 -2.8526  1.9928
11811WAT    EPW47966   0.591   0.197   5.090  0.0577 -0.5950  0.2426
11812WAT      O47967   2.757   0.535   4.679 -0.0231 -0.4867  0.4829
11812WAT     H147968   2.818   0.473   4.692  0.7619  0.2634  0.5054
11812WAT     H247969   2.790   0.583   4.614 -0.2874  0.2983  0.9100
11812WAT    EPW47970   2.771   0.533   4.671  0.0538 -0.2600  0.5493
11813WAT      O47971   2.325   4.597   3.321  0.6826  0.3674  0.6031
11813WAT     H147972   2.334   4.522   3.278  1.4096  0.6711  0.2096
11813WAT     H247973   2.405   4.611   3.353  0.7589  1.3838 -0.0121
11813WAT    EPW47974   2.338   4.588   3.320  0.8013  0.5624  0.4541
11814WAT      O47975   1.210   5.977   7.688 -0.1613  0.2095 -0.2288
11814WAT     H147976   1.147   5.919   7.706  0.1661 -0.9354 -2.3557
11814WAT     H247977   1.174   6.054   7.707 -1.1953 -0.5874  1.1864
11814WAT    EPW47978   1.195   5.979   7.693 -0.2657 -0.0773 -0.3339
11815WAT      O47979   2.053   2.179   6.927  0.8115  0.2263  0.1568
11815WAT     H147980   1.997   2.183   6.860 -0.3632  1.6276  1.1574
11815WAT     H247981   2.129   2.204   6.892  0.5954 -0.6105 -0.9791
11815WAT    EPW47982   2.056   2.184   6.912  0.6061  0.3097  0.1368
11816WAT      O47983   5.325   1.473   6.457 -0.8057  0.3727  0.1952
11816WAT     H147984   5.305   1.543   6.505 -0.6903  1.4747 -1.2996
11816WAT     H247985   5.359   1.506   6.385 -0.5829 -1.2466 -0.4909
11816WAT    EPW47986   5.327   1.488   6.454 -0.7557  0.2963 -0.1269
11817WAT      O47987   2.311   2.767   4.137  0.3964  0.4149 -0.4425
11817WAT     H147988   2.338   2.690   4.168 -0.5616 -1.0991 -3.0605
11817WAT     H247989   2.383   2.802   4.103  0.7364  0.4118  0.2676
11817WAT    EPW47990   2.325   2.760   4.137  0.3051  0.1908 -0.7244
11818WAT      O47991   1.811   0.066   1.817 -0.0910  0.2682 -0.3027
11818WAT     H147992   1.761   0.138   1.815 -0.5044 -0.0293 -1.0241
11818WAT     H247993   1.890   0.096   1.795 -0.2116  0.5391 -0.3773
11818WAT    EPW47994   1.816   0.081   1.814 -0.1699  0.2643 -0.4203
11819WAT      O47995   4.007   1.896   6.597  0.4384 -0.0962  0.0048
11819WAT     H147996   4.060   1.965   6.606  0.6523 -0.2751  0.1334
11819WAT     H247997   3.928   1.928   6.613  0.7740 -0.4436  2.9088
11819WAT    EPW47998   4.003   1.910   6.601  0.5196 -0.1739  0.4528
11820WAT      O47999   5.436   6.183   0.441  0.2452  0.2573  0.2175
11820WAT     H148000   5.444   6.144   0.519 -0.5983 -1.5794 -0.5539
11820WAT     H248001   5.353   6.170   0.420  0.4910  0.6357 -1.0407
11820WAT    EPW48002   5.425   6.175   0.450  0.1569  0.0419 -0.0823
11821WAT      O48003   0.352   5.540   4.934 -0.0574 -0.2187  0.2904
11821WAT     H148004   0.335   5.547   4.849  1.7241 -0.2290 -0.1038
11821WAT     H248005   0.342   5.455   4.950  1.7517 -0.6041 -0.4453
11821WAT    EPW48006   0.348   5.529   4.924  0.4730 -0.2772  0.1235
11822WAT      O48007   6.843   1.232   6.026 -0.0668 -0.2032  0.3005
11822WAT     H148008   6.840   1.313   6.058 -0.3933  0.7139 -1.8623
11822WAT     H248009   6.759   1.213   6.011  0.1423 -0.0702 -1.1524
11822WAT    EPW48010   6.830   1.241   6.029 -0.0842 -0.0481 -0.2336
11823WAT      O48011   4.399   7.466   3.621  0.3928 -0.4459  0.1552
11823WAT     H148012   4.485   7.468   3.636  0.2058  1.3697  1.2779
11823WAT     H248013   4.372   7.396   3.666  1.2926 -1.2959 -0.5559
11823WAT    EPW48014   4.408   7.456   3.630  0.4981 -0.3033  0.2160
11824WAT      O48015   3.464   6.210   3.838  0.2534  0.3498  0.3151
11824WAT     H148016   3.461   6.260   3.909  0.3887  0.5046  0.2121
11824WAT     H248017   3.515   6.143   3.861  1.4203  1.0830 -0.0674
11824WAT    EPW48018   3.471   6.207   3.852  0.4458  0.4810  0.2434
11825WAT      O48019   1.906   7.680   6.651 -0.2505  0.3429  0.6231
11825WAT     H148020   1.958   7.613   6.629  0.4324  2.0047 -3.8502
11825WAT     H248021   1.827   7.653   6.625 -0.4246  0.3530  1.1382
11825WAT    EPW48022   1.902   7.666   6.644 -0.1753  0.5898  0.0384
11826WAT      O48023   2.045   5.191   3.871 -0.1756 -0.6500  0.3295
11826WAT     H148024   2.001   5.267   3.867  0.4585 -0.3183 -2.2865
11826WAT     H248025   2.125   5.213   3.846 -0.2100 -2.3004 -1.4019
11826WAT    EPW48026   2.050   5.205   3.867 -0.0871 -0.8448 -0.3127
11827WAT      O48027   4.778   7.620   5.210 -0.1820  0.0561  0.1645
11827WAT     H148028   4.762   7.572   5.282 -0.6488 -2.1800 -1.3241
11827WAT     H248029   4.821   7.564   5.158 -0.0221  1.5547 -1.3752
11827WAT    EPW48030   4.782   7.604   5.213 -0.2274 -0.0528 -0.2829
11828WAT      O48031   3.984   0.158   3.397  0.1269 -0.0371 -0.4930
11828WAT     H148032   4.045   0.221   3.399  0.4475 -0.3630  0.6116
11828WAT     H248033   4.025   0.088   3.429 -0.8733 -0.2198  0.4504
11828WAT    EPW48034   3.999   0.157   3.402  0.0265 -0.1122 -0.1905
11829WAT      O48035   1.724   7.304   5.569 -0.1842  0.5930  0.0239
11829WAT     H148036   1.735   7.386   5.599  0.1173 -0.0268  1.7385
11829WAT     H248037   1.689   7.316   5.490  1.2421  2.4096 -0.4162
11829WAT    EPW48038   1.720   7.318   5.562  0.0710  0.7698  0.2121
11830WAT      O48039   3.527   2.792   1.088 -0.6922  0.8615 -0.2588
11830WAT     H148040   3.450   2.751   1.096 -0.1449 -0.6174 -1.9417
11830WAT     H248041   3.519   2.836   1.013 -0.1722  1.3069 -0.0558
11830WAT    EPW48042   3.514   2.792   1.078 -0.5345  0.7088 -0.4774
11831WAT      O48043   1.061   3.555   3.920  0.0978 -0.3620 -0.2026
11831WAT     H148044   0.992   3.514   3.954 -0.5490  1.4635  0.8730
11831WAT     H248045   1.044   3.639   3.936  2.6183  0.1435  0.1717
11831WAT    EPW48046   1.048   3.562   3.927  0.3746 -0.0177  0.0116
11832WAT      O48047   2.821   0.686   7.828 -0.3722  0.1546 -0.0792
11832WAT     H148048   2.891   0.645   7.860  0.9273  0.8035 -1.8767
11832WAT     H248049   2.764   0.684   7.893 -0.2762 -4.0690  0.1388
11832WAT    EPW48050   2.823   0.680   7.842 -0.1661 -0.3734 -0.3126
11833WAT      O48051   3.175   3.223   2.049 -0.5495  0.4328  0.1392
11833WAT     H148052   3.114   3.163   2.066  0.1731 -0.4049 -0.0723
11833WAT     H248053   3.225   3.221   2.121 -1.3450  1.8709  0.7556
11833WAT    EPW48054   3.174   3.214   2.062 -0.5603  0.5215  0.1990
11834WAT      O48055   1.875   0.413   7.749 -0.5878 -0.4791 -0.4316
11834WAT     H148056   1.855   0.483   7.702 -1.7769 -0.9781 -0.7302
11834WAT     H248057   1.798   0.372   7.757  0.0636 -1.7042 -0.2068
11834WAT    EPW48058   1.860   0.417   7.743 -0.6672 -0.7338 -0.4425
11835WAT      O48059   0.747   7.202   5.589 -0.3862 -0.2994 -0.8456
11835WAT     H148060   0.729   7.284   5.611 -1.1828 -0.9846  1.3087
11835WAT     H248061   0.795   7.210   5.517 -0.6936  2.0249 -0.8587
11835WAT    EPW48062   0.751   7.215   5.582 -0.5493 -0.0573 -0.5293
11836WAT      O48063   4.268   0.281   4.926 -0.0290 -0.2947  0.3802
11836WAT     H148064   4.338   0.301   4.878  0.8169 -0.6557  1.4081
11836WAT     H248065   4.226   0.222   4.877 -1.3179  2.1233 -1.6265
11836WAT    EPW48066   4.273   0.275   4.912 -0.0944  0.0092  0.2356
11837WAT      O48067   2.192   1.290   2.116 -0.2774  0.2471  0.3027
11837WAT     H148068   2.126   1.260   2.068  0.8691  0.6175 -1.6064
11837WAT     H248069   2.253   1.229   2.108 -0.2885 -0.0182  1.9138
11837WAT    EPW48070   2.191   1.277   2.108 -0.1097  0.2626  0.2587
11838WAT      O48071   6.721   4.093   4.191 -0.5519  0.3410 -0.4114
11838WAT     H148072   6.692   4.066   4.114 -0.7052  1.0046 -0.5973
11838WAT     H248073   6.653   4.136   4.225 -1.0330 -1.2746  0.8017
11838WAT    EPW48074   6.707   4.095   4.185 -0.6456  0.2004 -0.2597
11839WAT      O48075   1.568   4.810   4.721  0.0435 -0.3519 -0.0142
11839WAT     H148076   1.543   4.888   4.750  2.5025  0.6118 -0.2106
11839WAT     H248077   1.494   4.772   4.695 -1.0594  2.9057 -2.2592
11839WAT    EPW48078   1.553   4.816   4.721  0.2438  0.2717 -0.3748
11840WAT      O48079   1.799   7.397   0.664  0.1766 -0.1123  0.0611
11840WAT     H148080   1.722   7.390   0.705  0.0480 -3.1233 -0.4835
11840WAT     H248081   1.855   7.358   0.719  1.0002  0.5025 -0.3188
11840WAT    EPW48082   1.796   7.390   0.678  0.2793 -0.4663 -0.0755
11841WAT      O48083   2.246   2.223   3.735 -0.7627  0.0475 -0.0138
11841WAT     H148084   2.298   2.245   3.802 -0.9833 -0.1880  0.2364
11841WAT     H248085   2.295   2.169   3.688 -1.3253 -1.5067  1.0971
11841WAT    EPW48086   2.261   2.218   3.738 -0.8784 -0.2168  0.1873
11842WAT      O48087   7.011   1.188   4.343  0.3048 -0.0252 -0.1809
11842WAT     H148088   6.991   1.217   4.422 -0.2584  2.1884 -1.0548
11842WAT     H248089   7.092   1.215   4.330 -0.8189  3.1301 -1.7081
11842WAT    EPW48090   7.020   1.196   4.352  0.0556  0.7679 -0.5356
11843WAT      O48091   2.781   1.424   3.299  0.0938 -0.0791  0.1308
11843WAT     H148092   2.746   1.490   3.343  0.1085 -0.8115  1.2886
11843WAT     H248093   2.867   1.442   3.298 -0.1527  1.4909 -2.3269
11843WAT    EPW48094   2.789   1.436   3.305  0.0596  0.0446 -0.0612
11844WAT      O48095   5.204   5.374   5.291  0.5695 -0.4933 -0.1314
11844WAT     H148096   5.121   5.368   5.320  0.2424  1.6614 -0.4342
11844WAT     H248097   5.215   5.299   5.247 -0.0930 -2.3130  2.5118
11844WAT    EPW48098   5.193   5.362   5.289  0.4233 -0.4438  0.2144
11845WAT      O48099   2.373   1.843   2.380  0.1643  0.2751  0.5146
11845WAT     H148100   2.318   1.776   2.393  1.4082 -0.8556  0.1663
11845WAT     H248101   2.412   1.852   2.458  1.4732 -0.8252  0.0372
11845WAT    EPW48102   2.370   1.834   2.393  0.5414 -0.0544  0.3926
11846WAT      O48103   2.814   2.210   7.626  0.3826 -0.0403 -1.1229
11846WAT     H148104   2.794   2.288   7.659 -0.2392 -0.3137 -0.8291
11846WAT     H248105   2.898   2.217   7.605  0.6131  0.3642 -0.1105
11846WAT    EPW48106   2.823   2.222   7.628  0.3248 -0.0209 -0.9299
11847WAT      O48107   2.280   3.320   0.196  0.0688  0.0499  0.2117
11847WAT     H148108   2.302   3.369   0.265  3.0911  0.3301 -0.7897
11847WAT     H248109   2.231   3.373   0.148  0.5731  0.9541  0.6732
11847WAT    EPW48110   2.276   3.335   0.199  0.5898  0.2249  0.1319
11848WAT      O48111   1.526   1.581   0.013 -0.6078 -0.6337  0.1589
11848WAT     H148112   1.610   1.587   0.037 -1.1655  0.6584  1.9872
11848WAT     H248113   1.487   1.547   0.083 -1.4339 -2.7448 -1.2224
11848WAT    EPW48114   1.533   1.577   0.027 -0.8122 -0.7547  0.2249
11849WAT      O48115   2.620   0.909   3.250  0.0032  0.5169 -0.1644
11849WAT     H148116   2.584   0.839   3.212  0.8877 -0.3413  0.5120
11849WAT     H248117   2.551   0.961   3.267 -0.9603 -1.0680  1.0832
11849WAT    EPW48118   2.604   0.906   3.247 -0.0085  0.1560  0.1198
11850WAT      O48119   2.539   5.713   2.407 -0.2499 -0.4769  0.2753
11850WAT     H148120   2.461   5.709   2.445 -0.4200  0.6677  0.0769
11850WAT     H248121   2.577   5.637   2.429 -1.5627 -1.2273  0.0231
11850WAT    EPW48122   2.533   5.701   2.416 -0.4689 -0.4187  0.2088
11851WAT      O48123   1.137   4.220   4.868  0.4569 -0.4654 -0.8902
11851WAT     H148124   1.137   4.177   4.944 -0.7399  2.2561  0.7661
11851WAT     H248125   1.215   4.200   4.834  1.7218 -0.5304  1.8024
11851WAT    EPW48126   1.148   4.211   4.874  0.4670 -0.0730 -0.2478
11852WAT      O48127   1.326   2.852   3.459 -0.4048  0.2258  0.1495
11852WAT     H148128   1.376   2.920   3.437  0.2741 -0.4063 -0.3056
11852WAT     H248129   1.246   2.886   3.465 -0.1822  0.9351 -0.7534
11852WAT    EPW48130   1.322   2.867   3.457 -0.2717  0.2372 -0.0511
11853WAT      O48131   3.985   0.291   5.479  0.1428  0.0554 -0.3541
11853WAT     H148132   4.000   0.373   5.502 -1.9461  0.5029 -0.3334
11853WAT     H248133   3.916   0.297   5.425 -0.2321 -1.6703 -0.1334
11853WAT    EPW48134   3.977   0.304   5.475 -0.2212 -0.1334 -0.3184
11854WAT      O48135   4.176   1.506   1.473  0.2964 -0.0667 -0.1944
11854WAT     H148136   4.167   1.550   1.398  0.5439  1.2567  0.5407
11854WAT     H248137   4.167   1.567   1.535 -1.3671 -1.3482  0.9271
11854WAT    EPW48138   4.173   1.521   1.471  0.0872 -0.0605  0.0799
11855WAT      O48139   0.492   1.824   4.106  0.1683  0.1387  0.2816
11855WAT     H148140   0.475   1.743   4.133  1.7610 -0.0213  0.9162
11855WAT     H248141   0.551   1.813   4.042  1.5552  0.8085  1.3681
11855WAT    EPW48142   0.498   1.810   4.100  0.6084  0.2140  0.5359
11856WAT      O48143   1.175   2.961   3.959  0.0984  0.6887 -0.1532
11856WAT     H148144   1.157   3.030   3.909 -1.3170  0.4660  0.0207
11856WAT     H248145   1.236   2.918   3.914  0.7520  1.8472 -0.4292
11856WAT    EPW48146   1.181   2.965   3.945 -0.0141  0.8270 -0.1683
11857WAT      O48147   3.379   0.873   2.040  0.3594 -0.7246 -0.3087
11857WAT     H148148   3.390   0.787   2.049  1.0372 -0.5858  0.2588
11857WAT     H248149   3.460   0.904   2.030  0.3958  0.0934  1.8946
11857WAT    EPW48150   3.393   0.865   2.040  0.4649 -0.5833  0.1006
11858WAT      O48151   2.258   6.192   1.004  0.6251 -0.1481  0.4227
11858WAT     H148152   2.196   6.227   0.953  0.5853 -0.8725 -0.0390
11858WAT     H248153   2.321   6.252   1.004 -0.0845  0.6157  0.9187
11858WAT    EPW48154   2.258   6.206   0.996  0.5144 -0.1423  0.4278
11859WAT      O48155   5.743   1.650   3.206 -0.4269  0.3239  0.5882
11859WAT     H148156   5.717   1.690   3.279 -1.7597 -1.2009  1.0152
11859WAT     H248157   5.801   1.591   3.235 -0.7915 -0.1341  0.4060
11859WAT    EPW48158   5.748   1.647   3.221 -0.6777  0.0310  0.6244
11860WAT      O48159   1.416   3.311   7.578 -0.5739  0.0841 -0.6226
11860WAT     H148160   1.489   3.341   7.616 -0.5401 -0.6477 -0.0925
11860WAT     H248161   1.380   3.383   7.545  0.3354  0.4727 -0.8017
11860WAT    EPW48162   1.422   3.326   7.579 -0.4345  0.0334 -0.5707
11861WAT      O48163   1.013   7.007   3.785 -0.4771  0.1479  0.2425
11861WAT     H148164   1.041   7.040   3.861  2.5537 -1.9665  0.1925
11861WAT     H248165   1.012   6.921   3.799 -3.0636 -0.1744 -1.2210
11861WAT    EPW48166   1.017   7.000   3.799 -0.4114 -0.2120  0.0190
11862WAT      O48167   1.043   2.541   7.857 -0.1079 -0.2597 -0.5063
11862WAT     H148168   0.988   2.496   7.907  0.4834 -0.0491  0.3568
11862WAT     H248169   1.121   2.528   7.895 -0.1555  3.3051  1.2357
11862WAT    EPW48170   1.046   2.533   7.870 -0.0276  0.2980 -0.1215
11863WAT      O48171   4.001   2.128   6.230 -0.2157 -0.2955  0.1173
11863WAT     H148172   4.079   2.139   6.192 -0.3066 -3.0714 -1.0543
11863WAT     H248173   3.945   2.159   6.171 -0.1618 -1.6479 -0.6805
11863WAT    EPW48174   4.005   2.135   6.216 -0.2212 -0.9054 -0.1737
11864WAT      O48175   1.634   4.162   4.921 -0.2205  0.4232 -0.0269
11864WAT     H148176   1.708   4.141   4.962  0.1881 -0.9821 -1.3632
11864WAT     H248177   1.646   4.246   4.899  3.1152 -0.7110 -4.0807
11864WAT    EPW48178   1.647   4.171   4.924  0.3326  0.0481 -0.8231
11865WAT      O48179   6.709   2.232   5.020 -0.1642 -0.2525  0.4640
11865WAT     H148180   6.662   2.297   5.054 -0.5801 -1.0504  1.4874
11865WAT     H248181   6.783   2.271   4.995  0.1473  0.4119  2.2909
11865WAT    EPW48182   6.713   2.248   5.021 -0.1796 -0.2722  0.8851
11866WAT      O48183   5.509   5.847   3.785  0.2472  0.0538  0.3955
11866WAT     H148184   5.486   5.855   3.701 -0.9529  0.0197  0.6951
11866WAT     H248185   5.510   5.760   3.797 -1.1828  0.0522  0.7862
11866WAT    EPW48186   5.506   5.835   3.774 -0.1413  0.0485  0.4974
11867WAT      O48187   1.825   2.150   4.921 -0.4812  0.0465  0.4728
11867WAT     H148188   1.902   2.180   4.891  0.2503 -0.3898  1.8283
11867WAT     H248189   1.795   2.102   4.855  0.1765  0.6124 -0.2601
11867WAT    EPW48190   1.832   2.147   4.907 -0.2760  0.0657  0.5648
11868WAT      O48191   1.155   1.566   5.137 -0.4360  0.1926 -0.0829
11868WAT     H148192   1.085   1.591   5.091 -0.2684 -0.3568 -0.6518
11868WAT     H248193   1.151   1.479   5.135  0.8020  0.1319 -0.9775
11868WAT    EPW48194   1.144   1.557   5.130 -0.2283  0.1024 -0.2991
11869WAT      O48195   3.277   2.080   3.580  0.4131 -0.5427  0.0063
11869WAT     H148196   3.262   2.125   3.653  3.1029 -0.1565  0.3965
11869WAT     H248197   3.335   2.128   3.537  1.2065 -2.2336 -0.9205
11869WAT    EPW48198   3.283   2.094   3.584  0.9276 -0.7354 -0.0729
11870WAT      O48199   6.773   6.552   5.534  0.3161  0.2819 -0.2775
11870WAT     H148200   6.702   6.508   5.511  0.1680 -0.9298  2.2404
11870WAT     H248201   6.758   6.632   5.502 -1.1477 -0.4733 -1.6478
11870WAT    EPW48202   6.760   6.558   5.526  0.0780 -0.0086 -0.1080
11871WAT      O48203   1.289   1.500   3.270 -0.1187 -0.0550 -0.7293
11871WAT     H148204   1.375   1.485   3.274 -0.0154  0.3630 -1.2339
11871WAT     H248205   1.282   1.584   3.293 -0.6439 -0.7007  1.6480
11871WAT    EPW48206   1.301   1.510   3.274 -0.1810 -0.0886 -0.4527
11872WAT      O48207   2.839   1.664   3.539 -0.3357  0.7820  0.0747
11872WAT     H148208   2.862   1.588   3.576  0.0571 -0.5779 -2.6792
11872WAT     H248209   2.914   1.693   3.504 -1.2674 -0.0796 -2.9426
11872WAT    EPW48210   2.853   1.657   3.539 -0.4153  0.4539 -0.7778
11873WAT      O48211   2.784   2.686   0.595  0.0268  0.0985  0.0923
11873WAT     H148212   2.800   2.738   0.527  1.4324  0.3662  0.6055
11873WAT     H248213   2.830   2.614   0.577  0.8062  0.3568  0.9686
11873WAT    EPW48214   2.793   2.683   0.582  0.3495  0.1762  0.2976
11874WAT      O48215   1.527   1.796   0.296 -0.0996  0.4289 -0.1938
11874WAT     H148216   1.498   1.721   0.263 -0.6338  1.1190 -1.3497
11874WAT     H248217   1.467   1.818   0.355 -0.1921  0.1879 -0.1993
11874WAT    EPW48218   1.514   1.788   0.300 -0.1921  0.4952 -0.3654
11875WAT      O48219   6.305   7.371   5.502 -0.3000 -0.5135  0.6542
11875WAT     H148220   6.251   7.412   5.446 -0.9823  2.4743  3.2485
11875WAT     H248221   6.252   7.319   5.547 -0.3254 -0.4622  0.6838
11875WAT    EPW48222   6.289   7.369   5.500 -0.4045 -0.0646  1.0418
11876WAT      O48223   2.249   0.350   1.577  0.3243  0.4433  0.4988
11876WAT     H148224   2.320   0.312   1.545  0.3316  0.5703  0.3671
11876WAT     H248225   2.187   0.331   1.518 -0.7933 -3.2687  2.5190
11876WAT    EPW48226   2.250   0.341   1.564  0.1603 -0.0863  0.7778
11877WAT      O48227   0.205   1.578   4.067 -0.1485 -0.1128 -0.1828
11877WAT     H148228   0.284   1.584   4.104  0.3780  1.6587 -1.4331
11877WAT     H248229   0.192   1.492   4.061  1.7988 -0.4654 -0.1324
11877WAT    EPW48230   0.215   1.566   4.071  0.2170  0.0968 -0.3601
11878WAT      O48231   5.552   5.622   5.381 -0.5059  0.2446  0.3476
11878WAT     H148232   5.611   5.618   5.317 -0.4262  0.2211  0.4222
11878WAT     H248233   5.587   5.572   5.444 -1.1258 -0.7036 -0.0337
11878WAT    EPW48234   5.566   5.614   5.381 -0.5857  0.1010  0.3023
11879WAT      O48235   1.509   3.775   3.545  0.0156 -0.1363 -0.0622
11879WAT     H148236   1.443   3.830   3.557  1.5705  2.6224 -2.6901
11879WAT     H248237   1.487   3.705   3.592 -3.2124  1.8194  1.6632
11879WAT    EPW48238   1.496   3.772   3.554 -0.2315  0.5601 -0.1955
11880WAT      O48239   2.453   0.174   1.474 -0.3259  0.1880  0.1426
11880WAT     H148240   2.480   0.099   1.508  1.1422  0.7972  0.3720
11880WAT     H248241   2.465   0.164   1.388  0.0818  0.2332  0.1926
11880WAT    EPW48242   2.459   0.161   1.466 -0.0488  0.2847  0.1839
11881WAT      O48243   2.415   5.801   3.370 -0.1844  0.4187 -0.2750
11881WAT     H148244   2.432   5.756   3.443  1.0203 -1.7427 -1.7600
11881WAT     H248245   2.485   5.785   3.320  0.3179  4.0093 -0.9741
11881WAT    EPW48246   2.428   5.792   3.373  0.0678  0.6298 -0.5976
11882WAT      O48247   0.583   7.164   4.894 -0.0603 -0.2302  0.8201
11882WAT     H148248   0.568   7.250   4.903 -0.1282 -0.1334 -0.1186
11882WAT     H248249   0.670   7.158   4.897 -0.1044 -0.3582  2.6667
11882WAT    EPW48250   0.594   7.176   4.896 -0.0768 -0.2348  0.9542
11883WAT      O48251   5.082   4.360   2.641  0.2125 -0.2968 -0.4466
11883WAT     H148252   5.065   4.387   2.560  0.1003  1.5180  0.1262
11883WAT     H248253   5.032   4.289   2.650 -0.7123  0.1811 -1.5532
11883WAT    EPW48254   5.072   4.353   2.630  0.0593  0.0419 -0.5255
11884WAT      O48255   2.212   0.405   2.273  0.3373  0.3858 -0.7425
11884WAT     H148256   2.229   0.417   2.188  2.4377  2.2472 -0.1636
11884WAT     H248257   2.291   0.392   2.307 -0.3609  0.6496  1.0646
11884WAT    EPW48258   2.226   0.404   2.265  0.5444  0.6997 -0.3900
11885WAT      O48259   0.704   5.993   7.765 -0.3145  0.1620  0.0074
11885WAT     H148260   0.667   5.973   7.841  1.8706 -2.7691  0.4497
11885WAT     H248261   0.662   5.942   7.708  0.9209 -0.9375  0.0357
11885WAT    EPW48262   0.693   5.983   7.768  0.1908 -0.4334  0.0769
11886WAT      O48263   3.178   1.593   6.413  0.2785 -0.4693  0.0351
11886WAT     H148264   3.120   1.658   6.419  0.4679 -0.3659  1.0135
11886WAT     H248265   3.241   1.626   6.363  1.2954  0.8558  2.0434
11886WAT    EPW48266   3.179   1.608   6.407  0.4567 -0.2583  0.4763
11887WAT      O48267   4.055   4.469   1.800 -0.0447 -0.3712  0.3854
11887WAT     H148268   3.972   4.496   1.804 -0.0847 -0.2778 -0.6930
11887WAT     H248269   4.100   4.544   1.792 -0.1301 -0.5115 -2.3012
11887WAT    EPW48270   4.050   4.484   1.799 -0.0632 -0.3782 -0.1708
11888WAT      O48271   1.344   0.755   4.273  0.3685 -0.5687  0.3766
11888WAT     H148272   1.408   0.737   4.216  1.8493 -0.2015  1.8217
11888WAT     H248273   1.386   0.758   4.349 -0.9319  2.1046  1.1087
11888WAT    EPW48274   1.360   0.753   4.276  0.3951 -0.1196  0.6982
11889WAT      O48275   2.309   4.115   7.357  0.0907  0.5245  0.0792
11889WAT     H148276   2.272   4.180   7.403 -1.1952  1.8614 -2.5841
11889WAT     H248277   2.267   4.119   7.280  2.6139 -1.0142 -1.5043
11889WAT    EPW48278   2.297   4.125   7.352  0.2735  0.4947 -0.5481
11890WAT      O48279   3.271   0.206   6.849  0.1727 -0.2813  0.5468
11890WAT     H148280   3.334   0.240   6.799 -0.5444  0.8137  0.3400
11890WAT     H248281   3.239   0.275   6.891 -0.1607 -0.9850  1.4833
11890WAT    EPW48282   3.275   0.221   6.848  0.0175 -0.2235  0.6546
11891WAT      O48283   3.924   1.425   0.983 -1.0425  0.2268 -0.4052
11891WAT     H148284   4.010   1.415   0.988 -1.1361 -0.2042  0.5262
11891WAT     H248285   3.893   1.344   0.977 -1.3562  0.4091 -1.4229
11891WAT    EPW48286   3.932   1.412   0.983 -1.1026  0.1901 -0.4179
11892WAT      O48287   1.767   1.965   4.132  0.0804  0.0821 -0.2221
11892WAT     H148288   1.794   1.918   4.064 -0.5819 -1.7600  0.7390
11892WAT     H248289   1.838   1.971   4.183  0.3785  0.8460 -0.7063
11892WAT    EPW48290   1.782   1.959   4.130  0.0266 -0.0772 -0.1516
11893WAT      O48291   4.955   6.072   4.810  0.5428 -0.3256  0.1056
11893WAT     H148292   4.983   6.063   4.892  0.3835  3.1468  0.6944
11893WAT     H248293   5.027   6.061   4.762  1.3157  0.6002  1.0006
11893WAT    EPW48294   4.969   6.069   4.815  0.6335  0.3241  0.3248
11894WAT      O48295   4.293   2.896   1.292 -0.4007  0.2510 -0.6384
11894WAT     H148296   4.245   2.825   1.277 -1.5387  0.9649 -0.5078
11894WAT     H248297   4.244   2.961   1.259  0.4493  1.0112 -0.4410
11894WAT    EPW48298   4.279   2.895   1.285 -0.4432  0.4688 -0.5899
11895WAT      O48299   2.906   2.952   4.503 -0.3639 -0.1867  0.1802
11895WAT     H148300   2.937   2.960   4.584  1.6099 -0.7852 -0.4617
11895WAT     H248301   2.957   3.005   4.456 -1.9592  0.7580 -0.6039
11895WAT    EPW48302   2.918   2.961   4.508 -0.3080 -0.1355 -0.0305
11896WAT      O48303   1.060   3.463   4.699 -0.4515 -0.1223 -0.4056
11896WAT     H148304   1.109   3.529   4.729 -1.0108  0.2375 -0.2640
11896WAT     H248305   1.074   3.399   4.758 -1.7885  0.6790  0.8607
11896WAT    EPW48306   1.069   3.463   4.712 -0.7316  0.0492 -0.1976
11897WAT      O48307   2.348   2.324   7.725  0.0078 -0.0910 -0.0709
11897WAT     H148308   2.370   2.247   7.690  0.8611  0.2684 -0.3565
11897WAT     H248309   2.265   2.334   7.701 -0.1099 -0.9119 -0.0478
11897WAT    EPW48310   2.339   2.314   7.716  0.1164 -0.1592 -0.1097
11898WAT      O48311   2.320   3.591   4.094  0.6585  0.1362 -0.0771
11898WAT     H148312   2.246   3.637   4.091  0.8224  0.3955 -0.0915
11898WAT     H248313   2.300   3.526   4.149  0.5407  0.4217  0.2205
11898WAT    EPW48314   2.306   3.588   4.102  0.6653  0.2167 -0.0353
11899WAT      O48315   2.240   7.326   0.686 -0.4442  0.1530  0.0321
11899WAT     H148316   2.288   7.255   0.668 -0.3978  0.2890 -0.4003
11899WAT     H248317   2.288   7.391   0.653 -0.5716  0.3689  0.2697
11899WAT    EPW48318   2.254   7.325   0.678 -0.4562  0.2050  0.0033
11900WAT      O48319   2.236   6.212   6.470 -0.1638  0.6547 -0.2737
11900WAT     H148320   2.216   6.148   6.526  1.3682 -0.5867 -1.1012
11900WAT     H248321   2.283   6.173   6.408 -0.4335  2.3045 -1.6039
11900WAT    EPW48322   2.240   6.197   6.469  0.0226  0.7150 -0.5924
11901WAT      O48323   5.153   5.670   6.280  0.0929 -0.5718  0.7811
11901WAT     H148324   5.208   5.668   6.213 -1.0441 -2.7398 -0.1769
11901WAT     H248325   5.089   5.723   6.253 -0.1368 -1.0756  0.3210
11901WAT    EPW48326   5.152   5.677   6.266 -0.1090 -0.9665  0.5716
11902WAT      O48327   6.829   4.576   5.741  0.0463  0.6921  0.6040
11902WAT     H148328   6.797   4.496   5.724  0.1069  0.2567  2.3083
11902WAT     H248329   6.911   4.572   5.712  0.5627 -0.4555  2.0459
11902WAT    EPW48330   6.836   4.564   5.734  0.1316  0.4582  1.0688
11903WAT      O48331   2.569   0.360   4.899  0.0626 -0.4835 -0.5609
11903WAT     H148332   2.610   0.410   4.958  0.9301 -1.2293 -0.5148
11903WAT     H248333   2.510   0.316   4.946 -0.8084  0.5639 -0.6207
11903WAT    EPW48334   2.566   0.361   4.915  0.0621 -0.4389 -0.5629
11904WAT      O48335   2.581   3.302   4.161  0.6620 -0.0030  0.7941
11904WAT     H148336   2.549   3.360   4.218  2.0329  1.0218  0.6005
11904WAT     H248337   2.647   3.265   4.205 -0.4795 -1.7936  1.0707
11904WAT    EPW48338   2.586   3.305   4.176  0.6959 -0.1161  0.8064
11905WAT      O48339   3.942   4.785   1.628 -0.4688  0.2747 -0.1857
11905WAT     H148340   3.894   4.854   1.654 -1.5845  0.1259 -1.7164
11905WAT     H248341   3.920   4.776   1.544  1.9052 -0.1227 -0.8296
11905WAT    EPW48342   3.931   4.794   1.619 -0.2830  0.1940 -0.5070
11906WAT      O48343   1.441   5.283   2.329  0.6064 -0.1674  0.0526
11906WAT     H148344   1.444   5.200   2.355 -0.6770  0.0656  1.0381
11906WAT     H248345   1.368   5.287   2.281  0.8076  0.3345 -0.2268
11906WAT    EPW48346   1.430   5.271   2.326  0.4465 -0.0588  0.1569
11907WAT      O48347   4.514   1.326   0.066 -0.1473 -0.6259 -0.4509
11907WAT     H148348   4.581   1.276   0.092  1.0271  1.4030  0.6266
11907WAT     H248349   4.504   1.382   0.132 -1.5210  0.4803 -1.5520
11907WAT    EPW48350   4.522   1.327   0.080 -0.1768 -0.1628 -0.4544
11908WAT      O48351   4.290   5.778   3.996 -0.1308  0.1704  0.3574
11908WAT     H148352   4.229   5.840   4.001  0.5464  0.9193 -0.3721
11908WAT     H248353   4.277   5.730   4.068  1.2676  2.9451  2.6685
11908WAT    EPW48354   4.279   5.780   4.008  0.1758  0.6909  0.5910
11909WAT      O48355   1.829   0.214   5.227  0.4119 -0.3644  0.6382
11909WAT     H148356   1.894   0.157   5.217  0.1987 -0.2409 -2.6301
11909WAT     H248357   1.870   0.290   5.238  0.8398 -0.4360 -0.3447
11909WAT    EPW48358   1.844   0.216   5.227  0.4436 -0.3567  0.0102
11910WAT      O48359   3.812   1.763   5.959 -0.1692 -0.2135  0.1330
11910WAT     H148360   3.786   1.752   6.041  0.3372  2.0755  0.6771
11910WAT     H248361   3.875   1.704   5.948  2.1579  1.6047  2.5855
11910WAT    EPW48362   3.817   1.753   5.969  0.2494  0.3932  0.5757
11911WAT      O48363   3.251   1.613   0.364 -0.5502 -0.1588  0.1333
11911WAT     H148364   3.335   1.599   0.346  0.1358  0.0359  2.8228
11911WAT     H248365   3.230   1.547   0.417 -1.9337  0.1211 -0.0306
11911WAT    EPW48366   3.260   1.602   0.369 -0.6533 -0.0887  0.5064
11912WAT      O48367   2.987   5.044   3.257 -0.5042  0.0761 -0.2120
11912WAT     H148368   3.066   5.082   3.253  0.4686 -1.7733  0.2198
11912WAT     H248369   2.980   5.019   3.341 -0.6803 -1.4550 -0.6498
11912WAT    EPW48370   2.998   5.046   3.269 -0.3865 -0.4233 -0.2129
11913WAT      O48371   7.191   7.480   5.962 -0.0231  0.2043 -0.0658
11913WAT     H148372   7.226   7.404   5.937  1.2141  0.9566 -0.6970
11913WAT     H248373   7.142   7.504   5.894 -2.6235 -1.2534  1.1249
11913WAT    EPW48374   7.189   7.473   5.948 -0.2245  0.1001  0.0169
11914WAT      O48375   3.843   0.100   0.710 -0.1550  0.0960  0.0623
11914WAT     H148376   3.872   0.028   0.749  0.6881  0.3686 -0.0433
11914WAT     H248377   3.786   0.133   0.768 -1.5619 -1.3219 -0.4381
11914WAT    EPW48378   3.839   0.094   0.724 -0.2383 -0.0732 -0.0272
11915WAT      O48379   5.589   7.199   3.308  0.0629  0.4415  0.6441
11915WAT     H148380   5.583   7.221   3.392 -0.6953  0.1570  0.6746
11915WAT     H248381   5.510   7.166   3.290  0.0769  0.8840 -0.2897
11915WAT    EPW48382   5.576   7.197   3.318 -0.0471  0.4649  0.5107
11916WAT      O48383   3.086   2.775   0.929  0.3067 -1.0388 -0.2875
11916WAT     H148384   3.094   2.729   0.856 -2.3552 -0.8574 -0.7748
11916WAT     H248385   3.020   2.830   0.912 -0.9578 -1.5307  2.4960
11916WAT    EPW48386   3.078   2.777   0.916 -0.2733 -1.0847  0.0517
11917WAT      O48387   2.034   0.058   4.872 -0.2845 -0.0176 -0.0575
11917WAT     H148388   2.107   0.016   4.894 -0.5849 -0.2106  0.5984
11917WAT     H248389   1.973   0.022   4.922 -0.6341  0.8739  0.1871
11917WAT    EPW48390   2.036   0.047   4.883 -0.3805  0.0856  0.0755
11918WAT      O48391   2.084   3.489   5.307  0.2961  0.6160 -0.4790
11918WAT     H148392   2.127   3.455   5.239 -0.6807  1.4548 -1.5498
11918WAT     H248393   2.005   3.451   5.303  0.2227  0.6912  0.1796
11918WAT    EPW48394   2.079   3.478   5.296  0.1410  0.7510 -0.5399
11919WAT      O48395   1.850   7.403   7.763  0.2433 -0.3874 -0.3556
11919WAT     H148396   1.829   7.371   7.685  0.5588 -1.6861  0.0508
11919WAT     H248397   1.916   7.351   7.789  0.1945  0.0576  0.7364
11919WAT    EPW48398   1.857   7.390   7.755  0.2827 -0.5135 -0.1343
11920WAT      O48399   4.394   4.760   2.272  0.1802 -0.0807  0.1653
11920WAT     H148400   4.370   4.835   2.233 -0.9523 -0.6006 -0.1663
11920WAT     H248401   4.456   4.785   2.328  0.0666  1.0549 -0.1946
11920WAT    EPW48402   4.400   4.775   2.274 -0.0039  0.0103  0.0632
11921WAT      O48403   1.644   1.368   7.599  0.0364  0.2131 -0.0028
11921WAT     H148404   1.652   1.369   7.686 -3.7757  0.0068  0.5576
11921WAT     H248405   1.706   1.314   7.573  1.9430  1.0254  2.4539
11921WAT    EPW48406   1.654   1.360   7.608 -0.2451  0.3026  0.4429
11922WAT      O48407   1.589   4.551   2.893 -0.2022 -0.2932 -0.2774
11922WAT     H148408   1.655   4.585   2.848 -1.9675  1.0650 -2.0068
11922WAT     H248409   1.620   4.473   2.920  2.9738  1.3175  1.3214
11922WAT    EPW48410   1.604   4.544   2.891  0.0062  0.1454 -0.2967
11923WAT      O48411   2.076   2.179   4.094  0.1857 -0.4456 -0.1733
11923WAT     H148412   2.007   2.180   4.041  0.5803 -2.4061 -0.8064
11923WAT     H248413   2.115   2.255   4.078 -0.9531  0.0067 -0.9687
11923WAT    EPW48414   2.071   2.190   4.084  0.0758 -0.6684 -0.3843
11924WAT      O48415   3.676   1.488   6.888  0.3173 -0.3887  0.3244
11924WAT     H148416   3.698   1.404   6.898  2.1027  0.0189  0.1248
11924WAT     H248417   3.615   1.501   6.949  0.1664 -1.7760  0.4935
11924WAT    EPW48418   3.670   1.478   6.899  0.5587 -0.5334  0.3199
11925WAT      O48419   0.024   4.726   5.407  0.2180 -0.4655 -0.3369
11925WAT     H148420   0.012   4.795   5.458 -0.5939 -0.5947 -0.3326
11925WAT     H248421   0.028   4.659   5.464 -0.6963 -0.6107 -0.4276
11925WAT    EPW48422   0.023   4.726   5.423 -0.0370 -0.5060 -0.3497
11926WAT      O48423   1.848   0.944   7.202  0.0657 -0.0999 -0.1737
11926WAT     H148424   1.932   0.935   7.223 -0.3145 -1.0906  1.0324
11926WAT     H248425   1.849   1.006   7.140  1.8768 -1.3894 -1.5629
11926WAT    EPW48426   1.860   0.952   7.196  0.2770 -0.4367 -0.2008
11927WAT      O48427   3.232   0.941   3.531  0.2393 -0.0538 -0.6644
11927WAT     H148428   3.170   0.996   3.558  0.8484  0.5543 -0.4806
11927WAT     H248429   3.298   0.993   3.510  1.5115 -0.7733  1.2621
11927WAT    EPW48430   3.232   0.957   3.532  0.5172 -0.0703 -0.3527
11928WAT      O48431   7.447   3.082   7.065 -0.0322 -0.1303  0.0721
11928WAT     H148432   7.406   3.086   7.142 -0.8824 -0.6882 -0.3347
11928WAT     H248433   7.442   3.163   7.035  1.5164  0.4254  1.1908
11928WAT    EPW48434   7.440   3.094   7.072  0.0710 -0.1306  0.1773
11929WAT      O48435   3.079   3.391   6.623  0.1191  0.4306 -0.0852
11929WAT     H148436   3.136   3.384   6.557 -0.5285 -1.2833 -0.5258
11929WAT     H248437   3.100   3.466   6.661 -0.4779  2.3312 -3.1726
11929WAT    EPW48438   3.091   3.401   6.618 -0.0648  0.4582 -0.6063
11930WAT      O48439   0.118   0.194   5.213 -0.3736  0.9296  0.2754
11930WAT     H148440   0.081   0.273   5.213 -0.7712  0.7443 -0.1721
11930WAT     H248441   0.052   0.140   5.198 -0.1962  0.4585  1.1479
11930WAT    EPW48442   0.103   0.198   5.211 -0.4061  0.8327  0.3382
11931WAT      O48443   5.347   5.244   6.375  0.0760  0.2165 -0.2449
11931WAT     H148444   5.261   5.231   6.384  0.2825 -0.5341  0.7750
11931WAT     H248445   5.374   5.263   6.456  1.1223 -1.1863 -0.2352
11931WAT    EPW48446   5.339   5.245   6.388  0.2611 -0.1016 -0.0928
11932WAT      O48447   2.118   7.612   3.545  0.4847  0.4381 -0.1845
11932WAT     H148448   2.031   7.609   3.535 -0.2772 -1.2488  4.2944
11932WAT     H248449   2.145   7.538   3.509  0.3160  1.4200 -2.4758
11932WAT    EPW48450   2.109   7.601   3.538  0.3473  0.3340  0.1387
11933WAT      O48451   0.389   7.108   4.136  0.0904 -0.6432 -0.0283
11933WAT     H148452   0.326   7.071   4.184  1.3114 -1.9328  0.6621
11933WAT     H248453   0.350   7.177   4.100 -2.1889 -2.3092 -0.9817
11933WAT    EPW48454   0.374   7.113   4.138 -0.0660 -1.0798 -0.0672
11934WAT      O48455   1.740   1.421   4.493  0.2550  0.4180 -0.3127
11934WAT     H148456   1.779   1.499   4.497 -0.2991  0.6836  0.0501
11934WAT     H248457   1.655   1.440   4.489  0.0642 -0.1720  0.5798
11934WAT    EPW48458   1.733   1.435   4.493  0.1450  0.3701 -0.1273
11935WAT      O48459   2.078   3.708   3.560 -1.0273  0.4516 -0.0004
11935WAT     H148460   2.138   3.684   3.619 -0.3923 -0.9376 -1.1453
11935WAT     H248461   2.009   3.659   3.582 -0.1754 -1.5458 -1.4950
11935WAT    EPW48462   2.077   3.697   3.572 -0.8077 -0.0487 -0.3903
11936WAT      O48463   5.282   1.923   4.622  0.0703 -0.5849 -0.6445
11936WAT     H148464   5.227   1.977   4.582 -0.1737 -1.3029 -1.3120
11936WAT     H248465   5.337   1.899   4.559  0.7550 -0.3789 -0.1323
11936WAT    EPW48466   5.282   1.927   4.607  0.1354 -0.6606 -0.6674
11937WAT      O48467   5.862   5.909   2.221 -0.1379  0.1061  0.1485
11937WAT     H148468   5.799   5.950   2.177  0.5091 -0.7885 -1.7068
11937WAT     H248469   5.843   5.824   2.211 -0.4540 -0.1382  2.3853
11937WAT    EPW48470   5.850   5.902   2.213 -0.0890 -0.0622  0.2049
11938WAT      O48471   6.606   6.372   6.594 -0.0713  0.2461 -0.1482
11938WAT     H148472   6.556   6.301   6.591  1.3916 -0.9723  1.9693
11938WAT     H248473   6.667   6.357   6.532 -0.8678  0.6177 -1.0514
11938WAT    EPW48474   6.608   6.359   6.584  0.0272  0.1210  0.0312
11939WAT      O48475   2.611   7.260   3.349  0.1861  0.3943 -0.5526
11939WAT     H148476   2.593   7.265   3.435  1.2230  0.9497 -0.3545
11939WAT     H248477   2.577   7.334   3.317 -0.2251  0.1743 -0.6390
11939WAT    EPW48478   2.603   7.272   3.357  0.2786  0.4439 -0.5361
11940WAT      O48479   5.925   7.379   1.878  0.4049 -0.1384  0.0666
11940WAT     H148480   5.988   7.352   1.823 -1.0339 -2.3008 -0.6535
11940WAT     H248481   5.863   7.409   1.824  0.8759  2.3619  0.7840
11940WAT    EPW48482   5.925   7.380   1.862  0.2619 -0.0885  0.0662
11941WAT      O48483   3.499   0.196   1.818 -0.0992  0.3304 -0.4398
11941WAT     H148484   3.478   0.187   1.734  1.0977 -0.3233 -0.7002
11941WAT     H248485   3.585   0.180   1.819 -0.4324 -1.7858  1.2071
11941WAT    EPW48486   3.509   0.192   1.806  0.0284 -0.0788 -0.2350
11942WAT      O48487   1.072   5.180   0.013  0.9727 -0.2796 -0.2142
11942WAT     H148488   1.079   5.094   0.004  2.5187 -0.2324  0.2895
11942WAT     H248489   1.040   5.190   0.094 -1.7849 -0.3940 -1.1814
11942WAT    EPW48490   1.068   5.169   0.024  0.7937 -0.2895 -0.2827
11943WAT      O48491   4.798   6.155   5.862 -0.3807 -0.4252  0.5705
11943WAT     H148492   4.869   6.205   5.862  0.2805 -1.2778 -1.0287
11943WAT     H248493   4.800   6.117   5.783 -3.8103  1.1836 -0.4547
11943WAT    EPW48494   4.809   6.157   5.850 -0.7897 -0.3135  0.1829
11944WAT      O48495   0.823   1.902   6.002  0.5476 -0.4976 -0.4847
11944WAT     H148496   0.805   1.855   5.930 -0.0492  1.8132 -1.9399
11944WAT     H248497   0.903   1.874   6.024  0.4749 -1.7646 -1.6300
11944WAT    EPW48498   0.832   1.891   5.994  0.4487 -0.3434 -0.8688
11945WAT      O48499   5.797   6.852   2.772  0.4459 -0.0819  0.1495
11945WAT     H148500   5.819   6.885   2.850  0.2930  1.2207 -0.3362
11945WAT     H248501   5.807   6.920   2.718 -1.5369 -0.3504 -0.6153
11945WAT    EPW48502   5.802   6.867   2.776  0.1304  0.0708 -0.0353
11946WAT      O48503   2.740   7.032   3.247 -0.2009 -0.0612  0.0748
11946WAT     H148504   2.694   7.092   3.290 -0.8361 -1.1741  1.0065
11946WAT     H248505   2.680   6.990   3.200  0.3863  0.6613 -1.3696
11946WAT    EPW48506   2.725   7.035   3.247 -0.2080 -0.1188 -0.0009
11947WAT      O48507   4.561   1.456   2.556  0.1134 -0.6826  0.1436
11947WAT     H148508   4.621   1.409   2.599 -0.0506 -0.4308  0.6602
11947WAT     H248509   4.523   1.399   2.503  0.0791 -1.0796  0.5949
11947WAT    EPW48510   4.565   1.441   2.554  0.0841 -0.7041  0.2866
11948WAT      O48511   2.978   2.974   3.132  0.1144  0.0697 -0.2837
11948WAT     H148512   2.966   3.044   3.081 -0.0434  0.5504  0.4017
11948WAT     H248513   3.054   2.992   3.173  1.0002 -0.9699 -1.3926
11948WAT    EPW48514   2.988   2.987   3.130  0.2219 -0.0129 -0.3463
11949WAT      O48515   3.012   7.655   4.605 -0.2744 -0.6385  0.4543
11949WAT     H148516   2.953   7.593   4.591 -0.4266 -0.2616 -0.7061
11949WAT     H248517   3.056   7.659   4.529  0.9089 -0.5615  1.1220
11949WAT    EPW48518   3.010   7.647   4.591 -0.1221 -0.5715  0.3815
11950WAT      O48519   3.002   3.501   2.929  0.0118  0.3434 -0.2149
11950WAT     H148520   3.061   3.457   2.881 -0.2865 -1.5214  1.0273
11950WAT     H248521   3.044   3.520   3.002 -1.1465 -2.2369  1.2982
11950WAT    EPW48522   3.017   3.497   2.932 -0.2034 -0.3132  0.1921
11951WAT      O48523   7.299   2.107   7.696  0.2955 -0.3063 -0.4118
11951WAT     H148524   7.335   2.186   7.710  2.0089 -0.6173 -2.5419
11951WAT     H248525   7.365   2.052   7.711 -0.7366 -1.3408  0.4998
11951WAT    EPW48526   7.314   2.111   7.701  0.3961 -0.5051 -0.5918
11952WAT      O48527   2.038   5.844   3.566  0.3008  0.0473 -0.3717
11952WAT     H148528   1.962   5.881   3.543 -0.3378 -1.3701 -0.6612
11952WAT     H248529   2.095   5.909   3.559 -1.0732  1.5173  1.1140
11952WAT    EPW48530   2.035   5.859   3.562  0.0035  0.0550 -0.1950
11953WAT      O48531   1.362   2.177   1.025  0.0720 -0.1254 -0.1657
11953WAT     H148532   1.447   2.193   1.021 -0.0456  0.4367 -0.4527
11953WAT     H248533   1.357   2.101   1.068  0.5958  0.9789  1.9990
11953WAT    EPW48534   1.374   2.168   1.031  0.1320  0.1208  0.1117
11954WAT      O48535   6.152   2.361   2.943 -0.0103  0.4424 -0.1235
11954WAT     H148536   6.224   2.404   2.920  0.3369 -0.1174 -0.1172
11954WAT     H248537   6.149   2.369   3.029 -0.2982  0.9849 -0.1797
11954WAT    EPW48538   6.162   2.368   2.952 -0.0015  0.4398 -0.1308
11955WAT      O48539   1.553   1.418   4.103  0.0370  0.5134  0.4378
11955WAT     H148540   1.546   1.430   4.017  0.2109  0.3851  0.4070
11955WAT     H248541   1.492   1.472   4.136 -1.1396 -0.6029  0.1641
11955WAT    EPW48542   1.543   1.428   4.095 -0.1111  0.3296  0.3928
11956WAT      O48543   1.227   4.517   3.730  0.8726 -0.1038  0.1109
11956WAT     H148544   1.287   4.474   3.777 -0.3593 -1.0509  0.8868
11956WAT     H248545   1.249   4.601   3.741  0.9836 -0.3175  1.9799
11956WAT    EPW48546   1.239   4.523   3.739  0.7070 -0.2753  0.5016
11957WAT      O48547   5.520   6.554   2.238  0.7258  0.0568 -0.2295
11957WAT     H148548   5.595   6.514   2.259  1.1949  1.2605  0.5034
11957WAT     H248549   5.546   6.635   2.216 -0.1749 -0.0133 -1.7214
11957WAT    EPW48550   5.535   6.560   2.238  0.6620  0.2243 -0.3417
11958WAT      O48551   4.693   3.014   0.765  0.1130  0.5056  0.0383
11958WAT     H148552   4.650   3.012   0.841  0.4231 -2.2997  0.2378
11958WAT     H248553   4.755   3.074   0.778 -0.4054  0.7332  1.6819
11958WAT    EPW48554   4.696   3.023   0.779  0.0822  0.1248  0.3106
11959WAT      O48555   3.128   2.151   6.020 -0.1812 -0.2499 -0.1390
11959WAT     H148556   3.203   2.119   6.051 -0.6683 -2.0812 -0.6936
11959WAT     H248557   3.144   2.166   5.936 -0.1226  0.4689 -0.0067
11959WAT    EPW48558   3.141   2.148   6.012 -0.2445 -0.4142 -0.2014
11960WAT      O48559   4.949   7.138   0.681  0.2421  0.5179  0.0030
11960WAT     H148560   4.921   7.065   0.720 -0.7651  2.3129  3.0023
11960WAT     H248561   5.008   7.170   0.738  0.6484  2.0630 -1.2172
11960WAT    EPW48562   4.954   7.132   0.695  0.1534  1.0113  0.2658
11961WAT      O48563   0.357   4.425   4.176 -0.0230 -0.1742  0.0050
11961WAT     H148564   0.308   4.472   4.121  0.1997  0.1273  0.0669
11961WAT     H248565   0.310   4.352   4.187  1.0980 -1.4310 -2.6334
11961WAT    EPW48566   0.342   4.421   4.169  0.1755 -0.3153 -0.3756
11962WAT      O48567   3.569   0.259   3.938  0.5152  0.4165  0.5776
11962WAT     H148568   3.598   0.254   3.856  0.2007 -2.0547  0.5530
11962WAT     H248569   3.618   0.200   3.981 -0.3778  0.5447  1.8178
11962WAT    EPW48570   3.581   0.250   3.932  0.3368  0.0704  0.7572
11963WAT      O48571   1.712   3.292   4.395 -0.6606 -0.3964 -0.4630
11963WAT     H148572   1.731   3.226   4.448 -1.0820 -0.4678 -0.3968
11963WAT     H248573   1.625   3.297   4.399 -1.0123 -2.1132 -3.1556
11963WAT    EPW48574   1.702   3.283   4.404 -0.7748 -0.6606 -0.8510
11964WAT      O48575   6.099   0.237   4.100  0.0564  0.2509  0.0014
11964WAT     H148576   6.128   0.172   4.150 -1.2500 -1.1775 -0.9956
11964WAT     H248577   6.062   0.293   4.157  1.3663  0.2508  0.8896
11964WAT    EPW48578   6.098   0.236   4.116  0.0570  0.0398 -0.0147
11965WAT      O48579   0.579   5.358   6.394 -0.6291  0.0349  0.6617
11965WAT     H148580   0.503   5.321   6.414 -0.4754 -0.4281  0.4193
11965WAT     H248581   0.577   5.363   6.307  0.4226 -1.8406  0.4529
11965WAT    EPW48582   0.568   5.353   6.384 -0.4510 -0.3105  0.5951
11966WAT      O48583   7.228   3.350   6.108  0.4376 -0.2029  0.5890
11966WAT     H148584   7.186   3.300   6.165 -3.1751  1.6786 -0.1217
11966WAT     H248585   7.239   3.426   6.150  0.9633  0.0900 -0.0467
11966WAT    EPW48586   7.224   3.354   6.122 -0.0184  0.1183  0.3901
11967WAT      O48587   2.862   0.778   0.235 -0.9856 -0.4892 -0.1223
11967WAT     H148588   2.788   0.731   0.240 -0.5728 -1.0300  2.0468
11967WAT     H248589   2.834   0.860   0.237 -1.5711 -0.6872  1.0117
11967WAT    EPW48590   2.847   0.783   0.236 -1.0111 -0.5983  0.3656
11968WAT      O48591   5.501   4.996   5.531  0.0179 -0.3072  0.3828
11968WAT     H148592   5.415   5.014   5.526  0.2103  0.9996  1.2609
11968WAT     H248593   5.523   5.026   5.610  1.5157  0.4129 -0.2778
11968WAT    EPW48594   5.491   5.003   5.542  0.2676 -0.0078  0.4149
11969WAT      O48595   2.065   5.025   2.626 -0.3435  0.5348 -0.4673
11969WAT     H148596   2.094   4.975   2.561 -2.2369  0.6984 -1.4957
11969WAT     H248597   2.104   5.101   2.612  0.4687  0.1373 -0.4590
11969WAT    EPW48598   2.075   5.029   2.614 -0.5032  0.5002 -0.6180
11970WAT      O48599   2.229   3.914   6.959  0.1347 -0.1823  0.0243
11970WAT     H148600   2.254   3.863   7.025 -1.3418 -0.4138  0.4344
11970WAT     H248601   2.228   3.994   6.995 -2.8608 -0.5580  1.0338
11970WAT    EPW48602   2.232   3.919   6.974 -0.5259 -0.2720  0.2340
11971WAT      O48603   3.022   1.864   0.158  0.1741 -0.4026  0.3227
11971WAT     H148604   3.070   1.875   0.230  0.1401 -0.2471  0.3234
11971WAT     H248605   3.024   1.943   0.120  1.3031 -0.8223 -0.5505
11971WAT    EPW48606   3.029   1.877   0.163  0.3358 -0.4416  0.1938
11972WAT      O48607   3.299   4.951   6.709  0.0055  0.1851 -0.1140
11972WAT     H148608   3.324   4.964   6.791  0.5017  0.6794 -0.3400
11972WAT     H248609   3.223   4.908   6.717 -0.3293  0.8903  0.6130
11972WAT    EPW48610   3.292   4.946   6.722  0.0293  0.3623 -0.0400
11973WAT      O48611   3.252   0.151   3.569  0.1217  0.4073 -0.0726
11973WAT     H148612   3.263   0.067   3.588 -1.0610  0.5174  1.2004
11973WAT     H248613   3.203   0.150   3.497  2.0947  0.0273 -1.5052
11973WAT    EPW48614   3.246   0.138   3.561  0.2384  0.3674 -0.0961
11974WAT      O48615   1.190   2.030   4.202 -0.0228 -0.0523 -0.3637
11974WAT     H148616   1.215   1.966   4.256  0.3029 -0.6084 -1.1690
11974WAT     H248617   1.130   1.993   4.151  1.7858 -0.4049 -2.3478
11974WAT    EPW48618   1.185   2.015   4.203  0.2925 -0.1865 -0.7758
11975WAT      O48619   2.803   3.655   2.805 -0.2784  0.0539  0.1730
11975WAT     H148620   2.870   3.611   2.840 -1.3598 -0.7758  1.2663
11975WAT     H248621   2.776   3.603   2.740  0.0064  0.3053 -0.1526
11975WAT    EPW48622   2.809   3.641   2.801 -0.3961 -0.0315  0.2864
11976WAT      O48623   3.421   1.094   6.111 -0.3223  0.0479  0.3370
11976WAT     H148624   3.470   1.031   6.145  0.0055  0.5061  0.7328
11976WAT     H248625   3.382   1.130   6.180 -1.5165 -0.5403 -0.0061
11976WAT    EPW48626   3.423   1.090   6.126 -0.4503  0.0287  0.3448
11977WAT      O48627   6.398   5.896   4.663 -0.2313  0.2543 -0.0959
11977WAT     H148628   6.406   5.906   4.749  1.9132  0.2545 -0.2386
11977WAT     H248629   6.407   5.976   4.632  1.5009 -0.0419 -0.4244
11977WAT    EPW48630   6.400   5.909   4.671  0.3414  0.2106 -0.1655
11978WAT      O48631   4.722   1.024   2.974 -0.5521 -0.4686 -0.3391
11978WAT     H148632   4.696   1.102   3.001 -1.1127 -1.5060  2.4666
11978WAT     H248633   4.809   1.032   2.968 -0.5108  0.1488  0.8561
11978WAT    EPW48634   4.731   1.037   2.977 -0.6288 -0.5307  0.2519
11979WAT      O48635   6.982   2.673   7.541 -0.6420 -0.2899  0.0734
11979WAT     H148636   6.949   2.706   7.468  1.7458 -1.2520 -1.5546
11979WAT     H248637   7.017   2.743   7.581  0.3031 -0.0864 -1.0431
11979WAT    EPW48638   6.982   2.688   7.536 -0.1497 -0.4019 -0.3320
11980WAT      O48639   2.361   4.659   6.266  0.3553 -0.3008 -0.1148
11980WAT     H148640   2.353   4.611   6.194  0.2344 -0.1926 -0.1746
11980WAT     H248641   2.362   4.741   6.236 -0.9390 -0.1891  0.0933
11980WAT    EPW48642   2.360   4.664   6.251  0.1462 -0.2683 -0.0929
11981WAT      O48643   7.096   0.243   7.312  0.0168 -0.3583  0.2929
11981WAT     H148644   7.143   0.185   7.356  1.5952  1.4313  1.1237
11981WAT     H248645   7.105   0.219   7.229  0.4842 -1.3629  0.6186
11981WAT    EPW48646   7.104   0.231   7.307  0.3190 -0.2424  0.4637
11982WAT      O48647   2.748   7.229   1.824  0.3076  0.0319 -0.4562
11982WAT     H148648   2.788   7.307   1.826 -1.1139  0.8247 -1.3440
11982WAT     H248649   2.812   7.175   1.799  0.8669  1.2524 -1.8639
11982WAT    EPW48650   2.764   7.233   1.821  0.1803  0.3293 -0.7953
11983WAT      O48651   3.385   1.792   4.700 -0.0076  0.4611 -0.2488
11983WAT     H148652   3.368   1.831   4.776  0.2364  0.0991 -0.0081
11983WAT     H248653   3.452   1.838   4.668 -0.5852  1.0793 -0.5964
11983WAT    EPW48654   3.392   1.805   4.706 -0.0569  0.4989 -0.2646
11984WAT      O48655   4.271   3.919   1.027 -0.1054  0.4953 -0.3407
11984WAT     H148656   4.281   3.833   1.039  0.0528  0.5389 -0.1498
11984WAT     H248657   4.213   3.942   1.088 -1.4075  0.2470 -1.4431
11984WAT    EPW48658   4.264   3.910   1.038 -0.2744  0.4650 -0.4754
11985WAT      O48659   2.313   1.464   6.642  0.0291  0.2610 -0.7934
11985WAT     H148660   2.324   1.535   6.592  0.8708  1.4150  0.9453
11985WAT     H248661   2.395   1.438   6.658 -0.2506 -0.4028 -0.4208
11985WAT    EPW48662   2.327   1.470   6.637  0.1121  0.3334 -0.4815
11986WAT      O48663   7.091   6.798   0.571  0.0918  0.0345  0.0847
11986WAT     H148664   7.135   6.873   0.581 -0.8765  0.5373  0.6631
11986WAT     H248665   7.037   6.815   0.504 -1.2035  0.3907  1.1888
11986WAT    EPW48666   7.090   6.812   0.562 -0.2426  0.1614  0.3333
11987WAT      O48667   6.086   3.858   2.510 -0.0265 -0.0075 -0.2231
11987WAT     H148668   6.092   3.941   2.485 -0.2127  0.4325  1.1290
11987WAT     H248669   6.049   3.819   2.441  1.2011  0.7569 -1.3823
11987WAT    EPW48670   6.082   3.865   2.496  0.1273  0.1704 -0.1946
11988WAT      O48671   4.867   7.464   3.876  0.0061 -0.0615 -0.4636
11988WAT     H148672   4.876   7.436   3.958  0.5980  0.1259 -0.4567
11988WAT     H248673   4.924   7.530   3.871  0.3934 -0.4449 -1.1986
11988WAT    EPW48674   4.877   7.470   3.887  0.1507 -0.0905 -0.5712
11989WAT      O48675   1.553   3.436   6.246  0.2952  0.0036 -0.5298
11989WAT     H148676   1.551   3.349   6.257  0.7895 -0.0223 -0.6218
11989WAT     H248677   1.601   3.447   6.174  2.4954  0.4486  0.9167
11989WAT    EPW48678   1.560   3.425   6.237  0.6932  0.0655 -0.3297
11990WAT      O48679   0.890   7.320   0.334  0.3580  0.1161 -0.1883
11990WAT     H148680   0.873   7.389   0.386 -0.5286 -0.3165  0.1137
11990WAT     H248681   0.929   7.263   0.388 -0.8476 -0.4589  0.0988
11990WAT    EPW48682   0.893   7.322   0.350  0.0489 -0.0327 -0.1013
11991WAT      O48683   1.360   7.241   0.564 -0.3385  0.6149  0.0339
11991WAT     H148684   1.299   7.187   0.595 -0.0879  0.9211  1.1003
11991WAT     H248685   1.421   7.187   0.532 -1.1955  0.3089 -1.1616
11991WAT    EPW48686   1.360   7.225   0.564 -0.4281  0.6150  0.0148
11992WAT      O48687   3.242   2.588   2.334  0.2322 -0.3728  0.1960
11992WAT     H148688   3.216   2.554   2.258 -1.8473  0.3773  0.5085
11992WAT     H248689   3.229   2.674   2.323  2.4955  0.0666  0.4868
11992WAT    EPW48690   3.236   2.596   2.321  0.2593 -0.1971  0.2851
11993WAT      O48691   0.551   2.420   7.623  0.0415  0.2867  0.3957
11993WAT     H148692   0.466   2.440   7.625 -0.5605 -2.0388  0.9934
11993WAT     H248693   0.590   2.495   7.648 -1.8056  1.3716  0.2339
11993WAT    EPW48694   0.544   2.434   7.627 -0.3203  0.1034  0.4601
11994WAT      O48695   0.354   0.447   5.704 -0.0735  0.0806 -0.0682
11994WAT     H148696   0.369   0.533   5.695 -1.9293  0.3864 -0.6679
11994WAT     H248697   0.386   0.429   5.783  0.9991  1.1545 -0.2301
11994WAT    EPW48698   0.361   0.457   5.714 -0.1892  0.2844 -0.1807
11995WAT      O48699   0.967   4.933   7.537 -0.2102  0.1053 -0.3346
11995WAT     H148700   0.993   4.936   7.620  0.8702  0.1101 -0.6556
11995WAT     H248701   0.920   5.006   7.527 -0.8479 -0.1871  0.4188
11995WAT    EPW48702   0.964   4.944   7.548 -0.1448  0.0628 -0.2707
11996WAT      O48703   4.275   1.018   4.784 -0.0265  0.5162  0.0730
11996WAT     H148704   4.362   1.021   4.786 -0.0050  0.7106 -0.8014
11996WAT     H248705   4.257   0.971   4.712 -0.6289 -2.8766  2.1732
11996WAT    EPW48706   4.285   1.011   4.774 -0.1123  0.0438  0.2541
11997WAT      O48707   2.020   7.301   1.360 -0.8266 -0.2136 -0.0034
11997WAT     H148708   2.082   7.318   1.301  1.0942 -0.0174  1.9492
11997WAT     H248709   1.984   7.378   1.375 -1.0088 -0.1864 -0.5433
11997WAT    EPW48710   2.024   7.315   1.353 -0.5698 -0.1806  0.2053
11998WAT      O48711   3.468   1.315   7.518  0.3225 -0.5973  0.2433
11998WAT     H148712   3.443   1.235   7.543 -1.2380 -0.0602  0.5064
11998WAT     H248713   3.451   1.315   7.432  1.5736 -0.9651 -0.0293
11998WAT    EPW48714   3.462   1.303   7.509  0.2768 -0.5723  0.2419
11999WAT      O48715   1.389   2.861   3.801 -0.5826 -0.3929 -0.0587
11999WAT     H148716   1.372   2.807   3.734 -3.9013 -0.3982  0.6059
11999WAT     H248717   1.408   2.937   3.763 -2.9225 -0.2661 -1.0904
11999WAT    EPW48718   1.389   2.864   3.786 -1.4185 -0.3750 -0.1129
12000WAT      O48719   3.095   7.419   3.758  0.3560  0.0207  0.2049
12000WAT     H148720   3.024   7.388   3.718  0.9253  0.4933 -1.2411
12000WAT     H248721   3.103   7.368   3.828 -2.4574  1.1103  1.4779
12000WAT    EPW48722   3.085   7.407   3.762  0.0245  0.2515  0.1793
12001WAT      O48723   2.777   0.036   0.750 -0.0288 -0.2170 -0.1039
12001WAT     H148724   2.748  -0.038   0.716 -0.1422  0.6280 -1.9937
12001WAT     H248725   2.861   0.038   0.727 -0.3425  0.8359 -1.3205
12001WAT    EPW48726   2.785   0.025   0.742 -0.0919  0.0634 -0.5628
12002WAT      O48727   1.717   6.952   4.248 -0.2889  0.2852  0.2696
12002WAT     H148728   1.704   6.866   4.253  1.4136  0.0618  1.9278
12002WAT     H248729   1.727   6.966   4.162 -0.0181 -1.2791  0.0229
12002WAT    EPW48730   1.717   6.941   4.236  0.0026  0.0211  0.4781
12003WAT      O48731   1.305   3.580   6.686 -0.1022  0.5560  0.4040
12003WAT     H148732   1.272   3.618   6.757  0.1020 -2.2448  2.1497
12003WAT     H248733   1.389   3.601   6.689 -0.3550  1.7034  0.0703
12003WAT    EPW48734   1.312   3.589   6.697 -0.1094  0.3118  0.6126
12004WAT      O48735   1.771   4.865   1.497 -0.0028  0.2374 -0.6524
12004WAT     H148736   1.738   4.794   1.536  0.1730  1.4275  1.8567
12004WAT     H248737   1.815   4.833   1.429 -0.7104 -1.9544 -0.1507
12004WAT    EPW48738   1.772   4.850   1.493 -0.0814  0.0894 -0.2076
12005WAT      O48739   2.395   6.506   3.304 -0.5978 -0.3126  0.1936
12005WAT     H148740   2.434   6.462   3.239  1.2651 -0.8140  1.5767
12005WAT     H248741   2.348   6.566   3.262 -1.9318 -2.5317 -1.7020
12005WAT    EPW48742   2.394   6.509   3.288 -0.5196 -0.7145  0.1179
12006WAT      O48743   3.603   1.568   2.395 -0.3583 -0.3623  0.2001
12006WAT     H148744   3.575   1.502   2.345  0.1903 -1.5102  1.3376
12006WAT     H248745   3.552   1.635   2.371  1.4511 -0.1064 -3.5933
12006WAT    EPW48746   3.591   1.568   2.384 -0.0100 -0.4940 -0.1922
12007WAT      O48747   0.304   5.042   7.229  0.3939  0.3298  0.3017
12007WAT     H148748   0.257   5.072   7.162  1.6503 -0.1694 -0.8546
12007WAT     H248749   0.249   4.986   7.269 -0.2251  0.2664 -0.6085
12007WAT    EPW48750   0.289   5.038   7.225  0.4881  0.2467 -0.0036
12008WAT      O48751   2.213   1.568   1.258 -0.0091 -0.0246  0.3834
12008WAT     H148752   2.146   1.569   1.313 -1.5288 -0.4694 -1.3356
12008WAT     H248753   2.178   1.537   1.184  1.8846  0.6002 -0.8597
12008WAT    EPW48754   2.198   1.563   1.255  0.0462  0.0020 -0.0542
12009WAT      O48755   1.957   2.370   6.046 -0.2290  0.2452 -0.0879
12009WAT     H148756   1.940   2.416   6.118 -0.6173  1.2978 -0.8225
12009WAT     H248757   1.921   2.417   5.983  0.5371 -0.4015 -1.0392
12009WAT    EPW48758   1.949   2.383   6.048 -0.1732  0.3052 -0.3370
12010WAT      O48759   7.331   3.987   7.168  0.0071 -0.2718 -0.4229
12010WAT     H148760   7.307   3.915   7.211 -2.6278  1.4853  1.3913
12010WAT     H248761   7.409   4.006   7.202 -1.0079 -0.1736  2.0950
12010WAT    EPW48762   7.339   3.979   7.179 -0.5321  0.0023  0.2171
12011WAT      O48763   6.164   2.522   3.453  0.0223  0.0735 -0.0046
12011WAT     H148764   6.189   2.601   3.424  3.2706 -1.0824 -0.7268
12011WAT     H248765   6.138   2.481   3.381 -3.8384  0.9898  0.6316
12011WAT    EPW48766   6.164   2.528   3.438 -0.0682  0.0381 -0.0173
12012WAT      O48767   5.982   6.256   2.555  0.2262 -0.6545 -0.6616
12012WAT     H148768   5.933   6.208   2.609 -0.3262  1.1146  0.5179
12012WAT     H248769   5.992   6.205   2.485 -1.9930 -1.7008 -0.3148
12012WAT    EPW48770   5.976   6.241   2.553 -0.1832 -0.5477 -0.4362
12013WAT      O48771   2.451   1.964   1.871  0.7406  0.5742 -0.4959
12013WAT     H148772   2.497   1.989   1.941  0.6712  0.8370 -0.5436
12013WAT     H248773   2.395   2.029   1.859 -0.3375 -0.1816  0.1734
12013WAT    EPW48774   2.450   1.977   1.879  0.5711  0.5014 -0.4041
12014WAT      O48775   2.100   3.000   1.525  0.2624  0.4037  0.5100
12014WAT     H148776   2.178   2.961   1.534  1.3866  2.6089  0.9345
12014WAT     H248777   2.118   3.071   1.478 -1.7383  0.4032 -0.3529
12014WAT    EPW48778   2.114   3.005   1.519  0.1329  0.7294  0.4453
12015WAT      O48779   0.864   4.123   6.993  0.1692 -0.2900 -0.2332
12015WAT     H148780   0.918   4.072   7.037  0.3530  0.1987  0.1192
12015WAT     H248781   0.909   4.197   6.982 -0.4065  0.1176  0.0496
12015WAT    EPW48782   0.879   4.127   6.997  0.1113 -0.1576 -0.1394
12016WAT      O48783   1.472   3.612   0.886 -0.5684  0.5081  0.1674
12016WAT     H148784   1.400   3.627   0.839 -1.2300  1.2807  1.3774
12016WAT     H248785   1.534   3.654   0.841 -0.8264 -0.2367 -0.9358
12016WAT    EPW48786   1.471   3.620   0.872 -0.7042  0.5122  0.1832
12017WAT      O48787   4.029   3.725   5.713  0.1441 -0.5055  0.0905
12017WAT     H148788   4.087   3.661   5.702  0.9306  0.1632  0.2808
12017WAT     H248789   4.063   3.792   5.670 -0.8478 -0.2994 -0.4019
12017WAT    EPW48790   4.043   3.725   5.705  0.1138 -0.3763  0.0459
12018WAT      O48791   2.099   0.297   6.959 -0.4526 -0.5171 -0.1623
12018WAT     H148792   2.165   0.321   6.908 -0.7845  0.0004 -0.3501
12018WAT     H248793   2.051   0.245   6.908 -2.0291  1.7960 -1.1792
12018WAT    EPW48794   2.102   0.293   6.944 -0.7345 -0.0989 -0.3403
12019WAT      O48795   1.323   3.712   6.127 -0.2803  0.1040 -0.5489
12019WAT     H148796   1.399   3.749   6.148  0.1347  0.3124 -2.2556
12019WAT     H248797   1.267   3.779   6.126 -0.4380 -0.0018  0.4087
12019WAT    EPW48798   1.326   3.727   6.130 -0.2423  0.1192 -0.6595
12020WAT      O48799   1.093   4.802   0.200 -0.5712 -0.0959 -0.2463
12020WAT     H148800   1.171   4.766   0.217 -0.4507  0.5101  0.5224
12020WAT     H248801   1.094   4.877   0.245 -0.4250  1.3985 -2.5423
12020WAT    EPW48802   1.105   4.808   0.209 -0.5318  0.2143 -0.4719
12021WAT      O48803   0.716   7.483   5.649  0.4824  0.5634  0.3142
12021WAT     H148804   0.663   7.525   5.594 -0.1932  0.3241  0.7738
12021WAT     H248805   0.796   7.498   5.616  0.0148 -1.0392 -1.7673
12021WAT    EPW48806   0.720   7.491   5.636  0.3135  0.2913  0.0746
12022WAT      O48807   6.984   1.534   7.336  0.3005  0.3123 -0.0297
12022WAT     H148808   6.994   1.454   7.303 -1.8606 -0.7863  1.6886
12022WAT     H248809   6.902   1.554   7.318  0.5653  1.8172  0.2848
12022WAT    EPW48810   6.974   1.525   7.329  0.0204  0.3724  0.2706
12023WAT      O48811   3.780   7.100   5.636 -0.6679  0.7513 -0.2678
12023WAT     H148812   3.825   7.065   5.702 -0.6810  0.4893 -0.3974
12023WAT     H248813   3.699   7.071   5.648 -0.6408  0.5897 -0.4808
12023WAT    EPW48814   3.775   7.091   5.648 -0.6658  0.6887 -0.3184
12024WAT      O48815   2.553   4.600   5.337  0.2309 -0.1065 -0.8097
12024WAT     H148816   2.508   4.671   5.312 -1.5551 -1.4219 -1.5234
12024WAT     H248817   2.609   4.632   5.396 -0.2144  1.9602 -1.4124
12024WAT    EPW48818   2.554   4.615   5.342 -0.0987  0.0045 -1.0041
12025WAT      O48819   4.696   1.803   4.310  0.0864  0.2518  0.0654
12025WAT     H148820   4.650   1.784   4.382 -1.4910 -2.0913 -1.4359
12025WAT     H248821   4.676   1.886   4.294 -1.4251  0.1060  1.0193
12025WAT    EPW48822   4.686   1.813   4.319 -0.3699 -0.1158 -0.0155
12026WAT      O48823   1.720   3.921   6.614  0.0633  0.2618 -0.1421
12026WAT     H148824   1.650   3.875   6.639  1.0218 -1.7028 -0.9093
12026WAT     H248825   1.775   3.912   6.681  0.4877 -0.2461 -0.5533
12026WAT    EPW48826   1.718   3.913   6.628  0.2676 -0.1035 -0.3162
12027WAT      O48827   5.943   3.825   0.859  0.3348  0.8378  0.1053
12027WAT     H148828   5.963   3.781   0.932  0.5856  1.7622  0.6052
12027WAT     H248829   5.856   3.813   0.852  0.2955  0.8128  0.5962
12027WAT    EPW48830   5.933   3.817   0.869  0.3661  0.9707  0.2516
12028WAT      O48831   6.212   2.779   7.350  0.1883 -0.2645 -0.0645
12028WAT     H148832   6.297   2.795   7.352  0.5549 -2.1043  0.7000
12028WAT     H248833   6.194   2.776   7.264  0.7304  0.7694 -0.2319
12028WAT    EPW48834   6.222   2.781   7.337  0.3225 -0.3835  0.0237
12029WAT      O48835   0.605   2.730   5.381  0.3237 -0.2441 -0.5824
12029WAT     H148836   0.554   2.670   5.343  0.1473 -1.0702  0.8903
12029WAT     H248837   0.681   2.689   5.389  0.3646 -0.0685 -0.0791
12029WAT    EPW48838   0.608   2.715   5.376  0.3037 -0.3402 -0.2905
12030WAT      O48839   4.313   1.138   3.831 -0.4127  0.2189  0.7796
12030WAT     H148840   4.373   1.156   3.891  1.1797 -1.2384 -0.2737
12030WAT     H248841   4.294   1.054   3.844  1.5632 -0.8195 -1.8887
12030WAT    EPW48842   4.319   1.128   3.842  0.1144 -0.1497  0.2298
12031WAT      O48843   1.893   0.159   0.292  0.1358  0.1344 -0.0982
12031WAT     H148844   1.845   0.109   0.240  1.0768 -2.0771  1.0194
12031WAT     H248845   1.865   0.139   0.372  1.2766  0.6147  0.4498
12031WAT    EPW48846   1.882   0.149   0.297  0.4434 -0.1213  0.1478
12032WAT      O48847   3.590   4.773   1.901  0.7962 -0.8186  0.5132
12032WAT     H148848   3.517   4.757   1.855  1.2176 -0.6230 -0.2380
12032WAT     H248849   3.568   4.750   1.983  0.1155 -1.4150  0.1720
12032WAT    EPW48850   3.576   4.767   1.907  0.7579 -0.8778  0.3518
12033WAT      O48851   0.406   0.292   0.205 -0.2820 -0.1564 -0.3697
12033WAT     H148852   0.433   0.257   0.130  1.5419  0.0333  0.1538
12033WAT     H248853   0.480   0.311   0.247 -1.2449 -0.9146  1.8049
12033WAT    EPW48854   0.421   0.290   0.200 -0.1548 -0.2404  0.0289
12034WAT      O48855   1.866   3.533   3.630 -0.6446  0.9693  0.8427
12034WAT     H148856   1.832   3.469   3.583  1.8359  0.0867  0.0809
12034WAT     H248857   1.860   3.503   3.712  0.5861 -0.3483  0.4871
12034WAT    EPW48858   1.860   3.519   3.635 -0.0964  0.6443  0.6777
12035WAT      O48859   3.482   1.078   6.903  0.0689  0.0186 -0.1641
12035WAT     H148860   3.506   1.121   6.831 -1.1761  0.3550 -0.4076
12035WAT     H248861   3.506   1.131   6.968 -0.0157  0.3536 -0.4001
12035WAT    EPW48862   3.489   1.092   6.902 -0.1275  0.1177 -0.2349
12036WAT      O48863   3.068   5.625   1.545  0.3294  0.1663 -0.0959
12036WAT     H148864   3.093   5.556   1.592  1.0766  0.1287 -0.5428
12036WAT     H248865   3.140   5.650   1.504 -0.5953 -0.7593 -2.4750
12036WAT    EPW48866   3.082   5.618   1.546  0.3032  0.0240 -0.5133
12037WAT      O48867   0.867   6.396   3.793 -0.1027  0.4544  0.5300
12037WAT     H148868   0.890   6.385   3.877  2.0685  2.2234  0.2524
12037WAT     H248869   0.907   6.329   3.753 -1.1546 -0.4030  0.8749
12037WAT    EPW48870   0.877   6.384   3.800  0.0627  0.5891  0.5399
12038WAT      O48871   2.664   5.935   0.692  0.2925 -0.1750 -0.2479
12038WAT     H148872   2.588   5.920   0.651 -0.4185  0.5772  0.7562
12038WAT     H248873   2.660   6.020   0.713  1.3117 -0.1790  0.0490
12038WAT    EPW48874   2.652   5.945   0.689  0.3380 -0.0645 -0.0557
12039WAT      O48875   6.143   0.129   0.771 -0.1200  0.1108  0.3237
12039WAT     H148876   6.216   0.098   0.808 -0.1155 -0.8476 -0.4537
12039WAT     H248877   6.142   0.091   0.693  0.2622  2.6708 -1.0199
12039WAT    EPW48878   6.154   0.119   0.765 -0.0628  0.3474  0.0104
12040WAT      O48879   0.256   3.892   7.702  0.0785 -1.1756  0.0603
12040WAT     H148880   0.330   3.904   7.747  0.1277 -0.4405 -0.1986
12040WAT     H248881   0.281   3.900   7.619 -0.6927  1.8750 -0.0006
12040WAT    EPW48882   0.271   3.895   7.697 -0.0282 -0.6164  0.0131
12041WAT      O48883   3.820   1.847   0.308 -0.5099  0.2033  0.1877
12041WAT     H148884   3.792   1.831   0.227 -0.1028  0.6317 -0.0464
12041WAT     H248885   3.844   1.768   0.338 -0.3922  0.0869 -0.2136
12041WAT    EPW48886   3.819   1.833   0.301 -0.4324  0.2494  0.0938
12042WAT      O48887   1.069   1.081   6.764  0.0653 -0.1143  0.1450
12042WAT     H148888   1.000   1.028   6.772  0.3177 -0.9420 -2.3843
12042WAT     H248889   1.130   1.031   6.726  1.8168  0.8365  1.5542
12042WAT    EPW48890   1.068   1.066   6.760  0.3613 -0.0961 -0.0205
12043WAT      O48891   0.309   7.303   4.765  0.0882 -0.3117 -0.4171
12043WAT     H148892   0.388   7.339   4.768  1.0057 -2.0805 -1.5144
12043WAT     H248893   0.302   7.263   4.842  0.3949 -0.3988 -0.4344
12043WAT    EPW48894   0.320   7.302   4.777  0.2690 -0.5859 -0.5817
12044WAT      O48895   0.389   7.108   7.549  0.3839 -0.3677 -0.0095
12044WAT     H148896   0.329   7.048   7.529  0.2058  0.2575 -1.4489
12044WAT     H248897   0.428   7.124   7.473 -0.6617  2.5092 -0.0546
12044WAT    EPW48898   0.386   7.101   7.535  0.2031  0.1496 -0.2288
12045WAT      O48899   1.945   1.378   6.696  0.2557  0.2796 -0.3191
12045WAT     H148900   1.993   1.450   6.684 -0.4463  0.6916 -0.7259
12045WAT     H248901   1.933   1.348   6.615 -1.4273  1.0313 -0.3879
12045WAT    EPW48902   1.951   1.385   6.683 -0.0966  0.4515 -0.3893
12046WAT      O48903   7.232   0.416   7.649  0.5392  0.7028  0.7699
12046WAT     H148904   7.148   0.435   7.664 -0.0091 -0.5603 -0.4935
12046WAT     H248905   7.260   0.381   7.724 -0.7729 -1.1244  0.4588
12046WAT    EPW48906   7.224   0.414   7.662  0.2644  0.2463  0.5373
12047WAT      O48907   4.588   1.771   3.520  0.0817  0.0163  0.1318
12047WAT     H148908   4.530   1.764   3.455  2.0940  0.7729 -1.8796
12047WAT     H248909   4.549   1.825   3.576 -1.8244 -0.8412 -0.2902
12047WAT    EPW48910   4.574   1.778   3.519  0.0974  0.0014 -0.2276
12048WAT      O48911   0.383   1.045   4.292  0.1194  0.2027 -0.4520
12048WAT     H148912   0.461   1.016   4.315 -0.1351  0.2529  0.5326
12048WAT     H248913   0.328   0.991   4.333 -0.3493  1.0204  0.0279
12048WAT    EPW48914   0.386   1.033   4.302  0.0126  0.3309 -0.2357
12049WAT      O48915   4.008   0.679   0.207  0.0169  0.0436  0.0276
12049WAT     H148916   3.967   0.655   0.133  0.0307 -0.2250  0.1052
12049WAT     H248917   4.092   0.677   0.185 -0.0257  1.1589 -0.2984
12049WAT    EPW48918   4.014   0.675   0.192  0.0126  0.1687 -0.0091
12050WAT      O48919   5.316   7.670   5.697 -0.0051 -0.2209 -0.6741
12050WAT     H148920   5.267   7.618   5.746  0.9216 -0.6816 -0.2353
12050WAT     H248921   5.298   7.645   5.616 -1.0372  0.1035 -0.5645
12050WAT    EPW48922   5.306   7.659   5.692 -0.0207 -0.2410 -0.5931
12051WAT      O48923   4.321   3.943   6.214  0.7779  0.1350  0.0114
12051WAT     H148924   4.243   3.980   6.198  1.5387  1.6338 -0.4315
12051WAT     H248925   4.344   3.909   6.137  1.5890  1.7731 -0.5106
12051WAT    EPW48926   4.313   3.943   6.201  1.0101  0.5984 -0.1311
12052WAT      O48927   0.855   0.709   6.617  0.4954  0.6872 -0.6151
12052WAT     H148928   0.851   0.721   6.704  2.0417 -2.9535  0.1525
12052WAT     H248929   0.772   0.719   6.592 -0.3891 -0.1590  1.6497
12052WAT    EPW48930   0.842   0.713   6.626  0.5931  0.0244 -0.1671
12053WAT      O48931   0.892   1.448   3.819 -0.5341  0.0276 -0.6129
12053WAT     H148932   0.815   1.488   3.827 -1.0432 -1.0039 -0.1697
12053WAT     H248933   0.871   1.369   3.789  0.3402 -0.3158 -0.3433
12053WAT    EPW48934   0.877   1.442   3.816 -0.4801 -0.1755 -0.5076
12054WAT      O48935   2.479   0.413   4.197 -0.5321  0.2950 -0.5832
12054WAT     H148936   2.524   0.368   4.137 -0.2889  1.0268 -0.9585
12054WAT     H248937   2.495   0.496   4.177  0.4836  0.5808  1.1785
12054WAT    EPW48938   2.488   0.418   4.185 -0.3461  0.4453 -0.3784
12055WAT      O48939   1.992   4.416   2.864  0.5503 -0.3560 -0.0711
12055WAT     H148940   1.955   4.339   2.883 -0.3264  0.0201 -0.2324
12055WAT     H248941   2.030   4.440   2.938 -1.4656  0.3342  0.8116
12055WAT    EPW48942   1.992   4.408   2.877  0.1230 -0.1985  0.0355
12056WAT      O48943   3.016   1.880   7.528  0.7544  0.5253  0.4621
12056WAT     H148944   3.084   1.826   7.530  0.5465  0.2985  1.4265
12056WAT     H248945   2.967   1.856   7.596 -0.7059  0.1614 -0.6584
12056WAT    EPW48946   3.019   1.869   7.538  0.5080  0.4381  0.4390
12057WAT      O48947   2.097   1.166   4.240  0.1241  0.3576 -0.2305
12057WAT     H148948   2.127   1.113   4.177 -0.7917 -0.1649 -0.2388
12057WAT     H248949   2.033   1.120   4.277  1.2593  0.2536  1.7520
12057WAT    EPW48950   2.092   1.152   4.236  0.1565  0.2650  0.0611
12058WAT      O48951   7.446   6.268   4.643  0.2514  0.5070  0.2001
12058WAT     H148952   7.369   6.277   4.683 -0.4795  1.3668 -1.3473
12058WAT     H248953   7.460   6.182   4.646  0.5771  0.5797  2.8737
12058WAT    EPW48954   7.437   6.257   4.649  0.1915  0.6447  0.3664
12059WAT      O48955   1.897   4.823   7.649 -0.1467  0.0520 -0.6274
12059WAT     H148956   1.920   4.741   7.669  0.0787 -0.3387 -2.3229
12059WAT     H248957   1.974   4.862   7.636 -0.2850  0.1630 -1.1249
12059WAT    EPW48958   1.912   4.816   7.650 -0.1339  0.0107 -0.9513
12060WAT      O48959   0.181   2.406   6.692  0.3070  0.3783  0.0452
12060WAT     H148960   0.204   2.459   6.626  2.8825 -2.0048 -1.1493
12060WAT     H248961   0.115   2.360   6.659  1.2586 -0.4609 -0.7128
12060WAT    EPW48962   0.174   2.407   6.678  0.8280 -0.0977 -0.2432
12061WAT      O48963   3.523   6.849   1.941 -0.6225  0.0188  0.6034
12061WAT     H148964   3.441   6.873   1.959 -0.8933  1.2887 -1.8371
12061WAT     H248965   3.513   6.796   1.873  0.6253  2.0185 -1.2526
12061WAT    EPW48966   3.509   6.845   1.934 -0.4782  0.5018 -0.0313
12062WAT      O48967   1.184   2.711   4.250 -0.2950  0.7350  0.3306
12062WAT     H148968   1.156   2.794   4.257 -0.0085  0.7348  1.7287
12062WAT     H248969   1.265   2.720   4.217  0.2600  1.1311  1.7271
12062WAT    EPW48970   1.192   2.725   4.246 -0.1707  0.7935  0.7434
12063WAT      O48971   5.279   1.174   0.055 -0.6993 -0.4102 -0.0650
12063WAT     H148972   5.215   1.175  -0.004 -0.3269 -0.9324 -0.4920
12063WAT     H248973   5.242   1.137   0.125 -0.6538 -1.4593 -0.5785
12063WAT    EPW48974   5.264   1.169   0.057 -0.6375 -0.6423 -0.2040
12064WAT      O48975   7.298   7.510   0.568 -0.4859  0.7657 -0.5035
12064WAT     H148976   7.266   7.502   0.648 -1.9487  0.5799 -1.0833
12064WAT     H248977   7.325   7.430   0.548  0.1519  0.8706 -0.1146
12064WAT    EPW48978   7.298   7.497   0.577 -0.6077  0.7538 -0.5317
12065WAT      O48979   5.697   1.087   2.143  0.3552 -0.5920  0.6327
12065WAT     H148980   5.742   1.105   2.071 -0.7342 -1.5221 -0.3098
12065WAT     H248981   5.688   1.165   2.181 -1.7034  0.4944 -1.8294
12065WAT    EPW48982   5.703   1.101   2.138 -0.1098 -0.5689  0.1298
12066WAT      O48983   3.010   1.757   3.345  0.1212 -0.2923  0.1458
12066WAT     H148984   3.097   1.762   3.336  0.3074 -2.5278  0.0457
12066WAT     H248985   2.980   1.828   3.305  1.7619 -1.1406 -2.8366
12066WAT    EPW48986   3.018   1.768   3.338  0.3911 -0.7478 -0.3096
12067WAT      O48987   1.964   3.719   5.243 -0.4215 -0.5029 -0.8619
12067WAT     H148988   2.015   3.784   5.271  0.0975 -0.0119 -2.7876
12067WAT     H248989   2.012   3.648   5.259 -0.0308 -0.2140 -0.7210
12067WAT    EPW48990   1.979   3.718   5.249 -0.2871 -0.3877 -1.1255
12068WAT      O48991   2.728   6.943   6.153  0.4719  0.3262  0.3748
12068WAT     H148992   2.685   6.982   6.088  0.0869  1.0101  1.0296
12068WAT     H248993   2.689   6.865   6.159  0.8204  0.0784 -0.5175
12068WAT    EPW48994   2.716   6.937   6.144  0.4665  0.3906  0.3397
12069WAT      O48995   0.783   7.357   5.209  0.1012 -0.5416  1.1932
12069WAT     H148996   0.773   7.444   5.211  1.1541 -0.3499 -0.1252
12069WAT     H248997   0.864   7.345   5.240  1.5724 -0.6207 -2.2071
12069WAT    EPW48998   0.794   7.368   5.214  0.4741 -0.5250  0.4961
12070WAT      O48999   0.784   0.085   6.073  0.1883 -0.1308 -0.3324
12070WAT     H149000   0.737   0.051   6.008  0.3412  0.0620 -0.5484
12070WAT     H249001   0.800   0.166   6.046  0.0004  0.0458  0.0850
12070WAT    EPW49002   0.779   0.092   6.059  0.1832 -0.0762 -0.3027
12071WAT      O49003   1.043   0.298   4.897 -0.0368  0.1449 -0.8936
12071WAT     H149004   1.026   0.219   4.864  0.6783 -0.1751 -0.5132
12071WAT     H249005   1.127   0.310   4.878 -0.0363  0.6367 -0.5796
12071WAT    EPW49006   1.053   0.288   4.889  0.0689  0.1703 -0.7910
12072WAT      O49007   1.645   2.787   5.034  0.1195 -0.4508  0.1123
12072WAT     H149008   1.700   2.817   5.095 -0.4869  0.9038  0.0397
12072WAT     H249009   1.679   2.710   5.012  0.4183 -0.9341  2.0725
12072WAT    EPW49010   1.659   2.780   5.040  0.0741 -0.3221  0.3911
12073WAT      O49011   6.665   7.186   6.364  0.0050  0.0994  0.0381
12073WAT     H149012   6.688   7.239   6.300  0.4945 -0.1767 -0.0231
12073WAT     H249013   6.703   7.221   6.435  1.8415 -1.1080 -0.2830
12073WAT    EPW49014   6.674   7.199   6.365  0.3486 -0.1198 -0.0184
12074WAT      O49015   3.016   6.163   4.734 -0.3708  0.5250 -0.2993
12074WAT     H149016   2.931   6.176   4.721 -0.4325 -0.3138 -0.8650
12074WAT     H249017   3.052   6.240   4.715 -0.9243  0.6160 -1.0228
12074WAT    EPW49018   3.009   6.176   4.729 -0.4617  0.4146 -0.4898
12075WAT      O49019   1.834   5.891   5.970 -0.7973 -0.3102  0.1604
12075WAT     H149020   1.852   5.829   6.028  0.4433 -1.8078 -1.6894
12075WAT     H249021   1.791   5.848   5.907  1.5650  0.2170 -1.9797
12075WAT    EPW49022   1.830   5.876   5.969 -0.2651 -0.4535 -0.4290
12076WAT      O49023   2.171   3.949   3.406  0.2588 -0.3381 -0.3960
12076WAT     H149024   2.117   3.880   3.409  0.8198 -0.7507  0.7291
12076WAT     H249025   2.233   3.924   3.351 -0.1437 -0.2612 -0.8983
12076WAT    EPW49026   2.172   3.935   3.399  0.2822 -0.3877 -0.3040
12077WAT      O49027   2.508   0.375   6.681 -0.2870 -0.1950  0.1091
12077WAT     H149028   2.507   0.349   6.764  1.0365 -1.2506 -0.1792
12077WAT     H249029   2.535   0.458   6.686 -0.4283 -0.1812  0.7262
12077WAT    EPW49030   2.511   0.384   6.694 -0.1124 -0.3489  0.1576
12078WAT      O49031   1.291   6.964   5.025  0.3501 -0.0665 -0.1042
12078WAT     H149032   1.283   7.049   5.042 -1.5941 -0.1295 -0.4639
12078WAT     H249033   1.284   6.959   4.938 -1.3791 -0.6938  0.0213
12078WAT    EPW49034   1.289   6.976   5.015 -0.1925 -0.1685 -0.1388
12079WAT      O49035   6.892   5.970   6.248  0.3733  0.5347 -0.2079
12079WAT     H149036   6.948   5.942   6.309 -1.4046  0.1719  1.3351
12079WAT     H249037   6.936   6.034   6.208  2.6488 -1.0546 -0.5000
12079WAT    EPW49038   6.907   5.975   6.251  0.4468  0.2464 -0.0231
12080WAT      O49039   1.659   7.111   5.743 -0.0918 -0.3090  0.1871
12080WAT     H149040   1.667   7.148   5.822  2.4261 -0.9229  0.3283
12080WAT     H249041   1.679   7.176   5.689  1.0486 -0.5782  0.2558
12080WAT    EPW49042   1.663   7.126   5.747  0.4486 -0.4395  0.2181
12081WAT      O49043   0.850   1.376   4.174  0.0947  0.4723 -0.3342
12081WAT     H149044   0.921   1.378   4.124  0.2937  1.2651 -0.0403
12081WAT     H249045   0.817   1.456   4.167  0.6948  0.9509  1.5707
12081WAT    EPW49046   0.855   1.388   4.166  0.2128  0.6601 -0.0094
12082WAT      O49047   6.284   3.236   7.002 -0.0849  0.7057  0.2607
12082WAT     H149048   6.322   3.157   7.007 -0.8190  0.2679 -0.8156
12082WAT     H249049   6.352   3.291   7.010  0.2914  0.0338  2.3926
12082WAT    EPW49050   6.300   3.232   7.004 -0.1378  0.5418  0.4166
12083WAT      O49051   1.715   0.405   4.757 -0.3371  0.1282 -0.1250
12083WAT     H149052   1.713   0.345   4.820  0.8904 -0.1823 -0.3523
12083WAT     H249053   1.634   0.403   4.724 -0.4815 -0.9910  0.2478
12083WAT    EPW49054   1.703   0.396   4.761 -0.1771 -0.0830 -0.1035
12084WAT      O49055   2.543   6.872   3.113 -0.3653  0.3641  0.7403
12084WAT     H149056   2.537   6.889   3.028 -0.6183 -0.2845  0.6206
12084WAT     H249057   2.460   6.856   3.136 -0.2608  0.2530  1.0440
12084WAT    EPW49058   2.530   6.873   3.104 -0.3872  0.2519  0.7675
12085WAT      O49059   6.244   7.441   3.454 -0.5894  0.3504  0.1657
12085WAT     H149060   6.249   7.518   3.494 -2.7028  0.9739 -0.6552
12085WAT     H249061   6.257   7.460   3.370  0.4412 -0.4610  0.1080
12085WAT    EPW49062   6.247   7.455   3.447 -0.7493  0.3227  0.0359
12086WAT      O49063   7.008   2.207   6.716  0.5329 -0.0395 -0.3194
12086WAT     H149064   7.040   2.149   6.659  1.2776  0.3967 -0.3693
12086WAT     H249065   6.959   2.259   6.668  0.5976 -0.0905 -0.4407
12086WAT    EPW49066   7.006   2.206   6.701  0.6524  0.0174 -0.3447
12087WAT      O49067   2.740   0.443   5.973 -0.0757  0.5348  0.4880
12087WAT     H149068   2.689   0.449   6.044 -0.8232  0.4192 -0.0273
12087WAT     H249069   2.684   0.424   5.909  0.7667 -0.7322  0.0961
12087WAT    EPW49070   2.724   0.441   5.974 -0.0617  0.3306  0.3540
12088WAT      O49071   6.074   1.175   6.867  0.4244 -0.6410  0.0952
12088WAT     H149072   6.012   1.123   6.836  0.7276 -1.6628  1.1271
12088WAT     H249073   6.115   1.204   6.795 -0.6322 -0.7069 -0.5452
12088WAT    EPW49074   6.071   1.172   6.852  0.3131 -0.8017  0.1530
12089WAT      O49075   3.174   0.444   7.534 -1.0923 -0.7610  0.1481
12089WAT     H149076   3.222   0.374   7.518 -0.7300 -0.5800  0.4481
12089WAT     H249077   3.232   0.506   7.553 -1.4693 -0.7128  1.1844
12089WAT    EPW49078   3.189   0.443   7.534 -1.0944 -0.7271  0.3455
12090WAT      O49079   6.241   1.340   2.717  0.3037 -0.6804  0.4656
12090WAT     H149080   6.322   1.368   2.733  0.5097 -2.1824  2.2723
12090WAT     H249081   6.191   1.409   2.736  1.1333  0.6314 -1.7121
12090WAT    EPW49082   6.246   1.355   2.722  0.4567 -0.7085  0.4108
12091WAT      O49083   0.683   0.553   3.712  0.1929  0.2543 -0.3508
12091WAT     H149084   0.619   0.493   3.714  1.1048 -0.7422  0.2229
12091WAT     H249085   0.754   0.506   3.694  0.4439  1.6982 -3.9864
12091WAT    EPW49086   0.684   0.537   3.710  0.3647  0.3204 -0.8031
12092WAT      O49087   4.490   6.631   1.574 -0.4672  0.1109 -0.2672
12092WAT     H149088   4.475   6.601   1.655 -1.5701  2.0429  0.3038
12092WAT     H249089   4.577   6.629   1.568 -0.1800  1.9991  1.8698
12092WAT    EPW49090   4.501   6.626   1.585 -0.5877  0.6752  0.1328
12093WAT      O49091   2.698   6.968   0.725 -0.6166  0.1917 -0.3037
12093WAT     H149092   2.682   7.054   0.720  1.4227  0.6213 -0.3000
12093WAT     H249093   2.702   6.954   0.811  0.4062  0.4016 -0.3054
12093WAT    EPW49094   2.696   6.979   0.737 -0.1642  0.2862 -0.3034
12094WAT      O49095   6.557   1.259   4.535  0.1463 -0.5462 -0.3754
12094WAT     H149096   6.597   1.240   4.610 -0.0127 -0.6362 -0.3113
12094WAT     H249097   6.519   1.184   4.512 -1.4188 -0.0565  0.4550
12094WAT    EPW49098   6.557   1.245   4.543 -0.1084 -0.4872 -0.2432
12095WAT      O49099   2.568   3.074   2.822  0.7816  0.6041  0.5838
12095WAT     H149100   2.629   3.111   2.771  0.1458  1.5129  0.4637
12095WAT     H249101   2.609   3.004   2.855  0.9430 -0.5906 -1.9058
12095WAT    EPW49102   2.583   3.069   2.819  0.7115  0.5618  0.1983
12096WAT      O49103   4.735   0.468   4.777  0.0256  0.4875 -0.6769
12096WAT     H149104   4.790   0.536   4.785  0.1679  0.5323 -1.8986
12096WAT     H249105   4.739   0.448   4.692 -0.7298 -0.4594 -0.5042
12096WAT    EPW49106   4.744   0.475   4.766 -0.0649  0.3542 -0.8318
12097WAT      O49107   0.996   4.287   4.638 -0.2819  0.0261 -0.1299
12097WAT     H149108   1.023   4.282   4.721 -3.8527 -1.2855  1.1667
12097WAT     H249109   0.999   4.372   4.620  0.4970  0.3577  1.3895
12097WAT    EPW49110   1.000   4.299   4.648 -0.6943 -0.1187  0.2861
12098WAT      O49111   2.417   7.341   2.967  0.4644 -0.1663 -0.1901
12098WAT     H149112   2.393   7.271   2.920  0.2881 -1.0083  1.0930
12098WAT     H249113   2.356   7.346   3.030  1.0716  0.4886  0.3665
12098WAT    EPW49114   2.404   7.331   2.970  0.5281 -0.1940  0.0817
12099WAT      O49115   7.172   3.914   6.408  0.0922 -0.5291  0.3783
12099WAT     H149116   7.173   3.955   6.485 -0.8640 -1.9551  1.2087
12099WAT     H249117   7.166   3.978   6.350 -0.0463  0.5526  1.5436
12099WAT    EPW49118   7.171   3.930   6.411 -0.0695 -0.5800  0.6731
12100WAT      O49119   1.581   6.880   5.274  0.8464 -0.6997  0.5758
12100WAT     H149120   1.587   6.846   5.194  0.3734  1.2236 -0.3306
12100WAT     H249121   1.620   6.820   5.324 -0.6998 -2.9647 -0.7403
12100WAT    EPW49122   1.588   6.866   5.269  0.5481 -0.7502  0.2475
12101WAT      O49123   2.817   0.637   2.739 -0.4567 -0.4366 -0.2614
12101WAT     H149124   2.876   0.640   2.803 -1.9558 -1.3915  1.2625
12101WAT     H249125   2.785   0.718   2.736  1.0087  0.1539 -1.2607
12101WAT    EPW49126   2.821   0.649   2.748 -0.4617 -0.4904 -0.1839
12102WAT      O49127   2.169   1.553   3.364  0.0731 -0.2129 -0.1018
12102WAT     H149128   2.171   1.469   3.388 -1.7167  0.0025  0.9965
12102WAT     H249129   2.084   1.574   3.369  0.0191  0.8536 -3.3335
12102WAT    EPW49130   2.157   1.544   3.368 -0.1993 -0.0235 -0.4169
12103WAT      O49131   0.129   3.239   6.669  0.3795  0.3029  0.0643
12103WAT     H149132   0.136   3.165   6.622 -1.9444  0.3353 -0.4412
12103WAT     H249133   0.062   3.280   6.632 -0.6795  0.9806  2.5494
12103WAT    EPW49134   0.120   3.234   6.657 -0.1202  0.4078  0.3567
12104WAT      O49135   6.350   0.567   5.521 -0.0872 -0.0267  0.0611
12104WAT     H149136   6.367   0.609   5.595  0.0982  0.6630 -0.3659
12104WAT     H249137   6.369   0.625   5.459 -0.7070 -0.4268 -0.5222
12104WAT    EPW49138   6.355   0.582   5.523 -0.1513  0.0161 -0.0882
12105WAT      O49139   5.481   0.612   5.571 -0.0284  0.2940  0.2993
12105WAT     H149140   5.553   0.653   5.598 -0.6346  1.3105  0.4051
12105WAT     H249141   5.500   0.589   5.488  0.5174  0.2854  0.4272
12105WAT    EPW49142   5.494   0.614   5.563 -0.0373  0.4429  0.3338
12106WAT      O49143   1.381   6.275   7.649 -0.0752 -0.5217  0.1814
12106WAT     H149144   1.398   6.277   7.563 -1.7807 -2.4423 -0.2809
12106WAT     H249145   1.431   6.209   7.677  1.2091  0.7015  0.9217
12106WAT    EPW49146   1.391   6.265   7.640 -0.1374 -0.6247  0.2225
12107WAT      O49147   6.833   1.221   7.100 -0.7735 -0.3545 -0.3772
12107WAT     H149148   6.849   1.180   7.175  2.6792 -1.0385 -1.2994
12107WAT     H249149   6.794   1.295   7.124 -0.4977 -0.9184  1.9957
12107WAT    EPW49150   6.829   1.225   7.114 -0.2227 -0.5388 -0.1629
12108WAT      O49151   0.948   3.404   6.287  0.2730  0.6388  0.5476
12108WAT     H149152   0.988   3.328   6.299 -0.5414  0.3172  1.3530
12108WAT     H249153   1.012   3.459   6.264  1.2412  0.2518  2.2431
12108WAT    EPW49154   0.963   3.401   6.285  0.2957  0.5342  0.9170
12109WAT      O49155   1.867   3.963   1.598 -0.2131  0.1771  0.1717
12109WAT     H149156   1.898   3.897   1.550  1.6731  1.0113  0.1729
12109WAT     H249157   1.938   3.996   1.635 -1.0445  2.4945 -0.1844
12109WAT    EPW49158   1.882   3.958   1.596 -0.0573  0.6427  0.1193
12110WAT      O49159   1.413   2.334   0.477 -0.1815 -0.5814 -0.4742
12110WAT     H149160   1.467   2.321   0.410  0.5857 -1.1611  0.2286
12110WAT     H249161   1.443   2.408   0.514 -0.0220 -0.7617 -0.2373
12110WAT    EPW49162   1.425   2.343   0.473 -0.0446 -0.6936 -0.3354
12111WAT      O49163   4.112   1.704   0.812 -0.5841 -0.0606  0.3063
12111WAT     H149164   4.054   1.666   0.865 -0.3233 -0.8968  0.0098
12111WAT     H249165   4.181   1.719   0.864 -1.1800  1.2892  0.7540
12111WAT    EPW49166   4.114   1.700   0.827 -0.6336  0.0152  0.3286
12112WAT      O49167   6.044   0.673   3.973 -0.3388  0.1705 -0.3639
12112WAT     H149168   6.030   0.679   4.059 -0.4583  1.4131 -0.4511
12112WAT     H249169   6.117   0.625   3.967  1.1596  2.1771  0.5733
12112WAT    EPW49170   6.053   0.667   3.985 -0.1351  0.6505 -0.2384
12113WAT      O49171   1.966   3.438   5.635 -0.0872 -0.0973 -0.1679
12113WAT     H149172   1.971   3.457   5.720 -1.6401 -2.0328  0.4230
12113WAT     H249173   1.940   3.514   5.599  0.1060  0.6136  1.1293
12113WAT    EPW49174   1.963   3.452   5.642 -0.2881 -0.2782  0.1110
12114WAT      O49175   6.916   0.807   4.519  0.7558  0.2821  0.1586
12114WAT     H149176   6.902   0.721   4.514 -0.9117  0.5057  0.4199
12114WAT     H249177   6.908   0.833   4.436 -3.2577  0.7186  0.4532
12114WAT    EPW49178   6.913   0.798   4.506 -0.0834  0.3796  0.2408
12115WAT      O49179   0.783   5.129   3.923  0.0650 -0.4146 -0.5811
12115WAT     H149180   0.831   5.188   3.966  0.7031 -0.7932 -0.7509
12115WAT     H249181   0.702   5.159   3.929  0.0098 -0.8722  1.6006
12115WAT    EPW49182   0.778   5.142   3.930  0.1511 -0.5381 -0.2839
12116WAT      O49183   1.960   2.828   2.298 -0.0955  0.2266 -0.2749
12116WAT     H149184   2.038   2.807   2.329  0.0012  0.0003 -0.6625
12116WAT     H249185   1.934   2.757   2.255  0.0379  0.7182 -1.2117
12116WAT    EPW49186   1.967   2.815   2.296 -0.0615  0.2658 -0.4705
12117WAT      O49187   2.258   7.085   2.885 -0.3816 -0.1113  0.0102
12117WAT     H149188   2.223   7.108   2.808 -0.5189  1.6224  0.5588
12117WAT     H249189   2.320   7.027   2.862  0.5649  1.4223 -1.6016
12117WAT    EPW49190   2.262   7.080   2.870 -0.2620  0.3714 -0.1468
12118WAT      O49191   3.224   5.403   1.291  0.2234 -0.8478 -0.2620
12118WAT     H149192   3.253   5.481   1.318  1.3154 -1.0634 -0.7526
12118WAT     H249193   3.152   5.422   1.245 -0.0775 -0.2337  0.4435
12118WAT    EPW49194   3.218   5.417   1.288  0.3403 -0.7889 -0.2303
12119WAT      O49195   6.712   0.949   7.840  0.2064 -0.2581  0.3574
12119WAT     H149196   6.684   0.887   7.786  3.2632 -0.6015 -1.0824
12119WAT     H249197   6.780   0.912   7.880  0.1801  1.1802  1.8338
12119WAT    EPW49198   6.718   0.934   7.838  0.6541 -0.0964  0.3628
12120WAT      O49199   3.160   1.206   2.541  0.5969 -0.6628 -0.4825
12120WAT     H149200   3.103   1.141   2.528 -1.4514  1.1256 -1.1824
12120WAT     H249201   3.121   1.256   2.601  1.3089  0.7608 -1.1538
12120WAT    EPW49202   3.146   1.204   2.548  0.3995 -0.1884 -0.6851
12121WAT      O49203   2.659   1.407   0.654  0.1634 -0.4763  0.1442
12121WAT     H149204   2.716   1.385   0.716 -1.3844  0.1094  1.8611
12121WAT     H249205   2.606   1.464   0.694 -0.8478 -0.0141 -1.7471
12121WAT    EPW49206   2.659   1.412   0.669 -0.2146 -0.3215  0.1185
12122WAT      O49207   1.606   1.836   7.137  0.1597 -0.4129  0.0296
12122WAT     H149208   1.573   1.812   7.214 -1.9304 -0.7102 -0.9072
12122WAT     H249209   1.607   1.761   7.091  0.6193 -0.0841 -0.5166
12122WAT    EPW49210   1.601   1.821   7.141 -0.0812 -0.4083 -0.1895
12123WAT      O49211   5.726   6.943   3.419  0.1565  0.1997  0.6077
12123WAT     H149212   5.793   6.981   3.461 -1.8188  0.9112  3.4316
12123WAT     H249213   5.683   7.011   3.384 -0.6929  0.1037  1.4263
12123WAT    EPW49214   5.729   6.959   3.420 -0.2607  0.2906  1.1458
12124WAT      O49215   2.797   2.428   3.117 -0.5073 -0.2337 -0.2100
12124WAT     H149216   2.809   2.432   3.204  0.7957 -0.9878 -0.3319
12124WAT     H249217   2.788   2.512   3.094 -1.2004 -0.0466  0.6815
12124WAT    EPW49218   2.798   2.441   3.127 -0.4172 -0.3174 -0.0963
12125WAT      O49219   1.776   0.424   1.602 -0.2559  0.2844 -0.1816
12125WAT     H149220   1.808   0.492   1.557  0.4818 -0.1099 -0.2660
12125WAT     H249221   1.818   0.427   1.678  0.7089 -0.7774 -0.6378
12125WAT    EPW49222   1.787   0.434   1.606 -0.0044  0.0693 -0.2614
12126WAT      O49223   1.087   1.023   7.606 -0.3440 -0.4096  0.9659
12126WAT     H149224   1.104   0.973   7.675  0.7875 -1.7459 -0.1901
12126WAT     H249225   1.136   1.094   7.618 -0.4264 -0.4771  1.6988
12126WAT    EPW49226   1.097   1.026   7.618 -0.1890 -0.6170  0.9034
12127WAT      O49227   7.531   5.581   6.281  0.3380  0.0887  0.4492
12127WAT     H149228   7.597   5.638   6.283 -0.3014  0.8979 -0.3893
12127WAT     H249229   7.541   5.535   6.354  1.2206  0.8991  0.8559
12127WAT    EPW49230   7.542   5.583   6.292  0.3739  0.3280  0.3854
12128WAT      O49231   3.638   7.631   3.253  0.6634  0.2960  0.3273
12128WAT     H149232   3.691   7.567   3.278  1.3163 -0.4236 -2.5641
12128WAT     H249233   3.684   7.674   3.192 -0.3354  2.6089  1.0978
12128WAT    EPW49234   3.653   7.628   3.248  0.6123  0.5313  0.0140
12129WAT      O49235   2.401   4.416   0.472 -0.5258 -0.4343 -0.0117
12129WAT     H149236   2.421   4.470   0.407  0.1097 -0.6503  0.0019
12129WAT     H249237   2.426   4.460   0.543  1.6836 -1.4471 -0.0896
12129WAT    EPW49238   2.408   4.431   0.473 -0.1056 -0.6158 -0.0212
12130WAT      O49239   3.753   5.637   0.230  0.0446  0.0249  0.5425
12130WAT     H149240   3.796   5.563   0.246 -0.8618 -0.6335  0.0241
12130WAT     H249241   3.669   5.613   0.231 -0.2263  0.8360 -0.6515
12130WAT    EPW49242   3.747   5.623   0.233 -0.1293  0.0474  0.2896
12131WAT      O49243   2.250   3.954   7.831 -0.1090 -0.1604 -0.1993
12131WAT     H149244   2.194   4.021   7.820 -0.9200 -0.7434  0.2879
12131WAT     H249245   2.249   3.941   7.917  0.1072 -0.7483 -0.2864
12131WAT    EPW49246   2.242   3.962   7.842 -0.1969 -0.3334 -0.1402
12132WAT      O49247   2.754   0.216   4.770 -0.3609 -0.1417  0.1099
12132WAT     H149248   2.838   0.228   4.789 -0.4568  0.2698  0.2826
12132WAT     H249249   2.713   0.275   4.820 -0.6550  0.5658 -0.9365
12132WAT    EPW49250   2.760   0.227   4.780 -0.4185  0.0236 -0.0192
12133WAT      O49251   3.335   3.474   2.388 -0.3088 -0.3772  0.7284
12133WAT     H149252   3.400   3.496   2.442 -1.1007  2.1413  0.7621
12133WAT     H249253   3.342   3.531   2.322 -2.6579  0.2113  0.8925
12133WAT    EPW49254   3.346   3.486   2.386 -0.7728  0.0818  0.7576
12134WAT      O49255   0.248   0.750   6.758 -0.2340  0.0250 -0.3102
12134WAT     H149256   0.206   0.707   6.821  0.9397  0.0335  0.5088
12134WAT     H249257   0.254   0.692   6.693  1.7375 -1.2761  0.9409
12134WAT    EPW49258   0.242   0.735   6.758  0.2306 -0.1660 -0.0044
12135WAT      O49259   4.398   1.352   1.502  0.1419  0.3008  0.3195
12135WAT     H149260   4.317   1.384   1.497 -0.9585 -2.3745 -1.1875
12135WAT     H249261   4.412   1.342   1.587 -0.7141  1.6190  0.6477
12135WAT    EPW49262   4.388   1.355   1.514 -0.1471  0.1003  0.1454
12136WAT      O49263   1.767   2.864   0.247 -0.0419 -0.1429  0.6997
12136WAT     H149264   1.747   2.945   0.221 -0.1544 -0.3367  0.1763
12136WAT     H249265   1.854   2.861   0.240 -0.1620 -0.6026 -0.8967
12136WAT    EPW49266   1.777   2.876   0.242 -0.0763 -0.2394  0.3866
12137WAT      O49267   2.594   1.143   0.536 -0.3230 -0.6494  0.1182
12137WAT     H149268   2.598   1.218   0.581 -0.9015 -0.6969  0.2651
12137WAT     H249269   2.542   1.163   0.469 -0.9478 -1.0674  0.4689
12137WAT    EPW49270   2.587   1.157   0.533 -0.5007 -0.7181  0.1917
12138WAT      O49271   4.451   4.262   6.785  0.0589  0.5802  0.0818
12138WAT     H149272   4.499   4.239   6.716  3.1863  0.1335  2.1802
12138WAT     H249273   4.470   4.347   6.795 -1.7583  1.1011 -0.5408
12138WAT    EPW49274   4.461   4.271   6.776  0.2524  0.5911  0.2998
12139WAT      O49275   6.113   6.501   5.170 -0.3602 -0.0751  0.0698
12139WAT     H149276   6.126   6.488   5.255 -1.8135 -0.5644  0.2444
12139WAT     H249277   6.161   6.572   5.152  1.1191 -0.8071  0.9522
12139WAT    EPW49278   6.122   6.509   5.180 -0.3563 -0.2555  0.2259
12140WAT      O49279   1.154   7.134   4.655  0.3160 -0.0943 -0.5191
12140WAT     H149280   1.144   7.135   4.569 -1.6648  0.4885 -0.3237
12140WAT     H249281   1.111   7.061   4.679 -1.3530  1.0502  0.1470
12140WAT    EPW49282   1.146   7.123   4.646 -0.2231  0.1608 -0.3918
12141WAT      O49283   2.709   3.809   0.450  0.2648  0.0387  0.1990
12141WAT     H149284   2.622   3.813   0.446  0.2235  0.8184  1.4943
12141WAT     H249285   2.724   3.724   0.466 -0.3910  0.2561  2.1695
12141WAT    EPW49286   2.698   3.797   0.452  0.1618  0.1860  0.6814
12142WAT      O49287   1.167   0.842   6.161 -0.3091  0.3355 -0.4877
12142WAT     H149288   1.199   0.768   6.193  0.1087  1.7609  2.8008
12142WAT     H249289   1.083   0.824   6.146  0.0225 -1.0474 -0.7814
12142WAT    EPW49290   1.159   0.829   6.163 -0.1984  0.3418 -0.0453
12143WAT      O49291   3.224   3.945   2.258  0.3405 -0.1413  0.0772
12143WAT     H149292   3.237   3.889   2.193  1.9095  0.7054 -0.4028
12143WAT     H249293   3.228   4.023   2.219  2.7786  0.4545  1.2995
12143WAT    EPW49294   3.227   3.948   2.243  0.9324  0.0718  0.1869
12144WAT      O49295   4.088   2.578   1.471  0.0912 -0.1808 -0.1179
12144WAT     H149296   4.033   2.636   1.506 -0.3855  0.3157 -1.5989
12144WAT     H249297   4.066   2.503   1.509 -0.1216  0.3859  0.9119
12144WAT    EPW49298   4.077   2.576   1.481 -0.0106 -0.0237 -0.1845
12145WAT      O49299   1.924   0.979   3.054 -0.2814  0.2650 -0.1114
12145WAT     H149300   1.988   1.019   3.009 -0.4268  0.7610  0.1077
12145WAT     H249301   1.923   0.899   3.021  0.3106  0.3142 -0.2708
12145WAT    EPW49302   1.934   0.973   3.042 -0.2154  0.3455 -0.1026
12146WAT      O49303   1.947   2.088   4.324 -0.0408 -0.2163 -0.5424
12146WAT     H149304   1.995   2.110   4.255  0.2187  0.0915 -0.2683
12146WAT     H249305   1.945   2.161   4.372 -1.2452 -0.0530 -0.8073
12146WAT    EPW49306   1.954   2.102   4.321 -0.1804 -0.1467 -0.5410
12147WAT      O49307   1.367   1.075   3.834  0.2787  0.0084 -0.4237
12147WAT     H149308   1.315   1.005   3.831  1.1087 -0.6362 -0.1762
12147WAT     H249309   1.340   1.123   3.766 -1.6199  0.4348  0.5703
12147WAT    EPW49310   1.356   1.071   3.823  0.1209 -0.0238 -0.2403
12148WAT      O49311   1.717   2.888   6.805  1.0230 -0.2509 -0.2593
12148WAT     H149312   1.672   2.912   6.734 -1.7878 -0.2127  1.3844
12148WAT     H249313   1.662   2.837   6.848  1.1658  2.4083  3.5334
12148WAT    EPW49314   1.702   2.884   6.801  0.6289  0.1476  0.5438
12149WAT      O49315   2.086   0.906   0.756 -0.1333 -0.0539  0.1539
12149WAT     H149316   2.131   0.831   0.757  0.9499  0.5348  2.7630
12149WAT     H249317   2.145   0.965   0.734 -1.1407  0.0419 -2.5700
12149WAT    EPW49318   2.101   0.903   0.753 -0.1221  0.0472  0.1369
12150WAT      O49319   4.468   4.591   7.202  0.6810  0.3260  0.2142
12150WAT     H149320   4.526   4.610   7.263  1.0100 -3.1672  1.2061
12150WAT     H249321   4.402   4.554   7.246  0.7483 -1.9453 -1.3852
12150WAT    EPW49322   4.467   4.588   7.217  0.7396 -0.5255  0.1245
12151WAT      O49323   7.027   2.852   5.304  0.2177  0.5043 -0.3697
12151WAT     H149324   7.077   2.894   5.247 -0.7615  2.9014  0.3852
12151WAT     H249325   6.947   2.884   5.289 -0.1715  0.8053  1.8859
12151WAT    EPW49326   7.022   2.863   5.293  0.0156  0.9028  0.0750
12152WAT      O49327   2.128   2.865   5.853  0.2549  0.0023  0.9221
12152WAT     H149328   2.074   2.855   5.921 -0.4533 -0.2960  0.3260
12152WAT     H249329   2.148   2.950   5.856  1.5791 -0.3282  2.4913
12152WAT    EPW49330   2.123   2.876   5.863  0.3459 -0.0906  1.0658
12153WAT      O49331   7.618   5.204   5.768  0.2714  0.3587  0.1885
12153WAT     H149332   7.566   5.270   5.791 -0.6224 -0.2925  0.1000
12153WAT     H249333   7.609   5.147   5.834 -1.4090 -1.0208 -1.1251
12153WAT    EPW49334   7.609   5.205   5.781 -0.1088  0.0588 -0.0186
12154WAT      O49335   3.471   5.125   0.256 -0.2157  0.0848  0.3682
12154WAT     H149336   3.505   5.066   0.201  1.1456  0.3581  0.8524
12154WAT     H249337   3.486   5.090   0.334  0.2452  0.8785  0.6447
12154WAT    EPW49338   3.479   5.111   0.259  0.0535  0.2424  0.4805
12155WAT      O49339   2.344   1.139   2.727  0.2886  1.0447  0.0226
12155WAT     H149340   2.353   1.054   2.707 -0.0716  0.4977  1.9614
12155WAT     H249341   2.421   1.159   2.765  0.2903  1.5295 -0.2320
12155WAT    EPW49342   2.357   1.129   2.730  0.2356  1.0355  0.2714
12156WAT      O49343   2.118   1.617   0.392 -0.2165  0.3245 -0.6272
12156WAT     H149344   2.121   1.704   0.387 -0.2748  0.4614  1.1303
12156WAT     H249345   2.194   1.595   0.427 -1.1709 -0.0645  1.3681
12156WAT    EPW49346   2.129   1.627   0.396 -0.3661  0.2873 -0.0728
12157WAT      O49347   3.226   3.418   2.775  0.4744 -0.1521  0.0556
12157WAT     H149348   3.285   3.403   2.837  0.4757  0.8588  0.3153
12157WAT     H249349   3.256   3.489   2.735  0.0043 -0.2673 -0.5229
12157WAT    EPW49350   3.239   3.426   2.778  0.4051 -0.0198  0.0085
12158WAT      O49351   2.733   3.147   5.059 -0.1367 -0.4441 -0.1885
12158WAT     H149352   2.709   3.157   4.976 -0.1672  0.4589 -0.0766
12158WAT     H249353   2.754   3.227   5.085  0.5261 -0.8129  0.4834
12158WAT    EPW49354   2.732   3.160   5.051 -0.0433 -0.3652 -0.0727
12159WAT      O49355   3.551   2.078   5.462 -0.2910 -0.1441  0.0907
12159WAT     H149356   3.620   2.098   5.511  0.1879 -0.5480 -0.3995
12159WAT     H249357   3.546   1.991   5.470 -1.8291  0.0332  1.5384
12159WAT    EPW49358   3.561   2.068   5.471 -0.4475 -0.1776  0.2321
12160WAT      O49359   7.449   5.081   3.923  0.2692  0.2733  0.5195
12160WAT     H149360   7.396   5.142   3.890  1.4059  1.2154  0.3695
12160WAT     H249361   7.411   5.060   3.999 -2.0157 -1.4463 -0.9878
12160WAT    EPW49362   7.436   5.087   3.929  0.0996  0.1584  0.2747
12161WAT      O49363   2.125   0.383   4.373 -0.4006  0.3476 -0.8115
12161WAT     H149364   2.133   0.469   4.360  0.0329  0.4629  0.1814
12161WAT     H249365   2.207   0.358   4.390 -0.4064 -0.3874 -1.7935
12161WAT    EPW49366   2.138   0.392   4.373 -0.3374  0.2561 -0.8099
12162WAT      O49367   5.912   1.411   7.860  0.1640 -0.1399  0.3262
12162WAT     H149368   5.961   1.408   7.788 -1.2803  1.0311 -0.7801
12162WAT     H249369   5.970   1.417   7.925  1.4917  1.1083 -0.9034
12162WAT    EPW49370   5.928   1.411   7.859  0.1467  0.2175 -0.0189
12163WAT      O49371   5.859   1.123   4.661 -0.8454  0.3531 -0.0303
12163WAT     H149372   5.844   1.204   4.689 -0.1182  0.1668  0.9200
12163WAT     H249373   5.945   1.112   4.672 -0.5159  0.2170 -2.2140
12163WAT    EPW49374   5.869   1.133   4.667 -0.6893  0.3054 -0.2125
12164WAT      O49375   3.511   7.394   2.845  0.0528  0.3882 -0.1067
12164WAT     H149376   3.460   7.438   2.790  0.5574  0.5589 -0.4453
12164WAT     H249377   3.460   7.379   2.914 -0.2175  1.2124 -0.1271
12164WAT    EPW49378   3.496   7.398   2.847  0.0874  0.5351 -0.1597
12165WAT      O49379   1.956   5.385   4.830  0.2551  0.0985  0.2615
12165WAT     H149380   1.926   5.355   4.905 -1.0698  0.5188 -0.0823
12165WAT     H249381   1.927   5.467   4.827  0.4108  0.1359 -0.6353
12165WAT    EPW49382   1.948   5.393   4.841  0.0824  0.1661  0.0782
12166WAT      O49383   1.473   3.476   7.246  0.4338  0.4404  0.7387
12166WAT     H149384   1.494   3.556   7.220  2.2808 -0.4100 -0.6771
12166WAT     H249385   1.453   3.435   7.171  1.6389 -0.9567  1.1445
12166WAT    EPW49386   1.473   3.482   7.231  0.8846  0.1084  0.5895
12167WAT      O49387   1.711   2.766   2.755 -0.8116 -0.4660  0.1793
12167WAT     H149388   1.725   2.827   2.694 -1.0179 -1.6005 -1.0638
12167WAT     H249389   1.644   2.720   2.722 -0.7712 -1.2514  1.1584
12167WAT    EPW49390   1.703   2.768   2.741 -0.8361 -0.7496  0.1403
12168WAT      O49391   1.763   1.527   0.536  0.0946 -0.1611 -0.8012
12168WAT     H149392   1.708   1.577   0.582 -1.0029 -2.0675  0.0437
12168WAT     H249393   1.840   1.544   0.572 -0.2373  0.9076 -0.5406
12168WAT    EPW49394   1.766   1.537   0.548 -0.1165 -0.2849 -0.6379
12169WAT      O49395   6.086   4.591   0.219  0.6295 -0.5500  0.2090
12169WAT     H149396   6.044   4.547   0.282 -0.1868 -0.2887 -0.1398
12169WAT     H249397   6.094   4.533   0.155 -0.6493 -0.1473 -0.3377
12169WAT    EPW49398   6.081   4.576   0.219  0.3200 -0.4519  0.0767
12170WAT      O49399   7.345   0.921   7.520 -0.0121  0.5051 -0.5550
12170WAT     H149400   7.318   0.839   7.536 -0.0780  0.4521 -0.9237
12170WAT     H249401   7.380   0.915   7.440  0.1609  0.7953 -0.5004
12170WAT    EPW49402   7.346   0.908   7.510  0.0037  0.5401 -0.6014
12171WAT      O49403   3.358   6.915   1.229  0.0971  0.2338 -0.1470
12171WAT     H149404   3.289   6.868   1.252 -0.7115  0.8869 -1.1218
12171WAT     H249405   3.371   6.968   1.297 -1.6060  1.4425 -0.7081
12171WAT    EPW49406   3.350   6.916   1.242 -0.2739  0.5088 -0.3739
12172WAT      O49407   3.158   0.610   0.815  0.3462  0.1362 -0.0110
12172WAT     H149408   3.220   0.646   0.864 -0.2819  0.4931  0.5451
12172WAT     H249409   3.133   0.676   0.763  0.5789 -0.0631 -0.3721
12172WAT    EPW49410   3.163   0.625   0.815  0.2878  0.1595  0.0178
12173WAT      O49411   4.415   6.562   4.500  0.5987  0.6571 -0.3101
12173WAT     H149412   4.381   6.484   4.516  0.3031  1.1551  1.8060
12173WAT     H249413   4.425   6.563   4.413  1.8115 -2.1688 -0.2890
12173WAT    EPW49414   4.411   6.551   4.489  0.7342  0.3133  0.0056
12174WAT      O49415   0.864   5.751   7.087  0.4248 -0.0346  0.9862
12174WAT     H149416   0.949   5.737   7.074  0.2983 -0.7247  0.8697
12174WAT     H249417   0.825   5.688   7.041 -0.1421  0.0818  1.2949
12174WAT    EPW49418   0.871   5.740   7.079  0.3224 -0.1193  1.0146
12175WAT      O49419   0.405   2.336   4.045  0.0553 -0.3851  0.7937
12175WAT     H149420   0.381   2.253   4.055 -1.3219 -0.3892 -1.5703
12175WAT     H249421   0.455   2.334   3.973  0.0682  0.8030  0.7522
12175WAT    EPW49422   0.409   2.324   4.036 -0.1462 -0.2102  0.4383
12176WAT      O49423   2.227   4.298   7.536  0.0403 -0.0550  0.1123
12176WAT     H149424   2.257   4.297   7.618  0.6534 -1.2379 -0.1164
12176WAT     H249425   2.269   4.365   7.499  2.2976 -1.5412 -0.1470
12176WAT    EPW49426   2.237   4.308   7.543  0.4643 -0.4492  0.0402
12177WAT      O49427   0.371   3.019   4.519  0.3580  0.3649  0.0179
12177WAT     H149428   0.314   2.980   4.465  0.8004  0.2156 -0.3500
12177WAT     H249429   0.446   2.978   4.502  0.3982 -0.0503  1.1490
12177WAT    EPW49430   0.373   3.007   4.508  0.4293  0.2815  0.1307
12178WAT      O49431   4.407   6.686   5.429  0.3858  0.2612  0.2031
12178WAT     H149432   4.474   6.631   5.419  0.6089  0.6734 -0.6825
12178WAT     H249433   4.431   6.736   5.496  1.5120  1.1674 -0.8385
12178WAT    EPW49434   4.420   6.685   5.437  0.5851  0.4559 -0.0816
12179WAT      O49435   2.095   0.874   7.273  0.8745 -0.0526 -0.5310
12179WAT     H149436   2.172   0.880   7.231  1.5920 -2.5134  0.1942
12179WAT     H249437   2.115   0.896   7.355  0.9703 -1.1610 -0.2366
12179WAT    EPW49438   2.110   0.878   7.278  0.9947 -0.5798 -0.3804
12180WAT      O49439   6.481   1.001   5.759  0.2483  0.1560 -0.2023
12180WAT     H149440   6.554   1.010   5.711 -0.6029  2.3071 -1.2048
12180WAT     H249441   6.507   1.025   5.839  0.1556  3.7217 -1.0656
12180WAT    EPW49442   6.496   1.006   5.764  0.1089  1.0005 -0.4779
12181WAT      O49443   7.681   1.862   6.128 -0.0203 -0.4926 -0.3299
12181WAT     H149444   7.735   1.905   6.181 -0.9975  0.1625  0.1566
12181WAT     H249445   7.621   1.828   6.181  0.9416 -2.9191 -0.6333
12181WAT    EPW49446   7.680   1.863   6.144 -0.0226 -0.7543 -0.3029
12182WAT      O49447   3.054   0.219   6.040  0.8524  0.7941 -0.2234
12182WAT     H149448   3.067   0.187   5.960 -0.2663  1.9812 -0.9248
12182WAT     H249449   3.079   0.154   6.092  0.2406 -0.5654 -1.5398
12182WAT    EPW49450   3.060   0.205   6.036  0.5968  0.7687 -0.5215
12183WAT      O49451   5.266   2.307   3.774 -0.0673 -0.4908  0.3964
12183WAT     H149452   5.194   2.278   3.734 -0.5769  0.6960  0.4065
12183WAT     H249453   5.323   2.316   3.708 -0.2536 -0.4666  0.2369
12183WAT    EPW49454   5.264   2.304   3.758 -0.1701 -0.3119  0.3744
12184WAT      O49455   0.290   4.798   6.947 -0.0274 -0.2428  0.2383
12184WAT     H149456   0.274   4.883   6.955 -0.3313 -0.4237  1.7677
12184WAT     H249457   0.363   4.786   6.993 -0.2729 -0.8971  0.4750
12184WAT    EPW49458   0.299   4.809   6.955 -0.1085 -0.3662  0.4992
12185WAT      O49459   3.529   2.910   5.500 -0.0155 -0.0502 -0.5480
12185WAT     H149460   3.562   2.877   5.575 -0.0253 -0.5731 -0.7697
12185WAT     H249461   3.579   2.980   5.486 -1.3295  1.3038  1.0433
12185WAT    EPW49462   3.542   2.915   5.509 -0.2111  0.0726 -0.3457
12186WAT      O49463   2.106   3.613   6.523  0.6346  0.1050  0.5306
12186WAT     H149464   2.165   3.557   6.555 -0.2173 -0.5912  0.9006
12186WAT     H249465   2.092   3.584   6.442  0.4159 -0.0318  0.6189
12186WAT    EPW49466   2.113   3.600   6.516  0.4765 -0.0181  0.5983
12187WAT      O49467   6.501   2.143   6.301  0.1523  0.4031  0.1164
12187WAT     H149468   6.515   2.173   6.220 -1.2945 -2.3310 -1.2996
12187WAT     H249469   6.581   2.142   6.337  0.8979  1.3203 -1.4197
12187WAT    EPW49470   6.515   2.147   6.294  0.0487  0.1347 -0.3197
12188WAT      O49471   1.190   0.363   6.730 -0.2817  0.7915  0.5338
12188WAT     H149472   1.108   0.391   6.721 -1.5510 -2.7044 -0.4996
12188WAT     H249473   1.232   0.399   6.662 -1.6402  0.6581 -0.4150
12188WAT    EPW49474   1.184   0.373   6.719 -0.6699  0.2554  0.2410
12189WAT      O49475   1.768   7.565   5.654 -0.1106  0.0911 -0.7673
12189WAT     H149476   1.853   7.574   5.640  0.2152  0.1749  1.0359
12189WAT     H249477   1.751   7.624   5.716 -1.3747 -0.2640 -0.7408
12189WAT    EPW49478   1.778   7.575   5.661 -0.2492  0.0510 -0.4970
12190WAT      O49479   0.088   7.038   3.940 -0.1621 -0.2350 -0.2955
12190WAT     H149480   0.109   6.959   3.969 -0.9377 -0.7118 -1.0061
12190WAT     H249481   0.142   7.050   3.872 -0.0180 -0.1365 -0.1638
12190WAT    EPW49482   0.099   7.028   3.934 -0.2554 -0.2909 -0.3810
12191WAT      O49483   6.727   4.507   4.365  0.6016 -0.1107  0.1386
12191WAT     H149484   6.731   4.472   4.445 -1.0437 -0.2115  0.2284
12191WAT     H249485   6.730   4.593   4.379  1.8973 -0.1498  0.1588
12191WAT    EPW49486   6.728   4.514   4.378  0.5500 -0.1313  0.1548
12192WAT      O49487   1.900   0.407   0.677 -0.1474  0.3706 -0.2637
12192WAT     H149488   1.866   0.350   0.734  1.3547 -0.5452 -0.2347
12192WAT     H249489   1.868   0.484   0.704 -1.3571 -0.3219  0.3586
12192WAT    EPW49490   1.890   0.410   0.690 -0.1042  0.1331 -0.1675
12193WAT      O49491   1.997   2.697   2.802  0.2736  0.0434  0.1324
12193WAT     H149492   2.039   2.644   2.747 -1.4174 -0.7389 -0.4755
12193WAT     H249493   1.916   2.701   2.769 -0.3458  0.9058  1.6478
12193WAT    EPW49494   1.992   2.690   2.789 -0.0677  0.0552  0.2664
12194WAT      O49495   4.526   3.943   1.121 -0.5337 -0.1697  0.1004
12194WAT     H149496   4.448   3.972   1.093 -0.2124 -0.2082 -0.8854
12194WAT     H249497   4.543   3.993   1.190 -0.7781  0.8340 -0.5415
12194WAT    EPW49498   4.517   3.955   1.127 -0.5224 -0.0271 -0.1400
12195WAT      O49499   2.610   1.782   3.479  0.6478  0.7089  0.2943
12195WAT     H149500   2.581   1.835   3.542  0.0317  2.1269 -1.1095
12195WAT     H249501   2.687   1.754   3.509  0.8574  2.1712  1.2294
12195WAT    EPW49502   2.617   1.786   3.493  0.5877  1.1344  0.2250
12196WAT      O49503   1.747   2.614   4.706 -0.4104  0.3415  0.4276
12196WAT     H149504   1.696   2.664   4.657 -1.5963 -1.0168  0.2107
12196WAT     H249505   1.818   2.601   4.657 -0.9349  0.2242 -0.3079
12196WAT    EPW49506   1.750   2.620   4.692 -0.6631  0.1235  0.2869
12197WAT      O49507   6.567   2.291   6.888 -0.2208 -0.1249 -0.1747
12197WAT     H149508   6.504   2.235   6.865 -1.0441  0.2454  1.0418
12197WAT     H249509   6.593   2.261   6.966  0.2114  0.4610 -0.0842
12197WAT    EPW49510   6.562   2.278   6.896 -0.2786  0.0163  0.0184
12198WAT      O49511   3.506   3.786   7.723  0.5046 -0.3345 -1.0706
12198WAT     H149512   3.532   3.745   7.795  2.0139  0.0864 -1.3277
12198WAT     H249513   3.500   3.869   7.748 -0.3998 -0.3920 -1.0814
12198WAT    EPW49514   3.509   3.792   7.737  0.5939 -0.2808 -1.1102
12199WAT      O49515   2.890   7.384   1.157  0.2253  0.5214 -0.4779
12199WAT     H149516   2.811   7.395   1.193  0.3416  1.5128 -0.4765
12199WAT     H249517   2.921   7.313   1.197 -0.3143  0.6366  0.1716
12199WAT    EPW49518   2.883   7.375   1.169  0.1628  0.6849 -0.3817
12200WAT      O49519   2.945   5.154   7.672  0.6538  0.2927 -0.1479
12200WAT     H149520   2.880   5.110   7.710  0.0389  2.2174  1.1984
12200WAT     H249521   2.993   5.182   7.739  1.9534  0.2786 -1.0475
12200WAT    EPW49522   2.942   5.152   7.687  0.7550  0.5749 -0.0819
12201WAT      O49523   2.606   6.177   0.206 -0.1620 -0.0174  0.1271
12201WAT     H149524   2.608   6.116   0.144 -0.0890 -0.0124  0.1243
12201WAT     H249525   2.684   6.170   0.245 -0.2182 -0.0405  0.2382
12201WAT    EPW49526   2.617   6.167   0.203 -0.1595 -0.0201  0.1431
12202WAT      O49527   7.400   1.255   6.860 -0.3533  0.6552 -0.3265
12202WAT     H149528   7.436   1.197   6.915 -0.8845 -0.4571 -1.0996
12202WAT     H249529   7.465   1.310   6.841  0.6023 -0.5590 -0.7045
12202WAT    EPW49530   7.415   1.254   6.865 -0.2906  0.3115 -0.4965
12203WAT      O49531   5.957   2.714   2.792  0.1778  0.2907 -0.0474
12203WAT     H149532   5.934   2.636   2.822  0.2601 -0.1239 -1.0377
12203WAT     H249533   5.884   2.743   2.753 -0.9555  2.1539  3.0640
12203WAT    EPW49534   5.943   2.707   2.791  0.0226  0.5047  0.2659
12204WAT      O49535   4.339   5.552   0.315  0.2601  0.1244 -0.0411
12204WAT     H149536   4.327   5.559   0.402 -1.3427 -1.1660 -0.1009
12204WAT     H249537   4.354   5.467   0.303  1.9447  0.5084 -0.9250
12204WAT    EPW49538   4.339   5.541   0.326  0.2722 -0.0095 -0.1805
12205WAT      O49539   1.250   0.091   3.230  0.2577  0.3741 -0.3023
12205WAT     H149540   1.179   0.047   3.203  0.4007 -0.2901  0.3887
12205WAT     H249541   1.292   0.034   3.281 -0.1137  1.6558  1.5247
12205WAT    EPW49542   1.246   0.076   3.233  0.2239  0.4653  0.0697
12206WAT      O49543   4.869   2.029   1.702  0.4053 -0.1844 -0.4176
12206WAT     H149544   4.812   1.973   1.738  0.0353  0.6239  0.3069
12206WAT     H249545   4.927   2.042   1.766  0.9101 -0.3109 -0.8437
12206WAT    EPW49546   4.869   2.022   1.717  0.4252 -0.0837 -0.3735
12207WAT      O49547   5.601   4.662   0.322 -0.4499  0.0782  0.5776
12207WAT     H149548   5.602   4.609   0.253 -0.4854  0.0020  0.6361
12207WAT     H249549   5.667   4.717   0.306 -0.5923  0.1931  0.3805
12207WAT    EPW49550   5.611   4.662   0.309 -0.4762  0.0840  0.5571
12208WAT      O49551   2.881   3.857   5.798  0.2509 -0.7179  0.6547
12208WAT     H149552   2.827   3.801   5.838  0.2514 -0.4460  1.0368
12208WAT     H249553   2.908   3.910   5.862  1.5270 -1.2755  0.6238
12208WAT    EPW49554   2.877   3.856   5.814  0.4395 -0.7601  0.7066
12209WAT      O49555   6.962   3.635   6.696 -0.2970 -0.3419 -0.0211
12209WAT     H149556   6.905   3.644   6.630 -1.2847  1.8746  1.0561
12209WAT     H249557   6.911   3.612   6.763 -0.2044  2.6123  1.2035
12209WAT    EPW49558   6.946   3.633   6.696 -0.4293  0.4219  0.3189
12210WAT      O49559   2.112   1.310   5.832  0.0289  0.4720 -0.2454
12210WAT     H149560   2.195   1.287   5.822  0.2763 -0.4807  2.9554
12210WAT     H249561   2.070   1.234   5.837 -0.6188  0.8691  0.6910
12210WAT    EPW49562   2.118   1.296   5.831 -0.0303  0.3900  0.3658
12211WAT      O49563   2.911   1.060   4.300  0.4530  0.4964  0.0567
12211WAT     H149564   2.973   1.024   4.350  1.3336  1.0970 -0.5552
12211WAT     H249565   2.843   1.068   4.353  0.4024 -1.5563  0.3463
12211WAT    EPW49566   2.910   1.056   4.315  0.5756  0.2819  0.0091
12212WAT      O49567   7.515   3.467   5.333 -0.4670 -0.2805 -0.2179
12212WAT     H149568   7.445   3.418   5.317 -0.6011 -0.5219  1.0254
12212WAT     H249569   7.580   3.424   5.293 -1.1370  0.4829 -2.2792
12212WAT    EPW49570   7.514   3.453   5.324 -0.5858 -0.2034 -0.3388
12213WAT      O49571   1.735   2.403   7.394  1.0276 -0.0125 -0.0217
12213WAT     H149572   1.815   2.378   7.368 -0.0468 -1.5906 -2.0897
12213WAT     H249573   1.692   2.413   7.319 -1.1178 -0.6487  1.0645
12213WAT    EPW49574   1.741   2.401   7.379  0.5520 -0.3396 -0.1667
12214WAT      O49575   2.494   6.659   7.508  0.4927 -0.3499  0.6852
12214WAT     H149576   2.411   6.654   7.482 -0.0231  1.4937  1.7329
12214WAT     H249577   2.488   6.676   7.593  2.0006 -1.4618  1.0633
12214WAT    EPW49578   2.481   6.661   7.517  0.6392 -0.2418  0.8958
12215WAT      O49579   6.348   5.262   7.792  0.4345 -0.4436  0.0076
12215WAT     H149580   6.350   5.217   7.717  2.3049  2.9525 -2.2738
12215WAT     H249581   6.269   5.299   7.790  1.2772  1.4954 -1.7310
12215WAT    EPW49582   6.336   5.261   7.781  0.8353  0.3445 -0.5863
12216WAT      O49583   4.759   1.374   7.047  0.3665  0.1254 -0.4437
12216WAT     H149584   4.688   1.421   7.066  1.8066  1.8972  1.0594
12216WAT     H249585   4.764   1.377   6.960 -1.8664 -0.8699 -0.6514
12216WAT    EPW49586   4.750   1.382   7.037  0.2494  0.2401 -0.2524
12217WAT      O49587   0.191   5.489   5.512  0.1519 -0.0387  0.3760
12217WAT     H149588   0.108   5.513   5.525 -0.0588 -0.7023  0.3008
12217WAT     H249589   0.206   5.430   5.574  0.4018 -0.3005  0.0725
12217WAT    EPW49590   0.181   5.484   5.523  0.1577 -0.1754  0.3201
12218WAT      O49591   2.311   0.991   5.917  0.3925 -0.0192  0.4287
12218WAT     H149592   2.257   0.926   5.938 -1.3182  1.5122  0.9559
12218WAT     H249593   2.282   1.059   5.964  1.0715  1.5693 -1.3108
12218WAT    EPW49594   2.299   0.991   5.927  0.2401  0.4417  0.2496
12219WAT      O49595   1.196   5.207   6.382 -0.1831 -0.2568  0.1278
12219WAT     H149596   1.210   5.288   6.410 -0.5424  0.1358 -0.7795
12219WAT     H249597   1.275   5.170   6.389  0.0879  0.3054  0.1602
12219WAT    EPW49598   1.210   5.214   6.387 -0.1961 -0.1157 -0.0015
12220WAT      O49599   4.464   2.602   0.111 -0.0397  0.9735 -0.2371
12220WAT     H149600   4.483   2.582   0.193  2.4938 -1.2538 -1.2003
12220WAT     H249601   4.494   2.683   0.101  2.6466  0.1414  0.3081
12220WAT    EPW49602   4.472   2.611   0.121  0.7314  0.5216 -0.2989
12221WAT      O49603   0.285   6.821   7.204 -0.2427 -0.0807 -0.0751
12221WAT     H149604   0.322   6.883   7.156 -0.5978  1.3021  1.3391
12221WAT     H249605   0.238   6.775   7.147  2.1948 -0.8381 -1.6378
12221WAT    EPW49606   0.284   6.823   7.189  0.0649  0.0117 -0.0970
12222WAT      O49607   0.355   5.388   6.931 -0.1599 -0.6559 -0.1894
12222WAT     H149608   0.440   5.371   6.926 -0.1407 -0.4202 -0.8598
12222WAT     H249609   0.343   5.449   6.870 -0.3321  1.3192  1.7041
12222WAT    EPW49610   0.366   5.395   6.921 -0.1825 -0.3293 -0.0087
12223WAT      O49611   1.935   3.923   1.226  0.0879 -0.1194 -0.4707
12223WAT     H149612   1.989   3.868   1.268  0.8112 -0.5035 -1.8523
12223WAT     H249613   1.937   3.895   1.143 -1.2071  0.6940 -0.8087
12223WAT    EPW49614   1.943   3.911   1.220  0.0035 -0.0560 -0.7247
12224WAT      O49615   5.173   5.106   7.670 -0.4328  0.0553  0.2829
12224WAT     H149616   5.245   5.151   7.692 -0.1646 -0.7777  1.2204
12224WAT     H249617   5.145   5.145   7.598  1.0779  0.2782 -0.2113
12224WAT    EPW49618   5.179   5.119   7.663 -0.1700 -0.0348  0.3484
12225WAT      O49619   2.895   3.661   6.803  0.1226 -0.8425 -0.2282
12225WAT     H149620   2.862   3.585   6.777  1.5134 -1.7390  0.5357
12225WAT     H249621   2.977   3.660   6.771  0.3031  0.1345  0.1724
12225WAT    EPW49622   2.903   3.650   6.794  0.3547 -0.8306 -0.0562
12226WAT      O49623   3.279   3.111   5.799 -1.0335 -0.3135  0.4991
12226WAT     H149624   3.266   3.144   5.719 -0.5012 -0.0625  0.5109
12226WAT     H249625   3.307   3.179   5.845  0.9662 -0.9342  0.2941
12226WAT    EPW49626   3.282   3.126   5.794 -0.6595 -0.3681  0.4705
12227WAT      O49627   2.089   0.282   1.352 -0.1477  0.0512 -0.8064
12227WAT     H149628   2.005   0.258   1.345 -0.4397  0.4945  0.7525
12227WAT     H249629   2.130   0.227   1.298 -1.2853 -1.1019 -0.5565
12227WAT    EPW49630   2.082   0.270   1.343 -0.3589 -0.0537 -0.5392
12228WAT      O49631   0.891   2.419   7.324  0.0774 -0.1707 -0.8197
12228WAT     H149632   0.956   2.437   7.268  0.6155  0.1802 -0.0988
12228WAT     H249633   0.928   2.431   7.402 -0.8184 -0.1304 -0.3964
12228WAT    EPW49634   0.906   2.423   7.327  0.0246 -0.1129 -0.6507
12229WAT      O49635   4.103   7.270   3.157  0.3777 -0.0789 -0.5371
12229WAT     H149636   4.103   7.184   3.148  2.4296 -0.1283 -0.6462
12229WAT     H249637   4.019   7.290   3.172  0.0624 -2.2531  1.0873
12229WAT    EPW49638   4.091   7.261   3.158  0.6342 -0.4074 -0.3133
12230WAT      O49639   0.890   7.619   7.534 -0.1778  0.5215 -0.1513
12230WAT     H149640   0.973   7.634   7.514  0.1993  0.7593  1.5028
12230WAT     H249641   0.888   7.621   7.621 -2.2372  2.5026 -0.1275
12230WAT    EPW49642   0.902   7.622   7.544 -0.4263  0.8493  0.0966
12231WAT      O49643   3.862   6.743   6.020 -0.0382  0.1195  0.2813
12231WAT     H149644   3.857   6.818   5.974 -1.1745  1.2590  2.1208
12231WAT     H249645   3.860   6.770   6.103 -0.9609 -1.9873  1.0105
12231WAT    EPW49646   3.861   6.758   6.026 -0.3423 -0.0234  0.6607
12232WAT      O49647   2.218   4.572   3.590 -0.0070  0.3333 -0.0900
12232WAT     H149648   2.226   4.599   3.508  0.8975 -0.0282 -0.1261
12232WAT     H249649   2.230   4.486   3.585  0.4567  0.3601  0.4726
12232WAT    EPW49650   2.221   4.563   3.578  0.1951  0.2839 -0.0123
12233WAT      O49651   2.849   7.228   0.279  0.3071 -0.0299  0.3613
12233WAT     H149652   2.898   7.206   0.211 -1.3031  0.0319 -0.8686
12233WAT     H249653   2.905   7.267   0.333  1.4995  0.4884 -1.1915
12233WAT    EPW49654   2.864   7.230   0.277  0.2454  0.0558 -0.0498
12234WAT      O49655   3.525   2.312   5.660 -0.4401 -0.4567  0.2699
12234WAT     H149656   3.575   2.382   5.651 -0.1815 -0.8470 -1.9807
12234WAT     H249657   3.582   2.249   5.681  0.0817 -0.8428 -2.0149
12234WAT    EPW49658   3.541   2.313   5.662 -0.3248 -0.5714 -0.4000
12235WAT      O49659   1.608   5.766   0.706 -0.1987 -0.7842  0.4535
12235WAT     H149660   1.627   5.846   0.736 -0.1940 -0.7247  0.2922
12235WAT     H249661   1.532   5.776   0.665 -0.5466 -1.0055  1.0209
12235WAT    EPW49662   1.600   5.779   0.705 -0.2494 -0.8081  0.5135
12236WAT      O49663   3.904   7.090   7.820 -0.6942 -0.1081 -0.3803
12236WAT     H149664   3.831   7.054   7.789 -0.2246 -1.3400 -0.1177
12236WAT     H249665   3.899   7.078   7.906  0.2837 -1.1770 -0.4435
12236WAT    EPW49666   3.892   7.083   7.828 -0.4803 -0.4480 -0.3509
12237WAT      O49667   2.035   5.074   4.130 -0.1144 -0.2784 -0.2469
12237WAT     H149668   2.029   5.126   4.061 -2.6456 -0.8369 -0.5630
12237WAT     H249669   2.051   5.128   4.196 -1.9870  0.8681 -0.6654
12237WAT    EPW49670   2.036   5.089   4.130 -0.7649 -0.1915 -0.3554
12238WAT      O49671   3.020   2.614   0.067 -0.4617 -0.1772  0.1417
12238WAT     H149672   2.936   2.617   0.092  0.0015  2.7799  1.7175
12238WAT     H249673   3.016   2.624  -0.019 -1.7161 -0.1670  0.1789
12238WAT    EPW49674   3.007   2.616   0.058 -0.5785  0.2612  0.3800
12239WAT      O49675   7.375   0.678   5.036 -0.0690  0.1415 -0.0550
12239WAT     H149676   7.353   0.664   5.120 -1.2682 -1.0846 -0.5346
12239WAT     H249677   7.411   0.603   5.011 -1.7556 -0.3414 -1.2225
12239WAT    EPW49678   7.377   0.665   5.045 -0.4953 -0.1109 -0.2983
12240WAT      O49679   4.580   0.125   5.789 -0.3517  0.0677  0.1186
12240WAT     H149680   4.629   0.088   5.727  0.8389  1.2363  0.3197
12240WAT     H249681   4.583   0.068   5.855  1.3876  0.4304  0.3987
12240WAT    EPW49682   4.588   0.111   5.790  0.0811  0.2939  0.1897
12241WAT      O49683   0.688   6.758   0.238 -0.3526  0.1595  0.0962
12241WAT     H149684   0.735   6.775   0.167 -0.5580 -0.6317 -0.2407
12241WAT     H249685   0.615   6.805   0.226  0.4470  1.6351  0.7684
12241WAT    EPW49686   0.684   6.767   0.226 -0.2648  0.2606  0.1458
12242WAT      O49687   3.127   6.631   2.781  0.0492  0.0088 -0.0076
12242WAT     H149688   3.142   6.655   2.699 -0.0672  1.6932  0.4350
12242WAT     H249689   3.157   6.698   2.828 -1.2561 -0.2456  1.2580
12242WAT    EPW49690   3.133   6.644   2.776 -0.1608  0.2200  0.2448
12243WAT      O49691   5.046   1.177   2.287  0.1901 -0.0259  0.4930
12243WAT     H149692   4.984   1.116   2.277  0.6343 -0.5490  0.8870
12243WAT     H249693   5.004   1.252   2.272 -0.4657 -0.3969  0.4489
12243WAT    EPW49694   5.031   1.179   2.283  0.1588 -0.1580  0.5447
12244WAT      O49695   4.038   6.199   7.434 -0.0455  0.2652 -0.1874
12244WAT     H149696   3.992   6.174   7.504 -0.4235  0.5983 -0.3082
12244WAT     H249697   4.046   6.286   7.445  0.9263  0.1532  0.0438
12244WAT    EPW49698   4.032   6.208   7.446  0.0422  0.2979 -0.1711
12245WAT      O49699   0.464   1.803   5.129 -0.2906  0.3629  0.3712
12245WAT     H149700   0.497   1.743   5.074  1.8967  1.1254  0.7306
12245WAT     H249701   0.443   1.869   5.076 -0.6560  0.1102  0.1953
12245WAT    EPW49702   0.466   1.804   5.113 -0.0214  0.4382  0.3983
12246WAT      O49703   2.301   3.345   5.853  0.2757  0.2452 -0.1571
12246WAT     H149704   2.248   3.407   5.884 -0.3253  0.4609 -1.5472
12246WAT     H249705   2.297   3.356   5.767  1.9809 -0.2590 -0.3287
12246WAT    EPW49706   2.293   3.356   5.845  0.4388  0.2026 -0.3878
12247WAT      O49707   1.296   5.074   3.339 -0.3947 -0.7441 -0.3177
12247WAT     H149708   1.342   5.002   3.358 -0.0545 -0.2685  0.7154
12247WAT     H249709   1.324   5.132   3.397 -2.4686 -0.4964  0.5156
12247WAT    EPW49710   1.307   5.072   3.350 -0.6508 -0.6372 -0.0420
12248WAT      O49711   1.088   6.137   6.870 -0.2332  0.1944 -0.0163
12248WAT     H149712   1.070   6.210   6.827  0.7474  1.4585  1.5805
12248WAT     H249713   1.010   6.102   6.885 -0.7392  1.0537 -0.5768
12248WAT    EPW49714   1.074   6.142   6.866 -0.1631  0.5081  0.1368
12249WAT      O49715   0.470   0.153   7.353  0.1872 -0.3088  0.4166
12249WAT     H149716   0.404   0.099   7.372  0.5315  0.0447  3.0099
12249WAT     H249717   0.517   0.154   7.426  3.4721 -0.9889 -1.4770
12249WAT    EPW49718   0.467   0.145   7.366  0.7233 -0.3570  0.5200
12250WAT      O49719   2.196   2.641   3.125 -0.4469 -0.2007  0.5760
12250WAT     H149720   2.137   2.612   3.067  0.8309  0.8439 -1.3728
12250WAT     H249721   2.171   2.723   3.140  0.0009 -0.0280  0.4018
12250WAT    EPW49722   2.184   2.649   3.119 -0.1920 -0.0209  0.2624
12251WAT      O49723   2.254   7.638   4.988 -0.4825  0.2118 -0.0301
12251WAT     H149724   2.290   7.584   4.929  1.6987  0.6260  0.8249
12251WAT     H249725   2.207   7.584   5.039 -0.8178 -0.4136 -0.9655
12251WAT    EPW49726   2.252   7.622   4.987 -0.2098  0.1806 -0.0420
12252WAT      O49727   0.402   4.585   4.398 -0.6521  0.9099 -0.6013
12252WAT     H149728   0.411   4.540   4.324 -2.4959 -0.2180 -0.1984
12252WAT     H249729   0.416   4.525   4.460  1.2966  1.9317  0.0253
12252WAT    EPW49730   0.406   4.570   4.397 -0.6366  0.8942 -0.4492
12253WAT      O49731   2.249   4.420   4.820  0.2127  0.2645  0.0043
12253WAT     H149732   2.333   4.398   4.831  0.4697  1.0296 -0.3533
12253WAT     H249733   2.206   4.367   4.875  0.7977 -1.1300 -0.8019
12253WAT    EPW49734   2.255   4.409   4.829  0.3371  0.1715 -0.1676
12254WAT      O49735   3.205   1.636   7.538 -0.0062  0.2279  0.2390
12254WAT     H149736   3.273   1.626   7.484 -0.3802  1.4313 -0.5074
12254WAT     H249737   3.152   1.570   7.516 -0.5008  1.1312 -1.4664
12254WAT    EPW49738   3.207   1.625   7.526 -0.1345  0.5391 -0.1232
12255WAT      O49739   4.423   3.185   7.196  0.2171 -0.0005 -0.2262
12255WAT     H149740   4.339   3.164   7.207  0.3887 -0.8567 -0.4648
12255WAT     H249741   4.445   3.143   7.122  0.5968  0.9954 -0.6931
12255WAT    EPW49742   4.414   3.176   7.186  0.2985  0.0201 -0.3304
12256WAT      O49743   7.492   0.537   7.249 -0.2481  0.2693 -0.4255
12256WAT     H149744   7.575   0.556   7.265 -0.0166 -0.2898 -0.9256
12256WAT     H249745   7.466   0.495   7.321 -0.1218  0.5047 -0.2417
12256WAT    EPW49746   7.500   0.534   7.262 -0.1952  0.2215 -0.4722
12257WAT      O49747   4.749   0.840   6.627  0.4024  0.3199 -0.1894
12257WAT     H149748   4.695   0.836   6.695  0.7319  1.9910  0.2157
12257WAT     H249749   4.826   0.859   6.663  1.1898 -1.4856 -0.8113
12257WAT    EPW49750   4.752   0.842   6.642  0.5674  0.3000 -0.2214
12258WAT      O49751   6.925   1.701   4.530 -0.1191  0.0591  0.0747
12258WAT     H149752   6.966   1.697   4.453  1.0160  0.6023  0.6325
12258WAT     H249753   6.859   1.645   4.520  1.0948 -1.3125 -0.6615
12258WAT    EPW49754   6.921   1.692   4.517  0.2279 -0.0633  0.0483
12259WAT      O49755   3.278   0.060   1.620  0.4682 -0.3552  0.3115
12259WAT     H149756   3.233   0.105   1.560  1.4704  2.3952  1.4268
12259WAT     H249757   3.352   0.039   1.579 -0.0292 -1.0545 -0.2438
12259WAT    EPW49758   3.282   0.064   1.605  0.5428 -0.0522  0.3942
12260WAT      O49759   7.156   1.872   5.163 -0.0912 -0.0204 -0.4729
12260WAT     H149760   7.169   1.880   5.077 -0.2644 -2.7513 -0.8510
12260WAT     H249761   7.114   1.945   5.185 -0.9968  0.2736 -2.9330
12260WAT    EPW49762   7.152   1.884   5.154 -0.2506 -0.3804 -0.8921
12261WAT      O49763   2.420   7.232   0.367  0.3100  0.3841 -0.2757
12261WAT     H149764   2.472   7.173   0.404 -1.4665 -0.8938  0.3145
12261WAT     H249765   2.419   7.207   0.283 -1.9947 -1.8105  0.2751
12261WAT    EPW49766   2.428   7.219   0.360 -0.2929 -0.1289 -0.1072
12262WAT      O49767   1.996   6.207   3.814  0.2550  0.5217 -0.7094
12262WAT     H149768   1.938   6.145   3.794  1.2744 -0.5165 -0.5787
12262WAT     H249769   2.047   6.168   3.874  0.6876  1.6192 -0.3442
12262WAT    EPW49770   1.995   6.192   3.820  0.4695  0.5304 -0.6362
12263WAT      O49771   6.019   1.180   2.024  0.1877 -0.3098 -0.2018
12263WAT     H149772   6.018   1.229   2.095 -0.6141  1.2123 -1.2140
12263WAT     H249773   6.060   1.229   1.965  1.6422 -1.8895 -0.5962
12263WAT    EPW49774   6.025   1.194   2.026  0.2841 -0.3183 -0.4096
12264WAT      O49775   5.766   0.194   3.988  0.7172 -0.1218  0.5313
12264WAT     H149776   5.727   0.141   3.931  0.9901  0.3038 -0.0621
12264WAT     H249777   5.771   0.147   4.061  0.5549 -0.7497  0.1358
12264WAT    EPW49778   5.761   0.180   3.990  0.7335 -0.1517  0.3853
12265WAT      O49779   3.143   0.099   7.132 -0.3254 -0.0800  0.6712
12265WAT     H149780   3.097   0.092   7.058 -0.5855  1.4853  0.6613
12265WAT     H249781   3.221   0.127   7.106  0.4138 -1.8534  0.7887
12265WAT    EPW49782   3.147   0.102   7.117 -0.2546 -0.1107  0.6871
12266WAT      O49783   5.875   4.670   7.352 -0.0820  0.5085  0.7668
12266WAT     H149784   5.860   4.586   7.372  0.2106  0.9237  2.9982
12266WAT     H249785   5.798   4.708   7.365 -0.4435  0.4874 -1.1061
12266WAT    EPW49786   5.861   4.663   7.357 -0.0921  0.5667  0.8197
12267WAT      O49787   5.535   6.538   5.309 -0.0713 -0.3731 -0.0164
12267WAT     H149788   5.515   6.556   5.392  0.5368 -0.9181  0.2592
12267WAT     H249789   5.544   6.451   5.309 -2.3745 -0.7025 -1.1724
12267WAT    EPW49790   5.533   6.528   5.321 -0.3217 -0.5023 -0.1464
12268WAT      O49791   1.997   0.955   4.959 -0.3363  0.1652  0.0468
12268WAT     H149792   1.937   0.939   4.897  0.4898 -1.8387 -0.2884
12268WAT     H249793   1.953   0.940   5.034 -0.7539  0.5803 -0.1045
12268WAT    EPW49794   1.981   0.950   4.961 -0.2760 -0.0695 -0.0251
12269WAT      O49795   1.886   5.580   0.188 -0.1384  0.1191  0.1767
12269WAT     H149796   1.883   5.647   0.244  1.4939  1.2142 -0.9346
12269WAT     H249797   1.968   5.583   0.159 -0.3667 -1.6992 -0.7481
12269WAT    EPW49798   1.898   5.590   0.192  0.0690  0.0122 -0.1241
12270WAT      O49799   6.303   2.650   4.080 -0.2923 -0.1332 -0.4945
12270WAT     H149800   6.280   2.726   4.118 -1.3021  0.4739 -2.1916
12270WAT     H249801   6.390   2.656   4.074  0.0046 -0.5207  2.1281
12270WAT    EPW49802   6.312   2.662   4.085 -0.3976 -0.1008 -0.3578
12271WAT      O49803   3.140   4.533   6.710 -0.4628 -0.5614 -0.4045
12271WAT     H149804   3.219   4.564   6.729 -1.6741  1.3392  2.1498
12271WAT     H249805   3.146   4.510   6.626  2.6463 -0.1603 -0.3911
12271WAT    EPW49806   3.152   4.534   6.700 -0.1825 -0.2214 -0.0252
12272WAT      O49807   2.720   7.691   7.538  0.2809 -0.4311  0.1277
12272WAT     H149808   2.734   7.627   7.481  0.5481  1.1374 -1.6554
12272WAT     H249809   2.644   7.669   7.576  0.7402 -2.1468  0.1258
12272WAT    EPW49810   2.711   7.678   7.535  0.3882 -0.4528 -0.1360
12273WAT      O49811   2.023   2.322   5.190 -0.4259 -0.0217 -0.1706
12273WAT     H149812   1.955   2.279   5.224  0.4124 -1.4694 -0.2543
12273WAT     H249813   2.078   2.330   5.257  0.2565 -0.8651 -0.6009
12273WAT    EPW49814   2.021   2.317   5.205 -0.2012 -0.3601 -0.2466
12274WAT      O49815   0.534   0.048   6.714 -0.1138  0.2756 -0.1353
12274WAT     H149816   0.464   0.064   6.764 -0.3683 -1.7201  0.2274
12274WAT     H249817   0.588   0.006   6.767 -0.2995 -1.7087 -1.4291
12274WAT    EPW49818   0.532   0.044   6.729 -0.1789 -0.3123 -0.2728
12275WAT      O49819   4.506   2.459   0.371 -0.4266 -0.7016  0.2550
12275WAT     H149820   4.482   2.378   0.347  3.3469 -2.2328  0.8913
12275WAT     H249821   4.525   2.451   0.456  0.3452  0.7417  0.2527
12275WAT    EPW49822   4.505   2.446   0.380  0.2448 -0.7146  0.3487
12276WAT      O49823   6.463   1.527   7.738  0.4600  0.3143 -0.3043
12276WAT     H149824   6.516   1.595   7.747 -2.8028  3.2031 -0.6165
12276WAT     H249825   6.478   1.499   7.657  1.8056  0.6636 -0.1949
12276WAT    EPW49826   6.473   1.533   7.727  0.1768  0.7926 -0.3343
12277WAT      O49827   4.343   2.724   6.764 -0.3233 -0.2383 -0.1403
12277WAT     H149828   4.374   2.658   6.717 -0.0373 -1.3462  1.5173
12277WAT     H249829   4.412   2.776   6.776  0.0157 -0.7993  0.4086
12277WAT    EPW49830   4.357   2.722   6.759 -0.2310 -0.4848  0.1856
12278WAT      O49831   2.580   5.290   0.968 -0.1515 -0.2608 -0.2142
12278WAT     H149832   2.511   5.308   1.017 -0.8415 -0.7471 -0.9717
12278WAT     H249833   2.602   5.367   0.933 -0.3377 -0.1104  0.0023
12278WAT    EPW49834   2.573   5.304   0.970 -0.2809 -0.3104 -0.2941
12279WAT      O49835   6.358   0.493   0.239  0.0260  0.4009  0.4959
12279WAT     H149836   6.320   0.571   0.246 -0.4796  0.1197  1.0317
12279WAT     H249837   6.328   0.450   0.309  0.4353 -0.2143  0.3000
12279WAT    EPW49838   6.348   0.498   0.250  0.0118  0.2684  0.5461
12280WAT      O49839   1.785   3.602   2.739 -0.2857 -0.1786  0.3365
12280WAT     H149840   1.745   3.565   2.671 -0.6055 -1.2991  1.0955
12280WAT     H249841   1.722   3.650   2.776 -0.1100  0.4351 -0.1448
12280WAT    EPW49842   1.770   3.603   2.735 -0.3070 -0.2534  0.3775
12281WAT      O49843   1.930   0.407   6.681 -0.2384 -0.4818 -0.0350
12281WAT     H149844   2.012   0.418   6.710  0.1658 -0.3992 -1.1636
12281WAT     H249845   1.895   0.352   6.739  0.4938 -0.2248  0.6738
12281WAT    EPW49846   1.937   0.401   6.694 -0.0705 -0.4316 -0.0970
12282WAT      O49847   1.761   1.662   2.872 -0.5151  0.2716  0.2867
12282WAT     H149848   1.699   1.677   2.812 -1.2892  0.7137  1.1772
12282WAT     H249849   1.803   1.738   2.877 -0.3388  0.1824  0.1969
12282WAT    EPW49850   1.758   1.676   2.864 -0.6034  0.3237  0.4050
12283WAT      O49851   3.941   1.517   3.515  0.7790 -0.2203  0.3965
12283WAT     H149852   3.955   1.519   3.429 -0.4982  0.7900  0.1781
12283WAT     H249853   3.869   1.566   3.525  0.4128 -1.0194  1.9430
12283WAT    EPW49854   3.932   1.525   3.504  0.5362 -0.1891  0.5927
12284WAT      O49855   7.204   0.307   4.840 -0.1915  0.4033  0.1849
12284WAT     H149856   7.197   0.298   4.753  0.3168  2.0567 -0.0650
12284WAT     H249857   7.124   0.289   4.869 -0.0028 -1.7402 -0.4207
12284WAT    EPW49858   7.191   0.303   4.831 -0.0885  0.3309  0.0585
12285WAT      O49859   0.936   2.971   4.118 -0.4435 -0.2874  0.4795
12285WAT     H149860   1.014   2.968   4.079  0.6786  3.5346  1.9989
12285WAT     H249861   0.954   2.954   4.202 -1.0288  1.3214  0.9705
12285WAT    EPW49862   0.950   2.968   4.125 -0.3642  0.5148  0.7765
12286WAT      O49863   3.970   7.207   6.836 -0.2448  0.2371 -0.1555
12286WAT     H149864   3.957   7.129   6.872 -0.4114  0.3510  0.0287
12286WAT     H249865   3.941   7.197   6.754  0.5736 -0.1583 -0.4050
12286WAT    EPW49866   3.964   7.194   6.829 -0.1485  0.1955 -0.1652
12287WAT      O49867   2.136   4.795   0.235 -0.1389 -0.5572 -0.4178
12287WAT     H149868   2.176   4.873   0.227  0.5898 -0.7223  1.1475
12287WAT     H249869   2.056   4.810   0.205  0.0697  0.7279 -0.4088
12287WAT    EPW49870   2.130   4.809   0.229 -0.0004 -0.3918 -0.1852
12288WAT      O49871   2.749   0.921   3.577  0.0079 -0.1916  0.2369
12288WAT     H149872   2.768   0.874   3.648 -0.3648 -2.4046 -1.0195
12288WAT     H249873   2.756   0.863   3.512  0.8521  1.8618 -1.6213
12288WAT    EPW49874   2.752   0.905   3.578  0.0775 -0.2152 -0.2232
12289WAT      O49875   2.160   2.687   4.962  0.0052 -0.1950 -0.3526
12289WAT     H149876   2.186   2.726   5.035  0.2658 -0.4520 -0.3041
12289WAT     H249877   2.099   2.631   4.989  0.5185 -0.7138 -0.2431
12289WAT    EPW49878   2.155   2.684   4.976  0.1195 -0.3096 -0.3292
12290WAT      O49879   4.083   5.566   0.244  0.4137  0.0334  0.0821
12290WAT     H149880   4.050   5.507   0.298  1.3985  0.4513  1.2046
12290WAT     H249881   4.167   5.572   0.269  0.1939  2.3695  0.4787
12290WAT    EPW49882   4.091   5.558   0.256  0.5267  0.4402  0.3065
12291WAT      O49883   6.040   4.781   7.133  0.1098  0.5612  0.1336
12291WAT     H149884   6.093   4.836   7.175 -0.5305  0.3905  1.1993
12291WAT     H249885   6.001   4.737   7.197 -0.0674 -0.5074 -0.6800
12291WAT    EPW49886   6.042   4.782   7.149 -0.0110  0.3782  0.1708
12292WAT      O49887   5.574   0.222   5.777 -0.1717  0.5743  0.1357
12292WAT     H149888   5.653   0.209   5.742 -1.1888 -0.8097 -1.8491
12292WAT     H249889   5.543   0.141   5.786 -1.5597  1.1202  0.4171
12292WAT    EPW49890   5.581   0.208   5.773 -0.5270  0.4505 -0.1159
12293WAT      O49891   6.688   7.002   3.526 -0.0564 -0.2758 -0.0058
12293WAT     H149892   6.619   7.049   3.502 -1.2009 -1.1483  1.4374
12293WAT     H249893   6.659   6.920   3.525  1.7161 -0.9595 -1.8502
12293WAT    EPW49894   6.674   6.997   3.523  0.0363 -0.5057 -0.0650
12294WAT      O49895   3.014   2.888   0.153 -0.5080  0.3901  0.2161
12294WAT     H149896   3.009   2.805   0.126 -1.3748  0.5345 -0.0909
12294WAT     H249897   2.958   2.930   0.101 -1.3602  0.8798  1.4935
12294WAT    EPW49898   3.005   2.882   0.141 -0.7619  0.4838  0.3595
12295WAT      O49899   0.612   6.272   3.764  0.4887  0.8731 -0.2186
12295WAT     H149900   0.697   6.272   3.748  0.5890 -1.6272 -0.0927
12295WAT     H249901   0.594   6.188   3.778 -1.8161  1.4528  0.7588
12295WAT    EPW49902   0.622   6.259   3.764  0.1630  0.5894 -0.0556
12296WAT      O49903   7.528   1.897   7.233  0.3421 -0.2662  0.7899
12296WAT     H149904   7.494   1.817   7.239  0.7263 -0.3689  1.7332
12296WAT     H249905   7.464   1.943   7.195 -0.0496 -0.9180  0.6326
12296WAT    EPW49906   7.513   1.892   7.228  0.3410 -0.3777  0.9060
12297WAT      O49907   7.295   0.097   6.520  0.2296  0.8398  0.3201
12297WAT     H149908   7.225   0.046   6.514 -0.1096  1.3103  0.2153
12297WAT     H249909   7.361   0.041   6.528  0.0880  0.2831 -1.7246
12297WAT    EPW49910   7.294   0.082   6.520  0.1586  0.8270  0.0026
12298WAT      O49911   4.075   5.726   0.624  0.1922  0.1191 -0.0383
12298WAT     H149912   3.993   5.751   0.612  0.3334  0.5405 -0.1416
12298WAT     H249913   4.074   5.641   0.602 -0.2480  0.0722  0.1405
12298WAT    EPW49914   4.063   5.717   0.619  0.1480  0.1744 -0.0271
12299WAT      O49915   3.110   1.738   3.031 -0.6420  0.4451  0.4055
12299WAT     H149916   3.170   1.714   3.090  0.0574  2.4558  0.6059
12299WAT     H249917   3.091   1.821   3.054 -1.3653  0.8210 -1.3872
12299WAT    EPW49918   3.116   1.747   3.043 -0.6455  0.7976  0.1703
12300WAT      O49919   2.594   2.915   6.669 -0.2490 -0.4490  0.3062
12300WAT     H149920   2.637   2.933   6.595  2.3723 -1.3168  1.4846
12300WAT     H249921   2.653   2.932   6.731 -2.2706  0.0166  2.2242
12300WAT    EPW49922   2.609   2.920   6.667 -0.1604 -0.5084  0.7636
12301WAT      O49923   0.620   1.660   4.410 -0.2183 -0.0586  0.6080
12301WAT     H149924   0.653   1.685   4.487  0.6182 -0.7408  0.4891
12301WAT     H249925   0.596   1.577   4.424  0.1838 -0.2743  0.0766
12301WAT    EPW49926   0.621   1.651   4.424 -0.0353 -0.1912  0.5120
12302WAT      O49927   2.563   0.094   7.327  0.9609 -0.1492 -0.6614
12302WAT     H149928   2.613   0.054   7.386  0.1624 -2.2377 -1.3337
12302WAT     H249929   2.494   0.122   7.373  1.0695 -0.4062 -0.3423
12302WAT    EPW49930   2.560   0.092   7.342  0.8590 -0.4957 -0.7136
12303WAT      O49931   5.992   7.036   6.191  0.1789 -0.1491 -0.9989
12303WAT     H149932   5.985   7.102   6.247 -1.3710 -0.3271 -0.9558
12303WAT     H249933   6.061   7.058   6.142  0.9071  0.5124  0.2741
12303WAT    EPW49934   6.001   7.049   6.192  0.0575 -0.0777 -0.8045
12304WAT      O49935   6.010   5.800   3.597 -0.1507  0.2776  0.7011
12304WAT     H149936   5.961   5.770   3.532 -0.0377  1.4500  0.0545
12304WAT     H249937   5.978   5.759   3.667 -1.6569  0.5541  0.2022
12304WAT    EPW49938   5.998   5.789   3.598 -0.3565  0.4917  0.5319
12305WAT      O49939   1.678   3.145   3.087  0.0037  0.4579 -0.6187
12305WAT     H149940   1.672   3.062   3.059 -0.8705  1.0737 -2.4136
12305WAT     H249941   1.692   3.190   3.015  1.7312  1.8157  0.4861
12305WAT    EPW49942   1.679   3.139   3.073  0.1297  0.7495 -0.7206
12306WAT      O49943   7.687   7.394   5.021 -0.2013  0.9713  0.4469
12306WAT     H149944   7.738   7.428   4.959  0.5313 -0.1330  0.4267
12306WAT     H249945   7.641   7.463   5.049  0.1828  1.6823 -0.6092
12306WAT    EPW49946   7.688   7.409   5.016 -0.0363  0.9132  0.2879
12307WAT      O49947   5.609   5.119   5.756  0.0314 -0.1539 -0.1383
12307WAT     H149948   5.559   5.184   5.785 -1.6788 -0.4964 -2.0940
12307WAT     H249949   5.628   5.073   5.828 -0.3375  1.3876  0.9983
12307WAT    EPW49950   5.605   5.122   5.771 -0.2757  0.0232 -0.2593
12308WAT      O49951   2.000   2.725   5.637 -0.2661 -0.4003 -0.4169
12308WAT     H149952   1.933   2.777   5.617  1.2691  1.8436 -0.1652
12308WAT     H249953   2.045   2.772   5.696  1.3066 -1.9610 -0.3026
12308WAT    EPW49954   1.997   2.740   5.643  0.1930 -0.2994 -0.3629
12309WAT      O49955   5.902   1.737   2.128  0.1420  0.2214  0.0351
12309WAT     H149956   5.897   1.816   2.164  1.3532 -0.3338  1.4813
12309WAT     H249957   5.971   1.742   2.076 -1.1902  0.8027 -1.7904
12309WAT    EPW49958   5.911   1.749   2.125  0.1241  0.2253 -0.0209
12310WAT      O49959   3.444   7.608   7.766  0.7226  0.1206  0.1252
12310WAT     H149960   3.439   7.685   7.806  0.5045  0.2324 -0.1141
12310WAT     H249961   3.390   7.557   7.812 -0.7261  0.6503 -0.9208
12310WAT    EPW49962   3.436   7.612   7.778  0.4764  0.2153 -0.0647
12311WAT      O49963   5.429   0.561   5.054 -0.0668  0.3097  0.0136
12311WAT     H149964   5.462   0.543   4.975 -0.7204 -0.9653  0.0017
12311WAT     H249965   5.408   0.645   5.048 -0.7787  0.0799 -1.4557
12311WAT    EPW49966   5.431   0.571   5.041 -0.2685  0.0874 -0.2052
12312WAT      O49967   5.284   3.719   7.194  0.3331 -0.5597 -0.0695
12312WAT     H149968   5.314   3.791   7.156 -0.6986  0.1261  0.3974
12312WAT     H249969   5.199   3.734   7.205  0.1542 -1.7109  0.3365
12312WAT    EPW49970   5.276   3.732   7.190  0.1543 -0.6285  0.0594
12313WAT      O49971   6.904   5.607   6.497 -0.0099 -0.3105 -0.4132
12313WAT     H149972   6.847   5.670   6.477  0.8457  0.2618 -1.1046
12313WAT     H249973   6.875   5.539   6.451 -1.4765 -0.7313  1.0458
12313WAT    EPW49974   6.892   5.606   6.487 -0.1002 -0.2881 -0.2998
12314WAT      O49975   0.764   0.601   6.271 -0.1762  0.6937 -0.0203
12314WAT     H149976   0.781   0.547   6.337  0.2560 -0.3755 -0.9639
12314WAT     H249977   0.695   0.564   6.232 -0.2019  1.1089 -0.3728
12314WAT    EPW49978   0.757   0.587   6.275 -0.1162  0.5971 -0.2117
12315WAT      O49979   0.528   1.507   6.888 -0.6943  0.6511  0.1069
12315WAT     H149980   0.571   1.547   6.823 -0.1174 -2.8512 -1.9173
12315WAT     H249981   0.591   1.482   6.942 -0.6461 -0.5184 -0.4749
12315WAT    EPW49982   0.544   1.509   6.886 -0.6020 -0.0390 -0.2781
12316WAT      O49983   2.175   5.126   6.092 -0.4404  0.2134  0.2760
12316WAT     H149984   2.244   5.075   6.081  0.2042  0.4366  2.5675
12316WAT     H249985   2.195   5.199   6.049  1.3221  0.6861  1.7706
12316WAT    EPW49986   2.188   5.129   6.084 -0.0848  0.3162  0.8353
12317WAT      O49987   3.282   6.667   4.858  0.2359  0.6113 -0.0534
12317WAT     H149988   3.355   6.622   4.873 -0.0708  0.5366  1.2795
12317WAT     H249989   3.222   6.628   4.908  0.2317  3.2103  2.1678
12317WAT    EPW49990   3.284   6.655   4.867  0.1900  0.9842  0.4716
12318WAT      O49991   7.670   6.493   5.077  0.1619  0.4479  0.2502
12318WAT     H149992   7.732   6.553   5.062 -0.9512  1.4093 -0.7556
12318WAT     H249993   7.610   6.509   5.016 -1.4927  0.1243  1.6786
12318WAT    EPW49994   7.670   6.504   5.066 -0.2470  0.5421  0.3126
12319WAT      O49995   1.950   3.574   6.245  0.1354  0.2644  0.2972
12319WAT     H149996   2.013   3.517   6.262 -1.6753 -1.5944  1.2729
12319WAT     H249997   1.950   3.581   6.158  0.7052 -0.8915  0.1956
12319WAT    EPW49998   1.959   3.567   6.235 -0.0479 -0.1809  0.4264
12320WAT      O49999   6.985   7.050   6.635  0.0303  0.3907 -0.1923
12320WAT     H150000   7.060   7.073   6.596 -0.9825  3.1737 -0.7773
12320WAT     H250001   6.934   7.026   6.568  0.4283 -1.8180  0.2337
12320WAT    EPW50002   6.989   7.050   6.619 -0.0605  0.4756 -0.2158
12321WAT      O50003   0.203   2.849   7.216  0.2191  0.2843  0.2166
12321WAT     H150004   0.136   2.893   7.180  0.7413  0.9551  0.0558
12321WAT     H250005   0.206   2.776   7.170  0.5453  0.9026 -0.7674
12321WAT    EPW50006   0.193   2.845   7.204  0.3444  0.4747  0.0475
12322WAT      O50007   6.914   0.239   4.633  0.0269 -0.2768  0.0902
12322WAT     H150008   6.998   0.228   4.611 -0.5349 -0.9994 -1.9625
12322WAT     H250009   6.894   0.317   4.598 -0.6109 -0.9571 -1.1295
12322WAT    EPW50010   6.923   0.249   4.624 -0.1503 -0.4840 -0.3932
12323WAT      O50011   5.500   3.791   5.797  0.5298  0.9053 -0.9501
12323WAT     H150012   5.566   3.820   5.747  1.3877 -0.6135 -0.7555
12323WAT     H250013   5.527   3.713   5.823 -1.0534  0.5589 -0.2403
12323WAT    EPW50014   5.514   3.784   5.793  0.4226  0.6297 -0.8165
12324WAT      O50015   4.996   3.145   5.237  0.0088  0.1691 -0.0355
12324WAT     H150016   5.022   3.061   5.243 -0.0029  0.2701  2.7496
12324WAT     H250017   4.925   3.140   5.187  0.7159 -1.2627 -1.0116
12324WAT    EPW50018   4.989   3.132   5.230  0.1115 -0.0275  0.2317
12325WAT      O50019   2.979   0.603   2.974 -0.3884 -0.1876  0.0231
12325WAT     H150020   2.956   0.669   3.027 -0.6392 -0.1244 -0.1617
12325WAT     H250021   2.937   0.534   3.007  0.6902 -0.4840  0.8376
12325WAT    EPW50022   2.970   0.603   2.987 -0.2661 -0.2220  0.1161
12326WAT      O50023   0.160   5.612   4.327  0.2662 -0.3784  0.1329
12326WAT     H150024   0.131   5.542   4.284 -0.4668 -1.0640  1.6546
12326WAT     H250025   0.087   5.659   4.341  0.6771  0.4621 -0.4236
12326WAT    EPW50026   0.145   5.609   4.323  0.2186 -0.3555  0.2755
12327WAT      O50027   2.164   0.851   4.560  0.0225  0.4245  0.3354
12327WAT     H150028   2.211   0.806   4.618  0.5163  1.0317  0.4112
12327WAT     H250029   2.223   0.898   4.517 -0.2536 -0.4876 -1.1155
12327WAT    EPW50030   2.180   0.851   4.562  0.0546  0.3795  0.1323
12328WAT      O50031   4.728   3.615   6.727 -0.1537 -0.1991 -0.0284
12328WAT     H150032   4.677   3.597   6.659  2.8415 -0.3887 -2.4688
12328WAT     H250033   4.707   3.697   6.747 -1.9260 -0.5266 -0.3657
12328WAT    EPW50034   4.718   3.624   6.720  0.0269 -0.2755 -0.4387
12329WAT      O50035   2.221   0.877   5.250  0.1086  0.6411  0.0153
12329WAT     H150036   2.224   0.842   5.170  2.5167 -0.7704  0.6051
12329WAT     H250037   2.246   0.960   5.237  2.7615 -0.1289 -0.5752
12329WAT    EPW50038   2.225   0.884   5.236  0.8562  0.3188  0.0152
12330WAT      O50039   6.905   4.728   7.263 -0.3139 -0.6185  0.0404
12330WAT     H150040   6.827   4.756   7.289  0.0599  1.8548 -1.2687
12330WAT     H250041   6.886   4.672   7.198 -0.9867 -0.7793  0.3616
12330WAT    EPW50042   6.891   4.724   7.257 -0.3581 -0.2769 -0.1055
12331WAT      O50043   5.927   2.304   4.663 -0.2908 -0.1019 -0.6353
12331WAT     H150044   5.853   2.336   4.629 -1.1948 -2.3843 -0.9864
12331WAT     H250045   5.908   2.295   4.748  0.1652  0.7502 -0.4274
12331WAT    EPW50046   5.913   2.308   4.671 -0.3570 -0.3132 -0.6565
12332WAT      O50047   7.723   1.026   6.409  0.2731 -0.3407  0.5461
12332WAT     H150048   7.730   1.026   6.322 -0.5837  1.2748  0.4348
12332WAT     H250049   7.690   0.948   6.428 -0.6579 -0.2737 -0.7004
12332WAT    EPW50050   7.719   1.015   6.399  0.0090 -0.0922  0.3455
12333WAT      O50051   5.044   1.462   4.644  0.2389 -0.1949 -0.0703
12333WAT     H150052   5.005   1.509   4.581 -0.1387  0.2843  0.5052
12333WAT     H250053   5.129   1.470   4.625  0.1508  0.2856 -0.2905
12333WAT    EPW50054   5.051   1.470   4.632  0.1701 -0.0531 -0.0178
12334WAT      O50055   0.666   5.280   7.752  0.4056  0.2370 -0.0113
12334WAT     H150056   0.682   5.280   7.667  0.4759  3.0213 -0.0722
12334WAT     H250057   0.580   5.289   7.757  0.1468 -1.8996  0.2842
12334WAT    EPW50058   0.656   5.281   7.740  0.3778  0.3327  0.0234
12335WAT      O50059   3.552   4.966   2.228  0.0183 -0.0683 -0.2822
12335WAT     H150060   3.513   5.001   2.298 -1.1230 -0.7452 -0.5546
12335WAT     H250061   3.502   4.897   2.210 -0.2234  0.5612 -2.2804
12335WAT    EPW50062   3.539   4.961   2.236 -0.1860 -0.0753 -0.6176
12336WAT      O50063   1.988   6.329   1.462 -0.4648 -0.1505 -0.6285
12336WAT     H150064   1.971   6.261   1.410 -2.8371 -0.3187  0.2192
12336WAT     H250065   1.913   6.373   1.462 -0.7083 -0.2826  2.7379
12336WAT    EPW50066   1.975   6.325   1.455 -0.8512 -0.1949 -0.0060
12337WAT      O50067   2.029   1.850   4.439 -0.5585  0.3236 -0.1335
12337WAT     H150068   2.073   1.827   4.367 -0.9741  0.7282 -0.5182
12337WAT     H250069   2.011   1.934   4.427 -1.2431  0.2230  0.1262
12337WAT    EPW50070   2.033   1.859   4.427 -0.7210  0.3685 -0.1519
12338WAT      O50071   1.130   0.036   0.046  0.5840 -0.1680  0.1389
12338WAT     H150072   1.200   0.035  -0.006  0.5547  0.4578  0.0829
12338WAT     H250073   1.101   0.118   0.039  1.1649  0.2307  1.9085
12338WAT    EPW50074   1.136   0.048   0.037  0.6655 -0.0166  0.3920
12339WAT      O50075   1.756   2.280   4.443  0.0146 -0.5043  0.0525
12339WAT     H150076   1.831   2.322   4.462 -0.3801 -0.2960  1.2782
12339WAT     H250077   1.741   2.301   4.360  0.9986 -0.0354 -0.0229
12339WAT    EPW50078   1.765   2.289   4.434  0.1017 -0.4043  0.2224
12340WAT      O50079   0.271   1.766   5.317  0.1800  0.0295 -0.2838
12340WAT     H150080   0.200   1.797   5.277  1.0846  1.4735 -0.8575
12340WAT     H250081   0.328   1.757   5.252  0.3186 -1.8762  0.0454
12340WAT    EPW50082   0.269   1.769   5.301  0.3341 -0.0387 -0.3199
12341WAT      O50083   3.521   1.804   3.057 -0.1901  0.0994  0.3150
12341WAT     H150084   3.487   1.875   3.019 -1.9651  0.0425  1.6765
12341WAT     H250085   3.600   1.797   3.020 -1.3044  0.7267 -2.4085
12341WAT    EPW50086   3.528   1.814   3.046 -0.6169  0.1837  0.1138
12342WAT      O50087   3.838   6.979   0.202  0.0345 -0.1082 -0.7562
12342WAT     H150088   3.909   6.940   0.235  0.6447  0.3575 -1.4666
12342WAT     H250089   3.801   6.917   0.154  0.1629 -0.2496 -0.6725
12342WAT    EPW50090   3.843   6.964   0.200  0.1436 -0.0603 -0.8488
12343WAT      O50091   1.815   1.007   3.901  0.0906  0.4032  0.0413
12343WAT     H150092   1.829   0.921   3.907 -0.2900  0.3180 -0.2471
12343WAT     H250093   1.770   1.025   3.973 -0.4297  0.2328 -0.2370
12343WAT    EPW50094   1.810   0.997   3.912 -0.0425  0.3655 -0.0424
12344WAT      O50095   3.075   2.977   6.373  1.0687  0.0269  0.3085
12344WAT     H150096   3.137   3.036   6.351 -0.6429  2.8602  2.4564
12344WAT     H250097   3.093   2.958   6.456  0.6009 -1.2533  0.1360
12344WAT    EPW50098   3.087   2.983   6.382  0.7467  0.2563  0.6003
12345WAT      O50099   7.636   6.842   5.808  0.2823  0.0640  0.2780
12345WAT     H150100   7.588   6.842   5.735  0.3467  1.4974  0.2065
12345WAT     H250101   7.578   6.819   5.870  0.4816 -2.3580 -0.3025
12345WAT    EPW50102   7.620   6.838   5.807  0.3212 -0.0821  0.1817
12346WAT      O50103   1.528   6.530   6.182 -0.4281  0.0091 -0.1178
12346WAT     H150104   1.523   6.446   6.157  2.3117  0.0737 -1.3166
12346WAT     H250105   1.584   6.528   6.249 -2.4466  0.6541  1.6807
12346WAT    EPW50106   1.536   6.517   6.188 -0.3215  0.1140 -0.0292
12347WAT      O50107   1.199   2.909   4.755 -0.3985 -0.2703  0.0778
12347WAT     H150108   1.210   2.929   4.840 -0.2603  0.4820 -0.1131
12347WAT     H250109   1.165   2.828   4.758 -1.9192  0.3483  0.9123
12347WAT    EPW50110   1.195   2.900   4.768 -0.6027 -0.0678  0.1729
12348WAT      O50111   5.223   6.117   4.255  0.3923  0.5333  0.3511
12348WAT     H150112   5.194   6.198   4.270 -0.4736  0.1564  0.7742
12348WAT     H250113   5.185   6.095   4.180 -0.7223 -0.0879  1.0774
12348WAT    EPW50114   5.213   6.126   4.247  0.0997  0.3858  0.5209
12349WAT      O50115   1.481   0.162   6.590  0.0179 -0.3304  0.4648
12349WAT     H150116   1.417   0.205   6.547  1.2002  0.5221 -0.5250
12349WAT     H250117   1.525   0.226   6.630  0.9588 -0.7690  0.1481
12349WAT    EPW50118   1.478   0.178   6.589  0.3315 -0.2693  0.2718
12350WAT      O50119   2.666   1.152   1.497  0.1196 -0.3837  0.0197
12350WAT     H150120   2.714   1.223   1.480  0.7613 -0.9465 -0.6016
12350WAT     H250121   2.628   1.134   1.421 -0.7538 -0.2031  0.3974
12350WAT    EPW50122   2.668   1.160   1.484  0.0854 -0.4401 -0.0163
12351WAT      O50123   7.489   7.291   4.427  0.3333 -0.5260 -0.6022
12351WAT     H150124   7.522   7.209   4.428  1.3490 -0.1490  1.1402
12351WAT     H250125   7.414   7.283   4.471  0.6857 -0.4575  0.0326
12351WAT    EPW50126   7.483   7.277   4.434  0.5354 -0.4602 -0.2511
12352WAT      O50127   0.338   0.478   4.411 -0.2066  0.3231  0.0826
12352WAT     H150128   0.254   0.498   4.413 -0.6472 -1.3448 -0.1324
12352WAT     H250129   0.378   0.555   4.423 -1.6306  1.7961 -3.4266
12352WAT    EPW50130   0.332   0.492   4.413 -0.4821  0.2943 -0.4676
12353WAT      O50131   3.548   7.659   0.664  0.2449 -0.0108  0.1186
12353WAT     H150132   3.486   7.599   0.647 -0.2143 -0.2212  2.3258
12353WAT     H250133   3.583   7.674   0.585 -0.6096 -2.0916 -0.7407
12353WAT    EPW50134   3.544   7.652   0.650  0.0508 -0.3493  0.3177
12354WAT      O50135   1.164   5.202   5.569 -0.1939  0.2759 -0.4497
12354WAT     H150136   1.175   5.228   5.652 -0.4521  0.1894 -0.3852
12354WAT     H250137   1.217   5.255   5.524 -0.9720  1.1565 -0.3641
12354WAT    EPW50138   1.173   5.214   5.575 -0.3470  0.3932 -0.4275
12355WAT      O50139   3.469   1.994   7.289 -0.0783 -0.0745 -0.3428
12355WAT     H150140   3.444   1.982   7.372  1.5424 -1.7736 -0.0313
12355WAT     H250141   3.436   2.073   7.269 -0.5458  0.3693  1.8846
12355WAT    EPW50142   3.460   2.004   7.298  0.0921 -0.2599  0.0323
12356WAT      O50143   3.483   3.839   1.600 -0.1565  0.4306  0.9797
12356WAT     H150144   3.547   3.816   1.655  0.4033  0.7142  0.4625
12356WAT     H250145   3.472   3.924   1.614  1.4075  0.9717 -0.7306
12356WAT    EPW50146   3.491   3.848   1.610  0.1572  0.5524  0.6507
12357WAT      O50147   3.178   1.494   1.627 -0.1452 -0.2147  0.5034
12357WAT     H150148   3.133   1.436   1.674  0.8665 -1.5112 -0.0666
12357WAT     H250149   3.234   1.528   1.684  0.2385 -0.8692  0.5214
12357WAT    EPW50150   3.179   1.491   1.642  0.0609 -0.5029  0.4219
12358WAT      O50151   0.536   1.639   5.745  0.0432  0.0446  0.2824
12358WAT     H150152   0.557   1.570   5.696  2.0156  0.9512 -0.2255
12358WAT     H250153   0.470   1.676   5.701 -0.1012 -0.7312 -0.1715
12358WAT    EPW50154   0.529   1.634   5.731  0.3132  0.0639  0.1404
12359WAT      O50155   7.508   2.429   3.737 -0.5566 -0.6895 -0.1076
12359WAT     H150156   7.450   2.394   3.682 -2.7051  0.7738  1.1200
12359WAT     H250157   7.510   2.371   3.803 -0.1362 -1.0310 -0.4116
12359WAT    EPW50158   7.500   2.415   3.739 -0.8118 -0.5238  0.0288
12360WAT      O50159   0.344   0.120   6.894 -0.7425 -0.5933  0.4318
12360WAT     H150160   0.369   0.194   6.855 -1.1793 -0.8515 -0.3564
12360WAT     H250161   0.389   0.120   6.969 -1.0774  0.6856  0.6414
12360WAT    EPW50162   0.355   0.131   6.899 -0.8565 -0.4425  0.3463
12361WAT      O50163   1.988   6.038   4.233  0.0145 -0.0807 -0.1080
12361WAT     H150164   2.002   5.952   4.241 -0.5989 -0.1496  0.2706
12361WAT     H250165   2.055   6.065   4.183  0.1465 -0.7965 -0.3289
12361WAT    EPW50166   2.000   6.029   4.227 -0.0566 -0.1966 -0.0847
12362WAT      O50167   2.575   4.768   7.275  0.2928 -0.3617 -0.0594
12362WAT     H150168   2.569   4.686   7.246 -0.4210 -0.1969 -0.3920
12362WAT     H250169   2.517   4.811   7.226  0.2681  0.2359  0.4888
12362WAT    EPW50170   2.566   4.762   7.263  0.1837 -0.2491 -0.0275
12363WAT      O50171   0.949   1.292   5.597 -0.5439  0.3467  0.0054
12363WAT     H150172   0.937   1.206   5.610  0.7396  0.1651  0.0373
12363WAT     H250173   0.956   1.324   5.678  0.1668  0.3034 -0.0392
12363WAT    EPW50174   0.948   1.284   5.611 -0.2493  0.3135  0.0036
12364WAT      O50175   0.729   3.319   4.878  0.0788  0.8797 -0.0039
12364WAT     H150176   0.756   3.397   4.849  1.5299  1.1836  1.9422
12364WAT     H250177   0.798   3.267   4.864 -0.5321  0.1500 -0.4091
12364WAT    EPW50178   0.743   3.323   4.872  0.2029  0.8168  0.2238
12365WAT      O50179   2.880   1.640   1.005  0.1170  0.1598  0.3256
12365WAT     H150180   2.805   1.629   1.049 -0.5693  3.3174  0.1959
12365WAT     H250181   2.929   1.688   1.059  1.1028  0.1423 -0.5246
12365WAT    EPW50182   2.876   1.646   1.019  0.1612  0.6236  0.1809
12366WAT      O50183   0.463   4.997   6.371 -0.5682  0.0870 -0.5088
12366WAT     H150184   0.550   5.004   6.364 -0.3597 -0.8352  0.8304
12366WAT     H250185   0.436   5.080   6.367  0.2530  0.3198 -2.0062
12366WAT    EPW50186   0.472   5.011   6.369 -0.4161 -0.0148 -0.5321
12367WAT      O50187   1.726   0.146   7.430  0.6657  0.4589 -0.2579
12367WAT     H150188   1.671   0.212   7.412  1.7647  1.0117 -1.9141
12367WAT     H250189   1.800   0.187   7.452  0.6668 -0.2652  1.1764
12367WAT    EPW50190   1.729   0.162   7.430  0.8282  0.4336 -0.2907
12368WAT      O50191   6.819   4.676   3.953  0.3924 -0.1737 -0.4809
12368WAT     H150192   6.888   4.696   3.903  0.9342  0.6307  0.5360
12368WAT     H250193   6.839   4.597   3.985  0.8167  0.0185 -0.2618
12368WAT    EPW50194   6.832   4.667   3.951  0.5351 -0.0265 -0.2983
12369WAT      O50195   1.506   3.554   4.516  0.0060  0.6255 -0.4827
12369WAT     H150196   1.537   3.625   4.475 -1.3915  1.2185 -0.5781
12369WAT     H250197   1.434   3.534   4.471 -1.8674  1.5812  1.8413
12369WAT    EPW50198   1.500   3.562   4.504 -0.4772  0.8543 -0.1535
12370WAT      O50199   5.570   2.547   5.975  0.4372 -0.8945  0.0124
12370WAT     H150200   5.608   2.602   5.920 -1.1212 -1.0000 -1.2435
12370WAT     H250201   5.511   2.596   6.017  0.0273 -1.2890 -0.0844
12370WAT    EPW50202   5.567   2.562   5.973  0.1465 -0.9683 -0.1874
12371WAT      O50203   3.781   1.912   0.599  0.7953  0.1135 -0.0420
12371WAT     H150204   3.746   1.880   0.526 -2.7204  0.0855  1.4685
12371WAT     H250205   3.746   1.863   0.662  2.0013  1.5097  1.8400
12371WAT    EPW50206   3.771   1.900   0.598  0.4541  0.3156  0.4591
12372WAT      O50207   1.659   2.502   4.928  0.6663  0.3817  0.1790
12372WAT     H150208   1.633   2.427   4.892 -1.9387  1.6023 -0.7254
12372WAT     H250209   1.671   2.555   4.859 -0.0137  1.4942  0.8883
12372WAT    EPW50210   1.657   2.499   4.913  0.1811  0.7263  0.1502
12373WAT      O50211   7.016   7.665   6.922  0.2491 -0.7208  0.1447
12373WAT     H150212   7.098   7.637   6.929  0.2115 -1.2268 -1.2652
12373WAT     H250213   6.969   7.591   6.920 -0.3016 -0.4401  1.2347
12373WAT    EPW50214   7.021   7.650   6.923  0.1622 -0.7541  0.0974
12374WAT      O50215   6.571   0.091   4.850  0.4137 -0.1775 -0.3268
12374WAT     H150216   6.504   0.086   4.906 -0.4235 -0.0979 -1.2802
12374WAT     H250217   6.640   0.069   4.898 -0.0965  1.0515  1.0315
12374WAT    EPW50218   6.571   0.087   4.865  0.2146  0.0158 -0.2669
12375WAT      O50219   2.283   3.437   6.636 -0.0460 -0.3918 -0.1881
12375WAT     H150220   2.360   3.477   6.627 -0.3555  0.4546  0.7642
12375WAT     H250221   2.297   3.357   6.604  1.3514 -0.3843  0.3558
12375WAT    EPW50222   2.296   3.431   6.630  0.1147 -0.2657  0.0329
12376WAT      O50223   4.014   0.929   4.147 -0.2471  0.5266  0.4871
12376WAT     H150224   4.008   0.937   4.060  1.2989  1.1923  0.4036
12376WAT     H250225   3.934   0.945   4.175 -0.8496 -0.0162 -0.8426
12376WAT    EPW50226   4.002   0.932   4.138 -0.1077  0.5448  0.2784
12377WAT      O50227   2.766   7.470   7.342  0.1124  0.4153 -0.1062
12377WAT     H150228   2.700   7.424   7.309  1.1553 -0.1562 -1.4763
12377WAT     H250229   2.798   7.512   7.273  1.5231  0.2390  0.4101
12377WAT    EPW50230   2.761   7.469   7.327  0.4748  0.3048 -0.2323
12378WAT      O50231   0.687   3.087   7.340  0.1175  0.4049  0.2988
12378WAT     H150232   0.742   3.043   7.392  0.0730 -2.3294 -1.7519
12378WAT     H250233   0.609   3.069   7.374  0.1722 -0.2498  0.0920
12378WAT    EPW50234   0.684   3.078   7.353  0.1190 -0.0957 -0.0347
12379WAT      O50235   3.157   3.066   0.514  0.2251 -0.3162  0.3298
12379WAT     H150236   3.174   3.077   0.429 -1.0605  0.0262  0.0919
12379WAT     H250237   3.077   3.031   0.514  0.0780 -0.0020  1.4063
12379WAT    EPW50238   3.148   3.063   0.501  0.0135 -0.2192  0.4537
12380WAT      O50239   6.323   7.013   6.327  0.0261 -0.1513  0.2487
12380WAT     H150240   6.248   6.973   6.347 -0.7467  1.3214  0.4177
12380WAT     H250241   6.303   7.061   6.257  0.6989  0.5574  0.5199
12380WAT    EPW50242   6.309   7.014   6.320  0.0113  0.1709  0.3137
12381WAT      O50243   5.463   6.043   4.147 -0.2749  0.3232 -0.3577
12381WAT     H150244   5.406   6.073   4.206  0.1916  1.0064 -0.2487
12381WAT     H250245   5.443   6.087   4.075 -1.4844 -1.1966 -1.0234
12381WAT    EPW50246   5.452   6.054   4.145 -0.3847  0.1996 -0.4399
12382WAT      O50247   0.670   0.696   4.838  0.3639  0.3097 -0.4829
12382WAT     H150248   0.732   0.651   4.881 -0.9743 -1.0630  0.1025
12382WAT     H250249   0.696   0.779   4.847  1.1295 -0.0624  1.4029
12382WAT    EPW50250   0.683   0.702   4.846  0.2793  0.0520 -0.1178
12383WAT      O50251   1.974   2.936   7.742 -0.6328  0.5161  0.7272
12383WAT     H150252   1.907   2.885   7.718 -0.8804  0.6594  1.0968
12383WAT     H250253   2.000   2.899   7.817 -0.4793  0.6268  0.7272
12383WAT    EPW50254   1.968   2.923   7.750 -0.6467  0.5536  0.7818
12384WAT      O50255   5.548   0.440   3.641  0.6131  0.0964 -0.2352
12384WAT     H150256   5.494   0.467   3.704  1.7197  0.7935  0.4462
12384WAT     H250257   5.623   0.425   3.683  0.7042 -1.8613 -0.9741
12384WAT    EPW50258   5.551   0.442   3.656  0.7900 -0.0898 -0.2437
12385WAT      O50259   3.792   0.597   2.364 -0.5952 -0.3079  0.4255
12385WAT     H150260   3.723   0.545   2.376 -1.5413  0.6860 -0.4712
12385WAT     H250261   3.815   0.621   2.445 -0.7948 -1.2574  0.7779
12385WAT    EPW50262   3.785   0.593   2.378 -0.7645 -0.3013  0.3451
12386WAT      O50263   5.244   0.037   6.605  0.4646  0.2876 -0.2621
12386WAT     H150264   5.173   0.012   6.650  0.5818 -2.8848 -1.6129
12386WAT     H250265   5.218   0.032   6.522  1.9418  0.1991 -0.7396
12386WAT    EPW50266   5.230   0.033   6.600  0.7002 -0.1941 -0.5322
12387WAT      O50267   1.280   6.618   7.647 -0.6334  0.3366 -0.0499
12387WAT     H150268   1.209   6.567   7.644 -0.1065 -0.4032 -0.3060
12387WAT     H250269   1.289   6.644   7.564 -2.1325  2.6509  0.3999
12387WAT    EPW50270   1.271   6.614   7.634 -0.7770  0.5692 -0.0213
12388WAT      O50271   4.566   1.820   5.579 -0.2341 -0.3424 -0.3150
12388WAT     H150272   4.495   1.869   5.588 -1.8888 -2.6399 -0.0307
12388WAT     H250273   4.600   1.848   5.503  0.1085  2.5490  0.7896
12388WAT    EPW50274   4.561   1.831   5.569 -0.4279 -0.2547 -0.1098
12389WAT      O50275   6.458   7.321   3.591  0.3404  0.0830 -0.4179
12389WAT     H150276   6.399   7.376   3.557  0.1654  2.2982  3.0098
12389WAT     H250277   6.534   7.353   3.563  0.1315  0.2513 -0.8050
12389WAT    EPW50278   6.460   7.334   3.582  0.2837  0.4351  0.0313
12390WAT      O50279   2.517   6.423   3.046  0.0331 -0.9278 -0.4276
12390WAT     H150280   2.577   6.370   3.082 -0.2439  0.0008  1.5532
12390WAT     H250281   2.559   6.499   3.039 -0.2537 -0.8318 -1.1511
12390WAT    EPW50282   2.532   6.427   3.050 -0.0502 -0.7764 -0.2419
12391WAT      O50283   2.159   3.212   2.306 -0.0308 -0.3706 -0.1577
12391WAT     H150284   2.204   3.230   2.234  0.1936 -4.5840 -1.3843
12391WAT     H250285   2.215   3.165   2.354 -0.8981  0.4527  1.7843
12391WAT    EPW50286   2.174   3.207   2.303 -0.1258 -0.8714 -0.0520
12392WAT      O50287   1.663   3.496   5.013 -0.0354  0.0261 -0.2744
12392WAT     H150288   1.607   3.465   4.954 -0.1992 -1.1818  0.4962
12392WAT     H250289   1.716   3.547   4.965 -0.8882  0.0291 -1.2508
12392WAT    EPW50290   1.663   3.499   4.997 -0.1856 -0.1519 -0.3048
12393WAT      O50291   3.590   0.049   7.136 -0.2136  0.0825  0.1010
12393WAT     H150292   3.674   0.036   7.117  0.1413  1.2824  0.7223
12393WAT     H250293   3.548   0.014   7.069  0.8718  1.6088 -1.4625
12393WAT    EPW50294   3.596   0.042   7.124 -0.0009  0.4852 -0.0382
12394WAT      O50295   1.617   0.901   6.051 -0.1604  0.6063  0.8737
12394WAT     H150296   1.552   0.914   5.994  1.0763  0.4990 -0.6216
12394WAT     H250297   1.581   0.849   6.111 -0.5734 -2.5395 -1.8189
12394WAT    EPW50298   1.602   0.895   6.052 -0.0387  0.1258  0.2551
12395WAT      O50299   4.833   5.545   3.704 -0.0282 -0.1577 -0.3438
12395WAT     H150300   4.828   5.543   3.617 -2.1967  0.1900 -0.2929
12395WAT     H250301   4.880   5.475   3.724 -0.2290 -0.7336 -1.7826
12395WAT    EPW50302   4.839   5.534   3.694 -0.3782 -0.1914 -0.5489
12396WAT      O50303   7.728   2.000   4.192  0.2022 -0.0008 -0.5312
12396WAT     H150304   7.754   2.041   4.120 -0.6745 -0.1706 -0.9669
12396WAT     H250305   7.688   2.063   4.238  0.6222  0.0726 -0.2648
12396WAT    EPW50306   7.726   2.015   4.188  0.1347 -0.0150 -0.5562
12397WAT      O50307   2.618   7.496   0.011  0.0710  0.0670 -0.0478
12397WAT     H150308   2.604   7.453   0.086 -0.3161 -0.8352 -0.6177
12397WAT     H250309   2.621   7.432  -0.048 -0.3709  0.8220 -0.9085
12397WAT    EPW50310   2.616   7.480   0.013 -0.0515  0.0452 -0.2591
12398WAT      O50311   3.072   5.980   5.088 -0.1906 -0.0595  0.2135
12398WAT     H150312   3.082   6.066   5.100  1.5352 -0.0207 -1.0791
12398WAT     H250313   3.079   5.971   5.001  0.4698 -1.5684  0.4028
12398WAT    EPW50314   3.074   5.992   5.077  0.1619 -0.2767  0.0505
12399WAT      O50315   3.968   4.721   2.060  0.8117 -0.1206 -0.0455
12399WAT     H150316   4.042   4.679   2.039 -0.4579 -1.8142 -1.3948
12399WAT     H250317   3.906   4.674   2.021 -0.8709  2.1732 -0.3045
12399WAT    EPW50318   3.970   4.708   2.051  0.3756 -0.0319 -0.2831
12400WAT      O50319   3.057   4.662   1.848  0.0986 -0.0088  0.8830
12400WAT     H150320   2.987   4.712   1.835  1.2564  1.3058 -0.7151
12400WAT     H250321   3.105   4.707   1.905  1.5538  1.2762 -1.2143
12400WAT    EPW50322   3.054   4.676   1.854  0.4846  0.3753  0.3371
12401WAT      O50323   2.692   5.757   1.696 -0.4789 -0.4759 -0.1368
12401WAT     H150324   2.641   5.818   1.732  1.0727  0.3918  0.7222
12401WAT     H250325   2.770   5.797   1.689  0.2458 -1.9215 -0.8267
12401WAT    EPW50326   2.696   5.772   1.700 -0.1426 -0.5613 -0.1118
12402WAT      O50327   5.257   3.510   3.438  0.1353  0.1636  0.1198
12402WAT     H150328   5.275   3.509   3.523 -0.4834 -1.1163  0.2532
12402WAT     H250329   5.335   3.519   3.400  0.3873  1.0647  0.8121
12402WAT    EPW50330   5.271   3.511   3.445  0.0811  0.1076  0.2418
12403WAT      O50331   2.467   5.887   1.817  0.2517  0.0511  0.1470
12403WAT     H150332   2.389   5.910   1.785 -0.0014  0.6982  1.1638
12403WAT     H250333   2.452   5.808   1.852  0.2079 -0.0867 -0.1789
12403WAT    EPW50334   2.453   5.878   1.817  0.2078  0.1263  0.2491
12404WAT      O50335   7.592   5.196   5.475 -0.0029 -0.4265 -0.2017
12404WAT     H150336   7.530   5.224   5.420 -0.1062  0.7878  0.4937
12404WAT     H250337   7.550   5.186   5.550  0.3314 -1.1450 -0.1061
12404WAT    EPW50338   7.577   5.199   5.478  0.0312 -0.3533 -0.0849
12405WAT      O50339   4.267   7.579   1.860 -0.6008  0.0976 -0.2076
12405WAT     H150340   4.288   7.516   1.917 -1.6026 -2.0192 -1.9923
12405WAT     H250341   4.343   7.618   1.843 -0.0879 -0.0267  1.5834
12405WAT    EPW50342   4.281   7.575   1.866 -0.6730 -0.2335 -0.2067
12406WAT      O50343   4.166   0.361   7.316  0.5442  0.3120  0.0470
12406WAT     H150344   4.123   0.287   7.330  0.7178  0.1676 -0.1777
12406WAT     H250345   4.246   0.335   7.295  0.7050  0.5763  0.3330
12406WAT    EPW50346   4.171   0.346   7.315  0.5936  0.3297  0.0561
12407WAT      O50347   3.166   1.773   4.547  0.3902 -0.0341  0.2294
12407WAT     H150348   3.100   1.756   4.602  0.6507 -3.2735 -0.2773
12407WAT     H250349   3.236   1.771   4.599  0.6482 -3.1987 -0.0263
12407WAT    EPW50350   3.166   1.770   4.563  0.4668 -0.9801  0.1168
12408WAT      O50351   4.249   3.606   0.649 -1.1099 -0.2924  0.2990
12408WAT     H150352   4.169   3.588   0.621  0.0070 -0.7468 -3.0090
12408WAT     H250353   4.242   3.687   0.680 -2.3392  0.8005 -2.5477
12408WAT    EPW50354   4.236   3.615   0.649 -1.1265 -0.1981 -0.6102
12409WAT      O50355   5.947   0.077   0.965  0.1977 -0.7915  0.1246
12409WAT     H150356   5.998   0.080   1.036  1.1731  0.7627 -0.5778
12409WAT     H250357   6.004   0.088   0.900 -1.0969  2.5520 -0.6492
12409WAT    EPW50358   5.963   0.079   0.966  0.1505 -0.0680 -0.0934
12410WAT      O50359   4.836   6.687   1.882  0.0002 -0.2458  0.1035
12410WAT     H150360   4.913   6.666   1.847 -0.3666 -0.0294 -0.8611
12410WAT     H250361   4.816   6.763   1.843  0.2826  0.8150  1.9005
12410WAT    EPW50362   4.845   6.695   1.871 -0.0123 -0.0571  0.2265
12411WAT      O50363   5.842   6.152   5.579 -0.2860  0.9672 -0.0696
12411WAT     H150364   5.904   6.091   5.583 -1.2572 -0.0068  1.2680
12411WAT     H250365   5.811   6.155   5.661  0.1650  3.7704  0.1044
12411WAT    EPW50366   5.847   6.143   5.592 -0.3628  1.2374  0.1537
12412WAT      O50367   4.150   1.622   3.250 -0.2154 -0.5986  0.5415
12412WAT     H150368   4.087   1.624   3.190  0.5460 -0.2873 -0.2827
12412WAT     H250369   4.179   1.704   3.252  0.2326 -0.7568  0.8304
12412WAT    EPW50370   4.145   1.635   3.241 -0.0367 -0.5760  0.4624
12413WAT      O50371   1.034   6.382   0.586 -0.3603 -0.1742  0.1972
12413WAT     H150372   0.948   6.369   0.574 -0.5621  1.7400 -0.7665
12413WAT     H250373   1.047   6.463   0.557  1.4167  0.3809  2.2848
12413WAT    EPW50374   1.023   6.392   0.580 -0.1276  0.1906  0.3632
12414WAT      O50375   1.755   0.741   4.418  0.1824 -0.1191  0.3945
12414WAT     H150376   1.775   0.689   4.351 -1.0523  0.8715 -0.8064
12414WAT     H250377   1.781   0.696   4.488 -0.4595 -2.1568 -0.6076
12414WAT    EPW50378   1.762   0.727   4.419 -0.0948 -0.2738  0.0691
12415WAT      O50379   7.005   6.681   7.544 -0.0441 -0.2656 -0.9246
12415WAT     H150380   7.073   6.670   7.491 -0.5348 -0.4463 -1.5332
12415WAT     H250381   6.969   6.602   7.548  0.4348 -0.4393  0.3195
12415WAT    EPW50382   7.010   6.668   7.536 -0.0458 -0.3180 -0.8307
12416WAT      O50383   0.763   0.617   0.127  0.2872  0.2162 -0.4289
12416WAT     H150384   0.817   0.557   0.094  1.4352 -0.1420  1.8837
12416WAT     H250385   0.705   0.630   0.063  1.2955 -1.7120 -1.8380
12416WAT    EPW50386   0.762   0.610   0.113  0.6057 -0.1215 -0.2954
12417WAT      O50387   4.551   7.106   0.914  0.5146  0.4536  0.1800
12417WAT     H150388   4.590   7.152   0.977  0.3345 -0.3623  0.9079
12417WAT     H250389   4.475   7.082   0.950  0.9058 -1.0132  0.0913
12417WAT    EPW50390   4.546   7.109   0.929  0.5458  0.1164  0.2744
12418WAT      O50391   6.497   7.288   0.370  0.1666 -0.1252 -0.1013
12418WAT     H150392   6.419   7.274   0.332  0.9802 -0.2528 -1.8242
12418WAT     H250393   6.510   7.373   0.358  0.2341 -0.0815  0.2904
12418WAT    EPW50394   6.487   7.298   0.362  0.2967 -0.1376 -0.2979
12419WAT      O50395   4.316   5.956   0.913  0.4932  0.1008  0.0233
12419WAT     H150396   4.250   6.008   0.936  0.9064  0.6716 -0.0454
12419WAT     H250397   4.325   5.903   0.981  0.4250  0.4913  0.3447
12419WAT    EPW50398   4.308   5.956   0.926  0.5442  0.2428  0.0606
12420WAT      O50399   2.305   7.220   4.851  0.4597 -0.1949 -0.3479
12420WAT     H150400   2.254   7.157   4.882 -0.8743  1.4243  0.9225
12420WAT     H250401   2.253   7.265   4.797  0.5640  1.3072  0.7326
12420WAT    EPW50402   2.290   7.218   4.847  0.2781  0.2662 -0.0006
12421WAT      O50403   5.044   5.358   3.739  0.4990  0.2832 -0.1228
12421WAT     H150404   5.012   5.287   3.700  0.5646 -0.7100  1.5714
12421WAT     H250405   5.043   5.338   3.823  4.5884  0.5577  0.1750
12421WAT    EPW50406   5.039   5.345   3.745  1.1128  0.1771  0.1715
12422WAT      O50407   4.780   0.819   5.088  0.2586 -0.1649 -0.1503
12422WAT     H150408   4.768   0.769   5.158  1.9602 -1.3390 -0.6275
12422WAT     H250409   4.847   0.871   5.110 -1.3815  1.8983  0.2826
12422WAT    EPW50410   4.788   0.820   5.102  0.2677 -0.0336 -0.1569
12423WAT      O50411   2.935   7.607   3.419  0.3710  0.5662  0.0959
12423WAT     H150412   2.892   7.602   3.495  0.0679  0.2002 -0.0985
12423WAT     H250413   2.908   7.537   3.375  0.6289  0.7157 -0.3085
12423WAT    EPW50414   2.924   7.596   3.424  0.3643  0.5342  0.0075
12424WAT      O50415   3.126   6.199   3.762 -0.2284 -0.4282  0.5917
12424WAT     H150416   3.073   6.252   3.717  0.1250 -1.0003 -0.5572
12424WAT     H250417   3.167   6.252   3.817  0.4898  0.6201 -0.8735
12424WAT    EPW50418   3.125   6.214   3.763 -0.0701 -0.3579  0.2056
12425WAT      O50419   0.586   0.165   6.443  0.2393 -0.1117  0.3269
12425WAT     H150420   0.587   0.105   6.380  0.8746  1.2176 -0.9761
12425WAT     H250421   0.566   0.119   6.515 -3.6768 -1.2717 -1.2112
12425WAT    EPW50422   0.583   0.149   6.444 -0.2453 -0.0867 -0.0928
12426WAT      O50423   6.951   1.274   3.703  0.2650  0.4082  0.0826
12426WAT     H150424   7.023   1.272   3.655 -1.3523 -0.2562 -2.5591
12426WAT     H250425   6.979   1.298   3.782  3.6085 -1.6482 -0.2802
12426WAT    EPW50426   6.966   1.277   3.708  0.5200  0.0063 -0.3613
12427WAT      O50427   4.277   2.349   2.081 -0.2588  0.0762 -0.0664
12427WAT     H150428   4.282   2.383   2.162  2.4038 -2.3731  0.9614
12427WAT     H250429   4.338   2.393   2.037  0.1874 -0.4433  0.0340
12427WAT    EPW50430   4.286   2.361   2.087  0.2004 -0.3624  0.1003
12428WAT      O50431   2.957   2.424   6.777 -0.1747  0.0532 -0.9943
12428WAT     H150432   2.948   2.507   6.805  1.3637  0.4329 -1.5675
12428WAT     H250433   2.979   2.381   6.850 -1.7255 -0.0231 -0.5356
12428WAT    EPW50434   2.959   2.430   6.792 -0.1765  0.0980 -1.0112
12429WAT      O50435   5.537   4.849   4.492 -0.0239 -0.0830  0.0428
12429WAT     H150436   5.484   4.892   4.437  0.4628  0.1869 -0.2150
12429WAT     H250437   5.541   4.902   4.562  1.6587  0.9755 -0.8027
12429WAT    EPW50438   5.530   4.863   4.495  0.2966  0.1133 -0.1202
12430WAT      O50439   5.008   0.815   4.800 -0.0165  0.0412  0.2454
12430WAT     H150440   5.030   0.899   4.806 -1.0819  0.4519 -1.0857
12430WAT     H250441   5.015   0.797   4.715 -2.1755 -0.4694  0.0969
12430WAT    EPW50442   5.012   0.825   4.788 -0.4928  0.0265  0.0268
12431WAT      O50443   1.446   2.809   4.080 -0.7402  0.4032 -0.3641
12431WAT     H150444   1.423   2.832   3.998  2.0574  1.5214 -0.9723
12431WAT     H250445   1.476   2.884   4.113 -0.7010 -0.3220  1.2917
12431WAT    EPW50446   1.447   2.824   4.073 -0.3212  0.4612 -0.2093
12432WAT      O50447   2.426   0.616   7.540 -0.9399  0.1372  0.0183
12432WAT     H150448   2.445   0.638   7.622 -0.3551  1.0346 -0.3375
12432WAT     H250449   2.451   0.533   7.535  0.5339  0.5418  0.3051
12432WAT    EPW50450   2.432   0.607   7.551 -0.6358  0.3295  0.0081
12433WAT      O50451   4.105   5.499   4.668 -0.5422  0.5309 -0.1747
12433WAT     H150452   4.144   5.459   4.601  0.4905  0.7123  0.2963
12433WAT     H250453   4.022   5.473   4.663 -0.7380  1.4208 -2.1774
12433WAT    EPW50454   4.099   5.489   4.658 -0.4186  0.6892 -0.4009
12434WAT      O50455   4.041   6.886   7.697 -0.1188 -0.5948 -0.2567
12434WAT     H150456   4.011   6.950   7.748  0.6699 -0.3256 -0.1233
12434WAT     H250457   4.036   6.815   7.747  0.1797 -0.4199  0.0226
12434WAT    EPW50458   4.036   6.885   7.712  0.0418 -0.5292 -0.1957
12435WAT      O50459   5.697   0.145   3.473  0.1273  0.0759  0.2933
12435WAT     H150460   5.721   0.223   3.504  0.4346  0.3392 -0.5746
12435WAT     H250461   5.753   0.131   3.407  1.7833 -2.0889  2.0354
12435WAT    EPW50462   5.709   0.155   3.468  0.4173 -0.2050  0.4225
12436WAT      O50463   2.012   6.150   6.187 -0.0502  0.1891 -0.2081
12436WAT     H150464   1.962   6.215   6.159 -0.5397  0.1517  0.5442
12436WAT     H250465   2.087   6.162   6.145 -0.7013  0.2002 -1.4048
12436WAT    EPW50466   2.016   6.161   6.177 -0.2187  0.1852 -0.2738
12437WAT      O50467   3.969   4.458   7.041  0.9201 -0.2393 -0.0430
12437WAT     H150468   3.896   4.446   7.087 -0.0281  1.5988 -0.9504
12437WAT     H250469   4.032   4.428   7.094 -0.4958 -2.5810  0.4574
12437WAT    EPW50470   3.968   4.452   7.056  0.5709 -0.3137 -0.1031
12438WAT      O50471   2.267   3.510   4.390  0.3749 -0.0789  0.2241
12438WAT     H150472   2.239   3.430   4.412 -1.6292  0.0961 -1.3354
12438WAT     H250473   2.352   3.499   4.375  0.1069 -1.9828 -0.1564
12438WAT    EPW50474   2.275   3.496   4.391  0.0393 -0.3343 -0.0625
12439WAT      O50475   4.109   2.941   5.791 -0.4487  0.2649  0.1460
12439WAT     H150476   4.050   3.000   5.764 -0.3058  0.1822 -0.3583
12439WAT     H250477   4.110   2.882   5.726 -0.0498  0.0955  0.3054
12439WAT    EPW50478   4.101   2.941   5.777 -0.3687  0.2277  0.0950
12440WAT      O50479   0.887   0.743   3.365 -0.3762  0.2098  0.6523
12440WAT     H150480   0.941   0.675   3.357 -1.5950 -0.7167  0.0458
12440WAT     H250481   0.927   0.806   3.319 -0.3396 -0.8031 -0.7735
12440WAT    EPW50482   0.901   0.742   3.357 -0.5509 -0.0767  0.3521
12441WAT      O50483   4.896   0.759   5.866 -0.0018  0.5053  0.7483
12441WAT     H150484   4.881   0.685   5.821  0.3336 -0.2942  1.9167
12441WAT     H250485   4.838   0.755   5.931 -0.5152  1.6762  0.3882
12441WAT    EPW50486   4.885   0.748   5.869 -0.0281  0.5602  0.8677
12442WAT      O50487   2.464   2.499   1.494  0.4648 -0.2975  0.1372
12442WAT     H150488   2.404   2.500   1.431  1.1606  0.2738 -0.5301
12442WAT     H250489   2.467   2.415   1.519  0.4789 -0.6022 -0.8639
12442WAT    EPW50490   2.456   2.487   1.489  0.5697 -0.2581 -0.1093
12443WAT      O50491   0.678   3.402   3.770  0.3978 -0.0108 -0.5174
12443WAT     H150492   0.626   3.333   3.785  0.5097  0.2191  1.1350
12443WAT     H250493   0.623   3.470   3.770  0.6061  0.2081  1.0194
12443WAT    EPW50494   0.662   3.402   3.773  0.4451  0.0555 -0.0463
12444WAT      O50495   5.750   0.790   3.447  0.1247 -0.2218 -0.0896
12444WAT     H150496   5.756   0.720   3.396 -1.4127  1.0416 -2.1829
12444WAT     H250497   5.664   0.800   3.458  0.3582  0.7728  0.9764
12444WAT    EPW50498   5.738   0.781   3.441 -0.0679  0.1118 -0.2414
12445WAT      O50499   2.546   5.125   0.459  0.1214 -0.7970 -0.1469
12445WAT     H150500   2.485   5.184   0.440  0.4335 -0.5390 -0.3831
12445WAT     H250501   2.583   5.157   0.531  0.5728 -0.4727 -0.5144
12445WAT    EPW50502   2.543   5.139   0.467  0.2342 -0.7110 -0.2361
12446WAT      O50503   2.118   0.768   2.193 -0.2607  0.5228 -0.7590
12446WAT     H150504   2.061   0.772   2.128  0.2741  0.0026 -1.2752
12446WAT     H250505   2.195   0.785   2.154  0.0726  0.1604 -0.2777
12446WAT    EPW50506   2.121   0.771   2.178 -0.1325  0.3924 -0.7642
12447WAT      O50507   6.660   0.728   4.161  0.0542  0.4664  0.3544
12447WAT     H150508   6.581   0.757   4.139 -1.1929 -1.8000  1.4146
12447WAT     H250509   6.699   0.713   4.085 -0.4547  1.7529 -0.1871
12447WAT    EPW50510   6.654   0.730   4.147 -0.2052  0.3216  0.4310
12448WAT      O50511   6.480   0.335   4.307  0.0529 -0.3045 -0.2042
12448WAT     H150512   6.424   0.401   4.299 -0.2866 -0.3857  1.1569
12448WAT     H250513   6.556   0.376   4.322  0.0424 -0.2153 -0.3868
12448WAT    EPW50514   6.483   0.351   4.308  0.0012 -0.3033 -0.0301
12449WAT      O50515   3.061   3.509   2.429 -0.3181  0.3390 -0.4719
12449WAT     H150516   3.143   3.480   2.421  0.5994  2.1538  1.3724
12449WAT     H250517   3.042   3.539   2.350  1.0378  0.4506 -0.7762
12449WAT    EPW50518   3.071   3.509   2.417  0.0177  0.6235 -0.2444
12450WAT      O50519   0.608   7.401   0.182 -0.2559  1.0105 -0.6026
12450WAT     H150520   0.684   7.375   0.217 -1.4045  0.5468  1.7631
12450WAT     H250521   0.622   7.485   0.163  1.1144  0.7015 -1.0520
12450WAT    EPW50522   0.621   7.409   0.185 -0.2232  0.8964 -0.3195
12451WAT      O50523   2.272   0.466   2.565  0.3058  0.3417  0.2011
12451WAT     H150524   2.333   0.444   2.624  0.4013 -0.1732 -0.0826
12451WAT     H250525   2.197   0.457   2.608  0.4094  0.6418  0.4484
12451WAT    EPW50526   2.270   0.462   2.580  0.3352  0.3100  0.1957
12452WAT      O50527   6.203   3.811   5.278  0.0020 -0.0894  0.3393
12452WAT     H150528   6.240   3.866   5.335  0.9185 -0.9387  0.5886
12452WAT     H250529   6.175   3.865   5.215 -0.1459  0.7684  1.1140
12452WAT    EPW50530   6.205   3.827   5.277  0.1155 -0.0881  0.4906
12453WAT      O50531   3.151   0.113   1.384  0.0156  0.0359  0.3959
12453WAT     H150532   3.132   0.034   1.352  1.1976  0.3264 -1.1073
12453WAT     H250533   3.108   0.168   1.332  0.4074  0.4440  0.4941
12453WAT    EPW50534   3.142   0.110   1.372  0.2481  0.1391  0.1883
12454WAT      O50535   3.929   1.091   1.239  0.0957  0.0415  0.3351
12454WAT     H150536   4.008   1.104   1.205 -0.2660  1.1082 -0.1561
12454WAT     H250537   3.930   1.140   1.311 -0.0420 -0.1198  0.4475
12454WAT    EPW50538   3.941   1.100   1.245  0.0219  0.1752  0.2791
12455WAT      O50539   0.677   7.429   4.164  0.0839 -0.0480  0.5169
12455WAT     H150540   0.641   7.433   4.244  0.7576  1.7699  0.7887
12455WAT     H250541   0.754   7.469   4.175  1.1098 -1.6304 -0.5944
12455WAT    EPW50542   0.683   7.436   4.178  0.3350 -0.0132  0.3929
12456WAT      O50543   4.479   1.665   1.931 -0.6708  0.0455  0.0291
12456WAT     H150544   4.431   1.696   1.996  0.1125 -0.0825  0.6911
12456WAT     H250545   4.424   1.613   1.887 -1.2276  0.1905  0.5499
12456WAT    EPW50546   4.464   1.662   1.934 -0.6373  0.0480  0.2038
12457WAT      O50547   3.704   6.711   0.077 -0.1461 -0.1451 -0.0141
12457WAT     H150548   3.733   6.632   0.055 -1.5894 -0.8763  0.5627
12457WAT     H250549   3.652   6.733   0.010  1.0923  0.8151 -0.6877
12457WAT    EPW50550   3.700   6.703   0.064 -0.1764 -0.1113 -0.0284
12458WAT      O50551   2.184   6.749   2.823 -0.0903  0.0174 -0.2676
12458WAT     H150552   2.186   6.796   2.749 -1.3591 -0.4979 -0.6604
12458WAT     H250553   2.137   6.800   2.877  1.3998  0.7000  0.4374
12458WAT    EPW50554   2.177   6.764   2.820 -0.0576  0.0421 -0.2214
12459WAT      O50555   4.147   1.913   6.945 -0.1408  0.8449 -0.3531
12459WAT     H150556   4.203   1.893   6.882  2.2132 -1.1597  2.1398
12459WAT     H250557   4.084   1.854   6.936  1.4517 -1.1211  0.5477
12459WAT    EPW50558   4.146   1.902   6.934  0.4422  0.2584  0.1482
12460WAT      O50559   6.986   0.867   7.185  0.5961  0.0342  0.3169
12460WAT     H150560   7.003   0.946   7.220  2.9244  0.5062 -1.6346
12460WAT     H250561   7.065   0.833   7.170 -0.2933 -1.3967 -1.6147
12460WAT    EPW50562   7.000   0.874   7.188  0.8087 -0.1074 -0.2567
12461WAT      O50563   3.627   1.875   2.224  0.4219 -0.0547  0.0387
12461WAT     H150564   3.702   1.837   2.200  1.3192  1.1422  0.8225
12461WAT     H250565   3.651   1.958   2.240 -1.2935  0.6617 -0.8326
12461WAT    EPW50566   3.642   1.882   2.223  0.3011  0.2279  0.0258
12462WAT      O50567   1.354   1.869   0.814  0.2888 -0.5383  0.3260
12462WAT     H150568   1.353   1.856   0.900 -0.6931 -2.1374  0.1066
12462WAT     H250569   1.314   1.946   0.804  1.6509  0.3528  1.3612
12462WAT    EPW50570   1.348   1.879   0.825  0.3449 -0.6429  0.4465
12463WAT      O50571   2.731   1.858   2.737  0.1652  0.2807  0.2776
12463WAT     H150572   2.732   1.837   2.822 -1.7524 -0.1362  0.2390
12463WAT     H250573   2.767   1.789   2.699  1.1484  0.5175  0.7422
12463WAT    EPW50574   2.736   1.845   2.744  0.0272  0.2541  0.3405
12464WAT      O50575   3.006   0.939   6.997 -0.4151  0.0991 -0.1585
12464WAT     H150576   2.961   0.870   6.968 -0.8553 -0.3029  1.3623
12464WAT     H250577   3.089   0.913   6.990 -0.5207 -0.0625 -0.8426
12464WAT    EPW50578   3.012   0.925   6.992 -0.4957  0.0158 -0.0349
12465WAT      O50579   3.825   0.602   4.564  0.2461  0.1330  0.5533
12465WAT     H150580   3.789   0.678   4.539  0.7259  0.1938  0.0542
12465WAT     H250581   3.888   0.588   4.505  1.1571  0.1064  1.5028
12465WAT    EPW50582   3.829   0.611   4.552  0.4516  0.1381  0.6198
12466WAT      O50583   3.027   7.622   5.059 -0.4301 -0.0512 -0.1735
12466WAT     H150584   3.009   7.671   4.989  0.7620  0.4869 -0.1222
12466WAT     H250585   3.066   7.552   5.025 -0.3464 -0.0469 -0.0836
12466WAT    EPW50586   3.030   7.619   5.044 -0.2416  0.0289 -0.1527
12467WAT      O50587   3.872   6.569   1.605 -0.4939 -0.2223 -0.1362
12467WAT     H150588   3.851   6.527   1.679  0.6340 -0.5483  0.0162
12467WAT     H250589   3.959   6.577   1.610 -0.1723 -1.7450 -2.1960
12467WAT    EPW50590   3.882   6.564   1.617 -0.2798 -0.4954 -0.4180
12468WAT      O50591   5.121   1.320   1.438 -0.6042 -0.3838  0.4779
12468WAT     H150592   5.056   1.262   1.428 -1.3833  0.5933 -0.2865
12468WAT     H250593   5.158   1.296   1.513 -1.2894 -1.5052  0.4784
12468WAT    EPW50594   5.117   1.308   1.448 -0.8205 -0.4051  0.3650
12469WAT      O50595   1.544   7.584   0.476  0.2654 -0.0181  0.0247
12469WAT     H150596   1.531   7.514   0.526 -2.1506 -0.5108 -1.1015
12469WAT     H250597   1.568   7.550   0.399  1.6155  0.5755  0.1669
12469WAT    EPW50598   1.545   7.569   0.472  0.1079 -0.0032 -0.1206
12470WAT      O50599   3.606   6.691   3.567  0.4408 -0.1700  0.4925
12470WAT     H150600   3.588   6.637   3.633 -1.2393  1.4126  1.4188
12470WAT     H250601   3.664   6.746   3.602 -1.0922  1.1932  0.9975
12470WAT    EPW50602   3.612   6.691   3.582 -0.0339  0.2651  0.7039
12471WAT      O50603   6.979   0.288   4.992  0.1478  0.0487 -0.8000
12471WAT     H150604   6.921   0.228   4.967 -0.7294  0.7612 -0.5380
12471WAT     H250605   6.980   0.280   5.079  0.7112 -0.1884 -0.8221
12471WAT    EPW50606   6.970   0.278   5.002  0.1015  0.1189 -0.7646
12472WAT      O50607   2.446   7.224   2.494 -0.1082 -0.1125  0.0228
12472WAT     H150608   2.417   7.206   2.414 -1.1949  0.8700  0.1718
12472WAT     H250609   2.507   7.163   2.508  0.0771 -0.3189 -1.5285
12472WAT    EPW50610   2.450   7.212   2.484 -0.2413  0.0021 -0.1844
12473WAT      O50611   5.020   5.221   2.489  0.3085 -0.5400 -0.2878
12473WAT     H150612   5.016   5.140   2.458  0.2046  0.0847 -2.0484
12473WAT     H250613   5.069   5.214   2.560 -2.1764 -2.6149  1.3711
12473WAT    EPW50614   5.026   5.208   2.495 -0.0739 -0.7542 -0.3028
12474WAT      O50615   1.553   6.798   6.616  0.1197 -0.2338  0.2059
12474WAT     H150616   1.591   6.722   6.630 -2.3602 -1.8623 -1.1427
12474WAT     H250617   1.527   6.794   6.532  0.5055  2.3994 -0.1542
12474WAT    EPW50618   1.555   6.786   6.606 -0.1896 -0.0854 -0.0465
12475WAT      O50619   7.238   0.693   6.833 -0.0082  0.1452 -0.5541
12475WAT     H150620   7.250   0.612   6.804 -1.8569 -0.3146 -0.1665
12475WAT     H250621   7.236   0.684   6.920  1.3445  0.8818 -0.4147
12475WAT    EPW50622   7.240   0.680   6.842 -0.0815  0.1861 -0.4762
12476WAT      O50623   1.430   1.317   0.812 -0.4123 -0.5463  0.1031
12476WAT     H150624   1.350   1.353   0.812 -0.2575 -0.1350  1.7670
12476WAT     H250625   1.421   1.247   0.760 -2.0300 -0.8701  0.7541
12476WAT    EPW50626   1.417   1.312   0.804 -0.6284 -0.5334  0.4451
12477WAT      O50627   1.626   7.021   1.333 -0.2313 -0.2777 -0.3010
12477WAT     H150628   1.695   7.063   1.365 -1.3364  1.6834 -0.3739
12477WAT     H250629   1.659   6.944   1.309  1.6576  0.1170  0.8061
12477WAT    EPW50630   1.641   7.016   1.334 -0.1155  0.0703 -0.1483
12478WAT      O50631   5.459   6.780   1.661 -0.4015  0.1006  0.1965
12478WAT     H150632   5.399   6.835   1.631  0.1203  0.5087 -0.1200
12478WAT     H250633   5.463   6.718   1.599  0.4674  0.7908 -0.4665
12478WAT    EPW50634   5.451   6.779   1.648 -0.1961  0.2629  0.0518
12479WAT      O50635   6.574   2.638   6.128 -0.4499 -0.2518  0.1187
12479WAT     H150636   6.509   2.623   6.184 -0.6037 -0.7969 -0.1918
12479WAT     H250637   6.533   2.653   6.053 -0.2252 -1.2543 -0.2318
12479WAT    EPW50638   6.559   2.638   6.125 -0.4394 -0.4804  0.0210
12480WAT      O50639   2.056   4.790   3.018 -1.2346  0.3649  0.4345
12480WAT     H150640   1.994   4.837   2.978 -2.0546 -0.9486  0.0750
12480WAT     H250641   2.087   4.844   3.079 -0.5246  2.1524 -1.4100
12480WAT    EPW50642   2.051   4.805   3.021 -1.2508  0.4349  0.1089
12481WAT      O50643   0.357   1.043   5.280 -0.7578 -0.0579 -0.4599
12481WAT     H150644   0.409   1.068   5.215 -1.1842  0.6121 -0.5480
12481WAT     H250645   0.405   1.055   5.351 -0.6921  0.3078 -0.5634
12481WAT    EPW50646   0.371   1.048   5.281 -0.8111  0.0951 -0.4882
12482WAT      O50647   4.053   0.033   1.535  0.0065  0.3005 -0.0652
12482WAT     H150648   3.995   0.098   1.530 -1.6931 -1.2063 -0.7962
12482WAT     H250649   4.024  -0.015   1.603  0.6314 -0.2499 -0.1776
12482WAT    EPW50650   4.040   0.035   1.544 -0.1522 -0.0034 -0.1898
12483WAT      O50651   2.816   1.103   3.328  0.1933  0.4295 -0.1840
12483WAT     H150652   2.754   1.042   3.318  0.3992 -0.1114  1.4697
12483WAT     H250653   2.773   1.171   3.362  0.4293  0.1299  0.7606
12483WAT    EPW50654   2.800   1.104   3.332  0.2586  0.3053  0.1998
12484WAT      O50655   2.126   3.329   5.069  0.2991  0.0296 -0.1774
12484WAT     H150656   2.174   3.400   5.051  1.6823 -1.4526 -2.8755
12484WAT     H250657   2.049   3.347   5.031 -0.0460  0.8533  0.8674
12484WAT    EPW50658   2.122   3.342   5.061  0.4524 -0.0677 -0.4216
12485WAT      O50659   1.754   5.482   7.013  0.1516 -0.6618 -0.3057
12485WAT     H150660   1.696   5.519   7.066  0.9446  1.7557 -1.0098
12485WAT     H250661   1.706   5.456   6.945 -0.4619 -1.2437  0.3306
12485WAT    EPW50662   1.738   5.484   7.011  0.1781 -0.3906 -0.3157
12486WAT      O50663   2.645   6.792   0.290  0.2582  0.1281 -0.1384
12486WAT     H150664   2.728   6.763   0.296 -0.0392 -0.9386 -0.9033
12486WAT     H250665   2.650   6.853   0.228  0.6244  0.6891  0.4330
12486WAT    EPW50666   2.658   6.797   0.281  0.2684  0.0534 -0.1670
12487WAT      O50667   4.980   0.516   4.118  0.6962  0.5078  0.4284
12487WAT     H150668   4.993   0.476   4.041  1.4678 -1.3946  1.4750
12487WAT     H250669   5.058   0.511   4.156  0.0972  0.6323  1.7081
12487WAT    EPW50670   4.994   0.509   4.112  0.7217  0.2452  0.7720
12488WAT      O50671   3.359   7.390   1.298  0.0454 -0.1026 -0.7079
12488WAT     H150672   3.392   7.380   1.218 -1.6184 -3.0390 -1.1829
12488WAT     H250673   3.364   7.310   1.332 -1.1897  0.6164  1.3339
12488WAT    EPW50674   3.365   7.377   1.291 -0.3828 -0.4302 -0.4764
12489WAT      O50675   2.331   6.583   0.881 -0.0149  0.1080  0.1385
12489WAT     H150676   2.250   6.556   0.862 -0.1268 -0.5331  1.4370
12489WAT     H250677   2.318   6.645   0.942  0.3543  1.8449 -1.4536
12489WAT    EPW50678   2.317   6.588   0.887  0.0231  0.2699  0.0952
12490WAT      O50679   0.117   0.322   7.327  0.3068 -0.1888  0.0111
12490WAT     H150680   0.063   0.391   7.332 -2.0607 -1.5053 -3.4595
12490WAT     H250681   0.170   0.343   7.261  3.2590  0.4292  2.4087
12490WAT    EPW50682   0.117   0.336   7.318  0.3932 -0.2920 -0.1474
12491WAT      O50683   3.631   6.323   2.170 -0.1187  0.4696 -0.2374
12491WAT     H150684   3.666   6.314   2.249  2.2384  1.5954 -1.0657
12491WAT     H250685   3.561   6.373   2.184  0.2115  0.5803  1.1519
12491WAT    EPW50686   3.626   6.329   2.184  0.2783  0.6522 -0.1545
12492WAT      O50687   1.720   6.053   1.510  0.2014 -0.3864  0.1391
12492WAT     H150688   1.700   6.054   1.425 -2.2478 -0.3511  0.6167
12492WAT     H250689   1.660   5.998   1.543  1.5754 -0.9658  1.7498
12492WAT    EPW50690   1.708   6.045   1.502  0.0426 -0.4668  0.4476
12493WAT      O50691   2.640   7.249   5.463  0.1321  0.3484 -0.1334
12493WAT     H150692   2.631   7.328   5.429 -1.7482  0.4275  0.4446
12493WAT     H250693   2.600   7.196   5.406 -0.4615  0.1103  0.4818
12493WAT    EPW50694   2.633   7.253   5.450 -0.2334  0.3249  0.0428
12494WAT      O50695   2.082   1.170   1.705 -0.4519  0.1151  0.6039
12494WAT     H150696   2.134   1.177   1.635  1.0610  1.2910  1.7620
12494WAT     H250697   2.084   1.085   1.724  0.0440 -0.0389 -0.0996
12494WAT    EPW50698   2.090   1.158   1.698 -0.1552  0.2661  0.6711
12495WAT      O50699   2.038   6.542   0.788 -0.0966  0.0178  0.1314
12495WAT     H150700   2.048   6.527   0.703  0.7568  0.3740  0.1561
12495WAT     H250701   2.032   6.463   0.823  2.5376 -0.3078  0.0623
12495WAT    EPW50702   2.039   6.528   0.781  0.4186  0.0223  0.1248
12496WAT      O50703   5.971   1.319   5.910 -0.2396 -0.4409  0.4844
12496WAT     H150704   5.988   1.244   5.869 -0.9837  0.0435 -0.7710
12496WAT     H250705   5.930   1.366   5.850 -1.5263  0.2706  1.8581
12496WAT    EPW50706   5.968   1.315   5.895 -0.5396 -0.2643  0.5019
12497WAT      O50707   1.004   5.279   0.263 -0.1619 -0.3157  0.0603
12497WAT     H150708   0.938   5.313   0.217 -1.4393 -1.0481  1.2607
12497WAT     H250709   1.054   5.348   0.281 -2.0534  0.8105  1.4256
12497WAT    EPW50710   1.002   5.295   0.259 -0.6300 -0.2575  0.4393
12498WAT      O50711   2.750   4.522   1.371 -0.4031  0.3298  0.4255
12498WAT     H150712   2.727   4.442   1.346 -0.1500 -0.0367  1.3407
12498WAT     H250713   2.791   4.510   1.447 -0.6344  1.3619  0.7376
12498WAT    EPW50714   2.753   4.509   1.378 -0.3998  0.4281  0.6068
12499WAT      O50715   1.894   0.999   4.345 -0.0360  0.6223 -0.6491
12499WAT     H150716   1.860   0.921   4.327 -0.0102  0.6255 -0.7107
12499WAT     H250717   1.894   1.002   4.433 -2.2200  1.4996 -0.6110
12499WAT    EPW50718   1.889   0.988   4.356 -0.3548  0.7524 -0.6526
12500WAT      O50719   5.378   0.524   0.326  0.2371 -0.7488  0.1635
12500WAT     H150720   5.455   0.550   0.294  0.9119 -0.9572  1.5527
12500WAT     H250721   5.372   0.441   0.302 -0.1951 -0.3967 -1.0656
12500WAT    EPW50722   5.388   0.516   0.318  0.2729 -0.7276  0.1872
12501WAT      O50723   7.594   2.299   4.587 -0.5814 -0.5950 -1.0545
12501WAT     H150724   7.535   2.249   4.627  1.2312 -1.7077  0.4639
12501WAT     H250725   7.560   2.379   4.590 -1.2733 -0.8937  1.3458
12501WAT    EPW50726   7.581   2.303   4.594 -0.4158 -0.8035 -0.4757
12502WAT      O50727   2.204   2.767   2.438  0.1524  0.1923  0.2626
12502WAT     H150728   2.197   2.824   2.504 -0.5598  1.1065 -0.5812
12502WAT     H250729   2.275   2.793   2.395 -0.7609  1.1474 -0.7387
12502WAT    EPW50730   2.213   2.779   2.442 -0.0877  0.4685 -0.0099
12503WAT      O50731   6.157   6.478   6.033 -0.3259 -0.0846 -0.5065
12503WAT     H150732   6.119   6.412   5.990  0.2124  0.3833 -1.7376
12503WAT     H250733   6.154   6.545   5.977 -0.6268  0.8866  0.6143
12503WAT    EPW50734   6.151   6.478   6.019 -0.2908  0.1280 -0.5228
12504WAT      O50735   5.743   2.378   3.870  0.3845  0.2041  0.2295
12504WAT     H150736   5.676   2.354   3.922  0.0577  0.9425  0.1558
12504WAT     H250737   5.807   2.394   3.926  0.4923 -0.4533  0.3060
12504WAT    EPW50738   5.742   2.377   3.886  0.3521  0.2161  0.2299
12505WAT      O50739   4.348   2.117   0.761 -0.0265 -0.2298 -0.0450
12505WAT     H150740   4.334   2.116   0.675 -0.0730 -1.3656 -0.0456
12505WAT     H250741   4.415   2.173   0.771 -0.3211  0.2559 -0.7595
12505WAT    EPW50742   4.356   2.125   0.750 -0.0769 -0.3258 -0.1506
12506WAT      O50743   1.947   4.144   4.277  0.7431 -0.4936  0.1081
12506WAT     H150744   1.928   4.216   4.323  0.9994 -0.4025  0.0777
12506WAT     H250745   2.012   4.171   4.225 -1.1322  0.1189 -2.0903
12506WAT    EPW50746   1.954   4.159   4.276  0.5039 -0.3896 -0.2211
12507WAT      O50747   3.969   6.054   7.189 -0.0777  0.4800  0.0331
12507WAT     H150748   3.945   6.099   7.260 -0.6773 -0.2405  0.2970
12507WAT     H250749   3.906   5.995   7.180  0.5377 -0.1092 -0.4945
12507WAT    EPW50750   3.956   6.052   7.198 -0.0753  0.2865 -0.0059
12508WAT      O50751   3.576   7.321   1.749 -0.2464 -0.3277 -0.3707
12508WAT     H150752   3.550   7.371   1.816  3.3610 -0.0148  1.0484
12508WAT     H250753   3.608   7.250   1.789 -0.8022 -1.5611 -2.0249
12508WAT    EPW50754   3.577   7.318   1.765  0.2044 -0.4637 -0.4054
12509WAT      O50755   3.108   4.380   1.443  0.4678  0.2035  0.4811
12509WAT     H150756   3.177   4.333   1.419  0.3113  0.7390 -1.1780
12509WAT     H250757   3.069   4.398   1.367  0.4831  2.9584  1.0263
12509WAT    EPW50758   3.112   4.376   1.428  0.4469  0.6896  0.3166
12510WAT      O50759   3.866   6.992   5.862  0.5945 -0.4906 -0.2150
12510WAT     H150760   3.931   7.034   5.902 -0.4022 -0.7332  1.8023
12510WAT     H250761   3.797   7.044   5.874  0.2086 -0.6647 -1.5253
12510WAT    EPW50762   3.865   7.006   5.870  0.3903 -0.5521 -0.1106
12511WAT      O50763   2.806   7.081   1.317 -0.3658  0.2062 -0.1028
12511WAT     H150764   2.764   7.096   1.392 -1.2311  1.0979 -0.7237
12511WAT     H250765   2.793   6.996   1.303 -2.2644  0.4759 -0.3801
12511WAT    EPW50766   2.798   7.071   1.326 -0.7741  0.3777 -0.2355
12512WAT      O50767   1.501   0.030   1.695 -0.2726 -0.3131  0.3297
12512WAT     H150768   1.518   0.002   1.614 -0.9915 -1.3471  0.5115
12512WAT     H250769   1.506  -0.043   1.743 -1.2898  0.0217  0.9683
12512WAT    EPW50770   1.504   0.015   1.690 -0.5291 -0.4164  0.4509
12513WAT      O50771   2.473   1.383   7.627  0.3768 -0.7748 -1.0365
12513WAT     H150772   2.444   1.455   7.666  1.3454 -1.1952  0.5133
12513WAT     H250773   2.557   1.399   7.612  0.5370 -1.4630 -0.9336
12513WAT    EPW50774   2.481   1.396   7.630  0.5435 -0.9386 -0.7924
12514WAT      O50775   7.361   6.382   7.281 -0.0042 -0.0471 -0.6084
12514WAT     H150776   7.307   6.450   7.296 -1.1682 -0.4479 -2.5712
12514WAT     H250777   7.353   6.334   7.353 -0.7256  0.9028 -0.0165
12514WAT    EPW50778   7.352   6.385   7.294 -0.2827  0.0340 -0.8109
12515WAT      O50779   0.386   4.353   5.266 -0.0139 -0.4608  0.1341
12515WAT     H150780   0.384   4.266   5.268  0.5444 -0.4742  1.6264
12515WAT     H250781   0.319   4.376   5.317 -0.5728  0.0060 -0.7948
12515WAT    EPW50782   0.376   4.344   5.274 -0.0139 -0.3938  0.2173
12516WAT      O50783   0.764   0.320   4.941  0.1044  0.3390 -0.2780
12516WAT     H150784   0.754   0.392   4.989  1.0702 -0.6631  1.5398
12516WAT     H250785   0.842   0.330   4.904 -0.8964  1.4004 -2.3099
12516WAT    EPW50786   0.774   0.332   4.942  0.0992  0.3478 -0.3096
12517WAT      O50787   0.128   6.165   4.040 -0.4392 -0.2394  0.1175
12517WAT     H150788   0.046   6.140   4.026 -0.2225 -1.2418  0.5572
12517WAT     H250789   0.130   6.179   4.126 -0.6287  1.6343 -0.1429
12517WAT    EPW50790   0.116   6.164   4.051 -0.4352 -0.1107  0.1440
12518WAT      O50791   1.548   6.985   4.531  0.0482 -0.1108 -0.3831
12518WAT     H150792   1.635   6.994   4.538  0.0214  0.7350 -0.9186
12518WAT     H250793   1.538   6.922   4.472  0.3072  0.0431 -0.5954
12518WAT    EPW50794   1.559   6.977   4.523  0.0825  0.0369 -0.4936
12519WAT      O50795   1.989   4.807   0.696 -0.1134  0.5600  0.0714
12519WAT     H150796   1.926   4.846   0.649 -0.3431  0.0079 -0.0912
12519WAT     H250797   2.053   4.793   0.638 -0.0500  0.6549  0.1185
12519WAT    EPW50798   1.989   4.811   0.680 -0.1380  0.4924  0.0543
12520WAT      O50799   3.366   4.233   0.059  0.0692  0.1905  0.4003
12520WAT     H150800   3.410   4.199  -0.008  0.3063  1.6536 -0.2181
12520WAT     H250801   3.428   4.275   0.105 -0.4219  1.0014  0.3449
12520WAT    EPW50802   3.382   4.234   0.056  0.0317  0.5264  0.3007
12521WAT      O50803   1.535   7.690   4.413 -0.2731  1.1884  0.1772
12521WAT     H150804   1.466   7.654   4.453 -0.7134  1.4934 -0.3062
12521WAT     H250805   1.521   7.775   4.419 -0.2152  1.2404 -0.4149
12521WAT    EPW50806   1.523   7.697   4.420 -0.3296  1.2412  0.0183
12522WAT      O50807   3.129   0.769   1.312 -0.0964  0.0502  0.0344
12522WAT     H150808   3.186   0.816   1.264  0.5445  1.2223  1.8471
12522WAT     H250809   3.124   0.693   1.269 -0.0352  1.2296 -2.2121
12522WAT    EPW50810   3.137   0.765   1.298  0.0073  0.3976 -0.0297
12523WAT      O50811   1.596   2.017   6.725  0.4404  0.4349  1.0067
12523WAT     H150812   1.671   2.050   6.756  0.9636  0.5280 -0.2983
12523WAT     H250813   1.537   2.078   6.747  0.5966  0.0581  2.6269
12523WAT    EPW50814   1.599   2.031   6.733  0.5408  0.3930  1.0533
12524WAT      O50815   2.304   0.664   4.721  0.9717  0.2605  0.3368
12524WAT     H150816   2.248   0.601   4.699  0.4511  1.3353 -1.6606
12524WAT     H250817   2.382   0.626   4.714  0.6252 -0.4772  0.3733
12524WAT    EPW50818   2.307   0.649   4.717  0.8436  0.3103  0.0471
12525WAT      O50819   5.900   5.894   2.516 -0.1230  0.0884  0.1563
12525WAT     H150820   5.863   5.822   2.548  1.7131 -0.9563  0.0870
12525WAT     H250821   5.881   5.890   2.431 -1.1647  0.4443  0.3525
12525WAT    EPW50822   5.892   5.882   2.508 -0.0057 -0.0133  0.1750
12526WAT      O50823   5.541   3.631   6.241 -0.3757 -0.0155  0.4702
12526WAT     H150824   5.471   3.608   6.287  0.7544  1.3027  3.0323
12526WAT     H250825   5.516   3.704   6.199 -1.0940 -0.6565 -0.2497
12526WAT    EPW50826   5.527   3.638   6.241 -0.3148  0.0845  0.7424
12527WAT      O50827   2.610   3.055   1.946 -0.3629  0.3354  0.0993
12527WAT     H150828   2.612   2.981   1.991  0.0093  0.4046  0.2013
12527WAT     H250829   2.528   3.059   1.915 -0.5969  0.2406  0.6930
12527WAT    EPW50830   2.598   3.045   1.948 -0.3424  0.3316  0.2021
12528WAT      O50831   4.488   7.315   0.722 -0.3368  0.0659 -0.4231
12528WAT     H150832   4.568   7.333   0.692 -0.1529 -0.8516 -0.4948
12528WAT     H250833   4.500   7.245   0.773 -0.8015  0.9772  1.0183
12528WAT    EPW50834   4.502   7.308   0.725 -0.3783  0.0650 -0.2208
12529WAT      O50835   6.115   5.938   1.464  0.1526  0.1815 -0.0535
12529WAT     H150836   6.174   5.986   1.423 -0.4236  1.6048  0.7018
12529WAT     H250837   6.078   5.994   1.520 -3.5772  0.0793 -2.1021
12529WAT    EPW50838   6.118   5.953   1.466 -0.4835  0.3766 -0.2446
12530WAT      O50839   4.566   0.642   1.662  0.9070  0.0218 -0.7003
12530WAT     H150840   4.535   0.622   1.582  1.3705 -0.2588 -0.8145
12530WAT     H250841   4.627   0.701   1.646  1.4349 -0.4915 -0.6159
12530WAT    EPW50842   4.570   0.648   1.648  1.0534 -0.0955 -0.7047
12531WAT      O50843   1.755   0.638   0.738  0.0395 -0.2504  0.6669
12531WAT     H150844   1.740   0.686   0.809 -1.5840  0.6296 -0.2029
12531WAT     H250845   1.759   0.698   0.674  0.1302 -1.1161 -0.1596
12531WAT    EPW50846   1.754   0.654   0.739 -0.1869 -0.2483  0.4163
12532WAT      O50847   1.352   5.184   4.433 -0.0489 -0.1447 -0.8135
12532WAT     H150848   1.423   5.235   4.428  1.0054 -1.3766  0.7358
12532WAT     H250849   1.380   5.108   4.400 -0.6486 -0.6450 -0.1828
12532WAT    EPW50850   1.366   5.180   4.427  0.0183 -0.4006 -0.4915
12533WAT      O50851   1.875   7.481   6.933 -0.1492 -0.4357  0.0461
12533WAT     H150852   1.850   7.471   7.016  0.4538  1.8194  0.5575
12533WAT     H250853   1.933   7.546   6.936  0.3927 -0.7374 -2.0647
12533WAT    EPW50854   1.879   7.489   6.946  0.0199 -0.1472 -0.1901
12534WAT      O50855   2.137   0.646   4.357 -0.1964  0.0330  0.1860
12534WAT     H150856   2.142   0.700   4.426 -0.5663  2.1135 -1.3150
12534WAT     H250857   2.209   0.665   4.312 -0.3120 -0.7931 -0.3461
12534WAT    EPW50858   2.148   0.657   4.361 -0.2681  0.2183 -0.1143
12535WAT      O50859   7.739   7.496   6.068 -0.6837  0.0870  0.3980
12535WAT     H150860   7.771   7.481   6.148 -0.2065  2.7568  0.8026
12535WAT     H250861   7.690   7.567   6.078 -1.4199 -0.0798 -1.5202
12535WAT    EPW50862   7.737   7.504   6.081 -0.7219  0.4567  0.1744
12536WAT      O50863   3.186   6.257   6.351 -0.2238  0.2856  0.2471
12536WAT     H150864   3.163   6.184   6.392  1.0859 -0.6906 -0.6812
12536WAT     H250865   3.113   6.282   6.310 -0.0867 -1.9152 -1.4629
12536WAT    EPW50866   3.172   6.250   6.351 -0.0101 -0.1837 -0.1427
12537WAT      O50867   7.394   6.441   6.529  0.0084  0.0208 -0.0314
12537WAT     H150868   7.344   6.508   6.502  1.0874  2.2550  2.9712
12537WAT     H250869   7.463   6.445   6.476 -0.3023  0.8227 -0.3936
12537WAT    EPW50870   7.397   6.451   6.517  0.1219  0.4693  0.3586
12538WAT      O50871   7.661   7.459   4.592  0.1888 -0.0307 -0.1350
12538WAT     H150872   7.614   7.395   4.556 -1.2756  0.5161  0.6956
12538WAT     H250873   7.600   7.511   4.627  1.4706  0.2571  1.7752
12538WAT    EPW50874   7.645   7.457   4.592  0.1618  0.0926  0.2698
12539WAT      O50875   1.420   3.344   0.451  0.3583 -0.2036 -0.1270
12539WAT     H150876   1.408   3.357   0.366 -0.9120  0.2948  0.1039
12539WAT     H250877   1.341   3.359   0.485  0.9094 -0.1306  1.1726
12539WAT    EPW50878   1.407   3.348   0.444  0.2521 -0.1192  0.0990
12540WAT      O50879   3.546   2.153   4.428 -0.3311  0.2551  0.0554
12540WAT     H150880   3.479   2.208   4.435  0.2872  0.8602  1.7025
12540WAT     H250881   3.616   2.204   4.431  0.2497 -0.3706 -1.6356
12540WAT    EPW50882   3.546   2.168   4.430 -0.1540  0.2521  0.0489
12541WAT      O50883   2.508   2.977   4.345 -0.4439 -0.2620 -0.0239
12541WAT     H150884   2.484   3.019   4.273 -1.0620  0.6121  0.6612
12541WAT     H250885   2.582   3.018   4.369  0.6990 -1.6411 -1.0402
12541WAT    EPW50886   2.516   2.989   4.338 -0.3664 -0.3366 -0.0728
12542WAT      O50887   5.528   4.108   4.886  0.3792 -0.3138 -0.2989
12542WAT     H150888   5.599   4.137   4.845 -0.5271  1.0875 -0.9647
12542WAT     H250889   5.488   4.181   4.913 -0.4671 -1.0903  0.6641
12542WAT    EPW50890   5.532   4.123   4.884  0.1203 -0.2215 -0.2550
12543WAT      O50891   2.359   0.964   7.757 -0.0871  0.5938 -0.6742
12543WAT     H150892   2.433   0.972   7.712 -0.9687  1.2418 -2.0942
12543WAT     H250893   2.306   1.022   7.720 -1.7728 -0.8527 -0.6809
12543WAT    EPW50894   2.362   0.974   7.745 -0.4664  0.4758 -0.8849
12544WAT      O50895   2.321   5.317   3.855  0.5778  0.6181 -0.2887
12544WAT     H150896   2.369   5.264   3.806 -0.7990 -0.5893 -0.4227
12544WAT     H250897   2.336   5.289   3.937 -1.6261 -1.4505 -0.4554
12544WAT    EPW50898   2.330   5.305   3.860  0.0489  0.1342 -0.3331
12545WAT      O50899   4.429   4.743   6.959 -0.6700 -0.3167  0.6579
12545WAT     H150900   4.449   4.675   6.907 -2.4465 -1.6270  1.5927
12545WAT     H250901   4.434   4.710   7.039  0.8306  1.3604  1.3136
12545WAT    EPW50902   4.433   4.728   6.963 -0.7108 -0.2625  0.8929
12546WAT      O50903   2.624   4.905   2.806 -0.4616 -0.6886 -0.4132
12546WAT     H150904   2.654   4.976   2.766  0.3995 -0.7198  0.1437
12546WAT     H250905   2.665   4.839   2.766 -0.8575 -0.8432 -0.5761
12546WAT    EPW50906   2.634   4.905   2.794 -0.3928 -0.7160 -0.3550
12547WAT      O50907   4.364   1.242   2.704  0.3949  0.2547  0.0079
12547WAT     H150908   4.409   1.174   2.735 -0.5920 -0.2264  0.4146
12547WAT     H250909   4.382   1.240   2.618  2.1946  0.8877  0.3286
12547WAT    EPW50910   4.373   1.232   2.696  0.5149  0.2771  0.1154
12548WAT      O50911   1.605   1.219   1.032  0.5164 -0.2251  0.1481
12548WAT     H150912   1.601   1.134   1.015  1.3820  0.0588 -1.7403
12548WAT     H250913   1.550   1.254   0.974  0.2947  0.5181  0.7954
12548WAT    EPW50914   1.596   1.212   1.021  0.6115 -0.0734 -0.0352
12549WAT      O50915   5.845   5.901   1.696 -0.2447 -0.2952  0.3609
12549WAT     H150916   5.757   5.901   1.698 -0.2545  1.0031  0.3115
12549WAT     H250917   5.864   5.956   1.632  0.6213 -0.5893  0.3590
12549WAT    EPW50918   5.835   5.909   1.687 -0.1182 -0.1469  0.3533
12550WAT      O50919   2.734   0.898   2.253  0.3990 -0.6461 -0.0221
12550WAT     H150920   2.704   0.915   2.334  1.0733 -0.0195  0.1007
12550WAT     H250921   2.696   0.822   2.233 -0.2943 -0.4817  0.6242
12550WAT    EPW50922   2.724   0.889   2.262  0.3962 -0.5293  0.0915
12551WAT      O50923   1.752   3.201   4.999 -0.2501  0.6867  0.6087
12551WAT     H150924   1.666   3.195   4.982  0.1033 -1.0662 -0.8144
12551WAT     H250925   1.772   3.281   4.970 -1.3729  1.0772  0.8389
12551WAT    EPW50926   1.742   3.212   4.992 -0.3638  0.4854  0.4325
12552WAT      O50927   4.234   0.898   1.016 -0.7699  0.1443  0.2140
12552WAT     H150928   4.208   0.972   1.055  0.9461  0.8410  0.1339
12552WAT     H250929   4.315   0.915   0.991 -0.5038 -1.6051 -0.2957
12552WAT    EPW50930   4.242   0.911   1.018 -0.4771 -0.0112  0.1269
12553WAT      O50931   4.781   1.157   5.280  0.3022  0.3234  0.0174
12553WAT     H150932   4.780   1.213   5.347  3.1731 -0.9116  1.2551
12553WAT     H250933   4.824   1.201   5.218 -0.3715  0.6522 -0.2250
12553WAT    EPW50934   4.787   1.172   5.281  0.6268  0.1896  0.1644
12554WAT      O50935   0.942   7.493   7.172  0.1757 -0.5955  0.3367
12554WAT     H150936   0.936   7.572   7.135 -0.2569 -0.6307  0.3210
12554WAT     H250937   1.026   7.487   7.194  0.3090 -0.3236 -0.0865
12554WAT    EPW50938   0.953   7.504   7.170  0.1315 -0.5605  0.2719
12555WAT      O50939   2.194   6.402   1.643  0.0674  0.2489 -0.1362
12555WAT     H150940   2.122   6.380   1.600 -0.8457  2.1729  0.3407
12555WAT     H250941   2.224   6.472   1.600  1.9400 -0.7663 -0.6061
12555WAT    EPW50942   2.188   6.409   1.631  0.2091  0.3832 -0.1352
12556WAT      O50943   6.837   4.471   4.120  0.4968  0.2228 -0.1842
12556WAT     H150944   6.812   4.390   4.101  0.4728  0.2263 -0.1668
12556WAT     H250945   6.814   4.481   4.204 -0.8335  0.7518 -0.5818
12556WAT    EPW50946   6.830   4.461   4.130  0.2967  0.3014 -0.2403
12557WAT      O50947   2.109   6.309   4.621  0.4192  0.4265  0.4976
12557WAT     H150948   2.046   6.306   4.562  0.2608 -1.5034  0.6926
12557WAT     H250949   2.081   6.366   4.680 -1.1782 -0.4062  0.5858
12557WAT    EPW50950   2.096   6.317   4.621  0.1598  0.0184  0.5395
12558WAT      O50951   3.565   7.019   2.563 -0.3707  0.2316  0.2155
12558WAT     H150952   3.484   7.005   2.533 -0.2595 -0.3851  0.1831
12558WAT     H250953   3.615   6.976   2.506 -0.2899 -3.0103  2.4824
12558WAT    EPW50954   3.561   7.010   2.550 -0.3423 -0.3384  0.5456
12559WAT      O50955   3.506   0.809   0.363 -0.4932 -0.2111  0.2394
12559WAT     H150956   3.559   0.742   0.347 -1.3178 -0.8605  0.1395
12559WAT     H250957   3.486   0.839   0.284  0.4444  0.6355  0.3018
12559WAT    EPW50958   3.511   0.804   0.349 -0.4765 -0.1820  0.2339
12560WAT      O50959   2.400   4.943   3.308  0.5777  0.4316 -0.2812
12560WAT     H150960   2.314   4.931   3.303  0.2307  1.9335  1.0870
12560WAT     H250961   2.430   4.910   3.234 -1.1344 -0.4824 -0.6201
12560WAT    EPW50962   2.392   4.937   3.297  0.2735  0.5184 -0.1291
12561WAT      O50963   7.268   1.835   3.978 -0.3300  0.2978 -0.1663
12561WAT     H150964   7.205   1.789   3.939  0.9309 -1.2738 -0.4425
12561WAT     H250965   7.334   1.778   3.985  0.1422  1.0658  2.6128
12561WAT    EPW50966   7.269   1.820   3.973 -0.0740  0.1791  0.2034
12562WAT      O50967   2.931   3.828   1.875 -0.3776  0.2467  0.3544
12562WAT     H150968   2.896   3.905   1.896  0.2523  0.3858  0.9062
12562WAT     H250969   2.861   3.778   1.858 -0.8586  0.5677  1.2885
12562WAT    EPW50970   2.915   3.832   1.876 -0.3556  0.3147  0.5739
12563WAT      O50971   0.872   7.643   5.195 -0.2131  0.1309 -0.7129
12563WAT     H150972   0.954   7.614   5.199  0.1669  1.1819  2.8397
12563WAT     H250973   0.881   7.730   5.192 -1.1623  0.2584 -0.3469
12563WAT    EPW50974   0.885   7.652   5.195 -0.2972  0.3050 -0.1341
12564WAT      O50975   2.607   7.659   1.165  0.1361  0.1328 -0.0636
12564WAT     H150976   2.596   7.742   1.190  0.7621  0.4555 -0.8160
12564WAT     H250977   2.685   7.660   1.125  0.4373 -0.9502  0.4634
12564WAT    EPW50978   2.617   7.671   1.163  0.2731  0.0205 -0.0969
12565WAT      O50979   1.536   7.217   6.744 -0.0449 -0.6262  0.1886
12565WAT     H150980   1.451   7.235   6.749 -0.0611 -0.9993  2.1196
12565WAT     H250981   1.574   7.293   6.763  0.0703 -0.4418 -0.7433
12565WAT    EPW50982   1.529   7.231   6.748 -0.0302 -0.6541  0.3362
12566WAT      O50983   3.394   1.695   3.734 -0.5950  0.1403 -0.2294
12566WAT     H150984   3.326   1.641   3.731 -0.2970 -0.3993  1.5607
12566WAT     H250985   3.456   1.652   3.690 -0.5237 -0.7620  0.7255
12566WAT    EPW50986   3.393   1.681   3.727 -0.5404 -0.0727  0.1761
12567WAT      O50987   2.118   3.125   5.397 -0.0838  0.3280 -0.3924
12567WAT     H150988   2.133   3.210   5.382 -0.0592  0.7375  1.6957
12567WAT     H250989   2.055   3.125   5.457 -1.8068 -1.2273 -2.0536
12567WAT    EPW50990   2.111   3.138   5.403 -0.3347  0.1587 -0.3294
12568WAT      O50991   1.943   6.280   0.874  0.9045 -0.3559  0.2138
12568WAT     H150992   1.910   6.300   0.952  1.6011 -1.4476  0.8037
12568WAT     H250993   1.888   6.219   0.844 -1.7146  2.7051 -1.9512
12568WAT    EPW50994   1.930   6.274   0.881  0.6205 -0.0650 -0.0189
12569WAT      O50995   2.223   5.562   3.741 -0.4339 -0.3583 -0.4153
12569WAT     H150996   2.142   5.571   3.771 -0.2618 -0.5152  0.1117
12569WAT     H250997   2.255   5.496   3.789  0.0959 -0.1050 -0.4129
12569WAT    EPW50998   2.216   5.554   3.753 -0.3302 -0.3441 -0.3371
12570WAT      O50999   5.902   3.367   3.625 -0.1077 -0.5517  0.4761
12570WAT     H151000   5.841   3.314   3.656 -1.0802  0.3190  0.1112
12570WAT     H251001   5.898   3.436   3.677 -0.0690 -0.1054 -0.0961
12570WAT    EPW51002   5.892   3.370   3.637 -0.2457 -0.3571  0.3377
12571WAT      O51003   1.993   7.357   2.631  0.4114  0.1393 -0.3236
12571WAT     H151004   2.015   7.419   2.688 -0.0198 -0.2356  0.2525
12571WAT     H251005   1.912   7.379   2.606 -0.0773 -0.6603  0.5314
12571WAT    EPW51006   1.985   7.370   2.636  0.2755 -0.0342 -0.1122
   7.75279   7.69708   7.86611
