Generic title
51006
    1C5    HO5'    1   3.443   5.157   3.431
    1C5     O5'    2   3.372   5.221   3.441
    1C5     C5'    3   3.426   5.346   3.480
    1C5     H5'    4   3.358   5.425   3.447
    1C5    H5''    5   3.522   5.361   3.431
    1C5     C4'    6   3.446   5.363   3.632
    1C5     H4'    7   3.474   5.467   3.652
    1C5     O4'    8   3.328   5.334   3.706
    1C5     C1'    9   3.365   5.293   3.838
    1C5     H1'   10   3.333   5.368   3.910
    1C5      N1   11   3.306   5.162   3.875
    1C5      C6   12   3.256   5.075   3.781
    1C5      H6   13   3.263   5.100   3.675
    1C5      C5   14   3.196   4.960   3.819
    1C5      H5   15   3.157   4.892   3.746
    1C5      C4   16   3.187   4.934   3.959
    1C5      N4   17   3.130   4.827   4.003
    1C5     H41   18   3.133   4.812   4.103
    1C5     H42   19   3.107   4.754   3.939
    1C5      N3   20   3.235   5.016   4.050
    1C5      C2   21   3.297   5.130   4.011
    1C5      O2   22   3.344   5.202   4.098
    1C5     C3'   23   3.555   5.275   3.692
    1C5     H3'   24   3.543   5.172   3.658
    1C5     C2'   25   3.519   5.286   3.840
    1C5     H2'   26   3.554   5.198   3.893
    1C5     O2'   27   3.564   5.405   3.904
    1C5    HO2'   28   3.585   5.382   3.995
    1C5     O3'   29   3.684   5.325   3.661
    2U        P   30   3.810   5.229   3.664
    2U      OP1   31   3.927   5.318   3.641
    2U      OP2   32   3.781   5.119   3.569
    2U      O5'   33   3.813   5.177   3.817
    2U      C5'   34   3.861   5.263   3.919
    2U      H5'   35   3.815   5.361   3.906
    2U     H5''   36   3.969   5.276   3.905
    2U      C4'   37   3.837   5.218   4.064
    2U      H4'   38   3.872   5.299   4.127
    2U      O4'   39   3.699   5.197   4.095
    2U      C1'   40   3.692   5.097   4.196
    2U      H1'   41   3.637   5.135   4.283
    2U       N1   42   3.622   4.974   4.148
    2U       C6   43   3.606   4.945   4.014
    2U       H6   44   3.654   5.007   3.940
    2U       C5   45   3.530   4.838   3.976
    2U       H5   46   3.517   4.816   3.871
    2U       C4   47   3.466   4.751   4.072
    2U       O4   48   3.393   4.656   4.047
    2U       N3   49   3.490   4.786   4.202
    2U       H3   50   3.456   4.723   4.273
    2U       C2   51   3.565   4.892   4.246
    2U       O2   52   3.576   4.914   4.366
    2U      C3'   53   3.912   5.094   4.109
    2U      H3'   54   3.899   5.012   4.038
    2U      C2'   55   3.836   5.067   4.240
    2U      H2'   56   3.849   4.964   4.273
    2U      O2'   57   3.868   5.159   4.345
    2U     HO2'   58   3.842   5.119   4.430
    2U      O3'   59   4.049   5.124   4.129
    3G        P   60   4.160   5.011   4.140
    3G      OP1   61   4.285   5.083   4.173
    3G      OP2   62   4.154   4.927   4.018
    3G      O5'   63   4.118   4.921   4.265
    3G      C5'   64   4.145   4.964   4.397
    3G      H5'   65   4.093   5.058   4.416
    3G     H5''   66   4.252   4.980   4.408
    3G      C4'   67   4.101   4.861   4.501
    3G      H4'   68   4.130   4.895   4.601
    3G      O4'   69   3.960   4.843   4.501
    3G      C1'   70   3.932   4.708   4.537
    3G      H1'   71   3.874   4.703   4.629
    3G       N9   72   3.855   4.645   4.429
    3G       C8   73   3.849   4.678   4.297
    3G       H8   74   3.909   4.757   4.254
    3G       N7   75   3.763   4.609   4.228
    3G       C5   76   3.712   4.518   4.321
    3G       C6   77   3.615   4.413   4.309
    3G       O6   78   3.549   4.380   4.210
    3G       N1   79   3.595   4.342   4.426
    3G       H1   80   3.530   4.266   4.425
    3G       C2   81   3.657   4.370   4.544
    3G       N2   82   3.626   4.293   4.644
    3G      H21   83   3.563   4.214   4.632
    3G      H22   84   3.672   4.300   4.735
    3G       N3   85   3.745   4.469   4.560
    3G       C4   86   3.769   4.539   4.445
    3G      C3'   87   4.165   4.724   4.479
    3G      H3'   88   4.160   4.697   4.374
    3G      C2'   89   4.066   4.637   4.558
    3G      H2'   90   4.064   4.537   4.516
    3G      O2'   91   4.090   4.633   4.698
    3G     HO2'   92   4.097   4.540   4.724
    3G      O3'   93   4.300   4.724   4.524
    4G        P   94   4.398   4.603   4.491
    4G      OP1   95   4.531   4.637   4.546
    4G      OP2   96   4.386   4.574   4.346
    4G      O5'   97   4.336   4.482   4.574
    4G      C5'   98   4.327   4.351   4.520
    4G      H5'   99   4.424   4.303   4.522
    4G     H5''  100   4.291   4.354   4.417
    4G      C4'  101   4.227   4.270   4.603
    4G      H4'  102   4.256   4.276   4.708
    4G      O4'  103   4.094   4.320   4.592
    4G      C1'  104   4.003   4.213   4.574
    4G      H1'  105   3.916   4.224   4.640
    4G       N9  106   3.955   4.212   4.433
    4G       C8  107   3.987   4.299   4.331
    4G       H8  108   4.061   4.376   4.342
    4G       N7  109   3.920   4.279   4.221
    4G       C5  110   3.835   4.173   4.252
    4G       C6  111   3.729   4.109   4.178
    4G       O6  112   3.687   4.132   4.064
    4G       N1  113   3.666   4.008   4.248
    4G       H1  114   3.590   3.960   4.203
    4G       C2  115   3.695   3.976   4.376
    4G       N2  116   3.626   3.881   4.433
    4G      H21  117   3.553   3.832   4.381
    4G      H22  118   3.642   3.869   4.531
    4G       N3  119   3.789   4.034   4.450
    4G       C4  120   3.856   4.132   4.382
    4G      C3'  121   4.223   4.124   4.562
    4G      H3'  122   4.229   4.115   4.454
    4G      C2'  123   4.081   4.085   4.609
    4G      H2'  124   4.044   3.999   4.553
    4G      O2'  125   4.073   4.062   4.749
    4G     HO2'  126   3.980   4.050   4.773
    4G      O3'  127   4.329   4.054   4.626
    5G        P  128   4.409   3.941   4.549
    5G      OP1  129   4.508   3.890   4.646
    5G      OP2  130   4.459   4.001   4.423
    5G      O5'  131   4.297   3.830   4.518
    5G      C5'  132   4.235   3.758   4.624
    5G      H5'  133   4.200   3.829   4.699
    5G     H5''  134   4.309   3.693   4.671
    5G      C4'  135   4.114   3.673   4.581
    5G      H4'  136   4.073   3.624   4.670
    5G      O4'  137   4.011   3.751   4.523
    5G      C1'  138   3.941   3.673   4.427
    5G      H1'  139   3.836   3.661   4.456
    5G       N9  140   3.944   3.741   4.296
    5G       C8  141   4.027   3.843   4.255
    5G       H8  142   4.107   3.880   4.317
    5G       N7  143   3.998   3.891   4.138
    5G       C5  144   3.887   3.816   4.096
    5G       C6  145   3.805   3.822   3.978
    5G       O6  146   3.811   3.896   3.880
    5G       N1  147   3.703   3.729   3.977
    5G       H1  148   3.643   3.728   3.897
    5G       C2  149   3.680   3.641   4.077
    5G       N2  150   3.580   3.559   4.060
    5G      H21  151   3.527   3.559   3.973
    5G      H22  152   3.561   3.489   4.131
    5G       N3  153   3.752   3.633   4.189
    5G       C4  154   3.855   3.723   4.193
    5G      C3'  155   4.147   3.563   4.481
    5G      H3'  156   4.212   3.603   4.403
    5G      C2'  157   4.008   3.534   4.423
    5G      H2'  158   4.015   3.496   4.321
    5G      O2'  159   3.931   3.448   4.505
    5G     HO2'  160   3.988   3.376   4.535
    5G      O3'  161   4.208   3.451   4.544
    6U        P  162   4.285   3.339   4.460
    6U      OP1  163   4.415   3.309   4.523
    6U      OP2  164   4.283   3.375   4.317
    6U      O5'  165   4.194   3.210   4.478
    6U      C5'  166   4.187   3.140   4.601
    6U      H5'  167   4.168   3.210   4.682
    6U     H5''  168   4.282   3.090   4.619
    6U      C4'  169   4.075   3.036   4.598
    6U      H4'  170   4.071   2.983   4.693
    6U      O4'  171   3.949   3.100   4.578
    6U      C1'  172   3.868   3.017   4.495
    6U      H1'  173   3.773   2.997   4.544
    6U       N1  174   3.840   3.080   4.363
    6U       C6  175   3.915   3.184   4.313
    6U       H6  176   3.996   3.224   4.371
    6U       C5  177   3.888   3.239   4.192
    6U       H5  178   3.947   3.321   4.155
    6U       C4  179   3.778   3.192   4.112
    6U       O4  180   3.746   3.236   4.003
    6U       N3  181   3.707   3.088   4.168
    6U       H3  182   3.628   3.053   4.116
    6U       C2  183   3.731   3.030   4.290
    6U       O2  184   3.660   2.939   4.331
    6U      C3'  185   4.090   2.933   4.486
    6U      H3'  186   4.118   2.983   4.394
    6U      C2'  187   3.945   2.885   4.475
    6U      H2'  188   3.926   2.845   4.376
    6U      O2'  189   3.905   2.790   4.574
    6U     HO2'  190   3.813   2.765   4.556
    6U      O3'  191   4.181   2.829   4.517
    7C        P  192   4.281   2.774   4.405
    7C      OP1  193   4.344   2.653   4.461
    7C      OP2  194   4.367   2.887   4.362
    7C      O5'  195   4.189   2.734   4.281
    7C      C5'  196   4.098   2.625   4.286
    7C      H5'  197   4.042   2.630   4.379
    7C     H5''  198   4.153   2.531   4.284
    7C      C4'  199   3.997   2.629   4.169
    7C      H4'  200   3.924   2.549   4.184
    7C      O4'  201   3.927   2.753   4.169
    7C      C1'  202   3.903   2.797   4.037
    7C      H1'  203   3.796   2.820   4.024
    7C       N1  204   3.981   2.919   4.000
    7C       C6  205   4.081   2.970   4.079
    7C       H6  206   4.105   2.922   4.172
    7C       C5  207   4.149   3.081   4.040
    7C       H5  208   4.227   3.122   4.103
    7C       C4  209   4.111   3.141   3.917
    7C       N4  210   4.173   3.246   3.871
    7C      H41  211   4.141   3.281   3.781
    7C      H42  212   4.252   3.283   3.919
    7C       N3  213   4.013   3.095   3.844
    7C       C2  214   3.944   2.986   3.882
    7C       O2  215   3.850   2.945   3.814
    7C      C3'  216   4.053   2.613   4.028
    7C      H3'  217   4.143   2.673   4.018
    7C      C2'  218   3.941   2.679   3.947
    7C      H2'  219   3.980   2.712   3.850
    7C      O2'  220   3.823   2.600   3.928
    7C     HO2'  221   3.765   2.648   3.869
    7C      O3'  222   4.075   2.480   3.983
    8G        P  223   4.221   2.416   3.981
    8G      OP1  224   4.217   2.300   3.889
    8G      OP2  225   4.263   2.390   4.120
    8G      O5'  226   4.315   2.532   3.921
    8G      C5'  227   4.364   2.533   3.788
    8G      H5'  228   4.417   2.439   3.770
    8G     H5''  229   4.437   2.613   3.780
    8G      C4'  230   4.260   2.552   3.675
    8G      H4'  231   4.200   2.462   3.667
    8G      O4'  232   4.173   2.664   3.692
    8G      C1'  233   4.212   2.772   3.607
    8G      H1'  234   4.124   2.824   3.568
    8G       N9  235   4.293   2.872   3.683
    8G       C8  236   4.334   2.864   3.813
    8G       H8  237   4.309   2.780   3.876
    8G       N7  238   4.408   2.964   3.854
    8G       C5  239   4.410   3.049   3.742
    8G       C6  240   4.472   3.178   3.724
    8G       O6  241   4.538   3.244   3.804
    8G       N1  242   4.450   3.231   3.598
    8G       H1  243   4.506   3.311   3.573
    8G       C2  244   4.369   3.174   3.505
    8G       N2  245   4.347   3.245   3.396
    8G      H21  246   4.378   3.341   3.392
    8G      H22  247   4.275   3.214   3.332
    8G       N3  248   4.309   3.056   3.517
    8G       C4  249   4.335   2.996   3.638
    8G      C3'  250   4.338   2.574   3.544
    8G      H3'  251   4.443   2.590   3.569
    8G      C2'  252   4.290   2.710   3.491
    8G      H2'  253   4.378   2.771   3.469
    8G      O2'  254   4.206   2.705   3.376
    8G     HO2'  255   4.252   2.760   3.309
    8G      O3'  256   4.330   2.463   3.454
    9C        P  257   4.455   2.366   3.436
    9C      OP1  258   4.432   2.277   3.319
    9C      OP2  259   4.490   2.303   3.566
    9C      O5'  260   4.568   2.469   3.395
    9C      C5'  261   4.696   2.471   3.454
    9C      H5'  262   4.735   2.370   3.461
    9C     H5''  263   4.690   2.515   3.554
    9C      C4'  264   4.790   2.555   3.367
    9C      H4'  265   4.891   2.545   3.407
    9C      O4'  266   4.791   2.508   3.231
    9C      C1'  267   4.789   2.619   3.140
    9C      H1'  268   4.870   2.609   3.068
    9C       N1  269   4.660   2.633   3.065
    9C       C6  270   4.552   2.552   3.091
    9C       H6  271   4.557   2.478   3.169
    9C       C5  272   4.438   2.564   3.018
    9C       H5  273   4.353   2.502   3.041
    9C       C4  274   4.437   2.659   2.914
    9C       N4  275   4.332   2.671   2.838
    9C      H41  276   4.337   2.732   2.757
    9C      H42  277   4.247   2.624   2.863
    9C       N3  278   4.542   2.732   2.882
    9C       C2  279   4.654   2.721   2.956
    9C       O2  280   4.751   2.790   2.921
    9C      C3'  281   4.757   2.704   3.363
    9C      H3'  282   4.649   2.719   3.364
    9C      C2'  283   4.816   2.741   3.227
    9C      H2'  284   4.766   2.829   3.188
    9C      O2'  285   4.957   2.761   3.232
    9C     HO2'  286   4.971   2.837   3.289
    9C      O3'  287   4.823   2.778   3.466
   10A        P  288   4.742   2.887   3.550
   10A      OP1  289   4.842   2.947   3.641
   10A      OP2  290   4.621   2.822   3.603
   10A      O5'  291   4.705   2.993   3.436
   10A      C5'  292   4.803   3.083   3.386
   10A      H5'  293   4.896   3.028   3.371
   10A     H5''  294   4.822   3.160   3.460
   10A      C4'  295   4.764   3.148   3.253
   10A      H4'  296   4.853   3.196   3.211
   10A      O4'  297   4.719   3.052   3.158
   10A      C1'  298   4.605   3.101   3.088
   10A      H1'  299   4.624   3.095   2.981
   10A       N9  300   4.484   3.021   3.115
   10A       C8  301   4.459   2.932   3.217
   10A       H8  302   4.525   2.918   3.301
   10A       N7  303   4.349   2.863   3.201
   10A       C5  304   4.296   2.915   3.082
   10A       C6  305   4.178   2.891   3.008
   10A       N6  306   4.082   2.808   3.043
   10A      H61  307   3.993   2.825   2.999
   10A      H62  308   4.088   2.765   3.134
   10A       N1  309   4.152   2.959   2.896
   10A       C2  310   4.240   3.049   2.857
   10A       H2  311   4.215   3.103   2.766
   10A       N3  312   4.355   3.083   2.915
   10A       C4  313   4.377   3.011   3.030
   10A      C3'  314   4.658   3.257   3.263
   10A      H3'  315   4.590   3.234   3.344
   10A      C2'  316   4.587   3.248   3.127
   10A      H2'  317   4.482   3.274   3.139
   10A      O2'  318   4.647   3.324   3.022
   10A     HO2'  319   4.596   3.312   2.942
   10A      O3'  320   4.722   3.382   3.280
   11G        P  321   4.701   3.472   3.409
   11G      OP1  322   4.811   3.570   3.408
   11G      OP2  323   4.685   3.386   3.527
   11G      O5'  324   4.561   3.546   3.386
   11G      C5'  325   4.549   3.647   3.287
   11G      H5'  326   4.560   3.602   3.188
   11G     H5''  327   4.628   3.720   3.301
   11G      C4'  328   4.413   3.718   3.294
   11G      H4'  329   4.405   3.791   3.214
   11G      O4'  330   4.310   3.621   3.278
   11G      C1'  331   4.199   3.661   3.356
   11G      H1'  332   4.115   3.683   3.290
   11G       N9  333   4.158   3.551   3.444
   11G       C8  334   4.216   3.502   3.558
   11G       H8  335   4.305   3.545   3.602
   11G       N7  336   4.155   3.398   3.608
   11G       C5  337   4.047   3.378   3.521
   11G       C6  338   3.943   3.280   3.517
   11G       O6  339   3.925   3.182   3.587
   11G       N1  340   3.851   3.300   3.416
   11G       H1  341   3.779   3.231   3.408
   11G       C2  342   3.860   3.397   3.324
   11G       N2  343   3.767   3.402   3.233
   11G      H21  344   3.693   3.333   3.232
   11G      H22  345   3.771   3.477   3.164
   11G       N3  346   3.957   3.488   3.320
   11G       C4  347   4.047   3.474   3.422
   11G      C3'  348   4.387   3.790   3.428
   11G      H3'  349   4.427   3.730   3.510
   11G      C2'  350   4.234   3.788   3.432
   11G      H2'  351   4.197   3.786   3.534
   11G      O2'  352   4.172   3.893   3.358
   11G     HO2'  353   4.190   3.975   3.405
   11G      O3'  354   4.429   3.925   3.443
   12U        P  355   4.567   3.984   3.389
   12U      OP1  356   4.575   3.969   3.242
   12U      OP2  357   4.679   3.937   3.473
   12U      O5'  358   4.547   4.140   3.419
   12U      C5'  359   4.422   4.206   3.402
   12U      H5'  360   4.399   4.256   3.496
   12U     H5''  361   4.342   4.135   3.384
   12U      C4'  362   4.419   4.312   3.291
   12U      H4'  363   4.343   4.383   3.321
   12U      O4'  364   4.542   4.382   3.279
   12U      C1'  365   4.574   4.402   3.142
   12U      H1'  366   4.563   4.508   3.119
   12U       N1  367   4.714   4.359   3.114
   12U       C6  368   4.759   4.237   3.160
   12U       H6  369   4.694   4.178   3.223
   12U       C5  370   4.882   4.191   3.126
   12U       H5  371   4.913   4.095   3.164
   12U       C4  372   4.970   4.266   3.040
   12U       O4  373   5.081   4.228   3.003
   12U       N3  374   4.919   4.388   2.999
   12U       H3  375   4.976   4.444   2.938
   12U       C2  376   4.795   4.439   3.032
   12U       O2  377   4.763   4.549   2.989
   12U      C3'  378   4.381   4.255   3.153
   12U      H3'  379   4.404   4.149   3.151
   12U      C2'  380   4.477   4.323   3.053
   12U      H2'  381   4.528   4.245   2.998
   12U      O2'  382   4.419   4.414   2.962
   12U     HO2'  383   4.349   4.462   3.011
   12U      O3'  384   4.241   4.267   3.123
   13A        P  385   4.154   4.400   3.139
   13A      OP1  386   4.243   4.518   3.126
   13A      OP2  387   4.068   4.390   3.259
   13A      O5'  388   4.065   4.390   3.009
   13A      C5'  389   4.094   4.465   2.892
   13A      H5'  390   4.200   4.485   2.884
   13A     H5''  391   4.041   4.560   2.898
   13A      C4'  392   4.052   4.391   2.765
   13A      H4'  393   4.057   4.461   2.682
   13A      O4'  394   4.137   4.280   2.734
   13A      C1'  395   4.059   4.174   2.679
   13A      H1'  396   4.092   4.152   2.577
   13A       N9  397   4.076   4.050   2.760
   13A       C8  398   4.162   4.029   2.865
   13A       H8  399   4.217   4.110   2.913
   13A       N7  400   4.175   3.904   2.900
   13A       C5  401   4.086   3.837   2.815
   13A       C6  402   4.045   3.703   2.801
   13A       N6  403   4.089   3.604   2.877
   13A      H61  404   4.047   3.513   2.872
   13A      H62  405   4.150   3.629   2.953
   13A       N1  406   3.955   3.667   2.710
   13A       C2  407   3.906   3.763   2.632
   13A       H2  408   3.832   3.731   2.559
   13A       N3  409   3.934   3.893   2.632
   13A       C4  410   4.026   3.925   2.729
   13A      C3'  411   3.909   4.340   2.773
   13A      H3'  412   3.888   4.301   2.872
   13A      C2'  413   3.915   4.225   2.672
   13A      H2'  414   3.847   4.146   2.701
   13A      O2'  415   3.886   4.269   2.540
   13A     HO2'  416   3.804   4.319   2.550
   13A      O3'  417   3.819   4.444   2.736
   14A        P  418   3.704   4.492   2.837
   14A      OP1  419   3.634   4.610   2.781
   14A      OP2  420   3.755   4.495   2.975
   14A      O5'  421   3.610   4.366   2.819
   14A      C5'  422   3.539   4.349   2.699
   14A      H5'  423   3.602   4.378   2.615
   14A     H5''  424   3.450   4.411   2.700
   14A      C4'  425   3.500   4.203   2.681
   14A      H4'  426   3.442   4.192   2.589
   14A      O4'  427   3.614   4.118   2.672
   14A      C1'  428   3.583   3.993   2.732
   14A      H1'  429   3.594   3.913   2.660
   14A       N9  430   3.672   3.962   2.846
   14A       C8  431   3.754   4.045   2.919
   14A       H8  432   3.756   4.152   2.906
   14A       N7  433   3.831   3.983   3.003
   14A       C5  434   3.792   3.849   2.990
   14A       C6  435   3.828   3.727   3.052
   14A       N6  436   3.921   3.717   3.145
   14A      H61  437   3.933   3.629   3.193
   14A      H62  438   3.969   3.801   3.174
   14A       N1  439   3.766   3.613   3.022
   14A       C2  440   3.671   3.617   2.930
   14A       H2  441   3.622   3.524   2.908
   14A       N3  442   3.627   3.723   2.861
   14A       C4  443   3.693   3.836   2.897
   14A      C3'  444   3.416   4.152   2.797
   14A      H3'  445   3.461   4.183   2.891
   14A      C2'  446   3.437   4.001   2.779
   14A      H2'  447   3.426   3.952   2.874
   14A      O2'  448   3.356   3.940   2.679
   14A     HO2'  449   3.363   3.845   2.695
   14A      O3'  450   3.282   4.200   2.786
   15C        P  451   3.199   4.238   2.917
   15C      OP1  452   3.064   4.278   2.871
   15C      OP2  453   3.277   4.336   2.995
   15C      O5'  454   3.193   4.097   2.992
   15C      C5'  455   3.117   3.990   2.938
   15C      H5'  456   3.139   3.980   2.832
   15C     H5''  457   3.011   4.013   2.949
   15C      C4'  458   3.146   3.855   3.006
   15C      H4'  459   3.079   3.780   2.964
   15C      O4'  460   3.280   3.811   2.985
   15C      C1'  461   3.324   3.741   3.101
   15C      H1'  462   3.356   3.640   3.073
   15C       N1  463   3.439   3.808   3.169
   15C       C6  464   3.470   3.940   3.149
   15C       H6  465   3.406   4.001   3.086
   15C       C5  466   3.579   3.994   3.208
   15C       H5  467   3.605   4.097   3.190
   15C       C4  468   3.659   3.909   3.290
   15C       N4  469   3.766   3.955   3.348
   15C      H41  470   3.820   3.890   3.405
   15C      H42  471   3.804   4.042   3.319
   15C       N3  472   3.628   3.784   3.313
   15C       C2  473   3.520   3.730   3.252
   15C       O2  474   3.495   3.611   3.272
   15C      C3'  475   3.123   3.857   3.156
   15C      H3'  476   3.169   3.945   3.200
   15C      C2'  477   3.203   3.731   3.194
   15C      H2'  478   3.233   3.735   3.299
   15C      O2'  479   3.141   3.607   3.165
   15C     HO2'  480   3.164   3.546   3.237
   15C      O3'  481   2.984   3.854   3.183
   16C        P  482   2.924   3.904   3.322
   16C      OP1  483   2.777   3.886   3.310
   16C      OP2  484   2.976   4.039   3.351
   16C      O5'  485   2.985   3.798   3.425
   16C      C5'  486   2.939   3.663   3.423
   16C      H5'  487   2.952   3.621   3.323
   16C     H5''  488   2.832   3.662   3.445
   16C      C4'  489   3.010   3.573   3.525
   16C      H4'  490   2.965   3.475   3.521
   16C      O4'  491   3.150   3.558   3.501
   16C      C1'  492   3.218   3.547   3.626
   16C      H1'  493   3.278   3.455   3.631
   16C       N1  494   3.311   3.661   3.650
   16C       C6  495   3.312   3.772   3.568
   16C       H6  496   3.232   3.785   3.497
   16C       C5  497   3.412   3.863   3.577
   16C       H5  498   3.414   3.948   3.511
   16C       C4  499   3.512   3.840   3.675
   16C       N4  500   3.610   3.926   3.687
   16C      H41  501   3.682   3.908   3.757
   16C      H42  502   3.627   3.993   3.615
   16C       N3  503   3.508   3.741   3.761
   16C       C2  504   3.410   3.648   3.750
   16C       O2  505   3.407   3.555   3.831
   16C      C3'  506   2.995   3.624   3.668
   16C      H3'  507   3.019   3.730   3.672
   16C      C2'  508   3.108   3.543   3.733
   16C      H2'  509   3.141   3.588   3.826
   16C      O2'  510   3.078   3.406   3.754
   16C     HO2'  511   3.152   3.367   3.804
   16C      O3'  512   2.865   3.599   3.718
   17C        P  513   2.803   3.687   3.836
   17C      OP1  514   2.667   3.636   3.866
   17C      OP2  515   2.821   3.830   3.806
   17C      O5'  516   2.896   3.652   3.960
   17C      C5'  517   2.897   3.522   4.017
   17C      H5'  518   2.926   3.449   3.943
   17C     H5''  519   2.797   3.498   4.052
   17C      C4'  520   2.992   3.513   4.137
   17C      H4'  521   2.975   3.418   4.186
   17C      O4'  522   3.129   3.517   4.098
   17C      C1'  523   3.203   3.590   4.197
   17C      H1'  524   3.289   3.532   4.232
   17C       N1  525   3.255   3.717   4.139
   17C       C6  526   3.206   3.769   4.021
   17C       H6  527   3.117   3.727   3.978
   17C       C5  528   3.268   3.872   3.959
   17C       H5  529   3.230   3.910   3.866
   17C       C4  530   3.386   3.922   4.020
   17C       N4  531   3.448   4.022   3.965
   17C      H41  532   3.535   4.053   4.009
   17C      H42  533   3.431   4.044   3.869
   17C       N3  534   3.431   3.880   4.136
   17C       C2  535   3.367   3.777   4.198
   17C       O2  536   3.408   3.740   4.308
   17C      C3'  537   2.971   3.623   4.240
   17C      H3'  538   2.965   3.721   4.191
   17C      C2'  539   3.105   3.610   4.313
   17C      H2'  540   3.129   3.699   4.371
   17C      O2'  541   3.104   3.494   4.396
   17C     HO2'  542   3.181   3.497   4.458
   17C      O3'  543   2.856   3.600   4.322
   18C        P  544   2.786   3.722   4.398
   18C      OP1  545   2.680   3.666   4.485
   18C      OP2  546   2.748   3.824   4.298
   18C      O5'  547   2.899   3.782   4.493
   18C      C5'  548   2.934   3.715   4.612
   18C      H5'  549   2.961   3.611   4.590
   18C     H5''  550   2.848   3.715   4.680
   18C      C4'  551   3.051   3.779   4.685
   18C      H4'  552   3.068   3.724   4.777
   18C      O4'  553   3.171   3.773   4.607
   18C      C1'  554   3.249   3.889   4.636
   18C      H1'  555   3.350   3.860   4.667
   18C       N1  556   3.260   3.979   4.517
   18C       C6  557   3.175   3.968   4.409
   18C       H6  558   3.093   3.899   4.413
   18C       C5  559   3.195   4.043   4.298
   18C       H5  560   3.130   4.033   4.214
   18C       C4  561   3.304   4.134   4.301
   18C       N4  562   3.330   4.208   4.197
   18C      H41  563   3.415   4.263   4.206
   18C      H42  564   3.305   4.172   4.107
   18C       N3  565   3.385   4.148   4.403
   18C       C2  566   3.364   4.071   4.513
   18C       O2  567   3.439   4.087   4.609
   18C      C3'  568   3.032   3.927   4.722
   18C      H3'  569   2.999   3.982   4.634
   18C      C2'  570   3.179   3.959   4.753
   18C      H2'  571   3.198   4.065   4.753
   18C      O2'  572   3.227   3.896   4.871
   18C     HO2'  573   3.258   3.964   4.935
   18C      O3'  574   2.941   3.946   4.830
   19A        P  575   2.847   4.076   4.838
   19A      OP1  576   2.749   4.056   4.947
   19A      OP2  577   2.794   4.106   4.703
   19A      O5'  578   2.947   4.195   4.877
   19A      C5'  579   3.014   4.196   5.002
   19A      H5'  580   3.048   4.095   5.025
   19A     H5''  581   2.946   4.228   5.080
   19A      C4'  582   3.139   4.287   5.003
   19A      H4'  583   3.190   4.274   5.098
   19A      O4'  584   3.229   4.248   4.900
   19A      C1'  585   3.297   4.362   4.850
   19A      H1'  586   3.406   4.347   4.853
   19A       N9  587   3.255   4.385   4.709
   19A       C8  588   3.163   4.315   4.635
   19A       H8  589   3.101   4.238   4.678
   19A       N7  590   3.157   4.349   4.509
   19A       C5  591   3.254   4.450   4.499
   19A       C6  592   3.304   4.529   4.394
   19A       N6  593   3.272   4.512   4.267
   19A      H61  594   3.328   4.562   4.198
   19A      H62  595   3.233   4.422   4.246
   19A       N1  596   3.396   4.623   4.416
   19A       C2  597   3.442   4.638   4.539
   19A       H2  598   3.517   4.714   4.554
   19A       N3  599   3.408   4.568   4.647
   19A       C4  600   3.312   4.475   4.621
   19A      C3'  601   3.114   4.437   4.984
   19A      H3'  602   3.044   4.452   4.902
   19A      C2'  603   3.256   4.478   4.941
   19A      H2'  604   3.255   4.573   4.888
   19A      O2'  605   3.347   4.482   5.050
   19A     HO2'  606   3.435   4.505   5.012
   19A      O3'  607   3.069   4.501   5.103
   20G        P  608   3.005   4.647   5.102
   20G      OP1  609   2.974   4.681   5.242
   20G      OP2  610   2.893   4.647   5.005
   20G      O5'  611   3.114   4.752   5.051
   20G      C5'  612   3.225   4.789   5.132
   20G      H5'  613   3.286   4.701   5.152
   20G     H5''  614   3.190   4.828   5.227
   20G      C4'  615   3.314   4.895   5.066
   20G      H4'  616   3.407   4.904   5.123
   20G      O4'  617   3.345   4.851   4.934
   20G      C1'  618   3.296   4.945   4.841
   20G      H1'  619   3.379   5.009   4.811
   20G       N9  620   3.236   4.881   4.722
   20G       C8  621   3.149   4.775   4.715
   20G       H8  622   3.121   4.717   4.802
   20G       N7  623   3.102   4.753   4.595
   20G       C5  624   3.168   4.848   4.516
   20G       C6  625   3.163   4.875   4.375
   20G       O6  626   3.098   4.819   4.286
   20G       N1  627   3.239   4.985   4.338
   20G       H1  628   3.243   5.006   4.239
   20G       C2  629   3.307   5.063   4.425
   20G       N2  630   3.358   5.174   4.378
   20G      H21  631   3.360   5.189   4.277
   20G      H22  632   3.413   5.231   4.441
   20G       N3  633   3.309   5.046   4.557
   20G       C4  634   3.243   4.932   4.595
   20G      C3'  635   3.245   5.033   5.056
   20G      H3'  636   3.163   5.042   5.127
   20G      C2'  637   3.190   5.028   4.913
   20G      H2'  638   3.096   4.972   4.915
   20G      O2'  639   3.170   5.152   4.846
   20G     HO2'  640   3.181   5.136   4.752
   20G      O3'  641   3.334   5.143   5.071
   21U        P  642   3.394   5.186   5.213
   21U      OP1  643   3.389   5.071   5.305
   21U      OP2  644   3.337   5.316   5.256
   21U      O5'  645   3.545   5.213   5.170
   21U      C5'  646   3.655   5.140   5.220
   21U      H5'  647   3.653   5.037   5.184
   21U     H5''  648   3.652   5.139   5.329
   21U      C4'  649   3.785   5.209   5.173
   21U      H4'  650   3.870   5.163   5.223
   21U      O4'  651   3.802   5.189   5.033
   21U      C1'  652   3.825   5.311   4.965
   21U      H1'  653   3.924   5.305   4.919
   21U       N1  654   3.726   5.333   4.856
   21U       C6  655   3.603   5.271   4.855
   21U       H6  656   3.575   5.204   4.936
   21U       C5  657   3.516   5.288   4.751
   21U       H5  658   3.421   5.237   4.752
   21U       C4  659   3.550   5.371   4.638
   21U       O4  660   3.479   5.392   4.540
   21U       N3  661   3.674   5.430   4.646
   21U       H3  662   3.703   5.485   4.568
   21U       C2  663   3.763   5.418   4.751
   21U       O2  664   3.868   5.483   4.748
   21U      C3'  665   3.783   5.361   5.199
   21U      H3'  666   3.679   5.392   5.209
   21U      C2'  667   3.827   5.426   5.067
   21U      H2'  668   3.752   5.500   5.039
   21U      O2'  669   3.955   5.487   5.068
   21U     HO2'  670   4.010   5.440   5.136
   21U      O3'  671   3.842   5.413   5.319
   22U        P  672   3.986   5.376   5.376
   22U      OP1  673   4.008   5.467   5.490
   22U      OP2  674   4.083   5.375   5.265
   22U      O5'  675   3.968   5.230   5.437
   22U      C5'  676   4.065   5.127   5.424
   22U      H5'  677   4.162   5.161   5.462
   22U     H5''  678   4.076   5.100   5.319
   22U      C4'  679   4.022   5.002   5.503
   22U      H4'  680   4.095   4.924   5.484
   22U      O4'  681   4.020   5.024   5.644
   22U      C1'  682   3.897   4.977   5.700
   22U      H1'  683   3.918   4.891   5.763
   22U       N1  684   3.838   5.084   5.785
   22U       C6  685   3.853   5.218   5.754
   22U       H6  686   3.890   5.246   5.656
   22U       C5  687   3.827   5.315   5.846
   22U       H5  688   3.840   5.419   5.821
   22U       C4  689   3.782   5.281   5.980
   22U       O4  690   3.765   5.358   6.074
   22U       N3  691   3.759   5.147   5.999
   22U       H3  692   3.729   5.118   6.090
   22U       C2  693   3.782   5.047   5.908
   22U       O2  694   3.752   4.932   5.938
   22U      C3'  695   3.882   4.955   5.460
   22U      H3'  696   3.830   5.039   5.414
   22U      C2'  697   3.802   4.928   5.589
   22U      H2'  698   3.711   4.988   5.587
   22U      O2'  699   3.767   4.793   5.616
   22U     HO2'  700   3.835   4.735   5.572
   22U      O3'  701   3.884   4.856   5.360
   23A        P  702   3.972   4.722   5.365
   23A      OP1  703   3.960   4.665   5.501
   23A      OP2  704   4.106   4.752   5.310
   23A      O5'  705   3.888   4.636   5.263
   23A      C5'  706   3.749   4.613   5.283
   23A      H5'  707   3.708   4.685   5.353
   23A     H5''  708   3.735   4.514   5.325
   23A      C4'  709   3.672   4.626   5.152
   23A      H4'  710   3.568   4.599   5.170
   23A      O4'  711   3.675   4.760   5.104
   23A      C1'  712   3.671   4.757   4.963
   23A      H1'  713   3.578   4.802   4.928
   23A       N9  714   3.782   4.838   4.909
   23A       C8  715   3.911   4.852   4.956
   23A       H8  716   3.948   4.797   5.041
   23A       N7  717   3.983   4.940   4.889
   23A       C5  718   3.893   4.985   4.791
   23A       C6  719   3.899   5.080   4.686
   23A       N6  720   4.005   5.153   4.657
   23A      H61  721   4.000   5.212   4.577
   23A      H62  722   4.088   5.136   4.710
   23A       N1  723   3.794   5.104   4.607
   23A       C2  724   3.683   5.034   4.630
   23A       H2  725   3.599   5.056   4.567
   23A       N3  726   3.661   4.946   4.726
   23A       C4  727   3.771   4.924   4.803
   23A      C3'  728   3.724   4.536   5.040
   23A      H3'  729   3.833   4.535   5.041
   23A      C2'  730   3.674   4.611   4.916
   23A      H2'  731   3.740   4.594   4.831
   23A      O2'  732   3.540   4.577   4.887
   23A     HO2'  733   3.523   4.577   4.791
   23A      O3'  734   3.668   4.407   5.054
   24A        P  735   3.753   4.275   5.028
   24A      OP1  736   3.896   4.304   5.052
   24A      OP2  737   3.710   4.219   4.898
   24A      O5'  738   3.698   4.186   5.150
   24A      C5'  739   3.738   4.218   5.282
   24A      H5'  740   3.711   4.322   5.301
   24A     H5''  741   3.846   4.209   5.289
   24A      C4'  742   3.673   4.134   5.392
   24A      H4'  743   3.719   4.164   5.486
   24A      O4'  744   3.533   4.156   5.405
   24A      C1'  745   3.469   4.032   5.431
   24A      H1'  746   3.409   4.037   5.522
   24A       N9  747   3.380   3.997   5.319
   24A       C8  748   3.379   4.046   5.190
   24A       H8  749   3.453   4.116   5.153
   24A       N7  750   3.279   4.002   5.119
   24A       C5  751   3.210   3.916   5.206
   24A       C6  752   3.094   3.835   5.198
   24A       N6  753   3.016   3.823   5.093
   24A      H61  754   2.933   3.768   5.103
   24A      H62  755   3.037   3.873   5.007
   24A       N1  756   3.052   3.763   5.302
   24A       C2  757   3.123   3.770   5.414
   24A       H2  758   3.087   3.711   5.497
   24A       N3  759   3.233   3.841   5.438
   24A       C4  760   3.272   3.912   5.328
   24A      C3'  761   3.698   3.985   5.375
   24A      H3'  762   3.696   3.956   5.270
   24A      C2'  763   3.578   3.927   5.451
   24A      H2'  764   3.549   3.830   5.411
   24A      O2'  765   3.605   3.918   5.591
   24A     HO2'  766   3.700   3.903   5.594
   24A      O3'  767   3.819   3.948   5.441
   25C        P  768   3.912   3.834   5.382
   25C      OP1  769   4.023   3.819   5.479
   25C      OP2  770   3.940   3.860   5.241
   25C      O5'  771   3.818   3.705   5.396
   25C      C5'  772   3.808   3.641   5.522
   25C      H5'  773   3.787   3.716   5.598
   25C     H5''  774   3.903   3.593   5.544
   25C      C4'  775   3.697   3.537   5.527
   25C      H4'  776   3.693   3.499   5.629
   25C      O4'  777   3.571   3.594   5.496
   25C      C1'  778   3.487   3.492   5.442
   25C      H1'  779   3.402   3.478   5.509
   25C       N1  780   3.434   3.526   5.307
   25C       C6  781   3.487   3.627   5.230
   25C       H6  782   3.578   3.677   5.261
   25C       C5  783   3.426   3.663   5.114
   25C       H5  784   3.467   3.743   5.054
   25C       C4  785   3.309   3.591   5.076
   25C       N4  786   3.245   3.621   4.967
   25C      H41  787   3.163   3.567   4.947
   25C      H42  788   3.269   3.706   4.917
   25C       N3  789   3.258   3.493   5.147
   25C       C2  790   3.318   3.459   5.264
   25C       O2  791   3.271   3.367   5.331
   25C      C3'  792   3.717   3.416   5.436
   25C      H3'  793   3.744   3.448   5.335
   25C      C2'  794   3.572   3.364   5.441
   25C      H2'  795   3.551   3.304   5.353
   25C      O2'  796   3.540   3.290   5.559
   25C     HO2'  797   3.450   3.257   5.548
   25C      O3'  798   3.811   3.325   5.490
   26A        P  799   3.871   3.203   5.407
   26A      OP1  800   3.920   3.107   5.510
   26A      OP2  801   3.968   3.252   5.309
   26A      O5'  802   3.744   3.133   5.335
   26A      C5'  803   3.733   3.119   5.194
   26A      H5'  804   3.785   3.028   5.162
   26A     H5''  805   3.776   3.204   5.141
   26A      C4'  806   3.583   3.109   5.157
   26A      H4'  807   3.530   3.064   5.241
   26A      O4'  808   3.529   3.238   5.134
   26A      C1'  809   3.431   3.234   5.031
   26A      H1'  810   3.335   3.270   5.068
   26A       N9  811   3.475   3.323   4.921
   26A       C8  812   3.583   3.408   4.918
   26A       H8  813   3.660   3.408   4.994
   26A       N7  814   3.585   3.490   4.817
   26A       C5  815   3.468   3.457   4.747
   26A       C6  816   3.406   3.506   4.630
   26A       N6  817   3.456   3.601   4.555
   26A      H61  818   3.411   3.629   4.469
   26A      H62  819   3.548   3.635   4.580
   26A       N1  820   3.289   3.455   4.589
   26A       C2  821   3.235   3.358   4.661
   26A       H2  822   3.141   3.320   4.624
   26A       N3  823   3.280   3.303   4.773
   26A       C4  824   3.399   3.356   4.811
   26A      C3'  825   3.551   3.026   5.034
   26A      H3'  826   3.627   3.042   4.956
   26A      C2'  827   3.417   3.087   4.989
   26A      H2'  828   3.406   3.077   4.881
   26A      O2'  829   3.302   3.034   5.057
   26A     HO2'  830   3.226   3.068   5.009
   26A      O3'  831   3.541   2.889   5.070
   27A        P  832   3.584   2.774   4.969
   27A      OP1  833   3.544   2.647   5.033
   27A      OP2  834   3.727   2.795   4.939
   27A      O5'  835   3.495   2.801   4.838
   27A      C5'  836   3.357   2.771   4.837
   27A      H5'  837   3.309   2.818   4.923
   27A     H5''  838   3.344   2.663   4.846
   27A      C4'  839   3.285   2.819   4.710
   27A      H4'  840   3.181   2.785   4.716
   27A      O4'  841   3.282   2.960   4.698
   27A      C1'  842   3.290   2.993   4.559
   27A      H1'  843   3.203   3.051   4.529
   27A       N9  844   3.409   3.077   4.536
   27A       C8  845   3.523   3.089   4.612
   27A       H8  846   3.543   3.026   4.697
   27A       N7  847   3.604   3.184   4.573
   27A       C5  848   3.538   3.237   4.461
   27A       C6  849   3.566   3.341   4.368
   27A       N6  850   3.673   3.418   4.371
   27A      H61  851   3.686   3.489   4.300
   27A      H62  852   3.744   3.403   4.442
   27A       N1  853   3.483   3.367   4.267
   27A       C2  854   3.373   3.294   4.258
   27A       H2  855   3.307   3.317   4.175
   27A       N3  856   3.331   3.196   4.338
   27A       C4  857   3.421   3.172   4.437
   27A      C3'  858   3.342   2.760   4.582
   27A      H3'  859   3.451   2.759   4.586
   27A      C2'  860   3.293   2.863   4.478
   27A      H2'  861   3.363   2.870   4.394
   27A      O2'  862   3.160   2.839   4.433
   27A     HO2'  863   3.167   2.781   4.356
   27A      O3'  864   3.288   2.629   4.567
   28A        P  865   3.364   2.513   4.489
   28A      OP1  866   3.299   2.388   4.536
   28A      OP2  867   3.509   2.530   4.505
   28A      O5'  868   3.321   2.538   4.337
   28A      C5'  869   3.197   2.489   4.292
   28A      H5'  870   3.121   2.508   4.368
   28A     H5''  871   3.204   2.382   4.276
   28A      C4'  872   3.150   2.557   4.164
   28A      H4'  873   3.047   2.527   4.144
   28A      O4'  874   3.154   2.698   4.180
   28A      C1'  875   3.165   2.755   4.052
   28A      H1'  876   3.072   2.807   4.026
   28A       N9  877   3.274   2.855   4.043
   28A       C8  878   3.402   2.854   4.092
   28A       H8  879   3.443   2.771   4.149
   28A       N7  880   3.468   2.964   4.066
   28A       C5  881   3.378   3.042   3.993
   28A       C6  882   3.376   3.172   3.936
   28A       N6  883   3.474   3.260   3.939
   28A      H61  884   3.462   3.346   3.888
   28A      H62  885   3.567   3.234   3.971
   28A       N1  886   3.269   3.217   3.870
   28A       C2  887   3.165   3.135   3.859
   28A       H2  888   3.081   3.172   3.803
   28A       N3  889   3.149   3.014   3.909
   28A       C4  890   3.261   2.974   3.976
   28A      C3'  891   3.230   2.524   4.037
   28A      H3'  892   3.337   2.529   4.057
   28A      C2'  893   3.185   2.643   3.951
   28A      H2'  894   3.260   2.667   3.877
   28A      O2'  895   3.057   2.623   3.891
   28A     HO2'  896   3.073   2.624   3.796
   28A      O3'  897   3.193   2.400   3.980
   29A        P  898   3.271   2.338   3.856
   29A      OP1  899   3.200   2.212   3.824
   29A      OP2  900   3.414   2.330   3.892
   29A      O5'  901   3.256   2.440   3.732
   29A      C5'  902   3.146   2.433   3.643
   29A      H5'  903   3.055   2.419   3.701
   29A     H5''  904   3.159   2.346   3.578
   29A      C4'  905   3.129   2.559   3.557
   29A      H4'  906   3.031   2.555   3.510
   29A      O4'  907   3.134   2.674   3.640
   29A      C1'  908   3.180   2.786   3.566
   29A      H1'  909   3.103   2.862   3.564
   29A       N9  910   3.303   2.848   3.619
   29A       C8  911   3.407   2.790   3.687
   29A       H8  912   3.407   2.686   3.717
   29A       N7  913   3.505   2.872   3.713
   29A       C5  914   3.464   2.993   3.655
   29A       C6  915   3.520   3.123   3.643
   29A       N6  916   3.636   3.159   3.692
   29A      H61  917   3.666   3.256   3.684
   29A      H62  918   3.697   3.091   3.736
   29A       N1  919   3.454   3.219   3.577
   29A       C2  920   3.335   3.190   3.526
   29A       H2  921   3.286   3.270   3.474
   29A       N3  922   3.269   3.074   3.530
   29A       C4  923   3.341   2.979   3.597
   29A      C3'  924   3.229   2.584   3.444
   29A      H3'  925   3.331   2.564   3.478
   29A      C2'  926   3.207   2.735   3.425
   29A      H2'  927   3.297   2.781   3.385
   29A      O2'  928   3.094   2.772   3.347
   29A     HO2'  929   3.129   2.787   3.258
   29A      O3'  930   3.199   2.508   3.326
   30C        P  931   3.303   2.493   3.206
   30C      OP1  932   3.238   2.417   3.097
   30C      OP2  933   3.431   2.444   3.260
   30C      O5'  934   3.325   2.642   3.153
   30C      C5'  935   3.232   2.704   3.067
   30C      H5'  936   3.131   2.690   3.104
   30C     H5''  937   3.239   2.659   2.968
   30C      C4'  938   3.260   2.855   3.054
   30C      H4'  939   3.174   2.904   3.008
   30C      O4'  940   3.283   2.916   3.181
   30C      C1'  941   3.386   3.013   3.169
   30C      H1'  942   3.349   3.110   3.204
   30C       N1  943   3.508   2.981   3.249
   30C       C6  944   3.534   2.857   3.300
   30C       H6  945   3.473   2.773   3.272
   30C       C5  946   3.636   2.838   3.388
   30C       H5  947   3.654   2.741   3.430
   30C       C4  948   3.716   2.951   3.420
   30C       N4  949   3.813   2.941   3.505
   30C      H41  950   3.855   3.029   3.536
   30C      H42  951   3.816   2.864   3.569
   30C       N3  952   3.695   3.070   3.367
   30C       C2  953   3.592   3.088   3.282
   30C       O2  954   3.572   3.201   3.237
   30C      C3'  955   3.381   2.887   2.968
   30C      H3'  956   3.462   2.816   2.988
   30C      C2'  957   3.418   3.026   3.020
   30C      H2'  958   3.524   3.046   3.003
   30C      O2'  959   3.337   3.133   2.972
   30C     HO2'  960   3.396   3.207   2.957
   30C      O3'  961   3.341   2.884   2.832
   31A        P  962   3.446   2.864   2.716
   31A      OP1  963   3.368   2.871   2.590
   31A      OP2  964   3.521   2.740   2.745
   31A      O5'  965   3.541   2.992   2.727
   31A      C5'  966   3.496   3.119   2.682
   31A      H5'  967   3.407   3.149   2.738
   31A     H5''  968   3.467   3.110   2.577
   31A      C4'  969   3.601   3.230   2.692
   31A      H4'  970   3.558   3.322   2.652
   31A      O4'  971   3.642   3.260   2.825
   31A      C1'  972   3.782   3.290   2.823
   31A      H1'  973   3.801   3.389   2.866
   31A       N9  974   3.847   3.191   2.913
   31A       C8  975   3.797   3.070   2.955
   31A       H8  976   3.714   3.022   2.905
   31A       N7  977   3.853   3.022   3.063
   31A       C5  978   3.952   3.117   3.092
   31A       C6  979   4.052   3.130   3.192
   31A       N6  980   4.069   3.047   3.294
   31A      H61  981   4.143   3.063   3.361
   31A      H62  982   3.998   2.978   3.311
   31A       N1  983   4.141   3.229   3.187
   31A       C2  984   4.128   3.319   3.091
   31A       H2  985   4.200   3.400   3.091
   31A       N3  986   4.038   3.323   2.992
   31A       C4  987   3.953   3.217   2.998
   31A      C3'  988   3.724   3.198   2.607
   31A      H3'  989   3.754   3.094   2.619
   31A      C2'  990   3.827   3.291   2.675
   31A      H2'  991   3.928   3.252   2.664
   31A      O2'  992   3.815   3.424   2.627
   31A     HO2'  993   3.886   3.481   2.662
   31A      O3'  994   3.684   3.226   2.473
   32A        P  995   3.765   3.178   2.344
   32A      OP1  996   3.665   3.160   2.237
   32A      OP2  997   3.853   3.064   2.378
   32A      O5'  998   3.854   3.304   2.306
   32A      C5'  999   3.794   3.420   2.252
   32A      H5' 1000   3.710   3.449   2.316
   32A     H5'' 1001   3.757   3.397   2.152
   32A      C4' 1002   3.891   3.537   2.242
   32A      H4' 1003   3.842   3.619   2.190
   32A      O4' 1004   3.929   3.583   2.372
   32A      C1' 1005   4.069   3.609   2.375
   32A      H1' 1006   4.088   3.710   2.411
   32A       N9 1007   4.138   3.515   2.467
   32A       C8 1008   4.114   3.382   2.493
   32A       H8 1009   4.039   3.325   2.441
   32A       N7 1010   4.187   3.331   2.589
   32A       C5 1011   4.265   3.439   2.631
   32A       C6 1012   4.361   3.461   2.733
   32A       N6 1013   4.401   3.374   2.824
   32A      H61 1014   4.450   3.416   2.901
   32A      H62 1015   4.358   3.283   2.829
   32A       N1 1016   4.420   3.579   2.748
   32A       C2 1017   4.383   3.677   2.667
   32A       H2 1018   4.433   3.772   2.683
   32A       N3 1019   4.295   3.674   2.568
   32A       C4 1020   4.238   3.551   2.555
   32A      C3' 1021   4.018   3.502   2.166
   32A      H3' 1022   4.044   3.400   2.192
   32A      C2' 1023   4.117   3.600   2.230
   32A      H2' 1024   4.219   3.563   2.224
   32A      O2' 1025   4.108   3.729   2.170
   32A     HO2' 1026   4.118   3.714   2.075
   32A      O3' 1027   4.009   3.518   2.025
   33G3       P 1028   4.080   3.416   1.923
   33G3     OP1 1029   4.074   3.475   1.788
   33G3     OP2 1030   4.022   3.281   1.943
   33G3     O5' 1031   4.233   3.416   1.970
   33G3     C5' 1032   4.280   3.324   2.068
   33G3     H5' 1033   4.290   3.226   2.023
   33G3    H5'' 1034   4.207   3.316   2.147
   33G3     C4' 1035   4.412   3.370   2.131
   33G3     H4' 1036   4.443   3.464   2.084
   33G3     O4' 1037   4.396   3.394   2.271
   33G3     C1' 1038   4.487   3.313   2.345
   33G3     H1' 1039   4.527   3.368   2.431
   33G3      N9 1040   4.421   3.190   2.396
   33G3      C8 1041   4.306   3.129   2.351
   33G3      H8 1042   4.239   3.173   2.280
   33G3      N7 1043   4.287   3.009   2.398
   33G3      C5 1044   4.390   2.994   2.490
   33G3      C6 1045   4.423   2.884   2.576
   33G3      O6 1046   4.374   2.772   2.582
   33G3      N1 1047   4.528   2.911   2.660
   33G3      H1 1048   4.547   2.844   2.733
   33G3      C2 1049   4.602   3.024   2.657
   33G3      N2 1050   4.704   3.028   2.738
   33G3     H21 1051   4.721   2.949   2.801
   33G3     H22 1052   4.764   3.107   2.734
   33G3      N3 1053   4.582   3.125   2.571
   33G3      C4 1054   4.471   3.106   2.493
   33G3     C3' 1055   4.524   3.267   2.113
   33G3     H3' 1056   4.482   3.167   2.103
   33G3     C2' 1057   4.600   3.276   2.246
   33G3     H2' 1058   4.644   3.179   2.270
   33G3     O2' 1059   4.700   3.377   2.242
   33G3    HO2' 1060   4.747   3.380   2.327
   33G3     O3' 1061   4.609   3.295   2.005
   33G3    HO3' 1062   4.678   3.351   2.042
   34pq0     N1 1063   3.728   3.628   3.533
   34pq0     C2 1064   3.666   3.523   3.583
   34pq0     N3 1065   3.697   3.449   3.683
   34pq0     C4 1066   3.809   3.495   3.747
   34pq0     C5 1067   3.879   3.604   3.708
   34pq0     C6 1068   3.838   3.679   3.591
   34pq0     O6 1069   3.893   3.776   3.543
   34pq0     C7 1070   3.987   3.623   3.798
   34pq0    C10 1071   4.088   3.725   3.791
   34pq0    N11 1072   4.175   3.802   3.786
   34pq0     C8 1073   3.981   3.522   3.892
   34pq0     N9 1074   3.870   3.443   3.858
   34pq0     N2 1075   3.558   3.493   3.518
   34pq0     H1 1076   3.692   3.675   3.452
   34pq0     H2 1077   4.046   3.500   3.976
   34pq0     H3 1078   3.837   3.358   3.904
   34pq0     H4 1079   3.556   3.523   3.422
   34pq0     H5 1080   3.534   3.397   3.540
   35K+      K+ 1081   4.590   4.015   4.202
   36K+      K+ 1082   4.825   4.112   5.343
   37K+      K+ 1083   2.576   4.257   3.953
   38K+      K+ 1084   4.100   2.367   4.675
   39K+      K+ 1085   5.063   4.651   3.690
   40K+      K+ 1086   4.528   2.954   4.170
   41K+      K+ 1087   3.777   1.676   3.130
   42K+      K+ 1088   2.513   2.944   4.485
   43K+      K+ 1089   4.364   5.338   3.106
   44K+      K+ 1090   3.139   3.496   2.078
   45K+      K+ 1091   4.825   4.957   4.866
   46K+      K+ 1092   3.090   4.633   5.929
   47K+      K+ 1093   3.969   2.330   2.211
   48K+      K+ 1094   3.922   1.607   4.199
   49K+      K+ 1095   2.607   4.643   3.374
   50K+      K+ 1096   4.677   3.197   5.170
   51K+      K+ 1097   2.384   3.151   3.300
   52K+      K+ 1098   4.292   4.168   6.304
   53K+      K+ 1099   2.103   4.293   5.100
   54K+      K+ 1100   5.490   3.442   2.755
   55K+      K+ 1101   4.922   2.003   4.092
   56K+      K+ 1102   3.202   4.677   2.886
   57K+      K+ 1103   3.172   5.897   5.308
   58K+      K+ 1104   3.258   2.784   5.715
   59K+      K+ 1105   4.445   5.863   4.266
   60K+      K+ 1106   4.849   4.448   2.023
   61K+      K+ 1107   2.999   2.398   2.580
   62K+      K+ 1108   2.675   1.797   4.117
   63K+      K+ 1109   3.477   4.462   1.743
   64K+      K+ 1110   2.180   3.428   5.241
   65K+      K+ 1111   5.303   3.226   3.747
   66K+      K+ 1112   4.300   5.486   5.809
   67K+      K+ 1113   2.637   5.206   4.414
   68K+      K+ 1114   4.202   3.128   1.129
   69K+      K+ 1115   4.939   1.858   3.053
   70K+      K+ 1116   3.944   3.264   6.214
   71K+      K+ 1117   2.516   3.950   2.829
   72K+      K+ 1118   4.116   6.177   3.514
   73K+      K+ 1119   3.103   5.446   5.815
   74K+      K+ 1120   3.075   2.093   5.029
   75K+      K+ 1121   3.541   2.884   1.772
   76K+      K+ 1122   5.172   4.228   4.418
   77K+      K+ 1123   4.042   6.127   6.981
   78K+      K+ 1124   1.905   3.645   4.045
   79K+      K+ 1125   5.446   2.975   1.313
   80K+      K+ 1126   6.109   4.747   2.552
   81K+      K+ 1127   2.644   6.236   3.020
   82K+      K+ 1128   2.821   1.376   3.146
   83K+      K+ 1129   4.104   2.209   5.467
   84K+      K+ 1130   3.440   5.030   7.116
   85K+      K+ 1131   6.039   2.165   3.081
   86K+      K+ 1132   4.353   6.667   5.466
   87K+      K+ 1133   3.764   5.035   2.117
   88Cl-    Cl- 1134   3.270   5.511   6.596
   89Cl-    Cl- 1135   5.622   4.025   2.167
   90Cl-    Cl- 1136   2.435   2.532   5.357
   91Cl-    Cl- 1137   3.701   5.717   2.421
   92Cl-    Cl- 1138   5.864   3.623   4.386
   93Cl-    Cl- 1139   3.170   1.320   3.765
   94Cl-    Cl- 1140   4.299   6.450   6.161
   95Cl-    Cl- 1141   1.927   4.153   3.123
   96Cl-    Cl- 1142   3.321   3.585   1.416
   97Cl-    Cl- 1143   4.501   2.866   6.299
   98Cl-    Cl- 1144   1.801   3.630   4.882
   99Cl-    Cl- 1145   5.632   1.596   3.770
  100Cl-    Cl- 1146   2.431   5.571   3.241
  101Cl-    Cl- 1147   4.598   2.437   1.409
  102Cl-    Cl- 1148   4.676   6.720   4.663
  103Cl-    Cl- 1149   3.660   1.529   5.380
  104Cl-    Cl- 1150   3.633   4.261   6.785
  105Cl-    Cl- 1151   4.501   4.684   1.558
  106Cl-    Cl- 1152   5.553   4.535   5.295
  107Cl-    Cl- 1153   3.547   1.621   2.456
  108Cl-    Cl- 1154   6.188   3.141   3.079
  109WAT      O 1155   6.896   6.685   6.387
  109WAT     H1 1156   6.889   6.724   6.309
  109WAT     H2 1157   6.982   6.672   6.395
  109WAT    EPW 1158   6.908   6.689   6.377
  110WAT      O 1159   6.874   7.311   6.835
  110WAT     H1 1160   6.854   7.388   6.870
  110WAT     H2 1161   6.931   7.276   6.892
  110WAT    EPW 1162   6.880   7.317   6.849
  111WAT      O 1163   5.861   7.154   6.059
  111WAT     H1 1164   5.780   7.167   6.028
  111WAT     H2 1165   5.852   7.083   6.109
  111WAT    EPW 1166   5.848   7.145   6.062
  112WAT      O 1167   7.143   7.482   6.500
  112WAT     H1 1168   7.138   7.494   6.414
  112WAT     H2 1169   7.080   7.425   6.516
  112WAT    EPW 1170   7.133   7.476   6.490
  113WAT      O 1171   6.554   6.787   6.257
  113WAT     H1 1172   6.552   6.857   6.204
  113WAT     H2 1173   6.631   6.751   6.240
  113WAT    EPW 1174   6.565   6.792   6.246
  114WAT      O 1175   6.053   7.587   6.400
  114WAT     H1 1176   6.002   7.538   6.350
  114WAT     H2 1177   6.106   7.529   6.438
  114WAT    EPW 1178   6.053   7.571   6.399
  115WAT      O 1179   6.470   7.126   7.024
  115WAT     H1 1180   6.538   7.128   6.969
  115WAT     H2 1181   6.446   7.042   7.023
  115WAT    EPW 1182   6.477   7.114   7.016
  116WAT      O 1183   6.185   7.373   6.532
  116WAT     H1 1184   6.257   7.326   6.539
  116WAT     H2 1185   6.123   7.314   6.512
  116WAT    EPW 1186   6.186   7.358   6.530
  117WAT      O 1187   6.893   7.316   7.498
  117WAT     H1 1188   6.806   7.311   7.494
  117WAT     H2 1189   6.915   7.349   7.420
  117WAT    EPW 1190   6.883   7.320   7.486
  118WAT      O 1191   6.292   6.836   6.359
  118WAT     H1 1192   6.253   6.891   6.303
  118WAT     H2 1193   6.373   6.828   6.327
  118WAT    EPW 1194   6.298   6.843   6.346
  119WAT      O 1195   7.252   6.572   7.329
  119WAT     H1 1196   7.243   6.643   7.279
  119WAT     H2 1197   7.172   6.561   7.363
  119WAT    EPW 1198   7.239   6.581   7.326
  120WAT      O 1199   6.587   6.760   6.534
  120WAT     H1 1200   6.590   6.845   6.555
  120WAT     H2 1201   6.567   6.760   6.449
  120WAT    EPW 1202   6.584   6.772   6.525
  121WAT      O 1203   7.002   7.004   5.808
  121WAT     H1 1204   6.966   7.076   5.842
  121WAT     H2 1205   7.015   6.953   5.877
  121WAT    EPW 1206   6.999   7.007   5.823
  122WAT      O 1207   5.859   7.236   6.740
  122WAT     H1 1208   5.906   7.305   6.767
  122WAT     H2 1209   5.795   7.230   6.799
  122WAT    EPW 1210   5.856   7.245   6.753
  123WAT      O 1211   6.154   6.789   6.774
  123WAT     H1 1212   6.111   6.719   6.742
  123WAT     H2 1213   6.212   6.754   6.829
  123WAT    EPW 1214   6.156   6.773   6.777
  124WAT      O 1215   7.517   7.018   6.373
  124WAT     H1 1216   7.469   7.069   6.425
  124WAT     H2 1217   7.499   6.937   6.401
  124WAT    EPW 1218   7.507   7.014   6.385
  125WAT      O 1219   6.065   6.945   7.568
  125WAT     H1 1220   5.991   6.898   7.572
  125WAT     H2 1221   6.120   6.894   7.524
  125WAT    EPW 1222   6.062   6.930   7.562
  126WAT      O 1223   6.683   6.760   7.550
  126WAT     H1 1224   6.692   6.680   7.514
  126WAT     H2 1225   6.617   6.795   7.505
  126WAT    EPW 1226   6.674   6.753   7.538
  127WAT      O 1227   6.750   7.218   6.411
  127WAT     H1 1228   6.779   7.175   6.341
  127WAT     H2 1229   6.823   7.237   6.454
  127WAT    EPW 1230   6.765   7.214   6.407
  128WAT      O 1231   6.861   7.218   5.935
  128WAT     H1 1232   6.868   7.297   5.971
  128WAT     H2 1233   6.782   7.221   5.897
  128WAT    EPW 1234   6.850   7.230   5.935
  129WAT      O 1235   5.780   6.956   7.313
  129WAT     H1 1236   5.763   7.022   7.367
  129WAT     H2 1237   5.849   6.984   7.267
  129WAT    EPW 1238   5.788   6.970   7.314
  130WAT      O 1239   7.057   6.839   6.020
  130WAT     H1 1240   7.111   6.770   6.022
  130WAT     H2 1241   7.077   6.882   6.093
  130WAT    EPW 1242   7.068   6.835   6.031
  131WAT      O 1243   5.883   6.946   6.254
  131WAT     H1 1244   5.867   6.861   6.244
  131WAT     H2 1245   5.842   6.966   6.329
  131WAT    EPW 1246   5.875   6.937   6.264
  132WAT      O 1247   6.823   7.086   6.176
  132WAT     H1 1248   6.755   7.035   6.154
  132WAT     H2 1249   6.840   7.130   6.103
  132WAT    EPW 1250   6.815   7.085   6.162
  133WAT      O 1251   6.819   6.760   6.131
  133WAT     H1 1252   6.764   6.746   6.064
  133WAT     H2 1253   6.892   6.786   6.093
  133WAT    EPW 1254   6.821   6.762   6.116
  134WAT      O 1255   6.629   7.033   6.579
  134WAT     H1 1256   6.663   7.094   6.526
  134WAT     H2 1257   6.643   7.065   6.659
  134WAT    EPW 1258   6.636   7.047   6.583
  135WAT      O 1259   6.224   6.578   6.434
  135WAT     H1 1260   6.243   6.661   6.415
  135WAT     H2 1261   6.197   6.545   6.357
  135WAT    EPW 1262   6.222   6.585   6.420
  136WAT      O 1263   7.021   6.959   7.165
  136WAT     H1 1264   7.021   6.992   7.246
  136WAT     H2 1265   6.954   6.903   7.166
  136WAT    EPW 1266   7.011   6.956   7.177
  137WAT      O 1267   7.161   6.620   6.436
  137WAT     H1 1268   7.156   6.602   6.522
  137WAT     H2 1269   7.194   6.547   6.402
  137WAT    EPW 1270   7.165   6.607   6.444
  138WAT      O 1271   7.398   7.027   7.276
  138WAT     H1 1272   7.431   7.038   7.356
  138WAT     H2 1273   7.372   7.107   7.253
  138WAT    EPW 1274   7.399   7.040   7.284
  139WAT      O 1275   6.170   6.975   6.570
  139WAT     H1 1276   6.204   6.925   6.507
  139WAT     H2 1277   6.165   6.921   6.638
  139WAT    EPW 1278   6.174   6.959   6.571
  140WAT      O 1279   6.024   7.070   6.887
  140WAT     H1 1280   6.105   7.093   6.865
  140WAT     H2 1281   5.973   7.119   6.836
  140WAT    EPW 1282   6.028   7.080   6.876
  141WAT      O 1283   7.233   7.442   5.959
  141WAT     H1 1284   7.246   7.523   5.928
  141WAT     H2 1285   7.202   7.456   6.039
  141WAT    EPW 1286   7.230   7.456   5.966
  142WAT      O 1287   7.413   6.824   6.139
  142WAT     H1 1288   7.484   6.820   6.088
  142WAT     H2 1289   7.398   6.909   6.146
  142WAT    EPW 1290   7.421   6.836   6.132
  143WAT      O 1291   7.111   7.045   6.608
  143WAT     H1 1292   7.143   7.004   6.679
  143WAT     H2 1293   7.048   6.991   6.580
  143WAT    EPW 1294   7.106   7.031   6.614
  144WAT      O 1295   6.572   6.992   6.078
  144WAT     H1 1296   6.553   6.975   5.994
  144WAT     H2 1297   6.548   7.075   6.088
  144WAT    EPW 1298   6.566   7.002   6.067
  145WAT      O 1299   6.141   7.218   7.544
  145WAT     H1 1300   6.115   7.136   7.558
  145WAT     H2 1301   6.154   7.221   7.458
  145WAT    EPW 1302   6.139   7.206   7.534
  146WAT      O 1303   6.222   7.241   6.047
  146WAT     H1 1304   6.202   7.184   6.110
  146WAT     H2 1305   6.168   7.218   5.982
  146WAT    EPW 1306   6.211   7.229   6.047
  147WAT      O 1307   6.080   7.401   6.796
  147WAT     H1 1308   6.104   7.423   6.715
  147WAT     H2 1309   6.135   7.338   6.818
  147WAT    EPW 1310   6.091   7.395   6.787
  148WAT      O 1311   6.219   7.400   7.063
  148WAT     H1 1312   6.262   7.352   7.003
  148WAT     H2 1313   6.157   7.440   7.016
  148WAT    EPW 1314   6.216   7.399   7.047
  149WAT      O 1315   7.294   7.182   6.896
  149WAT     H1 1316   7.218   7.195   6.937
  149WAT     H2 1317   7.293   7.243   6.833
  149WAT    EPW 1318   7.282   7.193   6.893
  150WAT      O 1319   6.838   6.760   7.231
  150WAT     H1 1320   6.856   6.677   7.211
  150WAT     H2 1321   6.867   6.768   7.313
  150WAT    EPW 1322   6.845   6.748   7.240
  151WAT      O 1323   7.068   6.981   6.254
  151WAT     H1 1324   7.117   7.053   6.260
  151WAT     H2 1325   6.988   7.012   6.238
  151WAT    EPW 1326   7.063   6.996   6.252
  152WAT      O 1327   6.674   7.117   6.836
  152WAT     H1 1328   6.739   7.175   6.840
  152WAT     H2 1329   6.708   7.045   6.870
  152WAT    EPW 1330   6.689   7.115   6.841
  153WAT      O 1331   6.869   7.458   6.086
  153WAT     H1 1332   6.851   7.530   6.041
  153WAT     H2 1333   6.801   7.449   6.141
  153WAT    EPW 1334   6.856   7.467   6.088
  154WAT      O 1335   6.371   6.666   6.001
  154WAT     H1 1336   6.373   6.653   6.087
  154WAT     H2 1337   6.322   6.738   5.992
  154WAT    EPW 1338   6.364   6.675   6.012
  155WAT      O 1339   7.342   6.753   7.527
  155WAT     H1 1340   7.318   6.690   7.471
  155WAT     H2 1341   7.425   6.769   7.507
  155WAT    EPW 1342   7.351   6.746   7.516
  156WAT      O 1343   5.810   6.670   6.234
  156WAT     H1 1344   5.811   6.615   6.166
  156WAT     H2 1345   5.779   6.621   6.300
  156WAT    EPW 1346   5.806   6.655   6.234
  157WAT      O 1347   6.655   7.433   6.265
  157WAT     H1 1348   6.624   7.494   6.318
  157WAT     H2 1349   6.679   7.369   6.319
  157WAT    EPW 1350   6.654   7.432   6.280
  158WAT      O 1351   6.232   6.899   5.950
  158WAT     H1 1352   6.170   6.894   5.889
  158WAT     H2 1353   6.297   6.940   5.910
  158WAT    EPW 1354   6.233   6.904   5.935
  159WAT      O 1355   6.371   7.162   6.594
  159WAT     H1 1356   6.447   7.122   6.582
  159WAT     H2 1357   6.312   7.099   6.581
  159WAT    EPW 1358   6.374   7.147   6.590
  160WAT      O 1359   5.896   7.339   6.278
  160WAT     H1 1360   5.920   7.286   6.343
  160WAT     H2 1361   5.907   7.290   6.206
  160WAT    EPW 1362   5.901   7.324   6.277
  161WAT      O 1363   6.360   7.360   5.821
  161WAT     H1 1364   6.324   7.338   5.897
  161WAT     H2 1365   6.291   7.370   5.768
  161WAT    EPW 1366   6.345   7.358   5.824
  162WAT      O 1367   6.499   7.254   6.107
  162WAT     H1 1368   6.530   7.321   6.154
  162WAT     H2 1369   6.413   7.269   6.104
  162WAT    EPW 1370   6.491   7.266   6.113
  163WAT      O 1371   7.218   6.987   7.609
  163WAT     H1 1372   7.198   6.974   7.693
  163WAT     H2 1373   7.247   6.909   7.582
  163WAT    EPW 1374   7.219   6.974   7.617
  164WAT      O 1375   5.831   6.876   6.741
  164WAT     H1 1376   5.817   6.911   6.663
  164WAT     H2 1377   5.913   6.901   6.760
  164WAT    EPW 1378   5.841   6.885   6.733
  165WAT      O 1379   7.141   7.362   7.626
  165WAT     H1 1380   7.123   7.382   7.709
  165WAT     H2 1381   7.063   7.355   7.590
  165WAT    EPW 1382   7.127   7.364   7.633
  166WAT      O 1383   7.397   7.372   7.515
  166WAT     H1 1384   7.425   7.453   7.533
  166WAT     H2 1385   7.317   7.371   7.548
  166WAT    EPW 1386   7.389   7.384   7.522
  167WAT      O 1387   7.333   7.176   6.510
  167WAT     H1 1388   7.268   7.126   6.542
  167WAT     H2 1389   7.339   7.240   6.569
  167WAT    EPW 1390   7.324   7.178   6.524
  168WAT      O 1391   7.255   6.808   7.180
  168WAT     H1 1392   7.309   6.870   7.210
  168WAT     H2 1393   7.180   6.850   7.168
  168WAT    EPW 1394   7.252   6.823   7.182
  169WAT      O 1395   6.466   7.120   7.304
  169WAT     H1 1396   6.470   7.036   7.327
  169WAT     H2 1397   6.480   7.119   7.218
  169WAT    EPW 1398   6.469   7.107   7.295
  170WAT      O 1399   7.295   6.670   6.941
  170WAT     H1 1400   7.302   6.705   7.021
  170WAT     H2 1401   7.342   6.596   6.947
  170WAT    EPW 1402   7.303   6.664   6.953
  171WAT      O 1403   6.568   6.701   7.164
  171WAT     H1 1404   6.650   6.731   7.169
  171WAT     H2 1405   6.576   6.628   7.117
  171WAT    EPW 1406   6.581   6.695   7.158
  172WAT      O 1407   7.474   7.311   5.879
  172WAT     H1 1408   7.471   7.349   5.800
  172WAT     H2 1409   7.401   7.338   5.917
  172WAT    EPW 1410   7.463   7.321   5.873
  173WAT      O 1411   6.274   7.205   6.850
  173WAT     H1 1412   6.311   7.195   6.771
  173WAT     H2 1413   6.334   7.174   6.905
  173WAT    EPW 1414   6.288   7.199   6.846
  174WAT      O 1415   7.026   7.079   7.427
  174WAT     H1 1416   6.977   7.138   7.469
  174WAT     H2 1417   7.093   7.065   7.482
  174WAT    EPW 1418   7.029   7.086   7.441
  175WAT      O 1419   7.044   7.196   7.018
  175WAT     H1 1420   7.048   7.243   7.092
  175WAT     H2 1421   7.031   7.115   7.046
  175WAT    EPW 1422   7.043   7.191   7.033
  176WAT      O 1423   7.218   7.216   6.262
  176WAT     H1 1424   7.254   7.212   6.341
  176WAT     H2 1425   7.283   7.192   6.209
  176WAT    EPW 1426   7.233   7.212   6.266
  177WAT      O 1427   6.568   6.695   6.809
  177WAT     H1 1428   6.485   6.676   6.831
  177WAT     H2 1429   6.564   6.703   6.722
  177WAT    EPW 1430   6.555   6.693   6.800
  178WAT      O 1431   7.412   6.748   6.411
  178WAT     H1 1432   7.328   6.725   6.424
  178WAT     H2 1433   7.417   6.759   6.325
  178WAT    EPW 1434   7.400   6.746   6.400
  179WAT      O 1435   5.846   6.769   7.506
  179WAT     H1 1436   5.823   6.826   7.445
  179WAT     H2 1437   5.769   6.735   7.532
  179WAT    EPW 1438   5.831   6.772   7.501
  180WAT      O 1439   6.154   7.009   6.195
  180WAT     H1 1440   6.167   6.973   6.116
  180WAT     H2 1441   6.070   6.992   6.212
  180WAT    EPW 1442   6.144   7.001   6.186
  181WAT      O 1443   7.064   7.309   7.267
  181WAT     H1 1444   7.060   7.234   7.311
  181WAT     H2 1445   7.149   7.326   7.261
  181WAT    EPW 1446   7.076   7.301   7.273
  182WAT      O 1447   6.200   7.206   7.265
  182WAT     H1 1448   6.208   7.277   7.214
  182WAT     H2 1449   6.283   7.182   7.280
  182WAT    EPW 1450   6.213   7.213   7.260
  183WAT      O 1451   5.994   7.056   7.159
  183WAT     H1 1452   6.003   7.063   7.072
  183WAT     H2 1453   6.061   7.102   7.191
  183WAT    EPW 1454   6.005   7.064   7.151
  184WAT      O 1455   7.439   7.123   6.122
  184WAT     H1 1456   7.487   7.169   6.066
  184WAT     H2 1457   7.492   7.109   6.189
  184WAT    EPW 1458   7.454   7.128   6.123
  185WAT      O 1459   6.206   6.759   7.409
  185WAT     H1 1460   6.160   6.686   7.424
  185WAT     H2 1461   6.184   6.780   7.327
  185WAT    EPW 1462   6.196   6.751   7.399
  186WAT      O 1463   7.338   7.303   7.249
  186WAT     H1 1464   7.403   7.310   7.191
  186WAT     H2 1465   7.374   7.331   7.324
  186WAT    EPW 1466   7.353   7.308   7.252
  187WAT      O 1467   6.043   7.156   5.847
  187WAT     H1 1468   5.978   7.157   5.906
  187WAT     H2 1469   6.037   7.076   5.812
  187WAT    EPW 1470   6.033   7.144   5.851
  188WAT      O 1471   6.943   6.818   7.486
  188WAT     H1 1472   6.962   6.903   7.478
  188WAT     H2 1473   6.864   6.817   7.522
  188WAT    EPW 1474   6.934   6.830   7.490
  189WAT      O 1475   6.883   6.887   6.576
  189WAT     H1 1476   6.803   6.923   6.574
  189WAT     H2 1477   6.879   6.825   6.515
  189WAT    EPW 1478   6.870   6.883   6.567
  190WAT      O 1479   7.211   6.921   6.835
  190WAT     H1 1480   7.261   6.855   6.862
  190WAT     H2 1481   7.252   6.992   6.865
  190WAT    EPW 1482   7.224   6.922   6.844
  191WAT      O 1483   7.312   7.384   6.698
  191WAT     H1 1484   7.371   7.444   6.719
  191WAT     H2 1485   7.259   7.425   6.642
  191WAT    EPW 1486   7.313   7.399   6.693
  192WAT      O 1487   6.385   6.871   7.037
  192WAT     H1 1488   6.307   6.845   7.066
  192WAT     H2 1489   6.440   6.810   7.069
  192WAT    EPW 1490   6.382   6.858   7.046
  193WAT      O 1491   6.748   6.871   6.929
  193WAT     H1 1492   6.687   6.818   6.897
  193WAT     H2 1493   6.823   6.832   6.905
  193WAT    EPW 1494   6.750   6.857   6.921
  194WAT      O 1495   6.616   7.291   7.469
  194WAT     H1 1496   6.575   7.236   7.414
  194WAT     H2 1497   6.551   7.320   7.520
  194WAT    EPW 1498   6.600   7.287   7.468
  195WAT      O 1499   6.639   6.691   5.936
  195WAT     H1 1500   6.646   6.702   5.850
  195WAT     H2 1501   6.553   6.697   5.950
  195WAT    EPW 1502   6.627   6.694   5.925
  196WAT      O 1503   6.135   6.815   7.151
  196WAT     H1 1504   6.078   6.754   7.128
  196WAT     H2 1505   6.089   6.889   7.148
  196WAT    EPW 1506   6.120   6.817   7.147
  197WAT      O 1507   6.978   6.770   6.809
  197WAT     H1 1508   7.045   6.823   6.828
  197WAT     H2 1509   6.946   6.804   6.735
  197WAT    EPW 1510   6.983   6.783   6.801
  198WAT      O 1511   6.966   7.279   6.573
  198WAT     H1 1512   7.016   7.208   6.583
  198WAT     H2 1513   6.936   7.294   6.653
  198WAT    EPW 1514   6.969   7.271   6.586
  199WAT      O 1515   5.988   7.182   6.495
  199WAT     H1 1516   5.935   7.188   6.564
  199WAT     H2 1517   6.033   7.108   6.510
  199WAT    EPW 1518   5.987   7.172   6.507
  200WAT      O 1519   7.122   7.469   6.213
  200WAT     H1 1520   7.146   7.386   6.228
  200WAT     H2 1521   7.041   7.461   6.183
  200WAT    EPW 1522   7.113   7.455   6.211
  201WAT      O 1523   7.465   7.096   7.537
  201WAT     H1 1524   7.459   7.183   7.537
  201WAT     H2 1525   7.389   7.070   7.570
  201WAT    EPW 1526   7.453   7.105   7.541
  202WAT      O 1527   7.516   7.263   7.042
  202WAT     H1 1528   7.452   7.232   6.992
  202WAT     H2 1529   7.573   7.198   7.045
  202WAT    EPW 1530   7.515   7.249   7.035
  203WAT      O 1531   6.473   6.843   7.383
  203WAT     H1 1532   6.494   6.798   7.311
  203WAT     H2 1533   6.390   6.820   7.398
  203WAT    EPW 1534   6.463   6.833   7.375
  204WAT      O 1535   6.897   6.686   4.489
  204WAT     H1 1536   6.890   6.726   4.411
  204WAT     H2 1537   6.982   6.674   4.498
  204WAT    EPW 1538   6.908   6.690   4.479
  205WAT      O 1539   6.875   7.305   4.942
  205WAT     H1 1540   6.854   7.384   4.972
  205WAT     H2 1541   6.930   7.274   5.001
  205WAT    EPW 1542   6.880   7.312   4.955
  206WAT      O 1543   5.861   7.154   4.160
  206WAT     H1 1544   5.780   7.167   4.130
  206WAT     H2 1545   5.853   7.083   4.210
  206WAT    EPW 1546   5.847   7.145   4.163
  207WAT      O 1547   7.137   7.480   4.601
  207WAT     H1 1548   7.133   7.491   4.515
  207WAT     H2 1549   7.075   7.421   4.617
  207WAT    EPW 1550   7.127   7.473   4.591
  208WAT      O 1551   6.562   6.793   4.375
  208WAT     H1 1552   6.557   6.859   4.319
  208WAT     H2 1553   6.639   6.756   4.357
  208WAT    EPW 1554   6.573   6.797   4.364
  209WAT      O 1555   6.054   7.585   4.503
  209WAT     H1 1556   6.003   7.536   4.453
  209WAT     H2 1557   6.108   7.527   4.540
  209WAT    EPW 1558   6.054   7.569   4.501
  210WAT      O 1559   6.468   7.126   5.141
  210WAT     H1 1560   6.536   7.126   5.088
  210WAT     H2 1561   6.446   7.041   5.146
  210WAT    EPW 1562   6.475   7.113   5.134
  211WAT      O 1563   6.188   7.371   4.632
  211WAT     H1 1564   6.260   7.323   4.643
  211WAT     H2 1565   6.127   7.312   4.613
  211WAT    EPW 1566   6.190   7.355   4.631
  212WAT      O 1567   6.895   7.333   5.582
  212WAT     H1 1568   6.809   7.336   5.566
  212WAT     H2 1569   6.930   7.371   5.511
  212WAT    EPW 1570   6.887   7.339   5.569
  213WAT      O 1571   6.294   6.833   4.462
  213WAT     H1 1572   6.257   6.888   4.405
  213WAT     H2 1573   6.377   6.828   4.435
  213WAT    EPW 1574   6.300   6.840   4.450
  214WAT      O 1575   7.251   6.574   5.456
  214WAT     H1 1576   7.247   6.649   5.412
  214WAT     H2 1577   7.173   6.569   5.495
  214WAT    EPW 1578   7.239   6.584   5.455
  215WAT      O 1579   6.588   6.751   4.657
  215WAT     H1 1580   6.592   6.835   4.681
  215WAT     H2 1581   6.568   6.755   4.572
  215WAT    EPW 1582   6.586   6.764   4.648
  216WAT      O 1583   7.003   7.004   3.907
  216WAT     H1 1584   6.967   7.076   3.941
  216WAT     H2 1585   7.015   6.952   3.976
  216WAT    EPW 1586   6.999   7.007   3.923
  217WAT      O 1587   5.863   7.223   4.841
  217WAT     H1 1588   5.906   7.293   4.871
  217WAT     H2 1589   5.796   7.215   4.897
  217WAT    EPW 1590   5.860   7.232   4.854
  218WAT      O 1591   6.129   6.791   4.872
  218WAT     H1 1592   6.099   6.716   4.838
  218WAT     H2 1593   6.184   6.764   4.934
  218WAT    EPW 1594   6.133   6.776   4.877
  219WAT      O 1595   6.466   6.985   5.811
  219WAT     H1 1596   6.468   6.954   5.730
  219WAT     H2 1597   6.507   7.062   5.805
  219WAT    EPW 1598   6.472   6.992   5.798
  220WAT      O 1599   7.526   7.025   4.476
  220WAT     H1 1600   7.478   7.076   4.529
  220WAT     H2 1601   7.502   6.945   4.498
  220WAT    EPW 1602   7.515   7.021   4.487
  221WAT      O 1603   6.042   6.895   5.744
  221WAT     H1 1604   5.962   6.865   5.725
  221WAT     H2 1605   6.091   6.868   5.676
  221WAT    EPW 1606   6.037   6.886   5.731
  222WAT      O 1607   6.658   6.718   5.664
  222WAT     H1 1608   6.671   6.644   5.619
  222WAT     H2 1609   6.591   6.756   5.623
  222WAT    EPW 1610   6.650   6.712   5.651
  223WAT      O 1611   6.748   7.212   4.518
  223WAT     H1 1612   6.776   7.170   4.447
  223WAT     H2 1613   6.822   7.232   4.561
  223WAT    EPW 1614   6.763   7.208   4.514
  224WAT      O 1615   6.861   7.216   4.037
  224WAT     H1 1616   6.868   7.295   4.073
  224WAT     H2 1617   6.783   7.218   3.999
  224WAT    EPW 1618   6.850   7.228   4.037
  225WAT      O 1619   5.792   7.012   5.474
  225WAT     H1 1620   5.778   7.089   5.512
  225WAT     H2 1621   5.852   7.030   5.413
  225WAT    EPW 1622   5.799   7.026   5.470
  226WAT      O 1623   7.055   6.838   4.119
  226WAT     H1 1624   7.109   6.769   4.121
  226WAT     H2 1625   7.076   6.882   4.192
  226WAT    EPW 1626   7.066   6.834   4.130
  227WAT      O 1627   5.884   6.946   4.354
  227WAT     H1 1628   5.866   6.861   4.344
  227WAT     H2 1629   5.844   6.967   4.429
  227WAT    EPW 1630   5.876   6.937   4.364
  228WAT      O 1631   6.820   7.085   4.280
  228WAT     H1 1632   6.754   7.033   4.257
  228WAT     H2 1633   6.838   7.129   4.206
  228WAT    EPW 1634   6.813   7.084   4.266
  229WAT      O 1635   6.818   6.761   4.234
  229WAT     H1 1636   6.762   6.746   4.168
  229WAT     H2 1637   6.891   6.787   4.193
  229WAT    EPW 1638   6.821   6.763   4.218
  230WAT      O 1639   6.630   7.029   4.691
  230WAT     H1 1640   6.662   7.090   4.638
  230WAT     H2 1641   6.643   7.062   4.771
  230WAT    EPW 1642   6.636   7.043   4.695
  231WAT      O 1643   6.228   6.574   4.537
  231WAT     H1 1644   6.247   6.657   4.518
  231WAT     H2 1645   6.200   6.541   4.461
  231WAT    EPW 1646   6.227   6.582   4.523
  232WAT      O 1647   7.032   6.959   5.270
  232WAT     H1 1648   7.031   6.998   5.348
  232WAT     H2 1649   6.965   6.903   5.274
  232WAT    EPW 1650   7.022   6.956   5.282
  233WAT      O 1651   7.161   6.623   4.539
  233WAT     H1 1652   7.161   6.604   4.624
  233WAT     H2 1653   7.192   6.551   4.502
  233WAT    EPW 1654   7.166   6.610   4.546
  234WAT      O 1655   7.402   7.024   5.454
  234WAT     H1 1656   7.479   7.029   5.494
  234WAT     H2 1657   7.345   7.014   5.520
  234WAT    EPW 1658   7.405   7.023   5.470
  235WAT      O 1659   6.173   6.975   4.671
  235WAT     H1 1660   6.207   6.924   4.609
  235WAT     H2 1661   6.161   6.920   4.738
  235WAT    EPW 1662   6.177   6.959   4.671
  236WAT      O 1663   6.035   7.084   5.016
  236WAT     H1 1664   6.113   7.109   4.986
  236WAT     H2 1665   5.980   7.113   4.955
  236WAT    EPW 1666   6.038   7.092   5.002
  237WAT      O 1667   7.230   7.442   4.060
  237WAT     H1 1668   7.244   7.523   4.030
  237WAT     H2 1669   7.200   7.455   4.140
  237WAT    EPW 1670   7.228   7.456   4.067
  238WAT      O 1671   6.610   7.224   5.805
  238WAT     H1 1672   6.542   7.271   5.834
  238WAT     H2 1673   6.619   7.251   5.722
  238WAT    EPW 1674   6.601   7.235   5.797
  239WAT      O 1675   7.411   6.824   4.225
  239WAT     H1 1676   7.482   6.811   4.176
  239WAT     H2 1677   7.400   6.911   4.222
  239WAT    EPW 1678   7.420   6.835   4.217
  240WAT      O 1679   7.117   7.040   4.710
  240WAT     H1 1680   7.149   6.998   4.779
  240WAT     H2 1681   7.053   6.989   4.682
  240WAT    EPW 1682   7.113   7.027   4.716
  241WAT      O 1683   6.570   6.988   4.183
  241WAT     H1 1684   6.552   6.969   4.100
  241WAT     H2 1685   6.546   7.072   4.191
  241WAT    EPW 1686   6.564   6.998   4.172
  242WAT      O 1687   6.117   7.356   5.670
  242WAT     H1 1688   6.092   7.286   5.716
  242WAT     H2 1689   6.128   7.325   5.589
  242WAT    EPW 1690   6.115   7.341   5.665
  243WAT      O 1691   6.224   7.238   4.147
  243WAT     H1 1692   6.204   7.182   4.211
  243WAT     H2 1693   6.169   7.217   4.082
  243WAT    EPW 1694   6.213   7.227   4.147
  244WAT      O 1695   6.079   7.401   4.895
  244WAT     H1 1696   6.103   7.422   4.813
  244WAT     H2 1697   6.137   7.341   4.918
  244WAT    EPW 1698   6.091   7.395   4.886
  245WAT      O 1699   6.198   7.395   5.174
  245WAT     H1 1700   6.242   7.349   5.115
  245WAT     H2 1701   6.136   7.434   5.126
  245WAT    EPW 1702   6.195   7.394   5.158
  246WAT      O 1703   7.282   7.177   4.992
  246WAT     H1 1704   7.209   7.192   5.037
  246WAT     H2 1705   7.281   7.239   4.930
  246WAT    EPW 1706   7.271   7.189   4.989
  247WAT      O 1707   6.846   6.763   5.347
  247WAT     H1 1708   6.865   6.680   5.328
  247WAT     H2 1709   6.873   6.772   5.429
  247WAT    EPW 1710   6.853   6.752   5.356
  248WAT      O 1711   7.065   6.978   4.355
  248WAT     H1 1712   7.115   7.049   4.362
  248WAT     H2 1713   6.986   7.010   4.339
  248WAT    EPW 1714   7.061   6.993   4.353
  249WAT      O 1715   6.670   7.115   4.949
  249WAT     H1 1716   6.736   7.172   4.952
  249WAT     H2 1717   6.705   7.041   4.980
  249WAT    EPW 1718   6.685   7.112   4.954
  250WAT      O 1719   6.868   7.454   4.189
  250WAT     H1 1720   6.849   7.527   4.145
  250WAT     H2 1721   6.800   7.445   4.244
  250WAT    EPW 1722   6.855   7.464   4.191
  251WAT      O 1723   6.370   6.665   4.105
  251WAT     H1 1724   6.368   6.651   4.191
  251WAT     H2 1725   6.321   6.737   4.094
  251WAT    EPW 1726   6.362   6.674   4.116
  252WAT      O 1727   7.326   6.707   5.695
  252WAT     H1 1728   7.316   6.659   5.623
  252WAT     H2 1729   7.363   6.652   5.752
  252WAT    EPW 1730   7.330   6.692   5.693
  253WAT      O 1731   5.809   6.670   4.334
  253WAT     H1 1732   5.809   6.615   4.266
  253WAT     H2 1733   5.779   6.622   4.400
  253WAT    EPW 1734   5.804   6.655   4.334
  254WAT      O 1735   6.655   7.426   4.369
  254WAT     H1 1736   6.623   7.488   4.422
  254WAT     H2 1737   6.678   7.363   4.424
  254WAT    EPW 1738   6.653   7.426   4.385
  255WAT      O 1739   6.231   6.897   4.050
  255WAT     H1 1740   6.169   6.894   3.989
  255WAT     H2 1741   6.296   6.939   4.010
  255WAT    EPW 1742   6.231   6.903   4.035
  256WAT      O 1743   6.373   7.161   4.704
  256WAT     H1 1744   6.449   7.119   4.693
  256WAT     H2 1745   6.314   7.099   4.690
  256WAT    EPW 1746   6.376   7.146   4.700
  257WAT      O 1747   5.897   7.339   4.379
  257WAT     H1 1748   5.921   7.286   4.444
  257WAT     H2 1749   5.907   7.289   4.308
  257WAT    EPW 1750   5.902   7.323   4.378
  258WAT      O 1751   6.362   7.358   3.919
  258WAT     H1 1752   6.326   7.337   3.996
  258WAT     H2 1753   6.293   7.367   3.866
  258WAT    EPW 1754   6.347   7.357   3.923
  259WAT      O 1755   6.501   7.252   4.205
  259WAT     H1 1756   6.532   7.317   4.254
  259WAT     H2 1757   6.415   7.266   4.202
  259WAT    EPW 1758   6.493   7.263   4.212
  260WAT      O 1759   7.251   6.974   5.683
  260WAT     H1 1760   7.185   6.988   5.739
  260WAT     H2 1761   7.268   6.889   5.693
  260WAT    EPW 1762   7.243   6.964   5.693
  261WAT      O 1763   5.832   6.878   4.843
  261WAT     H1 1764   5.820   6.912   4.764
  261WAT     H2 1765   5.919   6.876   4.852
  261WAT    EPW 1766   5.843   6.882   4.833
  262WAT      O 1767   7.143   7.308   5.725
  262WAT     H1 1768   7.150   7.337   5.806
  262WAT     H2 1769   7.060   7.325   5.704
  262WAT    EPW 1770   7.131   7.315   5.734
  263WAT      O 1771   7.384   7.417   5.635
  263WAT     H1 1772   7.397   7.390   5.553
  263WAT     H2 1773   7.305   7.384   5.655
  263WAT    EPW 1774   7.374   7.408   5.626
  264WAT      O 1775   7.336   7.179   4.612
  264WAT     H1 1776   7.272   7.127   4.643
  264WAT     H2 1777   7.339   7.244   4.670
  264WAT    EPW 1778   7.327   7.181   4.625
  265WAT      O 1779   7.268   6.813   5.305
  265WAT     H1 1780   7.321   6.872   5.342
  265WAT     H2 1781   7.195   6.858   5.290
  265WAT    EPW 1782   7.265   6.829   5.308
  266WAT      O 1783   6.440   7.145   5.421
  266WAT     H1 1784   6.443   7.063   5.450
  266WAT     H2 1785   6.456   7.137   5.336
  266WAT    EPW 1786   6.443   7.132   5.413
  267WAT      O 1787   7.296   6.663   5.067
  267WAT     H1 1788   7.302   6.701   5.145
  267WAT     H2 1789   7.341   6.589   5.077
  267WAT    EPW 1790   7.304   6.658   5.080
  268WAT      O 1791   6.568   6.729   5.344
  268WAT     H1 1792   6.653   6.744   5.334
  268WAT     H2 1793   6.562   6.642   5.345
  268WAT    EPW 1794   6.580   6.718   5.342
  269WAT      O 1795   7.470   7.305   3.985
  269WAT     H1 1796   7.469   7.343   3.906
  269WAT     H2 1797   7.397   7.335   4.023
  269WAT    EPW 1798   7.459   7.315   3.979
  270WAT      O 1799   6.281   7.214   4.960
  270WAT     H1 1800   6.317   7.201   4.882
  270WAT     H2 1801   6.340   7.182   5.016
  270WAT    EPW 1802   6.295   7.207   4.957
  271WAT      O 1803   7.045   7.100   5.508
  271WAT     H1 1804   6.986   7.147   5.551
  271WAT     H2 1805   7.103   7.078   5.570
  271WAT    EPW 1806   7.045   7.104   5.524
  272WAT      O 1807   7.045   7.203   5.132
  272WAT     H1 1808   7.061   7.251   5.203
  272WAT     H2 1809   7.034   7.123   5.164
  272WAT    EPW 1810   7.046   7.198   5.147
  273WAT      O 1811   7.218   7.211   4.364
  273WAT     H1 1812   7.255   7.209   4.443
  273WAT     H2 1813   7.282   7.184   4.311
  273WAT    EPW 1814   7.233   7.207   4.367
  274WAT      O 1815   6.562   6.680   4.943
  274WAT     H1 1816   6.477   6.673   4.964
  274WAT     H2 1817   6.560   6.684   4.856
  274WAT    EPW 1818   6.549   6.679   4.933
  275WAT      O 1819   7.406   6.762   4.499
  275WAT     H1 1820   7.323   6.738   4.515
  275WAT     H2 1821   7.407   6.774   4.413
  275WAT    EPW 1822   7.394   6.761   4.489
  276WAT      O 1823   5.800   6.785   5.632
  276WAT     H1 1824   5.802   6.857   5.583
  276WAT     H2 1825   5.715   6.766   5.638
  276WAT    EPW 1826   5.788   6.792   5.626
  277WAT      O 1827   6.157   7.006   4.296
  277WAT     H1 1828   6.168   6.970   4.217
  277WAT     H2 1829   6.073   6.991   4.314
  277WAT    EPW 1830   6.146   6.998   4.287
  278WAT      O 1831   7.101   7.332   5.369
  278WAT     H1 1832   7.091   7.260   5.416
  278WAT     H2 1833   7.188   7.345   5.369
  278WAT    EPW 1834   7.113   7.323   5.376
  279WAT      O 1835   6.177   7.247   5.409
  279WAT     H1 1836   6.183   7.304   5.344
  279WAT     H2 1837   6.258   7.216   5.416
  279WAT    EPW 1838   6.190   7.251   5.400
  280WAT      O 1839   5.990   7.080   5.284
  280WAT     H1 1840   6.006   7.084   5.198
  280WAT     H2 1841   6.052   7.131   5.318
  280WAT    EPW 1842   6.001   7.088   5.276
  281WAT      O 1843   7.433   7.107   4.224
  281WAT     H1 1844   7.482   7.155   4.170
  281WAT     H2 1845   7.484   7.096   4.294
  281WAT    EPW 1846   7.448   7.112   4.226
  282WAT      O 1847   6.189   6.777   5.539
  282WAT     H1 1848   6.159   6.696   5.544
  282WAT     H2 1849   6.172   6.801   5.457
  282WAT    EPW 1850   6.182   6.769   5.527
  283WAT      O 1851   7.380   7.295   5.380
  283WAT     H1 1852   7.425   7.302   5.305
  283WAT     H2 1853   7.386   7.211   5.400
  283WAT    EPW 1854   7.388   7.284   5.372
  284WAT      O 1855   6.043   7.157   3.948
  284WAT     H1 1856   5.978   7.159   4.006
  284WAT     H2 1857   6.036   7.077   3.912
  284WAT    EPW 1858   6.032   7.145   3.951
  285WAT      O 1859   6.914   6.812   5.617
  285WAT     H1 1860   6.941   6.879   5.667
  285WAT     H2 1861   6.833   6.797   5.645
  285WAT    EPW 1862   6.906   6.820   5.629
  286WAT      O 1863   6.884   6.889   4.676
  286WAT     H1 1864   6.804   6.923   4.677
  286WAT     H2 1865   6.879   6.827   4.615
  286WAT    EPW 1866   6.872   6.885   4.667
  287WAT      O 1867   7.215   6.911   4.937
  287WAT     H1 1868   7.264   6.849   4.975
  287WAT     H2 1869   7.251   6.985   4.967
  287WAT    EPW 1870   7.228   6.912   4.947
  288WAT      O 1871   7.304   7.385   4.801
  288WAT     H1 1872   7.357   7.448   4.830
  288WAT     H2 1873   7.252   7.425   4.744
  288WAT    EPW 1874   7.304   7.400   4.797
  289WAT      O 1875   6.389   6.871   5.182
  289WAT     H1 1876   6.308   6.847   5.206
  289WAT     H2 1877   6.440   6.814   5.224
  289WAT    EPW 1878   6.384   6.859   5.192
  290WAT      O 1879   6.752   6.867   5.030
  290WAT     H1 1880   6.689   6.809   5.011
  290WAT     H2 1881   6.825   6.826   5.005
  290WAT    EPW 1882   6.754   6.852   5.023
  291WAT      O 1883   6.612   7.327   5.546
  291WAT     H1 1884   6.564   7.269   5.502
  291WAT     H2 1885   6.557   7.392   5.562
  291WAT    EPW 1886   6.597   7.328   5.542
  292WAT      O 1887   6.638   6.691   4.039
  292WAT     H1 1888   6.645   6.702   3.953
  292WAT     H2 1889   6.552   6.696   4.053
  292WAT    EPW 1890   6.626   6.693   4.028
  293WAT      O 1891   6.127   6.834   5.279
  293WAT     H1 1892   6.072   6.771   5.257
  293WAT     H2 1893   6.079   6.907   5.272
  293WAT    EPW 1894   6.112   6.836   5.275
  294WAT      O 1895   6.981   6.765   4.905
  294WAT     H1 1896   7.047   6.818   4.926
  294WAT     H2 1897   6.948   6.802   4.832
  294WAT    EPW 1898   6.985   6.779   4.897
  295WAT      O 1899   6.966   7.272   4.679
  295WAT     H1 1900   7.018   7.202   4.688
  295WAT     H2 1901   6.937   7.287   4.760
  295WAT    EPW 1902   6.970   7.264   4.692
  296WAT      O 1903   5.991   7.180   4.595
  296WAT     H1 1904   5.939   7.186   4.665
  296WAT     H2 1905   6.037   7.107   4.609
  296WAT    EPW 1906   5.990   7.170   4.607
  297WAT      O 1907   7.121   7.464   4.315
  297WAT     H1 1908   7.145   7.382   4.329
  297WAT     H2 1909   7.039   7.457   4.284
  297WAT    EPW 1910   7.112   7.451   4.312
  298WAT      O 1911   7.514   7.070   5.733
  298WAT     H1 1912   7.510   7.143   5.781
  298WAT     H2 1913   7.432   7.041   5.734
  298WAT    EPW 1914   7.501   7.077   5.740
  299WAT      O 1915   7.500   7.280   5.130
  299WAT     H1 1916   7.435   7.242   5.085
  299WAT     H2 1917   7.571   7.239   5.101
  299WAT    EPW 1918   7.501   7.268   5.119
  300WAT      O 1919   6.450   6.879   5.542
  300WAT     H1 1920   6.485   6.838   5.472
  300WAT     H2 1921   6.369   6.846   5.546
  300WAT    EPW 1922   6.443   6.868   5.532
  301WAT      O 1923   6.894   6.686   2.588
  301WAT     H1 1924   6.888   6.726   2.510
  301WAT     H2 1925   6.980   6.673   2.597
  301WAT    EPW 1926   6.906   6.690   2.578
  302WAT      O 1927   6.875   7.305   3.041
  302WAT     H1 1928   6.855   7.385   3.072
  302WAT     H2 1929   6.931   7.274   3.100
  302WAT    EPW 1930   6.880   7.312   3.055
  303WAT      O 1931   5.860   7.152   2.257
  303WAT     H1 1932   5.779   7.163   2.226
  303WAT     H2 1933   5.852   7.082   2.308
  303WAT    EPW 1934   5.847   7.143   2.260
  304WAT      O 1935   7.137   7.481   2.701
  304WAT     H1 1936   7.133   7.492   2.614
  304WAT     H2 1937   7.075   7.422   2.717
  304WAT    EPW 1938   7.127   7.474   2.690
  305WAT      O 1939   6.562   6.792   2.474
  305WAT     H1 1940   6.557   6.859   2.418
  305WAT     H2 1941   6.639   6.755   2.456
  305WAT    EPW 1942   6.573   6.797   2.463
  306WAT      O 1943   6.053   7.584   2.597
  306WAT     H1 1944   6.001   7.535   2.548
  306WAT     H2 1945   6.107   7.526   2.635
  306WAT    EPW 1946   6.053   7.568   2.596
  307WAT      O 1947   6.467   7.125   3.241
  307WAT     H1 1948   6.536   7.125   3.187
  307WAT     H2 1949   6.446   7.040   3.245
  307WAT    EPW 1950   6.474   7.112   3.233
  308WAT      O 1951   6.188   7.371   2.727
  308WAT     H1 1952   6.260   7.323   2.739
  308WAT     H2 1953   6.127   7.312   2.708
  308WAT    EPW 1954   6.190   7.355   2.726
  309WAT      O 1955   6.894   7.333   3.681
  309WAT     H1 1956   6.808   7.336   3.666
  309WAT     H2 1957   6.928   7.371   3.611
  309WAT    EPW 1958   6.886   7.339   3.668
  310WAT      O 1959   6.294   6.835   2.562
  310WAT     H1 1960   6.257   6.889   2.504
  310WAT     H2 1961   6.377   6.830   2.534
  310WAT    EPW 1962   6.301   6.842   2.549
  311WAT      O 1963   7.251   6.573   3.556
  311WAT     H1 1964   7.246   6.648   3.512
  311WAT     H2 1965   7.173   6.567   3.595
  311WAT    EPW 1966   7.238   6.583   3.555
  312WAT      O 1967   6.588   6.752   2.756
  312WAT     H1 1968   6.592   6.836   2.779
  312WAT     H2 1969   6.569   6.755   2.671
  312WAT    EPW 1970   6.586   6.765   2.747
  313WAT      O 1971   7.001   7.004   2.008
  313WAT     H1 1972   6.965   7.076   2.043
  313WAT     H2 1973   7.014   6.953   2.077
  313WAT    EPW 1974   6.998   7.007   2.023
  314WAT      O 1975   5.866   7.228   2.937
  314WAT     H1 1976   5.909   7.299   2.965
  314WAT     H2 1977   5.800   7.221   2.993
  314WAT    EPW 1978   5.863   7.237   2.949
  315WAT      O 1979   6.151   6.792   2.975
  315WAT     H1 1980   6.110   6.722   2.942
  315WAT     H2 1981   6.205   6.758   3.034
  315WAT    EPW 1982   6.153   6.777   2.979
  316WAT      O 1983   6.467   6.982   3.914
  316WAT     H1 1984   6.468   6.951   3.832
  316WAT     H2 1985   6.508   7.058   3.908
  316WAT    EPW 1986   6.473   6.989   3.901
  317WAT      O 1987   7.522   7.023   2.575
  317WAT     H1 1988   7.474   7.074   2.627
  317WAT     H2 1989   7.501   6.942   2.600
  317WAT    EPW 1990   7.512   7.019   2.586
  318WAT      O 1991   6.040   6.896   3.843
  318WAT     H1 1992   5.961   6.868   3.821
  318WAT     H2 1993   6.090   6.870   3.776
  318WAT    EPW 1994   6.036   6.888   3.830
  319WAT      O 1995   6.657   6.717   3.766
  319WAT     H1 1996   6.671   6.644   3.720
  319WAT     H2 1997   6.591   6.756   3.725
  319WAT    EPW 1998   6.650   6.712   3.753
  320WAT      O 1999   6.748   7.212   2.618
  320WAT     H1 2000   6.776   7.170   2.547
  320WAT     H2 2001   6.822   7.232   2.661
  320WAT    EPW 2002   6.763   7.209   2.614
  321WAT      O 2003   6.860   7.216   2.138
  321WAT     H1 2004   6.867   7.296   2.174
  321WAT     H2 2005   6.782   7.218   2.099
  321WAT    EPW 2006   6.849   7.228   2.138
  322WAT      O 2007   5.788   7.014   3.566
  322WAT     H1 2008   5.776   7.091   3.605
  322WAT     H2 2009   5.847   7.031   3.505
  322WAT    EPW 2010   5.795   7.028   3.563
  323WAT      O 2011   7.056   6.838   2.219
  323WAT     H1 2012   7.110   6.769   2.221
  323WAT     H2 2013   7.076   6.882   2.292
  323WAT    EPW 2014   7.067   6.834   2.230
  324WAT      O 2015   5.883   6.946   2.453
  324WAT     H1 2016   5.864   6.861   2.443
  324WAT     H2 2017   5.843   6.967   2.528
  324WAT    EPW 2018   5.874   6.936   2.463
  325WAT      O 2019   6.821   7.085   2.380
  325WAT     H1 2020   6.754   7.032   2.358
  325WAT     H2 2021   6.838   7.129   2.307
  325WAT    EPW 2022   6.813   7.083   2.366
  326WAT      O 2023   6.818   6.762   2.333
  326WAT     H1 2024   6.763   6.747   2.268
  326WAT     H2 2025   6.892   6.786   2.292
  326WAT    EPW 2026   6.821   6.763   2.317
  327WAT      O 2027   6.629   7.030   2.791
  327WAT     H1 2028   6.663   7.090   2.738
  327WAT     H2 2029   6.643   7.062   2.871
  327WAT    EPW 2030   6.636   7.043   2.795
  328WAT      O 2031   6.230   6.576   2.638
  328WAT     H1 2032   6.248   6.659   2.619
  328WAT     H2 2033   6.202   6.544   2.562
  328WAT    EPW 2034   6.228   6.584   2.624
  329WAT      O 2035   7.031   6.959   3.370
  329WAT     H1 2036   7.030   6.998   3.448
  329WAT     H2 2037   6.964   6.903   3.373
  329WAT    EPW 2038   7.021   6.957   3.382
  330WAT      O 2039   7.158   6.620   2.635
  330WAT     H1 2040   7.155   6.600   2.720
  330WAT     H2 2041   7.192   6.548   2.598
  330WAT    EPW 2042   7.162   6.606   2.642
  331WAT      O 2043   7.402   7.024   3.554
  331WAT     H1 2044   7.481   7.027   3.593
  331WAT     H2 2045   7.347   7.014   3.621
  331WAT    EPW 2046   7.406   7.023   3.570
  332WAT      O 2047   6.173   6.976   2.770
  332WAT     H1 2048   6.207   6.925   2.707
  332WAT     H2 2049   6.167   6.922   2.838
  332WAT    EPW 2050   6.177   6.960   2.771
  333WAT      O 2051   6.029   7.077   3.104
  333WAT     H1 2052   6.110   7.100   3.078
  333WAT     H2 2053   5.978   7.118   3.047
  333WAT    EPW 2054   6.034   7.086   3.092
  334WAT      O 2055   7.232   7.442   2.159
  334WAT     H1 2056   7.245   7.523   2.129
  334WAT     H2 2057   7.201   7.456   2.240
  334WAT    EPW 2058   7.229   7.456   2.167
  335WAT      O 2059   6.611   7.220   3.906
  335WAT     H1 2060   6.545   7.267   3.936
  335WAT     H2 2061   6.620   7.247   3.823
  335WAT    EPW 2062   6.603   7.231   3.898
  336WAT      O 2063   7.413   6.826   2.332
  336WAT     H1 2064   7.487   6.815   2.287
  336WAT     H2 2065   7.400   6.912   2.330
  336WAT    EPW 2066   7.422   6.837   2.325
  337WAT      O 2067   7.116   7.041   2.810
  337WAT     H1 2068   7.150   6.998   2.878
  337WAT     H2 2069   7.052   6.989   2.782
  337WAT    EPW 2070   7.112   7.027   2.816
  338WAT      O 2071   6.570   6.988   2.283
  338WAT     H1 2072   6.552   6.970   2.200
  338WAT     H2 2073   6.547   7.071   2.292
  338WAT    EPW 2074   6.564   6.997   2.272
  339WAT      O 2075   6.121   7.352   3.767
  339WAT     H1 2076   6.094   7.283   3.813
  339WAT     H2 2077   6.129   7.320   3.686
  339WAT    EPW 2078   6.119   7.337   3.762
  340WAT      O 2079   6.223   7.238   2.247
  340WAT     H1 2080   6.203   7.181   2.311
  340WAT     H2 2081   6.170   7.216   2.182
  340WAT    EPW 2082   6.213   7.226   2.247
  341WAT      O 2083   6.083   7.401   2.991
  341WAT     H1 2084   6.108   7.421   2.909
  341WAT     H2 2085   6.141   7.341   3.015
  341WAT    EPW 2086   6.095   7.395   2.982
  342WAT      O 2087   6.197   7.393   3.272
  342WAT     H1 2088   6.241   7.346   3.213
  342WAT     H2 2089   6.136   7.434   3.224
  342WAT    EPW 2090   6.194   7.392   3.256
  343WAT      O 2091   7.283   7.177   3.091
  343WAT     H1 2092   7.210   7.192   3.136
  343WAT     H2 2093   7.282   7.239   3.029
  343WAT    EPW 2094   7.272   7.189   3.089
  344WAT      O 2095   6.845   6.763   3.447
  344WAT     H1 2096   6.865   6.680   3.428
  344WAT     H2 2097   6.873   6.772   3.530
  344WAT    EPW 2098   6.852   6.752   3.457
  345WAT      O 2099   7.067   6.980   2.453
  345WAT     H1 2100   7.117   7.051   2.460
  345WAT     H2 2101   6.987   7.012   2.438
  345WAT    EPW 2102   7.063   6.995   2.452
  346WAT      O 2103   6.671   7.115   3.050
  346WAT     H1 2104   6.737   7.172   3.052
  346WAT     H2 2105   6.706   7.041   3.080
  346WAT    EPW 2106   6.686   7.112   3.054
  347WAT      O 2107   6.867   7.455   2.289
  347WAT     H1 2108   6.847   7.528   2.244
  347WAT     H2 2109   6.800   7.446   2.344
  347WAT    EPW 2110   6.854   7.465   2.290
  348WAT      O 2111   6.369   6.664   2.205
  348WAT     H1 2112   6.367   6.651   2.291
  348WAT     H2 2113   6.321   6.736   2.194
  348WAT    EPW 2114   6.362   6.673   2.216
  349WAT      O 2115   7.326   6.706   3.794
  349WAT     H1 2116   7.315   6.658   3.722
  349WAT     H2 2117   7.363   6.651   3.851
  349WAT    EPW 2118   7.330   6.691   3.792
  350WAT      O 2119   5.804   6.671   2.432
  350WAT     H1 2120   5.805   6.616   2.365
  350WAT     H2 2121   5.776   6.623   2.499
  350WAT    EPW 2122   5.800   6.656   2.432
  351WAT      O 2123   6.655   7.427   2.469
  351WAT     H1 2124   6.623   7.488   2.522
  351WAT     H2 2125   6.678   7.363   2.524
  351WAT    EPW 2126   6.654   7.426   2.485
  352WAT      O 2127   6.230   6.896   2.149
  352WAT     H1 2128   6.168   6.892   2.088
  352WAT     H2 2129   6.296   6.938   2.109
  352WAT    EPW 2130   6.231   6.901   2.134
  353WAT      O 2131   6.373   7.162   2.803
  353WAT     H1 2132   6.449   7.120   2.792
  353WAT     H2 2133   6.314   7.100   2.788
  353WAT    EPW 2134   6.376   7.147   2.799
  354WAT      O 2135   5.892   7.338   2.475
  354WAT     H1 2136   5.917   7.285   2.540
  354WAT     H2 2137   5.903   7.289   2.404
  354WAT    EPW 2138   5.897   7.323   2.474
  355WAT      O 2139   6.362   7.360   2.022
  355WAT     H1 2140   6.326   7.337   2.098
  355WAT     H2 2141   6.294   7.369   1.969
  355WAT    EPW 2142   6.347   7.358   2.026
  356WAT      O 2143   6.501   7.251   2.306
  356WAT     H1 2144   6.531   7.316   2.355
  356WAT     H2 2145   6.415   7.266   2.304
  356WAT    EPW 2146   6.493   7.263   2.313
  357WAT      O 2147   7.251   6.974   3.783
  357WAT     H1 2148   7.185   6.988   3.838
  357WAT     H2 2149   7.268   6.888   3.792
  357WAT    EPW 2150   7.244   6.963   3.793
  358WAT      O 2151   5.841   6.872   2.938
  358WAT     H1 2152   5.825   6.911   2.861
  358WAT     H2 2153   5.923   6.894   2.956
  358WAT    EPW 2154   5.851   6.881   2.929
  359WAT      O 2155   7.141   7.308   3.824
  359WAT     H1 2156   7.148   7.338   3.906
  359WAT     H2 2157   7.059   7.326   3.803
  359WAT    EPW 2158   7.130   7.315   3.833
  360WAT      O 2159   7.387   7.411   3.738
  360WAT     H1 2160   7.399   7.387   3.656
  360WAT     H2 2161   7.307   7.380   3.757
  360WAT    EPW 2162   7.377   7.403   3.729
  361WAT      O 2163   7.334   7.179   2.711
  361WAT     H1 2164   7.271   7.127   2.742
  361WAT     H2 2165   7.339   7.244   2.769
  361WAT    EPW 2166   7.326   7.181   2.724
  362WAT      O 2167   7.267   6.814   3.408
  362WAT     H1 2168   7.320   6.873   3.444
  362WAT     H2 2169   7.194   6.858   3.391
  362WAT    EPW 2170   7.264   6.829   3.411
  363WAT      O 2171   6.440   7.144   3.521
  363WAT     H1 2172   6.444   7.062   3.550
  363WAT     H2 2173   6.456   7.136   3.435
  363WAT    EPW 2174   6.443   7.131   3.512
  364WAT      O 2175   7.294   6.666   3.168
  364WAT     H1 2176   7.301   6.702   3.247
  364WAT     H2 2177   7.339   6.591   3.176
  364WAT    EPW 2178   7.302   6.660   3.181
  365WAT      O 2179   6.568   6.729   3.443
  365WAT     H1 2180   6.653   6.744   3.434
  365WAT     H2 2181   6.562   6.642   3.443
  365WAT    EPW 2182   6.579   6.718   3.442
  366WAT      O 2183   7.472   7.309   2.081
  366WAT     H1 2184   7.470   7.347   2.003
  366WAT     H2 2185   7.399   7.337   2.120
  366WAT    EPW 2186   7.461   7.318   2.075
  367WAT      O 2187   6.279   7.210   3.060
  367WAT     H1 2188   6.316   7.198   2.982
  367WAT     H2 2189   6.338   7.178   3.116
  367WAT    EPW 2190   6.293   7.203   3.057
  368WAT      O 2191   7.045   7.101   3.608
  368WAT     H1 2192   6.985   7.148   3.650
  368WAT     H2 2193   7.102   7.080   3.670
  368WAT    EPW 2194   7.044   7.105   3.623
  369WAT      O 2195   7.046   7.203   3.231
  369WAT     H1 2196   7.061   7.251   3.302
  369WAT     H2 2197   7.034   7.123   3.263
  369WAT    EPW 2198   7.046   7.198   3.246
  370WAT      O 2199   7.219   7.214   2.462
  370WAT     H1 2200   7.255   7.211   2.541
  370WAT     H2 2201   7.283   7.188   2.409
  370WAT    EPW 2202   7.234   7.210   2.466
  371WAT      O 2203   6.566   6.679   3.041
  371WAT     H1 2204   6.482   6.671   3.063
  371WAT     H2 2205   6.564   6.684   2.954
  371WAT    EPW 2206   6.553   6.679   3.031
  372WAT      O 2207   7.406   6.757   2.605
  372WAT     H1 2208   7.323   6.733   2.618
  372WAT     H2 2209   7.409   6.770   2.519
  372WAT    EPW 2210   7.394   6.755   2.594
  373WAT      O 2211   5.800   6.790   3.729
  373WAT     H1 2212   5.800   6.861   3.679
  373WAT     H2 2213   5.715   6.773   3.741
  373WAT    EPW 2214   5.788   6.798   3.724
  374WAT      O 2215   6.156   7.005   2.395
  374WAT     H1 2216   6.167   6.969   2.316
  374WAT     H2 2217   6.071   6.990   2.412
  374WAT    EPW 2218   6.145   6.997   2.386
  375WAT      O 2219   7.101   7.332   3.468
  375WAT     H1 2220   7.091   7.260   3.515
  375WAT     H2 2221   7.188   7.345   3.469
  375WAT    EPW 2222   7.113   7.324   3.475
  376WAT      O 2223   6.175   7.241   3.504
  376WAT     H1 2224   6.182   7.300   3.440
  376WAT     H2 2225   6.256   7.211   3.513
  376WAT    EPW 2226   6.188   7.245   3.496
  377WAT      O 2227   5.987   7.078   3.374
  377WAT     H1 2228   6.002   7.081   3.288
  377WAT     H2 2229   6.051   7.127   3.408
  377WAT    EPW 2230   5.999   7.086   3.366
  378WAT      O 2231   7.435   7.112   2.322
  378WAT     H1 2232   7.484   7.159   2.267
  378WAT     H2 2233   7.487   7.100   2.391
  378WAT    EPW 2234   7.450   7.117   2.324
  379WAT      O 2235   6.189   6.779   3.640
  379WAT     H1 2236   6.159   6.697   3.645
  379WAT     H2 2237   6.172   6.802   3.557
  379WAT    EPW 2238   6.182   6.770   3.628
  380WAT      O 2239   7.380   7.295   3.480
  380WAT     H1 2240   7.425   7.302   3.406
  380WAT     H2 2241   7.386   7.211   3.500
  380WAT    EPW 2242   7.388   7.284   3.472
  381WAT      O 2243   6.044   7.154   2.047
  381WAT     H1 2244   5.979   7.157   2.105
  381WAT     H2 2245   6.037   7.075   2.011
  381WAT    EPW 2246   6.034   7.143   2.050
  382WAT      O 2247   6.914   6.812   3.718
  382WAT     H1 2248   6.941   6.879   3.767
  382WAT     H2 2249   6.833   6.797   3.746
  382WAT    EPW 2250   6.906   6.820   3.729
  383WAT      O 2251   6.884   6.889   2.776
  383WAT     H1 2252   6.804   6.923   2.778
  383WAT     H2 2253   6.879   6.827   2.715
  383WAT    EPW 2254   6.872   6.885   2.768
  384WAT      O 2255   7.218   6.910   3.035
  384WAT     H1 2256   7.264   6.848   3.074
  384WAT     H2 2257   7.253   6.984   3.066
  384WAT    EPW 2258   7.230   6.912   3.045
  385WAT      O 2259   7.305   7.384   2.900
  385WAT     H1 2260   7.357   7.448   2.929
  385WAT     H2 2261   7.253   7.425   2.843
  385WAT    EPW 2262   7.305   7.400   2.896
  386WAT      O 2263   6.389   6.869   3.279
  386WAT     H1 2264   6.309   6.847   3.305
  386WAT     H2 2265   6.441   6.814   3.322
  386WAT    EPW 2266   6.385   6.858   3.289
  387WAT      O 2267   6.755   6.867   3.128
  387WAT     H1 2268   6.693   6.809   3.110
  387WAT     H2 2269   6.829   6.827   3.104
  387WAT    EPW 2270   6.757   6.852   3.122
  388WAT      O 2271   6.610   7.326   3.648
  388WAT     H1 2272   6.562   7.268   3.603
  388WAT     H2 2273   6.554   7.390   3.667
  388WAT    EPW 2274   6.595   7.327   3.644
  389WAT      O 2275   6.637   6.690   2.140
  389WAT     H1 2276   6.644   6.702   2.054
  389WAT     H2 2277   6.551   6.695   2.154
  389WAT    EPW 2278   6.626   6.693   2.129
  390WAT      O 2279   6.128   6.835   3.379
  390WAT     H1 2280   6.074   6.771   3.357
  390WAT     H2 2281   6.079   6.907   3.370
  390WAT    EPW 2282   6.113   6.836   3.375
  391WAT      O 2283   6.984   6.765   3.004
  391WAT     H1 2284   7.050   6.818   3.025
  391WAT     H2 2285   6.951   6.801   2.932
  391WAT    EPW 2286   6.989   6.778   2.996
  392WAT      O 2287   6.966   7.273   2.779
  392WAT     H1 2288   7.017   7.203   2.788
  392WAT     H2 2289   6.937   7.288   2.859
  392WAT    EPW 2290   6.970   7.265   2.792
  393WAT      O 2291   5.991   7.180   2.690
  393WAT     H1 2292   5.940   7.187   2.760
  393WAT     H2 2293   6.037   7.108   2.705
  393WAT    EPW 2294   5.990   7.171   2.702
  394WAT      O 2295   7.121   7.467   2.414
  394WAT     H1 2296   7.145   7.384   2.428
  394WAT     H2 2297   7.039   7.459   2.384
  394WAT    EPW 2298   7.112   7.453   2.412
  395WAT      O 2299   7.514   7.064   3.841
  395WAT     H1 2300   7.508   7.138   3.888
  395WAT     H2 2301   7.431   7.036   3.837
  395WAT    EPW 2302   7.501   7.071   3.847
  396WAT      O 2303   7.500   7.279   3.230
  396WAT     H1 2304   7.436   7.242   3.185
  396WAT     H2 2305   7.572   7.237   3.202
  396WAT    EPW 2306   7.501   7.268   3.219
  397WAT      O 2307   6.451   6.878   3.642
  397WAT     H1 2308   6.485   6.837   3.573
  397WAT     H2 2309   6.370   6.845   3.647
  397WAT    EPW 2310   6.444   6.867   3.633
  398WAT      O 2311   6.928   6.690   0.655
  398WAT     H1 2312   6.952   6.725   0.579
  398WAT     H2 2313   7.003   6.663   0.690
  398WAT    EPW 2314   6.943   6.691   0.649
  399WAT      O 2315   6.874   7.315   1.150
  399WAT     H1 2316   6.854   7.393   1.184
  399WAT     H2 2317   6.931   7.282   1.207
  399WAT    EPW 2318   6.880   7.322   1.164
  400WAT      O 2319   5.903   7.168   0.387
  400WAT     H1 2320   5.834   7.177   0.335
  400WAT     H2 2321   5.885   7.097   0.434
  400WAT    EPW 2322   5.890   7.159   0.386
  401WAT      O 2323   7.152   7.497   0.825
  401WAT     H1 2324   7.154   7.512   0.739
  401WAT     H2 2325   7.087   7.440   0.835
  401WAT    EPW 2326   7.143   7.491   0.814
  402WAT      O 2327   6.588   6.787   0.610
  402WAT     H1 2328   6.596   6.862   0.568
  402WAT     H2 2329   6.617   6.728   0.553
  402WAT    EPW 2330   6.593   6.789   0.595
  403WAT      O 2331   6.071   7.591   0.701
  403WAT     H1 2332   6.013   7.542   0.660
  403WAT     H2 2333   6.123   7.533   0.741
  403WAT    EPW 2334   6.070   7.576   0.701
  404WAT      O 2335   6.468   7.129   1.344
  404WAT     H1 2336   6.538   7.129   1.292
  404WAT     H2 2337   6.447   7.044   1.349
  404WAT    EPW 2338   6.475   7.116   1.337
  405WAT      O 2339   6.195   7.374   0.834
  405WAT     H1 2340   6.266   7.326   0.847
  405WAT     H2 2341   6.133   7.315   0.818
  405WAT    EPW 2342   6.196   7.358   0.834
  406WAT      O 2343   6.895   7.332   1.783
  406WAT     H1 2344   6.810   7.335   1.767
  406WAT     H2 2345   6.931   7.369   1.712
  406WAT    EPW 2346   6.888   7.338   1.770
  407WAT      O 2347   6.316   6.818   0.688
  407WAT     H1 2348   6.267   6.848   0.622
  407WAT     H2 2349   6.395   6.810   0.653
  407WAT    EPW 2350   6.320   6.821   0.673
  408WAT      O 2351   7.251   6.572   1.654
  408WAT     H1 2352   7.247   6.648   1.612
  408WAT     H2 2353   7.173   6.566   1.693
  408WAT    EPW 2354   7.239   6.582   1.653
  409WAT      O 2355   6.611   6.755   0.884
  409WAT     H1 2356   6.601   6.838   0.910
  409WAT     H2 2357   6.598   6.758   0.798
  409WAT    EPW 2358   6.608   6.768   0.875
  410WAT      O 2359   5.865   7.228   1.048
  410WAT     H1 2360   5.908   7.299   1.076
  410WAT     H2 2361   5.798   7.221   1.104
  410WAT    EPW 2362   5.862   7.238   1.060
  411WAT      O 2363   6.130   6.793   1.081
  411WAT     H1 2364   6.101   6.719   1.046
  411WAT     H2 2365   6.185   6.766   1.143
  411WAT    EPW 2366   6.134   6.778   1.085
  412WAT      O 2367   6.467   6.983   2.014
  412WAT     H1 2368   6.469   6.952   1.932
  412WAT     H2 2369   6.508   7.059   2.008
  412WAT    EPW 2370   6.473   6.989   2.001
  413WAT      O 2371   7.505   7.020   0.666
  413WAT     H1 2372   7.461   7.066   0.725
  413WAT     H2 2373   7.488   6.937   0.688
  413WAT    EPW 2374   7.496   7.015   0.678
  414WAT      O 2375   6.039   6.893   1.942
  414WAT     H1 2376   5.960   6.865   1.920
  414WAT     H2 2377   6.089   6.867   1.876
  414WAT    EPW 2378   6.035   6.885   1.929
  415WAT      O 2379   6.658   6.718   1.868
  415WAT     H1 2380   6.671   6.644   1.823
  415WAT     H2 2381   6.591   6.756   1.826
  415WAT    EPW 2382   6.650   6.712   1.855
  416WAT      O 2383   6.759   7.215   0.728
  416WAT     H1 2384   6.793   7.175   0.659
  416WAT     H2 2385   6.828   7.241   0.774
  416WAT    EPW 2386   6.774   7.213   0.725
  417WAT      O 2387   6.884   7.279   0.282
  417WAT     H1 2388   6.883   7.355   0.324
  417WAT     H2 2389   6.812   7.281   0.233
  417WAT    EPW 2390   6.873   7.290   0.281
  418WAT      O 2391   5.780   7.010   1.664
  418WAT     H1 2392   5.772   7.086   1.705
  418WAT     H2 2393   5.842   7.026   1.604
  418WAT    EPW 2394   5.788   7.023   1.661
  419WAT      O 2395   7.037   6.763   0.411
  419WAT     H1 2396   7.101   6.704   0.408
  419WAT     H2 2397   7.078   6.837   0.433
  419WAT    EPW 2398   7.052   6.765   0.414
  420WAT      O 2399   5.864   6.945   0.558
  420WAT     H1 2400   5.837   6.864   0.539
  420WAT     H2 2401   5.824   6.962   0.634
  420WAT    EPW 2402   5.854   6.935   0.566
  421WAT      O 2403   6.846   7.100   0.490
  421WAT     H1 2404   6.774   7.056   0.465
  421WAT     H2 2405   6.861   7.154   0.423
  421WAT    EPW 2406   6.837   7.101   0.476
  422WAT      O 2407   6.763   6.747   0.352
  422WAT     H1 2408   6.733   6.828   0.340
  422WAT     H2 2409   6.850   6.758   0.356
  422WAT    EPW 2410   6.771   6.761   0.351
  423WAT      O 2411   6.630   7.037   0.900
  423WAT     H1 2412   6.669   7.094   0.847
  423WAT     H2 2413   6.647   7.068   0.979
  423WAT    EPW 2414   6.638   7.050   0.904
  424WAT      O 2415   6.243   6.561   0.752
  424WAT     H1 2416   6.266   6.643   0.735
  424WAT     H2 2417   6.209   6.534   0.676
  424WAT    EPW 2418   6.241   6.569   0.738
  425WAT      O 2419   7.031   6.958   1.470
  425WAT     H1 2420   7.029   6.996   1.549
  425WAT     H2 2421   6.964   6.902   1.473
  425WAT    EPW 2422   7.021   6.956   1.482
  426WAT      O 2423   7.169   6.612   0.756
  426WAT     H1 2424   7.165   6.595   0.841
  426WAT     H2 2425   7.210   6.543   0.723
  426WAT    EPW 2426   7.175   6.599   0.763
  427WAT      O 2427   7.402   7.025   1.654
  427WAT     H1 2428   7.480   7.029   1.695
  427WAT     H2 2429   7.346   7.015   1.720
  427WAT    EPW 2430   7.406   7.024   1.670
  428WAT      O 2431   6.181   6.973   0.877
  428WAT     H1 2432   6.220   6.921   0.819
  428WAT     H2 2433   6.167   6.921   0.946
  428WAT    EPW 2434   6.185   6.958   0.879
  429WAT      O 2435   6.037   7.087   1.219
  429WAT     H1 2436   6.115   7.113   1.189
  429WAT     H2 2437   5.981   7.118   1.159
  429WAT    EPW 2438   6.040   7.096   1.205
  430WAT      O 2439   7.236   7.403   0.276
  430WAT     H1 2440   7.164   7.355   0.270
  430WAT     H2 2441   7.225   7.448   0.350
  430WAT    EPW 2442   7.224   7.403   0.286
  431WAT      O 2443   6.610   7.221   2.006
  431WAT     H1 2444   6.543   7.268   2.036
  431WAT     H2 2445   6.619   7.248   1.924
  431WAT    EPW 2446   6.602   7.232   1.998
  432WAT      O 2447   7.410   6.793   0.438
  432WAT     H1 2448   7.438   6.763   0.361
  432WAT     H2 2449   7.403   6.879   0.426
  432WAT    EPW 2450   7.413   6.801   0.425
  433WAT      O 2451   7.103   7.050   0.922
  433WAT     H1 2452   7.137   7.005   0.988
  433WAT     H2 2453   7.043   6.996   0.889
  433WAT    EPW 2454   7.099   7.035   0.927
  434WAT      O 2455   6.600   6.984   0.406
  434WAT     H1 2456   6.539   6.927   0.380
  434WAT     H2 2457   6.561   7.061   0.398
  434WAT    EPW 2458   6.586   6.987   0.401
  435WAT      O 2459   6.122   7.354   1.871
  435WAT     H1 2460   6.095   7.285   1.916
  435WAT     H2 2461   6.130   7.324   1.790
  435WAT    EPW 2462   6.119   7.340   1.866
  436WAT      O 2463   6.195   7.161   0.368
  436WAT     H1 2464   6.189   7.101   0.431
  436WAT     H2 2465   6.113   7.188   0.358
  436WAT    EPW 2466   6.182   7.156   0.376
  437WAT      O 2467   6.082   7.405   1.096
  437WAT     H1 2468   6.107   7.426   1.015
  437WAT     H2 2469   6.140   7.345   1.120
  437WAT    EPW 2470   6.094   7.399   1.087
  438WAT      O 2471   6.199   7.398   1.377
  438WAT     H1 2472   6.243   7.352   1.318
  438WAT     H2 2473   6.135   7.436   1.331
  438WAT    EPW 2474   6.196   7.397   1.362
  439WAT      O 2475   7.283   7.172   1.200
  439WAT     H1 2476   7.209   7.187   1.244
  439WAT     H2 2477   7.285   7.235   1.139
  439WAT    EPW 2478   7.272   7.183   1.197
  440WAT      O 2479   6.845   6.761   1.549
  440WAT     H1 2480   6.866   6.678   1.531
  440WAT     H2 2481   6.873   6.771   1.631
  440WAT    EPW 2482   6.853   6.750   1.559
  441WAT      O 2483   7.113   7.012   0.506
  441WAT     H1 2484   7.159   7.082   0.528
  441WAT     H2 2485   7.030   7.040   0.507
  441WAT    EPW 2486   7.107   7.026   0.509
  442WAT      O 2487   6.675   7.120   1.158
  442WAT     H1 2488   6.740   7.178   1.160
  442WAT     H2 2489   6.712   7.046   1.186
  442WAT    EPW 2490   6.690   7.118   1.163
  443WAT      O 2491   6.887   7.507   0.440
  443WAT     H1 2492   6.869   7.588   0.411
  443WAT     H2 2493   6.816   7.487   0.487
  443WAT    EPW 2494   6.874   7.516   0.443
  444WAT      O 2495   6.410   6.788   0.352
  444WAT     H1 2496   6.392   6.706   0.376
  444WAT     H2 2497   6.341   6.812   0.304
  444WAT    EPW 2498   6.397   6.779   0.348
  445WAT      O 2499   7.324   6.706   1.893
  445WAT     H1 2500   7.314   6.658   1.821
  445WAT     H2 2501   7.361   6.652   1.950
  445WAT    EPW 2502   7.328   6.691   1.891
  446WAT      O 2503   5.781   6.676   0.506
  446WAT     H1 2504   5.785   6.618   0.441
  446WAT     H2 2505   5.758   6.628   0.576
  446WAT    EPW 2506   5.778   6.661   0.507
  447WAT      O 2507   6.660   7.430   0.581
  447WAT     H1 2508   6.621   7.484   0.637
  447WAT     H2 2509   6.684   7.362   0.630
  447WAT    EPW 2510   6.658   7.428   0.596
  448WAT      O 2511   6.189   6.912   0.227
  448WAT     H1 2512   6.161   6.911   0.144
  448WAT     H2 2513   6.198   6.997   0.244
  448WAT    EPW 2514   6.186   6.925   0.217
  449WAT      O 2515   6.377   7.165   0.908
  449WAT     H1 2516   6.454   7.125   0.899
  449WAT     H2 2517   6.319   7.101   0.894
  449WAT    EPW 2518   6.380   7.150   0.904
  450WAT      O 2519   5.906   7.351   0.601
  450WAT     H1 2520   5.926   7.297   0.667
  450WAT     H2 2521   5.918   7.302   0.530
  450WAT    EPW 2522   5.911   7.336   0.600
  451WAT      O 2523   6.476   7.229   0.388
  451WAT     H1 2524   6.489   7.299   0.438
  451WAT     H2 2525   6.390   7.226   0.379
  451WAT    EPW 2526   6.466   7.239   0.394
  452WAT      O 2527   7.249   6.974   1.882
  452WAT     H1 2528   7.184   6.988   1.938
  452WAT     H2 2529   7.266   6.889   1.891
  452WAT    EPW 2530   7.242   6.964   1.892
  453WAT      O 2531   5.835   6.876   1.046
  453WAT     H1 2532   5.820   6.908   0.966
  453WAT     H2 2533   5.922   6.875   1.052
  453WAT    EPW 2534   5.845   6.880   1.035
  454WAT      O 2535   7.143   7.309   1.925
  454WAT     H1 2536   7.150   7.338   2.006
  454WAT     H2 2537   7.060   7.325   1.903
  454WAT    EPW 2538   7.132   7.315   1.933
  455WAT      O 2539   7.386   7.416   1.837
  455WAT     H1 2540   7.399   7.390   1.754
  455WAT     H2 2541   7.307   7.384   1.856
  455WAT    EPW 2542   7.376   7.408   1.827
  456WAT      O 2543   7.335   7.169   0.832
  456WAT     H1 2544   7.266   7.124   0.862
  456WAT     H2 2545   7.342   7.234   0.889
  456WAT    EPW 2546   7.326   7.172   0.845
  457WAT      O 2547   7.268   6.814   1.509
  457WAT     H1 2548   7.320   6.874   1.545
  457WAT     H2 2549   7.195   6.859   1.492
  457WAT    EPW 2550   7.265   6.830   1.512
  458WAT      O 2551   6.440   7.146   1.624
  458WAT     H1 2552   6.444   7.063   1.653
  458WAT     H2 2553   6.456   7.138   1.538
  458WAT    EPW 2554   6.443   7.133   1.616
  459WAT      O 2555   7.295   6.668   1.269
  459WAT     H1 2556   7.302   6.705   1.348
  459WAT     H2 2557   7.343   6.595   1.277
  459WAT    EPW 2558   7.303   6.663   1.282
  460WAT      O 2559   6.569   6.726   1.547
  460WAT     H1 2560   6.654   6.740   1.538
  460WAT     H2 2561   6.562   6.639   1.552
  460WAT    EPW 2562   6.580   6.715   1.546
  461WAT      O 2563   7.470   7.252   0.235
  461WAT     H1 2564   7.513   7.289   0.169
  461WAT     H2 2565   7.398   7.301   0.243
  461WAT    EPW 2566   7.465   7.265   0.226
  462WAT      O 2567   6.283   7.218   1.163
  462WAT     H1 2568   6.319   7.204   1.085
  462WAT     H2 2569   6.341   7.186   1.219
  462WAT    EPW 2570   6.297   7.211   1.160
  463WAT      O 2571   7.045   7.099   1.708
  463WAT     H1 2572   6.986   7.145   1.753
  463WAT     H2 2573   7.103   7.075   1.769
  463WAT    EPW 2574   7.045   7.102   1.724
  464WAT      O 2575   7.044   7.203   1.335
  464WAT     H1 2576   7.061   7.251   1.406
  464WAT     H2 2577   7.032   7.123   1.366
  464WAT    EPW 2578   7.045   7.198   1.350
  465WAT      O 2579   7.245   7.247   0.583
  465WAT     H1 2580   7.261   7.227   0.667
  465WAT     H2 2581   7.324   7.255   0.548
  465WAT    EPW 2582   7.259   7.245   0.590
  466WAT      O 2583   6.566   6.679   1.164
  466WAT     H1 2584   6.481   6.674   1.182
  466WAT     H2 2585   6.569   6.682   1.076
  466WAT    EPW 2586   6.554   6.679   1.153
  467WAT      O 2587   7.414   6.749   0.712
  467WAT     H1 2588   7.331   6.730   0.729
  467WAT     H2 2589   7.418   6.752   0.625
  467WAT    EPW 2590   7.403   6.746   0.701
  468WAT      O 2591   5.800   6.787   1.828
  468WAT     H1 2592   5.798   6.858   1.777
  468WAT     H2 2593   5.715   6.770   1.842
  468WAT    EPW 2594   5.787   6.795   1.822
  469WAT      O 2595   6.137   6.926   0.509
  469WAT     H1 2596   6.133   6.894   0.428
  469WAT     H2 2597   6.054   6.930   0.534
  469WAT    EPW 2598   6.124   6.922   0.500
  470WAT      O 2599   7.102   7.332   1.571
  470WAT     H1 2600   7.093   7.259   1.618
  470WAT     H2 2601   7.189   7.345   1.571
  470WAT    EPW 2602   7.114   7.323   1.578
  471WAT      O 2603   6.176   7.245   1.609
  471WAT     H1 2604   6.183   7.303   1.545
  471WAT     H2 2605   6.258   7.214   1.618
  471WAT    EPW 2606   6.189   7.249   1.601
  472WAT      O 2607   5.989   7.078   1.485
  472WAT     H1 2608   6.005   7.083   1.400
  472WAT     H2 2609   6.051   7.128   1.521
  472WAT    EPW 2610   6.001   7.086   1.478
  473WAT      O 2611   7.509   7.259   0.510
  473WAT     H1 2612   7.513   7.245   0.424
  473WAT     H2 2613   7.528   7.181   0.545
  473WAT    EPW 2614   7.513   7.245   0.503
  474WAT      O 2615   6.192   6.779   1.740
  474WAT     H1 2616   6.167   6.695   1.744
  474WAT     H2 2617   6.174   6.802   1.657
  474WAT    EPW 2618   6.186   6.770   1.728
  475WAT      O 2619   7.381   7.297   1.580
  475WAT     H1 2620   7.426   7.303   1.506
  475WAT     H2 2621   7.388   7.212   1.600
  475WAT    EPW 2622   7.389   7.285   1.572
  476WAT      O 2623   6.914   6.812   1.819
  476WAT     H1 2624   6.941   6.879   1.868
  476WAT     H2 2625   6.833   6.796   1.847
  476WAT    EPW 2626   6.906   6.819   1.830
  477WAT      O 2627   6.893   6.881   0.854
  477WAT     H1 2628   6.808   6.899   0.861
  477WAT     H2 2629   6.898   6.826   0.787
  477WAT    EPW 2630   6.882   6.875   0.845
  478WAT      O 2631   7.213   6.909   1.136
  478WAT     H1 2632   7.259   6.845   1.175
  478WAT     H2 2633   7.249   6.982   1.168
  478WAT    EPW 2634   7.225   6.910   1.147
  479WAT      O 2635   7.316   7.381   1.015
  479WAT     H1 2636   7.374   7.439   1.045
  479WAT     H2 2637   7.266   7.426   0.960
  479WAT    EPW 2638   7.317   7.396   1.012
  480WAT      O 2639   6.392   6.873   1.386
  480WAT     H1 2640   6.311   6.850   1.409
  480WAT     H2 2641   6.443   6.815   1.426
  480WAT    EPW 2642   6.388   6.861   1.396
  481WAT      O 2643   6.762   6.870   1.229
  481WAT     H1 2644   6.698   6.812   1.220
  481WAT     H2 2645   6.832   6.829   1.198
  481WAT    EPW 2646   6.763   6.856   1.223
  482WAT      O 2647   6.613   7.327   1.749
  482WAT     H1 2648   6.564   7.270   1.705
  482WAT     H2 2649   6.557   7.392   1.766
  482WAT    EPW 2650   6.597   7.328   1.745
  483WAT      O 2651   6.130   6.835   1.480
  483WAT     H1 2652   6.076   6.770   1.459
  483WAT     H2 2653   6.080   6.907   1.473
  483WAT    EPW 2654   6.115   6.836   1.476
  484WAT      O 2655   6.980   6.763   1.092
  484WAT     H1 2656   7.046   6.817   1.115
  484WAT     H2 2657   6.952   6.796   1.017
  484WAT    EPW 2658   6.986   6.776   1.085
  485WAT      O 2659   6.971   7.292   0.888
  485WAT     H1 2660   7.017   7.219   0.898
  485WAT     H2 2661   6.939   7.307   0.968
  485WAT    EPW 2662   6.973   7.283   0.902
  486WAT      O 2663   5.998   7.180   0.806
  486WAT     H1 2664   5.946   7.185   0.876
  486WAT     H2 2665   6.043   7.107   0.820
  486WAT    EPW 2666   5.997   7.170   0.819
  487WAT      O 2667   7.154   7.501   0.537
  487WAT     H1 2668   7.176   7.418   0.553
  487WAT     H2 2669   7.069   7.496   0.514
  487WAT    EPW 2670   7.144   7.488   0.536
  488WAT      O 2671   7.513   7.069   1.934
  488WAT     H1 2672   7.509   7.142   1.982
  488WAT     H2 2673   7.430   7.040   1.934
  488WAT    EPW 2674   7.500   7.075   1.941
  489WAT      O 2675   7.503   7.279   1.330
  489WAT     H1 2676   7.437   7.239   1.289
  489WAT     H2 2677   7.573   7.234   1.305
  489WAT    EPW 2678   7.504   7.266   1.321
  490WAT      O 2679   6.452   6.879   1.743
  490WAT     H1 2680   6.487   6.839   1.674
  490WAT     H2 2681   6.371   6.847   1.747
  490WAT    EPW 2682   6.445   6.868   1.733
  491WAT      O 2683   6.897   4.845   6.381
  491WAT     H1 2684   6.890   4.885   6.303
  491WAT     H2 2685   6.983   4.834   6.390
  491WAT    EPW 2686   6.909   4.850   6.371
  492WAT      O 2687   6.875   5.470   6.849
  492WAT     H1 2688   6.843   5.548   6.874
  492WAT     H2 2689   6.931   5.450   6.913
  492WAT    EPW 2690   6.879   5.479   6.862
  493WAT      O 2691   5.854   5.949   6.361
  493WAT     H1 2692   5.832   5.952   6.446
  493WAT     H2 2693   5.848   5.864   6.342
  493WAT    EPW 2694   5.850   5.937   6.371
  494WAT      O 2695   7.469   6.371   6.127
  494WAT     H1 2696   7.546   6.360   6.166
  494WAT     H2 2697   7.453   6.293   6.091
  494WAT    EPW 2698   7.478   6.358   6.128
  495WAT      O 2699   5.826   5.281   6.002
  495WAT     H1 2700   5.765   5.334   5.970
  495WAT     H2 2701   5.791   5.201   5.993
  495WAT    EPW 2702   5.812   5.277   5.996
  496WAT      O 2703   6.169   5.885   5.927
  496WAT     H1 2704   6.133   5.843   5.860
  496WAT     H2 2705   6.170   5.824   5.990
  496WAT    EPW 2706   6.164   5.870   5.927
  497WAT      O 2707   7.124   5.662   6.504
  497WAT     H1 2708   7.132   5.652   6.417
  497WAT     H2 2709   7.067   5.599   6.526
  497WAT    EPW 2710   7.117   5.651   6.494
  498WAT      O 2711   6.103   6.062   6.318
  498WAT     H1 2712   6.157   6.023   6.374
  498WAT     H2 2713   6.027   6.021   6.331
  498WAT    EPW 2714   6.100   6.050   6.328
  499WAT      O 2715   6.558   4.964   6.260
  499WAT     H1 2716   6.552   5.034   6.208
  499WAT     H2 2717   6.634   4.928   6.238
  499WAT    EPW 2718   6.568   4.969   6.249
  500WAT      O 2719   5.992   6.341   5.918
  500WAT     H1 2720   6.039   6.348   5.845
  500WAT     H2 2721   6.027   6.272   5.959
  500WAT    EPW 2722   6.004   6.332   5.913
  501WAT      O 2723   5.889   6.158   7.044
  501WAT     H1 2724   5.918   6.132   7.122
  501WAT     H2 2725   5.818   6.108   7.031
  501WAT    EPW 2726   5.883   6.146   7.054
  502WAT      O 2727   6.547   6.007   7.487
  502WAT     H1 2728   6.554   5.961   7.561
  502WAT     H2 2729   6.471   5.980   7.453
  502WAT    EPW 2730   6.537   5.996   7.493
  503WAT      O 2731   6.047   5.695   6.497
  503WAT     H1 2732   5.998   5.693   6.425
  503WAT     H2 2733   6.102   5.628   6.487
  503WAT    EPW 2734   6.048   5.685   6.485
  504WAT      O 2735   6.480   5.281   7.045
  504WAT     H1 2736   6.548   5.285   6.991
  504WAT     H2 2737   6.454   5.198   7.038
  504WAT    EPW 2738   6.486   5.269   7.036
  505WAT      O 2739   6.502   6.246   7.237
  505WAT     H1 2740   6.482   6.322   7.199
  505WAT     H2 2741   6.588   6.253   7.250
  505WAT    EPW 2742   6.512   6.259   7.233
  506WAT      O 2743   6.217   5.478   6.484
  506WAT     H1 2744   6.283   5.426   6.507
  506WAT     H2 2745   6.148   5.425   6.483
  506WAT    EPW 2746   6.217   5.463   6.487
  507WAT      O 2747   6.615   6.119   6.660
  507WAT     H1 2748   6.641   6.037   6.676
  507WAT     H2 2749   6.689   6.163   6.653
  507WAT    EPW 2750   6.630   6.113   6.661
  508WAT      O 2751   6.664   6.024   6.274
  508WAT     H1 2752   6.701   5.963   6.324
  508WAT     H2 2753   6.694   6.007   6.194
  508WAT    EPW 2754   6.674   6.013   6.270
  509WAT      O 2755   6.852   5.457   7.453
  509WAT     H1 2756   6.769   5.465   7.425
  509WAT     H2 2757   6.855   5.511   7.522
  509WAT    EPW 2758   6.840   5.466   7.459
  510WAT      O 2759   6.290   4.994   6.360
  510WAT     H1 2760   6.251   5.050   6.306
  510WAT     H2 2761   6.371   4.989   6.329
  510WAT    EPW 2762   6.296   5.001   6.347
  511WAT      O 2763   7.249   4.749   7.327
  511WAT     H1 2764   7.239   4.825   7.284
  511WAT     H2 2765   7.170   4.735   7.363
  511WAT    EPW 2766   7.236   4.758   7.326
  512WAT      O 2767   6.593   4.920   6.536
  512WAT     H1 2768   6.602   5.003   6.559
  512WAT     H2 2769   6.573   4.925   6.451
  512WAT    EPW 2770   6.591   4.933   6.527
  513WAT      O 2771   7.047   5.166   5.786
  513WAT     H1 2772   7.001   5.232   5.821
  513WAT     H2 2773   7.052   5.107   5.850
  513WAT    EPW 2774   7.041   5.167   5.800
  514WAT      O 2775   5.867   5.438   6.745
  514WAT     H1 2776   5.867   5.524   6.757
  514WAT     H2 2777   5.800   5.411   6.794
  514WAT    EPW 2778   5.857   5.447   6.754
  515WAT      O 2779   5.849   6.396   6.575
  515WAT     H1 2780   5.787   6.445   6.540
  515WAT     H2 2781   5.891   6.363   6.506
  515WAT    EPW 2782   5.846   6.398   6.560
  516WAT      O 2783   6.441   6.183   6.269
  516WAT     H1 2784   6.407   6.179   6.349
  516WAT     H2 2785   6.516   6.139   6.275
  516WAT    EPW 2786   6.447   6.176   6.282
  517WAT      O 2787   7.040   6.420   6.070
  517WAT     H1 2788   7.104   6.479   6.076
  517WAT     H2 2789   7.081   6.344   6.079
  517WAT    EPW 2790   7.055   6.417   6.072
  518WAT      O 2791   6.841   6.448   6.257
  518WAT     H1 2792   6.862   6.521   6.300
  518WAT     H2 2793   6.906   6.438   6.200
  518WAT    EPW 2794   6.853   6.457   6.255
  519WAT      O 2795   6.153   4.938   6.787
  519WAT     H1 2796   6.107   4.871   6.753
  519WAT     H2 2797   6.213   4.899   6.836
  519WAT    EPW 2798   6.155   4.922   6.789
  520WAT      O 2799   5.989   6.313   6.345
  520WAT     H1 2800   6.038   6.242   6.354
  520WAT     H2 2801   6.038   6.366   6.295
  520WAT    EPW 2802   6.003   6.310   6.339
  521WAT      O 2803   7.509   5.205   6.358
  521WAT     H1 2804   7.469   5.248   6.423
  521WAT     H2 2805   7.489   5.122   6.373
  521WAT    EPW 2806   7.501   5.199   6.370
  522WAT      O 2807   7.074   6.516   7.031
  522WAT     H1 2808   7.131   6.573   6.998
  522WAT     H2 2809   7.062   6.459   6.965
  522WAT    EPW 2810   7.081   6.516   7.016
  523WAT      O 2811   6.034   5.132   7.560
  523WAT     H1 2812   5.966   5.078   7.556
  523WAT     H2 2813   6.098   5.087   7.521
  523WAT    EPW 2814   6.033   5.117   7.554
  524WAT      O 2815   6.130   6.122   6.689
  524WAT     H1 2816   6.192   6.116   6.628
  524WAT     H2 2817   6.158   6.069   6.753
  524WAT    EPW 2818   6.143   6.113   6.690
  525WAT      O 2819   6.413   6.446   6.602
  525WAT     H1 2820   6.494   6.462   6.573
  525WAT     H2 2821   6.363   6.494   6.551
  525WAT    EPW 2822   6.418   6.456   6.591
  526WAT      O 2823   6.679   4.913   7.553
  526WAT     H1 2824   6.690   4.836   7.514
  526WAT     H2 2825   6.613   4.949   7.509
  526WAT    EPW 2826   6.671   4.907   7.541
  527WAT      O 2827   6.761   5.382   6.419
  527WAT     H1 2828   6.791   5.340   6.349
  527WAT     H2 2829   6.833   5.398   6.466
  527WAT    EPW 2830   6.776   5.378   6.416
  528WAT      O 2831   6.871   5.349   5.921
  528WAT     H1 2832   6.893   5.429   5.948
  528WAT     H2 2833   6.797   5.362   5.877
  528WAT    EPW 2834   6.863   5.362   5.919
  529WAT      O 2835   7.231   6.626   6.054
  529WAT     H1 2836   7.279   6.593   5.988
  529WAT     H2 2837   7.286   6.681   6.093
  529WAT    EPW 2838   7.246   6.629   6.050
  530WAT      O 2839   6.334   6.465   7.159
  530WAT     H1 2840   6.341   6.488   7.243
  530WAT     H2 2841   6.254   6.430   7.154
  530WAT    EPW 2842   6.323   6.463   7.171
  531WAT      O 2843   5.754   5.125   7.286
  531WAT     H1 2844   5.749   5.189   7.346
  531WAT     H2 2845   5.818   5.151   7.234
  531WAT    EPW 2846   5.763   5.138   7.288
  532WAT      O 2847   7.003   6.266   7.452
  532WAT     H1 2848   7.017   6.350   7.471
  532WAT     H2 2849   7.083   6.233   7.444
  532WAT    EPW 2850   7.017   6.273   7.454
  533WAT      O 2851   6.728   6.239   5.875
  533WAT     H1 2852   6.696   6.298   5.930
  533WAT     H2 2853   6.806   6.272   5.853
  533WAT    EPW 2854   6.735   6.253   5.880
  534WAT      O 2855   7.057   4.991   6.000
  534WAT     H1 2856   7.108   4.920   6.004
  534WAT     H2 2857   7.078   5.036   6.071
  534WAT    EPW 2858   7.068   4.987   6.011
  535WAT      O 2859   5.900   5.081   6.280
  535WAT     H1 2860   5.875   4.999   6.262
  535WAT     H2 2861   5.851   5.103   6.349
  535WAT    EPW 2862   5.889   5.072   6.288
  536WAT      O 2863   6.071   6.377   7.062
  536WAT     H1 2864   6.015   6.310   7.061
  536WAT     H2 2865   6.107   6.374   6.983
  536WAT    EPW 2866   6.068   6.367   7.050
  537WAT      O 2867   6.828   5.252   6.179
  537WAT     H1 2868   6.757   5.204   6.162
  537WAT     H2 2869   6.849   5.286   6.101
  537WAT    EPW 2870   6.820   5.250   6.165
  538WAT      O 2871   6.838   6.487   7.162
  538WAT     H1 2872   6.916   6.492   7.123
  538WAT     H2 2873   6.782   6.487   7.096
  538WAT    EPW 2874   6.842   6.488   7.146
  539WAT      O 2875   6.819   4.927   6.127
  539WAT     H1 2876   6.764   4.907   6.062
  539WAT     H2 2877   6.892   4.950   6.085
  539WAT    EPW 2878   6.822   4.927   6.111
  540WAT      O 2879   7.438   6.507   6.580
  540WAT     H1 2880   7.454   6.582   6.538
  540WAT     H2 2881   7.398   6.458   6.520
  540WAT    EPW 2882   7.434   6.511   6.565
  541WAT      O 2883   6.644   5.192   6.588
  541WAT     H1 2884   6.672   5.257   6.537
  541WAT     H2 2885   6.655   5.223   6.669
  541WAT    EPW 2886   6.649   5.206   6.592
  542WAT      O 2887   7.199   6.118   6.347
  542WAT     H1 2888   7.269   6.067   6.356
  542WAT     H2 2889   7.139   6.079   6.397
  542WAT    EPW 2890   7.200   6.105   6.356
  543WAT      O 2891   6.247   6.192   7.344
  543WAT     H1 2892   6.324   6.218   7.313
  543WAT     H2 2893   6.231   6.247   7.409
  543WAT    EPW 2894   6.256   6.204   7.349
  544WAT      O 2895   6.223   4.733   6.429
  544WAT     H1 2896   6.241   4.816   6.410
  544WAT     H2 2897   6.195   4.700   6.354
  544WAT    EPW 2898   6.221   4.741   6.415
  545WAT      O 2899   6.432   5.799   6.775
  545WAT     H1 2900   6.456   5.783   6.857
  545WAT     H2 2901   6.376   5.734   6.757
  545WAT    EPW 2902   6.427   5.787   6.784
  546WAT      O 2903   7.014   5.141   7.173
  546WAT     H1 2904   7.014   5.169   7.255
  546WAT     H2 2905   6.949   5.083   7.170
  546WAT    EPW 2906   7.005   5.136   7.185
  547WAT      O 2907   6.539   5.809   7.030
  547WAT     H1 2908   6.516   5.893   7.036
  547WAT     H2 2909   6.507   5.773   7.103
  547WAT    EPW 2910   6.531   5.816   7.041
  548WAT      O 2911   7.132   5.910   7.028
  548WAT     H1 2912   7.068   5.873   7.074
  548WAT     H2 2913   7.127   5.994   7.052
  548WAT    EPW 2914   7.122   5.917   7.039
  549WAT      O 2915   7.162   4.786   6.431
  549WAT     H1 2916   7.161   4.768   6.517
  549WAT     H2 2917   7.194   4.713   6.395
  549WAT    EPW 2918   7.167   4.773   6.439
  550WAT      O 2919   7.394   5.223   7.293
  550WAT     H1 2920   7.438   5.201   7.364
  550WAT     H2 2921   7.347   5.292   7.318
  550WAT    EPW 2922   7.393   5.230   7.307
  551WAT      O 2923   6.168   5.120   6.581
  551WAT     H1 2924   6.198   5.069   6.517
  551WAT     H2 2925   6.162   5.065   6.649
  551WAT    EPW 2926   6.171   5.104   6.582
  552WAT      O 2927   7.482   5.873   6.004
  552WAT     H1 2928   7.463   5.825   6.074
  552WAT     H2 2929   7.560   5.844   5.980
  552WAT    EPW 2930   7.490   5.861   6.011
  553WAT      O 2931   6.236   5.898   6.496
  553WAT     H1 2932   6.292   5.864   6.438
  553WAT     H2 2933   6.176   5.836   6.506
  553WAT    EPW 2934   6.236   5.884   6.489
  554WAT      O 2935   6.059   6.556   6.655
  554WAT     H1 2936   5.985   6.516   6.631
  554WAT     H2 2937   6.104   6.562   6.580
  554WAT    EPW 2938   6.055   6.551   6.640
  555WAT      O 2939   6.030   5.252   6.869
  555WAT     H1 2940   6.113   5.278   6.864
  555WAT     H2 2941   5.986   5.318   6.832
  555WAT    EPW 2942   6.036   5.266   6.863
  556WAT      O 2943   7.249   5.569   5.953
  556WAT     H1 2944   7.245   5.650   5.921
  556WAT     H2 2945   7.217   5.577   6.034
  556WAT    EPW 2946   7.244   5.582   5.960
  557WAT      O 2947   6.383   5.831   6.265
  557WAT     H1 2948   6.422   5.908   6.255
  557WAT     H2 2949   6.439   5.774   6.230
  557WAT    EPW 2950   6.397   5.834   6.259
  558WAT      O 2951   5.875   6.006   6.651
  558WAT     H1 2952   5.823   6.066   6.688
  558WAT     H2 2953   5.954   6.042   6.655
  558WAT    EPW 2954   5.879   6.020   6.657
  559WAT      O 2955   5.906   5.686   6.262
  559WAT     H1 2956   5.891   5.600   6.258
  559WAT     H2 2957   5.978   5.696   6.214
  559WAT    EPW 2958   5.915   5.675   6.254
  560WAT      O 2959   7.420   4.974   6.107
  560WAT     H1 2960   7.488   4.954   6.056
  560WAT     H2 2961   7.407   5.059   6.091
  560WAT    EPW 2962   7.428   4.984   6.097
  561WAT      O 2963   6.838   6.280   6.634
  561WAT     H1 2964   6.793   6.351   6.612
  561WAT     H2 2965   6.863   6.246   6.558
  561WAT    EPW 2966   6.835   6.285   6.620
  562WAT      O 2967   5.821   6.159   6.187
  562WAT     H1 2968   5.874   6.214   6.229
  562WAT     H2 2969   5.813   6.092   6.242
  562WAT    EPW 2970   5.827   6.157   6.201
  563WAT      O 2971   6.236   5.959   6.886
  563WAT     H1 2972   6.288   6.002   6.942
  563WAT     H2 2973   6.291   5.913   6.837
  563WAT    EPW 2974   6.252   5.959   6.887
  564WAT      O 2975   7.114   5.206   6.616
  564WAT     H1 2976   7.144   5.165   6.687
  564WAT     H2 2977   7.051   5.153   6.587
  564WAT    EPW 2978   7.109   5.192   6.622
  565WAT      O 2979   5.841   6.001   5.952
  565WAT     H1 2980   5.916   5.956   5.948
  565WAT     H2 2981   5.852   6.053   6.021
  565WAT    EPW 2982   5.854   6.002   5.961
  566WAT      O 2983   5.901   5.739   6.729
  566WAT     H1 2984   5.952   5.716   6.661
  566WAT     H2 2985   5.891   5.825   6.719
  566WAT    EPW 2986   5.907   5.748   6.717
  567WAT      O 2987   6.569   5.170   6.078
  567WAT     H1 2988   6.561   5.139   5.997
  567WAT     H2 2989   6.532   5.249   6.073
  567WAT    EPW 2990   6.563   5.177   6.065
  568WAT      O 2991   7.296   6.333   7.182
  568WAT     H1 2992   7.279   6.411   7.216
  568WAT     H2 2993   7.338   6.351   7.108
  568WAT    EPW 2994   7.300   6.347   7.176
  569WAT      O 2995   6.367   6.185   6.534
  569WAT     H1 2996   6.375   6.268   6.557
  569WAT     H2 2997   6.437   6.147   6.570
  569WAT    EPW 2998   6.378   6.191   6.543
  570WAT      O 2999   5.995   5.405   7.492
  570WAT     H1 3000   6.015   5.328   7.528
  570WAT     H2 3001   6.041   5.406   7.418
  570WAT    EPW 3002   6.005   5.394   7.487
  571WAT      O 3003   6.180   5.426   6.080
  571WAT     H1 3004   6.165   5.360   6.135
  571WAT     H2 3005   6.140   5.401   6.007
  571WAT    EPW 3006   6.172   5.412   6.077
  572WAT      O 3007   6.244   5.604   6.734
  572WAT     H1 3008   6.236   5.574   6.653
  572WAT     H2 3009   6.257   5.531   6.781
  572WAT    EPW 3010   6.245   5.588   6.729
  573WAT      O 3011   6.231   5.571   7.080
  573WAT     H1 3012   6.254   5.519   7.014
  573WAT     H2 3013   6.175   5.628   7.043
  573WAT    EPW 3014   6.226   5.572   7.065
  574WAT      O 3015   7.280   5.345   6.901
  574WAT     H1 3016   7.211   5.365   6.950
  574WAT     H2 3017   7.279   5.405   6.838
  574WAT    EPW 3018   7.270   5.357   6.899
  575WAT      O 3019   6.633   6.488   6.982
  575WAT     H1 3020   6.594   6.418   6.947
  575WAT     H2 3021   6.626   6.549   6.919
  575WAT    EPW 3022   6.626   6.487   6.967
  576WAT      O 3023   6.842   4.924   7.235
  576WAT     H1 3024   6.860   4.841   7.213
  576WAT     H2 3025   6.871   4.929   7.317
  576WAT    EPW 3026   6.849   4.912   7.244
  577WAT      O 3027   7.076   5.133   6.233
  577WAT     H1 3028   7.129   5.201   6.246
  577WAT     H2 3029   6.997   5.170   6.226
  577WAT    EPW 3030   7.072   5.149   6.234
  578WAT      O 3031   5.917   5.670   7.581
  578WAT     H1 3032   5.964   5.726   7.534
  578WAT     H2 3033   5.948   5.592   7.557
  578WAT    EPW 3034   5.928   5.667   7.570
  579WAT      O 3035   7.212   5.919   7.444
  579WAT     H1 3036   7.228   6.005   7.443
  579WAT     H2 3037   7.263   5.887   7.382
  579WAT    EPW 3038   7.222   5.927   7.435
  580WAT      O 3039   6.586   6.294   7.536
  580WAT     H1 3040   6.599   6.284   7.622
  580WAT     H2 3041   6.574   6.213   7.508
  580WAT    EPW 3042   6.586   6.281   7.545
  581WAT      O 3043   6.678   5.274   6.849
  581WAT     H1 3044   6.743   5.332   6.855
  581WAT     H2 3045   6.714   5.201   6.881
  581WAT    EPW 3046   6.693   5.272   6.854
  582WAT      O 3047   6.934   5.593   6.048
  582WAT     H1 3048   6.910   5.645   5.982
  582WAT     H2 3049   6.874   5.608   6.109
  582WAT    EPW 3050   6.922   5.603   6.047
  583WAT      O 3051   7.422   5.953   6.369
  583WAT     H1 3052   7.458   5.939   6.447
  583WAT     H2 3053   7.426   5.875   6.330
  583WAT    EPW 3054   7.428   5.940   6.374
  584WAT      O 3055   7.040   6.333   6.823
  584WAT     H1 3056   6.972   6.308   6.774
  584WAT     H2 3057   7.082   6.391   6.773
  584WAT    EPW 3058   7.036   6.338   6.808
  585WAT      O 3059   7.048   6.006   6.782
  585WAT     H1 3060   6.973   6.042   6.807
  585WAT     H2 3061   7.071   5.957   6.851
  585WAT    EPW 3062   7.040   6.004   6.796
  586WAT      O 3063   6.428   6.452   6.202
  586WAT     H1 3064   6.432   6.374   6.240
  586WAT     H2 3065   6.497   6.453   6.149
  586WAT    EPW 3066   6.438   6.441   6.200
  587WAT      O 3067   6.369   4.823   5.995
  587WAT     H1 3068   6.366   4.804   6.080
  587WAT     H2 3069   6.321   4.896   5.989
  587WAT    EPW 3070   6.361   4.831   6.007
  588WAT      O 3071   6.655   6.441   6.049
  588WAT     H1 3072   6.715   6.448   6.112
  588WAT     H2 3073   6.660   6.517   6.007
  588WAT    EPW 3074   6.665   6.453   6.052
  589WAT      O 3075   7.410   5.829   7.265
  589WAT     H1 3076   7.400   5.754   7.222
  589WAT     H2 3077   7.426   5.887   7.201
  589WAT    EPW 3078   7.411   5.827   7.249
  590WAT      O 3079   7.327   4.913   7.547
  590WAT     H1 3080   7.314   4.856   7.483
  590WAT     H2 3081   7.406   4.945   7.529
  590WAT    EPW 3082   7.337   4.909   7.535
  591WAT      O 3083   6.156   5.706   6.140
  591WAT     H1 3084   6.173   5.621   6.129
  591WAT     H2 3085   6.224   5.734   6.188
  591WAT    EPW 3086   6.169   5.697   6.145
  592WAT      O 3087   6.927   5.785   7.159
  592WAT     H1 3088   6.875   5.828   7.215
  592WAT     H2 3089   6.958   5.719   7.207
  592WAT    EPW 3090   6.924   5.781   7.175
  593WAT      O 3091   5.795   4.820   6.228
  593WAT     H1 3092   5.799   4.763   6.162
  593WAT     H2 3093   5.766   4.772   6.295
  593WAT    EPW 3094   5.791   4.805   6.228
  594WAT      O 3095   6.776   5.622   6.275
  594WAT     H1 3096   6.787   5.689   6.331
  594WAT     H2 3097   6.765   5.553   6.327
  594WAT    EPW 3098   6.776   5.622   6.291
  595WAT      O 3099   7.307   6.148   6.850
  595WAT     H1 3100   7.231   6.115   6.820
  595WAT     H2 3101   7.336   6.086   6.904
  595WAT    EPW 3102   7.300   6.134   6.853
  596WAT      O 3103   6.243   5.066   5.951
  596WAT     H1 3104   6.183   5.061   5.889
  596WAT     H2 3105   6.312   5.101   5.910
  596WAT    EPW 3106   6.244   5.071   5.936
  597WAT      O 3107   6.689   5.850   6.691
  597WAT     H1 3108   6.607   5.827   6.707
  597WAT     H2 3109   6.733   5.818   6.760
  597WAT    EPW 3110   6.684   5.842   6.704
  598WAT      O 3111   6.352   6.452   5.825
  598WAT     H1 3112   6.376   6.382   5.872
  598WAT     H2 3113   6.359   6.518   5.881
  598WAT    EPW 3114   6.357   6.451   5.840
  599WAT      O 3115   6.057   5.759   6.965
  599WAT     H1 3116   6.109   5.827   6.947
  599WAT     H2 3117   6.015   5.744   6.891
  599WAT    EPW 3118   6.059   5.767   6.952
  600WAT      O 3119   6.378   5.292   6.618
  600WAT     H1 3120   6.455   5.254   6.603
  600WAT     H2 3121   6.321   5.228   6.605
  600WAT    EPW 3122   6.381   5.277   6.614
  601WAT      O 3123   5.870   5.406   6.264
  601WAT     H1 3124   5.903   5.368   6.336
  601WAT     H2 3125   5.877   5.344   6.204
  601WAT    EPW 3126   5.876   5.392   6.266
  602WAT      O 3127   7.319   5.732   6.927
  602WAT     H1 3128   7.334   5.677   6.993
  602WAT     H2 3129   7.252   5.781   6.955
  602WAT    EPW 3130   7.312   5.731   6.941
  603WAT      O 3131   6.381   5.601   5.819
  603WAT     H1 3132   6.374   5.543   5.884
  603WAT     H2 3133   6.321   5.575   5.761
  603WAT    EPW 3134   6.371   5.588   5.820
  604WAT      O 3135   6.030   5.858   7.401
  604WAT     H1 3136   5.996   5.812   7.335
  604WAT     H2 3137   6.003   5.939   7.385
  604WAT    EPW 3138   6.021   5.863   7.389
  605WAT      O 3139   6.448   5.419   6.029
  605WAT     H1 3140   6.478   5.488   6.073
  605WAT     H2 3141   6.365   5.413   6.054
  605WAT    EPW 3142   6.441   5.428   6.039
  606WAT      O 3143   7.220   5.160   7.623
  606WAT     H1 3144   7.189   5.156   7.705
  606WAT     H2 3145   7.232   5.076   7.602
  606WAT    EPW 3146   7.217   5.147   7.632
  607WAT      O 3147   5.841   5.051   6.745
  607WAT     H1 3148   5.823   5.081   6.665
  607WAT     H2 3149   5.916   5.091   6.765
  607WAT    EPW 3150   5.850   5.061   6.736
  608WAT      O 3151   7.146   5.521   7.639
  608WAT     H1 3152   7.192   5.593   7.657
  608WAT     H2 3153   7.063   5.546   7.654
  608WAT    EPW 3154   7.140   5.535   7.644
  609WAT      O 3155   7.292   5.479   7.406
  609WAT     H1 3156   7.361   5.528   7.429
  609WAT     H2 3157   7.245   5.474   7.479
  609WAT    EPW 3158   7.295   5.486   7.420
  610WAT      O 3159   7.400   6.141   5.988
  610WAT     H1 3160   7.427   6.060   6.003
  610WAT     H2 3161   7.317   6.141   6.014
  610WAT    EPW 3162   7.391   6.129   5.994
  611WAT      O 3163   7.335   5.345   6.529
  611WAT     H1 3164   7.272   5.294   6.561
  611WAT     H2 3165   7.338   5.412   6.585
  611WAT    EPW 3166   7.326   5.347   6.542
  612WAT      O 3167   7.013   5.957   5.926
  612WAT     H1 3168   7.087   5.910   5.921
  612WAT     H2 3169   6.985   5.960   5.843
  612WAT    EPW 3170   7.020   5.951   5.913
  613WAT      O 3171   6.452   6.075   7.027
  613WAT     H1 3172   6.463   6.119   7.101
  613WAT     H2 3173   6.465   6.135   6.965
  613WAT    EPW 3174   6.455   6.091   7.029
  614WAT      O 3175   6.300   5.921   7.377
  614WAT     H1 3176   6.222   5.888   7.395
  614WAT     H2 3177   6.284   6.005   7.358
  614WAT    EPW 3178   6.286   5.928   7.377
  615WAT      O 3179   7.253   4.996   7.189
  615WAT     H1 3180   7.303   5.060   7.221
  615WAT     H2 3181   7.176   5.035   7.176
  615WAT    EPW 3182   7.249   5.011   7.192
  616WAT      O 3183   6.782   5.722   6.930
  616WAT     H1 3184   6.836   5.743   6.996
  616WAT     H2 3185   6.703   5.739   6.962
  616WAT    EPW 3186   6.779   5.728   6.945
  617WAT      O 3187   6.422   5.279   7.317
  617WAT     H1 3188   6.441   5.199   7.345
  617WAT     H2 3189   6.449   5.279   7.234
  617WAT    EPW 3190   6.429   5.267   7.309
  618WAT      O 3191   6.679   6.483   6.516
  618WAT     H1 3192   6.685   6.569   6.524
  618WAT     H2 3193   6.704   6.468   6.434
  618WAT    EPW 3194   6.683   6.493   6.505
  619WAT      O 3195   7.295   4.830   6.963
  619WAT     H1 3196   7.298   4.871   7.039
  619WAT     H2 3197   7.345   4.759   6.975
  619WAT    EPW 3198   7.303   4.825   6.976
  620WAT      O 3199   6.567   4.862   7.171
  620WAT     H1 3200   6.648   4.894   7.173
  620WAT     H2 3201   6.575   4.790   7.123
  620WAT    EPW 3202   6.580   4.856   7.164
  621WAT      O 3203   6.496   6.283   6.847
  621WAT     H1 3204   6.441   6.329   6.798
  621WAT     H2 3205   6.540   6.235   6.789
  621WAT    EPW 3206   6.494   6.283   6.831
  622WAT      O 3207   6.944   5.858   7.510
  622WAT     H1 3208   7.025   5.880   7.487
  622WAT     H2 3209   6.894   5.899   7.452
  622WAT    EPW 3210   6.949   5.867   7.498
  623WAT      O 3211   7.273   6.191   7.421
  623WAT     H1 3212   7.329   6.232   7.473
  623WAT     H2 3213   7.288   6.226   7.343
  623WAT    EPW 3214   7.283   6.202   7.418
  624WAT      O 3215   7.506   5.490   5.890
  624WAT     H1 3216   7.519   5.538   5.818
  624WAT     H2 3217   7.424   5.510   5.913
  624WAT    EPW 3218   7.496   5.500   5.882
  625WAT      O 3219   6.614   5.740   5.878
  625WAT     H1 3220   6.542   5.703   5.844
  625WAT     H2 3221   6.592   5.824   5.882
  625WAT    EPW 3222   6.600   5.747   5.873
  626WAT      O 3223   6.290   5.367   6.870
  626WAT     H1 3224   6.323   5.340   6.794
  626WAT     H2 3225   6.348   5.339   6.929
  626WAT    EPW 3226   6.304   5.359   6.867
  627WAT      O 3227   7.018   5.232   7.436
  627WAT     H1 3228   6.968   5.301   7.455
  627WAT     H2 3229   7.081   5.235   7.496
  627WAT    EPW 3230   7.020   5.243   7.448
  628WAT      O 3231   7.050   5.391   7.051
  628WAT     H1 3232   7.047   5.443   7.121
  628WAT     H2 3233   7.032   5.312   7.084
  628WAT    EPW 3234   7.047   5.387   7.066
  629WAT      O 3235   6.737   6.509   7.429
  629WAT     H1 3236   6.752   6.495   7.344
  629WAT     H2 3237   6.706   6.433   7.458
  629WAT    EPW 3238   6.735   6.496   7.421
  630WAT      O 3239   7.235   5.361   6.272
  630WAT     H1 3240   7.259   5.356   6.356
  630WAT     H2 3241   7.311   5.370   6.229
  630WAT    EPW 3242   7.250   5.362   6.278
  631WAT      O 3243   6.569   4.851   6.809
  631WAT     H1 3244   6.486   4.832   6.831
  631WAT     H2 3245   6.566   4.859   6.723
  631WAT    EPW 3246   6.556   4.849   6.800
  632WAT      O 3247   7.407   4.930   6.386
  632WAT     H1 3248   7.324   4.907   6.401
  632WAT     H2 3249   7.412   4.935   6.299
  632WAT    EPW 3250   7.396   4.928   6.375
  633WAT      O 3251   7.415   5.711   6.222
  633WAT     H1 3252   7.454   5.633   6.222
  633WAT     H2 3253   7.330   5.692   6.225
  633WAT    EPW 3254   7.408   5.697   6.223
  634WAT      O 3255   6.769   5.962   7.316
  634WAT     H1 3256   6.695   5.964   7.362
  634WAT     H2 3257   6.783   6.045   7.295
  634WAT    EPW 3258   6.760   5.975   7.320
  635WAT      O 3259   5.830   4.942   7.484
  635WAT     H1 3260   5.811   4.996   7.418
  635WAT     H2 3261   5.752   4.915   7.511
  635WAT    EPW 3262   5.816   4.946   7.478
  636WAT      O 3263   6.326   6.591   6.906
  636WAT     H1 3264   6.334   6.561   6.988
  636WAT     H2 3265   6.293   6.523   6.863
  636WAT    EPW 3266   6.322   6.577   6.912
  637WAT      O 3267   6.152   5.171   6.197
  637WAT     H1 3268   6.167   5.135   6.119
  637WAT     H2 3269   6.072   5.143   6.217
  637WAT    EPW 3270   6.142   5.161   6.188
  638WAT      O 3271   7.053   5.933   6.512
  638WAT     H1 3272   7.051   5.959   6.596
  638WAT     H2 3273   7.083   5.852   6.517
  638WAT    EPW 3274   7.057   5.925   6.525
  639WAT      O 3275   6.800   5.846   6.437
  639WAT     H1 3276   6.761   5.843   6.516
  639WAT     H2 3277   6.878   5.880   6.454
  639WAT    EPW 3278   6.805   5.851   6.452
  640WAT      O 3279   6.793   6.236   7.273
  640WAT     H1 3280   6.854   6.239   7.335
  640WAT     H2 3281   6.817   6.299   7.218
  640WAT    EPW 3282   6.806   6.246   7.274
  641WAT      O 3283   7.041   5.556   7.278
  641WAT     H1 3284   6.979   5.525   7.331
  641WAT     H2 3285   7.115   5.545   7.323
  641WAT    EPW 3286   7.043   5.549   7.292
  642WAT      O 3287   5.984   6.550   7.414
  642WAT     H1 3288   5.925   6.486   7.405
  642WAT     H2 3289   5.938   6.615   7.450
  642WAT    EPW 3290   5.968   6.550   7.418
  643WAT      O 3291   6.889   5.636   7.661
  643WAT     H1 3292   6.906   5.709   7.616
  643WAT     H2 3293   6.823   5.660   7.713
  643WAT    EPW 3294   6.882   5.651   7.662
  644WAT      O 3295   7.140   6.567   6.707
  644WAT     H1 3296   7.085   6.625   6.743
  644WAT     H2 3297   7.216   6.585   6.745
  644WAT    EPW 3298   7.143   6.578   6.718
  645WAT      O 3299   6.833   6.089   6.953
  645WAT     H1 3300   6.775   6.049   7.003
  645WAT     H2 3301   6.891   6.121   7.010
  645WAT    EPW 3302   6.833   6.088   6.969
  646WAT      O 3303   6.158   5.372   7.263
  646WAT     H1 3304   6.177   5.440   7.212
  646WAT     H2 3305   6.236   5.342   7.287
  646WAT    EPW 3306   6.173   5.378   7.259
  647WAT      O 3307   5.968   5.214   7.133
  647WAT     H1 3308   5.984   5.225   7.048
  647WAT     H2 3309   6.026   5.266   7.172
  647WAT    EPW 3310   5.979   5.223   7.126
  648WAT      O 3311   7.492   5.437   6.186
  648WAT     H1 3312   7.523   5.426   6.105
  648WAT     H2 3313   7.523   5.367   6.228
  648WAT    EPW 3314   7.501   5.425   6.180
  649WAT      O 3315   6.192   4.943   7.413
  649WAT     H1 3316   6.151   4.868   7.429
  649WAT     H2 3317   6.172   4.960   7.330
  649WAT    EPW 3318   6.183   4.934   7.403
  650WAT      O 3319   6.868   6.194   6.373
  650WAT     H1 3320   6.860   6.269   6.330
  650WAT     H2 3321   6.803   6.146   6.340
  650WAT    EPW 3322   6.857   6.198   6.362
  651WAT      O 3323   7.378   5.579   7.151
  651WAT     H1 3324   7.432   5.518   7.120
  651WAT     H2 3325   7.336   5.537   7.216
  651WAT    EPW 3326   7.380   5.564   7.156
  652WAT      O 3327   5.903   5.727   7.194
  652WAT     H1 3328   5.946   5.741   7.119
  652WAT     H2 3329   5.880   5.643   7.190
  652WAT    EPW 3330   5.906   5.717   7.182
  653WAT      O 3331   6.051   5.326   5.847
  653WAT     H1 3332   5.977   5.317   5.891
  653WAT     H2 3333   6.061   5.250   5.806
  653WAT    EPW 3334   6.042   5.314   5.847
  654WAT      O 3335   6.942   4.973   7.496
  654WAT     H1 3336   6.959   5.058   7.485
  654WAT     H2 3337   6.861   4.972   7.530
  654WAT    EPW 3338   6.932   4.985   7.500
  655WAT      O 3339   6.891   5.045   6.574
  655WAT     H1 3340   6.812   5.084   6.574
  655WAT     H2 3341   6.883   4.985   6.512
  655WAT    EPW 3342   6.878   5.042   6.565
  656WAT      O 3343   6.381   6.216   5.987
  656WAT     H1 3344   6.416   6.215   6.067
  656WAT     H2 3345   6.297   6.195   6.001
  656WAT    EPW 3346   6.373   6.213   6.001
  657WAT      O 3347   7.207   5.080   6.845
  657WAT     H1 3348   7.260   5.018   6.876
  657WAT     H2 3349   7.242   5.153   6.875
  657WAT    EPW 3350   7.220   5.081   6.854
  658WAT      O 3351   6.419   5.696   7.251
  658WAT     H1 3352   6.378   5.762   7.290
  658WAT     H2 3353   6.356   5.657   7.205
  658WAT    EPW 3354   6.404   5.700   7.250
  659WAT      O 3355   7.287   5.557   6.711
  659WAT     H1 3356   7.302   5.618   6.771
  659WAT     H2 3357   7.239   5.599   6.651
  659WAT    EPW 3358   7.282   5.572   6.711
  660WAT      O 3359   7.293   6.388   6.353
  660WAT     H1 3360   7.260   6.307   6.358
  660WAT     H2 3361   7.341   6.386   6.280
  660WAT    EPW 3362   7.295   6.376   6.343
  661WAT      O 3363   6.125   6.129   6.045
  661WAT     H1 3364   6.123   6.111   6.130
  661WAT     H2 3365   6.138   6.052   6.007
  661WAT    EPW 3366   6.126   6.115   6.052
  662WAT      O 3367   6.440   5.971   5.856
  662WAT     H1 3368   6.362   5.935   5.871
  662WAT     H2 3369   6.434   6.050   5.895
  662WAT    EPW 3370   6.427   5.978   5.864
  663WAT      O 3371   6.382   5.030   7.040
  663WAT     H1 3372   6.302   5.006   7.067
  663WAT     H2 3373   6.434   4.968   7.073
  663WAT    EPW 3374   6.378   5.017   7.049
  664WAT      O 3375   6.753   5.022   6.931
  664WAT     H1 3376   6.690   4.971   6.898
  664WAT     H2 3377   6.826   4.984   6.905
  664WAT    EPW 3378   6.754   5.009   6.922
  665WAT      O 3379   7.079   6.186   7.065
  665WAT     H1 3380   7.137   6.233   7.110
  665WAT     H2 3381   7.080   6.224   6.986
  665WAT    EPW 3382   7.088   6.199   7.060
  666WAT      O 3383   7.009   6.549   7.469
  666WAT     H1 3384   6.924   6.532   7.460
  666WAT     H2 3385   7.011   6.632   7.494
  666WAT    EPW 3386   6.997   6.559   7.471
  667WAT      O 3387   6.587   5.501   7.378
  667WAT     H1 3388   6.535   5.431   7.369
  667WAT     H2 3389   6.541   5.565   7.340
  667WAT    EPW 3390   6.572   5.500   7.371
  668WAT      O 3391   6.637   4.851   5.938
  668WAT     H1 3392   6.648   4.859   5.852
  668WAT     H2 3393   6.551   4.853   5.948
  668WAT    EPW 3394   6.626   4.853   5.927
  669WAT      O 3395   7.454   5.960   7.013
  669WAT     H1 3396   7.424   5.886   6.976
  669WAT     H2 3397   7.534   5.969   6.978
  669WAT    EPW 3398   7.462   5.950   7.002
  670WAT      O 3399   6.414   6.497   7.432
  670WAT     H1 3400   6.457   6.572   7.446
  670WAT     H2 3401   6.469   6.436   7.459
  670WAT    EPW 3402   6.428   6.499   7.438
  671WAT      O 3403   7.395   6.406   6.901
  671WAT     H1 3404   7.440   6.427   6.829
  671WAT     H2 3405   7.362   6.328   6.882
  671WAT    EPW 3406   7.396   6.398   6.887
  672WAT      O 3407   6.127   4.983   7.150
  672WAT     H1 3408   6.074   4.918   7.126
  672WAT     H2 3409   6.078   5.055   7.138
  672WAT    EPW 3410   6.112   4.984   7.144
  673WAT      O 3411   6.981   4.922   6.806
  673WAT     H1 3412   7.045   4.977   6.829
  673WAT     H2 3413   6.950   4.957   6.732
  673WAT    EPW 3414   6.986   4.936   6.798
  674WAT      O 3415   6.181   6.385   7.530
  674WAT     H1 3416   6.253   6.432   7.515
  674WAT     H2 3417   6.116   6.437   7.503
  674WAT    EPW 3418   6.182   6.400   7.524
  675WAT      O 3419   6.972   5.444   6.589
  675WAT     H1 3420   7.021   5.373   6.600
  675WAT     H2 3421   6.940   5.459   6.669
  675WAT    EPW 3422   6.974   5.435   6.602
  676WAT      O 3423   5.988   5.327   6.509
  676WAT     H1 3424   5.944   5.353   6.580
  676WAT     H2 3425   6.027   5.253   6.535
  676WAT    EPW 3426   5.987   5.320   6.523
  677WAT      O 3427   5.977   6.122   7.305
  677WAT     H1 3428   5.928   6.188   7.333
  677WAT     H2 3429   6.058   6.152   7.310
  677WAT    EPW 3430   5.981   6.136   7.310
  678WAT      O 3431   7.151   5.614   6.222
  678WAT     H1 3432   7.166   5.530   6.239
  678WAT     H2 3433   7.076   5.613   6.177
  678WAT    EPW 3434   7.142   5.601   6.218
  679WAT      O 3435   6.152   6.464   6.177
  679WAT     H1 3436   6.124   6.464   6.095
  679WAT     H2 3437   6.238   6.454   6.170
  679WAT    EPW 3438   6.161   6.462   6.164
  680WAT      O 3439   6.546   5.654   6.133
  680WAT     H1 3440   6.573   5.689   6.057
  680WAT     H2 3441   6.619   5.645   6.179
  680WAT    EPW 3442   6.561   5.658   6.128
  681WAT      O 3443   7.415   6.506   5.882
  681WAT     H1 3444   7.444   6.474   5.957
  681WAT     H2 3445   7.410   6.437   5.830
  681WAT    EPW 3446   7.418   6.491   5.886
  682WAT      O 3447   7.495   5.668   7.478
  682WAT     H1 3448   7.582   5.668   7.489
  682WAT     H2 3449   7.482   5.728   7.416
  682WAT    EPW 3450   7.506   5.677   7.471
  683WAT      O 3451   7.141   6.161   6.079
  683WAT     H1 3452   7.144   6.138   6.163
  683WAT     H2 3453   7.089   6.101   6.043
  683WAT    EPW 3454   7.134   6.149   6.086
  684WAT      O 3455   7.490   5.170   7.550
  684WAT     H1 3456   7.540   5.222   7.600
  684WAT     H2 3457   7.410   5.181   7.583
  684WAT    EPW 3458   7.486   5.180   7.562
  685WAT      O 3459   7.518   5.368   7.048
  685WAT     H1 3460   7.453   5.352   6.991
  685WAT     H2 3461   7.509   5.304   7.107
  685WAT    EPW 3462   7.507   5.356   7.048
  686WAT      O 3463   6.466   5.002   7.392
  686WAT     H1 3464   6.487   4.962   7.318
  686WAT     H2 3465   6.382   4.982   7.403
  686WAT    EPW 3466   6.456   4.993   7.383
  687WAT      O 3467   7.295   5.753   7.658
  687WAT     H1 3468   7.369   5.729   7.618
  687WAT     H2 3469   7.261   5.813   7.605
  687WAT    EPW 3470   7.301   5.759   7.644
  688WAT      O 3471   6.181   6.366   6.809
  688WAT     H1 3472   6.168   6.289   6.771
  688WAT     H2 3473   6.140   6.422   6.756
  688WAT    EPW 3474   6.173   6.363   6.796
  689WAT      O 3475   6.750   5.996   6.015
  689WAT     H1 3476   6.833   5.976   5.996
  689WAT     H2 3477   6.736   6.069   5.968
  689WAT    EPW 3478   6.760   6.004   6.005
  690WAT      O 3479   5.944   6.612   7.145
  690WAT     H1 3480   5.957   6.594   7.229
  690WAT     H2 3481   5.977   6.542   7.104
  690WAT    EPW 3482   5.951   6.599   7.151
  691WAT      O 3483   6.904   4.849   4.485
  691WAT     H1 3484   6.898   4.889   4.408
  691WAT     H2 3485   6.990   4.839   4.495
  691WAT    EPW 3486   6.916   4.853   4.475
  692WAT      O 3487   6.876   5.473   4.956
  692WAT     H1 3488   6.843   5.550   4.982
  692WAT     H2 3489   6.930   5.452   5.021
  692WAT    EPW 3490   6.879   5.481   4.970
  693WAT      O 3491   5.854   5.952   4.466
  693WAT     H1 3492   5.841   5.956   4.552
  693WAT     H2 3493   5.849   5.867   4.448
  693WAT    EPW 3494   5.851   5.940   4.476
  694WAT      O 3495   7.468   6.370   4.226
  694WAT     H1 3496   7.543   6.359   4.269
  694WAT     H2 3497   7.453   6.292   4.190
  694WAT    EPW 3498   7.476   6.357   4.227
  695WAT      O 3499   5.841   5.291   4.111
  695WAT     H1 3500   5.776   5.339   4.080
  695WAT     H2 3501   5.811   5.209   4.107
  695WAT    EPW 3502   5.827   5.286   4.106
  696WAT      O 3503   6.171   5.883   4.029
  696WAT     H1 3504   6.135   5.842   3.961
  696WAT     H2 3505   6.171   5.822   4.092
  696WAT    EPW 3506   6.166   5.868   4.028
  697WAT      O 3507   7.128   5.662   4.611
  697WAT     H1 3508   7.136   5.652   4.525
  697WAT     H2 3509   7.071   5.599   4.633
  697WAT    EPW 3510   7.121   5.651   4.602
  698WAT      O 3511   6.104   6.062   4.419
  698WAT     H1 3512   6.157   6.024   4.477
  698WAT     H2 3513   6.027   6.022   4.432
  698WAT    EPW 3514   6.100   6.050   4.430
  699WAT      O 3515   6.566   4.975   4.378
  699WAT     H1 3516   6.559   5.042   4.323
  699WAT     H2 3517   6.642   4.938   4.355
  699WAT    EPW 3518   6.576   4.979   4.367
  700WAT      O 3519   5.991   6.341   4.020
  700WAT     H1 3520   6.038   6.348   3.948
  700WAT     H2 3521   6.027   6.272   4.061
  700WAT    EPW 3522   6.004   6.332   4.016
  701WAT      O 3523   5.875   6.159   5.141
  701WAT     H1 3524   5.909   6.138   5.218
  701WAT     H2 3525   5.806   6.106   5.134
  701WAT    EPW 3526   5.870   6.148   5.151
  702WAT      O 3527   6.532   5.995   5.591
  702WAT     H1 3528   6.510   5.983   5.674
  702WAT     H2 3529   6.460   5.973   5.547
  702WAT    EPW 3530   6.518   5.990   5.597
  703WAT      O 3531   6.042   5.694   4.605
  703WAT     H1 3532   5.995   5.693   4.531
  703WAT     H2 3533   6.095   5.626   4.596
  703WAT    EPW 3534   6.043   5.684   4.592
  704WAT      O 3535   6.492   5.287   5.158
  704WAT     H1 3536   6.558   5.288   5.102
  704WAT     H2 3537   6.463   5.204   5.154
  704WAT    EPW 3538   6.497   5.275   5.150
  705WAT      O 3539   6.512   6.281   5.325
  705WAT     H1 3540   6.521   6.346   5.268
  705WAT     H2 3541   6.594   6.262   5.348
  705WAT    EPW 3542   6.525   6.288   5.320
  706WAT      O 3543   6.210   5.476   4.596
  706WAT     H1 3544   6.276   5.424   4.619
  706WAT     H2 3545   6.141   5.422   4.596
  706WAT    EPW 3546   6.210   5.460   4.599
  707WAT      O 3547   6.624   6.116   4.750
  707WAT     H1 3548   6.648   6.034   4.768
  707WAT     H2 3549   6.700   6.159   4.747
  707WAT    EPW 3550   6.639   6.110   4.752
  708WAT      O 3551   6.677   6.032   4.374
  708WAT     H1 3552   6.708   5.967   4.424
  708WAT     H2 3553   6.703   6.010   4.294
  708WAT    EPW 3554   6.685   6.019   4.370
  709WAT      O 3555   6.828   5.513   5.543
  709WAT     H1 3556   6.742   5.508   5.528
  709WAT     H2 3557   6.833   5.559   5.617
  709WAT    EPW 3558   6.816   5.519   5.552
  710WAT      O 3559   6.292   4.994   4.459
  710WAT     H1 3560   6.254   5.051   4.405
  710WAT     H2 3561   6.375   4.992   4.433
  710WAT    EPW 3562   6.299   5.002   4.447
  711WAT      O 3563   7.250   4.730   5.462
  711WAT     H1 3564   7.236   4.802   5.414
  711WAT     H2 3565   7.174   4.720   5.505
  711WAT    EPW 3566   7.237   4.739   5.461
  712WAT      O 3567   6.594   4.915   4.656
  712WAT     H1 3568   6.603   4.997   4.684
  712WAT     H2 3569   6.574   4.924   4.571
  712WAT    EPW 3570   6.593   4.928   4.647
  713WAT      O 3571   7.047   5.166   3.889
  713WAT     H1 3572   7.000   5.232   3.924
  713WAT     H2 3573   7.052   5.108   3.953
  713WAT    EPW 3574   7.041   5.167   3.903
  714WAT      O 3575   5.867   5.415   4.860
  714WAT     H1 3576   5.862   5.501   4.874
  714WAT     H2 3577   5.801   5.383   4.906
  714WAT    EPW 3578   5.857   5.423   4.869
  715WAT      O 3579   5.850   6.393   4.677
  715WAT     H1 3580   5.788   6.443   4.643
  715WAT     H2 3581   5.891   6.359   4.607
  715WAT    EPW 3582   5.847   6.395   4.662
  716WAT      O 3583   6.441   6.170   4.363
  716WAT     H1 3584   6.408   6.168   4.444
  716WAT     H2 3585   6.519   6.132   4.372
  716WAT    EPW 3586   6.447   6.164   4.377
  717WAT      O 3587   7.039   6.419   4.170
  717WAT     H1 3588   7.103   6.478   4.176
  717WAT     H2 3589   7.081   6.343   4.181
  717WAT    EPW 3590   7.055   6.416   4.173
  718WAT      O 3591   6.841   6.450   4.358
  718WAT     H1 3592   6.862   6.524   4.400
  718WAT     H2 3593   6.906   6.440   4.300
  718WAT    EPW 3594   6.854   6.459   4.356
  719WAT      O 3595   6.090   4.941   4.875
  719WAT     H1 3596   6.079   4.863   4.837
  719WAT     H2 3597   6.146   4.923   4.941
  719WAT    EPW 3598   6.097   4.927   4.879
  720WAT      O 3599   6.478   5.141   5.804
  720WAT     H1 3600   6.479   5.103   5.726
  720WAT     H2 3601   6.522   5.216   5.791
  720WAT    EPW 3602   6.485   5.147   5.791
  721WAT      O 3603   5.988   6.312   4.445
  721WAT     H1 3604   6.037   6.241   4.454
  721WAT     H2 3605   6.036   6.365   4.396
  721WAT    EPW 3606   6.002   6.310   4.439
  722WAT      O 3607   7.513   5.216   4.468
  722WAT     H1 3608   7.472   5.257   4.533
  722WAT     H2 3609   7.489   5.133   4.478
  722WAT    EPW 3610   7.503   5.210   4.479
  723WAT      O 3611   7.063   6.511   5.114
  723WAT     H1 3612   7.127   6.567   5.097
  723WAT     H2 3613   7.062   6.459   5.043
  723WAT    EPW 3614   7.072   6.511   5.101
  724WAT      O 3615   6.067   5.069   5.734
  724WAT     H1 3616   5.987   5.039   5.717
  724WAT     H2 3617   6.116   5.034   5.671
  724WAT    EPW 3618   6.062   5.059   5.722
  725WAT      O 3619   6.138   6.126   4.799
  725WAT     H1 3620   6.199   6.117   4.737
  725WAT     H2 3621   6.165   6.073   4.862
  725WAT    EPW 3622   6.151   6.117   4.799
  726WAT      O 3623   6.417   6.438   4.705
  726WAT     H1 3624   6.497   6.456   4.677
  726WAT     H2 3625   6.366   6.488   4.655
  726WAT    EPW 3626   6.421   6.448   4.694
  727WAT      O 3627   6.670   4.872   5.666
  727WAT     H1 3628   6.685   4.798   5.622
  727WAT     H2 3629   6.603   4.908   5.624
  727WAT    EPW 3630   6.663   4.866   5.654
  728WAT      O 3631   6.763   5.382   4.524
  728WAT     H1 3632   6.794   5.340   4.454
  728WAT     H2 3633   6.834   5.398   4.572
  728WAT    EPW 3634   6.778   5.378   4.521
  729WAT      O 3635   6.870   5.349   4.022
  729WAT     H1 3636   6.892   5.429   4.049
  729WAT     H2 3637   6.796   5.362   3.978
  729WAT    EPW 3638   6.862   5.363   4.019
  730WAT      O 3639   7.229   6.625   4.151
  730WAT     H1 3640   7.276   6.591   4.086
  730WAT     H2 3641   7.283   6.683   4.188
  730WAT    EPW 3642   7.244   6.628   4.147
  731WAT      O 3643   6.293   6.522   5.297
  731WAT     H1 3644   6.324   6.506   5.377
  731WAT     H2 3645   6.228   6.464   5.288
  731WAT    EPW 3646   6.288   6.511   5.308
  732WAT      O 3647   5.770   5.174   5.463
  732WAT     H1 3648   5.765   5.247   5.509
  732WAT     H2 3649   5.833   5.190   5.406
  732WAT    EPW 3650   5.778   5.187   5.462
  733WAT      O 3651   6.966   6.214   5.569
  733WAT     H1 3652   6.964   6.251   5.648
  733WAT     H2 3653   7.051   6.202   5.555
  733WAT    EPW 3654   6.978   6.218   5.579
  734WAT      O 3655   6.728   6.239   3.975
  734WAT     H1 3656   6.696   6.298   4.031
  734WAT     H2 3657   6.806   6.271   3.953
  734WAT    EPW 3658   6.735   6.252   3.980
  735WAT      O 3659   7.057   4.993   4.103
  735WAT     H1 3660   7.108   4.922   4.107
  735WAT     H2 3661   7.080   5.038   4.175
  735WAT    EPW 3662   7.068   4.989   4.115
  736WAT      O 3663   5.898   5.082   4.384
  736WAT     H1 3664   5.877   4.999   4.368
  736WAT     H2 3665   5.847   5.102   4.452
  736WAT    EPW 3666   5.887   5.072   4.392
  737WAT      O 3667   6.057   6.384   5.175
  737WAT     H1 3668   5.998   6.320   5.170
  737WAT     H2 3669   6.097   6.381   5.098
  737WAT    EPW 3670   6.054   6.374   5.163
  738WAT      O 3671   6.829   5.254   4.282
  738WAT     H1 3672   6.759   5.205   4.265
  738WAT     H2 3673   6.850   5.287   4.203
  738WAT    EPW 3674   6.822   5.252   4.268
  739WAT      O 3675   6.839   6.486   5.266
  739WAT     H1 3676   6.911   6.491   5.217
  739WAT     H2 3677   6.775   6.482   5.206
  739WAT    EPW 3678   6.840   6.486   5.250
  740WAT      O 3679   6.820   4.933   4.233
  740WAT     H1 3680   6.763   4.915   4.169
  740WAT     H2 3681   6.893   4.954   4.190
  740WAT    EPW 3682   6.823   4.933   4.217
  741WAT      O 3683   7.453   6.514   4.642
  741WAT     H1 3684   7.458   6.592   4.603
  741WAT     H2 3685   7.404   6.467   4.587
  741WAT    EPW 3686   7.446   6.519   4.628
  742WAT      O 3687   6.643   5.193   4.694
  742WAT     H1 3688   6.671   5.257   4.642
  742WAT     H2 3689   6.656   5.225   4.774
  742WAT    EPW 3690   6.649   5.207   4.698
  743WAT      O 3691   7.200   6.117   4.452
  743WAT     H1 3692   7.270   6.066   4.461
  743WAT     H2 3693   7.139   6.079   4.501
  743WAT    EPW 3694   7.201   6.104   4.460
  744WAT      O 3695   6.252   6.223   5.448
  744WAT     H1 3696   6.327   6.256   5.419
  744WAT     H2 3697   6.236   6.267   5.521
  744WAT    EPW 3698   6.260   6.234   5.454
  745WAT      O 3699   6.223   4.731   4.513
  745WAT     H1 3700   6.242   4.814   4.496
  745WAT     H2 3701   6.194   4.700   4.437
  745WAT    EPW 3702   6.222   4.739   4.499
  746WAT      O 3703   6.434   5.808   4.887
  746WAT     H1 3704   6.457   5.787   4.969
  746WAT     H2 3705   6.378   5.745   4.865
  746WAT    EPW 3706   6.429   5.796   4.896
  747WAT      O 3707   7.015   5.137   5.283
  747WAT     H1 3708   7.008   5.174   5.362
  747WAT     H2 3709   6.950   5.080   5.282
  747WAT    EPW 3710   7.005   5.134   5.295
  748WAT      O 3711   6.533   5.804   5.147
  748WAT     H1 3712   6.515   5.889   5.155
  748WAT     H2 3713   6.503   5.769   5.221
  748WAT    EPW 3714   6.526   5.811   5.159
  749WAT      O 3715   7.128   5.939   5.126
  749WAT     H1 3716   7.070   5.890   5.169
  749WAT     H2 3717   7.112   6.020   5.153
  749WAT    EPW 3718   7.117   5.944   5.136
  750WAT      O 3719   7.170   4.792   4.543
  750WAT     H1 3720   7.170   4.772   4.628
  750WAT     H2 3721   7.191   4.716   4.505
  750WAT    EPW 3722   7.173   4.778   4.550
  751WAT      O 3723   5.791   6.212   5.764
  751WAT     H1 3724   5.849   6.259   5.808
  751WAT     H2 3725   5.796   6.133   5.800
  751WAT    EPW 3726   5.800   6.207   5.776
  752WAT      O 3727   7.398   5.137   5.426
  752WAT     H1 3728   7.425   5.215   5.398
  752WAT     H2 3729   7.379   5.151   5.510
  752WAT    EPW 3730   7.399   5.151   5.435
  753WAT      O 3731   6.171   5.119   4.681
  753WAT     H1 3732   6.202   5.068   4.617
  753WAT     H2 3733   6.149   5.063   4.743
  753WAT    EPW 3734   6.172   5.103   4.681
  754WAT      O 3735   7.482   5.873   4.103
  754WAT     H1 3736   7.462   5.825   4.173
  754WAT     H2 3737   7.561   5.844   4.080
  754WAT    EPW 3738   7.490   5.862   4.110
  755WAT      O 3739   6.233   5.897   4.600
  755WAT     H1 3740   6.287   5.863   4.541
  755WAT     H2 3741   6.173   5.835   4.612
  755WAT    EPW 3742   6.232   5.883   4.593
  756WAT      O 3743   6.061   6.551   4.756
  756WAT     H1 3744   5.988   6.510   4.732
  756WAT     H2 3745   6.107   6.556   4.682
  756WAT    EPW 3746   6.057   6.546   4.741
  757WAT      O 3747   6.052   5.295   5.037
  757WAT     H1 3748   6.131   5.317   5.008
  757WAT     H2 3749   5.999   5.325   4.974
  757WAT    EPW 3750   6.056   5.303   5.023
  758WAT      O 3751   7.246   5.566   4.052
  758WAT     H1 3752   7.243   5.648   4.021
  758WAT     H2 3753   7.215   5.574   4.133
  758WAT    EPW 3754   7.241   5.580   4.059
  759WAT      O 3755   6.372   5.832   4.363
  759WAT     H1 3756   6.402   5.912   4.347
  759WAT     H2 3757   6.433   5.779   4.330
  759WAT    EPW 3758   6.385   5.836   4.356
  760WAT      O 3759   5.883   6.010   4.751
  760WAT     H1 3760   5.830   6.069   4.788
  760WAT     H2 3761   5.962   6.046   4.759
  760WAT    EPW 3762   5.887   6.024   4.757
  761WAT      O 3763   6.616   5.387   5.794
  761WAT     H1 3764   6.562   5.417   5.856
  761WAT     H2 3765   6.593   5.432   5.723
  761WAT    EPW 3766   6.604   5.398   5.793
  762WAT      O 3767   5.905   5.689   4.367
  762WAT     H1 3768   5.889   5.603   4.365
  762WAT     H2 3769   5.978   5.697   4.318
  762WAT    EPW 3770   5.914   5.678   4.359
  763WAT      O 3771   7.427   4.970   4.201
  763WAT     H1 3772   7.502   4.932   4.176
  763WAT     H2 3773   7.429   5.048   4.162
  763WAT    EPW 3774   7.438   4.976   4.192
  764WAT      O 3775   6.852   6.276   4.736
  764WAT     H1 3776   6.804   6.347   4.718
  764WAT     H2 3777   6.874   6.245   4.658
  764WAT    EPW 3778   6.848   6.282   4.722
  765WAT      O 3779   5.817   6.158   4.289
  765WAT     H1 3780   5.871   6.214   4.329
  765WAT     H2 3781   5.810   6.092   4.345
  765WAT    EPW 3782   5.824   6.156   4.303
  766WAT      O 3783   6.240   5.967   5.002
  766WAT     H1 3784   6.291   6.008   5.059
  766WAT     H2 3785   6.296   5.920   4.954
  766WAT    EPW 3786   6.255   5.966   5.003
  767WAT      O 3787   7.117   5.208   4.723
  767WAT     H1 3788   7.146   5.165   4.793
  767WAT     H2 3789   7.053   5.156   4.692
  767WAT    EPW 3790   7.112   5.194   4.729
  768WAT      O 3791   5.833   5.999   4.055
  768WAT     H1 3792   5.907   5.953   4.054
  768WAT     H2 3793   5.842   6.051   4.125
  768WAT    EPW 3794   5.845   6.000   4.065
  769WAT      O 3795   5.898   5.743   4.837
  769WAT     H1 3796   5.948   5.717   4.770
  769WAT     H2 3797   5.891   5.829   4.824
  769WAT    EPW 3798   5.905   5.752   4.826
  770WAT      O 3799   6.568   5.171   4.184
  770WAT     H1 3800   6.558   5.137   4.104
  770WAT     H2 3801   6.533   5.251   4.177
  770WAT    EPW 3802   6.561   5.178   4.171
  771WAT      O 3803   7.273   6.336   5.309
  771WAT     H1 3804   7.266   6.413   5.349
  771WAT     H2 3805   7.323   6.353   5.240
  771WAT    EPW 3806   7.279   6.350   5.305
  772WAT      O 3807   6.371   6.178   4.630
  772WAT     H1 3808   6.379   6.262   4.654
  772WAT     H2 3809   6.442   6.141   4.665
  772WAT    EPW 3810   6.383   6.185   4.639
  773WAT      O 3811   6.161   5.513   5.668
  773WAT     H1 3812   6.121   5.452   5.716
  773WAT     H2 3813   6.162   5.478   5.588
  773WAT    EPW 3814   6.155   5.499   5.663
  774WAT      O 3815   6.182   5.422   4.176
  774WAT     H1 3816   6.167   5.355   4.230
  774WAT     H2 3817   6.143   5.397   4.101
  774WAT    EPW 3818   6.174   5.408   4.173
  775WAT      O 3819   6.248   5.614   4.839
  775WAT     H1 3820   6.236   5.580   4.759
  775WAT     H2 3821   6.267   5.545   4.888
  775WAT    EPW 3822   6.249   5.599   4.834
  776WAT      O 3823   6.227   5.576   5.195
  776WAT     H1 3824   6.252   5.523   5.130
  776WAT     H2 3825   6.172   5.631   5.157
  776WAT    EPW 3826   6.223   5.576   5.180
  777WAT      O 3827   7.276   5.342   5.013
  777WAT     H1 3828   7.205   5.361   5.060
  777WAT     H2 3829   7.277   5.404   4.952
  777WAT    EPW 3830   7.265   5.354   5.011
  778WAT      O 3831   6.611   6.459   5.112
  778WAT     H1 3832   6.587   6.395   5.057
  778WAT     H2 3833   6.599   6.532   5.066
  778WAT    EPW 3834   6.605   6.460   5.097
  779WAT      O 3835   6.846   4.919   5.346
  779WAT     H1 3836   6.866   4.837   5.326
  779WAT     H2 3837   6.877   4.928   5.427
  779WAT    EPW 3838   6.853   4.908   5.355
  780WAT      O 3839   7.076   5.134   4.338
  780WAT     H1 3840   7.130   5.201   4.352
  780WAT     H2 3841   6.998   5.172   4.330
  780WAT    EPW 3842   7.072   5.149   4.339
  781WAT      O 3843   6.035   5.751   5.726
  781WAT     H1 3844   6.030   5.795   5.651
  781WAT     H2 3845   6.080   5.679   5.705
  781WAT    EPW 3846   6.041   5.747   5.712
  782WAT      O 3847   7.233   5.909   5.587
  782WAT     H1 3848   7.236   5.995   5.572
  782WAT     H2 3849   7.285   5.876   5.525
  782WAT    EPW 3850   7.241   5.917   5.575
  783WAT      O 3851   6.609   6.265   5.625
  783WAT     H1 3852   6.640   6.257   5.706
  783WAT     H2 3853   6.584   6.184   5.605
  783WAT    EPW 3854   6.610   6.252   5.634
  784WAT      O 3855   6.680   5.276   4.954
  784WAT     H1 3856   6.745   5.334   4.960
  784WAT     H2 3857   6.715   5.202   4.984
  784WAT    EPW 3858   6.695   5.274   4.959
  785WAT      O 3859   6.934   5.593   4.150
  785WAT     H1 3860   6.909   5.646   4.085
  785WAT     H2 3861   6.873   5.607   4.211
  785WAT    EPW 3862   6.921   5.603   4.149
  786WAT      O 3863   7.422   5.951   4.472
  786WAT     H1 3864   7.461   5.935   4.549
  786WAT     H2 3865   7.426   5.874   4.431
  786WAT    EPW 3866   7.429   5.937   4.478
  787WAT      O 3867   7.075   6.315   4.906
  787WAT     H1 3868   7.005   6.290   4.861
  787WAT     H2 3869   7.106   6.382   4.860
  787WAT    EPW 3870   7.069   6.321   4.892
  788WAT      O 3871   6.991   5.986   4.884
  788WAT     H1 3872   6.920   6.022   4.919
  788WAT     H2 3873   7.035   5.955   4.954
  788WAT    EPW 3874   6.987   5.987   4.900
  789WAT      O 3875   6.427   6.443   4.303
  789WAT     H1 3876   6.433   6.363   4.339
  789WAT     H2 3877   6.497   6.447   4.251
  789WAT    EPW 3878   6.438   6.432   4.300
  790WAT      O 3879   6.367   4.821   4.084
  790WAT     H1 3880   6.360   4.793   4.166
  790WAT     H2 3881   6.317   4.892   4.082
  790WAT    EPW 3882   6.359   4.827   4.096
  791WAT      O 3883   6.655   6.440   4.151
  791WAT     H1 3884   6.714   6.447   4.214
  791WAT     H2 3885   6.659   6.516   4.109
  791WAT    EPW 3886   6.665   6.452   4.154
  792WAT      O 3887   7.434   5.824   5.407
  792WAT     H1 3888   7.420   5.750   5.363
  792WAT     H2 3889   7.454   5.882   5.345
  792WAT    EPW 3890   7.435   5.822   5.392
  793WAT      O 3891   6.968   6.366   5.807
  793WAT     H1 3892   6.995   6.388   5.887
  793WAT     H2 3893   6.993   6.433   5.757
  793WAT    EPW 3894   6.976   6.379   5.811
  794WAT      O 3895   7.345   4.860   5.697
  794WAT     H1 3896   7.327   4.816   5.624
  794WAT     H2 3897   7.374   4.798   5.751
  794WAT    EPW 3898   7.346   4.844   5.694
  795WAT      O 3899   6.152   5.701   4.238
  795WAT     H1 3900   6.170   5.616   4.228
  795WAT     H2 3901   6.219   5.730   4.287
  795WAT    EPW 3902   6.165   5.692   4.244
  796WAT      O 3903   6.931   5.802   5.259
  796WAT     H1 3904   6.880   5.838   5.320
  796WAT     H2 3905   6.963   5.731   5.300
  796WAT    EPW 3906   6.928   5.797   5.274
  797WAT      O 3907   5.807   4.816   4.333
  797WAT     H1 3908   5.812   4.762   4.265
  797WAT     H2 3909   5.776   4.765   4.397
  797WAT    EPW 3910   5.803   4.800   4.333
  798WAT      O 3911   6.775   5.621   4.377
  798WAT     H1 3912   6.785   5.687   4.432
  798WAT     H2 3913   6.764   5.551   4.429
  798WAT    EPW 3914   6.775   5.620   4.392
  799WAT      O 3915   7.296   6.136   4.976
  799WAT     H1 3916   7.233   6.170   4.926
  799WAT     H2 3917   7.258   6.068   5.014
  799WAT    EPW 3918   7.281   6.131   4.974
  800WAT      O 3919   6.234   5.061   4.048
  800WAT     H1 3920   6.174   5.056   3.984
  800WAT     H2 3921   6.302   5.099   4.008
  800WAT    EPW 3922   6.235   5.066   4.032
  801WAT      O 3923   6.690   5.847   4.794
  801WAT     H1 3924   6.607   5.828   4.814
  801WAT     H2 3925   6.735   5.817   4.863
  801WAT    EPW 3926   6.684   5.840   4.807
  802WAT      O 3927   6.350   6.453   3.926
  802WAT     H1 3928   6.374   6.383   3.973
  802WAT     H2 3929   6.358   6.519   3.983
  802WAT    EPW 3930   6.355   6.452   3.942
  803WAT      O 3931   6.056   5.765   5.074
  803WAT     H1 3932   6.109   5.833   5.056
  803WAT     H2 3933   6.015   5.750   4.999
  803WAT    EPW 3934   6.058   5.773   5.061
  804WAT      O 3935   6.379   5.293   4.727
  804WAT     H1 3936   6.455   5.256   4.711
  804WAT     H2 3937   6.321   5.229   4.714
  804WAT    EPW 3938   6.381   5.278   4.723
  805WAT      O 3939   5.867   5.412   4.374
  805WAT     H1 3940   5.898   5.372   4.446
  805WAT     H2 3941   5.879   5.353   4.311
  805WAT    EPW 3942   5.873   5.397   4.376
  806WAT      O 3943   7.319   5.740   5.049
  806WAT     H1 3944   7.332   5.688   5.118
  806WAT     H2 3945   7.254   5.792   5.075
  806WAT    EPW 3946   7.311   5.740   5.063
  807WAT      O 3947   6.379   5.603   3.913
  807WAT     H1 3948   6.371   5.546   3.979
  807WAT     H2 3949   6.320   5.575   3.854
  807WAT    EPW 3950   6.369   5.590   3.914
  808WAT      O 3951   6.023   5.878   5.482
  808WAT     H1 3952   5.982   5.827   5.423
  808WAT     H2 3953   5.998   5.959   5.460
  808WAT    EPW 3954   6.013   5.883   5.470
  809WAT      O 3955   6.451   5.423   4.127
  809WAT     H1 3956   6.480   5.492   4.173
  809WAT     H2 3957   6.368   5.415   4.152
  809WAT    EPW 3958   6.443   5.432   4.137
  810WAT      O 3959   7.322   5.136   5.702
  810WAT     H1 3960   7.239   5.152   5.726
  810WAT     H2 3961   7.327   5.049   5.702
  810WAT    EPW 3962   7.311   5.126   5.706
  811WAT      O 3963   5.825   5.071   4.864
  811WAT     H1 3964   5.806   5.076   4.779
  811WAT     H2 3965   5.904   5.034   4.865
  811WAT    EPW 3966   5.834   5.067   4.851
  812WAT      O 3967   7.094   5.488   5.737
  812WAT     H1 3968   7.140   5.497   5.811
  812WAT     H2 3969   7.022   5.534   5.751
  812WAT    EPW 3970   7.090   5.496   5.750
  813WAT      O 3971   7.272   5.540   5.531
  813WAT     H1 3972   7.343   5.570   5.573
  813WAT     H2 3973   7.220   5.513   5.596
  813WAT    EPW 3974   7.275   5.540   5.547
  814WAT      O 3975   7.398   6.141   4.087
  814WAT     H1 3976   7.426   6.059   4.101
  814WAT     H2 3977   7.316   6.140   4.115
  814WAT    EPW 3978   7.390   6.129   4.093
  815WAT      O 3979   7.335   5.353   4.639
  815WAT     H1 3980   7.273   5.301   4.671
  815WAT     H2 3981   7.337   5.419   4.696
  815WAT    EPW 3982   7.326   5.355   4.652
  816WAT      O 3983   7.014   5.957   4.026
  816WAT     H1 3984   7.087   5.910   4.021
  816WAT     H2 3985   6.986   5.960   3.943
  816WAT    EPW 3986   7.021   5.951   4.013
  817WAT      O 3987   6.469   6.079   5.138
  817WAT     H1 3988   6.471   6.133   5.206
  817WAT     H2 3989   6.475   6.133   5.069
  817WAT    EPW 3990   6.470   6.095   5.138
  818WAT      O 3991   6.292   5.944   5.451
  818WAT     H1 3992   6.211   5.914   5.464
  818WAT     H2 3993   6.282   6.030   5.442
  818WAT    EPW 3994   6.279   5.952   5.451
  819WAT      O 3995   7.234   4.958   5.296
  819WAT     H1 3996   7.292   5.010   5.335
  819WAT     H2 3997   7.164   5.009   5.288
  819WAT    EPW 3998   7.232   4.973   5.301
  820WAT      O 3999   6.778   5.724   5.039
  820WAT     H1 4000   6.832   5.752   5.101
  820WAT     H2 4001   6.699   5.739   5.073
  820WAT    EPW 4002   6.774   5.730   5.054
  821WAT      O 4003   6.426   5.282   5.430
  821WAT     H1 4004   6.438   5.200   5.459
  821WAT     H2 4005   6.455   5.279   5.348
  821WAT    EPW 4006   6.432   5.269   5.422
  822WAT      O 4007   6.684   6.479   4.626
  822WAT     H1 4008   6.686   6.565   4.638
  822WAT     H2 4009   6.710   6.469   4.543
  822WAT    EPW 4010   6.688   6.490   4.616
  823WAT      O 4011   7.292   4.814   5.063
  823WAT     H1 4012   7.286   4.852   5.141
  823WAT     H2 4013   7.338   4.742   5.079
  823WAT    EPW 4014   7.298   4.809   5.077
  824WAT      O 4015   6.569   4.885   5.327
  824WAT     H1 4016   6.654   4.899   5.321
  824WAT     H2 4017   6.561   4.800   5.308
  824WAT    EPW 4018   6.580   4.874   5.323
  825WAT      O 4019   6.498   6.272   4.939
  825WAT     H1 4020   6.447   6.323   4.889
  825WAT     H2 4021   6.542   6.225   4.881
  825WAT    EPW 4022   6.497   6.273   4.923
  826WAT      O 4023   6.958   5.892   5.656
  826WAT     H1 4024   7.038   5.894   5.621
  826WAT     H2 4025   6.907   5.922   5.593
  826WAT    EPW 4026   6.963   5.896   5.642
  827WAT      O 4027   7.241   6.181   5.539
  827WAT     H1 4028   7.292   6.218   5.599
  827WAT     H2 4029   7.261   6.224   5.466
  827WAT    EPW 4030   7.252   6.193   5.537
  828WAT      O 4031   7.505   5.490   3.990
  828WAT     H1 4032   7.518   5.540   3.920
  828WAT     H2 4033   7.423   5.508   4.013
  828WAT    EPW 4034   7.495   5.500   3.983
  829WAT      O 4035   6.613   5.738   3.977
  829WAT     H1 4036   6.541   5.703   3.943
  829WAT     H2 4037   6.594   5.823   3.982
  829WAT    EPW 4038   6.600   5.746   3.973
  830WAT      O 4039   6.311   5.386   4.980
  830WAT     H1 4040   6.338   5.353   4.904
  830WAT     H2 4041   6.369   5.355   5.038
  830WAT    EPW 4042   6.324   5.377   4.978
  831WAT      O 4043   6.983   5.277   5.521
  831WAT     H1 4044   6.929   5.344   5.532
  831WAT     H2 4045   7.023   5.270   5.598
  831WAT    EPW 4046   6.981   5.286   5.534
  832WAT      O 4047   7.046   5.388   5.160
  832WAT     H1 4048   7.045   5.442   5.229
  832WAT     H2 4049   7.031   5.309   5.196
  832WAT    EPW 4050   7.043   5.384   5.176
  833WAT      O 4051   6.754   6.487   5.531
  833WAT     H1 4052   6.775   6.473   5.447
  833WAT     H2 4053   6.719   6.412   5.556
  833WAT    EPW 4054   6.752   6.474   5.522
  834WAT      O 4055   7.234   5.362   4.380
  834WAT     H1 4056   7.259   5.359   4.464
  834WAT     H2 4057   7.310   5.370   4.337
  834WAT    EPW 4058   7.249   5.363   4.386
  835WAT      O 4059   6.556   4.842   4.942
  835WAT     H1 4060   6.472   4.838   4.963
  835WAT     H2 4061   6.555   4.843   4.854
  835WAT    EPW 4062   6.543   4.842   4.932
  836WAT      O 4063   7.406   4.945   4.482
  836WAT     H1 4064   7.326   4.917   4.502
  836WAT     H2 4065   7.404   4.951   4.395
  836WAT    EPW 4066   7.394   4.942   4.472
  837WAT      O 4067   7.414   5.713   4.321
  837WAT     H1 4068   7.453   5.635   4.321
  837WAT     H2 4069   7.329   5.693   4.325
  837WAT    EPW 4070   7.407   5.698   4.322
  838WAT      O 4071   6.775   5.949   5.447
  838WAT     H1 4072   6.700   5.948   5.491
  838WAT     H2 4073   6.779   6.030   5.415
  838WAT    EPW 4074   6.765   5.961   5.449
  839WAT      O 4075   5.844   4.945   5.610
  839WAT     H1 4076   5.821   5.011   5.557
  839WAT     H2 4077   5.769   4.919   5.644
  839WAT    EPW 4078   5.830   4.951   5.607
  840WAT      O 4079   6.305   6.607   5.026
  840WAT     H1 4080   6.305   6.591   5.112
  840WAT     H2 4081   6.280   6.531   4.991
  840WAT    EPW 4082   6.302   6.593   5.033
  841WAT      O 4083   6.150   5.168   4.295
  841WAT     H1 4084   6.162   5.131   4.218
  841WAT     H2 4085   6.070   5.143   4.319
  841WAT    EPW 4086   6.140   5.159   4.287
  842WAT      O 4087   7.050   5.933   4.617
  842WAT     H1 4088   7.032   5.954   4.700
  842WAT     H2 4089   7.082   5.852   4.623
  842WAT    EPW 4090   7.052   5.924   4.630
  843WAT      O 4091   6.799   5.844   4.539
  843WAT     H1 4092   6.761   5.839   4.617
  843WAT     H2 4093   6.878   5.877   4.556
  843WAT    EPW 4094   6.805   5.848   4.553
  844WAT      O 4095   6.789   6.219   5.360
  844WAT     H1 4096   6.841   6.220   5.430
  844WAT     H2 4097   6.823   6.281   5.308
  844WAT    EPW 4098   6.802   6.228   5.362
  845WAT      O 4099   7.038   5.573   5.372
  845WAT     H1 4100   6.973   5.550   5.425
  845WAT     H2 4101   7.109   5.567   5.422
  845WAT    EPW 4102   7.039   5.568   5.387
  846WAT      O 4103   5.969   6.566   5.548
  846WAT     H1 4104   5.915   6.498   5.536
  846WAT     H2 4105   5.916   6.628   5.579
  846WAT    EPW 4106   5.953   6.565   5.551
  847WAT      O 4107   6.862   5.664   5.778
  847WAT     H1 4108   6.893   5.737   5.741
  847WAT     H2 4109   6.781   5.686   5.802
  847WAT    EPW 4110   6.854   5.678   5.776
  848WAT      O 4111   7.152   6.566   4.812
  848WAT     H1 4112   7.093   6.623   4.844
  848WAT     H2 4113   7.227   6.591   4.849
  848WAT    EPW 4114   7.154   6.578   4.822
  849WAT      O 4115   6.802   6.096   5.063
  849WAT     H1 4116   6.729   6.079   5.107
  849WAT     H2 4117   6.857   6.124   5.125
  849WAT    EPW 4118   6.799   6.098   5.079
  850WAT      O 4119   7.419   6.265   5.740
  850WAT     H1 4120   7.500   6.246   5.714
  850WAT     H2 4121   7.409   6.219   5.813
  850WAT    EPW 4122   7.429   6.256   5.747
  851WAT      O 4123   6.176   5.402   5.410
  851WAT     H1 4124   6.188   5.460   5.346
  851WAT     H2 4125   6.253   5.362   5.416
  851WAT    EPW 4126   6.189   5.405   5.402
  852WAT      O 4127   5.987   5.238   5.293
  852WAT     H1 4128   6.006   5.249   5.209
  852WAT     H2 4129   6.048   5.286   5.334
  852WAT    EPW 4130   5.999   5.247   5.287
  853WAT      O 4131   7.490   5.438   4.288
  853WAT     H1 4132   7.522   5.425   4.208
  853WAT     H2 4133   7.522   5.371   4.334
  853WAT    EPW 4134   7.500   5.426   4.283
  854WAT      O 4135   6.200   4.923   5.537
  854WAT     H1 4136   6.158   4.847   5.543
  854WAT     H2 4137   6.181   4.950   5.456
  854WAT    EPW 4138   6.191   4.916   5.526
  855WAT      O 4139   6.878   6.198   4.474
  855WAT     H1 4140   6.868   6.274   4.432
  855WAT     H2 4141   6.814   6.148   4.442
  855WAT    EPW 4142   6.867   6.202   4.463
  856WAT      O 4143   7.381   5.585   5.276
  856WAT     H1 4144   7.426   5.516   5.249
  856WAT     H2 4145   7.338   5.555   5.346
  856WAT    EPW 4146   7.381   5.570   5.282
  857WAT      O 4147   5.887   5.726   5.291
  857WAT     H1 4148   5.934   5.744   5.220
  857WAT     H2 4149   5.865   5.642   5.281
  857WAT    EPW 4150   5.890   5.717   5.279
  858WAT      O 4151   6.054   5.325   3.938
  858WAT     H1 4152   5.983   5.319   3.987
  858WAT     H2 4153   6.059   5.247   3.899
  858WAT    EPW 4154   6.044   5.312   3.940
  859WAT      O 4155   6.929   4.964   5.613
  859WAT     H1 4156   6.958   5.036   5.653
  859WAT     H2 4157   6.848   4.954   5.644
  859WAT    EPW 4158   6.921   4.973   5.624
  860WAT      O 4159   6.892   5.052   4.673
  860WAT     H1 4160   6.812   5.088   4.674
  860WAT     H2 4161   6.885   4.991   4.612
  860WAT    EPW 4162   6.879   5.049   4.664
  861WAT      O 4163   6.379   6.215   4.084
  861WAT     H1 4164   6.416   6.211   4.163
  861WAT     H2 4165   6.296   6.193   4.099
  861WAT    EPW 4166   6.372   6.211   4.098
  862WAT      O 4167   7.207   5.074   4.950
  862WAT     H1 4168   7.259   5.013   4.984
  862WAT     H2 4169   7.237   5.148   4.985
  862WAT    EPW 4170   7.219   5.076   4.960
  863WAT      O 4171   6.411   5.697   5.372
  863WAT     H1 4172   6.372   5.770   5.399
  863WAT     H2 4173   6.351   5.659   5.321
  863WAT    EPW 4174   6.396   5.702   5.369
  864WAT      O 4175   7.287   5.562   4.829
  864WAT     H1 4176   7.302   5.623   4.889
  864WAT     H2 4177   7.241   5.604   4.768
  864WAT    EPW 4178   7.282   5.577   4.829
  865WAT      O 4179   7.284   6.390   4.444
  865WAT     H1 4180   7.255   6.309   4.453
  865WAT     H2 4181   7.334   6.386   4.372
  865WAT    EPW 4182   7.287   6.378   4.434
  866WAT      O 4183   6.124   6.128   4.145
  866WAT     H1 4184   6.123   6.110   4.231
  866WAT     H2 4185   6.137   6.050   4.108
  866WAT    EPW 4186   6.126   6.114   4.152
  867WAT      O 4187   6.439   5.970   3.955
  867WAT     H1 4188   6.362   5.933   3.971
  867WAT     H2 4189   6.433   6.049   3.993
  867WAT    EPW 4190   6.427   5.976   3.963
  868WAT      O 4191   6.392   5.037   5.173
  868WAT     H1 4192   6.312   5.015   5.200
  868WAT     H2 4193   6.444   4.980   5.214
  868WAT    EPW 4194   6.388   5.025   5.183
  869WAT      O 4195   6.751   5.023   5.032
  869WAT     H1 4196   6.687   4.968   5.011
  869WAT     H2 4197   6.823   4.982   5.004
  869WAT    EPW 4198   6.752   5.009   5.025
  870WAT      O 4199   7.056   6.202   5.173
  870WAT     H1 4200   7.112   6.249   5.221
  870WAT     H2 4201   7.061   6.238   5.094
  870WAT    EPW 4202   7.065   6.215   5.169
  871WAT      O 4203   7.015   6.556   5.605
  871WAT     H1 4204   6.939   6.525   5.578
  871WAT     H2 4205   6.998   6.640   5.623
  871WAT    EPW 4206   7.002   6.564   5.604
  872WAT      O 4207   6.550   5.505   5.538
  872WAT     H1 4208   6.512   5.434   5.504
  872WAT     H2 4209   6.510   5.571   5.497
  872WAT    EPW 4210   6.538   5.504   5.527
  873WAT      O 4211   6.637   4.864   4.043
  873WAT     H1 4212   6.649   4.870   3.956
  873WAT     H2 4213   6.550   4.860   4.051
  873WAT    EPW 4214   6.626   4.864   4.031
  874WAT      O 4215   7.477   5.951   5.153
  874WAT     H1 4216   7.443   5.884   5.108
  874WAT     H2 4217   7.463   6.020   5.101
  874WAT    EPW 4218   7.470   5.951   5.139
  875WAT      O 4219   6.420   6.473   5.550
  875WAT     H1 4220   6.406   6.482   5.636
  875WAT     H2 4221   6.479   6.409   5.546
  875WAT    EPW 4222   6.427   6.465   5.562
  876WAT      O 4223   7.399   6.389   5.055
  876WAT     H1 4224   7.470   6.399   5.006
  876WAT     H2 4225   7.365   6.313   5.028
  876WAT    EPW 4226   7.404   6.379   5.044
  877WAT      O 4227   6.135   4.998   5.280
  877WAT     H1 4228   6.083   4.931   5.260
  877WAT     H2 4229   6.082   5.067   5.279
  877WAT    EPW 4230   6.120   4.998   5.277
  878WAT      O 4231   6.977   4.923   4.902
  878WAT     H1 4232   7.042   4.975   4.928
  878WAT     H2 4233   6.947   4.961   4.830
  878WAT    EPW 4234   6.982   4.936   4.896
  879WAT      O 4235   6.133   6.368   5.678
  879WAT     H1 4236   6.203   6.402   5.718
  879WAT     H2 4237   6.095   6.437   5.640
  879WAT    EPW 4238   6.138   6.383   5.678
  880WAT      O 4239   6.973   5.445   4.695
  880WAT     H1 4240   7.022   5.374   4.707
  880WAT     H2 4241   6.940   5.461   4.775
  880WAT    EPW 4242   6.975   5.437   4.709
  881WAT      O 4243   5.982   5.321   4.616
  881WAT     H1 4244   5.940   5.341   4.690
  881WAT     H2 4245   6.025   5.247   4.637
  881WAT    EPW 4246   5.982   5.313   4.630
  882WAT      O 4247   5.984   6.142   5.396
  882WAT     H1 4248   5.933   6.204   5.432
  882WAT     H2 4249   6.064   6.176   5.402
  882WAT    EPW 4250   5.988   6.156   5.402
  883WAT      O 4251   7.151   5.614   4.325
  883WAT     H1 4252   7.166   5.530   4.343
  883WAT     H2 4253   7.075   5.613   4.281
  883WAT    EPW 4254   7.142   5.602   4.321
  884WAT      O 4255   6.152   6.464   4.280
  884WAT     H1 4256   6.124   6.465   4.197
  884WAT     H2 4257   6.238   6.451   4.272
  884WAT    EPW 4258   6.161   6.462   4.267
  885WAT      O 4259   6.544   5.659   4.234
  885WAT     H1 4260   6.573   5.692   4.159
  885WAT     H2 4261   6.617   5.648   4.281
  885WAT    EPW 4262   6.559   5.662   4.230
  886WAT      O 4263   7.414   6.506   3.981
  886WAT     H1 4264   7.443   6.473   4.057
  886WAT     H2 4265   7.409   6.437   3.929
  886WAT    EPW 4266   7.418   6.491   3.985
  887WAT      O 4267   7.514   5.660   5.631
  887WAT     H1 4268   7.589   5.632   5.598
  887WAT     H2 4269   7.493   5.728   5.581
  887WAT    EPW 4270   7.522   5.666   5.619
  888WAT      O 4271   7.141   6.160   4.183
  888WAT     H1 4272   7.144   6.137   4.267
  888WAT     H2 4273   7.089   6.100   4.146
  888WAT    EPW 4274   7.134   6.148   4.190
  889WAT      O 4275   7.492   5.206   5.915
  889WAT     H1 4276   7.507   5.291   5.899
  889WAT     H2 4277   7.443   5.181   5.847
  889WAT    EPW 4278   7.487   5.215   5.902
  890WAT      O 4279   7.494   5.349   5.185
  890WAT     H1 4280   7.429   5.339   5.128
  890WAT     H2 4281   7.564   5.321   5.142
  890WAT    EPW 4282   7.494   5.344   5.170
  891WAT      O 4283   6.460   5.017   5.542
  891WAT     H1 4284   6.494   4.981   5.470
  891WAT     H2 4285   6.380   4.983   5.547
  891WAT    EPW 4286   6.453   5.007   5.532
  892WAT      O 4287   7.249   5.825   5.856
  892WAT     H1 4288   7.327   5.849   5.887
  892WAT     H2 4289   7.253   5.848   5.772
  892WAT    EPW 4290   7.261   5.832   5.849
  893WAT      O 4291   6.179   6.372   4.926
  893WAT     H1 4292   6.170   6.294   4.888
  893WAT     H2 4293   6.140   6.427   4.870
  893WAT    EPW 4294   6.172   6.369   4.912
  894WAT      O 4295   6.749   5.993   4.111
  894WAT     H1 4296   6.833   5.973   4.094
  894WAT     H2 4297   6.736   6.066   4.067
  894WAT    EPW 4298   6.760   6.001   4.102
  895WAT      O 4299   5.945   6.621   5.271
  895WAT     H1 4300   5.955   6.603   5.356
  895WAT     H2 4301   5.977   6.551   5.231
  895WAT    EPW 4302   5.951   6.608   5.277
  896WAT      O 4303   6.878   4.834   2.591
  896WAT     H1 4304   6.865   4.874   2.515
  896WAT     H2 4305   6.964   4.823   2.595
  896WAT    EPW 4306   6.889   4.838   2.580
  897WAT      O 4307   6.873   5.473   3.056
  897WAT     H1 4308   6.842   5.551   3.082
  897WAT     H2 4309   6.929   5.452   3.119
  897WAT    EPW 4310   6.876   5.482   3.069
  898WAT      O 4311   5.861   5.957   2.566
  898WAT     H1 4312   5.835   5.960   2.649
  898WAT     H2 4313   5.854   5.872   2.546
  898WAT    EPW 4314   5.856   5.945   2.575
  899WAT      O 4315   7.469   6.371   2.325
  899WAT     H1 4316   7.547   6.361   2.363
  899WAT     H2 4317   7.453   6.293   2.289
  899WAT    EPW 4318   7.478   6.358   2.325
  900WAT      O 4319   5.848   5.288   2.221
  900WAT     H1 4320   5.782   5.335   2.189
  900WAT     H2 4321   5.822   5.206   2.211
  900WAT    EPW 4322   5.835   5.283   2.215
  901WAT      O 4323   6.165   5.887   2.126
  901WAT     H1 4324   6.129   5.846   2.058
  901WAT     H2 4325   6.165   5.826   2.188
  901WAT    EPW 4326   6.159   5.872   2.125
  902WAT      O 4327   7.128   5.663   2.709
  902WAT     H1 4328   7.135   5.654   2.623
  902WAT     H2 4329   7.071   5.601   2.732
  902WAT    EPW 4330   7.121   5.653   2.700
  903WAT      O 4331   6.110   6.066   2.519
  903WAT     H1 4332   6.164   6.028   2.576
  903WAT     H2 4333   6.034   6.027   2.534
  903WAT    EPW 4334   6.107   6.055   2.530
  904WAT      O 4335   6.515   4.927   2.510
  904WAT     H1 4336   6.546   4.981   2.450
  904WAT     H2 4337   6.519   4.849   2.472
  904WAT    EPW 4338   6.520   4.923   2.496
  905WAT      O 4339   5.988   6.342   2.118
  905WAT     H1 4340   6.035   6.349   2.045
  905WAT     H2 4341   6.025   6.275   2.160
  905WAT    EPW 4342   6.000   6.333   2.113
  906WAT      O 4343   5.862   6.175   3.241
  906WAT     H1 4344   5.894   6.150   3.318
  906WAT     H2 4345   5.791   6.124   3.231
  906WAT    EPW 4346   5.856   6.164   3.251
  907WAT      O 4347   6.531   5.996   3.690
  907WAT     H1 4348   6.510   5.983   3.774
  907WAT     H2 4349   6.458   5.976   3.647
  907WAT    EPW 4350   6.517   5.991   3.696
  908WAT      O 4351   6.050   5.697   2.705
  908WAT     H1 4352   6.004   5.699   2.631
  908WAT     H2 4353   6.105   5.630   2.694
  908WAT    EPW 4354   6.052   5.688   2.693
  909WAT      O 4355   6.478   5.268   3.255
  909WAT     H1 4356   6.547   5.276   3.202
  909WAT     H2 4357   6.459   5.183   3.251
  909WAT    EPW 4358   6.486   5.257   3.246
  910WAT      O 4359   6.510   6.279   3.424
  910WAT     H1 4360   6.519   6.345   3.368
  910WAT     H2 4361   6.592   6.261   3.448
  910WAT    EPW 4362   6.524   6.286   3.420
  911WAT      O 4363   6.218   5.480   2.692
  911WAT     H1 4364   6.284   5.427   2.715
  911WAT     H2 4365   6.150   5.426   2.689
  911WAT    EPW 4366   6.218   5.464   2.695
  912WAT      O 4367   6.621   6.113   2.849
  912WAT     H1 4368   6.645   6.031   2.867
  912WAT     H2 4369   6.697   6.156   2.846
  912WAT    EPW 4370   6.636   6.107   2.851
  913WAT      O 4371   6.677   6.030   2.476
  913WAT     H1 4372   6.709   5.965   2.526
  913WAT     H2 4373   6.704   6.009   2.396
  913WAT    EPW 4374   6.685   6.017   2.472
  914WAT      O 4375   6.823   5.515   3.640
  914WAT     H1 4376   6.737   5.510   3.627
  914WAT     H2 4377   6.829   5.561   3.714
  914WAT    EPW 4378   6.811   5.521   3.649
  915WAT      O 4379   6.246   4.978   2.543
  915WAT     H1 4380   6.225   5.048   2.494
  915WAT     H2 4381   6.332   4.972   2.533
  915WAT    EPW 4382   6.255   4.987   2.534
  916WAT      O 4383   7.243   4.727   3.562
  916WAT     H1 4384   7.232   4.801   3.517
  916WAT     H2 4385   7.168   4.719   3.606
  916WAT    EPW 4386   7.230   4.737   3.562
  917WAT      O 4387   6.529   4.938   2.791
  917WAT     H1 4388   6.562   5.018   2.803
  917WAT     H2 4389   6.531   4.927   2.705
  917WAT    EPW 4390   6.534   4.948   2.780
  918WAT      O 4391   7.044   5.167   1.989
  918WAT     H1 4392   6.995   5.230   2.025
  918WAT     H2 4393   7.050   5.107   2.053
  918WAT    EPW 4394   7.037   5.167   2.004
  919WAT      O 4395   5.873   5.447   2.946
  919WAT     H1 4396   5.878   5.534   2.950
  919WAT     H2 4397   5.804   5.428   2.995
  919WAT    EPW 4398   5.864   5.457   2.954
  920WAT      O 4399   5.854   6.400   2.772
  920WAT     H1 4400   5.791   6.449   2.737
  920WAT     H2 4401   5.895   6.367   2.702
  920WAT    EPW 4402   5.851   6.403   2.756
  921WAT      O 4403   6.441   6.168   2.462
  921WAT     H1 4404   6.408   6.167   2.542
  921WAT     H2 4405   6.519   6.131   2.471
  921WAT    EPW 4406   6.448   6.162   2.475
  922WAT      O 4407   7.041   6.420   2.271
  922WAT     H1 4408   7.105   6.479   2.276
  922WAT     H2 4409   7.082   6.344   2.281
  922WAT    EPW 4410   7.057   6.417   2.273
  923WAT      O 4411   6.842   6.449   2.458
  923WAT     H1 4412   6.862   6.523   2.499
  923WAT     H2 4413   6.907   6.440   2.400
  923WAT    EPW 4414   6.854   6.459   2.455
  924WAT      O 4415   6.107   4.917   2.960
  924WAT     H1 4416   6.032   4.945   2.993
  924WAT     H2 4417   6.151   4.887   3.029
  924WAT    EPW 4418   6.103   4.917   2.975
  925WAT      O 4419   6.470   5.145   3.909
  925WAT     H1 4420   6.473   5.107   3.830
  925WAT     H2 4421   6.516   5.218   3.898
  925WAT    EPW 4422   6.477   5.150   3.895
  926WAT      O 4423   5.989   6.315   2.540
  926WAT     H1 4424   6.039   6.245   2.550
  926WAT     H2 4425   6.038   6.368   2.492
  926WAT    EPW 4426   6.003   6.312   2.535
  927WAT      O 4427   7.501   5.207   2.564
  927WAT     H1 4428   7.463   5.251   2.629
  927WAT     H2 4429   7.478   5.124   2.578
  927WAT    EPW 4430   7.492   5.201   2.575
  928WAT      O 4431   7.063   6.510   3.212
  928WAT     H1 4432   7.126   6.568   3.195
  928WAT     H2 4433   7.062   6.459   3.142
  928WAT    EPW 4434   7.072   6.511   3.200
  929WAT      O 4435   6.055   5.061   3.829
  929WAT     H1 4436   5.976   5.029   3.814
  929WAT     H2 4437   6.103   5.029   3.763
  929WAT    EPW 4438   6.051   5.052   3.817
  930WAT      O 4439   6.140   6.127   2.896
  930WAT     H1 4440   6.201   6.122   2.834
  930WAT     H2 4441   6.170   6.074   2.958
  930WAT    EPW 4442   6.153   6.118   2.896
  931WAT      O 4443   6.418   6.439   2.806
  931WAT     H1 4444   6.498   6.457   2.778
  931WAT     H2 4445   6.367   6.490   2.756
  931WAT    EPW 4446   6.422   6.449   2.794
  932WAT      O 4447   6.669   4.878   3.770
  932WAT     H1 4448   6.683   4.804   3.726
  932WAT     H2 4449   6.601   4.913   3.730
  932WAT    EPW 4450   6.661   4.872   3.758
  933WAT      O 4451   6.763   5.382   2.623
  933WAT     H1 4452   6.793   5.337   2.555
  933WAT     H2 4453   6.834   5.399   2.670
  933WAT    EPW 4454   6.778   5.378   2.620
  934WAT      O 4455   6.859   5.343   2.127
  934WAT     H1 4456   6.884   5.422   2.154
  934WAT     H2 4457   6.784   5.358   2.086
  934WAT    EPW 4458   6.852   5.357   2.125
  935WAT      O 4459   7.231   6.626   2.252
  935WAT     H1 4460   7.279   6.593   2.187
  935WAT     H2 4461   7.286   6.683   2.290
  935WAT    EPW 4462   7.246   6.630   2.248
  936WAT      O 4463   6.296   6.520   3.398
  936WAT     H1 4464   6.326   6.505   3.478
  936WAT     H2 4465   6.231   6.463   3.389
  936WAT    EPW 4466   6.291   6.510   3.409
  937WAT      O 4467   5.773   5.172   3.562
  937WAT     H1 4468   5.771   5.245   3.611
  937WAT     H2 4469   5.832   5.190   3.501
  937WAT    EPW 4470   5.781   5.186   3.560
  938WAT      O 4471   6.965   6.213   3.669
  938WAT     H1 4472   6.963   6.250   3.748
  938WAT     H2 4473   7.051   6.202   3.654
  938WAT    EPW 4474   6.978   6.217   3.679
  939WAT      O 4475   6.731   6.238   2.076
  939WAT     H1 4476   6.699   6.297   2.132
  939WAT     H2 4477   6.808   6.271   2.054
  939WAT    EPW 4478   6.738   6.251   2.081
  940WAT      O 4479   7.061   4.988   2.199
  940WAT     H1 4480   7.114   4.919   2.203
  940WAT     H2 4481   7.081   5.034   2.270
  940WAT    EPW 4482   7.071   4.984   2.210
  941WAT      O 4483   5.916   5.058   2.513
  941WAT     H1 4484   5.878   4.984   2.487
  941WAT     H2 4485   5.865   5.086   2.578
  941WAT    EPW 4486   5.903   5.051   2.518
  942WAT      O 4487   6.058   6.385   3.275
  942WAT     H1 4488   5.996   6.324   3.268
  942WAT     H2 4489   6.098   6.382   3.198
  942WAT    EPW 4490   6.055   6.376   3.263
  943WAT      O 4491   6.830   5.242   2.388
  943WAT     H1 4492   6.764   5.186   2.376
  943WAT     H2 4493   6.843   5.276   2.309
  943WAT    EPW 4494   6.822   5.239   2.375
  944WAT      O 4495   6.840   6.486   3.366
  944WAT     H1 4496   6.912   6.491   3.317
  944WAT     H2 4497   6.776   6.482   3.306
  944WAT    EPW 4498   6.841   6.486   3.350
  945WAT      O 4499   6.831   4.914   2.334
  945WAT     H1 4500   6.767   4.910   2.275
  945WAT     H2 4501   6.901   4.936   2.287
  945WAT    EPW 4502   6.832   4.916   2.319
  946WAT      O 4503   7.431   6.517   2.771
  946WAT     H1 4504   7.448   6.591   2.728
  946WAT     H2 4505   7.394   6.466   2.710
  946WAT    EPW 4506   7.428   6.520   2.755
  947WAT      O 4507   6.642   5.198   2.796
  947WAT     H1 4508   6.672   5.260   2.743
  947WAT     H2 4509   6.657   5.230   2.876
  947WAT    EPW 4510   6.649   5.211   2.800
  948WAT      O 4511   7.200   6.118   2.552
  948WAT     H1 4512   7.269   6.065   2.561
  948WAT     H2 4513   7.139   6.080   2.601
  948WAT    EPW 4514   7.201   6.104   2.560
  949WAT      O 4515   6.248   6.227   3.545
  949WAT     H1 4516   6.325   6.259   3.517
  949WAT     H2 4517   6.234   6.270   3.620
  949WAT    EPW 4518   6.258   6.238   3.552
  950WAT      O 4519   6.432   5.791   2.991
  950WAT     H1 4520   6.456   5.775   3.073
  950WAT     H2 4521   6.375   5.727   2.973
  950WAT    EPW 4522   6.427   5.779   3.000
  951WAT      O 4523   7.013   5.142   3.384
  951WAT     H1 4524   7.005   5.179   3.462
  951WAT     H2 4525   6.947   5.084   3.382
  951WAT    EPW 4526   7.002   5.139   3.395
  952WAT      O 4527   6.530   5.800   3.249
  952WAT     H1 4528   6.516   5.886   3.256
  952WAT     H2 4529   6.500   5.768   3.325
  952WAT    EPW 4530   6.524   5.808   3.262
  953WAT      O 4531   7.127   5.938   3.226
  953WAT     H1 4532   7.069   5.889   3.270
  953WAT     H2 4533   7.111   6.019   3.253
  953WAT    EPW 4534   7.116   5.942   3.236
  954WAT      O 4535   7.145   4.780   2.622
  954WAT     H1 4536   7.146   4.760   2.707
  954WAT     H2 4537   7.182   4.710   2.584
  954WAT    EPW 4538   7.151   4.766   2.629
  955WAT      O 4539   5.791   6.211   3.868
  955WAT     H1 4540   5.850   6.258   3.913
  955WAT     H2 4541   5.796   6.132   3.905
  955WAT    EPW 4542   5.801   6.206   3.880
  956WAT      O 4543   7.397   5.141   3.532
  956WAT     H1 4544   7.433   5.217   3.510
  956WAT     H2 4545   7.378   5.151   3.617
  956WAT    EPW 4546   7.399   5.153   3.541
  957WAT      O 4547   6.167   5.113   2.774
  957WAT     H1 4548   6.189   5.067   2.703
  957WAT     H2 4549   6.153   5.053   2.835
  957WAT    EPW 4550   6.169   5.097   2.773
  958WAT      O 4551   7.483   5.874   2.203
  958WAT     H1 4552   7.463   5.826   2.273
  958WAT     H2 4553   7.562   5.845   2.180
  958WAT    EPW 4554   7.492   5.862   2.210
  959WAT      O 4555   6.243   5.897   2.696
  959WAT     H1 4556   6.295   5.863   2.634
  959WAT     H2 4557   6.182   5.837   2.707
  959WAT    EPW 4558   6.242   5.883   2.688
  960WAT      O 4559   6.064   6.556   2.858
  960WAT     H1 4560   5.991   6.517   2.833
  960WAT     H2 4561   6.111   6.561   2.785
  960WAT    EPW 4562   6.060   6.551   2.844
  961WAT      O 4563   6.021   5.268   3.094
  961WAT     H1 4564   6.106   5.285   3.086
  961WAT     H2 4565   5.983   5.334   3.053
  961WAT    EPW 4566   6.028   5.280   3.087
  962WAT      O 4567   7.246   5.567   2.152
  962WAT     H1 4568   7.244   5.648   2.120
  962WAT     H2 4569   7.213   5.575   2.232
  962WAT    EPW 4570   7.241   5.580   2.159
  963WAT      O 4571   6.377   5.830   2.457
  963WAT     H1 4572   6.411   5.908   2.440
  963WAT     H2 4573   6.436   5.774   2.427
  963WAT    EPW 4574   6.390   5.833   2.450
  964WAT      O 4575   5.882   6.013   2.857
  964WAT     H1 4576   5.829   6.074   2.891
  964WAT     H2 4577   5.961   6.050   2.862
  964WAT    EPW 4578   5.886   6.028   2.863
  965WAT      O 4579   6.614   5.386   3.895
  965WAT     H1 4580   6.563   5.417   3.958
  965WAT     H2 4581   6.590   5.432   3.825
  965WAT    EPW 4582   6.603   5.397   3.894
  966WAT      O 4583   5.914   5.696   2.467
  966WAT     H1 4584   5.896   5.611   2.465
  966WAT     H2 4585   5.985   5.704   2.417
  966WAT    EPW 4586   5.921   5.685   2.460
  967WAT      O 4587   7.425   4.977   2.310
  967WAT     H1 4588   7.497   4.961   2.264
  967WAT     H2 4589   7.406   5.060   2.292
  967WAT    EPW 4590   7.433   4.987   2.301
  968WAT      O 4591   6.849   6.273   2.837
  968WAT     H1 4592   6.803   6.345   2.819
  968WAT     H2 4593   6.872   6.243   2.758
  968WAT    EPW 4594   6.846   6.279   2.823
  969WAT      O 4595   5.818   6.159   2.386
  969WAT     H1 4596   5.872   6.216   2.425
  969WAT     H2 4597   5.814   6.093   2.443
  969WAT    EPW 4598   5.826   6.158   2.400
  970WAT      O 4599   6.246   5.966   3.096
  970WAT     H1 4600   6.299   6.007   3.152
  970WAT     H2 4601   6.301   5.916   3.050
  970WAT    EPW 4602   6.262   5.965   3.098
  971WAT      O 4603   7.110   5.207   2.820
  971WAT     H1 4604   7.143   5.165   2.889
  971WAT     H2 4605   7.048   5.154   2.791
  971WAT    EPW 4606   7.106   5.193   2.826
  972WAT      O 4607   5.833   5.999   2.154
  972WAT     H1 4608   5.908   5.955   2.151
  972WAT     H2 4609   5.842   6.051   2.223
  972WAT    EPW 4610   5.845   6.000   2.164
  973WAT      O 4611   5.902   5.746   2.933
  973WAT     H1 4612   5.953   5.725   2.865
  973WAT     H2 4613   5.892   5.832   2.923
  973WAT    EPW 4614   5.908   5.756   2.921
  974WAT      O 4615   6.581   5.122   2.315
  974WAT     H1 4616   6.581   5.093   2.233
  974WAT     H2 4617   6.547   5.202   2.308
  974WAT    EPW 4618   6.576   5.130   2.302
  975WAT      O 4619   7.273   6.336   3.406
  975WAT     H1 4620   7.266   6.413   3.447
  975WAT     H2 4621   7.322   6.354   3.337
  975WAT    EPW 4622   7.279   6.350   3.402
  976WAT      O 4623   6.370   6.181   2.728
  976WAT     H1 4624   6.379   6.265   2.752
  976WAT     H2 4625   6.440   6.142   2.762
  976WAT    EPW 4626   6.382   6.188   2.737
  977WAT      O 4627   6.160   5.510   3.756
  977WAT     H1 4628   6.122   5.450   3.807
  977WAT     H2 4629   6.155   5.475   3.676
  977WAT    EPW 4630   6.154   5.496   3.752
  978WAT      O 4631   6.202   5.430   2.255
  978WAT     H1 4632   6.180   5.372   2.317
  978WAT     H2 4633   6.159   5.401   2.185
  978WAT    EPW 4634   6.192   5.417   2.254
  979WAT      O 4635   6.244   5.595   2.950
  979WAT     H1 4636   6.235   5.571   2.866
  979WAT     H2 4637   6.259   5.519   2.991
  979WAT    EPW 4638   6.245   5.580   2.944
  980WAT      O 4639   6.221   5.578   3.293
  980WAT     H1 4640   6.251   5.530   3.226
  980WAT     H2 4641   6.169   5.637   3.254
  980WAT    EPW 4642   6.218   5.580   3.277
  981WAT      O 4643   7.279   5.343   3.110
  981WAT     H1 4644   7.208   5.362   3.158
  981WAT     H2 4645   7.280   5.406   3.050
  981WAT    EPW 4646   7.268   5.355   3.108
  982WAT      O 4647   6.612   6.458   3.212
  982WAT     H1 4648   6.588   6.395   3.156
  982WAT     H2 4649   6.601   6.531   3.165
  982WAT    EPW 4650   6.607   6.460   3.197
  983WAT      O 4651   6.843   4.924   3.449
  983WAT     H1 4652   6.866   4.843   3.426
  983WAT     H2 4653   6.877   4.934   3.529
  983WAT    EPW 4654   6.851   4.914   3.457
  984WAT      O 4655   7.086   5.134   2.429
  984WAT     H1 4656   7.135   5.204   2.445
  984WAT     H2 4657   7.005   5.166   2.426
  984WAT    EPW 4658   7.081   5.149   2.431
  985WAT      O 4659   6.037   5.749   3.827
  985WAT     H1 4660   6.031   5.797   3.754
  985WAT     H2 4661   6.082   5.679   3.801
  985WAT    EPW 4662   6.043   5.746   3.812
  986WAT      O 4663   7.232   5.910   3.686
  986WAT     H1 4664   7.235   5.995   3.671
  986WAT     H2 4665   7.284   5.876   3.625
  986WAT    EPW 4666   7.240   5.917   3.675
  987WAT      O 4667   6.609   6.265   3.726
  987WAT     H1 4668   6.640   6.258   3.807
  987WAT     H2 4669   6.585   6.184   3.705
  987WAT    EPW 4670   6.610   6.252   3.735
  988WAT      O 4671   6.678   5.276   3.059
  988WAT     H1 4672   6.741   5.336   3.064
  988WAT     H2 4673   6.716   5.203   3.086
  988WAT    EPW 4674   6.693   5.274   3.063
  989WAT      O 4675   6.932   5.588   2.248
  989WAT     H1 4676   6.906   5.638   2.181
  989WAT     H2 4677   6.872   5.605   2.310
  989WAT    EPW 4678   6.919   5.598   2.247
  990WAT      O 4679   7.422   5.950   2.572
  990WAT     H1 4680   7.462   5.934   2.647
  990WAT     H2 4681   7.425   5.873   2.530
  990WAT    EPW 4682   7.428   5.936   2.577
  991WAT      O 4683   7.072   6.311   3.006
  991WAT     H1 4684   7.002   6.286   2.961
  991WAT     H2 4685   7.103   6.379   2.960
  991WAT    EPW 4686   7.067   6.317   2.992
  992WAT      O 4687   6.988   5.982   2.985
  992WAT     H1 4688   6.918   6.020   3.021
  992WAT     H2 4689   7.033   5.953   3.054
  992WAT    EPW 4690   6.984   5.984   3.001
  993WAT      O 4691   6.427   6.441   2.402
  993WAT     H1 4692   6.433   6.361   2.437
  993WAT     H2 4693   6.497   6.445   2.350
  993WAT    EPW 4694   6.438   6.429   2.400
  994WAT      O 4695   6.361   4.824   2.178
  994WAT     H1 4696   6.352   4.793   2.260
  994WAT     H2 4697   6.312   4.896   2.178
  994WAT    EPW 4698   6.352   4.830   2.190
  995WAT      O 4699   6.656   6.439   2.250
  995WAT     H1 4700   6.715   6.446   2.314
  995WAT     H2 4701   6.660   6.516   2.209
  995WAT    EPW 4702   6.665   6.451   2.254
  996WAT      O 4703   7.432   5.825   3.506
  996WAT     H1 4704   7.420   5.750   3.462
  996WAT     H2 4705   7.453   5.882   3.444
  996WAT    EPW 4706   7.434   5.822   3.490
  997WAT      O 4707   6.968   6.364   3.907
  997WAT     H1 4708   6.995   6.386   3.987
  997WAT     H2 4709   6.993   6.432   3.858
  997WAT    EPW 4710   6.976   6.377   3.912
  998WAT      O 4711   7.339   4.858   3.796
  998WAT     H1 4712   7.322   4.814   3.723
  998WAT     H2 4713   7.371   4.797   3.850
  998WAT    EPW 4714   7.341   4.843   3.793
  999WAT      O 4715   6.157   5.703   2.333
  999WAT     H1 4716   6.178   5.620   2.320
  999WAT     H2 4717   6.224   5.734   2.379
  999WAT    EPW 4718   6.170   5.696   2.338
 1000WAT      O 4719   6.931   5.801   3.360
 1000WAT     H1 4720   6.880   5.838   3.421
 1000WAT     H2 4721   6.963   5.731   3.400
 1000WAT    EPW 4722   6.928   5.796   3.375
 1001WAT      O 4723   5.847   4.777   2.451
 1001WAT     H1 4724   5.838   4.731   2.377
 1001WAT     H2 4725   5.797   4.734   2.508
 1001WAT    EPW 4726   5.838   4.764   2.448
 1002WAT      O 4727   6.776   5.621   2.476
 1002WAT     H1 4728   6.786   5.687   2.532
 1002WAT     H2 4729   6.766   5.552   2.528
 1002WAT    EPW 4730   6.776   5.620   2.492
 1003WAT      O 4731   7.295   6.135   3.075
 1003WAT     H1 4732   7.231   6.169   3.026
 1003WAT     H2 4733   7.257   6.066   3.113
 1003WAT    EPW 4734   7.280   6.130   3.073
 1004WAT      O 4735   6.230   5.066   2.157
 1004WAT     H1 4736   6.172   5.062   2.091
 1004WAT     H2 4737   6.301   5.101   2.120
 1004WAT    EPW 4738   6.232   5.071   2.142
 1005WAT      O 4739   6.686   5.845   2.895
 1005WAT     H1 4740   6.604   5.822   2.915
 1005WAT     H2 4741   6.732   5.817   2.964
 1005WAT    EPW 4742   6.680   5.837   2.908
 1006WAT      O 4743   6.352   6.451   2.026
 1006WAT     H1 4744   6.377   6.381   2.071
 1006WAT     H2 4745   6.359   6.517   2.083
 1006WAT    EPW 4746   6.357   6.451   2.041
 1007WAT      O 4747   6.058   5.772   3.171
 1007WAT     H1 4748   6.111   5.838   3.153
 1007WAT     H2 4749   6.017   5.757   3.095
 1007WAT    EPW 4750   6.060   5.780   3.157
 1008WAT      O 4751   6.376   5.288   2.824
 1008WAT     H1 4752   6.455   5.256   2.808
 1008WAT     H2 4753   6.322   5.222   2.805
 1008WAT    EPW 4754   6.379   5.274   2.819
 1009WAT      O 4755   5.877   5.420   2.471
 1009WAT     H1 4756   5.910   5.378   2.540
 1009WAT     H2 4757   5.886   5.363   2.405
 1009WAT    EPW 4758   5.883   5.406   2.471
 1010WAT      O 4759   7.319   5.739   3.148
 1010WAT     H1 4760   7.332   5.687   3.216
 1010WAT     H2 4761   7.254   5.791   3.174
 1010WAT    EPW 4762   7.311   5.739   3.162
 1011WAT      O 4763   6.373   5.569   2.043
 1011WAT     H1 4764   6.326   5.542   2.111
 1011WAT     H2 4765   6.321   5.554   1.975
 1011WAT    EPW 4766   6.358   5.563   2.043
 1012WAT      O 4767   6.021   5.892   3.591
 1012WAT     H1 4768   5.982   5.844   3.530
 1012WAT     H2 4769   5.997   5.974   3.571
 1012WAT    EPW 4770   6.012   5.897   3.579
 1013WAT      O 4771   6.477   5.379   2.277
 1013WAT     H1 4772   6.502   5.458   2.305
 1013WAT     H2 4773   6.390   5.385   2.274
 1013WAT    EPW 4774   6.468   5.392   2.280
 1014WAT      O 4775   7.320   5.135   3.805
 1014WAT     H1 4776   7.238   5.151   3.829
 1014WAT     H2 4777   7.325   5.047   3.804
 1014WAT    EPW 4778   7.309   5.124   3.808
 1015WAT      O 4779   5.862   5.056   2.988
 1015WAT     H1 4780   5.826   5.077   2.911
 1015WAT     H2 4781   5.907   5.128   3.010
 1015WAT    EPW 4782   5.863   5.070   2.980
 1016WAT      O 4783   7.093   5.487   3.834
 1016WAT     H1 4784   7.138   5.495   3.908
 1016WAT     H2 4785   7.020   5.534   3.849
 1016WAT    EPW 4786   7.089   5.495   3.847
 1017WAT      O 4787   7.274   5.542   3.631
 1017WAT     H1 4788   7.344   5.573   3.673
 1017WAT     H2 4789   7.221   5.515   3.695
 1017WAT    EPW 4790   7.276   5.542   3.646
 1018WAT      O 4791   7.400   6.142   2.186
 1018WAT     H1 4792   7.427   6.060   2.201
 1018WAT     H2 4793   7.317   6.141   2.214
 1018WAT    EPW 4794   7.391   6.129   2.192
 1019WAT      O 4795   7.331   5.351   2.737
 1019WAT     H1 4796   7.268   5.300   2.769
 1019WAT     H2 4797   7.334   5.417   2.794
 1019WAT    EPW 4798   7.322   5.353   2.750
 1020WAT      O 4799   7.017   5.958   2.127
 1020WAT     H1 4800   7.090   5.911   2.122
 1020WAT     H2 4801   6.987   5.960   2.044
 1020WAT    EPW 4802   7.023   5.951   2.114
 1021WAT      O 4803   6.475   6.078   3.235
 1021WAT     H1 4804   6.474   6.131   3.304
 1021WAT     H2 4805   6.480   6.132   3.167
 1021WAT    EPW 4806   6.475   6.093   3.235
 1022WAT      O 4807   6.290   5.948   3.551
 1022WAT     H1 4808   6.209   5.921   3.568
 1022WAT     H2 4809   6.282   6.035   3.540
 1022WAT    EPW 4810   6.277   5.957   3.552
 1023WAT      O 4811   7.229   4.961   3.407
 1023WAT     H1 4812   7.289   5.013   3.444
 1023WAT     H2 4813   7.160   5.013   3.396
 1023WAT    EPW 4814   7.228   4.977   3.411
 1024WAT      O 4815   6.776   5.723   3.141
 1024WAT     H1 4816   6.831   5.752   3.202
 1024WAT     H2 4817   6.697   5.738   3.176
 1024WAT    EPW 4818   6.772   5.729   3.155
 1025WAT      O 4819   6.413   5.285   3.525
 1025WAT     H1 4820   6.430   5.207   3.560
 1025WAT     H2 4821   6.444   5.278   3.443
 1025WAT    EPW 4822   6.420   5.272   3.518
 1026WAT      O 4823   6.685   6.479   2.726
 1026WAT     H1 4824   6.688   6.565   2.738
 1026WAT     H2 4825   6.711   6.468   2.644
 1026WAT    EPW 4826   6.689   6.490   2.716
 1027WAT      O 4827   7.282   4.827   3.168
 1027WAT     H1 4828   7.279   4.861   3.249
 1027WAT     H2 4829   7.328   4.753   3.179
 1027WAT    EPW 4830   7.289   4.821   3.182
 1028WAT      O 4831   6.569   4.884   3.444
 1028WAT     H1 4832   6.654   4.900   3.437
 1028WAT     H2 4833   6.565   4.798   3.462
 1028WAT    EPW 4834   6.581   4.873   3.446
 1029WAT      O 4835   6.499   6.272   3.038
 1029WAT     H1 4836   6.448   6.324   2.989
 1029WAT     H2 4837   6.543   6.225   2.979
 1029WAT    EPW 4838   6.498   6.273   3.022
 1030WAT      O 4839   6.958   5.892   3.757
 1030WAT     H1 4840   7.038   5.894   3.722
 1030WAT     H2 4841   6.907   5.923   3.693
 1030WAT    EPW 4842   6.962   5.897   3.742
 1031WAT      O 4843   7.241   6.181   3.637
 1031WAT     H1 4844   7.291   6.219   3.697
 1031WAT     H2 4845   7.261   6.224   3.564
 1031WAT    EPW 4846   7.251   6.193   3.635
 1032WAT      O 4847   7.504   5.489   2.090
 1032WAT     H1 4848   7.518   5.539   2.020
 1032WAT     H2 4849   7.422   5.509   2.113
 1032WAT    EPW 4850   7.494   5.500   2.083
 1033WAT      O 4851   6.600   5.729   2.078
 1033WAT     H1 4852   6.530   5.684   2.051
 1033WAT     H2 4853   6.573   5.811   2.078
 1033WAT    EPW 4854   6.586   5.734   2.074
 1034WAT      O 4855   6.288   5.354   3.078
 1034WAT     H1 4856   6.322   5.327   3.002
 1034WAT     H2 4857   6.347   5.327   3.137
 1034WAT    EPW 4858   6.302   5.346   3.076
 1035WAT      O 4859   6.980   5.281   3.622
 1035WAT     H1 4860   6.924   5.347   3.632
 1035WAT     H2 4861   7.024   5.281   3.697
 1035WAT    EPW 4862   6.978   5.291   3.634
 1036WAT      O 4863   7.047   5.389   3.257
 1036WAT     H1 4864   7.048   5.444   3.325
 1036WAT     H2 4865   7.032   5.311   3.293
 1036WAT    EPW 4866   7.045   5.386   3.272
 1037WAT      O 4867   6.754   6.488   3.631
 1037WAT     H1 4868   6.775   6.474   3.547
 1037WAT     H2 4869   6.720   6.412   3.656
 1037WAT    EPW 4870   6.752   6.475   3.622
 1038WAT      O 4871   7.234   5.366   2.478
 1038WAT     H1 4872   7.257   5.361   2.562
 1038WAT     H2 4873   7.310   5.374   2.436
 1038WAT    EPW 4874   7.249   5.366   2.484
 1039WAT      O 4875   6.554   4.848   3.065
 1039WAT     H1 4876   6.477   4.871   3.097
 1039WAT     H2 4877   6.547   4.866   2.980
 1039WAT    EPW 4878   6.542   4.854   3.057
 1040WAT      O 4879   7.392   4.933   2.588
 1040WAT     H1 4880   7.308   4.911   2.596
 1040WAT     H2 4881   7.403   4.938   2.501
 1040WAT    EPW 4882   7.381   4.931   2.576
 1041WAT      O 4883   7.414   5.712   2.420
 1041WAT     H1 4884   7.452   5.634   2.420
 1041WAT     H2 4885   7.329   5.693   2.423
 1041WAT    EPW 4886   7.407   5.697   2.420
 1042WAT      O 4887   6.774   5.949   3.547
 1042WAT     H1 4888   6.699   5.949   3.591
 1042WAT     H2 4889   6.779   6.030   3.515
 1042WAT    EPW 4890   6.764   5.961   3.549
 1043WAT      O 4891   5.816   4.938   3.710
 1043WAT     H1 4892   5.804   5.012   3.666
 1043WAT     H2 4893   5.740   4.897   3.704
 1043WAT    EPW 4894   5.803   4.943   3.703
 1044WAT      O 4895   6.313   6.602   3.127
 1044WAT     H1 4896   6.311   6.586   3.212
 1044WAT     H2 4897   6.284   6.527   3.091
 1044WAT    EPW 4898   6.308   6.589   3.134
 1045WAT      O 4899   6.141   5.187   2.393
 1045WAT     H1 4900   6.156   5.148   2.317
 1045WAT     H2 4901   6.064   5.155   2.418
 1045WAT    EPW 4902   6.132   5.177   2.386
 1046WAT      O 4903   7.049   5.934   2.718
 1046WAT     H1 4904   7.032   5.954   2.801
 1046WAT     H2 4905   7.082   5.853   2.723
 1046WAT    EPW 4906   7.051   5.925   2.731
 1047WAT      O 4907   6.798   5.843   2.641
 1047WAT     H1 4908   6.760   5.838   2.719
 1047WAT     H2 4909   6.877   5.876   2.659
 1047WAT    EPW 4910   6.804   5.847   2.655
 1048WAT      O 4911   6.788   6.220   3.460
 1048WAT     H1 4912   6.840   6.220   3.530
 1048WAT     H2 4913   6.822   6.282   3.409
 1048WAT    EPW 4914   6.801   6.229   3.462
 1049WAT      O 4915   7.039   5.572   3.471
 1049WAT     H1 4916   6.973   5.548   3.524
 1049WAT     H2 4917   7.109   5.566   3.522
 1049WAT    EPW 4918   7.039   5.568   3.486
 1050WAT      O 4919   5.967   6.568   3.650
 1050WAT     H1 4920   5.912   6.501   3.640
 1050WAT     H2 4921   5.915   6.632   3.679
 1050WAT    EPW 4922   5.951   6.567   3.653
 1051WAT      O 4923   6.861   5.663   3.877
 1051WAT     H1 4924   6.892   5.736   3.841
 1051WAT     H2 4925   6.781   5.685   3.902
 1051WAT    EPW 4926   6.854   5.677   3.875
 1052WAT      O 4927   7.147   6.559   2.906
 1052WAT     H1 4928   7.097   6.620   2.943
 1052WAT     H2 4929   7.228   6.582   2.930
 1052WAT    EPW 4930   7.152   6.572   2.915
 1053WAT      O 4931   6.801   6.097   3.164
 1053WAT     H1 4932   6.728   6.083   3.209
 1053WAT     H2 4933   6.857   6.125   3.225
 1053WAT    EPW 4934   6.799   6.099   3.180
 1054WAT      O 4935   7.417   6.266   3.839
 1054WAT     H1 4936   7.498   6.246   3.813
 1054WAT     H2 4937   7.407   6.219   3.912
 1054WAT    EPW 4938   7.427   6.256   3.846
 1055WAT      O 4939   6.159   5.395   3.495
 1055WAT     H1 4940   6.175   5.458   3.437
 1055WAT     H2 4941   6.237   5.357   3.505
 1055WAT    EPW 4942   6.173   5.399   3.488
 1056WAT      O 4943   5.968   5.239   3.365
 1056WAT     H1 4944   5.985   5.249   3.280
 1056WAT     H2 4945   6.029   5.288   3.404
 1056WAT    EPW 4946   5.979   5.248   3.359
 1057WAT      O 4947   7.490   5.436   2.387
 1057WAT     H1 4948   7.521   5.425   2.306
 1057WAT     H2 4949   7.521   5.367   2.431
 1057WAT    EPW 4950   7.500   5.424   2.382
 1058WAT      O 4951   6.197   4.937   3.623
 1058WAT     H1 4952   6.178   4.851   3.623
 1058WAT     H2 4953   6.179   4.962   3.542
 1058WAT    EPW 4954   6.192   4.928   3.611
 1059WAT      O 4955   6.878   6.198   2.574
 1059WAT     H1 4956   6.868   6.274   2.532
 1059WAT     H2 4957   6.814   6.148   2.542
 1059WAT    EPW 4958   6.867   6.202   2.563
 1060WAT      O 4959   7.383   5.585   3.374
 1060WAT     H1 4960   7.430   5.518   3.346
 1060WAT     H2 4961   7.341   5.553   3.444
 1060WAT    EPW 4962   7.384   5.570   3.381
 1061WAT      O 4963   5.889   5.753   3.391
 1061WAT     H1 4964   5.937   5.767   3.319
 1061WAT     H2 4965   5.869   5.669   3.387
 1061WAT    EPW 4966   5.893   5.743   3.380
 1062WAT      O 4967   6.053   5.329   2.038
 1062WAT     H1 4968   5.983   5.323   2.090
 1062WAT     H2 4969   6.057   5.251   1.999
 1062WAT    EPW 4970   6.044   5.317   2.040
 1063WAT      O 4971   6.928   4.970   3.713
 1063WAT     H1 4972   6.959   5.041   3.754
 1063WAT     H2 4973   6.847   4.962   3.747
 1063WAT    EPW 4974   6.920   4.979   3.724
 1064WAT      O 4975   6.885   5.046   2.774
 1064WAT     H1 4976   6.807   5.084   2.777
 1064WAT     H2 4977   6.875   4.984   2.713
 1064WAT    EPW 4978   6.872   5.042   2.765
 1065WAT      O 4979   6.383   6.212   2.181
 1065WAT     H1 4980   6.419   6.209   2.261
 1065WAT     H2 4981   6.299   6.193   2.196
 1065WAT    EPW 4982   6.376   6.209   2.195
 1066WAT      O 4983   7.214   5.076   3.042
 1066WAT     H1 4984   7.259   5.012   3.080
 1066WAT     H2 4985   7.246   5.148   3.079
 1066WAT    EPW 4986   7.225   5.077   3.053
 1067WAT      O 4987   6.403   5.698   3.475
 1067WAT     H1 4988   6.367   5.773   3.502
 1067WAT     H2 4989   6.343   5.663   3.424
 1067WAT    EPW 4990   6.389   5.704   3.472
 1068WAT      O 4991   7.288   5.562   2.926
 1068WAT     H1 4992   7.303   5.623   2.987
 1068WAT     H2 4993   7.242   5.605   2.865
 1068WAT    EPW 4994   7.283   5.577   2.926
 1069WAT      O 4995   7.291   6.388   2.549
 1069WAT     H1 4996   7.259   6.307   2.555
 1069WAT     H2 4997   7.340   6.386   2.477
 1069WAT    EPW 4998   7.293   6.376   2.539
 1070WAT      O 4999   6.125   6.133   2.245
 1070WAT     H1 5000   6.126   6.114   2.330
 1070WAT     H2 5001   6.135   6.055   2.207
 1070WAT    EPW 5002   6.127   6.119   2.252
 1071WAT      O 5003   6.435   5.963   2.055
 1071WAT     H1 5004   6.355   5.933   2.070
 1071WAT     H2 5005   6.434   6.043   2.092
 1071WAT    EPW 5006   6.423   5.971   2.063
 1072WAT      O 5007   6.397   5.009   3.264
 1072WAT     H1 5008   6.315   4.995   3.291
 1072WAT     H2 5009   6.445   4.961   3.318
 1072WAT    EPW 5010   6.392   5.000   3.276
 1073WAT      O 5011   6.763   5.025   3.129
 1073WAT     H1 5012   6.700   4.966   3.118
 1073WAT     H2 5013   6.835   4.982   3.103
 1073WAT    EPW 5014   6.765   5.010   3.123
 1074WAT      O 5015   7.056   6.202   3.273
 1074WAT     H1 5016   7.112   6.248   3.320
 1074WAT     H2 5017   7.061   6.237   3.193
 1074WAT    EPW 5018   7.065   6.214   3.268
 1075WAT      O 5019   7.015   6.555   3.706
 1075WAT     H1 5020   6.939   6.525   3.679
 1075WAT     H2 5021   6.998   6.639   3.724
 1075WAT    EPW 5022   7.001   6.563   3.705
 1076WAT      O 5023   6.544   5.503   3.638
 1076WAT     H1 5024   6.504   5.434   3.603
 1076WAT     H2 5025   6.505   5.571   3.599
 1076WAT    EPW 5026   6.532   5.503   3.627
 1077WAT      O 5027   6.630   4.874   2.145
 1077WAT     H1 5028   6.648   4.879   2.060
 1077WAT     H2 5029   6.543   4.868   2.148
 1077WAT    EPW 5030   6.620   4.874   2.133
 1078WAT      O 5031   7.476   5.950   3.252
 1078WAT     H1 5032   7.442   5.884   3.206
 1078WAT     H2 5033   7.464   6.019   3.199
 1078WAT    EPW 5034   7.469   5.951   3.237
 1079WAT      O 5035   6.420   6.471   3.652
 1079WAT     H1 5036   6.404   6.482   3.737
 1079WAT     H2 5037   6.479   6.408   3.650
 1079WAT    EPW 5038   6.426   6.463   3.664
 1080WAT      O 5039   7.395   6.391   3.148
 1080WAT     H1 5040   7.459   6.405   3.090
 1080WAT     H2 5041   7.364   6.313   3.124
 1080WAT    EPW 5042   7.400   6.381   3.136
 1081WAT      O 5043   6.128   5.001   3.363
 1081WAT     H1 5044   6.076   4.932   3.351
 1081WAT     H2 5045   6.072   5.069   3.362
 1081WAT    EPW 5046   6.112   5.001   3.361
 1082WAT      O 5047   6.990   4.919   2.999
 1082WAT     H1 5048   7.053   4.974   3.023
 1082WAT     H2 5049   6.956   4.957   2.928
 1082WAT    EPW 5050   6.994   4.933   2.992
 1083WAT      O 5051   6.131   6.370   3.779
 1083WAT     H1 5052   6.201   6.403   3.819
 1083WAT     H2 5053   6.093   6.439   3.742
 1083WAT    EPW 5054   6.136   6.385   3.779
 1084WAT      O 5055   6.971   5.447   2.795
 1084WAT     H1 5056   7.020   5.376   2.806
 1084WAT     H2 5057   6.939   5.463   2.874
 1084WAT    EPW 5058   6.974   5.439   2.808
 1085WAT      O 5059   5.990   5.326   2.710
 1085WAT     H1 5060   5.948   5.353   2.782
 1085WAT     H2 5061   6.029   5.252   2.736
 1085WAT    EPW 5062   5.990   5.319   2.725
 1086WAT      O 5063   5.977   6.151   3.495
 1086WAT     H1 5064   5.927   6.212   3.534
 1086WAT     H2 5065   6.057   6.185   3.499
 1086WAT    EPW 5066   5.981   6.165   3.502
 1087WAT      O 5067   7.149   5.617   2.423
 1087WAT     H1 5068   7.165   5.533   2.441
 1087WAT     H2 5069   7.073   5.614   2.379
 1087WAT    EPW 5070   7.140   5.604   2.419
 1088WAT      O 5071   6.154   6.469   2.380
 1088WAT     H1 5072   6.127   6.473   2.297
 1088WAT     H2 5073   6.240   6.454   2.373
 1088WAT    EPW 5074   6.163   6.467   2.367
 1089WAT      O 5075   6.543   5.645   2.337
 1089WAT     H1 5076   6.568   5.676   2.259
 1089WAT     H2 5077   6.617   5.640   2.382
 1089WAT    EPW 5078   6.558   5.649   2.332
 1090WAT      O 5079   7.414   6.507   2.080
 1090WAT     H1 5080   7.443   6.474   2.155
 1090WAT     H2 5081   7.409   6.437   2.028
 1090WAT    EPW 5082   7.417   6.491   2.084
 1091WAT      O 5083   7.514   5.665   3.731
 1091WAT     H1 5084   7.591   5.638   3.701
 1091WAT     H2 5085   7.493   5.732   3.679
 1091WAT    EPW 5086   7.522   5.671   3.719
 1092WAT      O 5087   7.143   6.161   2.283
 1092WAT     H1 5088   7.145   6.138   2.367
 1092WAT     H2 5089   7.091   6.101   2.246
 1092WAT    EPW 5090   7.135   6.149   2.290
 1093WAT      O 5091   7.496   5.203   4.012
 1093WAT     H1 5092   7.510   5.288   3.998
 1093WAT     H2 5093   7.447   5.179   3.943
 1093WAT    EPW 5094   7.491   5.212   3.999
 1094WAT      O 5095   7.503   5.358   3.273
 1094WAT     H1 5096   7.436   5.344   3.219
 1094WAT     H2 5097   7.572   5.326   3.230
 1094WAT    EPW 5098   7.503   5.351   3.259
 1095WAT      O 5099   6.457   5.029   3.646
 1095WAT     H1 5100   6.494   4.991   3.577
 1095WAT     H2 5101   6.376   4.996   3.646
 1095WAT    EPW 5102   6.451   5.019   3.636
 1096WAT      O 5103   7.249   5.824   3.956
 1096WAT     H1 5104   7.327   5.847   3.987
 1096WAT     H2 5105   7.253   5.847   3.872
 1096WAT    EPW 5106   7.261   5.831   3.948
 1097WAT      O 5107   6.179   6.372   3.026
 1097WAT     H1 5108   6.170   6.295   2.987
 1097WAT     H2 5109   6.141   6.428   2.970
 1097WAT    EPW 5110   6.172   6.369   3.012
 1098WAT      O 5111   6.753   5.993   2.215
 1098WAT     H1 5112   6.836   5.973   2.197
 1098WAT     H2 5113   6.739   6.066   2.169
 1098WAT    EPW 5114   6.763   6.001   2.206
 1099WAT      O 5115   5.947   6.622   3.373
 1099WAT     H1 5116   5.956   6.603   3.457
 1099WAT     H2 5117   5.979   6.552   3.332
 1099WAT    EPW 5118   5.953   6.609   3.379
 1100WAT      O 5119   6.926   4.845   0.661
 1100WAT     H1 5120   6.948   4.878   0.584
 1100WAT     H2 5121   7.002   4.823   0.697
 1100WAT    EPW 5122   6.940   4.847   0.655
 1101WAT      O 5123   6.873   5.476   1.160
 1101WAT     H1 5124   6.841   5.553   1.187
 1101WAT     H2 5125   6.929   5.454   1.223
 1101WAT    EPW 5126   6.877   5.484   1.173
 1102WAT      O 5127   5.856   5.948   0.678
 1102WAT     H1 5128   5.846   5.951   0.764
 1102WAT     H2 5129   5.849   5.863   0.659
 1102WAT    EPW 5130   5.853   5.936   0.688
 1103WAT      O 5131   7.493   6.300   0.466
 1103WAT     H1 5132   7.562   6.254   0.494
 1103WAT     H2 5133   7.446   6.241   0.422
 1103WAT    EPW 5134   7.497   6.284   0.464
 1104WAT      O 5135   5.867   5.307   0.322
 1104WAT     H1 5136   5.811   5.365   0.288
 1104WAT     H2 5137   5.824   5.231   0.315
 1104WAT    EPW 5138   5.852   5.304   0.316
 1105WAT      O 5139   6.116   5.854   0.256
 1105WAT     H1 5140   6.100   5.813   0.180
 1105WAT     H2 5141   6.122   5.789   0.314
 1105WAT    EPW 5142   6.114   5.838   0.253
 1106WAT      O 5143   7.133   5.670   0.825
 1106WAT     H1 5144   7.149   5.658   0.740
 1106WAT     H2 5145   7.073   5.610   0.844
 1106WAT    EPW 5146   7.127   5.660   0.815
 1107WAT      O 5147   6.105   6.058   0.625
 1107WAT     H1 5148   6.158   6.025   0.686
 1107WAT     H2 5149   6.029   6.018   0.640
 1107WAT    EPW 5150   6.101   6.047   0.636
 1108WAT      O 5151   6.588   4.967   0.620
 1108WAT     H1 5152   6.585   5.047   0.585
 1108WAT     H2 5153   6.631   4.920   0.560
 1108WAT    EPW 5154   6.594   4.972   0.606
 1109WAT      O 5155   6.011   6.361   0.279
 1109WAT     H1 5156   6.039   6.371   0.197
 1109WAT     H2 5157   6.039   6.281   0.301
 1109WAT    EPW 5158   6.020   6.351   0.270
 1110WAT      O 5159   5.856   6.172   1.341
 1110WAT     H1 5160   5.891   6.147   1.417
 1110WAT     H2 5161   5.787   6.119   1.333
 1110WAT    EPW 5162   5.851   6.160   1.351
 1111WAT      O 5163   6.529   5.995   1.791
 1111WAT     H1 5164   6.506   5.980   1.874
 1111WAT     H2 5165   6.456   5.975   1.746
 1111WAT    EPW 5166   6.515   5.990   1.796
 1112WAT      O 5167   6.053   5.697   0.811
 1112WAT     H1 5168   6.003   5.695   0.740
 1112WAT     H2 5169   6.107   5.630   0.800
 1112WAT    EPW 5170   6.053   5.687   0.799
 1113WAT      O 5171   6.489   5.277   1.359
 1113WAT     H1 5172   6.556   5.279   1.303
 1113WAT     H2 5173   6.465   5.193   1.359
 1113WAT    EPW 5174   6.496   5.265   1.351
 1114WAT      O 5175   6.512   6.280   1.531
 1114WAT     H1 5176   6.524   6.343   1.472
 1114WAT     H2 5177   6.593   6.258   1.555
 1114WAT    EPW 5178   6.525   6.286   1.526
 1115WAT      O 5179   6.219   5.479   0.794
 1115WAT     H1 5180   6.286   5.428   0.816
 1115WAT     H2 5181   6.151   5.425   0.799
 1115WAT    EPW 5182   6.219   5.463   0.798
 1116WAT      O 5183   6.627   6.115   0.950
 1116WAT     H1 5184   6.649   6.033   0.970
 1116WAT     H2 5185   6.703   6.158   0.947
 1116WAT    EPW 5186   6.641   6.109   0.952
 1117WAT      O 5187   6.653   6.034   0.596
 1117WAT     H1 5188   6.696   5.977   0.646
 1117WAT     H2 5189   6.692   6.025   0.518
 1117WAT    EPW 5190   6.665   6.024   0.591
 1118WAT      O 5191   6.822   5.514   1.743
 1118WAT     H1 5192   6.737   5.510   1.728
 1118WAT     H2 5193   6.828   5.560   1.817
 1118WAT    EPW 5194   6.810   5.520   1.752
 1119WAT      O 5195   6.309   4.980   0.687
 1119WAT     H1 5196   6.267   5.025   0.626
 1119WAT     H2 5197   6.391   4.975   0.656
 1119WAT    EPW 5198   6.315   4.986   0.673
 1120WAT      O 5199   7.247   4.728   1.657
 1120WAT     H1 5200   7.234   4.801   1.612
 1120WAT     H2 5201   7.173   4.717   1.701
 1120WAT    EPW 5202   7.234   4.737   1.657
 1121WAT      O 5203   6.612   4.912   0.891
 1121WAT     H1 5204   6.621   4.994   0.921
 1121WAT     H2 5205   6.598   4.923   0.806
 1121WAT    EPW 5206   6.612   4.926   0.883
 1122WAT      O 5207   5.873   5.431   1.063
 1122WAT     H1 5208   5.871   5.518   1.072
 1122WAT     H2 5209   5.807   5.404   1.112
 1122WAT    EPW 5210   5.863   5.440   1.071
 1123WAT      O 5211   5.851   6.402   0.876
 1123WAT     H1 5212   5.789   6.451   0.837
 1123WAT     H2 5213   5.893   6.365   0.809
 1123WAT    EPW 5214   5.848   6.404   0.860
 1124WAT      O 5215   6.475   6.252   0.589
 1124WAT     H1 5216   6.428   6.236   0.661
 1124WAT     H2 5217   6.539   6.192   0.593
 1124WAT    EPW 5218   6.478   6.240   0.600
 1125WAT      O 5219   7.000   6.362   0.371
 1125WAT     H1 5220   7.067   6.419   0.374
 1125WAT     H2 5221   7.037   6.286   0.393
 1125WAT    EPW 5222   7.015   6.359   0.375
 1126WAT      O 5223   6.821   6.456   0.559
 1126WAT     H1 5224   6.854   6.532   0.587
 1126WAT     H2 5225   6.879   6.430   0.499
 1126WAT    EPW 5226   6.835   6.463   0.554
 1127WAT      O 5227   6.109   4.941   1.091
 1127WAT     H1 5228   6.086   4.866   1.051
 1127WAT     H2 5229   6.167   4.915   1.151
 1127WAT    EPW 5230   6.114   4.926   1.094
 1128WAT      O 5231   6.467   5.140   2.021
 1128WAT     H1 5232   6.470   5.109   1.940
 1128WAT     H2 5233   6.511   5.215   2.016
 1128WAT    EPW 5234   6.474   5.147   2.009
 1129WAT      O 5235   5.991   6.309   0.654
 1129WAT     H1 5236   6.041   6.238   0.661
 1129WAT     H2 5237   6.040   6.365   0.609
 1129WAT    EPW 5238   6.006   6.307   0.649
 1130WAT      O 5239   7.517   5.208   0.684
 1130WAT     H1 5240   7.473   5.248   0.748
 1130WAT     H2 5241   7.494   5.124   0.693
 1130WAT    EPW 5242   7.507   5.201   0.695
 1131WAT      O 5243   7.064   6.511   1.318
 1131WAT     H1 5244   7.129   6.568   1.301
 1131WAT     H2 5245   7.064   6.459   1.249
 1131WAT    EPW 5246   7.074   6.512   1.306
 1132WAT      O 5247   6.053   5.066   1.939
 1132WAT     H1 5248   5.972   5.038   1.921
 1132WAT     H2 5249   6.101   5.033   1.873
 1132WAT    EPW 5250   6.048   5.057   1.926
 1133WAT      O 5251   6.131   6.130   1.012
 1133WAT     H1 5252   6.185   6.113   0.946
 1133WAT     H2 5253   6.159   6.078   1.076
 1133WAT    EPW 5254   6.143   6.120   1.012
 1134WAT      O 5255   6.431   6.442   0.928
 1134WAT     H1 5256   6.510   6.457   0.893
 1134WAT     H2 5257   6.377   6.487   0.876
 1134WAT    EPW 5258   6.435   6.451   0.915
 1135WAT      O 5259   6.672   4.879   1.875
 1135WAT     H1 5260   6.685   4.805   1.830
 1135WAT     H2 5261   6.604   4.915   1.834
 1135WAT    EPW 5262   6.664   4.873   1.862
 1136WAT      O 5263   6.756   5.407   0.722
 1136WAT     H1 5264   6.788   5.360   0.656
 1136WAT     H2 5265   6.826   5.424   0.771
 1136WAT    EPW 5266   6.771   5.403   0.720
 1137WAT      O 5267   6.873   5.411   0.267
 1137WAT     H1 5268   6.896   5.489   0.299
 1137WAT     H2 5269   6.805   5.430   0.215
 1137WAT    EPW 5270   6.867   5.425   0.264
 1138WAT      O 5271   7.207   6.535   0.418
 1138WAT     H1 5272   7.276   6.534   0.365
 1138WAT     H2 5273   7.238   6.504   0.493
 1138WAT    EPW 5274   7.222   6.531   0.421
 1139WAT      O 5275   6.286   6.523   1.505
 1139WAT     H1 5276   6.322   6.505   1.582
 1139WAT     H2 5277   6.225   6.462   1.496
 1139WAT    EPW 5278   6.282   6.512   1.515
 1140WAT      O 5279   5.782   5.171   1.670
 1140WAT     H1 5280   5.775   5.247   1.713
 1140WAT     H2 5281   5.841   5.189   1.608
 1140WAT    EPW 5282   5.790   5.185   1.667
 1141WAT      O 5283   6.969   6.211   1.771
 1141WAT     H1 5284   6.967   6.249   1.850
 1141WAT     H2 5285   7.054   6.201   1.755
 1141WAT    EPW 5286   6.981   6.215   1.781
 1142WAT      O 5287   6.790   6.268   0.210
 1142WAT     H1 5288   6.730   6.330   0.226
 1142WAT     H2 5289   6.864   6.304   0.239
 1142WAT    EPW 5290   6.792   6.283   0.217
 1143WAT      O 5291   7.020   4.909   0.408
 1143WAT     H1 5292   7.086   4.852   0.407
 1143WAT     H2 5293   7.057   4.983   0.434
 1143WAT    EPW 5294   7.035   4.911   0.412
 1144WAT      O 5295   5.881   5.081   0.581
 1144WAT     H1 5296   5.856   5.000   0.561
 1144WAT     H2 5297   5.833   5.100   0.652
 1144WAT    EPW 5298   5.870   5.072   0.589
 1145WAT      O 5299   6.053   6.382   1.378
 1145WAT     H1 5300   5.990   6.322   1.369
 1145WAT     H2 5301   6.095   6.380   1.301
 1145WAT    EPW 5302   6.050   6.373   1.365
 1146WAT      O 5303   6.827   5.262   0.494
 1146WAT     H1 5304   6.750   5.226   0.475
 1146WAT     H2 5305   6.846   5.307   0.422
 1146WAT    EPW 5306   6.818   5.264   0.480
 1147WAT      O 5307   6.842   6.483   1.471
 1147WAT     H1 5308   6.914   6.489   1.423
 1147WAT     H2 5309   6.778   6.479   1.412
 1147WAT    EPW 5310   6.843   6.483   1.455
 1148WAT      O 5311   6.743   4.915   0.375
 1148WAT     H1 5312   6.719   4.993   0.344
 1148WAT     H2 5313   6.830   4.918   0.373
 1148WAT    EPW 5314   6.752   4.927   0.370
 1149WAT      O 5315   7.441   6.518   0.889
 1149WAT     H1 5316   7.458   6.592   0.847
 1149WAT     H2 5317   7.412   6.465   0.827
 1149WAT    EPW 5318   7.439   6.521   0.874
 1150WAT      O 5319   6.654   5.203   0.891
 1150WAT     H1 5320   6.677   5.271   0.841
 1150WAT     H2 5321   6.666   5.233   0.972
 1150WAT    EPW 5322   6.659   5.218   0.895
 1151WAT      O 5323   7.208   6.128   0.685
 1151WAT     H1 5324   7.282   6.082   0.685
 1151WAT     H2 5325   7.154   6.081   0.735
 1151WAT    EPW 5326   7.211   6.114   0.692
 1152WAT      O 5327   6.247   6.227   1.646
 1152WAT     H1 5328   6.324   6.259   1.621
 1152WAT     H2 5329   6.231   6.269   1.721
 1152WAT    EPW 5330   6.256   6.238   1.653
 1153WAT      O 5331   6.240   4.720   0.745
 1153WAT     H1 5332   6.261   4.803   0.729
 1153WAT     H2 5333   6.207   4.692   0.670
 1153WAT    EPW 5334   6.238   4.728   0.732
 1154WAT      O 5335   6.434   5.809   1.091
 1154WAT     H1 5336   6.457   5.789   1.172
 1154WAT     H2 5337   6.379   5.745   1.068
 1154WAT    EPW 5338   6.430   5.797   1.099
 1155WAT      O 5339   7.009   5.139   1.485
 1155WAT     H1 5340   7.001   5.176   1.564
 1155WAT     H2 5341   6.942   5.083   1.482
 1155WAT    EPW 5342   6.998   5.136   1.496
 1156WAT      O 5343   6.532   5.804   1.350
 1156WAT     H1 5344   6.514   5.889   1.359
 1156WAT     H2 5345   6.501   5.769   1.424
 1156WAT    EPW 5346   6.525   5.812   1.363
 1157WAT      O 5347   7.131   5.936   1.332
 1157WAT     H1 5348   7.072   5.888   1.376
 1157WAT     H2 5349   7.115   6.017   1.360
 1157WAT    EPW 5350   7.120   5.941   1.343
 1158WAT      O 5351   7.176   4.779   0.755
 1158WAT     H1 5352   7.174   4.764   0.841
 1158WAT     H2 5353   7.215   4.708   0.722
 1158WAT    EPW 5354   7.181   4.766   0.763
 1159WAT      O 5355   5.785   6.212   1.970
 1159WAT     H1 5356   5.844   6.259   2.014
 1159WAT     H2 5357   5.791   6.133   2.005
 1159WAT    EPW 5358   5.795   6.207   1.981
 1160WAT      O 5359   7.394   5.140   1.630
 1160WAT     H1 5360   7.428   5.216   1.605
 1160WAT     H2 5361   7.376   5.152   1.715
 1160WAT    EPW 5362   7.396   5.153   1.639
 1161WAT      O 5363   6.181   5.119   0.894
 1161WAT     H1 5364   6.215   5.067   0.833
 1161WAT     H2 5365   6.163   5.064   0.959
 1161WAT    EPW 5366   6.183   5.103   0.894
 1162WAT      O 5367   7.387   5.858   0.315
 1162WAT     H1 5368   7.419   5.828   0.391
 1162WAT     H2 5369   7.355   5.787   0.277
 1162WAT    EPW 5370   7.387   5.843   0.321
 1163WAT      O 5371   6.224   5.916   0.830
 1163WAT     H1 5372   6.295   5.892   0.786
 1163WAT     H2 5373   6.174   5.844   0.829
 1163WAT    EPW 5374   6.227   5.902   0.824
 1164WAT      O 5375   6.062   6.555   0.961
 1164WAT     H1 5376   5.989   6.516   0.935
 1164WAT     H2 5377   6.113   6.555   0.889
 1164WAT    EPW 5378   6.059   6.550   0.946
 1165WAT      O 5379   6.051   5.288   1.224
 1165WAT     H1 5380   6.131   5.311   1.201
 1165WAT     H2 5381   6.000   5.331   1.168
 1165WAT    EPW 5382   6.055   5.297   1.213
 1166WAT      O 5383   7.270   5.602   0.272
 1166WAT     H1 5384   7.198   5.579   0.228
 1166WAT     H2 5385   7.241   5.609   0.354
 1166WAT    EPW 5386   7.255   5.600   0.277
 1167WAT      O 5387   6.432   5.859   0.657
 1167WAT     H1 5388   6.490   5.918   0.629
 1167WAT     H2 5389   6.442   5.793   0.601
 1167WAT    EPW 5390   6.442   5.858   0.645
 1168WAT      O 5391   5.883   6.006   0.959
 1168WAT     H1 5392   5.828   6.067   0.991
 1168WAT     H2 5393   5.961   6.043   0.968
 1168WAT    EPW 5394   5.886   6.021   0.965
 1169WAT      O 5395   6.604   5.387   1.998
 1169WAT     H1 5396   6.547   5.425   2.051
 1169WAT     H2 5397   6.589   5.425   1.921
 1169WAT    EPW 5398   6.594   5.398   1.994
 1170WAT      O 5399   5.906   5.681   0.582
 1170WAT     H1 5400   5.884   5.597   0.587
 1170WAT     H2 5401   5.977   5.681   0.532
 1170WAT    EPW 5402   5.913   5.669   0.575
 1171WAT      O 5403   7.437   4.927   0.428
 1171WAT     H1 5404   7.451   4.862   0.372
 1171WAT     H2 5405   7.428   4.997   0.376
 1171WAT    EPW 5406   7.438   4.928   0.412
 1172WAT      O 5407   6.857   6.272   0.932
 1172WAT     H1 5408   6.811   6.344   0.915
 1172WAT     H2 5409   6.877   6.242   0.852
 1172WAT    EPW 5410   6.853   6.278   0.917
 1173WAT      O 5411   5.818   6.154   0.500
 1173WAT     H1 5412   5.870   6.211   0.540
 1173WAT     H2 5413   5.812   6.088   0.557
 1173WAT    EPW 5414   5.825   6.153   0.514
 1174WAT      O 5415   6.239   5.966   1.207
 1174WAT     H1 5416   6.291   6.007   1.264
 1174WAT     H2 5417   6.294   5.922   1.156
 1174WAT    EPW 5418   6.254   5.966   1.208
 1175WAT      O 5419   7.107   5.218   0.924
 1175WAT     H1 5420   7.137   5.173   0.992
 1175WAT     H2 5421   7.049   5.165   0.887
 1175WAT    EPW 5422   7.103   5.204   0.928
 1176WAT      O 5423   5.839   5.957   0.297
 1176WAT     H1 5424   5.921   5.928   0.290
 1176WAT     H2 5425   5.846   6.026   0.350
 1176WAT    EPW 5426   5.852   5.963   0.304
 1177WAT      O 5427   5.901   5.740   1.040
 1177WAT     H1 5428   5.953   5.716   0.974
 1177WAT     H2 5429   5.892   5.826   1.029
 1177WAT    EPW 5430   5.907   5.749   1.028
 1178WAT      O 5431   6.571   5.165   0.418
 1178WAT     H1 5432   6.517   5.101   0.395
 1178WAT     H2 5433   6.526   5.237   0.403
 1178WAT    EPW 5434   6.557   5.166   0.412
 1179WAT      O 5435   7.280   6.337   1.503
 1179WAT     H1 5436   7.271   6.414   1.544
 1179WAT     H2 5437   7.328   6.357   1.433
 1179WAT    EPW 5438   7.285   6.351   1.498
 1180WAT      O 5439   6.369   6.191   0.836
 1180WAT     H1 5440   6.380   6.271   0.870
 1180WAT     H2 5441   6.438   6.146   0.866
 1180WAT    EPW 5442   6.381   6.196   0.845
 1181WAT      O 5443   6.165   5.513   1.860
 1181WAT     H1 5444   6.123   5.453   1.906
 1181WAT     H2 5445   6.164   5.481   1.779
 1181WAT    EPW 5446   6.158   5.499   1.855
 1182WAT      O 5447   6.134   5.375   0.387
 1182WAT     H1 5448   6.144   5.312   0.447
 1182WAT     H2 5449   6.055   5.361   0.355
 1182WAT    EPW 5450   6.124   5.364   0.391
 1183WAT      O 5451   6.252   5.611   1.042
 1183WAT     H1 5452   6.243   5.579   0.961
 1183WAT     H2 5453   6.271   5.541   1.090
 1183WAT    EPW 5454   6.254   5.596   1.037
 1184WAT      O 5455   6.227   5.575   1.393
 1184WAT     H1 5456   6.253   5.523   1.327
 1184WAT     H2 5457   6.172   5.630   1.354
 1184WAT    EPW 5458   6.223   5.575   1.377
 1185WAT      O 5459   7.276   5.340   1.214
 1185WAT     H1 5460   7.205   5.360   1.262
 1185WAT     H2 5461   7.279   5.404   1.155
 1185WAT    EPW 5462   7.266   5.353   1.212
 1186WAT      O 5463   6.612   6.453   1.322
 1186WAT     H1 5464   6.591   6.391   1.264
 1186WAT     H2 5465   6.599   6.527   1.277
 1186WAT    EPW 5466   6.607   6.455   1.307
 1187WAT      O 5467   6.840   4.919   1.552
 1187WAT     H1 5468   6.866   4.839   1.527
 1187WAT     H2 5469   6.877   4.929   1.630
 1187WAT    EPW 5470   6.849   4.909   1.560
 1188WAT      O 5471   7.084   5.150   0.521
 1188WAT     H1 5472   7.139   5.215   0.541
 1188WAT     H2 5473   7.006   5.188   0.520
 1188WAT    EPW 5474   7.081   5.165   0.524
 1189WAT      O 5475   6.039   5.750   1.923
 1189WAT     H1 5476   6.031   5.797   1.850
 1189WAT     H2 5477   6.084   5.680   1.898
 1189WAT    EPW 5478   6.044   5.747   1.908
 1190WAT      O 5479   7.231   5.911   1.787
 1190WAT     H1 5480   7.234   5.996   1.771
 1190WAT     H2 5481   7.283   5.876   1.727
 1190WAT    EPW 5482   7.239   5.918   1.776
 1191WAT      O 5483   6.609   6.264   1.828
 1191WAT     H1 5484   6.641   6.255   1.909
 1191WAT     H2 5485   6.584   6.183   1.808
 1191WAT    EPW 5486   6.610   6.250   1.837
 1192WAT      O 5487   6.680   5.276   1.156
 1192WAT     H1 5488   6.744   5.336   1.163
 1192WAT     H2 5489   6.718   5.203   1.184
 1192WAT    EPW 5490   6.695   5.274   1.161
 1193WAT      O 5491   6.945   5.646   0.394
 1193WAT     H1 5492   6.956   5.724   0.355
 1193WAT     H2 5493   6.876   5.658   0.445
 1193WAT    EPW 5494   6.937   5.659   0.395
 1194WAT      O 5495   7.443   5.979   0.688
 1194WAT     H1 5496   7.484   5.966   0.764
 1194WAT     H2 5497   7.447   5.901   0.649
 1194WAT    EPW 5498   7.449   5.966   0.693
 1195WAT      O 5499   7.072   6.307   1.113
 1195WAT     H1 5500   7.003   6.282   1.065
 1195WAT     H2 5501   7.103   6.376   1.069
 1195WAT    EPW 5502   7.067   6.313   1.099
 1196WAT      O 5503   6.995   5.987   1.092
 1196WAT     H1 5504   6.924   6.023   1.128
 1196WAT     H2 5505   7.039   5.955   1.160
 1196WAT    EPW 5506   6.991   5.988   1.107
 1197WAT      O 5507   6.418   6.495   0.453
 1197WAT     H1 5508   6.433   6.427   0.505
 1197WAT     H2 5509   6.486   6.494   0.398
 1197WAT    EPW 5510   6.430   6.485   0.452
 1198WAT      O 5511   6.403   4.947   0.366
 1198WAT     H1 5512   6.395   4.865   0.395
 1198WAT     H2 5513   6.329   4.962   0.324
 1198WAT    EPW 5514   6.391   4.937   0.364
 1199WAT      O 5515   6.662   6.491   0.329
 1199WAT     H1 5516   6.702   6.472   0.404
 1199WAT     H2 5517   6.688   6.572   0.312
 1199WAT    EPW 5518   6.671   6.500   0.337
 1200WAT      O 5519   7.433   5.823   1.611
 1200WAT     H1 5520   7.421   5.749   1.567
 1200WAT     H2 5521   7.455   5.881   1.549
 1200WAT    EPW 5522   7.435   5.821   1.595
 1201WAT      O 5523   6.970   6.364   2.007
 1201WAT     H1 5524   6.997   6.387   2.088
 1201WAT     H2 5525   6.995   6.432   1.958
 1201WAT    EPW 5526   6.978   6.378   2.012
 1202WAT      O 5527   7.340   4.858   1.895
 1202WAT     H1 5528   7.324   4.814   1.821
 1202WAT     H2 5529   7.374   4.797   1.947
 1202WAT    EPW 5530   7.343   4.842   1.891
 1203WAT      O 5531   6.150   5.650   0.443
 1203WAT     H1 5532   6.145   5.565   0.428
 1203WAT     H2 5533   6.227   5.659   0.483
 1203WAT    EPW 5534   6.161   5.639   0.447
 1204WAT      O 5535   6.932   5.800   1.465
 1204WAT     H1 5536   6.880   5.837   1.525
 1204WAT     H2 5537   6.964   5.730   1.505
 1204WAT    EPW 5538   6.929   5.795   1.480
 1205WAT      O 5539   5.787   4.820   0.516
 1205WAT     H1 5540   5.791   4.761   0.451
 1205WAT     H2 5541   5.762   4.772   0.585
 1205WAT    EPW 5542   5.784   4.804   0.516
 1206WAT      O 5543   6.730   5.647   0.571
 1206WAT     H1 5544   6.748   5.709   0.629
 1206WAT     H2 5545   6.729   5.574   0.619
 1206WAT    EPW 5546   6.732   5.645   0.587
 1207WAT      O 5547   7.299   6.134   1.176
 1207WAT     H1 5548   7.231   6.165   1.131
 1207WAT     H2 5549   7.265   6.067   1.220
 1207WAT    EPW 5550   7.284   6.129   1.176
 1208WAT      O 5551   6.171   5.061   0.247
 1208WAT     H1 5552   6.106   5.034   0.195
 1208WAT     H2 5553   6.194   5.138   0.213
 1208WAT    EPW 5554   6.165   5.068   0.235
 1209WAT      O 5555   6.691   5.848   1.000
 1209WAT     H1 5556   6.608   5.828   1.018
 1209WAT     H2 5557   6.735   5.818   1.069
 1209WAT    EPW 5558   6.686   5.841   1.013
 1210WAT      O 5559   6.057   5.765   1.276
 1210WAT     H1 5560   6.109   5.832   1.258
 1210WAT     H2 5561   6.016   5.749   1.200
 1210WAT    EPW 5562   6.059   5.772   1.262
 1211WAT      O 5563   6.387   5.297   0.927
 1211WAT     H1 5564   6.464   5.260   0.910
 1211WAT     H2 5565   6.330   5.232   0.916
 1211WAT    EPW 5566   6.390   5.282   0.923
 1212WAT      O 5567   5.861   5.405   0.599
 1212WAT     H1 5568   5.897   5.369   0.670
 1212WAT     H2 5569   5.873   5.344   0.537
 1212WAT    EPW 5570   5.868   5.390   0.600
 1213WAT      O 5571   7.323   5.740   1.254
 1213WAT     H1 5572   7.336   5.687   1.323
 1213WAT     H2 5573   7.257   5.791   1.280
 1213WAT    EPW 5574   7.315   5.739   1.268
 1214WAT      O 5575   6.020   5.889   1.685
 1214WAT     H1 5576   5.979   5.840   1.626
 1214WAT     H2 5577   5.996   5.970   1.665
 1214WAT    EPW 5578   6.010   5.894   1.674
 1215WAT      O 5579   6.420   5.394   0.368
 1215WAT     H1 5580   6.437   5.474   0.398
 1215WAT     H2 5581   6.333   5.391   0.365
 1215WAT    EPW 5582   6.409   5.406   0.372
 1216WAT      O 5583   7.319   5.135   1.905
 1216WAT     H1 5584   7.237   5.151   1.929
 1216WAT     H2 5585   7.323   5.047   1.904
 1216WAT    EPW 5586   7.307   5.124   1.909
 1217WAT      O 5587   5.834   5.053   1.059
 1217WAT     H1 5588   5.818   5.070   0.975
 1217WAT     H2 5589   5.918   5.032   1.061
 1217WAT    EPW 5590   5.844   5.053   1.047
 1218WAT      O 5591   7.089   5.487   1.937
 1218WAT     H1 5592   7.134   5.496   2.011
 1218WAT     H2 5593   7.016   5.534   1.952
 1218WAT    EPW 5594   7.085   5.495   1.950
 1219WAT      O 5595   7.273   5.538   1.735
 1219WAT     H1 5596   7.343   5.569   1.777
 1219WAT     H2 5597   7.220   5.513   1.799
 1219WAT    EPW 5598   7.276   5.539   1.751
 1220WAT      O 5599   7.333   6.132   0.319
 1220WAT     H1 5600   7.358   6.049   0.309
 1220WAT     H2 5601   7.252   6.125   0.351
 1220WAT    EPW 5602   7.325   6.119   0.322
 1221WAT      O 5603   7.338   5.349   0.851
 1221WAT     H1 5604   7.271   5.302   0.881
 1221WAT     H2 5605   7.341   5.417   0.906
 1221WAT    EPW 5606   7.328   5.352   0.864
 1222WAT      O 5607   7.018   5.884   0.265
 1222WAT     H1 5608   7.061   5.940   0.316
 1222WAT     H2 5609   7.056   5.894   0.187
 1222WAT    EPW 5610   7.030   5.894   0.261
 1223WAT      O 5611   6.465   6.078   1.344
 1223WAT     H1 5612   6.468   6.132   1.412
 1223WAT     H2 5613   6.474   6.131   1.275
 1223WAT    EPW 5614   6.467   6.094   1.344
 1224WAT      O 5615   6.289   5.948   1.649
 1224WAT     H1 5616   6.208   5.920   1.664
 1224WAT     H2 5617   6.280   6.034   1.639
 1224WAT    EPW 5618   6.276   5.956   1.650
 1225WAT      O 5619   7.228   4.962   1.502
 1225WAT     H1 5620   7.287   5.014   1.540
 1225WAT     H2 5621   7.158   5.013   1.493
 1225WAT    EPW 5622   7.226   4.977   1.506
 1226WAT      O 5623   6.778   5.726   1.245
 1226WAT     H1 5624   6.832   5.753   1.308
 1226WAT     H2 5625   6.698   5.741   1.279
 1226WAT    EPW 5626   6.774   5.732   1.259
 1227WAT      O 5627   6.419   5.284   1.630
 1227WAT     H1 5628   6.432   5.204   1.662
 1227WAT     H2 5629   6.450   5.278   1.548
 1227WAT    EPW 5630   6.426   5.271   1.622
 1228WAT      O 5631   6.695   6.484   0.834
 1228WAT     H1 5632   6.694   6.569   0.853
 1228WAT     H2 5633   6.713   6.482   0.749
 1228WAT    EPW 5634   6.697   6.496   0.824
 1229WAT      O 5635   7.289   4.825   1.266
 1229WAT     H1 5636   7.282   4.864   1.344
 1229WAT     H2 5637   7.341   4.757   1.283
 1229WAT    EPW 5638   7.296   4.821   1.280
 1230WAT      O 5639   6.565   4.874   1.559
 1230WAT     H1 5640   6.651   4.887   1.549
 1230WAT     H2 5641   6.561   4.790   1.585
 1230WAT    EPW 5642   6.577   4.863   1.561
 1231WAT      O 5643   6.505   6.267   1.145
 1231WAT     H1 5644   6.459   6.322   1.096
 1231WAT     H2 5645   6.549   6.220   1.086
 1231WAT    EPW 5646   6.505   6.268   1.129
 1232WAT      O 5647   6.956   5.889   1.859
 1232WAT     H1 5648   7.036   5.892   1.824
 1232WAT     H2 5649   6.905   5.921   1.796
 1232WAT    EPW 5650   6.961   5.894   1.845
 1233WAT      O 5651   7.244   6.183   1.735
 1233WAT     H1 5652   7.295   6.219   1.795
 1233WAT     H2 5653   7.265   6.225   1.661
 1233WAT    EPW 5654   7.254   6.194   1.733
 1234WAT      O 5655   7.495   5.434   0.250
 1234WAT     H1 5656   7.550   5.476   0.198
 1234WAT     H2 5657   7.423   5.484   0.249
 1234WAT    EPW 5658   7.493   5.448   0.242
 1235WAT      O 5659   6.312   5.381   1.181
 1235WAT     H1 5660   6.341   5.350   1.105
 1235WAT     H2 5661   6.367   5.348   1.240
 1235WAT    EPW 5662   6.324   5.372   1.179
 1236WAT      O 5663   6.977   5.279   1.723
 1236WAT     H1 5664   6.922   5.345   1.733
 1236WAT     H2 5665   7.020   5.276   1.799
 1236WAT    EPW 5666   6.975   5.288   1.736
 1237WAT      O 5667   7.046   5.388   1.361
 1237WAT     H1 5668   7.046   5.442   1.430
 1237WAT     H2 5669   7.029   5.310   1.396
 1237WAT    EPW 5670   7.043   5.384   1.376
 1238WAT      O 5671   6.754   6.487   1.735
 1238WAT     H1 5672   6.775   6.472   1.651
 1238WAT     H2 5673   6.719   6.411   1.760
 1238WAT    EPW 5674   6.752   6.473   1.726
 1239WAT      O 5675   7.245   5.369   0.590
 1239WAT     H1 5676   7.262   5.360   0.675
 1239WAT     H2 5677   7.324   5.380   0.554
 1239WAT    EPW 5678   7.259   5.369   0.597
 1240WAT      O 5679   6.563   4.834   1.167
 1240WAT     H1 5680   6.478   4.831   1.185
 1240WAT     H2 5681   6.565   4.839   1.080
 1240WAT    EPW 5682   6.551   4.835   1.157
 1241WAT      O 5683   7.415   4.933   0.705
 1241WAT     H1 5684   7.332   4.910   0.720
 1241WAT     H2 5685   7.423   4.927   0.619
 1241WAT    EPW 5686   7.404   4.928   0.695
 1242WAT      O 5687   7.437   5.728   0.561
 1242WAT     H1 5688   7.480   5.652   0.561
 1242WAT     H2 5689   7.353   5.703   0.565
 1242WAT    EPW 5690   7.431   5.713   0.562
 1243WAT      O 5691   6.773   5.947   1.650
 1243WAT     H1 5692   6.697   5.947   1.693
 1243WAT     H2 5693   6.779   6.028   1.618
 1243WAT    EPW 5694   6.763   5.959   1.652
 1244WAT      O 5695   5.813   4.948   1.832
 1244WAT     H1 5696   5.809   5.017   1.779
 1244WAT     H2 5697   5.729   4.926   1.843
 1244WAT    EPW 5698   5.800   4.955   1.826
 1245WAT      O 5699   6.306   6.609   1.235
 1245WAT     H1 5700   6.303   6.592   1.321
 1245WAT     H2 5701   6.281   6.534   1.198
 1245WAT    EPW 5702   6.301   6.595   1.242
 1246WAT      O 5703   6.146   5.130   0.519
 1246WAT     H1 5704   6.147   5.098   0.438
 1246WAT     H2 5705   6.064   5.115   0.545
 1246WAT    EPW 5706   6.134   5.123   0.511
 1247WAT      O 5707   7.051   5.939   0.826
 1247WAT     H1 5708   7.033   5.959   0.909
 1247WAT     H2 5709   7.084   5.858   0.831
 1247WAT    EPW 5710   7.054   5.930   0.839
 1248WAT      O 5711   6.799   5.854   0.745
 1248WAT     H1 5712   6.762   5.845   0.823
 1248WAT     H2 5713   6.878   5.884   0.763
 1248WAT    EPW 5714   6.805   5.857   0.759
 1249WAT      O 5715   6.790   6.217   1.564
 1249WAT     H1 5716   6.843   6.217   1.633
 1249WAT     H2 5717   6.822   6.281   1.513
 1249WAT    EPW 5718   6.802   6.227   1.566
 1250WAT      O 5719   7.038   5.571   1.575
 1250WAT     H1 5720   6.973   5.547   1.628
 1250WAT     H2 5721   7.109   5.564   1.626
 1250WAT    EPW 5722   7.039   5.566   1.590
 1251WAT      O 5723   5.967   6.565   1.751
 1251WAT     H1 5724   5.912   6.498   1.740
 1251WAT     H2 5725   5.915   6.629   1.780
 1251WAT    EPW 5726   5.951   6.565   1.754
 1252WAT      O 5727   6.855   5.663   1.981
 1252WAT     H1 5728   6.886   5.736   1.945
 1252WAT     H2 5729   6.773   5.683   2.004
 1252WAT    EPW 5730   6.847   5.676   1.979
 1253WAT      O 5731   7.150   6.556   1.022
 1253WAT     H1 5732   7.094   6.616   1.051
 1253WAT     H2 5733   7.227   6.582   1.055
 1253WAT    EPW 5734   7.153   6.569   1.032
 1254WAT      O 5735   6.806   6.100   1.268
 1254WAT     H1 5736   6.735   6.079   1.313
 1254WAT     H2 5737   6.862   6.127   1.329
 1254WAT    EPW 5738   6.804   6.101   1.283
 1255WAT      O 5739   7.419   6.266   1.938
 1255WAT     H1 5740   7.501   6.247   1.913
 1255WAT     H2 5741   7.409   6.219   2.011
 1255WAT    EPW 5742   7.429   6.256   1.945
 1256WAT      O 5743   6.169   5.400   1.603
 1256WAT     H1 5744   6.182   5.458   1.539
 1256WAT     H2 5745   6.245   5.359   1.610
 1256WAT    EPW 5746   6.182   5.403   1.595
 1257WAT      O 5747   5.977   5.242   1.480
 1257WAT     H1 5748   5.995   5.252   1.396
 1257WAT     H2 5749   6.038   5.289   1.520
 1257WAT    EPW 5750   5.988   5.251   1.474
 1258WAT      O 5751   7.505   5.447   0.527
 1258WAT     H1 5752   7.519   5.430   0.443
 1258WAT     H2 5753   7.534   5.375   0.568
 1258WAT    EPW 5754   7.511   5.434   0.521
 1259WAT      O 5755   6.191   4.936   1.737
 1259WAT     H1 5756   6.159   4.855   1.739
 1259WAT     H2 5757   6.175   4.961   1.655
 1259WAT    EPW 5758   6.184   4.927   1.725
 1260WAT      O 5759   6.870   6.201   0.663
 1260WAT     H1 5760   6.851   6.280   0.632
 1260WAT     H2 5761   6.799   6.154   0.646
 1260WAT    EPW 5762   6.857   6.206   0.656
 1261WAT      O 5763   7.384   5.583   1.480
 1261WAT     H1 5764   7.429   5.515   1.451
 1261WAT     H2 5765   7.341   5.552   1.549
 1261WAT    EPW 5766   7.384   5.568   1.486
 1262WAT      O 5767   5.884   5.745   1.492
 1262WAT     H1 5768   5.933   5.758   1.421
 1262WAT     H2 5769   5.865   5.660   1.488
 1262WAT    EPW 5770   5.889   5.734   1.481
 1263WAT      O 5771   6.931   4.967   1.815
 1263WAT     H1 5772   6.961   5.038   1.854
 1263WAT     H2 5773   6.850   4.958   1.847
 1263WAT    EPW 5774   6.924   4.976   1.825
 1264WAT      O 5775   6.899   5.052   0.850
 1264WAT     H1 5776   6.819   5.087   0.850
 1264WAT     H2 5777   6.895   4.994   0.785
 1264WAT    EPW 5778   6.887   5.049   0.840
 1265WAT      O 5779   6.406   6.133   0.343
 1265WAT     H1 5780   6.428   6.174   0.417
 1265WAT     H2 5781   6.319   6.141   0.341
 1265WAT    EPW 5782   6.397   6.141   0.354
 1266WAT      O 5783   7.205   5.076   1.143
 1266WAT     H1 5784   7.254   5.013   1.178
 1266WAT     H2 5785   7.237   5.149   1.179
 1266WAT    EPW 5786   7.217   5.078   1.153
 1267WAT      O 5787   6.406   5.698   1.574
 1267WAT     H1 5788   6.367   5.772   1.599
 1267WAT     H2 5789   6.347   5.661   1.521
 1267WAT    EPW 5790   6.391   5.703   1.570
 1268WAT      O 5791   7.291   5.562   1.035
 1268WAT     H1 5792   7.307   5.623   1.096
 1268WAT     H2 5793   7.246   5.605   0.975
 1268WAT    EPW 5794   7.287   5.577   1.035
 1269WAT      O 5795   7.306   6.391   0.651
 1269WAT     H1 5796   7.267   6.315   0.670
 1269WAT     H2 5797   7.373   6.367   0.600
 1269WAT    EPW 5798   7.311   6.376   0.647
 1270WAT      O 5799   6.128   6.118   0.355
 1270WAT     H1 5800   6.124   6.101   0.440
 1270WAT     H2 5801   6.125   6.040   0.317
 1270WAT    EPW 5802   6.127   6.104   0.362
 1271WAT      O 5803   6.411   5.860   0.285
 1271WAT     H1 5804   6.326   5.860   0.264
 1271WAT     H2 5805   6.427   5.944   0.301
 1271WAT    EPW 5806   6.401   5.873   0.284
 1272WAT      O 5807   6.395   5.025   1.393
 1272WAT     H1 5808   6.312   5.006   1.413
 1272WAT     H2 5809   6.441   4.964   1.434
 1272WAT    EPW 5810   6.390   5.013   1.402
 1273WAT      O 5811   6.762   5.025   1.228
 1273WAT     H1 5812   6.698   4.966   1.222
 1273WAT     H2 5813   6.831   4.984   1.194
 1273WAT    EPW 5814   6.762   5.010   1.222
 1274WAT      O 5815   7.060   6.200   1.378
 1274WAT     H1 5816   7.118   6.247   1.423
 1274WAT     H2 5817   7.064   6.234   1.298
 1274WAT    EPW 5818   7.069   6.212   1.373
 1275WAT      O 5819   7.016   6.555   1.806
 1275WAT     H1 5820   6.938   6.524   1.780
 1275WAT     H2 5821   6.999   6.639   1.824
 1275WAT    EPW 5822   7.002   6.563   1.805
 1276WAT      O 5823   6.543   5.505   1.739
 1276WAT     H1 5824   6.506   5.435   1.705
 1276WAT     H2 5825   6.505   5.572   1.698
 1276WAT    EPW 5826   6.532   5.505   1.728
 1277WAT      O 5827   7.481   5.949   1.357
 1277WAT     H1 5828   7.446   5.883   1.312
 1277WAT     H2 5829   7.476   6.017   1.303
 1277WAT    EPW 5830   7.475   5.949   1.343
 1278WAT      O 5831   6.421   6.474   1.752
 1278WAT     H1 5832   6.407   6.481   1.838
 1278WAT     H2 5833   6.480   6.409   1.747
 1278WAT    EPW 5834   6.428   6.465   1.764
 1279WAT      O 5835   7.395   6.395   1.234
 1279WAT     H1 5836   7.448   6.413   1.168
 1279WAT     H2 5837   7.367   6.315   1.217
 1279WAT    EPW 5838   7.398   6.386   1.222
 1280WAT      O 5839   6.127   5.001   1.477
 1280WAT     H1 5840   6.075   4.934   1.456
 1280WAT     H2 5841   6.075   5.071   1.468
 1280WAT    EPW 5842   6.111   5.001   1.473
 1281WAT      O 5843   6.979   4.924   1.085
 1281WAT     H1 5844   7.043   4.978   1.112
 1281WAT     H2 5845   6.951   4.960   1.011
 1281WAT    EPW 5846   6.984   4.938   1.078
 1282WAT      O 5847   6.132   6.368   1.878
 1282WAT     H1 5848   6.202   6.402   1.919
 1282WAT     H2 5849   6.093   6.437   1.842
 1282WAT    EPW 5850   6.137   6.383   1.879
 1283WAT      O 5851   6.967   5.458   0.897
 1283WAT     H1 5852   7.015   5.385   0.906
 1283WAT     H2 5853   6.935   5.471   0.977
 1283WAT    EPW 5854   6.969   5.449   0.910
 1284WAT      O 5855   5.994   5.321   0.830
 1284WAT     H1 5856   5.952   5.344   0.902
 1284WAT     H2 5857   6.037   5.249   0.854
 1284WAT    EPW 5858   5.994   5.314   0.844
 1285WAT      O 5859   5.975   6.149   1.594
 1285WAT     H1 5860   5.926   6.210   1.633
 1285WAT     H2 5861   6.055   6.184   1.596
 1285WAT    EPW 5862   5.979   6.163   1.600
 1286WAT      O 5863   7.174   5.627   0.546
 1286WAT     H1 5864   7.186   5.541   0.559
 1286WAT     H2 5865   7.096   5.631   0.508
 1286WAT    EPW 5866   7.165   5.615   0.542
 1287WAT      O 5867   6.146   6.478   0.497
 1287WAT     H1 5868   6.103   6.456   0.424
 1287WAT     H2 5869   6.229   6.482   0.470
 1287WAT    EPW 5870   6.152   6.475   0.482
 1288WAT      O 5871   6.467   5.657   0.464
 1288WAT     H1 5872   6.465   5.717   0.401
 1288WAT     H2 5873   6.551   5.655   0.488
 1288WAT    EPW 5874   6.479   5.665   0.459
 1289WAT      O 5875   7.434   6.490   0.265
 1289WAT     H1 5876   7.471   6.438   0.325
 1289WAT     H2 5877   7.420   6.436   0.198
 1289WAT    EPW 5878   7.437   6.474   0.264
 1290WAT      O 5879   7.514   5.661   1.835
 1290WAT     H1 5880   7.592   5.635   1.804
 1290WAT     H2 5881   7.493   5.728   1.783
 1290WAT    EPW 5882   7.523   5.667   1.823
 1291WAT      O 5883   7.078   6.103   0.442
 1291WAT     H1 5884   7.112   6.108   0.523
 1291WAT     H2 5885   6.992   6.095   0.457
 1291WAT    EPW 5886   7.070   6.102   0.456
 1292WAT      O 5887   7.493   5.205   2.114
 1292WAT     H1 5888   7.507   5.290   2.098
 1292WAT     H2 5889   7.444   5.180   2.047
 1292WAT    EPW 5890   7.488   5.214   2.102
 1293WAT      O 5891   7.498   5.352   1.381
 1293WAT     H1 5892   7.432   5.339   1.325
 1293WAT     H2 5893   7.568   5.323   1.337
 1293WAT    EPW 5894   7.499   5.346   1.366
 1294WAT      O 5895   6.453   5.027   1.755
 1294WAT     H1 5896   6.489   4.988   1.685
 1294WAT     H2 5897   6.372   4.995   1.757
 1294WAT    EPW 5898   6.447   5.017   1.745
 1295WAT      O 5899   7.250   5.824   2.056
 1295WAT     H1 5900   7.328   5.847   2.087
 1295WAT     H2 5901   7.253   5.848   1.972
 1295WAT    EPW 5902   7.262   5.831   2.048
 1296WAT      O 5903   6.179   6.377   1.132
 1296WAT     H1 5904   6.170   6.298   1.094
 1296WAT     H2 5905   6.140   6.431   1.076
 1296WAT    EPW 5906   6.172   6.373   1.118
 1297WAT      O 5907   6.804   6.040   0.365
 1297WAT     H1 5908   6.849   5.985   0.315
 1297WAT     H2 5909   6.787   6.107   0.312
 1297WAT    EPW 5910   6.808   6.042   0.350
 1298WAT      O 5911   5.949   6.622   1.475
 1298WAT     H1 5912   5.958   6.603   1.560
 1298WAT     H2 5913   5.979   6.551   1.434
 1298WAT    EPW 5914   5.954   6.608   1.482
 1299WAT      O 5915   6.898   3.000   6.380
 1299WAT     H1 5916   6.891   3.039   6.303
 1299WAT     H2 5917   6.984   2.988   6.390
 1299WAT    EPW 5918   6.910   3.004   6.370
 1300WAT      O 5919   6.875   3.622   6.848
 1300WAT     H1 5920   6.844   3.700   6.872
 1300WAT     H2 5921   6.931   3.602   6.911
 1300WAT    EPW 5922   6.879   3.631   6.861
 1301WAT      O 5923   5.856   4.106   6.367
 1301WAT     H1 5924   5.829   4.107   6.451
 1301WAT     H2 5925   5.850   4.021   6.346
 1301WAT    EPW 5926   5.851   4.094   6.377
 1302WAT      O 5927   7.469   4.522   6.128
 1302WAT     H1 5928   7.545   4.511   6.169
 1302WAT     H2 5929   7.453   4.444   6.093
 1302WAT    EPW 5930   7.478   4.509   6.129
 1303WAT      O 5931   5.842   3.451   6.019
 1303WAT     H1 5932   5.777   3.497   5.983
 1303WAT     H2 5933   5.812   3.370   6.019
 1303WAT    EPW 5934   5.828   3.446   6.014
 1304WAT      O 5935   6.177   4.033   5.923
 1304WAT     H1 5936   6.138   3.993   5.857
 1304WAT     H2 5937   6.176   3.973   5.987
 1304WAT    EPW 5938   6.171   4.018   5.923
 1305WAT      O 5939   7.122   3.816   6.504
 1305WAT     H1 5940   7.130   3.807   6.418
 1305WAT     H2 5941   7.066   3.753   6.527
 1305WAT    EPW 5942   7.115   3.805   6.495
 1306WAT      O 5943   6.105   4.216   6.319
 1306WAT     H1 5944   6.160   4.177   6.374
 1306WAT     H2 5945   6.029   4.176   6.334
 1306WAT    EPW 5946   6.102   4.204   6.329
 1307WAT      O 5947   6.554   3.110   6.257
 1307WAT     H1 5948   6.551   3.179   6.204
 1307WAT     H2 5949   6.630   3.072   6.238
 1307WAT    EPW 5950   6.565   3.114   6.247
 1308WAT      O 5951   5.992   4.487   5.922
 1308WAT     H1 5952   6.037   4.496   5.848
 1308WAT     H2 5953   6.028   4.417   5.960
 1308WAT    EPW 5954   6.004   4.478   5.916
 1309WAT      O 5955   5.893   4.313   7.045
 1309WAT     H1 5956   5.921   4.288   7.123
 1309WAT     H2 5957   5.822   4.264   7.031
 1309WAT    EPW 5958   5.886   4.302   7.054
 1310WAT      O 5959   6.552   4.161   7.477
 1310WAT     H1 5960   6.562   4.114   7.550
 1310WAT     H2 5961   6.475   4.134   7.446
 1310WAT    EPW 5962   6.543   4.150   7.483
 1311WAT      O 5963   6.049   3.852   6.499
 1311WAT     H1 5964   6.001   3.852   6.426
 1311WAT     H2 5965   6.103   3.784   6.488
 1311WAT    EPW 5966   6.050   3.842   6.487
 1312WAT      O 5967   6.479   3.433   7.043
 1312WAT     H1 5968   6.547   3.437   6.989
 1312WAT     H2 5969   6.454   3.350   7.037
 1312WAT    EPW 5970   6.486   3.421   7.034
 1313WAT      O 5971   6.501   4.403   7.235
 1313WAT     H1 5972   6.479   4.478   7.196
 1313WAT     H2 5973   6.587   4.411   7.248
 1313WAT    EPW 5974   6.511   4.415   7.231
 1314WAT      O 5975   6.215   3.632   6.483
 1314WAT     H1 5976   6.281   3.579   6.506
 1314WAT     H2 5977   6.146   3.579   6.484
 1314WAT    EPW 5978   6.215   3.616   6.487
 1315WAT      O 5979   6.620   4.280   6.661
 1315WAT     H1 5980   6.644   4.197   6.676
 1315WAT     H2 5981   6.695   4.323   6.655
 1315WAT    EPW 5982   6.635   4.274   6.662
 1316WAT      O 5983   6.655   4.174   6.276
 1316WAT     H1 5984   6.695   4.114   6.326
 1316WAT     H2 5985   6.687   4.159   6.197
 1316WAT    EPW 5986   6.665   4.163   6.272
 1317WAT      O 5987   6.852   3.611   7.450
 1317WAT     H1 5988   6.769   3.619   7.422
 1317WAT     H2 5989   6.856   3.665   7.518
 1317WAT    EPW 5990   6.840   3.620   7.456
 1318WAT      O 5991   6.288   3.149   6.359
 1318WAT     H1 5992   6.250   3.205   6.305
 1318WAT     H2 5993   6.370   3.143   6.328
 1318WAT    EPW 5994   6.295   3.156   6.347
 1319WAT      O 5995   7.250   2.902   7.327
 1319WAT     H1 5996   7.240   2.977   7.284
 1319WAT     H2 5997   7.171   2.888   7.363
 1319WAT    EPW 5998   7.237   2.911   7.326
 1320WAT      O 5999   6.592   3.072   6.534
 1320WAT     H1 6000   6.601   3.156   6.557
 1320WAT     H2 6001   6.570   3.076   6.449
 1320WAT    EPW 6002   6.590   3.085   6.525
 1321WAT      O 6003   7.045   3.321   5.785
 1321WAT     H1 6004   6.999   3.385   5.821
 1321WAT     H2 6005   7.051   3.262   5.849
 1321WAT    EPW 6006   7.039   3.321   5.800
 1322WAT      O 6007   5.866   3.593   6.746
 1322WAT     H1 6008   5.867   3.679   6.757
 1322WAT     H2 6009   5.799   3.567   6.795
 1322WAT    EPW 6010   5.856   3.602   6.755
 1323WAT      O 6011   5.852   4.549   6.575
 1323WAT     H1 6012   5.789   4.598   6.540
 1323WAT     H2 6013   5.893   4.516   6.505
 1323WAT    EPW 6014   5.849   4.552   6.559
 1324WAT      O 6015   6.442   4.348   6.272
 1324WAT     H1 6016   6.408   4.341   6.352
 1324WAT     H2 6017   6.514   4.299   6.277
 1324WAT    EPW 6018   6.448   4.340   6.285
 1325WAT      O 6019   7.037   4.569   6.073
 1325WAT     H1 6020   7.101   4.629   6.076
 1325WAT     H2 6021   7.079   4.494   6.084
 1325WAT    EPW 6022   7.053   4.567   6.075
 1326WAT      O 6023   6.837   4.606   6.258
 1326WAT     H1 6024   6.859   4.680   6.298
 1326WAT     H2 6025   6.902   4.593   6.201
 1326WAT    EPW 6026   6.850   4.615   6.255
 1327WAT      O 6027   6.156   3.092   6.787
 1327WAT     H1 6028   6.110   3.025   6.755
 1327WAT     H2 6029   6.217   3.053   6.837
 1327WAT    EPW 6030   6.159   3.076   6.790
 1328WAT      O 6031   5.988   4.466   6.343
 1328WAT     H1 6032   6.038   4.395   6.351
 1328WAT     H2 6033   6.035   4.518   6.292
 1328WAT    EPW 6034   6.002   4.463   6.337
 1329WAT      O 6035   7.505   3.358   6.357
 1329WAT     H1 6036   7.466   3.401   6.422
 1329WAT     H2 6037   7.488   3.274   6.375
 1329WAT    EPW 6038   7.497   3.352   6.369
 1330WAT      O 6039   7.071   4.666   7.014
 1330WAT     H1 6040   7.132   4.724   6.993
 1330WAT     H2 6041   7.067   4.614   6.944
 1330WAT    EPW 6042   7.079   4.667   7.001
 1331WAT      O 6043   6.037   3.287   7.560
 1331WAT     H1 6044   5.968   3.234   7.557
 1331WAT     H2 6045   6.100   3.241   7.521
 1331WAT    EPW 6046   6.036   3.272   7.554
 1332WAT      O 6047   6.130   4.272   6.693
 1332WAT     H1 6048   6.191   4.266   6.631
 1332WAT     H2 6049   6.159   4.219   6.756
 1332WAT    EPW 6050   6.144   4.263   6.693
 1333WAT      O 6051   6.414   4.605   6.601
 1333WAT     H1 6052   6.496   4.621   6.573
 1333WAT     H2 6053   6.365   4.652   6.546
 1333WAT    EPW 6054   6.419   4.615   6.588
 1334WAT      O 6055   6.679   3.065   7.553
 1334WAT     H1 6056   6.690   2.988   7.514
 1334WAT     H2 6057   6.614   3.101   7.508
 1334WAT    EPW 6058   6.671   3.059   7.541
 1335WAT      O 6059   6.761   3.534   6.417
 1335WAT     H1 6060   6.791   3.491   6.347
 1335WAT     H2 6061   6.833   3.549   6.464
 1335WAT    EPW 6062   6.776   3.530   6.414
 1336WAT      O 6063   6.864   3.501   5.918
 1336WAT     H1 6064   6.886   3.582   5.945
 1336WAT     H2 6065   6.790   3.514   5.874
 1336WAT    EPW 6066   6.856   3.515   5.916
 1337WAT      O 6067   7.228   4.776   6.045
 1337WAT     H1 6068   7.274   4.740   5.980
 1337WAT     H2 6069   7.283   4.833   6.080
 1337WAT    EPW 6070   7.243   4.779   6.040
 1338WAT      O 6071   6.334   4.621   7.159
 1338WAT     H1 6072   6.342   4.644   7.243
 1338WAT     H2 6073   6.254   4.587   7.154
 1338WAT    EPW 6074   6.323   4.619   7.171
 1339WAT      O 6075   5.757   3.275   7.286
 1339WAT     H1 6076   5.752   3.337   7.347
 1339WAT     H2 6077   5.823   3.302   7.235
 1339WAT    EPW 6078   5.766   3.288   7.287
 1340WAT      O 6079   7.002   4.423   7.448
 1340WAT     H1 6080   7.017   4.507   7.467
 1340WAT     H2 6081   7.082   4.387   7.446
 1340WAT    EPW 6082   7.016   4.430   7.450
 1341WAT      O 6083   6.724   4.391   5.876
 1341WAT     H1 6084   6.692   4.452   5.930
 1341WAT     H2 6085   6.803   4.422   5.854
 1341WAT    EPW 6086   6.731   4.405   5.881
 1342WAT      O 6087   7.057   3.144   5.998
 1342WAT     H1 6088   7.108   3.073   6.003
 1342WAT     H2 6089   7.078   3.189   6.070
 1342WAT    EPW 6090   7.068   3.140   6.009
 1343WAT      O 6091   5.898   3.236   6.283
 1343WAT     H1 6092   5.876   3.153   6.268
 1343WAT     H2 6093   5.846   3.260   6.349
 1343WAT    EPW 6094   5.887   3.227   6.290
 1344WAT      O 6095   6.073   4.534   7.060
 1344WAT     H1 6096   6.017   4.467   7.059
 1344WAT     H2 6097   6.110   4.530   6.981
 1344WAT    EPW 6098   6.070   4.523   7.048
 1345WAT      O 6099   6.827   3.402   6.177
 1345WAT     H1 6100   6.757   3.352   6.160
 1345WAT     H2 6101   6.846   3.437   6.099
 1345WAT    EPW 6102   6.819   3.400   6.163
 1346WAT      O 6103   6.841   4.650   7.159
 1346WAT     H1 6104   6.917   4.652   7.117
 1346WAT     H2 6105   6.782   4.650   7.096
 1346WAT    EPW 6106   6.844   4.650   7.144
 1347WAT      O 6107   6.820   3.077   6.125
 1347WAT     H1 6108   6.764   3.058   6.061
 1347WAT     H2 6109   6.893   3.100   6.082
 1347WAT    EPW 6110   6.823   3.078   6.109
 1348WAT      O 6111   7.441   4.689   6.552
 1348WAT     H1 6112   7.452   4.763   6.508
 1348WAT     H2 6113   7.399   4.637   6.495
 1348WAT    EPW 6114   7.437   4.692   6.537
 1349WAT      O 6115   6.643   3.344   6.586
 1349WAT     H1 6116   6.671   3.409   6.535
 1349WAT     H2 6117   6.654   3.376   6.667
 1349WAT    EPW 6118   6.649   3.359   6.591
 1350WAT      O 6119   7.199   4.275   6.355
 1350WAT     H1 6120   7.270   4.224   6.362
 1350WAT     H2 6121   7.139   4.234   6.404
 1350WAT    EPW 6122   7.201   4.261   6.363
 1351WAT      O 6123   6.247   4.349   7.345
 1351WAT     H1 6124   6.324   4.374   7.314
 1351WAT     H2 6125   6.230   4.406   7.409
 1351WAT    EPW 6126   6.256   4.361   7.350
 1352WAT      O 6127   6.223   2.888   6.431
 1352WAT     H1 6128   6.241   2.972   6.412
 1352WAT     H2 6129   6.195   2.855   6.356
 1352WAT    EPW 6130   6.221   2.896   6.417
 1353WAT      O 6131   6.435   3.951   6.778
 1353WAT     H1 6132   6.460   3.933   6.859
 1353WAT     H2 6133   6.379   3.886   6.759
 1353WAT    EPW 6134   6.430   3.939   6.787
 1354WAT      O 6135   7.015   3.293   7.173
 1354WAT     H1 6136   7.014   3.321   7.255
 1354WAT     H2 6137   6.950   3.235   7.170
 1354WAT    EPW 6138   7.005   3.289   7.184
 1355WAT      O 6139   6.544   3.959   7.032
 1355WAT     H1 6140   6.520   4.043   7.038
 1355WAT     H2 6141   6.510   3.923   7.104
 1355WAT    EPW 6142   6.535   3.966   7.044
 1356WAT      O 6143   7.133   4.090   7.017
 1356WAT     H1 6144   7.077   4.040   7.061
 1356WAT     H2 6145   7.116   4.171   7.047
 1356WAT    EPW 6146   7.122   4.095   7.028
 1357WAT      O 6147   7.163   2.939   6.433
 1357WAT     H1 6148   7.162   2.921   6.518
 1357WAT     H2 6149   7.194   2.866   6.397
 1357WAT    EPW 6150   7.168   2.925   6.440
 1358WAT      O 6151   7.395   3.377   7.289
 1358WAT     H1 6152   7.439   3.353   7.360
 1358WAT     H2 6153   7.348   3.445   7.316
 1358WAT    EPW 6154   7.394   3.383   7.303
 1359WAT      O 6155   6.167   3.273   6.582
 1359WAT     H1 6156   6.196   3.223   6.517
 1359WAT     H2 6157   6.161   3.219   6.649
 1359WAT    EPW 6158   6.170   3.258   6.582
 1360WAT      O 6159   7.481   4.023   6.003
 1360WAT     H1 6160   7.462   3.976   6.074
 1360WAT     H2 6161   7.559   3.993   5.979
 1360WAT    EPW 6162   7.490   4.012   6.010
 1361WAT      O 6163   6.240   4.054   6.497
 1361WAT     H1 6164   6.296   4.020   6.440
 1361WAT     H2 6165   6.180   3.992   6.508
 1361WAT    EPW 6166   6.240   4.040   6.490
 1362WAT      O 6167   6.064   4.707   6.655
 1362WAT     H1 6168   5.990   4.668   6.631
 1362WAT     H2 6169   6.108   4.716   6.581
 1362WAT    EPW 6170   6.059   4.702   6.641
 1363WAT      O 6171   6.028   3.405   6.867
 1363WAT     H1 6172   6.112   3.430   6.863
 1363WAT     H2 6173   5.985   3.472   6.832
 1363WAT    EPW 6174   6.034   3.418   6.861
 1364WAT      O 6175   7.247   3.722   5.953
 1364WAT     H1 6176   7.244   3.803   5.921
 1364WAT     H2 6177   7.214   3.730   6.034
 1364WAT    EPW 6178   7.242   3.735   5.961
 1365WAT      O 6179   6.390   3.985   6.269
 1365WAT     H1 6180   6.437   4.058   6.263
 1365WAT     H2 6181   6.441   3.925   6.232
 1365WAT    EPW 6182   6.404   3.987   6.263
 1366WAT      O 6183   5.873   4.160   6.659
 1366WAT     H1 6184   5.822   4.221   6.695
 1366WAT     H2 6185   5.953   4.195   6.661
 1366WAT    EPW 6186   5.877   4.174   6.665
 1367WAT      O 6187   5.909   3.848   6.263
 1367WAT     H1 6188   5.891   3.763   6.262
 1367WAT     H2 6189   5.981   3.855   6.215
 1367WAT    EPW 6190   5.917   3.836   6.256
 1368WAT      O 6191   7.414   3.131   6.110
 1368WAT     H1 6192   7.478   3.127   6.051
 1368WAT     H2 6193   7.392   3.216   6.110
 1368WAT    EPW 6194   7.420   3.143   6.102
 1369WAT      O 6195   6.848   4.438   6.634
 1369WAT     H1 6196   6.802   4.509   6.615
 1369WAT     H2 6197   6.866   4.403   6.557
 1369WAT    EPW 6198   6.844   4.443   6.620
 1370WAT      O 6199   5.818   4.309   6.189
 1370WAT     H1 6200   5.871   4.366   6.229
 1370WAT     H2 6201   5.813   4.243   6.245
 1370WAT    EPW 6202   5.825   4.308   6.203
 1371WAT      O 6203   6.239   4.111   6.890
 1371WAT     H1 6204   6.292   4.154   6.945
 1371WAT     H2 6205   6.295   4.065   6.841
 1371WAT    EPW 6206   6.255   4.111   6.891
 1372WAT      O 6207   7.114   3.359   6.615
 1372WAT     H1 6208   7.144   3.318   6.686
 1372WAT     H2 6209   7.051   3.306   6.587
 1372WAT    EPW 6210   7.109   3.345   6.621
 1373WAT      O 6211   5.829   4.148   5.958
 1373WAT     H1 6212   5.905   4.104   5.953
 1373WAT     H2 6213   5.841   4.202   6.026
 1373WAT    EPW 6214   5.842   4.150   5.967
 1374WAT      O 6215   5.899   3.891   6.729
 1374WAT     H1 6216   5.951   3.870   6.661
 1374WAT     H2 6217   5.888   3.977   6.720
 1374WAT    EPW 6218   5.905   3.900   6.718
 1375WAT      O 6219   6.571   3.314   6.075
 1375WAT     H1 6220   6.561   3.286   5.993
 1375WAT     H2 6221   6.533   3.393   6.073
 1375WAT    EPW 6222   6.564   3.322   6.063
 1376WAT      O 6223   7.281   4.498   7.198
 1376WAT     H1 6224   7.269   4.578   7.230
 1376WAT     H2 6225   7.326   4.512   7.125
 1376WAT    EPW 6226   7.286   4.512   7.192
 1377WAT      O 6227   6.369   4.342   6.539
 1377WAT     H1 6228   6.377   4.426   6.560
 1377WAT     H2 6229   6.441   4.306   6.573
 1377WAT    EPW 6230   6.381   4.349   6.547
 1378WAT      O 6231   5.997   3.559   7.491
 1378WAT     H1 6232   6.016   3.482   7.527
 1378WAT     H2 6233   6.044   3.559   7.417
 1378WAT    EPW 6234   6.007   3.548   7.485
 1379WAT      O 6235   6.176   3.580   6.082
 1379WAT     H1 6236   6.160   3.512   6.135
 1379WAT     H2 6237   6.139   3.555   6.006
 1379WAT    EPW 6238   6.168   3.566   6.079
 1380WAT      O 6239   6.247   3.756   6.734
 1380WAT     H1 6240   6.237   3.727   6.652
 1380WAT     H2 6241   6.259   3.683   6.780
 1380WAT    EPW 6242   6.248   3.741   6.729
 1381WAT      O 6243   6.231   3.724   7.079
 1381WAT     H1 6244   6.254   3.671   7.013
 1381WAT     H2 6245   6.176   3.780   7.042
 1381WAT    EPW 6246   6.226   3.725   7.064
 1382WAT      O 6247   7.279   3.497   6.899
 1382WAT     H1 6248   7.209   3.518   6.948
 1382WAT     H2 6249   7.280   3.560   6.838
 1382WAT    EPW 6250   7.269   3.510   6.897
 1383WAT      O 6251   6.630   4.647   6.986
 1383WAT     H1 6252   6.592   4.576   6.951
 1383WAT     H2 6253   6.623   4.707   6.923
 1383WAT    EPW 6254   6.623   4.645   6.972
 1384WAT      O 6255   6.843   3.076   7.235
 1384WAT     H1 6256   6.860   2.993   7.213
 1384WAT     H2 6257   6.871   3.081   7.317
 1384WAT    EPW 6258   6.850   3.065   7.244
 1385WAT      O 6259   7.077   3.287   6.230
 1385WAT     H1 6260   7.129   3.356   6.245
 1385WAT     H2 6261   6.998   3.323   6.223
 1385WAT    EPW 6262   7.073   3.303   6.231
 1386WAT      O 6263   5.918   3.823   7.579
 1386WAT     H1 6264   5.966   3.879   7.533
 1386WAT     H2 6265   5.950   3.745   7.555
 1386WAT    EPW 6266   5.930   3.819   7.569
 1387WAT      O 6267   7.214   4.069   7.441
 1387WAT     H1 6268   7.229   4.155   7.441
 1387WAT     H2 6269   7.268   4.038   7.380
 1387WAT    EPW 6270   7.224   4.077   7.432
 1388WAT      O 6271   6.585   4.450   7.531
 1388WAT     H1 6272   6.600   4.439   7.617
 1388WAT     H2 6273   6.575   4.369   7.502
 1388WAT    EPW 6274   6.586   4.437   7.540
 1389WAT      O 6275   6.678   3.426   6.847
 1389WAT     H1 6276   6.742   3.485   6.854
 1389WAT     H2 6277   6.713   3.353   6.880
 1389WAT    EPW 6278   6.692   3.424   6.853
 1390WAT      O 6279   6.931   3.745   6.047
 1390WAT     H1 6280   6.907   3.797   5.981
 1390WAT     H2 6281   6.871   3.760   6.108
 1390WAT    EPW 6282   6.919   3.755   6.046
 1391WAT      O 6283   7.420   4.106   6.371
 1391WAT     H1 6284   7.460   4.091   6.447
 1391WAT     H2 6285   7.424   4.028   6.331
 1391WAT    EPW 6286   7.427   4.092   6.376
 1392WAT      O 6287   7.073   4.474   6.802
 1392WAT     H1 6288   7.002   4.451   6.758
 1392WAT     H2 6289   7.104   4.542   6.757
 1392WAT    EPW 6290   7.067   4.481   6.789
 1393WAT      O 6291   6.993   4.143   6.779
 1393WAT     H1 6292   6.922   4.179   6.816
 1393WAT     H2 6293   7.037   4.111   6.847
 1393WAT    EPW 6294   6.989   4.144   6.795
 1394WAT      O 6295   6.424   4.613   6.194
 1394WAT     H1 6296   6.428   4.537   6.236
 1394WAT     H2 6297   6.494   4.612   6.143
 1394WAT    EPW 6298   6.435   4.602   6.193
 1395WAT      O 6299   6.368   2.978   6.002
 1395WAT     H1 6300   6.367   2.964   6.088
 1395WAT     H2 6301   6.321   3.051   5.993
 1395WAT    EPW 6302   6.361   2.987   6.013
 1396WAT      O 6303   6.654   4.598   6.047
 1396WAT     H1 6304   6.713   4.605   6.111
 1396WAT     H2 6305   6.660   4.675   6.005
 1396WAT    EPW 6306   6.664   4.610   6.050
 1397WAT      O 6307   7.417   3.977   7.269
 1397WAT     H1 6308   7.403   3.903   7.224
 1397WAT     H2 6309   7.444   4.033   7.207
 1397WAT    EPW 6310   7.419   3.975   7.253
 1398WAT      O 6311   7.327   3.066   7.548
 1398WAT     H1 6312   7.314   3.008   7.483
 1398WAT     H2 6313   7.406   3.099   7.529
 1398WAT    EPW 6314   7.337   3.062   7.535
 1399WAT      O 6315   6.159   3.860   6.141
 1399WAT     H1 6316   6.175   3.774   6.131
 1399WAT     H2 6317   6.226   3.887   6.189
 1399WAT    EPW 6318   6.172   3.851   6.147
 1400WAT      O 6319   6.943   3.943   7.150
 1400WAT     H1 6320   6.889   3.986   7.203
 1400WAT     H2 6321   6.970   3.875   7.198
 1400WAT    EPW 6322   6.939   3.939   7.165
 1401WAT      O 6323   5.805   2.969   6.242
 1401WAT     H1 6324   5.807   2.914   6.175
 1401WAT     H2 6325   5.773   2.921   6.308
 1401WAT    EPW 6326   5.801   2.954   6.242
 1402WAT      O 6327   6.775   3.774   6.274
 1402WAT     H1 6328   6.784   3.841   6.331
 1402WAT     H2 6329   6.764   3.705   6.326
 1402WAT    EPW 6330   6.774   3.774   6.290
 1403WAT      O 6331   7.296   4.290   6.863
 1403WAT     H1 6332   7.232   4.323   6.813
 1403WAT     H2 6333   7.258   4.223   6.903
 1403WAT    EPW 6334   7.281   4.285   6.861
 1404WAT      O 6335   6.237   3.217   5.949
 1404WAT     H1 6336   6.175   3.212   5.887
 1404WAT     H2 6337   6.304   3.253   5.907
 1404WAT    EPW 6338   6.238   3.221   5.933
 1405WAT      O 6339   6.690   4.010   6.692
 1405WAT     H1 6340   6.608   3.985   6.709
 1405WAT     H2 6341   6.736   3.976   6.758
 1405WAT    EPW 6342   6.684   4.001   6.704
 1406WAT      O 6343   6.355   4.602   5.826
 1406WAT     H1 6344   6.378   4.535   5.876
 1406WAT     H2 6345   6.360   4.670   5.880
 1406WAT    EPW 6346   6.359   4.602   5.841
 1407WAT      O 6347   6.058   3.912   6.964
 1407WAT     H1 6348   6.110   3.979   6.946
 1407WAT     H2 6349   6.015   3.898   6.890
 1407WAT    EPW 6350   6.059   3.920   6.951
 1408WAT      O 6351   6.378   3.446   6.616
 1408WAT     H1 6352   6.455   3.407   6.602
 1408WAT     H2 6353   6.320   3.381   6.604
 1408WAT    EPW 6354   6.381   3.430   6.612
 1409WAT      O 6355   5.864   3.573   6.275
 1409WAT     H1 6356   5.898   3.531   6.343
 1409WAT     H2 6357   5.876   3.517   6.209
 1409WAT    EPW 6358   5.871   3.559   6.275
 1410WAT      O 6359   7.320   3.897   6.925
 1410WAT     H1 6360   7.331   3.841   6.992
 1410WAT     H2 6361   7.257   3.950   6.953
 1410WAT    EPW 6362   7.312   3.897   6.939
 1411WAT      O 6363   6.387   3.729   5.820
 1411WAT     H1 6364   6.367   3.679   5.889
 1411WAT     H2 6365   6.324   3.710   5.762
 1411WAT    EPW 6366   6.375   3.719   5.822
 1412WAT      O 6367   6.030   4.014   7.401
 1412WAT     H1 6368   5.997   3.968   7.335
 1412WAT     H2 6369   6.002   4.095   7.386
 1412WAT    EPW 6370   6.021   4.019   7.389
 1413WAT      O 6371   6.446   3.561   6.044
 1413WAT     H1 6372   6.478   3.632   6.083
 1413WAT     H2 6373   6.363   3.559   6.069
 1413WAT    EPW 6374   6.439   3.571   6.054
 1414WAT      O 6375   7.220   3.313   7.622
 1414WAT     H1 6376   7.189   3.309   7.704
 1414WAT     H2 6377   7.232   3.229   7.601
 1414WAT    EPW 6378   7.217   3.300   7.631
 1415WAT      O 6379   5.840   3.205   6.741
 1415WAT     H1 6380   5.820   3.237   6.662
 1415WAT     H2 6381   5.914   3.248   6.762
 1415WAT    EPW 6382   5.848   3.216   6.733
 1416WAT      O 6383   7.145   3.673   7.636
 1416WAT     H1 6384   7.193   3.745   7.654
 1416WAT     H2 6385   7.063   3.699   7.651
 1416WAT    EPW 6386   7.140   3.688   7.641
 1417WAT      O 6387   7.291   3.630   7.403
 1417WAT     H1 6388   7.361   3.677   7.427
 1417WAT     H2 6389   7.244   3.626   7.476
 1417WAT    EPW 6390   7.294   3.636   7.418
 1418WAT      O 6391   7.398   4.291   5.992
 1418WAT     H1 6392   7.425   4.210   6.006
 1418WAT     H2 6393   7.315   4.291   6.019
 1418WAT    EPW 6394   7.390   4.279   5.998
 1419WAT      O 6395   7.335   3.501   6.530
 1419WAT     H1 6396   7.272   3.450   6.562
 1419WAT     H2 6397   7.338   3.567   6.586
 1419WAT    EPW 6398   7.326   3.503   6.543
 1420WAT      O 6399   7.013   4.110   5.927
 1420WAT     H1 6400   7.086   4.063   5.921
 1420WAT     H2 6401   6.984   4.113   5.844
 1420WAT    EPW 6402   7.019   4.104   5.914
 1421WAT      O 6403   6.459   4.225   7.029
 1421WAT     H1 6404   6.466   4.271   7.103
 1421WAT     H2 6405   6.472   4.285   6.967
 1421WAT    EPW 6406   6.462   4.241   7.031
 1422WAT      O 6407   6.301   4.077   7.376
 1422WAT     H1 6408   6.223   4.044   7.394
 1422WAT     H2 6409   6.284   4.161   7.358
 1422WAT    EPW 6410   6.287   4.085   7.376
 1423WAT      O 6411   7.254   3.148   7.188
 1423WAT     H1 6412   7.305   3.212   7.219
 1423WAT     H2 6413   7.177   3.187   7.175
 1423WAT    EPW 6414   7.250   3.163   7.191
 1424WAT      O 6415   6.787   3.876   6.928
 1424WAT     H1 6416   6.842   3.899   6.991
 1424WAT     H2 6417   6.708   3.893   6.962
 1424WAT    EPW 6418   6.783   3.882   6.942
 1425WAT      O 6419   6.423   3.431   7.316
 1425WAT     H1 6420   6.442   3.351   7.344
 1425WAT     H2 6421   6.449   3.431   7.233
 1425WAT    EPW 6422   6.430   3.419   7.308
 1426WAT      O 6423   6.682   4.641   6.519
 1426WAT     H1 6424   6.687   4.728   6.526
 1426WAT     H2 6425   6.707   4.625   6.437
 1426WAT    EPW 6426   6.687   4.652   6.508
 1427WAT      O 6427   7.295   2.981   6.962
 1427WAT     H1 6428   7.299   3.023   7.038
 1427WAT     H2 6429   7.345   2.911   6.975
 1427WAT    EPW 6430   7.303   2.977   6.975
 1428WAT      O 6431   6.567   3.015   7.170
 1428WAT     H1 6432   6.648   3.047   7.172
 1428WAT     H2 6433   6.575   2.943   7.121
 1428WAT    EPW 6434   6.580   3.009   7.163
 1429WAT      O 6435   6.497   4.438   6.853
 1429WAT     H1 6436   6.436   4.478   6.806
 1429WAT     H2 6437   6.542   4.392   6.793
 1429WAT    EPW 6438   6.495   4.437   6.837
 1430WAT      O 6439   6.944   4.012   7.504
 1430WAT     H1 6440   7.026   4.032   7.481
 1430WAT     H2 6441   6.896   4.053   7.444
 1430WAT    EPW 6442   6.949   4.021   7.492
 1431WAT      O 6443   7.271   4.341   7.428
 1431WAT     H1 6444   7.332   4.377   7.479
 1431WAT     H2 6445   7.282   4.382   7.351
 1431WAT    EPW 6446   7.282   4.353   7.424
 1432WAT      O 6447   7.504   3.644   5.890
 1432WAT     H1 6448   7.517   3.692   5.818
 1432WAT     H2 6449   7.422   3.663   5.913
 1432WAT    EPW 6450   7.494   3.654   5.882
 1433WAT      O 6451   6.606   3.889   5.876
 1433WAT     H1 6452   6.538   3.846   5.844
 1433WAT     H2 6453   6.580   3.972   5.877
 1433WAT    EPW 6454   6.592   3.895   5.872
 1434WAT      O 6455   6.289   3.519   6.869
 1434WAT     H1 6456   6.322   3.492   6.793
 1434WAT     H2 6457   6.347   3.490   6.928
 1434WAT    EPW 6458   6.303   3.511   6.866
 1435WAT      O 6459   7.018   3.385   7.435
 1435WAT     H1 6460   6.968   3.454   7.453
 1435WAT     H2 6461   7.081   3.389   7.496
 1435WAT    EPW 6462   7.020   3.396   7.447
 1436WAT      O 6463   7.049   3.543   7.050
 1436WAT     H1 6464   7.046   3.595   7.120
 1436WAT     H2 6465   7.032   3.464   7.083
 1436WAT    EPW 6466   7.046   3.539   7.065
 1437WAT      O 6467   6.737   4.666   7.426
 1437WAT     H1 6468   6.753   4.654   7.341
 1437WAT     H2 6469   6.706   4.589   7.453
 1437WAT    EPW 6470   6.735   4.653   7.417
 1438WAT      O 6471   7.234   3.516   6.272
 1438WAT     H1 6472   7.258   3.511   6.356
 1438WAT     H2 6473   7.310   3.526   6.230
 1438WAT    EPW 6474   7.249   3.516   6.278
 1439WAT      O 6475   6.569   3.004   6.808
 1439WAT     H1 6476   6.487   2.985   6.830
 1439WAT     H2 6477   6.566   3.012   6.721
 1439WAT    EPW 6478   6.557   3.003   6.798
 1440WAT      O 6479   7.409   3.081   6.388
 1440WAT     H1 6480   7.326   3.058   6.403
 1440WAT     H2 6481   7.414   3.084   6.301
 1440WAT    EPW 6482   7.397   3.078   6.377
 1441WAT      O 6483   7.413   3.865   6.223
 1441WAT     H1 6484   7.452   3.786   6.222
 1441WAT     H2 6485   7.328   3.845   6.225
 1441WAT    EPW 6486   7.406   3.850   6.223
 1442WAT      O 6487   6.776   4.119   7.304
 1442WAT     H1 6488   6.701   4.119   7.349
 1442WAT     H2 6489   6.789   4.204   7.287
 1442WAT    EPW 6490   6.767   4.132   7.308
 1443WAT      O 6491   5.840   3.094   7.484
 1443WAT     H1 6492   5.812   3.147   7.421
 1443WAT     H2 6493   5.766   3.056   7.512
 1443WAT    EPW 6494   5.825   3.096   7.479
 1444WAT      O 6495   6.329   4.745   6.907
 1444WAT     H1 6496   6.337   4.714   6.988
 1444WAT     H2 6497   6.298   4.677   6.862
 1444WAT    EPW 6498   6.325   4.731   6.912
 1445WAT      O 6499   6.149   3.324   6.196
 1445WAT     H1 6500   6.162   3.288   6.118
 1445WAT     H2 6501   6.069   3.298   6.217
 1445WAT    EPW 6502   6.139   3.315   6.187
 1446WAT      O 6503   7.048   4.088   6.512
 1446WAT     H1 6504   7.031   4.110   6.595
 1446WAT     H2 6505   7.079   4.007   6.518
 1446WAT    EPW 6506   7.050   4.079   6.525
 1447WAT      O 6507   6.796   3.998   6.437
 1447WAT     H1 6508   6.759   3.996   6.516
 1447WAT     H2 6509   6.875   4.033   6.452
 1447WAT    EPW 6510   6.803   4.003   6.451
 1448WAT      O 6511   6.793   4.396   7.268
 1448WAT     H1 6512   6.854   4.398   7.330
 1448WAT     H2 6513   6.817   4.460   7.213
 1448WAT    EPW 6514   6.805   4.406   7.269
 1449WAT      O 6515   7.042   3.710   7.275
 1449WAT     H1 6516   6.979   3.680   7.327
 1449WAT     H2 6517   7.115   3.698   7.322
 1449WAT    EPW 6518   7.043   3.704   7.289
 1450WAT      O 6519   5.976   4.717   7.414
 1450WAT     H1 6520   5.918   4.652   7.407
 1450WAT     H2 6521   5.928   4.783   7.444
 1450WAT    EPW 6522   5.960   4.717   7.417
 1451WAT      O 6523   6.889   3.791   7.657
 1451WAT     H1 6524   6.907   3.864   7.612
 1451WAT     H2 6525   6.824   3.815   7.710
 1451WAT    EPW 6526   6.882   3.806   7.658
 1452WAT      O 6527   7.151   4.725   6.705
 1452WAT     H1 6528   7.096   4.782   6.741
 1452WAT     H2 6529   7.229   4.748   6.736
 1452WAT    EPW 6530   7.154   4.737   6.715
 1453WAT      O 6531   6.811   4.250   6.968
 1453WAT     H1 6532   6.751   4.216   7.021
 1453WAT     H2 6533   6.870   4.284   7.022
 1453WAT    EPW 6534   6.810   4.250   6.984
 1454WAT      O 6535   6.160   3.525   7.262
 1454WAT     H1 6536   6.179   3.593   7.211
 1454WAT     H2 6537   6.238   3.494   7.286
 1454WAT    EPW 6538   6.174   3.530   7.258
 1455WAT      O 6539   5.969   3.368   7.132
 1455WAT     H1 6540   5.985   3.378   7.047
 1455WAT     H2 6541   6.028   3.419   7.171
 1455WAT    EPW 6542   5.980   3.377   7.125
 1456WAT      O 6543   7.491   3.590   6.185
 1456WAT     H1 6544   7.521   3.580   6.104
 1456WAT     H2 6545   7.522   3.520   6.227
 1456WAT    EPW 6546   7.500   3.578   6.179
 1457WAT      O 6547   6.194   3.095   7.412
 1457WAT     H1 6548   6.149   3.022   7.430
 1457WAT     H2 6549   6.172   3.113   7.329
 1457WAT    EPW 6550   6.184   3.087   7.402
 1458WAT      O 6551   6.859   4.349   6.373
 1458WAT     H1 6552   6.851   4.424   6.329
 1458WAT     H2 6553   6.794   4.300   6.341
 1458WAT    EPW 6554   6.848   4.353   6.362
 1459WAT      O 6555   7.369   3.734   7.147
 1459WAT     H1 6556   7.425   3.674   7.117
 1459WAT     H2 6557   7.328   3.693   7.212
 1459WAT    EPW 6558   7.372   3.719   7.152
 1460WAT      O 6559   5.906   3.880   7.195
 1460WAT     H1 6560   5.949   3.894   7.119
 1460WAT     H2 6561   5.883   3.797   7.190
 1460WAT    EPW 6562   5.909   3.870   7.183
 1461WAT      O 6563   6.053   3.481   5.843
 1461WAT     H1 6564   5.981   3.476   5.892
 1461WAT     H2 6565   6.057   3.403   5.803
 1461WAT    EPW 6566   6.043   3.469   5.844
 1462WAT      O 6567   6.942   3.125   7.496
 1462WAT     H1 6568   6.959   3.210   7.485
 1462WAT     H2 6569   6.862   3.125   7.530
 1462WAT    EPW 6570   6.933   3.138   7.500
 1463WAT      O 6571   6.890   3.199   6.574
 1463WAT     H1 6572   6.812   3.237   6.574
 1463WAT     H2 6573   6.883   3.138   6.512
 1463WAT    EPW 6574   6.878   3.195   6.565
 1464WAT      O 6575   6.381   4.367   5.991
 1464WAT     H1 6576   6.414   4.367   6.071
 1464WAT     H2 6577   6.298   4.344   6.002
 1464WAT    EPW 6578   6.374   4.364   6.004
 1465WAT      O 6579   7.207   3.232   6.844
 1465WAT     H1 6580   7.260   3.170   6.875
 1465WAT     H2 6581   7.241   3.306   6.874
 1465WAT    EPW 6582   7.220   3.234   6.853
 1466WAT      O 6583   6.418   3.849   7.251
 1466WAT     H1 6584   6.377   3.916   7.289
 1466WAT     H2 6585   6.355   3.810   7.205
 1466WAT    EPW 6586   6.403   3.853   7.250
 1467WAT      O 6587   7.286   3.714   6.713
 1467WAT     H1 6588   7.304   3.776   6.771
 1467WAT     H2 6589   7.239   3.755   6.652
 1467WAT    EPW 6590   7.282   3.729   6.713
 1468WAT      O 6591   7.288   4.549   6.347
 1468WAT     H1 6592   7.257   4.468   6.357
 1468WAT     H2 6593   7.338   4.543   6.275
 1468WAT    EPW 6594   7.291   4.536   6.338
 1469WAT      O 6595   6.126   4.275   6.044
 1469WAT     H1 6596   6.124   4.256   6.129
 1469WAT     H2 6597   6.140   4.198   6.006
 1469WAT    EPW 6598   6.128   4.261   6.051
 1470WAT      O 6599   6.442   4.123   5.854
 1470WAT     H1 6600   6.363   4.089   5.869
 1470WAT     H2 6601   6.439   4.201   5.894
 1470WAT    EPW 6602   6.430   4.130   5.862
 1471WAT      O 6603   6.382   3.181   7.038
 1471WAT     H1 6604   6.302   3.159   7.066
 1471WAT     H2 6605   6.434   3.120   7.072
 1471WAT    EPW 6606   6.378   3.169   7.047
 1472WAT      O 6607   6.752   3.175   6.931
 1472WAT     H1 6608   6.690   3.125   6.898
 1472WAT     H2 6609   6.826   3.137   6.905
 1472WAT    EPW 6610   6.754   3.162   6.922
 1473WAT      O 6611   7.063   4.355   7.067
 1473WAT     H1 6612   7.116   4.404   7.115
 1473WAT     H2 6613   7.068   4.391   6.988
 1473WAT    EPW 6614   7.071   4.368   7.062
 1474WAT      O 6615   7.010   4.706   7.468
 1474WAT     H1 6616   6.925   4.688   7.457
 1474WAT     H2 6617   7.010   4.788   7.498
 1474WAT    EPW 6618   6.997   4.715   7.471
 1475WAT      O 6619   6.586   3.654   7.377
 1475WAT     H1 6620   6.535   3.583   7.368
 1475WAT     H2 6621   6.539   3.718   7.340
 1475WAT    EPW 6622   6.572   3.653   7.370
 1476WAT      O 6623   6.636   3.001   5.937
 1476WAT     H1 6624   6.645   3.011   5.851
 1476WAT     H2 6625   6.550   3.005   5.949
 1476WAT    EPW 6626   6.625   3.003   5.926
 1477WAT      O 6627   7.481   4.107   7.026
 1477WAT     H1 6628   7.448   4.041   6.980
 1477WAT     H2 6629   7.467   4.177   6.975
 1477WAT    EPW 6630   7.474   4.108   7.012
 1478WAT      O 6631   6.415   4.659   7.431
 1478WAT     H1 6632   6.463   4.731   7.440
 1478WAT     H2 6633   6.468   4.595   7.458
 1478WAT    EPW 6634   6.430   4.660   7.436
 1479WAT      O 6635   7.396   4.545   6.938
 1479WAT     H1 6636   7.460   4.560   6.881
 1479WAT     H2 6637   7.364   4.468   6.914
 1479WAT    EPW 6638   7.401   4.536   6.926
 1480WAT      O 6639   6.127   3.136   7.149
 1480WAT     H1 6640   6.074   3.071   7.126
 1480WAT     H2 6641   6.078   3.208   7.137
 1480WAT    EPW 6642   6.112   3.137   7.144
 1481WAT      O 6643   6.981   3.076   6.806
 1481WAT     H1 6644   7.045   3.130   6.829
 1481WAT     H2 6645   6.949   3.111   6.732
 1481WAT    EPW 6646   6.985   3.089   6.798
 1482WAT      O 6647   6.177   4.550   7.523
 1482WAT     H1 6648   6.250   4.596   7.509
 1482WAT     H2 6649   6.113   4.603   7.496
 1482WAT    EPW 6650   6.178   4.565   7.517
 1483WAT      O 6651   6.971   3.596   6.587
 1483WAT     H1 6652   7.021   3.525   6.598
 1483WAT     H2 6653   6.939   3.611   6.667
 1483WAT    EPW 6654   6.974   3.588   6.601
 1484WAT      O 6655   5.986   3.481   6.511
 1484WAT     H1 6656   5.943   3.506   6.583
 1484WAT     H2 6657   6.026   3.407   6.537
 1484WAT    EPW 6658   5.986   3.474   6.526
 1485WAT      O 6659   5.976   4.281   7.308
 1485WAT     H1 6660   5.929   4.350   7.332
 1485WAT     H2 6661   6.058   4.310   7.312
 1485WAT    EPW 6662   5.981   4.295   7.312
 1486WAT      O 6663   7.148   3.768   6.221
 1486WAT     H1 6664   7.163   3.684   6.239
 1486WAT     H2 6665   7.073   3.766   6.177
 1486WAT    EPW 6666   7.139   3.755   6.217
 1487WAT      O 6667   6.146   4.617   6.172
 1487WAT     H1 6668   6.115   4.609   6.091
 1487WAT     H2 6669   6.232   4.607   6.162
 1487WAT    EPW 6670   6.154   4.614   6.158
 1488WAT      O 6671   6.543   3.803   6.133
 1488WAT     H1 6672   6.569   3.838   6.057
 1488WAT     H2 6673   6.617   3.795   6.178
 1488WAT    EPW 6674   6.558   3.807   6.128
 1489WAT      O 6675   7.416   4.653   5.881
 1489WAT     H1 6676   7.444   4.621   5.957
 1489WAT     H2 6677   7.411   4.582   5.830
 1489WAT    EPW 6678   7.419   4.637   5.885
 1490WAT      O 6679   7.498   3.813   7.480
 1490WAT     H1 6680   7.584   3.811   7.490
 1490WAT     H2 6681   7.486   3.874   7.418
 1490WAT    EPW 6682   7.509   3.822   7.472
 1491WAT      O 6683   7.140   4.312   6.085
 1491WAT     H1 6684   7.142   4.289   6.170
 1491WAT     H2 6685   7.088   4.252   6.049
 1491WAT    EPW 6686   7.133   4.300   6.093
 1492WAT      O 6687   7.490   3.322   7.547
 1492WAT     H1 6688   7.540   3.373   7.597
 1492WAT     H2 6689   7.410   3.333   7.580
 1492WAT    EPW 6690   7.485   3.331   7.559
 1493WAT      O 6691   7.511   3.519   7.056
 1493WAT     H1 6692   7.449   3.502   6.996
 1493WAT     H2 6693   7.497   3.458   7.117
 1493WAT    EPW 6694   7.500   3.507   7.056
 1494WAT      O 6695   6.467   3.154   7.391
 1494WAT     H1 6696   6.488   3.113   7.317
 1494WAT     H2 6697   6.382   3.134   7.403
 1494WAT    EPW 6698   6.457   3.145   7.382
 1495WAT      O 6699   7.296   3.904   7.656
 1495WAT     H1 6700   7.370   3.879   7.617
 1495WAT     H2 6701   7.263   3.964   7.601
 1495WAT    EPW 6702   7.302   3.909   7.642
 1496WAT      O 6703   6.188   4.517   6.809
 1496WAT     H1 6704   6.173   4.440   6.772
 1496WAT     H2 6705   6.148   4.573   6.756
 1496WAT    EPW 6706   6.180   4.514   6.795
 1497WAT      O 6707   6.751   4.151   6.021
 1497WAT     H1 6708   6.833   4.130   6.000
 1497WAT     H2 6709   6.736   4.222   5.972
 1497WAT    EPW 6710   6.761   4.159   6.011
 1498WAT      O 6711   5.946   4.770   7.142
 1498WAT     H1 6712   5.958   4.752   7.226
 1498WAT     H2 6713   5.979   4.700   7.101
 1498WAT    EPW 6714   5.953   4.757   7.148
 1499WAT      O 6715   6.905   3.001   4.480
 1499WAT     H1 6716   6.898   3.039   4.402
 1499WAT     H2 6717   6.991   2.991   4.490
 1499WAT    EPW 6718   6.917   3.005   4.470
 1500WAT      O 6719   6.877   3.621   4.956
 1500WAT     H1 6720   6.845   3.699   4.980
 1500WAT     H2 6721   6.931   3.600   5.021
 1500WAT    EPW 6722   6.880   3.630   4.969
 1501WAT      O 6723   5.851   4.105   4.471
 1501WAT     H1 6724   5.861   4.117   4.556
 1501WAT     H2 6725   5.870   4.021   4.459
 1501WAT    EPW 6726   5.856   4.094   4.482
 1502WAT      O 6727   7.457   4.536   4.232
 1502WAT     H1 6728   7.519   4.540   4.293
 1502WAT     H2 6729   7.459   4.453   4.206
 1502WAT    EPW 6730   7.467   4.525   4.237
 1503WAT      O 6731   5.813   3.467   4.089
 1503WAT     H1 6732   5.742   3.514   4.070
 1503WAT     H2 6733   5.833   3.492   4.170
 1503WAT    EPW 6734   5.805   3.478   4.098
 1504WAT      O 6735   6.203   4.025   4.022
 1504WAT     H1 6736   6.147   3.989   3.966
 1504WAT     H2 6737   6.206   3.969   4.088
 1504WAT    EPW 6738   6.195   4.012   4.023
 1505WAT      O 6739   7.127   3.816   4.615
 1505WAT     H1 6740   7.133   3.810   4.529
 1505WAT     H2 6741   7.070   3.754   4.637
 1505WAT    EPW 6742   7.119   3.806   4.606
 1506WAT      O 6743   6.095   4.221   4.402
 1506WAT     H1 6744   6.149   4.186   4.460
 1506WAT     H2 6745   6.020   4.178   4.414
 1506WAT    EPW 6746   6.092   4.209   4.412
 1507WAT      O 6747   6.563   3.108   4.369
 1507WAT     H1 6748   6.560   3.180   4.319
 1507WAT     H2 6749   6.638   3.070   4.347
 1507WAT    EPW 6750   6.574   3.113   4.359
 1508WAT      O 6751   6.001   4.486   4.020
 1508WAT     H1 6752   6.045   4.495   3.945
 1508WAT     H2 6753   6.036   4.415   4.055
 1508WAT    EPW 6754   6.012   4.477   4.014
 1509WAT      O 6755   5.878   4.307   5.123
 1509WAT     H1 6756   5.909   4.291   5.203
 1509WAT     H2 6757   5.809   4.254   5.117
 1509WAT    EPW 6758   5.873   4.296   5.134
 1510WAT      O 6759   6.532   4.148   5.588
 1510WAT     H1 6760   6.510   4.136   5.672
 1510WAT     H2 6761   6.460   4.126   5.544
 1510WAT    EPW 6762   6.518   4.143   5.594
 1511WAT      O 6763   6.036   3.849   4.569
 1511WAT     H1 6764   5.978   3.799   4.529
 1511WAT     H2 6765   6.107   3.799   4.574
 1511WAT    EPW 6766   6.038   3.834   4.564
 1512WAT      O 6767   6.468   3.434   5.142
 1512WAT     H1 6768   6.537   3.437   5.089
 1512WAT     H2 6769   6.444   3.350   5.139
 1512WAT    EPW 6770   6.475   3.422   5.134
 1513WAT      O 6771   6.510   4.426   5.327
 1513WAT     H1 6772   6.509   4.496   5.276
 1513WAT     H2 6773   6.595   4.416   5.346
 1513WAT    EPW 6774   6.523   4.435   5.323
 1514WAT      O 6775   6.250   3.668   4.578
 1514WAT     H1 6776   6.320   3.621   4.599
 1514WAT     H2 6777   6.184   3.613   4.593
 1514WAT    EPW 6778   6.250   3.653   4.583
 1515WAT      O 6779   6.623   4.279   4.759
 1515WAT     H1 6780   6.647   4.196   4.775
 1515WAT     H2 6781   6.699   4.322   4.756
 1515WAT    EPW 6782   6.638   4.273   4.761
 1516WAT      O 6783   6.664   4.175   4.386
 1516WAT     H1 6784   6.705   4.116   4.435
 1516WAT     H2 6785   6.694   4.160   4.306
 1516WAT    EPW 6786   6.674   4.164   4.381
 1517WAT      O 6787   6.828   3.664   5.542
 1517WAT     H1 6788   6.743   3.660   5.522
 1517WAT     H2 6789   6.830   3.711   5.615
 1517WAT    EPW 6790   6.816   3.670   5.550
 1518WAT      O 6791   6.292   3.135   4.455
 1518WAT     H1 6792   6.253   3.196   4.407
 1518WAT     H2 6793   6.376   3.138   4.429
 1518WAT    EPW 6794   6.299   3.145   4.444
 1519WAT      O 6795   7.249   2.881   5.462
 1519WAT     H1 6796   7.236   2.953   5.414
 1519WAT     H2 6797   7.174   2.871   5.505
 1519WAT    EPW 6798   7.236   2.890   5.462
 1520WAT      O 6799   6.598   3.068   4.651
 1520WAT     H1 6800   6.604   3.151   4.676
 1520WAT     H2 6801   6.576   3.074   4.567
 1520WAT    EPW 6802   6.596   3.081   4.642
 1521WAT      O 6803   7.043   3.321   3.891
 1521WAT     H1 6804   6.993   3.385   3.924
 1521WAT     H2 6805   7.047   3.263   3.956
 1521WAT    EPW 6806   7.036   3.322   3.906
 1522WAT      O 6807   5.798   3.583   4.906
 1522WAT     H1 6808   5.759   3.657   4.881
 1522WAT     H2 6809   5.742   3.548   4.962
 1522WAT    EPW 6810   5.784   3.589   4.910
 1523WAT      O 6811   5.863   4.550   4.669
 1523WAT     H1 6812   5.797   4.598   4.637
 1523WAT     H2 6813   5.899   4.516   4.597
 1523WAT    EPW 6814   5.858   4.552   4.653
 1524WAT      O 6815   6.454   4.355   4.363
 1524WAT     H1 6816   6.417   4.345   4.442
 1524WAT     H2 6817   6.525   4.305   4.368
 1524WAT    EPW 6818   6.459   4.346   4.376
 1525WAT      O 6819   7.036   4.570   4.175
 1525WAT     H1 6820   7.100   4.629   4.179
 1525WAT     H2 6821   7.077   4.494   4.187
 1525WAT    EPW 6822   7.051   4.568   4.178
 1526WAT      O 6823   6.838   4.611   4.362
 1526WAT     H1 6824   6.862   4.685   4.401
 1526WAT     H2 6825   6.903   4.596   4.305
 1526WAT    EPW 6826   6.851   4.620   4.359
 1527WAT      O 6827   6.168   3.091   4.891
 1527WAT     H1 6828   6.113   3.030   4.861
 1527WAT     H2 6829   6.223   3.046   4.942
 1527WAT    EPW 6830   6.168   3.075   4.894
 1528WAT      O 6831   6.472   3.295   5.802
 1528WAT     H1 6832   6.474   3.257   5.723
 1528WAT     H2 6833   6.514   3.370   5.790
 1528WAT    EPW 6834   6.478   3.300   5.788
 1529WAT      O 6835   5.980   4.469   4.427
 1529WAT     H1 6836   6.028   4.397   4.434
 1529WAT     H2 6837   6.028   4.522   4.377
 1529WAT    EPW 6838   5.994   4.466   4.421
 1530WAT      O 6839   7.506   3.361   4.462
 1530WAT     H1 6840   7.467   3.405   4.527
 1530WAT     H2 6841   7.489   3.278   4.481
 1530WAT    EPW 6842   7.497   3.356   4.474
 1531WAT      O 6843   7.059   4.661   5.113
 1531WAT     H1 6844   7.122   4.719   5.096
 1531WAT     H2 6845   7.059   4.609   5.043
 1531WAT    EPW 6846   7.068   4.662   5.100
 1532WAT      O 6847   6.050   3.218   5.737
 1532WAT     H1 6848   5.969   3.193   5.717
 1532WAT     H2 6849   6.098   3.185   5.672
 1532WAT    EPW 6850   6.045   3.209   5.724
 1533WAT      O 6851   6.149   4.273   4.809
 1533WAT     H1 6852   6.201   4.251   4.743
 1533WAT     H2 6853   6.175   4.221   4.874
 1533WAT    EPW 6854   6.160   4.262   4.809
 1534WAT      O 6855   6.413   4.602   4.684
 1534WAT     H1 6856   6.496   4.618   4.662
 1534WAT     H2 6857   6.367   4.649   4.627
 1534WAT    EPW 6858   6.419   4.611   4.673
 1535WAT      O 6859   6.667   3.026   5.665
 1535WAT     H1 6860   6.682   2.953   5.622
 1535WAT     H2 6861   6.599   3.062   5.622
 1535WAT    EPW 6862   6.659   3.021   5.653
 1536WAT      O 6863   6.765   3.534   4.523
 1536WAT     H1 6864   6.795   3.492   4.453
 1536WAT     H2 6865   6.837   3.550   4.569
 1536WAT    EPW 6866   6.780   3.530   4.520
 1537WAT      O 6867   6.860   3.503   4.020
 1537WAT     H1 6868   6.881   3.583   4.049
 1537WAT     H2 6869   6.784   3.515   3.980
 1537WAT    EPW 6870   6.852   3.517   4.019
 1538WAT      O 6871   7.226   4.777   4.143
 1538WAT     H1 6872   7.270   4.739   4.078
 1538WAT     H2 6873   7.284   4.833   4.178
 1538WAT    EPW 6874   7.241   4.780   4.139
 1539WAT      O 6875   6.311   4.665   5.288
 1539WAT     H1 6876   6.333   4.657   5.372
 1539WAT     H2 6877   6.242   4.613   5.280
 1539WAT    EPW 6878   6.304   4.657   5.299
 1540WAT      O 6879   5.775   3.330   5.453
 1540WAT     H1 6880   5.772   3.403   5.500
 1540WAT     H2 6881   5.833   3.348   5.391
 1540WAT    EPW 6882   5.783   3.343   5.450
 1541WAT      O 6883   6.963   4.364   5.568
 1541WAT     H1 6884   6.959   4.399   5.648
 1541WAT     H2 6885   7.048   4.352   5.554
 1541WAT    EPW 6886   6.975   4.368   5.577
 1542WAT      O 6887   6.726   4.396   3.980
 1542WAT     H1 6888   6.694   4.457   4.034
 1542WAT     H2 6889   6.804   4.426   3.958
 1542WAT    EPW 6890   6.733   4.409   3.985
 1543WAT      O 6891   7.055   3.142   4.102
 1543WAT     H1 6892   7.105   3.071   4.106
 1543WAT     H2 6893   7.076   3.187   4.174
 1543WAT    EPW 6894   7.066   3.138   4.113
 1544WAT      O 6895   5.900   3.229   4.367
 1544WAT     H1 6896   5.888   3.142   4.370
 1544WAT     H2 6897   5.859   3.257   4.439
 1544WAT    EPW 6898   5.892   3.220   4.378
 1545WAT      O 6899   6.070   4.533   5.162
 1545WAT     H1 6900   6.008   4.472   5.155
 1545WAT     H2 6901   6.111   4.528   5.085
 1545WAT    EPW 6902   6.067   4.523   5.149
 1546WAT      O 6903   6.830   3.402   4.281
 1546WAT     H1 6904   6.757   3.357   4.266
 1546WAT     H2 6905   6.848   3.438   4.203
 1546WAT    EPW 6906   6.822   3.401   4.267
 1547WAT      O 6907   6.835   4.641   5.265
 1547WAT     H1 6908   6.907   4.645   5.217
 1547WAT     H2 6909   6.771   4.640   5.206
 1547WAT    EPW 6910   6.836   4.642   5.249
 1548WAT      O 6911   6.817   3.070   4.222
 1548WAT     H1 6912   6.759   3.054   4.159
 1548WAT     H2 6913   6.888   3.095   4.179
 1548WAT    EPW 6914   6.819   3.071   4.207
 1549WAT      O 6915   7.505   4.675   4.517
 1549WAT     H1 6916   7.487   4.760   4.518
 1549WAT     H2 6917   7.426   4.637   4.517
 1549WAT    EPW 6918   7.490   4.682   4.517
 1550WAT      O 6919   6.651   3.345   4.696
 1550WAT     H1 6920   6.678   3.409   4.645
 1550WAT     H2 6921   6.662   3.376   4.777
 1550WAT    EPW 6922   6.656   3.359   4.700
 1551WAT      O 6923   7.195   4.273   4.458
 1551WAT     H1 6924   7.266   4.223   4.465
 1551WAT     H2 6925   7.137   4.233   4.508
 1551WAT    EPW 6926   7.197   4.259   4.466
 1552WAT      O 6927   6.250   4.372   5.449
 1552WAT     H1 6928   6.325   4.406   5.422
 1552WAT     H2 6929   6.233   4.416   5.523
 1552WAT    EPW 6930   6.258   4.384   5.456
 1553WAT      O 6931   6.231   2.883   4.554
 1553WAT     H1 6932   6.249   2.965   4.530
 1553WAT     H2 6933   6.205   2.845   4.480
 1553WAT    EPW 6934   6.230   2.890   4.539
 1554WAT      O 6935   6.434   3.958   4.890
 1554WAT     H1 6936   6.459   3.932   4.969
 1554WAT     H2 6937   6.375   3.899   4.866
 1554WAT    EPW 6938   6.429   3.945   4.898
 1555WAT      O 6939   7.016   3.287   5.284
 1555WAT     H1 6940   7.008   3.325   5.362
 1555WAT     H2 6941   6.949   3.232   5.281
 1555WAT    EPW 6942   7.005   3.285   5.295
 1556WAT      O 6943   6.538   3.942   5.146
 1556WAT     H1 6944   6.529   4.029   5.155
 1556WAT     H2 6945   6.505   3.910   5.220
 1556WAT    EPW 6946   6.532   3.950   5.158
 1557WAT      O 6947   7.128   4.093   5.128
 1557WAT     H1 6948   7.070   4.044   5.170
 1557WAT     H2 6949   7.111   4.174   5.155
 1557WAT    EPW 6950   7.117   4.098   5.138
 1558WAT      O 6951   7.170   2.942   4.543
 1558WAT     H1 6952   7.168   2.923   4.629
 1558WAT     H2 6953   7.193   2.866   4.506
 1558WAT    EPW 6954   7.173   2.928   4.551
 1559WAT      O 6955   5.785   4.359   5.769
 1559WAT     H1 6956   5.845   4.407   5.810
 1559WAT     H2 6957   5.793   4.280   5.807
 1559WAT    EPW 6958   5.795   4.354   5.781
 1560WAT      O 6959   7.402   3.288   5.421
 1560WAT     H1 6960   7.424   3.365   5.387
 1560WAT     H2 6961   7.382   3.307   5.503
 1560WAT    EPW 6962   7.402   3.302   5.428
 1561WAT      O 6963   6.203   3.270   4.685
 1561WAT     H1 6964   6.227   3.218   4.619
 1561WAT     H2 6965   6.191   3.216   4.752
 1561WAT    EPW 6966   6.205   3.255   4.685
 1562WAT      O 6967   7.480   4.025   4.106
 1562WAT     H1 6968   7.459   3.977   4.176
 1562WAT     H2 6969   7.560   3.997   4.084
 1562WAT    EPW 6970   7.489   4.014   4.113
 1563WAT      O 6971   6.215   4.069   4.598
 1563WAT     H1 6972   6.284   4.042   4.553
 1563WAT     H2 6973   6.160   4.001   4.595
 1563WAT    EPW 6974   6.217   4.055   4.591
 1564WAT      O 6975   6.079   4.698   4.747
 1564WAT     H1 6976   6.006   4.656   4.725
 1564WAT     H2 6977   6.122   4.706   4.671
 1564WAT    EPW 6978   6.075   4.693   4.732
 1565WAT      O 6979   6.013   3.432   4.993
 1565WAT     H1 6980   6.091   3.456   4.963
 1565WAT     H2 6981   5.958   3.486   4.953
 1565WAT    EPW 6982   6.016   3.443   4.983
 1566WAT      O 6983   7.241   3.721   4.058
 1566WAT     H1 6984   7.239   3.802   4.025
 1566WAT     H2 6985   7.206   3.730   4.137
 1566WAT    EPW 6986   7.236   3.735   4.065
 1567WAT      O 6987   6.421   4.008   4.418
 1567WAT     H1 6988   6.483   4.069   4.413
 1567WAT     H2 6989   6.450   3.946   4.364
 1567WAT    EPW 6990   6.435   4.008   4.409
 1568WAT      O 6991   5.899   4.176   4.736
 1568WAT     H1 6992   5.845   4.231   4.778
 1568WAT     H2 6993   5.978   4.208   4.754
 1568WAT    EPW 6994   5.902   4.189   4.745
 1569WAT      O 6995   6.611   3.540   5.781
 1569WAT     H1 6996   6.554   3.583   5.829
 1569WAT     H2 6997   6.600   3.573   5.701
 1569WAT    EPW 6998   6.601   3.551   5.776
 1570WAT      O 6999   5.911   3.919   4.225
 1570WAT     H1 7000   5.879   3.843   4.255
 1570WAT     H2 7001   5.998   3.907   4.226
 1570WAT    EPW 7002   5.919   3.906   4.230
 1571WAT      O 7003   7.407   3.119   4.219
 1571WAT     H1 7004   7.475   3.115   4.164
 1571WAT     H2 7005   7.381   3.203   4.213
 1571WAT    EPW 7006   7.413   3.131   4.210
 1572WAT      O 7007   6.852   4.438   4.738
 1572WAT     H1 7008   6.804   4.509   4.718
 1572WAT     H2 7009   6.870   4.404   4.660
 1572WAT    EPW 7010   6.847   4.443   4.723
 1573WAT      O 7011   5.793   4.309   4.295
 1573WAT     H1 7012   5.851   4.366   4.329
 1573WAT     H2 7013   5.794   4.242   4.351
 1573WAT    EPW 7014   5.802   4.308   4.308
 1574WAT      O 7015   6.252   4.120   5.016
 1574WAT     H1 7016   6.306   4.158   5.073
 1574WAT     H2 7017   6.305   4.071   4.967
 1574WAT    EPW 7018   6.267   4.118   5.017
 1575WAT      O 7019   7.119   3.358   4.722
 1575WAT     H1 7020   7.149   3.316   4.792
 1575WAT     H2 7021   7.056   3.306   4.692
 1575WAT    EPW 7022   7.114   3.344   4.728
 1576WAT      O 7023   5.802   4.132   4.077
 1576WAT     H1 7024   5.841   4.061   4.109
 1576WAT     H2 7025   5.810   4.190   4.142
 1576WAT    EPW 7026   5.809   4.130   4.091
 1577WAT      O 7027   5.917   3.918   4.833
 1577WAT     H1 7028   5.960   3.877   4.769
 1577WAT     H2 7029   5.911   4.000   4.806
 1577WAT    EPW 7030   5.922   3.924   4.820
 1578WAT      O 7031   6.573   3.316   4.192
 1578WAT     H1 7032   6.557   3.291   4.110
 1578WAT     H2 7033   6.538   3.396   4.196
 1578WAT    EPW 7034   6.566   3.324   4.181
 1579WAT      O 7035   7.272   4.493   5.317
 1579WAT     H1 7036   7.265   4.570   5.357
 1579WAT     H2 7037   7.322   4.510   5.247
 1579WAT    EPW 7038   7.278   4.507   5.313
 1580WAT      O 7039   6.380   4.336   4.628
 1580WAT     H1 7040   6.382   4.420   4.649
 1580WAT     H2 7041   6.453   4.304   4.663
 1580WAT    EPW 7042   6.391   4.344   4.636
 1581WAT      O 7043   6.163   3.664   5.660
 1581WAT     H1 7044   6.121   3.604   5.708
 1581WAT     H2 7045   6.161   3.631   5.579
 1581WAT    EPW 7046   6.156   3.650   5.655
 1582WAT      O 7047   6.184   3.572   4.167
 1582WAT     H1 7048   6.159   3.515   4.228
 1582WAT     H2 7049   6.141   3.546   4.095
 1582WAT    EPW 7050   6.174   3.560   4.165
 1583WAT      O 7051   6.238   3.779   4.832
 1583WAT     H1 7052   6.241   3.749   4.750
 1583WAT     H2 7053   6.239   3.706   4.880
 1583WAT    EPW 7054   6.239   3.763   4.827
 1584WAT      O 7055   6.222   3.729   5.187
 1584WAT     H1 7056   6.243   3.677   5.119
 1584WAT     H2 7057   6.168   3.787   5.152
 1584WAT    EPW 7058   6.217   3.730   5.172
 1585WAT      O 7059   7.277   3.494   5.015
 1585WAT     H1 7060   7.206   3.513   5.061
 1585WAT     H2 7061   7.280   3.556   4.954
 1585WAT    EPW 7062   7.267   3.506   5.013
 1586WAT      O 7063   6.607   4.623   5.110
 1586WAT     H1 7064   6.579   4.558   5.060
 1586WAT     H2 7065   6.597   4.694   5.060
 1586WAT    EPW 7066   6.602   4.624   5.095
 1587WAT      O 7067   6.841   3.073   5.349
 1587WAT     H1 7068   6.863   2.991   5.328
 1587WAT     H2 7069   6.873   3.083   5.430
 1587WAT    EPW 7070   6.849   3.062   5.358
 1588WAT      O 7071   7.081   3.288   4.332
 1588WAT     H1 7072   7.131   3.357   4.349
 1588WAT     H2 7073   7.001   3.322   4.325
 1588WAT    EPW 7074   7.076   3.303   4.333
 1589WAT      O 7075   6.037   3.903   5.722
 1589WAT     H1 7076   6.031   3.949   5.648
 1589WAT     H2 7077   6.081   3.831   5.699
 1589WAT    EPW 7078   6.043   3.899   5.708
 1590WAT      O 7079   7.232   4.060   5.587
 1590WAT     H1 7080   7.234   4.146   5.572
 1590WAT     H2 7081   7.284   4.027   5.525
 1590WAT    EPW 7082   7.240   4.068   5.575
 1591WAT      O 7083   6.612   4.418   5.623
 1591WAT     H1 7084   6.640   4.409   5.705
 1591WAT     H2 7085   6.586   4.337   5.601
 1591WAT    EPW 7086   6.612   4.405   5.632
 1592WAT      O 7087   6.678   3.426   4.958
 1592WAT     H1 7088   6.742   3.485   4.964
 1592WAT     H2 7089   6.713   3.353   4.990
 1592WAT    EPW 7090   6.693   3.424   4.963
 1593WAT      O 7091   6.927   3.746   4.152
 1593WAT     H1 7092   6.902   3.797   4.085
 1593WAT     H2 7093   6.866   3.759   4.212
 1593WAT    EPW 7094   6.914   3.755   4.151
 1594WAT      O 7095   7.418   4.106   4.473
 1594WAT     H1 7096   7.460   4.091   4.548
 1594WAT     H2 7097   7.421   4.029   4.433
 1594WAT    EPW 7098   7.425   4.093   4.478
 1595WAT      O 7099   7.079   4.472   4.904
 1595WAT     H1 7100   7.008   4.447   4.860
 1595WAT     H2 7101   7.109   4.540   4.859
 1595WAT    EPW 7102   7.073   4.478   4.891
 1596WAT      O 7103   6.984   4.145   4.892
 1596WAT     H1 7104   6.912   4.177   4.929
 1596WAT     H2 7105   7.030   4.115   4.960
 1596WAT    EPW 7106   6.980   4.146   4.908
 1597WAT      O 7107   6.421   4.617   4.282
 1597WAT     H1 7108   6.427   4.542   4.326
 1597WAT     H2 7109   6.494   4.618   4.234
 1597WAT    EPW 7110   6.433   4.606   4.282
 1598WAT      O 7111   6.361   2.976   4.121
 1598WAT     H1 7112   6.379   2.981   4.207
 1598WAT     H2 7113   6.317   3.050   4.105
 1598WAT    EPW 7114   6.357   2.988   4.132
 1599WAT      O 7115   6.659   4.608   4.146
 1599WAT     H1 7116   6.715   4.613   4.213
 1599WAT     H2 7117   6.665   4.686   4.108
 1599WAT    EPW 7118   6.668   4.620   4.151
 1600WAT      O 7119   7.435   3.977   5.407
 1600WAT     H1 7120   7.420   3.903   5.363
 1600WAT     H2 7121   7.453   4.035   5.344
 1600WAT    EPW 7122   7.435   3.975   5.391
 1601WAT      O 7123   6.968   4.510   5.811
 1601WAT     H1 7124   6.993   4.532   5.891
 1601WAT     H2 7125   6.993   4.578   5.762
 1601WAT    EPW 7126   6.975   4.523   5.815
 1602WAT      O 7127   7.344   3.014   5.697
 1602WAT     H1 7128   7.326   2.969   5.623
 1602WAT     H2 7129   7.373   2.952   5.751
 1602WAT    EPW 7130   7.345   2.998   5.694
 1603WAT      O 7131   6.181   3.846   4.234
 1603WAT     H1 7132   6.172   3.760   4.224
 1603WAT     H2 7133   6.220   3.853   4.312
 1603WAT    EPW 7134   6.186   3.834   4.244
 1604WAT      O 7135   6.932   3.953   5.258
 1604WAT     H1 7136   6.880   3.990   5.317
 1604WAT     H2 7137   6.963   3.883   5.299
 1604WAT    EPW 7138   6.929   3.948   5.273
 1605WAT      O 7139   5.817   2.956   4.326
 1605WAT     H1 7140   5.809   2.900   4.259
 1605WAT     H2 7141   5.778   2.914   4.392
 1605WAT    EPW 7142   5.810   2.941   4.325
 1606WAT      O 7143   6.769   3.775   4.379
 1606WAT     H1 7144   6.781   3.840   4.435
 1606WAT     H2 7145   6.758   3.705   4.430
 1606WAT    EPW 7146   6.769   3.774   4.395
 1607WAT      O 7147   7.297   4.292   4.979
 1607WAT     H1 7148   7.235   4.327   4.928
 1607WAT     H2 7149   7.256   4.225   5.018
 1607WAT    EPW 7150   7.282   4.287   4.977
 1608WAT      O 7151   6.233   3.213   4.057
 1608WAT     H1 7152   6.170   3.211   3.997
 1608WAT     H2 7153   6.299   3.253   4.016
 1608WAT    EPW 7154   6.234   3.218   4.042
 1609WAT      O 7155   6.689   4.008   4.798
 1609WAT     H1 7156   6.607   3.986   4.816
 1609WAT     H2 7157   6.735   3.976   4.865
 1609WAT    EPW 7158   6.684   4.000   4.810
 1610WAT      O 7159   6.366   4.601   3.914
 1610WAT     H1 7160   6.387   4.533   3.964
 1610WAT     H2 7161   6.368   4.668   3.969
 1610WAT    EPW 7162   6.369   4.601   3.929
 1611WAT      O 7163   6.056   3.926   5.078
 1611WAT     H1 7164   6.110   3.993   5.063
 1611WAT     H2 7165   6.017   3.913   5.001
 1611WAT    EPW 7166   6.058   3.934   5.065
 1612WAT      O 7167   6.393   3.465   4.721
 1612WAT     H1 7168   6.470   3.424   4.712
 1612WAT     H2 7169   6.334   3.402   4.707
 1612WAT    EPW 7170   6.396   3.450   4.718
 1613WAT      O 7171   7.318   3.892   5.050
 1613WAT     H1 7172   7.329   3.840   5.120
 1613WAT     H2 7173   7.253   3.945   5.075
 1613WAT    EPW 7174   7.310   3.892   5.064
 1614WAT      O 7175   6.385   3.724   3.929
 1614WAT     H1 7176   6.350   3.691   4.002
 1614WAT     H2 7177   6.323   3.711   3.869
 1614WAT    EPW 7178   6.370   3.717   3.931
 1615WAT      O 7179   6.023   4.033   5.478
 1615WAT     H1 7180   5.981   3.984   5.420
 1615WAT     H2 7181   5.999   4.114   5.457
 1615WAT    EPW 7182   6.013   4.038   5.467
 1616WAT      O 7183   6.458   3.566   4.174
 1616WAT     H1 7184   6.479   3.644   4.206
 1616WAT     H2 7185   6.372   3.561   4.184
 1616WAT    EPW 7186   6.449   3.577   4.180
 1617WAT      O 7187   7.322   3.291   5.698
 1617WAT     H1 7188   7.239   3.306   5.723
 1617WAT     H2 7189   7.327   3.204   5.698
 1617WAT    EPW 7190   7.310   3.280   5.702
 1618WAT      O 7191   5.834   3.232   4.856
 1618WAT     H1 7192   5.815   3.257   4.775
 1618WAT     H2 7193   5.901   3.283   4.878
 1618WAT    EPW 7194   5.841   3.243   4.847
 1619WAT      O 7195   7.091   3.642   5.738
 1619WAT     H1 7196   7.136   3.652   5.812
 1619WAT     H2 7197   7.018   3.688   5.752
 1619WAT    EPW 7198   7.087   3.650   5.751
 1620WAT      O 7199   7.270   3.694   5.533
 1620WAT     H1 7200   7.340   3.723   5.575
 1620WAT     H2 7201   7.217   3.668   5.597
 1620WAT    EPW 7202   7.272   3.695   5.549
 1621WAT      O 7203   7.403   4.295   4.097
 1621WAT     H1 7204   7.428   4.213   4.110
 1621WAT     H2 7205   7.319   4.295   4.124
 1621WAT    EPW 7206   7.394   4.283   4.103
 1622WAT      O 7207   7.337   3.505   4.638
 1622WAT     H1 7208   7.275   3.452   4.670
 1622WAT     H2 7209   7.339   3.571   4.695
 1622WAT    EPW 7210   7.328   3.507   4.651
 1623WAT      O 7211   7.014   4.112   4.026
 1623WAT     H1 7212   7.087   4.065   4.021
 1623WAT     H2 7213   6.984   4.112   3.944
 1623WAT    EPW 7214   7.021   4.105   4.013
 1624WAT      O 7215   6.499   4.224   5.138
 1624WAT     H1 7216   6.495   4.276   5.208
 1624WAT     H2 7217   6.491   4.279   5.071
 1624WAT    EPW 7218   6.497   4.240   5.138
 1625WAT      O 7219   6.293   4.095   5.447
 1625WAT     H1 7220   6.212   4.066   5.460
 1625WAT     H2 7221   6.283   4.181   5.440
 1625WAT    EPW 7222   6.279   4.103   5.448
 1626WAT      O 7223   7.234   3.108   5.296
 1626WAT     H1 7224   7.293   3.160   5.334
 1626WAT     H2 7225   7.164   3.159   5.289
 1626WAT    EPW 7226   7.232   3.123   5.301
 1627WAT      O 7227   6.783   3.873   5.035
 1627WAT     H1 7228   6.836   3.904   5.096
 1627WAT     H2 7229   6.703   3.884   5.069
 1627WAT    EPW 7230   6.779   3.879   5.049
 1628WAT      O 7231   6.420   3.430   5.417
 1628WAT     H1 7232   6.432   3.348   5.446
 1628WAT     H2 7233   6.444   3.426   5.334
 1628WAT    EPW 7234   6.425   3.417   5.409
 1629WAT      O 7235   6.686   4.642   4.625
 1629WAT     H1 7236   6.686   4.728   4.636
 1629WAT     H2 7237   6.714   4.632   4.542
 1629WAT    EPW 7238   6.690   4.653   4.614
 1630WAT      O 7239   7.294   2.966   5.063
 1630WAT     H1 7240   7.287   3.004   5.141
 1630WAT     H2 7241   7.339   2.893   5.079
 1630WAT    EPW 7242   7.299   2.961   5.077
 1631WAT      O 7243   6.564   3.032   5.323
 1631WAT     H1 7244   6.649   3.052   5.318
 1631WAT     H2 7245   6.560   2.950   5.295
 1631WAT    EPW 7246   6.576   3.023   5.318
 1632WAT      O 7247   6.487   4.427   4.951
 1632WAT     H1 7248   6.417   4.463   4.915
 1632WAT     H2 7249   6.528   4.388   4.884
 1632WAT    EPW 7250   6.483   4.426   4.936
 1633WAT      O 7251   6.957   4.044   5.656
 1633WAT     H1 7252   7.037   4.046   5.622
 1633WAT     H2 7253   6.906   4.076   5.593
 1633WAT    EPW 7254   6.961   4.049   5.642
 1634WAT      O 7255   7.239   4.332   5.541
 1634WAT     H1 7256   7.290   4.368   5.602
 1634WAT     H2 7257   7.258   4.377   5.469
 1634WAT    EPW 7258   7.249   4.344   5.540
 1635WAT      O 7259   7.502   3.657   3.993
 1635WAT     H1 7260   7.512   3.708   3.923
 1635WAT     H2 7261   7.419   3.670   4.017
 1635WAT    EPW 7262   7.491   3.667   3.986
 1636WAT      O 7263   6.605   3.886   3.982
 1636WAT     H1 7264   6.537   3.841   3.954
 1636WAT     H2 7265   6.578   3.969   3.979
 1636WAT    EPW 7266   6.591   3.892   3.978
 1637WAT      O 7267   6.283   3.539   4.968
 1637WAT     H1 7268   6.316   3.515   4.891
 1637WAT     H2 7269   6.338   3.503   5.026
 1637WAT    EPW 7270   6.296   3.530   4.966
 1638WAT      O 7271   6.984   3.429   5.521
 1638WAT     H1 7272   6.930   3.496   5.531
 1638WAT     H2 7273   7.023   3.421   5.598
 1638WAT    EPW 7274   6.982   3.438   5.534
 1639WAT      O 7275   7.047   3.539   5.161
 1639WAT     H1 7276   7.046   3.593   5.229
 1639WAT     H2 7277   7.031   3.461   5.197
 1639WAT    EPW 7278   7.044   3.535   5.176
 1640WAT      O 7279   6.761   4.640   5.535
 1640WAT     H1 7280   6.777   4.630   5.450
 1640WAT     H2 7281   6.723   4.565   5.558
 1640WAT    EPW 7282   6.758   4.627   5.526
 1641WAT      O 7283   7.234   3.518   4.381
 1641WAT     H1 7284   7.258   3.514   4.464
 1641WAT     H2 7285   7.309   3.530   4.338
 1641WAT    EPW 7286   7.248   3.520   4.387
 1642WAT      O 7287   6.573   2.992   4.933
 1642WAT     H1 7288   6.489   2.978   4.954
 1642WAT     H2 7289   6.570   3.001   4.846
 1642WAT    EPW 7290   6.560   2.992   4.923
 1643WAT      O 7291   7.412   3.086   4.496
 1643WAT     H1 7292   7.331   3.061   4.516
 1643WAT     H2 7293   7.412   3.087   4.409
 1643WAT    EPW 7294   7.400   3.083   4.486
 1644WAT      O 7295   7.409   3.866   4.324
 1644WAT     H1 7296   7.447   3.788   4.323
 1644WAT     H2 7297   7.323   3.848   4.327
 1644WAT    EPW 7298   7.402   3.852   4.325
 1645WAT      O 7299   6.775   4.102   5.445
 1645WAT     H1 7300   6.699   4.102   5.489
 1645WAT     H2 7301   6.780   4.182   5.411
 1645WAT    EPW 7302   6.764   4.114   5.447
 1646WAT      O 7303   5.810   3.105   5.616
 1646WAT     H1 7304   5.805   3.175   5.564
 1646WAT     H2 7305   5.726   3.085   5.631
 1646WAT    EPW 7306   5.797   3.113   5.610
 1647WAT      O 7307   6.297   4.772   5.024
 1647WAT     H1 7308   6.303   4.752   5.109
 1647WAT     H2 7309   6.280   4.696   4.986
 1647WAT    EPW 7310   6.295   4.758   5.031
 1648WAT      O 7311   6.156   3.322   4.303
 1648WAT     H1 7312   6.168   3.288   4.223
 1648WAT     H2 7313   6.073   3.302   4.321
 1648WAT    EPW 7314   6.145   3.314   4.294
 1649WAT      O 7315   7.049   4.089   4.626
 1649WAT     H1 7316   7.030   4.110   4.708
 1649WAT     H2 7317   7.082   4.008   4.633
 1649WAT    EPW 7318   7.051   4.080   4.639
 1650WAT      O 7319   6.801   3.996   4.545
 1650WAT     H1 7320   6.762   3.993   4.622
 1650WAT     H2 7321   6.880   4.030   4.562
 1650WAT    EPW 7322   6.807   4.000   4.559
 1651WAT      O 7323   6.791   4.373   5.353
 1651WAT     H1 7324   6.842   4.372   5.423
 1651WAT     H2 7325   6.823   4.439   5.305
 1651WAT    EPW 7326   6.803   4.383   5.356
 1652WAT      O 7327   7.038   3.725   5.372
 1652WAT     H1 7328   6.972   3.702   5.424
 1652WAT     H2 7329   7.108   3.719   5.423
 1652WAT    EPW 7330   7.038   3.721   5.387
 1653WAT      O 7331   5.987   4.714   5.540
 1653WAT     H1 7332   5.930   4.649   5.530
 1653WAT     H2 7333   5.937   4.781   5.564
 1653WAT    EPW 7334   5.971   4.714   5.542
 1654WAT      O 7335   6.857   3.817   5.777
 1654WAT     H1 7336   6.888   3.890   5.741
 1654WAT     H2 7337   6.776   3.839   5.801
 1654WAT    EPW 7338   6.849   3.831   5.775
 1655WAT      O 7339   7.157   4.729   4.817
 1655WAT     H1 7340   7.090   4.780   4.841
 1655WAT     H2 7341   7.222   4.753   4.869
 1655WAT    EPW 7342   7.157   4.740   4.828
 1656WAT      O 7343   6.786   4.237   5.073
 1656WAT     H1 7344   6.702   4.228   5.096
 1656WAT     H2 7345   6.823   4.268   5.146
 1656WAT    EPW 7346   6.779   4.241   5.087
 1657WAT      O 7347   7.418   4.411   5.742
 1657WAT     H1 7348   7.498   4.389   5.716
 1657WAT     H2 7349   7.408   4.365   5.816
 1657WAT    EPW 7350   7.429   4.401   5.749
 1658WAT      O 7351   6.171   3.553   5.398
 1658WAT     H1 7352   6.185   3.613   5.336
 1658WAT     H2 7353   6.247   3.512   5.404
 1658WAT    EPW 7354   6.184   3.556   5.389
 1659WAT      O 7355   5.980   3.399   5.265
 1659WAT     H1 7356   5.993   3.408   5.179
 1659WAT     H2 7357   6.046   3.444   5.300
 1659WAT    EPW 7358   5.992   3.407   5.257
 1660WAT      O 7359   7.488   3.593   4.287
 1660WAT     H1 7360   7.521   3.586   4.207
 1660WAT     H2 7361   7.523   3.525   4.329
 1660WAT    EPW 7362   7.498   3.582   4.281
 1661WAT      O 7363   6.186   3.082   5.535
 1661WAT     H1 7364   6.146   3.005   5.541
 1661WAT     H2 7365   6.168   3.110   5.455
 1661WAT    EPW 7366   6.178   3.075   5.524
 1662WAT      O 7367   6.867   4.353   4.475
 1662WAT     H1 7368   6.856   4.429   4.433
 1662WAT     H2 7369   6.801   4.304   4.445
 1662WAT    EPW 7370   6.855   4.357   4.465
 1663WAT      O 7371   7.379   3.737   5.279
 1663WAT     H1 7372   7.423   3.666   5.253
 1663WAT     H2 7373   7.334   3.710   5.349
 1663WAT    EPW 7374   7.379   3.723   5.285
 1664WAT      O 7375   5.872   3.899   5.286
 1664WAT     H1 7376   5.922   3.913   5.216
 1664WAT     H2 7377   5.849   3.815   5.278
 1664WAT    EPW 7378   5.876   3.889   5.274
 1665WAT      O 7379   6.043   3.491   3.937
 1665WAT     H1 7380   5.967   3.496   3.980
 1665WAT     H2 7381   6.046   3.409   3.908
 1665WAT    EPW 7382   6.032   3.480   3.939
 1666WAT      O 7383   6.927   3.117   5.615
 1666WAT     H1 7384   6.956   3.189   5.654
 1666WAT     H2 7385   6.846   3.108   5.646
 1666WAT    EPW 7386   6.919   3.126   5.625
 1667WAT      O 7387   6.896   3.200   4.673
 1667WAT     H1 7388   6.817   3.238   4.676
 1667WAT     H2 7389   6.888   3.140   4.611
 1667WAT    EPW 7390   6.883   3.197   4.665
 1668WAT      O 7391   6.387   4.368   4.084
 1668WAT     H1 7392   6.419   4.368   4.165
 1668WAT     H2 7393   6.305   4.338   4.094
 1668WAT    EPW 7394   6.380   4.363   4.097
 1669WAT      O 7395   7.210   3.227   4.950
 1669WAT     H1 7396   7.262   3.166   4.984
 1669WAT     H2 7397   7.240   3.301   4.985
 1669WAT    EPW 7398   7.222   3.229   4.960
 1670WAT      O 7399   6.405   3.845   5.369
 1670WAT     H1 7400   6.369   3.920   5.395
 1670WAT     H2 7401   6.346   3.810   5.316
 1670WAT    EPW 7402   6.391   3.851   5.365
 1671WAT      O 7403   7.289   3.713   4.829
 1671WAT     H1 7404   7.303   3.774   4.890
 1671WAT     H2 7405   7.242   3.755   4.769
 1671WAT    EPW 7406   7.284   3.728   4.829
 1672WAT      O 7407   7.260   4.550   4.435
 1672WAT     H1 7408   7.237   4.468   4.450
 1672WAT     H2 7409   7.309   4.546   4.363
 1672WAT    EPW 7410   7.264   4.537   4.427
 1673WAT      O 7411   6.132   4.270   4.130
 1673WAT     H1 7412   6.125   4.253   4.216
 1673WAT     H2 7413   6.143   4.192   4.094
 1673WAT    EPW 7414   6.132   4.256   4.138
 1674WAT      O 7415   6.456   4.125   3.949
 1674WAT     H1 7416   6.378   4.089   3.966
 1674WAT     H2 7417   6.452   4.201   3.991
 1674WAT    EPW 7418   6.444   4.131   3.958
 1675WAT      O 7419   6.382   3.180   5.169
 1675WAT     H1 7420   6.301   3.159   5.195
 1675WAT     H2 7421   6.432   3.123   5.212
 1675WAT    EPW 7422   6.377   3.168   5.179
 1676WAT      O 7423   6.757   3.176   5.038
 1676WAT     H1 7424   6.693   3.121   5.013
 1676WAT     H2 7425   6.829   3.137   5.009
 1676WAT    EPW 7426   6.758   3.162   5.030
 1677WAT      O 7427   7.061   4.356   5.178
 1677WAT     H1 7428   7.116   4.406   5.223
 1677WAT     H2 7429   7.061   4.392   5.099
 1677WAT    EPW 7430   7.069   4.368   5.173
 1678WAT      O 7431   7.020   4.703   5.616
 1678WAT     H1 7432   6.944   4.674   5.585
 1678WAT     H2 7433   7.005   4.788   5.630
 1678WAT    EPW 7434   7.006   4.712   5.614
 1679WAT      O 7435   6.552   3.649   5.521
 1679WAT     H1 7436   6.512   3.580   5.487
 1679WAT     H2 7437   6.510   3.717   5.484
 1679WAT    EPW 7438   6.540   3.649   5.511
 1680WAT      O 7439   6.628   3.000   4.033
 1680WAT     H1 7440   6.639   3.012   3.948
 1680WAT     H2 7441   6.542   3.006   4.044
 1680WAT    EPW 7442   6.617   3.002   4.022
 1681WAT      O 7443   7.476   4.103   5.151
 1681WAT     H1 7444   7.441   4.036   5.108
 1681WAT     H2 7445   7.460   4.171   5.100
 1681WAT    EPW 7446   7.469   4.103   5.137
 1682WAT      O 7447   6.419   4.621   5.551
 1682WAT     H1 7448   6.404   4.632   5.636
 1682WAT     H2 7449   6.480   4.558   5.548
 1682WAT    EPW 7450   6.426   4.614   5.563
 1683WAT      O 7451   7.400   4.541   5.069
 1683WAT     H1 7452   7.483   4.540   5.040
 1683WAT     H2 7453   7.366   4.467   5.037
 1683WAT    EPW 7454   7.407   4.530   5.060
 1684WAT      O 7455   6.121   3.151   5.278
 1684WAT     H1 7456   6.069   3.086   5.253
 1684WAT     H2 7457   6.073   3.223   5.263
 1684WAT    EPW 7458   6.106   3.152   5.272
 1685WAT      O 7459   6.980   3.075   4.905
 1685WAT     H1 7460   7.045   3.128   4.929
 1685WAT     H2 7461   6.950   3.112   4.832
 1685WAT    EPW 7462   6.985   3.088   4.898
 1686WAT      O 7463   6.135   4.514   5.682
 1686WAT     H1 7464   6.205   4.549   5.721
 1686WAT     H2 7465   6.099   4.582   5.641
 1686WAT    EPW 7466   6.140   4.529   5.682
 1687WAT      O 7467   6.975   3.596   4.695
 1687WAT     H1 7468   7.024   3.525   4.707
 1687WAT     H2 7469   6.941   3.610   4.775
 1687WAT    EPW 7470   6.977   3.587   4.709
 1688WAT      O 7471   6.048   3.505   4.659
 1688WAT     H1 7472   5.984   3.507   4.600
 1688WAT     H2 7473   6.075   3.422   4.658
 1688WAT    EPW 7474   6.043   3.493   4.651
 1689WAT      O 7475   5.983   4.295   5.383
 1689WAT     H1 7476   5.933   4.355   5.422
 1689WAT     H2 7477   6.064   4.328   5.391
 1689WAT    EPW 7478   5.988   4.309   5.390
 1690WAT      O 7479   7.144   3.770   4.328
 1690WAT     H1 7480   7.159   3.686   4.346
 1690WAT     H2 7481   7.068   3.768   4.285
 1690WAT    EPW 7482   7.135   3.757   4.324
 1691WAT      O 7483   6.143   4.615   4.255
 1691WAT     H1 7484   6.112   4.593   4.176
 1691WAT     H2 7485   6.229   4.603   4.247
 1691WAT    EPW 7486   6.151   4.610   4.242
 1692WAT      O 7487   6.534   3.822   4.246
 1692WAT     H1 7488   6.560   3.851   4.167
 1692WAT     H2 7489   6.608   3.808   4.289
 1692WAT    EPW 7490   6.548   3.824   4.240
 1693WAT      O 7491   7.413   4.652   3.978
 1693WAT     H1 7492   7.438   4.622   4.056
 1693WAT     H2 7493   7.411   4.580   3.929
 1693WAT    EPW 7494   7.416   4.637   3.983
 1694WAT      O 7495   7.512   3.812   5.632
 1694WAT     H1 7496   7.586   3.781   5.596
 1694WAT     H2 7497   7.493   3.881   5.582
 1694WAT    EPW 7498   7.520   3.817   5.619
 1695WAT      O 7499   7.141   4.313   4.187
 1695WAT     H1 7500   7.142   4.289   4.271
 1695WAT     H2 7501   7.090   4.254   4.149
 1695WAT    EPW 7502   7.134   4.301   4.194
 1696WAT      O 7503   7.493   3.359   5.910
 1696WAT     H1 7504   7.507   3.444   5.896
 1696WAT     H2 7505   7.444   3.334   5.843
 1696WAT    EPW 7506   7.488   3.368   5.898
 1697WAT      O 7507   7.486   3.495   5.199
 1697WAT     H1 7508   7.424   3.487   5.138
 1697WAT     H2 7509   7.558   3.466   5.159
 1697WAT    EPW 7510   7.487   3.489   5.184
 1698WAT      O 7511   6.454   3.167   5.537
 1698WAT     H1 7512   6.486   3.128   5.467
 1698WAT     H2 7513   6.372   3.135   5.543
 1698WAT    EPW 7514   6.446   3.156   5.528
 1699WAT      O 7515   7.248   3.978   5.856
 1699WAT     H1 7516   7.326   4.001   5.887
 1699WAT     H2 7517   7.251   4.000   5.772
 1699WAT    EPW 7518   7.260   3.985   5.848
 1700WAT      O 7519   6.205   4.521   4.916
 1700WAT     H1 7520   6.188   4.441   4.884
 1700WAT     H2 7521   6.170   4.575   4.858
 1700WAT    EPW 7522   6.197   4.517   4.903
 1701WAT      O 7523   6.757   4.158   4.128
 1701WAT     H1 7524   6.837   4.135   4.105
 1701WAT     H2 7525   6.740   4.228   4.079
 1701WAT    EPW 7526   6.766   4.165   4.117
 1702WAT      O 7527   5.971   4.775   5.264
 1702WAT     H1 7528   5.974   4.752   5.348
 1702WAT     H2 7529   5.996   4.703   5.222
 1702WAT    EPW 7530   5.975   4.761   5.271
 1703WAT      O 7531   6.907   3.003   2.588
 1703WAT     H1 7532   6.901   3.042   2.510
 1703WAT     H2 7533   6.993   2.993   2.599
 1703WAT    EPW 7534   6.919   3.007   2.578
 1704WAT      O 7535   6.862   3.625   3.056
 1704WAT     H1 7536   6.833   3.704   3.080
 1704WAT     H2 7537   6.919   3.604   3.119
 1704WAT    EPW 7538   6.866   3.633   3.069
 1705WAT      O 7539   5.817   4.108   2.541
 1705WAT     H1 7540   5.746   4.102   2.592
 1705WAT     H2 7541   5.824   4.028   2.507
 1705WAT    EPW 7542   5.807   4.095   2.544
 1706WAT      O 7543   7.470   4.520   2.326
 1706WAT     H1 7544   7.547   4.510   2.365
 1706WAT     H2 7545   7.455   4.442   2.290
 1706WAT    EPW 7546   7.479   4.507   2.327
 1707WAT      O 7547   5.866   3.464   2.221
 1707WAT     H1 7548   5.800   3.511   2.190
 1707WAT     H2 7549   5.832   3.383   2.228
 1707WAT    EPW 7550   5.851   3.459   2.217
 1708WAT      O 7551   6.198   4.023   2.121
 1708WAT     H1 7552   6.150   3.989   2.056
 1708WAT     H2 7553   6.187   3.966   2.186
 1708WAT    EPW 7554   6.189   4.009   2.121
 1709WAT      O 7555   7.124   3.816   2.710
 1709WAT     H1 7556   7.131   3.804   2.624
 1709WAT     H2 7557   7.067   3.754   2.734
 1709WAT    EPW 7558   7.116   3.805   2.701
 1710WAT      O 7559   6.074   4.211   2.513
 1710WAT     H1 7560   6.127   4.173   2.571
 1710WAT     H2 7561   5.998   4.171   2.525
 1710WAT    EPW 7562   6.071   4.200   2.523
 1711WAT      O 7563   6.561   3.106   2.468
 1711WAT     H1 7564   6.557   3.174   2.415
 1711WAT     H2 7565   6.639   3.070   2.449
 1711WAT    EPW 7566   6.572   3.110   2.458
 1712WAT      O 7567   5.996   4.482   2.107
 1712WAT     H1 7568   6.043   4.486   2.033
 1712WAT     H2 7569   6.016   4.404   2.140
 1712WAT    EPW 7570   6.006   4.471   2.101
 1713WAT      O 7571   5.871   4.345   3.258
 1713WAT     H1 7572   5.909   4.321   3.332
 1713WAT     H2 7573   5.804   4.289   3.250
 1713WAT    EPW 7574   5.867   4.333   3.268
 1714WAT      O 7575   6.537   4.153   3.684
 1714WAT     H1 7576   6.518   4.139   3.768
 1714WAT     H2 7577   6.464   4.128   3.643
 1714WAT    EPW 7578   6.523   4.147   3.690
 1715WAT      O 7579   6.042   3.871   2.712
 1715WAT     H1 7580   5.995   3.869   2.639
 1715WAT     H2 7581   6.097   3.803   2.704
 1715WAT    EPW 7582   6.043   3.861   2.700
 1716WAT      O 7583   6.465   3.370   3.255
 1716WAT     H1 7584   6.531   3.390   3.201
 1716WAT     H2 7585   6.464   3.283   3.254
 1716WAT    EPW 7586   6.474   3.360   3.247
 1717WAT      O 7587   6.520   4.443   3.433
 1717WAT     H1 7588   6.533   4.501   3.368
 1717WAT     H2 7589   6.601   4.419   3.455
 1717WAT    EPW 7590   6.534   4.448   3.427
 1718WAT      O 7591   6.215   3.652   2.696
 1718WAT     H1 7592   6.280   3.598   2.717
 1718WAT     H2 7593   6.146   3.599   2.688
 1718WAT    EPW 7594   6.214   3.636   2.698
 1719WAT      O 7595   6.614   4.285   2.859
 1719WAT     H1 7596   6.632   4.201   2.873
 1719WAT     H2 7597   6.692   4.324   2.860
 1719WAT    EPW 7598   6.628   4.278   2.861
 1720WAT      O 7599   6.649   4.181   2.485
 1720WAT     H1 7600   6.691   4.122   2.534
 1720WAT     H2 7601   6.681   4.167   2.405
 1720WAT    EPW 7602   6.660   4.170   2.480
 1721WAT      O 7603   6.828   3.662   3.639
 1721WAT     H1 7604   6.743   3.654   3.621
 1721WAT     H2 7605   6.828   3.707   3.714
 1721WAT    EPW 7606   6.815   3.667   3.648
 1722WAT      O 7607   6.289   3.147   2.556
 1722WAT     H1 7608   6.259   3.209   2.501
 1722WAT     H2 7609   6.371   3.135   2.530
 1722WAT    EPW 7610   6.296   3.155   2.544
 1723WAT      O 7611   7.267   2.886   3.561
 1723WAT     H1 7612   7.251   2.958   3.514
 1723WAT     H2 7613   7.192   2.873   3.604
 1723WAT    EPW 7614   7.253   2.895   3.561
 1724WAT      O 7615   6.598   3.077   2.747
 1724WAT     H1 7616   6.599   3.162   2.769
 1724WAT     H2 7617   6.574   3.078   2.663
 1724WAT    EPW 7618   6.595   3.090   2.738
 1725WAT      O 7619   7.044   3.323   1.984
 1725WAT     H1 7620   6.999   3.388   2.021
 1725WAT     H2 7621   7.050   3.264   2.048
 1725WAT    EPW 7622   7.038   3.324   1.999
 1726WAT      O 7623   5.843   3.592   2.925
 1726WAT     H1 7624   5.841   3.679   2.935
 1726WAT     H2 7625   5.765   3.566   2.953
 1726WAT    EPW 7626   5.831   3.601   2.931
 1727WAT      O 7627   5.864   4.544   2.799
 1727WAT     H1 7628   5.798   4.585   2.758
 1727WAT     H2 7629   5.899   4.495   2.736
 1727WAT    EPW 7630   5.859   4.543   2.783
 1728WAT      O 7631   6.453   4.382   2.472
 1728WAT     H1 7632   6.417   4.376   2.552
 1728WAT     H2 7633   6.518   4.324   2.474
 1728WAT    EPW 7634   6.457   4.372   2.484
 1729WAT      O 7635   7.052   4.569   2.263
 1729WAT     H1 7636   7.115   4.629   2.268
 1729WAT     H2 7637   7.094   4.494   2.276
 1729WAT    EPW 7638   7.067   4.567   2.266
 1730WAT      O 7639   6.841   4.599   2.433
 1730WAT     H1 7640   6.854   4.675   2.473
 1730WAT     H2 7641   6.910   4.591   2.380
 1730WAT    EPW 7642   6.853   4.609   2.431
 1731WAT      O 7643   6.468   3.299   3.925
 1731WAT     H1 7644   6.449   3.268   3.846
 1731WAT     H2 7645   6.510   3.374   3.909
 1731WAT    EPW 7646   6.472   3.306   3.911
 1732WAT      O 7647   6.021   4.478   2.542
 1732WAT     H1 7648   6.051   4.397   2.554
 1732WAT     H2 7649   6.052   4.500   2.464
 1732WAT    EPW 7650   6.030   4.470   2.533
 1733WAT      O 7651   7.509   3.366   2.565
 1733WAT     H1 7652   7.468   3.407   2.630
 1733WAT     H2 7653   7.490   3.282   2.578
 1733WAT    EPW 7654   7.500   3.360   2.577
 1734WAT      O 7655   7.055   4.666   3.207
 1734WAT     H1 7656   7.117   4.726   3.190
 1734WAT     H2 7657   7.059   4.612   3.138
 1734WAT    EPW 7658   7.065   4.667   3.194
 1735WAT      O 7659   6.027   3.220   3.868
 1735WAT     H1 7660   5.944   3.199   3.879
 1735WAT     H2 7661   6.049   3.179   3.794
 1735WAT    EPW 7662   6.018   3.211   3.858
 1736WAT      O 7663   6.116   4.255   2.920
 1736WAT     H1 7664   6.154   4.221   2.850
 1736WAT     H2 7665   6.151   4.210   2.986
 1736WAT    EPW 7666   6.126   4.243   2.920
 1737WAT      O 7667   6.449   4.657   2.758
 1737WAT     H1 7668   6.534   4.647   2.746
 1737WAT     H2 7669   6.442   4.739   2.789
 1737WAT    EPW 7670   6.460   4.668   2.760
 1738WAT      O 7671   6.684   3.017   3.762
 1738WAT     H1 7672   6.706   2.938   3.733
 1738WAT     H2 7673   6.646   3.054   3.692
 1738WAT    EPW 7674   6.682   3.011   3.747
 1739WAT      O 7675   6.760   3.537   2.623
 1739WAT     H1 7676   6.790   3.493   2.554
 1739WAT     H2 7677   6.832   3.553   2.670
 1739WAT    EPW 7678   6.775   3.533   2.620
 1740WAT      O 7679   6.866   3.503   2.125
 1740WAT     H1 7680   6.886   3.583   2.154
 1740WAT     H2 7681   6.790   3.515   2.084
 1740WAT    EPW 7682   6.858   3.517   2.123
 1741WAT      O 7683   7.238   4.778   2.241
 1741WAT     H1 7684   7.284   4.743   2.176
 1741WAT     H2 7685   7.293   4.836   2.276
 1741WAT    EPW 7686   7.253   4.782   2.237
 1742WAT      O 7687   6.272   4.691   3.405
 1742WAT     H1 7688   6.319   4.670   3.476
 1742WAT     H2 7689   6.223   4.620   3.391
 1742WAT    EPW 7690   6.272   4.677   3.413
 1743WAT      O 7691   5.744   3.339   3.571
 1743WAT     H1 7692   5.754   3.405   3.628
 1743WAT     H2 7693   5.803   3.356   3.509
 1743WAT    EPW 7694   5.755   3.351   3.570
 1744WAT      O 7695   6.971   4.368   3.674
 1744WAT     H1 7696   6.968   4.404   3.753
 1744WAT     H2 7697   7.057   4.355   3.660
 1744WAT    EPW 7698   6.984   4.372   3.683
 1745WAT      O 7699   6.719   4.400   2.078
 1745WAT     H1 7700   6.686   4.462   2.128
 1745WAT     H2 7701   6.798   4.431   2.055
 1745WAT    EPW 7702   6.726   4.413   2.082
 1746WAT      O 7703   7.057   3.146   2.196
 1746WAT     H1 7704   7.107   3.075   2.201
 1746WAT     H2 7705   7.079   3.191   2.267
 1746WAT    EPW 7706   7.068   3.143   2.207
 1747WAT      O 7707   5.912   3.245   2.489
 1747WAT     H1 7708   5.886   3.162   2.478
 1747WAT     H2 7709   5.869   3.271   2.560
 1747WAT    EPW 7710   5.902   3.236   2.498
 1748WAT      O 7711   6.066   4.547   3.240
 1748WAT     H1 7712   6.007   4.482   3.243
 1748WAT     H2 7713   6.107   4.533   3.165
 1748WAT    EPW 7714   6.063   4.535   3.230
 1749WAT      O 7715   6.830   3.401   2.384
 1749WAT     H1 7716   6.762   3.349   2.367
 1749WAT     H2 7717   6.847   3.437   2.306
 1749WAT    EPW 7718   6.822   3.399   2.370
 1750WAT      O 7719   6.834   4.645   3.364
 1750WAT     H1 7720   6.905   4.650   3.314
 1750WAT     H2 7721   6.769   4.640   3.306
 1750WAT    EPW 7722   6.835   4.645   3.348
 1751WAT      O 7723   6.825   3.076   2.330
 1751WAT     H1 7724   6.768   3.054   2.268
 1751WAT     H2 7725   6.896   3.100   2.285
 1751WAT    EPW 7726   6.827   3.076   2.314
 1752WAT      O 7727   7.412   4.702   2.765
 1752WAT     H1 7728   7.429   4.774   2.719
 1752WAT     H2 7729   7.384   4.645   2.705
 1752WAT    EPW 7730   7.411   4.704   2.749
 1753WAT      O 7731   6.637   3.351   2.797
 1753WAT     H1 7732   6.666   3.416   2.747
 1753WAT     H2 7733   6.648   3.381   2.878
 1753WAT    EPW 7734   6.643   3.365   2.801
 1754WAT      O 7735   7.197   4.273   2.555
 1754WAT     H1 7736   7.269   4.223   2.561
 1754WAT     H2 7737   7.139   4.230   2.604
 1754WAT    EPW 7738   7.199   4.259   2.563
 1755WAT      O 7739   6.260   4.380   3.546
 1755WAT     H1 7740   6.338   4.411   3.522
 1755WAT     H2 7741   6.245   4.419   3.622
 1755WAT    EPW 7742   6.269   4.390   3.554
 1756WAT      O 7743   6.116   2.933   2.601
 1756WAT     H1 7744   6.171   2.999   2.589
 1756WAT     H2 7745   6.111   2.895   2.522
 1756WAT    EPW 7746   6.124   2.937   2.587
 1757WAT      O 7747   6.428   3.952   3.001
 1757WAT     H1 7748   6.457   3.934   3.081
 1757WAT     H2 7749   6.375   3.885   2.983
 1757WAT    EPW 7750   6.424   3.939   3.010
 1758WAT      O 7751   7.033   3.298   3.382
 1758WAT     H1 7752   7.028   3.337   3.460
 1758WAT     H2 7753   6.970   3.239   3.385
 1758WAT    EPW 7754   7.023   3.295   3.394
 1759WAT      O 7755   6.540   3.961   3.255
 1759WAT     H1 7756   6.516   4.045   3.266
 1759WAT     H2 7757   6.508   3.921   3.326
 1759WAT    EPW 7758   6.532   3.968   3.267
 1760WAT      O 7759   7.132   4.094   3.225
 1760WAT     H1 7760   7.073   4.045   3.268
 1760WAT     H2 7761   7.116   4.175   3.253
 1760WAT    EPW 7762   7.121   4.099   3.236
 1761WAT      O 7763   7.173   2.942   2.649
 1761WAT     H1 7764   7.172   2.923   2.734
 1761WAT     H2 7765   7.193   2.866   2.611
 1761WAT    EPW 7766   7.176   2.928   2.656
 1762WAT      O 7767   5.797   4.344   3.884
 1762WAT     H1 7768   5.859   4.389   3.927
 1762WAT     H2 7769   5.800   4.265   3.922
 1762WAT    EPW 7770   5.807   4.339   3.896
 1763WAT      O 7771   7.406   3.287   3.542
 1763WAT     H1 7772   7.447   3.362   3.523
 1763WAT     H2 7773   7.381   3.298   3.625
 1763WAT    EPW 7774   7.409   3.300   3.552
 1764WAT      O 7775   6.162   3.280   2.772
 1764WAT     H1 7776   6.194   3.226   2.712
 1764WAT     H2 7777   6.161   3.233   2.845
 1764WAT    EPW 7778   6.167   3.265   2.774
 1765WAT      O 7779   7.483   4.021   2.202
 1765WAT     H1 7780   7.462   3.974   2.272
 1765WAT     H2 7781   7.559   3.987   2.177
 1765WAT    EPW 7782   7.491   4.009   2.208
 1766WAT      O 7783   6.217   4.086   2.711
 1766WAT     H1 7784   6.285   4.060   2.663
 1766WAT     H2 7785   6.167   4.015   2.717
 1766WAT    EPW 7786   6.220   4.072   2.704
 1767WAT      O 7787   6.100   4.687   2.813
 1767WAT     H1 7788   6.022   4.650   2.824
 1767WAT     H2 7789   6.096   4.758   2.863
 1767WAT    EPW 7790   6.088   4.692   2.822
 1768WAT      O 7791   5.988   3.442   3.110
 1768WAT     H1 7792   6.073   3.434   3.092
 1768WAT     H2 7793   5.959   3.499   3.051
 1768WAT    EPW 7794   5.997   3.449   3.099
 1769WAT      O 7795   7.244   3.723   2.155
 1769WAT     H1 7796   7.240   3.804   2.124
 1769WAT     H2 7797   7.212   3.731   2.236
 1769WAT    EPW 7798   7.239   3.736   2.163
 1770WAT      O 7799   6.414   4.015   2.517
 1770WAT     H1 7800   6.475   4.077   2.510
 1770WAT     H2 7801   6.442   3.951   2.466
 1770WAT    EPW 7802   6.427   4.015   2.509
 1771WAT      O 7803   5.850   4.162   2.970
 1771WAT     H1 7804   5.798   4.233   2.966
 1771WAT     H2 7805   5.929   4.194   2.952
 1771WAT    EPW 7806   5.854   4.177   2.967
 1772WAT      O 7807   6.605   3.543   3.885
 1772WAT     H1 7808   6.545   3.589   3.928
 1772WAT     H2 7809   6.596   3.570   3.802
 1772WAT    EPW 7810   6.595   3.554   3.879
 1773WAT      O 7811   5.913   3.851   2.470
 1773WAT     H1 7812   5.877   3.772   2.464
 1773WAT     H2 7813   5.978   3.848   2.412
 1773WAT    EPW 7814   5.917   3.839   2.460
 1774WAT      O 7815   7.414   3.129   2.306
 1774WAT     H1 7816   7.488   3.104   2.267
 1774WAT     H2 7817   7.403   3.211   2.279
 1774WAT    EPW 7818   7.423   3.138   2.296
 1775WAT      O 7819   6.857   4.421   2.847
 1775WAT     H1 7820   6.819   4.498   2.829
 1775WAT     H2 7821   6.873   4.387   2.768
 1775WAT    EPW 7822   6.854   4.427   2.833
 1776WAT      O 7823   5.808   4.355   2.407
 1776WAT     H1 7824   5.871   4.387   2.457
 1776WAT     H2 7825   5.802   4.272   2.432
 1776WAT    EPW 7826   5.816   4.347   2.418
 1777WAT      O 7827   6.235   4.109   3.120
 1777WAT     H1 7828   6.284   4.148   3.180
 1777WAT     H2 7829   6.293   4.064   3.072
 1777WAT    EPW 7830   6.251   4.108   3.122
 1778WAT      O 7831   7.114   3.363   2.826
 1778WAT     H1 7832   7.147   3.320   2.894
 1778WAT     H2 7833   7.050   3.311   2.797
 1778WAT    EPW 7834   7.109   3.349   2.831
 1779WAT      O 7835   5.900   4.141   2.025
 1779WAT     H1 7836   5.937   4.067   1.996
 1779WAT     H2 7837   5.835   4.113   2.076
 1779WAT    EPW 7838   5.896   4.126   2.028
 1780WAT      O 7839   5.877   3.888   2.937
 1780WAT     H1 7840   5.927   3.879   2.866
 1780WAT     H2 7841   5.868   3.974   2.945
 1780WAT    EPW 7842   5.883   3.899   2.927
 1781WAT      O 7843   6.575   3.308   2.284
 1781WAT     H1 7844   6.561   3.283   2.201
 1781WAT     H2 7845   6.546   3.391   2.285
 1781WAT    EPW 7846   6.569   3.317   2.272
 1782WAT      O 7847   7.266   4.492   3.413
 1782WAT     H1 7848   7.258   4.569   3.454
 1782WAT     H2 7849   7.315   4.512   3.343
 1782WAT    EPW 7850   7.272   4.507   3.409
 1783WAT      O 7851   6.379   4.388   2.737
 1783WAT     H1 7852   6.394   4.473   2.753
 1783WAT     H2 7853   6.449   4.348   2.771
 1783WAT    EPW 7854   6.392   4.395   2.744
 1784WAT      O 7855   6.160   3.672   3.762
 1784WAT     H1 7856   6.120   3.611   3.810
 1784WAT     H2 7857   6.154   3.642   3.681
 1784WAT    EPW 7858   6.153   3.659   3.757
 1785WAT      O 7859   6.201   3.570   2.250
 1785WAT     H1 7860   6.183   3.508   2.309
 1785WAT     H2 7861   6.161   3.542   2.178
 1785WAT    EPW 7862   6.193   3.557   2.248
 1786WAT      O 7863   6.245   3.753   2.955
 1786WAT     H1 7864   6.234   3.728   2.873
 1786WAT     H2 7865   6.257   3.679   2.999
 1786WAT    EPW 7866   6.245   3.738   2.950
 1787WAT      O 7867   6.229   3.724   3.287
 1787WAT     H1 7868   6.249   3.664   3.228
 1787WAT     H2 7869   6.173   3.777   3.245
 1787WAT    EPW 7870   6.224   3.723   3.272
 1788WAT      O 7871   7.274   3.498   3.110
 1788WAT     H1 7872   7.204   3.518   3.158
 1788WAT     H2 7873   7.276   3.560   3.049
 1788WAT    EPW 7874   7.264   3.510   3.108
 1789WAT      O 7875   6.599   4.614   3.216
 1789WAT     H1 7876   6.574   4.551   3.160
 1789WAT     H2 7877   6.586   4.687   3.171
 1789WAT    EPW 7878   6.594   4.615   3.201
 1790WAT      O 7879   6.870   3.084   3.457
 1790WAT     H1 7880   6.868   3.000   3.435
 1790WAT     H2 7881   6.904   3.083   3.538
 1790WAT    EPW 7882   6.875   3.072   3.466
 1791WAT      O 7883   7.081   3.287   2.430
 1791WAT     H1 7884   7.133   3.355   2.446
 1791WAT     H2 7885   7.001   3.322   2.425
 1791WAT    EPW 7886   7.077   3.302   2.432
 1792WAT      O 7887   6.027   3.902   3.845
 1792WAT     H1 7888   6.024   3.953   3.774
 1792WAT     H2 7889   6.071   3.831   3.818
 1792WAT    EPW 7890   6.033   3.899   3.831
 1793WAT      O 7891   7.229   4.059   3.687
 1793WAT     H1 7892   7.234   4.145   3.672
 1793WAT     H2 7893   7.282   4.025   3.626
 1793WAT    EPW 7894   7.238   4.067   3.676
 1794WAT      O 7895   6.613   4.422   3.728
 1794WAT     H1 7896   6.641   4.414   3.810
 1794WAT     H2 7897   6.589   4.341   3.706
 1794WAT    EPW 7898   6.614   4.409   3.737
 1795WAT      O 7899   6.669   3.422   3.062
 1795WAT     H1 7900   6.729   3.484   3.069
 1795WAT     H2 7901   6.710   3.350   3.091
 1795WAT    EPW 7902   6.684   3.420   3.068
 1796WAT      O 7903   6.925   3.747   2.255
 1796WAT     H1 7904   6.900   3.797   2.188
 1796WAT     H2 7905   6.863   3.762   2.315
 1796WAT    EPW 7906   6.912   3.757   2.254
 1797WAT      O 7907   7.421   4.107   2.569
 1797WAT     H1 7908   7.463   4.093   2.644
 1797WAT     H2 7909   7.423   4.030   2.529
 1797WAT    EPW 7910   7.427   4.094   2.574
 1798WAT      O 7911   7.082   4.466   3.006
 1798WAT     H1 7912   7.012   4.438   2.962
 1798WAT     H2 7913   7.111   4.534   2.959
 1798WAT    EPW 7914   7.076   4.472   2.993
 1799WAT      O 7915   6.999   4.139   2.981
 1799WAT     H1 7916   6.928   4.174   3.017
 1799WAT     H2 7917   7.044   4.109   3.050
 1799WAT    EPW 7918   6.995   4.140   2.996
 1800WAT      O 7919   6.430   4.658   2.401
 1800WAT     H1 7920   6.430   4.588   2.453
 1800WAT     H2 7921   6.494   4.642   2.344
 1800WAT    EPW 7922   6.440   4.645   2.400
 1801WAT      O 7923   6.368   2.973   2.203
 1801WAT     H1 7924   6.357   2.954   2.288
 1801WAT     H2 7925   6.320   3.045   2.192
 1801WAT    EPW 7926   6.359   2.980   2.214
 1802WAT      O 7927   6.645   4.613   2.238
 1802WAT     H1 7928   6.708   4.610   2.299
 1802WAT     H2 7929   6.656   4.691   2.201
 1802WAT    EPW 7930   6.656   4.624   2.242
 1803WAT      O 7931   7.432   3.975   3.508
 1803WAT     H1 7932   7.418   3.901   3.464
 1803WAT     H2 7933   7.454   4.032   3.446
 1803WAT    EPW 7934   7.434   3.973   3.493
 1804WAT      O 7935   6.968   4.515   3.913
 1804WAT     H1 7936   6.993   4.537   3.993
 1804WAT     H2 7937   6.991   4.584   3.864
 1804WAT    EPW 7938   6.975   4.528   3.917
 1805WAT      O 7939   7.347   3.016   3.803
 1805WAT     H1 7940   7.335   2.974   3.727
 1805WAT     H2 7941   7.375   2.953   3.857
 1805WAT    EPW 7942   7.349   3.000   3.800
 1806WAT      O 7943   6.161   3.837   2.329
 1806WAT     H1 7944   6.168   3.752   2.311
 1806WAT     H2 7945   6.221   3.849   2.392
 1806WAT    EPW 7946   6.171   3.826   2.336
 1807WAT      O 7947   6.931   3.958   3.356
 1807WAT     H1 7948   6.882   3.996   3.418
 1807WAT     H2 7949   6.964   3.888   3.396
 1807WAT    EPW 7950   6.929   3.953   3.371
 1808WAT      O 7951   5.796   2.984   2.444
 1808WAT     H1 7952   5.804   2.929   2.377
 1808WAT     H2 7953   5.764   2.934   2.508
 1808WAT    EPW 7954   5.793   2.969   2.443
 1809WAT      O 7955   6.759   3.778   2.477
 1809WAT     H1 7956   6.772   3.843   2.534
 1809WAT     H2 7957   6.752   3.708   2.528
 1809WAT    EPW 7958   6.760   3.777   2.493
 1810WAT      O 7959   7.302   4.291   3.078
 1810WAT     H1 7960   7.239   4.325   3.029
 1810WAT     H2 7961   7.264   4.222   3.116
 1810WAT    EPW 7962   7.287   4.286   3.077
 1811WAT      O 7963   6.237   3.210   2.147
 1811WAT     H1 7964   6.174   3.207   2.085
 1811WAT     H2 7965   6.303   3.249   2.106
 1811WAT    EPW 7966   6.237   3.215   2.132
 1812WAT      O 7967   6.677   4.013   2.897
 1812WAT     H1 7968   6.597   3.987   2.917
 1812WAT     H2 7969   6.726   3.981   2.962
 1812WAT    EPW 7970   6.673   4.004   2.910
 1813WAT      O 7971   6.358   4.604   2.009
 1813WAT     H1 7972   6.378   4.537   2.062
 1813WAT     H2 7973   6.359   4.673   2.062
 1813WAT    EPW 7974   6.361   4.604   2.025
 1814WAT      O 7975   6.048   3.906   3.171
 1814WAT     H1 7976   6.102   3.973   3.154
 1814WAT     H2 7977   6.010   3.890   3.094
 1814WAT    EPW 7978   6.051   3.914   3.157
 1815WAT      O 7979   6.368   3.454   2.827
 1815WAT     H1 7980   6.446   3.416   2.814
 1815WAT     H2 7981   6.311   3.392   2.808
 1815WAT    EPW 7982   6.371   3.440   2.822
 1816WAT      O 7983   5.837   3.578   2.474
 1816WAT     H1 7984   5.883   3.542   2.539
 1816WAT     H2 7985   5.864   3.535   2.403
 1816WAT    EPW 7986   5.848   3.567   2.473
 1817WAT      O 7987   7.320   3.892   3.148
 1817WAT     H1 7988   7.332   3.839   3.217
 1817WAT     H2 7989   7.256   3.945   3.174
 1817WAT    EPW 7990   7.313   3.892   3.162
 1818WAT      O 7991   6.372   3.741   2.020
 1818WAT     H1 7992   6.325   3.718   2.090
 1818WAT     H2 7993   6.318   3.723   1.954
 1818WAT    EPW 7994   6.357   3.735   2.021
 1819WAT      O 7995   6.030   4.047   3.608
 1819WAT     H1 7996   5.995   3.996   3.546
 1819WAT     H2 7997   6.008   4.127   3.584
 1819WAT    EPW 7998   6.022   4.051   3.596
 1820WAT      O 7999   6.477   3.566   2.257
 1820WAT     H1 8000   6.492   3.644   2.294
 1820WAT     H2 8001   6.390   3.560   2.258
 1820WAT    EPW 8002   6.466   3.577   2.262
 1821WAT      O 8003   7.319   3.292   3.811
 1821WAT     H1 8004   7.237   3.308   3.835
 1821WAT     H2 8005   7.325   3.205   3.814
 1821WAT    EPW 8006   7.308   3.281   3.815
 1822WAT      O 8007   5.861   3.224   2.973
 1822WAT     H1 8008   5.916   3.156   2.975
 1822WAT     H2 8009   5.905   3.287   3.015
 1822WAT    EPW 8010   5.876   3.224   2.980
 1823WAT      O 8011   7.091   3.641   3.839
 1823WAT     H1 8012   7.135   3.651   3.913
 1823WAT     H2 8013   7.016   3.684   3.853
 1823WAT    EPW 8014   7.086   3.649   3.852
 1824WAT      O 8015   7.267   3.697   3.632
 1824WAT     H1 8016   7.337   3.727   3.675
 1824WAT     H2 8017   7.214   3.669   3.695
 1824WAT    EPW 8018   7.270   3.697   3.648
 1825WAT      O 8019   7.403   4.289   2.187
 1825WAT     H1 8020   7.431   4.208   2.201
 1825WAT     H2 8021   7.320   4.288   2.215
 1825WAT    EPW 8022   7.395   4.277   2.193
 1826WAT      O 8023   7.333   3.505   2.737
 1826WAT     H1 8024   7.270   3.454   2.769
 1826WAT     H2 8025   7.336   3.572   2.793
 1826WAT    EPW 8026   7.324   3.508   2.750
 1827WAT      O 8027   7.010   4.112   2.126
 1827WAT     H1 8028   7.083   4.064   2.121
 1827WAT     H2 8029   6.981   4.112   2.044
 1827WAT    EPW 8030   7.017   4.105   2.114
 1828WAT      O 8031   6.453   4.228   3.263
 1828WAT     H1 8032   6.466   4.282   3.330
 1828WAT     H2 8033   6.465   4.278   3.193
 1828WAT    EPW 8034   6.457   4.243   3.263
 1829WAT      O 8035   6.297   4.096   3.550
 1829WAT     H1 8036   6.217   4.071   3.576
 1829WAT     H2 8037   6.287   4.182   3.537
 1829WAT    EPW 8038   6.284   4.105   3.552
 1830WAT      O 8039   7.249   3.116   3.395
 1830WAT     H1 8040   7.306   3.166   3.438
 1830WAT     H2 8041   7.179   3.167   3.387
 1830WAT    EPW 8042   7.247   3.131   3.400
 1831WAT      O 8043   6.778   3.883   3.135
 1831WAT     H1 8044   6.835   3.907   3.197
 1831WAT     H2 8045   6.701   3.896   3.173
 1831WAT    EPW 8046   6.775   3.888   3.150
 1832WAT      O 8047   6.392   3.441   3.515
 1832WAT     H1 8048   6.390   3.368   3.562
 1832WAT     H2 8049   6.419   3.415   3.436
 1832WAT    EPW 8050   6.395   3.427   3.510
 1833WAT      O 8051   6.721   4.627   2.710
 1833WAT     H1 8052   6.765   4.700   2.692
 1833WAT     H2 8053   6.737   4.576   2.642
 1833WAT    EPW 8054   6.730   4.630   2.697
 1834WAT      O 8055   7.299   2.965   3.164
 1834WAT     H1 8056   7.295   3.006   3.241
 1834WAT     H2 8057   7.346   2.894   3.181
 1834WAT    EPW 8058   7.305   2.961   3.178
 1835WAT      O 8059   6.600   3.123   3.514
 1835WAT     H1 8060   6.683   3.124   3.487
 1835WAT     H2 8061   6.554   3.112   3.441
 1835WAT    EPW 8062   6.606   3.122   3.499
 1836WAT      O 8063   6.480   4.415   3.062
 1836WAT     H1 8064   6.405   4.440   3.025
 1836WAT     H2 8065   6.522   4.375   2.997
 1836WAT    EPW 8066   6.475   4.413   3.047
 1837WAT      O 8067   6.955   4.041   3.758
 1837WAT     H1 8068   7.035   4.043   3.724
 1837WAT     H2 8069   6.905   4.073   3.694
 1837WAT    EPW 8070   6.959   4.046   3.743
 1838WAT      O 8071   7.245   4.331   3.640
 1838WAT     H1 8072   7.298   4.366   3.701
 1838WAT     H2 8073   7.263   4.377   3.568
 1838WAT    EPW 8074   7.255   4.343   3.639
 1839WAT      O 8075   7.502   3.647   2.089
 1839WAT     H1 8076   7.512   3.695   2.016
 1839WAT     H2 8077   7.420   3.666   2.113
 1839WAT    EPW 8078   7.491   3.657   2.082
 1840WAT      O 8079   6.597   3.892   2.084
 1840WAT     H1 8080   6.529   3.848   2.051
 1840WAT     H2 8081   6.571   3.975   2.080
 1840WAT    EPW 8082   6.583   3.898   2.078
 1841WAT      O 8083   6.284   3.511   3.090
 1841WAT     H1 8084   6.313   3.484   3.012
 1841WAT     H2 8085   6.327   3.459   3.146
 1841WAT    EPW 8086   6.295   3.499   3.087
 1842WAT      O 8087   6.996   3.434   3.621
 1842WAT     H1 8088   6.937   3.498   3.630
 1842WAT     H2 8089   7.031   3.427   3.700
 1842WAT    EPW 8090   6.992   3.442   3.634
 1843WAT      O 8091   7.043   3.548   3.255
 1843WAT     H1 8092   7.043   3.602   3.323
 1843WAT     H2 8093   7.032   3.469   3.291
 1843WAT    EPW 8094   7.041   3.544   3.270
 1844WAT      O 8095   6.754   4.646   3.631
 1844WAT     H1 8096   6.775   4.631   3.548
 1844WAT     H2 8097   6.720   4.570   3.658
 1844WAT    EPW 8098   6.752   4.633   3.623
 1845WAT      O 8099   7.234   3.517   2.477
 1845WAT     H1 8100   7.258   3.513   2.561
 1845WAT     H2 8101   7.310   3.526   2.435
 1845WAT    EPW 8102   7.249   3.517   2.484
 1846WAT      O 8103   6.597   2.985   3.015
 1846WAT     H1 8104   6.515   2.963   3.035
 1846WAT     H2 8105   6.591   3.011   2.932
 1846WAT    EPW 8106   6.584   2.986   3.005
 1847WAT      O 8107   7.412   3.089   2.584
 1847WAT     H1 8108   7.332   3.063   2.608
 1847WAT     H2 8109   7.406   3.098   2.497
 1847WAT    EPW 8110   7.400   3.087   2.575
 1848WAT      O 8111   7.411   3.865   2.422
 1848WAT     H1 8112   7.450   3.787   2.422
 1848WAT     H2 8113   7.326   3.846   2.426
 1848WAT    EPW 8114   7.404   3.851   2.423
 1849WAT      O 8115   6.779   4.105   3.543
 1849WAT     H1 8116   6.703   4.104   3.586
 1849WAT     H2 8117   6.786   4.188   3.517
 1849WAT    EPW 8118   6.769   4.117   3.546
 1850WAT      O 8119   5.741   3.065   3.631
 1850WAT     H1 8120   5.747   3.151   3.625
 1850WAT     H2 8121   5.663   3.053   3.668
 1850WAT    EPW 8122   5.730   3.076   3.636
 1851WAT      O 8123   6.271   4.762   3.130
 1851WAT     H1 8124   6.276   4.748   3.216
 1851WAT     H2 8125   6.277   4.683   3.096
 1851WAT    EPW 8126   6.273   4.749   3.138
 1852WAT      O 8127   6.162   3.330   2.390
 1852WAT     H1 8128   6.171   3.289   2.314
 1852WAT     H2 8129   6.081   3.308   2.416
 1852WAT    EPW 8130   6.151   3.321   2.383
 1853WAT      O 8131   7.045   4.086   2.712
 1853WAT     H1 8132   7.032   4.108   2.796
 1853WAT     H2 8133   7.077   4.006   2.717
 1853WAT    EPW 8134   7.048   4.078   2.725
 1854WAT      O 8135   6.789   4.001   2.642
 1854WAT     H1 8136   6.752   3.999   2.721
 1854WAT     H2 8137   6.869   4.032   2.659
 1854WAT    EPW 8138   6.795   4.006   2.656
 1855WAT      O 8139   6.794   4.376   3.466
 1855WAT     H1 8140   6.847   4.378   3.535
 1855WAT     H2 8141   6.830   4.433   3.410
 1855WAT    EPW 8142   6.807   4.384   3.468
 1856WAT      O 8143   7.036   3.730   3.469
 1856WAT     H1 8144   6.971   3.705   3.521
 1856WAT     H2 8145   7.107   3.724   3.520
 1856WAT    EPW 8146   7.037   3.725   3.484
 1857WAT      O 8147   5.986   4.715   3.638
 1857WAT     H1 8148   5.930   4.647   3.638
 1857WAT     H2 8149   5.937   4.781   3.668
 1857WAT    EPW 8150   5.970   4.715   3.643
 1858WAT      O 8151   6.854   3.813   3.878
 1858WAT     H1 8152   6.885   3.886   3.843
 1858WAT     H2 8153   6.773   3.834   3.903
 1858WAT    EPW 8154   6.847   3.827   3.877
 1859WAT      O 8155   7.147   4.710   2.892
 1859WAT     H1 8156   7.107   4.775   2.935
 1859WAT     H2 8157   7.232   4.730   2.898
 1859WAT    EPW 8158   7.153   4.723   2.899
 1860WAT      O 8159   6.812   4.239   3.166
 1860WAT     H1 8160   6.763   4.190   3.219
 1860WAT     H2 8161   6.871   4.274   3.220
 1860WAT    EPW 8162   6.813   4.237   3.182
 1861WAT      O 8163   7.423   4.407   3.844
 1861WAT     H1 8164   7.505   4.389   3.822
 1861WAT     H2 8165   7.412   4.365   3.920
 1861WAT    EPW 8166   7.433   4.398   3.852
 1862WAT      O 8167   6.146   3.565   3.499
 1862WAT     H1 8168   6.165   3.623   3.437
 1862WAT     H2 8169   6.219   3.519   3.507
 1862WAT    EPW 8170   6.159   3.567   3.491
 1863WAT      O 8171   5.935   3.427   3.380
 1863WAT     H1 8172   5.952   3.431   3.295
 1863WAT     H2 8173   6.004   3.467   3.416
 1863WAT    EPW 8174   5.948   3.434   3.373
 1864WAT      O 8175   7.491   3.591   2.388
 1864WAT     H1 8176   7.521   3.578   2.307
 1864WAT     H2 8177   7.521   3.523   2.433
 1864WAT    EPW 8178   7.500   3.579   2.383
 1865WAT      O 8179   6.134   3.082   3.644
 1865WAT     H1 8180   6.091   3.006   3.645
 1865WAT     H2 8181   6.115   3.115   3.566
 1865WAT    EPW 8182   6.124   3.075   3.633
 1866WAT      O 8183   6.850   4.358   2.577
 1866WAT     H1 8184   6.856   4.422   2.518
 1866WAT     H2 8185   6.788   4.306   2.544
 1866WAT    EPW 8186   6.842   4.360   2.563
 1867WAT      O 8187   7.379   3.737   3.376
 1867WAT     H1 8188   7.426   3.669   3.347
 1867WAT     H2 8189   7.337   3.705   3.445
 1867WAT    EPW 8190   7.380   3.722   3.382
 1868WAT      O 8191   5.905   3.907   3.407
 1868WAT     H1 8192   5.947   3.911   3.331
 1868WAT     H2 8193   5.874   3.825   3.409
 1868WAT    EPW 8194   5.907   3.895   3.396
 1869WAT      O 8195   6.067   3.476   2.024
 1869WAT     H1 8196   5.993   3.484   2.070
 1869WAT     H2 8197   6.060   3.396   1.990
 1869WAT    EPW 8198   6.055   3.465   2.026
 1870WAT      O 8199   6.947   3.106   3.727
 1870WAT     H1 8200   6.972   3.180   3.766
 1870WAT     H2 8201   6.865   3.095   3.754
 1870WAT    EPW 8202   6.939   3.115   3.737
 1871WAT      O 8203   6.890   3.205   2.779
 1871WAT     H1 8204   6.810   3.240   2.781
 1871WAT     H2 8205   6.884   3.144   2.718
 1871WAT    EPW 8206   6.877   3.201   2.770
 1872WAT      O 8207   6.369   4.387   2.201
 1872WAT     H1 8208   6.404   4.383   2.281
 1872WAT     H2 8209   6.292   4.346   2.210
 1872WAT    EPW 8210   6.363   4.380   2.214
 1873WAT      O 8211   7.215   3.229   3.049
 1873WAT     H1 8212   7.267   3.168   3.084
 1873WAT     H2 8213   7.242   3.303   3.084
 1873WAT    EPW 8214   7.226   3.231   3.059
 1874WAT      O 8215   6.410   3.846   3.470
 1874WAT     H1 8216   6.370   3.918   3.497
 1874WAT     H2 8217   6.350   3.808   3.418
 1874WAT    EPW 8218   6.395   3.851   3.466
 1875WAT      O 8219   7.287   3.716   2.925
 1875WAT     H1 8220   7.303   3.777   2.986
 1875WAT     H2 8221   7.240   3.759   2.866
 1875WAT    EPW 8222   7.282   3.731   2.926
 1876WAT      O 8223   7.288   4.548   2.545
 1876WAT     H1 8224   7.257   4.467   2.556
 1876WAT     H2 8225   7.339   4.542   2.475
 1876WAT    EPW 8226   7.291   4.535   2.536
 1877WAT      O 8227   6.123   4.268   2.239
 1877WAT     H1 8228   6.106   4.244   2.321
 1877WAT     H2 8229   6.124   4.193   2.196
 1877WAT    EPW 8230   6.120   4.254   2.245
 1878WAT      O 8231   6.448   4.135   2.057
 1878WAT     H1 8232   6.371   4.098   2.073
 1878WAT     H2 8233   6.444   4.212   2.099
 1878WAT    EPW 8234   6.436   4.141   2.065
 1879WAT      O 8235   6.428   3.080   3.302
 1879WAT     H1 8236   6.362   3.096   3.248
 1879WAT     H2 8237   6.414   2.997   3.327
 1879WAT    EPW 8238   6.416   3.070   3.298
 1880WAT      O 8239   6.759   3.175   3.141
 1880WAT     H1 8240   6.700   3.116   3.115
 1880WAT     H2 8241   6.835   3.140   3.117
 1880WAT    EPW 8242   6.762   3.161   3.134
 1881WAT      O 8243   7.055   4.357   3.272
 1881WAT     H1 8244   7.110   4.403   3.324
 1881WAT     H2 8245   7.065   4.394   3.194
 1881WAT    EPW 8246   7.065   4.369   3.268
 1882WAT      O 8247   7.013   4.708   3.717
 1882WAT     H1 8248   6.936   4.680   3.686
 1882WAT     H2 8249   6.999   4.794   3.730
 1882WAT    EPW 8250   6.999   4.717   3.714
 1883WAT      O 8251   6.551   3.643   3.619
 1883WAT     H1 8252   6.505   3.576   3.586
 1883WAT     H2 8253   6.512   3.713   3.585
 1883WAT    EPW 8254   6.538   3.644   3.609
 1884WAT      O 8255   6.638   2.992   2.146
 1884WAT     H1 8256   6.648   3.005   2.061
 1884WAT     H2 8257   6.552   2.999   2.159
 1884WAT    EPW 8258   6.627   2.995   2.136
 1885WAT      O 8259   7.480   4.100   3.254
 1885WAT     H1 8260   7.446   4.035   3.208
 1885WAT     H2 8261   7.470   4.170   3.202
 1885WAT    EPW 8262   7.474   4.101   3.240
 1886WAT      O 8263   6.427   4.640   3.639
 1886WAT     H1 8264   6.417   4.638   3.725
 1886WAT     H2 8265   6.485   4.576   3.624
 1886WAT    EPW 8266   6.434   4.630   3.649
 1887WAT      O 8267   7.392   4.548   3.161
 1887WAT     H1 8268   7.465   4.561   3.116
 1887WAT     H2 8269   7.364   4.471   3.133
 1887WAT    EPW 8270   7.399   4.539   3.151
 1888WAT      O 8271   6.065   3.178   3.398
 1888WAT     H1 8272   6.091   3.159   3.316
 1888WAT     H2 8273   6.018   3.251   3.387
 1888WAT    EPW 8274   6.062   3.186   3.384
 1889WAT      O 8275   6.984   3.078   3.008
 1889WAT     H1 8276   7.050   3.130   3.030
 1889WAT     H2 8277   6.950   3.116   2.937
 1889WAT    EPW 8278   6.989   3.091   3.001
 1890WAT      O 8279   6.142   4.518   3.777
 1890WAT     H1 8280   6.213   4.550   3.817
 1890WAT     H2 8281   6.107   4.587   3.738
 1890WAT    EPW 8282   6.147   4.533   3.777
 1891WAT      O 8283   6.969   3.599   2.798
 1891WAT     H1 8284   7.019   3.529   2.810
 1891WAT     H2 8285   6.933   3.614   2.876
 1891WAT    EPW 8286   6.971   3.591   2.811
 1892WAT      O 8287   5.990   3.494   2.697
 1892WAT     H1 8288   5.938   3.511   2.765
 1892WAT     H2 8289   6.027   3.418   2.718
 1892WAT    EPW 8290   5.988   3.486   2.710
 1893WAT      O 8291   5.994   4.302   3.501
 1893WAT     H1 8292   5.947   4.360   3.548
 1893WAT     H2 8293   6.075   4.333   3.507
 1893WAT    EPW 8294   5.999   4.315   3.509
 1894WAT      O 8295   7.146   3.768   2.425
 1894WAT     H1 8296   7.162   3.684   2.442
 1894WAT     H2 8297   7.070   3.766   2.382
 1894WAT    EPW 8298   7.137   3.755   2.421
 1895WAT      O 8299   6.142   4.598   2.321
 1895WAT     H1 8300   6.102   4.569   2.249
 1895WAT     H2 8301   6.225   4.572   2.309
 1895WAT    EPW 8302   6.149   4.590   2.309
 1896WAT      O 8303   6.523   3.824   2.346
 1896WAT     H1 8304   6.549   3.855   2.268
 1896WAT     H2 8305   6.597   3.811   2.389
 1896WAT    EPW 8306   6.538   3.827   2.340
 1897WAT      O 8307   7.421   4.651   2.077
 1897WAT     H1 8308   7.448   4.619   2.153
 1897WAT     H2 8309   7.417   4.580   2.025
 1897WAT    EPW 8310   7.425   4.636   2.080
 1898WAT      O 8311   7.509   3.813   3.735
 1898WAT     H1 8312   7.581   3.778   3.700
 1898WAT     H2 8313   7.492   3.881   3.683
 1898WAT    EPW 8314   7.517   3.818   3.722
 1899WAT      O 8315   7.146   4.309   2.283
 1899WAT     H1 8316   7.147   4.286   2.368
 1899WAT     H2 8317   7.092   4.251   2.247
 1899WAT    EPW 8318   7.138   4.297   2.291
 1900WAT      O 8319   7.557   3.387   3.931
 1900WAT     H1 8320   7.540   3.471   3.946
 1900WAT     H2 8321   7.485   3.358   3.891
 1900WAT    EPW 8322   7.544   3.395   3.927
 1901WAT      O 8323   7.501   3.512   3.271
 1901WAT     H1 8324   7.433   3.498   3.218
 1901WAT     H2 8325   7.569   3.480   3.226
 1901WAT    EPW 8326   7.501   3.505   3.257
 1902WAT      O 8327   6.388   3.211   3.673
 1902WAT     H1 8328   6.448   3.172   3.624
 1902WAT     H2 8329   6.317   3.162   3.662
 1902WAT    EPW 8330   6.386   3.198   3.664
 1903WAT      O 8331   7.248   3.977   3.957
 1903WAT     H1 8332   7.326   4.000   3.988
 1903WAT     H2 8333   7.252   3.999   3.872
 1903WAT    EPW 8334   7.260   3.983   3.949
 1904WAT      O 8335   6.214   4.506   2.995
 1904WAT     H1 8336   6.187   4.428   2.967
 1904WAT     H2 8337   6.193   4.560   2.929
 1904WAT    EPW 8338   6.207   4.503   2.981
 1905WAT      O 8339   6.754   4.166   2.231
 1905WAT     H1 8340   6.834   4.140   2.207
 1905WAT     H2 8341   6.738   4.234   2.179
 1905WAT    EPW 8342   6.764   4.172   2.220
 1906WAT      O 8343   5.957   4.778   3.364
 1906WAT     H1 8344   5.973   4.754   3.446
 1906WAT     H2 8345   5.988   4.712   3.316
 1906WAT    EPW 8346   5.964   4.765   3.369
 1907WAT      O 8347   6.926   2.998   0.663
 1907WAT     H1 8348   6.948   3.031   0.585
 1907WAT     H2 8349   7.002   2.976   0.698
 1907WAT    EPW 8350   6.940   2.999   0.656
 1908WAT      O 8351   6.871   3.628   1.159
 1908WAT     H1 8352   6.839   3.705   1.185
 1908WAT     H2 8353   6.926   3.606   1.223
 1908WAT    EPW 8354   6.874   3.637   1.173
 1909WAT      O 8355   5.857   4.101   0.675
 1909WAT     H1 8356   5.844   4.105   0.761
 1909WAT     H2 8357   5.850   4.016   0.656
 1909WAT    EPW 8358   5.854   4.089   0.685
 1910WAT      O 8359   7.490   4.463   0.458
 1910WAT     H1 8360   7.559   4.420   0.489
 1910WAT     H2 8361   7.444   4.402   0.416
 1910WAT    EPW 8362   7.493   4.448   0.456
 1911WAT      O 8363   5.864   3.463   0.319
 1911WAT     H1 8364   5.808   3.522   0.287
 1911WAT     H2 8365   5.824   3.387   0.306
 1911WAT    EPW 8366   5.850   3.461   0.313
 1912WAT      O 8367   6.116   4.006   0.257
 1912WAT     H1 8368   6.100   3.965   0.181
 1912WAT     H2 8369   6.122   3.940   0.314
 1912WAT    EPW 8370   6.114   3.990   0.254
 1913WAT      O 8371   7.132   3.825   0.827
 1913WAT     H1 8372   7.148   3.813   0.742
 1913WAT     H2 8373   7.072   3.764   0.846
 1913WAT    EPW 8374   7.125   3.814   0.817
 1914WAT      O 8375   6.105   4.213   0.626
 1914WAT     H1 8376   6.159   4.180   0.686
 1914WAT     H2 8377   6.030   4.172   0.640
 1914WAT    EPW 8378   6.102   4.202   0.637
 1915WAT      O 8379   6.586   3.120   0.621
 1915WAT     H1 8380   6.583   3.200   0.586
 1915WAT     H2 8381   6.628   3.072   0.562
 1915WAT    EPW 8382   6.591   3.125   0.607
 1916WAT      O 8383   6.014   4.511   0.273
 1916WAT     H1 8384   6.044   4.517   0.192
 1916WAT     H2 8385   6.040   4.431   0.299
 1916WAT    EPW 8386   6.022   4.500   0.265
 1917WAT      O 8387   5.867   4.315   1.334
 1917WAT     H1 8388   5.904   4.295   1.411
 1917WAT     H2 8389   5.796   4.265   1.331
 1917WAT    EPW 8390   5.862   4.305   1.345
 1918WAT      O 8391   6.532   4.152   1.788
 1918WAT     H1 8392   6.511   4.142   1.872
 1918WAT     H2 8393   6.459   4.130   1.746
 1918WAT    EPW 8394   6.518   4.147   1.794
 1919WAT      O 8395   6.054   3.851   0.811
 1919WAT     H1 8396   6.004   3.849   0.740
 1919WAT     H2 8397   6.108   3.783   0.800
 1919WAT    EPW 8398   6.054   3.841   0.799
 1920WAT      O 8399   6.485   3.433   1.358
 1920WAT     H1 8400   6.552   3.435   1.303
 1920WAT     H2 8401   6.460   3.349   1.356
 1920WAT    EPW 8402   6.491   3.421   1.350
 1921WAT      O 8403   6.517   4.438   1.528
 1921WAT     H1 8404   6.531   4.499   1.467
 1921WAT     H2 8405   6.597   4.415   1.552
 1921WAT    EPW 8406   6.531   4.444   1.522
 1922WAT      O 8407   6.217   3.629   0.794
 1922WAT     H1 8408   6.284   3.578   0.816
 1922WAT     H2 8409   6.148   3.576   0.798
 1922WAT    EPW 8410   6.217   3.614   0.798
 1923WAT      O 8411   6.626   4.273   0.947
 1923WAT     H1 8412   6.648   4.191   0.967
 1923WAT     H2 8413   6.703   4.315   0.946
 1923WAT    EPW 8414   6.641   4.267   0.950
 1924WAT      O 8415   6.653   4.188   0.596
 1924WAT     H1 8416   6.696   4.130   0.646
 1924WAT     H2 8417   6.692   4.179   0.518
 1924WAT    EPW 8418   6.665   4.178   0.592
 1925WAT      O 8419   6.821   3.666   1.748
 1925WAT     H1 8420   6.735   3.660   1.732
 1925WAT     H2 8421   6.826   3.711   1.822
 1925WAT    EPW 8422   6.809   3.671   1.756
 1926WAT      O 8423   6.307   3.133   0.689
 1926WAT     H1 8424   6.264   3.179   0.628
 1926WAT     H2 8425   6.388   3.129   0.658
 1926WAT    EPW 8426   6.312   3.139   0.676
 1927WAT      O 8427   7.242   2.879   1.659
 1927WAT     H1 8428   7.230   2.952   1.614
 1927WAT     H2 8429   7.168   2.869   1.704
 1927WAT    EPW 8430   7.229   2.888   1.659
 1928WAT      O 8431   6.612   3.064   0.892
 1928WAT     H1 8432   6.621   3.146   0.922
 1928WAT     H2 8433   6.597   3.075   0.806
 1928WAT    EPW 8434   6.611   3.078   0.884
 1929WAT      O 8435   5.868   3.582   1.060
 1929WAT     H1 8436   5.863   3.668   1.071
 1929WAT     H2 8437   5.801   3.552   1.108
 1929WAT    EPW 8438   5.857   3.590   1.069
 1930WAT      O 8439   5.851   4.548   0.879
 1930WAT     H1 8440   5.790   4.597   0.841
 1930WAT     H2 8441   5.893   4.513   0.811
 1930WAT    EPW 8442   5.849   4.550   0.863
 1931WAT      O 8443   6.475   4.406   0.587
 1931WAT     H1 8444   6.428   4.390   0.659
 1931WAT     H2 8445   6.539   4.346   0.591
 1931WAT    EPW 8446   6.478   4.395   0.598
 1932WAT      O 8447   6.999   4.515   0.372
 1932WAT     H1 8448   7.066   4.572   0.373
 1932WAT     H2 8449   7.036   4.440   0.394
 1932WAT    EPW 8450   7.015   4.512   0.375
 1933WAT      O 8451   6.823   4.611   0.561
 1933WAT     H1 8452   6.856   4.685   0.592
 1933WAT     H2 8453   6.880   4.585   0.501
 1933WAT    EPW 8454   6.836   4.618   0.557
 1934WAT      O 8455   6.107   3.092   1.098
 1934WAT     H1 8456   6.085   3.019   1.056
 1934WAT     H2 8457   6.167   3.066   1.155
 1934WAT    EPW 8458   6.113   3.078   1.100
 1935WAT      O 8459   6.474   3.296   2.011
 1935WAT     H1 8460   6.476   3.261   1.931
 1935WAT     H2 8461   6.514   3.373   2.001
 1935WAT    EPW 8462   6.480   3.302   1.998
 1936WAT      O 8463   5.992   4.464   0.654
 1936WAT     H1 8464   6.043   4.393   0.660
 1936WAT     H2 8465   6.041   4.519   0.608
 1936WAT    EPW 8466   6.007   4.461   0.648
 1937WAT      O 8467   7.517   3.360   0.686
 1937WAT     H1 8468   7.474   3.400   0.750
 1937WAT     H2 8469   7.495   3.276   0.695
 1937WAT    EPW 8470   7.508   3.354   0.697
 1938WAT      O 8471   7.062   4.664   1.314
 1938WAT     H1 8472   7.126   4.721   1.297
 1938WAT     H2 8473   7.062   4.611   1.244
 1938WAT    EPW 8474   7.071   4.665   1.301
 1939WAT      O 8475   6.049   3.208   1.935
 1939WAT     H1 8476   5.969   3.181   1.914
 1939WAT     H2 8477   6.099   3.176   1.871
 1939WAT    EPW 8478   6.044   3.199   1.923
 1940WAT      O 8479   6.129   4.281   1.014
 1940WAT     H1 8480   6.182   4.261   0.947
 1940WAT     H2 8481   6.157   4.231   1.079
 1940WAT    EPW 8482   6.141   4.271   1.013
 1941WAT      O 8483   6.428   4.600   0.922
 1941WAT     H1 8484   6.508   4.615   0.891
 1941WAT     H2 8485   6.376   4.646   0.869
 1941WAT    EPW 8486   6.432   4.609   0.910
 1942WAT      O 8487   6.667   3.027   1.874
 1942WAT     H1 8488   6.680   2.954   1.828
 1942WAT     H2 8489   6.600   3.065   1.833
 1942WAT    EPW 8490   6.659   3.022   1.862
 1943WAT      O 8491   6.756   3.559   0.722
 1943WAT     H1 8492   6.788   3.512   0.656
 1943WAT     H2 8493   6.826   3.576   0.772
 1943WAT    EPW 8494   6.771   3.554   0.720
 1944WAT      O 8495   6.873   3.565   0.268
 1944WAT     H1 8496   6.896   3.642   0.301
 1944WAT     H2 8497   6.805   3.583   0.217
 1944WAT    EPW 8498   6.867   3.579   0.265
 1945WAT      O 8499   7.203   4.693   0.420
 1945WAT     H1 8500   7.275   4.697   0.371
 1945WAT     H2 8501   7.232   4.659   0.495
 1945WAT    EPW 8502   7.218   4.688   0.424
 1946WAT      O 8503   6.275   4.686   1.503
 1946WAT     H1 8504   6.319   4.667   1.576
 1946WAT     H2 8505   6.219   4.620   1.494
 1946WAT    EPW 8506   6.274   4.673   1.512
 1947WAT      O 8507   5.771   3.318   1.651
 1947WAT     H1 8508   5.766   3.389   1.703
 1947WAT     H2 8509   5.834   3.339   1.594
 1947WAT    EPW 8510   5.779   3.332   1.651
 1948WAT      O 8511   6.967   4.362   1.772
 1948WAT     H1 8512   6.963   4.399   1.851
 1948WAT     H2 8513   7.052   4.353   1.757
 1948WAT    EPW 8514   6.979   4.366   1.781
 1949WAT      O 8515   6.787   4.426   0.212
 1949WAT     H1 8516   6.728   4.489   0.228
 1949WAT     H2 8517   6.861   4.460   0.242
 1949WAT    EPW 8518   6.789   4.441   0.219
 1950WAT      O 8519   7.019   3.061   0.409
 1950WAT     H1 8520   7.085   3.004   0.408
 1950WAT     H2 8521   7.057   3.136   0.434
 1950WAT    EPW 8522   7.034   3.064   0.413
 1951WAT      O 8523   5.880   3.234   0.594
 1951WAT     H1 8524   5.857   3.152   0.573
 1951WAT     H2 8525   5.831   3.252   0.663
 1951WAT    EPW 8526   5.870   3.224   0.601
 1952WAT      O 8527   6.051   4.539   1.372
 1952WAT     H1 8528   5.991   4.476   1.364
 1952WAT     H2 8529   6.094   4.535   1.296
 1952WAT    EPW 8530   6.048   4.529   1.359
 1953WAT      O 8531   6.828   3.414   0.494
 1953WAT     H1 8532   6.751   3.378   0.476
 1953WAT     H2 8533   6.847   3.460   0.422
 1953WAT    EPW 8534   6.819   3.416   0.481
 1954WAT      O 8535   6.842   4.640   1.471
 1954WAT     H1 8536   6.914   4.645   1.421
 1954WAT     H2 8537   6.777   4.636   1.412
 1954WAT    EPW 8538   6.843   4.640   1.455
 1955WAT      O 8539   6.742   3.068   0.377
 1955WAT     H1 8540   6.718   3.146   0.346
 1955WAT     H2 8541   6.829   3.071   0.374
 1955WAT    EPW 8542   6.751   3.080   0.372
 1956WAT      O 8543   7.456   4.690   0.865
 1956WAT     H1 8544   7.464   4.767   0.824
 1956WAT     H2 8545   7.422   4.638   0.803
 1956WAT    EPW 8546   7.452   4.693   0.850
 1957WAT      O 8547   6.652   3.355   0.891
 1957WAT     H1 8548   6.676   3.423   0.841
 1957WAT     H2 8549   6.664   3.385   0.973
 1957WAT    EPW 8550   6.657   3.370   0.896
 1958WAT      O 8551   7.207   4.286   0.688
 1958WAT     H1 8552   7.280   4.239   0.687
 1958WAT     H2 8553   7.153   4.239   0.738
 1958WAT    EPW 8554   7.210   4.272   0.695
 1959WAT      O 8555   6.253   4.380   1.638
 1959WAT     H1 8556   6.330   4.413   1.615
 1959WAT     H2 8557   6.234   4.421   1.713
 1959WAT    EPW 8558   6.261   4.391   1.645
 1960WAT      O 8559   6.241   2.872   0.748
 1960WAT     H1 8560   6.261   2.955   0.730
 1960WAT     H2 8561   6.208   2.843   0.672
 1960WAT    EPW 8562   6.239   2.880   0.734
 1961WAT      O 8563   6.432   3.962   1.091
 1961WAT     H1 8564   6.456   3.942   1.172
 1961WAT     H2 8565   6.377   3.898   1.069
 1961WAT    EPW 8566   6.428   3.950   1.100
 1962WAT      O 8567   7.009   3.291   1.484
 1962WAT     H1 8568   7.001   3.329   1.563
 1962WAT     H2 8569   6.943   3.234   1.482
 1962WAT    EPW 8570   6.998   3.288   1.495
 1963WAT      O 8571   6.532   3.955   1.349
 1963WAT     H1 8572   6.517   4.041   1.359
 1963WAT     H2 8573   6.501   3.921   1.423
 1963WAT    EPW 8574   6.525   3.963   1.362
 1964WAT      O 8575   7.129   4.091   1.325
 1964WAT     H1 8576   7.071   4.043   1.369
 1964WAT     H2 8577   7.114   4.172   1.353
 1964WAT    EPW 8578   7.118   4.096   1.336
 1965WAT      O 8579   7.176   2.932   0.756
 1965WAT     H1 8580   7.174   2.916   0.842
 1965WAT     H2 8581   7.215   2.861   0.723
 1965WAT    EPW 8582   7.181   2.919   0.764
 1966WAT      O 8583   5.799   4.380   1.933
 1966WAT     H1 8584   5.851   4.423   1.988
 1966WAT     H2 8585   5.820   4.297   1.944
 1966WAT    EPW 8586   5.809   4.374   1.943
 1967WAT      O 8587   7.398   3.290   1.623
 1967WAT     H1 8588   7.425   3.367   1.592
 1967WAT     H2 8589   7.380   3.307   1.707
 1967WAT    EPW 8590   7.399   3.304   1.631
 1968WAT      O 8591   6.175   3.269   0.897
 1968WAT     H1 8592   6.210   3.217   0.837
 1968WAT     H2 8593   6.159   3.215   0.964
 1968WAT    EPW 8594   6.178   3.253   0.898
 1969WAT      O 8595   7.388   4.010   0.316
 1969WAT     H1 8596   7.419   3.980   0.392
 1969WAT     H2 8597   7.355   3.939   0.278
 1969WAT    EPW 8598   7.388   3.996   0.322
 1970WAT      O 8599   6.224   4.071   0.831
 1970WAT     H1 8600   6.296   4.047   0.788
 1970WAT     H2 8601   6.175   3.999   0.830
 1970WAT    EPW 8602   6.227   4.057   0.825
 1971WAT      O 8603   6.062   4.706   0.957
 1971WAT     H1 8604   5.991   4.663   0.932
 1971WAT     H2 8605   6.111   4.708   0.885
 1971WAT    EPW 8606   6.059   4.700   0.943
 1972WAT      O 8607   6.043   3.430   1.215
 1972WAT     H1 8608   6.124   3.456   1.197
 1972WAT     H2 8609   5.994   3.480   1.162
 1972WAT    EPW 8610   6.047   3.441   1.205
 1973WAT      O 8611   7.268   3.755   0.274
 1973WAT     H1 8612   7.197   3.730   0.230
 1973WAT     H2 8613   7.240   3.762   0.356
 1973WAT    EPW 8614   7.254   3.752   0.279
 1974WAT      O 8615   6.432   4.014   0.657
 1974WAT     H1 8616   6.490   4.073   0.630
 1974WAT     H2 8617   6.441   3.947   0.601
 1974WAT    EPW 8618   6.442   4.013   0.645
 1975WAT      O 8619   5.880   4.161   0.958
 1975WAT     H1 8620   5.825   4.220   0.991
 1975WAT     H2 8621   5.959   4.197   0.969
 1975WAT    EPW 8622   5.884   4.175   0.965
 1976WAT      O 8623   6.608   3.542   2.002
 1976WAT     H1 8624   6.558   3.573   2.066
 1976WAT     H2 8625   6.581   3.588   1.932
 1976WAT    EPW 8626   6.597   3.554   2.001
 1977WAT      O 8627   5.908   3.834   0.581
 1977WAT     H1 8628   5.885   3.750   0.586
 1977WAT     H2 8629   5.980   3.833   0.532
 1977WAT    EPW 8630   5.916   3.821   0.575
 1978WAT      O 8631   7.434   3.081   0.429
 1978WAT     H1 8632   7.448   3.018   0.371
 1978WAT     H2 8633   7.420   3.152   0.379
 1978WAT    EPW 8634   7.434   3.082   0.413
 1979WAT      O 8635   6.857   4.430   0.931
 1979WAT     H1 8636   6.811   4.503   0.915
 1979WAT     H2 8637   6.876   4.400   0.852
 1979WAT    EPW 8638   6.853   4.436   0.917
 1980WAT      O 8639   5.818   4.310   0.500
 1980WAT     H1 8640   5.871   4.365   0.541
 1980WAT     H2 8641   5.812   4.242   0.556
 1980WAT    EPW 8642   5.825   4.308   0.515
 1981WAT      O 8643   6.240   4.121   1.211
 1981WAT     H1 8644   6.293   4.161   1.268
 1981WAT     H2 8645   6.295   4.077   1.160
 1981WAT    EPW 8646   6.256   4.121   1.212
 1982WAT      O 8647   7.107   3.371   0.924
 1982WAT     H1 8648   7.136   3.325   0.993
 1982WAT     H2 8649   7.048   3.317   0.888
 1982WAT    EPW 8650   7.103   3.356   0.929
 1983WAT      O 8651   5.839   4.114   0.295
 1983WAT     H1 8652   5.920   4.082   0.290
 1983WAT     H2 8653   5.847   4.182   0.349
 1983WAT    EPW 8654   5.852   4.120   0.302
 1984WAT      O 8655   5.900   3.894   1.038
 1984WAT     H1 8656   5.952   3.870   0.973
 1984WAT     H2 8657   5.891   3.980   1.027
 1984WAT    EPW 8658   5.906   3.903   1.027
 1985WAT      O 8659   6.572   3.318   0.419
 1985WAT     H1 8660   6.517   3.254   0.395
 1985WAT     H2 8661   6.526   3.391   0.404
 1985WAT    EPW 8662   6.557   3.319   0.413
 1986WAT      O 8663   7.274   4.492   1.508
 1986WAT     H1 8664   7.266   4.568   1.549
 1986WAT     H2 8665   7.322   4.510   1.438
 1986WAT    EPW 8666   7.280   4.506   1.504
 1987WAT      O 8667   6.368   4.347   0.833
 1987WAT     H1 8668   6.378   4.427   0.867
 1987WAT     H2 8669   6.437   4.303   0.864
 1987WAT    EPW 8670   6.380   4.352   0.843
 1988WAT      O 8671   6.155   3.673   1.851
 1988WAT     H1 8672   6.119   3.611   1.900
 1988WAT     H2 8673   6.153   3.639   1.770
 1988WAT    EPW 8674   6.150   3.659   1.846
 1989WAT      O 8675   6.133   3.527   0.386
 1989WAT     H1 8676   6.142   3.464   0.445
 1989WAT     H2 8677   6.053   3.514   0.353
 1989WAT    EPW 8678   6.123   3.516   0.390
 1990WAT      O 8679   6.253   3.762   1.041
 1990WAT     H1 8680   6.243   3.730   0.960
 1990WAT     H2 8681   6.269   3.691   1.089
 1990WAT    EPW 8682   6.254   3.747   1.036
 1991WAT      O 8683   6.227   3.728   1.391
 1991WAT     H1 8684   6.252   3.677   1.325
 1991WAT     H2 8685   6.172   3.785   1.353
 1991WAT    EPW 8686   6.222   3.729   1.376
 1992WAT      O 8687   7.273   3.493   1.217
 1992WAT     H1 8688   7.202   3.513   1.264
 1992WAT     H2 8689   7.277   3.557   1.157
 1992WAT    EPW 8690   7.263   3.505   1.215
 1993WAT      O 8691   6.615   4.605   1.317
 1993WAT     H1 8692   6.593   4.545   1.258
 1993WAT     H2 8693   6.600   4.680   1.276
 1993WAT    EPW 8694   6.609   4.607   1.303
 1994WAT      O 8695   6.842   3.071   1.551
 1994WAT     H1 8696   6.867   2.990   1.529
 1994WAT     H2 8697   6.875   3.082   1.631
 1994WAT    EPW 8698   6.850   3.060   1.560
 1995WAT      O 8699   7.087   3.304   0.516
 1995WAT     H1 8700   7.141   3.369   0.539
 1995WAT     H2 8701   7.008   3.341   0.516
 1995WAT    EPW 8702   7.083   3.319   0.520
 1996WAT      O 8703   6.032   3.912   1.919
 1996WAT     H1 8704   6.027   3.953   1.842
 1996WAT     H2 8705   6.071   3.836   1.899
 1996WAT    EPW 8706   6.037   3.907   1.905
 1997WAT      O 8707   7.229   4.062   1.788
 1997WAT     H1 8708   7.232   4.147   1.772
 1997WAT     H2 8709   7.282   4.028   1.727
 1997WAT    EPW 8710   7.237   4.069   1.777
 1998WAT      O 8711   6.611   4.421   1.823
 1998WAT     H1 8712   6.639   4.413   1.906
 1998WAT     H2 8713   6.587   4.339   1.803
 1998WAT    EPW 8714   6.612   4.408   1.832
 1999WAT      O 8715   6.678   3.429   1.156
 1999WAT     H1 8716   6.741   3.488   1.164
 1999WAT     H2 8717   6.715   3.355   1.185
 1999WAT    EPW 8718   6.692   3.427   1.161
 2000WAT      O 8719   6.945   3.800   0.395
 2000WAT     H1 8720   6.955   3.877   0.357
 2000WAT     H2 8721   6.875   3.811   0.446
 2000WAT    EPW 8722   6.936   3.813   0.397
 2001WAT      O 8723   7.440   4.135   0.687
 2001WAT     H1 8724   7.483   4.124   0.762
 2001WAT     H2 8725   7.445   4.056   0.649
 2001WAT    EPW 8726   7.447   4.121   0.693
 2002WAT      O 8727   7.077   4.464   1.107
 2002WAT     H1 8728   7.007   4.441   1.060
 2002WAT     H2 8729   7.108   4.534   1.064
 2002WAT    EPW 8730   7.071   4.471   1.094
 2003WAT      O 8731   6.984   4.143   1.091
 2003WAT     H1 8732   6.914   4.179   1.128
 2003WAT     H2 8733   7.030   4.112   1.158
 2003WAT    EPW 8734   6.980   4.143   1.106
 2004WAT      O 8735   6.418   4.651   0.454
 2004WAT     H1 8736   6.434   4.583   0.506
 2004WAT     H2 8737   6.487   4.652   0.401
 2004WAT    EPW 8738   6.431   4.641   0.454
 2005WAT      O 8739   6.402   3.101   0.367
 2005WAT     H1 8740   6.394   3.019   0.395
 2005WAT     H2 8741   6.327   3.116   0.325
 2005WAT    EPW 8742   6.390   3.091   0.365
 2006WAT      O 8743   6.663   4.652   0.333
 2006WAT     H1 8744   6.702   4.632   0.407
 2006WAT     H2 8745   6.682   4.737   0.322
 2006WAT    EPW 8746   6.671   4.662   0.342
 2007WAT      O 8747   7.433   3.976   1.611
 2007WAT     H1 8748   7.419   3.902   1.567
 2007WAT     H2 8749   7.453   4.034   1.549
 2007WAT    EPW 8750   7.434   3.973   1.595
 2008WAT      O 8751   6.963   4.515   2.008
 2008WAT     H1 8752   6.995   4.534   2.086
 2008WAT     H2 8753   6.989   4.581   1.958
 2008WAT    EPW 8754   6.971   4.527   2.012
 2009WAT      O 8755   7.337   3.013   1.893
 2009WAT     H1 8756   7.321   2.968   1.820
 2009WAT     H2 8757   7.368   2.953   1.948
 2009WAT    EPW 8758   7.339   2.998   1.890
 2010WAT      O 8759   6.152   3.802   0.443
 2010WAT     H1 8760   6.146   3.716   0.427
 2010WAT     H2 8761   6.230   3.810   0.482
 2010WAT    EPW 8762   6.163   3.790   0.446
 2011WAT      O 8763   6.932   3.955   1.460
 2011WAT     H1 8764   6.881   3.993   1.520
 2011WAT     H2 8765   6.962   3.884   1.501
 2011WAT    EPW 8766   6.929   3.950   1.475
 2012WAT      O 8767   5.790   2.973   0.522
 2012WAT     H1 8768   5.797   2.916   0.456
 2012WAT     H2 8769   5.760   2.925   0.588
 2012WAT    EPW 8770   5.787   2.958   0.522
 2013WAT      O 8771   6.729   3.799   0.572
 2013WAT     H1 8772   6.747   3.861   0.629
 2013WAT     H2 8773   6.728   3.726   0.620
 2013WAT    EPW 8774   6.731   3.797   0.587
 2014WAT      O 8775   7.296   4.287   1.173
 2014WAT     H1 8776   7.231   4.324   1.128
 2014WAT     H2 8777   7.259   4.217   1.209
 2014WAT    EPW 8778   7.281   4.282   1.172
 2015WAT      O 8779   6.168   3.214   0.249
 2015WAT     H1 8780   6.110   3.183   0.192
 2015WAT     H2 8781   6.190   3.291   0.216
 2015WAT    EPW 8782   6.163   3.221   0.236
 2016WAT      O 8783   6.688   4.005   0.998
 2016WAT     H1 8784   6.605   3.985   1.017
 2016WAT     H2 8785   6.732   3.974   1.067
 2016WAT    EPW 8786   6.682   3.997   1.011
 2017WAT      O 8787   6.057   3.919   1.274
 2017WAT     H1 8788   6.109   3.987   1.257
 2017WAT     H2 8789   6.017   3.905   1.198
 2017WAT    EPW 8790   6.059   3.927   1.260
 2018WAT      O 8791   6.384   3.447   0.927
 2018WAT     H1 8792   6.461   3.410   0.910
 2018WAT     H2 8793   6.327   3.381   0.917
 2018WAT    EPW 8794   6.387   3.432   0.923
 2019WAT      O 8795   5.860   3.558   0.597
 2019WAT     H1 8796   5.896   3.521   0.668
 2019WAT     H2 8797   5.871   3.498   0.535
 2019WAT    EPW 8798   5.867   3.544   0.598
 2020WAT      O 8799   7.323   3.894   1.254
 2020WAT     H1 8800   7.334   3.842   1.322
 2020WAT     H2 8801   7.257   3.946   1.277
 2020WAT    EPW 8802   7.315   3.894   1.267
 2021WAT      O 8803   6.024   4.042   1.678
 2021WAT     H1 8804   5.981   3.994   1.620
 2021WAT     H2 8805   5.999   4.124   1.659
 2021WAT    EPW 8806   6.014   4.047   1.666
 2022WAT      O 8807   6.420   3.547   0.369
 2022WAT     H1 8808   6.436   3.627   0.400
 2022WAT     H2 8809   6.333   3.544   0.365
 2022WAT    EPW 8810   6.409   3.559   0.373
 2023WAT      O 8811   7.321   3.291   1.899
 2023WAT     H1 8812   7.239   3.308   1.923
 2023WAT     H2 8813   7.325   3.204   1.899
 2023WAT    EPW 8814   7.309   3.280   1.903
 2024WAT      O 8815   5.818   3.188   1.066
 2024WAT     H1 8816   5.803   3.214   0.985
 2024WAT     H2 8817   5.905   3.183   1.070
 2024WAT    EPW 8818   5.829   3.191   1.055
 2025WAT      O 8819   7.088   3.644   1.939
 2025WAT     H1 8820   7.134   3.653   2.013
 2025WAT     H2 8821   7.014   3.687   1.956
 2025WAT    EPW 8822   7.084   3.652   1.953
 2026WAT      O 8823   7.267   3.693   1.734
 2026WAT     H1 8824   7.338   3.722   1.776
 2026WAT     H2 8825   7.214   3.668   1.798
 2026WAT    EPW 8826   7.270   3.694   1.749
 2027WAT      O 8827   7.333   4.284   0.323
 2027WAT     H1 8828   7.358   4.201   0.313
 2027WAT     H2 8829   7.252   4.277   0.355
 2027WAT    EPW 8830   7.324   4.270   0.326
 2028WAT      O 8831   7.338   3.501   0.853
 2028WAT     H1 8832   7.271   3.454   0.882
 2028WAT     H2 8833   7.341   3.569   0.908
 2028WAT    EPW 8834   7.328   3.504   0.865
 2029WAT      O 8835   7.017   4.038   0.267
 2029WAT     H1 8836   7.060   4.094   0.319
 2029WAT     H2 8837   7.058   4.047   0.190
 2029WAT    EPW 8838   7.030   4.048   0.263
 2030WAT      O 8839   6.476   4.233   1.342
 2030WAT     H1 8840   6.477   4.287   1.410
 2030WAT     H2 8841   6.479   4.286   1.273
 2030WAT    EPW 8842   6.477   4.249   1.342
 2031WAT      O 8843   6.294   4.101   1.646
 2031WAT     H1 8844   6.213   4.073   1.661
 2031WAT     H2 8845   6.284   4.187   1.635
 2031WAT    EPW 8846   6.281   4.110   1.647
 2032WAT      O 8847   7.226   3.112   1.503
 2032WAT     H1 8848   7.286   3.164   1.540
 2032WAT     H2 8849   7.157   3.164   1.494
 2032WAT    EPW 8850   7.225   3.128   1.507
 2033WAT      O 8851   6.777   3.879   1.241
 2033WAT     H1 8852   6.831   3.907   1.303
 2033WAT     H2 8853   6.698   3.894   1.276
 2033WAT    EPW 8854   6.773   3.885   1.256
 2034WAT      O 8855   6.415   3.437   1.629
 2034WAT     H1 8856   6.430   3.358   1.661
 2034WAT     H2 8857   6.446   3.433   1.547
 2034WAT    EPW 8858   6.421   3.425   1.621
 2035WAT      O 8859   6.693   4.642   0.835
 2035WAT     H1 8860   6.692   4.727   0.855
 2035WAT     H2 8861   6.712   4.641   0.750
 2035WAT    EPW 8862   6.696   4.655   0.826
 2036WAT      O 8863   7.288   2.977   1.268
 2036WAT     H1 8864   7.279   3.016   1.345
 2036WAT     H2 8865   7.340   2.909   1.285
 2036WAT    EPW 8866   7.294   2.973   1.282
 2037WAT      O 8867   6.566   3.034   1.542
 2037WAT     H1 8868   6.652   3.048   1.535
 2037WAT     H2 8869   6.561   2.947   1.550
 2037WAT    EPW 8870   6.578   3.023   1.542
 2038WAT      O 8871   6.501   4.422   1.141
 2038WAT     H1 8872   6.452   4.477   1.094
 2038WAT     H2 8873   6.545   4.376   1.081
 2038WAT    EPW 8874   6.501   4.423   1.126
 2039WAT      O 8875   6.954   4.040   1.858
 2039WAT     H1 8876   7.034   4.042   1.825
 2039WAT     H2 8877   6.903   4.072   1.794
 2039WAT    EPW 8878   6.958   4.045   1.844
 2040WAT      O 8879   7.241   4.333   1.737
 2040WAT     H1 8880   7.295   4.368   1.797
 2040WAT     H2 8881   7.261   4.377   1.664
 2040WAT    EPW 8882   7.252   4.345   1.735
 2041WAT      O 8883   7.494   3.587   0.252
 2041WAT     H1 8884   7.548   3.628   0.198
 2041WAT     H2 8885   7.422   3.637   0.251
 2041WAT    EPW 8886   7.491   3.600   0.244
 2042WAT      O 8887   6.303   3.530   1.180
 2042WAT     H1 8888   6.334   3.499   1.105
 2042WAT     H2 8889   6.360   3.499   1.239
 2042WAT    EPW 8890   6.316   3.521   1.178
 2043WAT      O 8891   6.977   3.431   1.721
 2043WAT     H1 8892   6.923   3.498   1.734
 2043WAT     H2 8893   7.017   3.421   1.799
 2043WAT    EPW 8894   6.975   3.439   1.735
 2044WAT      O 8895   7.042   3.542   1.362
 2044WAT     H1 8896   7.041   3.595   1.431
 2044WAT     H2 8897   7.026   3.463   1.397
 2044WAT    EPW 8898   7.039   3.538   1.377
 2045WAT      O 8899   6.756   4.646   1.734
 2045WAT     H1 8900   6.778   4.633   1.651
 2045WAT     H2 8901   6.721   4.570   1.758
 2045WAT    EPW 8902   6.754   4.633   1.726
 2046WAT      O 8903   7.246   3.523   0.592
 2046WAT     H1 8904   7.262   3.513   0.677
 2046WAT     H2 8905   7.324   3.534   0.557
 2046WAT    EPW 8906   7.260   3.523   0.599
 2047WAT      O 8907   6.562   2.986   1.167
 2047WAT     H1 8908   6.477   2.983   1.185
 2047WAT     H2 8909   6.565   2.990   1.080
 2047WAT    EPW 8910   6.550   2.986   1.157
 2048WAT      O 8911   7.416   3.085   0.707
 2048WAT     H1 8912   7.333   3.062   0.722
 2048WAT     H2 8913   7.423   3.079   0.620
 2048WAT    EPW 8914   7.404   3.080   0.696
 2049WAT      O 8915   7.436   3.881   0.563
 2049WAT     H1 8916   7.480   3.805   0.563
 2049WAT     H2 8917   7.353   3.857   0.567
 2049WAT    EPW 8918   7.430   3.866   0.564
 2050WAT      O 8919   6.775   4.102   1.646
 2050WAT     H1 8920   6.699   4.102   1.689
 2050WAT     H2 8921   6.781   4.183   1.615
 2050WAT    EPW 8922   6.765   4.114   1.648
 2051WAT      O 8923   5.817   3.092   1.806
 2051WAT     H1 8924   5.809   3.167   1.761
 2051WAT     H2 8925   5.735   3.070   1.824
 2051WAT    EPW 8926   5.804   3.100   1.802
 2052WAT      O 8927   6.299   4.768   1.234
 2052WAT     H1 8928   6.296   4.751   1.320
 2052WAT     H2 8929   6.279   4.691   1.197
 2052WAT    EPW 8930   6.296   4.754   1.241
 2053WAT      O 8931   6.143   3.284   0.521
 2053WAT     H1 8932   6.143   3.250   0.441
 2053WAT     H2 8933   6.062   3.269   0.550
 2053WAT    EPW 8934   6.131   3.276   0.514
 2054WAT      O 8935   7.050   4.094   0.826
 2054WAT     H1 8936   7.029   4.114   0.909
 2054WAT     H2 8937   7.083   4.013   0.833
 2054WAT    EPW 8938   7.052   4.085   0.839
 2055WAT      O 8939   6.798   4.007   0.744
 2055WAT     H1 8940   6.760   3.999   0.823
 2055WAT     H2 8941   6.877   4.037   0.763
 2055WAT    EPW 8942   6.804   4.010   0.759
 2056WAT      O 8943   6.792   4.373   1.560
 2056WAT     H1 8944   6.844   4.372   1.631
 2056WAT     H2 8945   6.825   4.438   1.512
 2056WAT    EPW 8946   6.805   4.383   1.564
 2057WAT      O 8947   7.032   3.725   1.575
 2057WAT     H1 8948   6.967   3.703   1.628
 2057WAT     H2 8949   7.103   3.719   1.626
 2057WAT    EPW 8950   7.033   3.721   1.590
 2058WAT      O 8951   5.976   4.726   1.746
 2058WAT     H1 8952   5.921   4.661   1.729
 2058WAT     H2 8953   5.924   4.789   1.777
 2058WAT    EPW 8954   5.960   4.726   1.748
 2059WAT      O 8955   6.850   3.817   1.985
 2059WAT     H1 8956   6.881   3.889   1.948
 2059WAT     H2 8957   6.769   3.839   2.008
 2059WAT    EPW 8958   6.843   3.831   1.983
 2060WAT      O 8959   7.153   4.719   1.022
 2060WAT     H1 8960   7.092   4.776   1.047
 2060WAT     H2 8961   7.225   4.745   1.065
 2060WAT    EPW 8962   7.155   4.731   1.032
 2061WAT      O 8963   6.795   4.252   1.268
 2061WAT     H1 8964   6.718   4.237   1.307
 2061WAT     H2 8965   6.846   4.279   1.333
 2061WAT    EPW 8966   6.791   4.254   1.283
 2062WAT      O 8967   7.423   4.409   1.937
 2062WAT     H1 8968   7.504   4.388   1.911
 2062WAT     H2 8969   7.413   4.363   2.011
 2062WAT    EPW 8970   7.433   4.399   1.944
 2063WAT      O 8971   6.162   3.551   1.597
 2063WAT     H1 8972   6.178   3.611   1.535
 2063WAT     H2 8973   6.239   3.512   1.608
 2063WAT    EPW 8974   6.175   3.554   1.589
 2064WAT      O 8975   5.974   3.386   1.474
 2064WAT     H1 8976   5.992   3.398   1.389
 2064WAT     H2 8977   6.030   3.439   1.514
 2064WAT    EPW 8978   5.985   3.396   1.467
 2065WAT      O 8979   7.506   3.600   0.529
 2065WAT     H1 8980   7.518   3.583   0.445
 2065WAT     H2 8981   7.534   3.528   0.569
 2065WAT    EPW 8982   7.512   3.587   0.523
 2066WAT      O 8983   6.197   3.083   1.736
 2066WAT     H1 8984   6.170   3.000   1.738
 2066WAT     H2 8985   6.178   3.109   1.655
 2066WAT    EPW 8986   6.190   3.074   1.725
 2067WAT      O 8987   6.869   4.355   0.664
 2067WAT     H1 8988   6.850   4.435   0.633
 2067WAT     H2 8989   6.797   4.309   0.648
 2067WAT    EPW 8990   6.856   4.360   0.657
 2068WAT      O 8991   7.378   3.737   1.480
 2068WAT     H1 8992   7.423   3.666   1.454
 2068WAT     H2 8993   7.334   3.708   1.549
 2068WAT    EPW 8994   7.378   3.722   1.486
 2069WAT      O 8995   5.881   3.902   1.488
 2069WAT     H1 8996   5.931   3.913   1.417
 2069WAT     H2 8997   5.859   3.817   1.484
 2069WAT    EPW 8998   5.885   3.891   1.477
 2070WAT      O 8999   6.925   3.119   1.816
 2070WAT     H1 9000   6.955   3.191   1.855
 2070WAT     H2 9001   6.845   3.110   1.849
 2070WAT    EPW 9002   6.918   3.128   1.827
 2071WAT      O 9003   6.898   3.205   0.851
 2071WAT     H1 9004   6.818   3.241   0.850
 2071WAT     H2 9005   6.894   3.146   0.786
 2071WAT    EPW 9006   6.885   3.202   0.841
 2072WAT      O 9007   6.406   4.287   0.342
 2072WAT     H1 9008   6.429   4.328   0.416
 2072WAT     H2 9009   6.319   4.293   0.342
 2072WAT    EPW 9010   6.396   4.294   0.353
 2073WAT      O 9011   7.203   3.229   1.145
 2073WAT     H1 9012   7.252   3.166   1.180
 2073WAT     H2 9013   7.234   3.302   1.181
 2073WAT    EPW 9014   7.215   3.231   1.155
 2074WAT      O 9015   6.407   3.849   1.573
 2074WAT     H1 9016   6.368   3.923   1.599
 2074WAT     H2 9017   6.347   3.812   1.522
 2074WAT    EPW 9018   6.392   3.855   1.569
 2075WAT      O 9019   7.290   3.714   1.036
 2075WAT     H1 9020   7.307   3.775   1.097
 2075WAT     H2 9021   7.244   3.758   0.976
 2075WAT    EPW 9022   7.286   3.730   1.036
 2076WAT      O 9023   7.305   4.551   0.647
 2076WAT     H1 9024   7.267   4.476   0.671
 2076WAT     H2 9025   7.370   4.525   0.595
 2076WAT    EPW 9026   7.309   4.536   0.643
 2077WAT      O 9027   6.128   4.270   0.355
 2077WAT     H1 9028   6.124   4.252   0.441
 2077WAT     H2 9029   6.125   4.191   0.318
 2077WAT    EPW 9030   6.127   4.255   0.363
 2078WAT      O 9031   6.412   4.013   0.285
 2078WAT     H1 9032   6.327   4.012   0.264
 2078WAT     H2 9033   6.428   4.097   0.300
 2078WAT    EPW 9034   6.401   4.026   0.284
 2079WAT      O 9035   6.390   3.181   1.381
 2079WAT     H1 9036   6.309   3.161   1.406
 2079WAT     H2 9037   6.439   3.123   1.423
 2079WAT    EPW 9038   6.385   3.169   1.391
 2080WAT      O 9039   6.759   3.177   1.228
 2080WAT     H1 9040   6.695   3.118   1.222
 2080WAT     H2 9041   6.828   3.137   1.195
 2080WAT    EPW 9042   6.760   3.163   1.222
 2081WAT      O 9043   7.058   4.354   1.375
 2081WAT     H1 9044   7.115   4.402   1.421
 2081WAT     H2 9045   7.062   4.390   1.295
 2081WAT    EPW 9046   7.067   4.367   1.370
 2082WAT      O 9047   7.017   4.705   1.812
 2082WAT     H1 9048   6.940   4.678   1.782
 2082WAT     H2 9049   7.005   4.790   1.828
 2082WAT    EPW 9050   7.004   4.714   1.810
 2083WAT      O 9051   6.542   3.657   1.740
 2083WAT     H1 9052   6.503   3.587   1.707
 2083WAT     H2 9053   6.504   3.724   1.698
 2083WAT    EPW 9054   6.531   3.657   1.729
 2084WAT      O 9055   7.479   4.104   1.359
 2084WAT     H1 9056   7.445   4.038   1.313
 2084WAT     H2 9057   7.466   4.174   1.307
 2084WAT    EPW 9058   7.472   4.105   1.344
 2085WAT      O 9059   6.432   4.637   1.737
 2085WAT     H1 9060   6.415   4.639   1.823
 2085WAT     H2 9061   6.486   4.569   1.729
 2085WAT    EPW 9062   6.437   4.627   1.749
 2086WAT      O 9063   7.395   4.543   1.250
 2086WAT     H1 9064   7.460   4.558   1.194
 2086WAT     H2 9065   7.365   4.465   1.226
 2086WAT    EPW 9066   7.400   4.534   1.238
 2087WAT      O 9067   6.127   3.149   1.479
 2087WAT     H1 9068   6.073   3.084   1.459
 2087WAT     H2 9069   6.077   3.220   1.471
 2087WAT    EPW 9070   6.111   3.150   1.475
 2088WAT      O 9071   6.977   3.077   1.086
 2088WAT     H1 9072   7.040   3.130   1.113
 2088WAT     H2 9073   6.949   3.113   1.012
 2088WAT    EPW 9074   6.982   3.090   1.079
 2089WAT      O 9075   6.138   4.520   1.866
 2089WAT     H1 9076   6.208   4.553   1.907
 2089WAT     H2 9077   6.099   4.590   1.832
 2089WAT    EPW 9078   6.142   4.535   1.867
 2090WAT      O 9079   6.967   3.610   0.898
 2090WAT     H1 9080   7.015   3.538   0.907
 2090WAT     H2 9081   6.934   3.624   0.977
 2090WAT    EPW 9082   6.969   3.601   0.911
 2091WAT      O 9083   5.992   3.473   0.829
 2091WAT     H1 9084   5.949   3.497   0.901
 2091WAT     H2 9085   6.034   3.401   0.854
 2091WAT    EPW 9086   5.992   3.466   0.843
 2092WAT      O 9087   5.983   4.304   1.587
 2092WAT     H1 9088   5.933   4.368   1.619
 2092WAT     H2 9089   6.063   4.336   1.590
 2092WAT    EPW 9090   5.987   4.318   1.592
 2093WAT      O 9091   7.174   3.780   0.548
 2093WAT     H1 9092   7.186   3.695   0.561
 2093WAT     H2 9093   7.095   3.784   0.510
 2093WAT    EPW 9094   7.164   3.768   0.544
 2094WAT      O 9095   6.146   4.631   0.491
 2094WAT     H1 9096   6.105   4.606   0.418
 2094WAT     H2 9097   6.229   4.635   0.467
 2094WAT    EPW 9098   6.152   4.628   0.477
 2095WAT      O 9099   6.466   3.810   0.466
 2095WAT     H1 9100   6.464   3.870   0.402
 2095WAT     H2 9101   6.550   3.807   0.489
 2095WAT    EPW 9102   6.478   3.818   0.460
 2096WAT      O 9103   7.445   4.679   0.283
 2096WAT     H1 9104   7.475   4.615   0.335
 2096WAT     H2 9105   7.442   4.642   0.204
 2096WAT    EPW 9106   7.449   4.664   0.279
 2097WAT      O 9107   7.511   3.809   1.833
 2097WAT     H1 9108   7.585   3.779   1.799
 2097WAT     H2 9109   7.492   3.878   1.783
 2097WAT    EPW 9110   7.519   3.815   1.821
 2098WAT      O 9111   7.077   4.256   0.445
 2098WAT     H1 9112   7.110   4.263   0.526
 2098WAT     H2 9113   6.991   4.249   0.460
 2098WAT    EPW 9114   7.069   4.256   0.459
 2099WAT      O 9115   7.492   3.363   2.111
 2099WAT     H1 9116   7.505   3.447   2.096
 2099WAT     H2 9117   7.445   3.337   2.042
 2099WAT    EPW 9118   7.487   3.371   2.098
 2100WAT      O 9119   7.488   3.497   1.394
 2100WAT     H1 9120   7.424   3.487   1.335
 2100WAT     H2 9121   7.559   3.469   1.352
 2100WAT    EPW 9122   7.489   3.492   1.379
 2101WAT      O 9123   6.457   3.178   1.748
 2101WAT     H1 9124   6.492   3.140   1.677
 2101WAT     H2 9125   6.377   3.145   1.751
 2101WAT    EPW 9126   6.451   3.167   1.738
 2102WAT      O 9127   7.246   3.980   2.058
 2102WAT     H1 9128   7.325   4.001   2.088
 2102WAT     H2 9129   7.250   4.002   1.973
 2102WAT    EPW 9130   7.258   3.986   2.050
 2103WAT      O 9131   6.183   4.529   1.128
 2103WAT     H1 9132   6.172   4.451   1.092
 2103WAT     H2 9133   6.144   4.583   1.072
 2103WAT    EPW 9134   6.176   4.526   1.115
 2104WAT      O 9135   6.802   4.196   0.365
 2104WAT     H1 9136   6.848   4.142   0.315
 2104WAT     H2 9137   6.785   4.263   0.312
 2104WAT    EPW 9138   6.807   4.198   0.350
 2105WAT      O 9139   5.952   4.781   1.470
 2105WAT     H1 9140   5.966   4.763   1.554
 2105WAT     H2 9141   5.981   4.710   1.428
 2105WAT    EPW 9142   5.958   4.768   1.476
 2106WAT      O 9143   6.904   1.157   6.382
 2106WAT     H1 9144   6.896   1.198   6.305
 2106WAT     H2 9145   6.990   1.149   6.393
 2106WAT    EPW 9146   6.915   1.162   6.372
 2107WAT      O 9147   6.875   1.776   6.846
 2107WAT     H1 9148   6.845   1.855   6.870
 2107WAT     H2 9149   6.930   1.755   6.911
 2107WAT    EPW 9150   6.879   1.785   6.860
 2108WAT      O 9151   5.849   2.256   6.357
 2108WAT     H1 9152   5.800   2.255   6.430
 2108WAT     H2 9153   5.847   2.172   6.331
 2108WAT    EPW 9154   5.841   2.243   6.364
 2109WAT      O 9155   7.468   2.676   6.128
 2109WAT     H1 9156   7.544   2.666   6.170
 2109WAT     H2 9157   7.453   2.597   6.093
 2109WAT    EPW 9158   7.477   2.663   6.129
 2110WAT      O 9159   5.845   1.600   6.018
 2110WAT     H1 9160   5.780   1.646   5.984
 2110WAT     H2 9161   5.815   1.518   6.015
 2110WAT    EPW 9162   5.831   1.595   6.012
 2111WAT      O 9163   6.178   2.188   5.928
 2111WAT     H1 9164   6.140   2.147   5.860
 2111WAT     H2 9165   6.175   2.128   5.992
 2111WAT    EPW 9166   6.172   2.173   5.927
 2112WAT      O 9167   7.124   1.967   6.506
 2112WAT     H1 9168   7.133   1.958   6.420
 2112WAT     H2 9169   7.068   1.904   6.528
 2112WAT    EPW 9170   7.117   1.957   6.497
 2113WAT      O 9171   6.100   2.369   6.321
 2113WAT     H1 9172   6.154   2.330   6.377
 2113WAT     H2 9173   6.024   2.329   6.335
 2113WAT    EPW 9174   6.097   2.357   6.331
 2114WAT      O 9175   6.550   1.255   6.252
 2114WAT     H1 9176   6.550   1.327   6.203
 2114WAT     H2 9177   6.627   1.218   6.235
 2114WAT    EPW 9178   6.561   1.260   6.242
 2115WAT      O 9179   5.990   2.646   5.925
 2115WAT     H1 9180   6.036   2.654   5.851
 2115WAT     H2 9181   6.025   2.576   5.963
 2115WAT    EPW 9182   6.002   2.637   5.920
 2116WAT      O 9183   5.898   2.467   7.051
 2116WAT     H1 9184   5.924   2.444   7.131
 2116WAT     H2 9185   5.827   2.418   7.038
 2116WAT    EPW 9186   5.891   2.456   7.061
 2117WAT      O 9187   6.551   2.314   7.479
 2117WAT     H1 9188   6.559   2.267   7.552
 2117WAT     H2 9189   6.474   2.287   7.447
 2117WAT    EPW 9190   6.541   2.303   7.485
 2118WAT      O 9191   6.047   2.005   6.497
 2118WAT     H1 9192   5.998   2.006   6.425
 2118WAT     H2 9193   6.101   1.938   6.484
 2118WAT    EPW 9194   6.048   1.995   6.484
 2119WAT      O 9195   6.479   1.589   7.041
 2119WAT     H1 9196   6.547   1.595   6.987
 2119WAT     H2 9197   6.455   1.506   7.034
 2119WAT    EPW 9198   6.486   1.578   7.032
 2120WAT      O 9199   6.499   2.554   7.235
 2120WAT     H1 9200   6.475   2.629   7.198
 2120WAT     H2 9201   6.585   2.564   7.249
 2120WAT    EPW 9202   6.508   2.566   7.232
 2121WAT      O 9203   6.217   1.787   6.480
 2121WAT     H1 9204   6.284   1.736   6.503
 2121WAT     H2 9205   6.148   1.734   6.482
 2121WAT    EPW 9206   6.217   1.772   6.483
 2122WAT      O 9207   6.621   2.432   6.661
 2122WAT     H1 9208   6.645   2.350   6.675
 2122WAT     H2 9209   6.697   2.475   6.655
 2122WAT    EPW 9210   6.636   2.426   6.662
 2123WAT      O 9211   6.675   2.339   6.277
 2123WAT     H1 9212   6.707   2.274   6.325
 2123WAT     H2 9213   6.701   2.319   6.196
 2123WAT    EPW 9214   6.684   2.326   6.272
 2124WAT      O 9215   6.852   1.756   7.451
 2124WAT     H1 9216   6.770   1.765   7.424
 2124WAT     H2 9217   6.857   1.811   7.519
 2124WAT    EPW 9218   6.841   1.766   7.457
 2125WAT      O 9219   6.287   1.296   6.358
 2125WAT     H1 9220   6.249   1.355   6.306
 2125WAT     H2 9221   6.369   1.293   6.329
 2125WAT    EPW 9222   6.294   1.304   6.346
 2126WAT      O 9223   7.286   1.071   7.327
 2126WAT     H1 9224   7.269   1.145   7.284
 2126WAT     H2 9225   7.209   1.051   7.363
 2126WAT    EPW 9226   7.272   1.079   7.326
 2127WAT      O 9227   6.594   1.220   6.530
 2127WAT     H1 9228   6.603   1.304   6.552
 2127WAT     H2 9229   6.570   1.223   6.446
 2127WAT    EPW 9230   6.592   1.233   6.521
 2128WAT      O 9231   7.045   1.475   5.790
 2128WAT     H1 9232   6.997   1.539   5.825
 2128WAT     H2 9233   7.050   1.416   5.854
 2128WAT    EPW 9234   7.039   1.476   5.805
 2129WAT      O 9235   5.868   1.748   6.745
 2129WAT     H1 9236   5.869   1.835   6.756
 2129WAT     H2 9237   5.800   1.722   6.794
 2129WAT    EPW 9238   5.858   1.757   6.754
 2130WAT      O 9239   5.853   2.703   6.579
 2130WAT     H1 9240   5.789   2.751   6.545
 2130WAT     H2 9241   5.893   2.670   6.508
 2130WAT    EPW 9242   5.850   2.706   6.563
 2131WAT      O 9243   6.441   2.481   6.268
 2131WAT     H1 9244   6.410   2.480   6.349
 2131WAT     H2 9245   6.519   2.443   6.275
 2131WAT    EPW 9246   6.448   2.476   6.281
 2132WAT      O 9247   7.037   2.722   6.073
 2132WAT     H1 9248   7.101   2.782   6.075
 2132WAT     H2 9249   7.079   2.646   6.084
 2132WAT    EPW 9250   7.053   2.720   6.075
 2133WAT      O 9251   6.838   2.761   6.257
 2133WAT     H1 9252   6.860   2.835   6.297
 2133WAT     H2 9253   6.903   2.748   6.200
 2133WAT    EPW 9254   6.851   2.770   6.255
 2134WAT      O 9255   6.167   1.253   6.791
 2134WAT     H1 9256   6.116   1.188   6.761
 2134WAT     H2 9257   6.227   1.212   6.838
 2134WAT    EPW 9258   6.168   1.238   6.793
 2135WAT      O 9259   5.986   2.620   6.345
 2135WAT     H1 9260   6.035   2.549   6.354
 2135WAT     H2 9261   6.035   2.673   6.295
 2135WAT    EPW 9262   6.001   2.617   6.339
 2136WAT      O 9263   7.510   1.518   6.360
 2136WAT     H1 9264   7.471   1.563   6.424
 2136WAT     H2 9265   7.493   1.435   6.380
 2136WAT    EPW 9266   7.502   1.512   6.372
 2137WAT      O 9267   7.071   2.818   7.015
 2137WAT     H1 9268   7.132   2.877   6.994
 2137WAT     H2 9269   7.067   2.766   6.945
 2137WAT    EPW 9270   7.080   2.819   7.002
 2138WAT      O 9271   6.040   1.443   7.563
 2138WAT     H1 9272   5.971   1.390   7.558
 2138WAT     H2 9273   6.104   1.397   7.524
 2138WAT    EPW 9274   6.040   1.428   7.556
 2139WAT      O 9275   6.134   2.425   6.695
 2139WAT     H1 9276   6.193   2.414   6.631
 2139WAT     H2 9277   6.162   2.373   6.759
 2139WAT    EPW 9278   6.147   2.416   6.695
 2140WAT      O 9279   6.415   2.756   6.598
 2140WAT     H1 9280   6.496   2.773   6.571
 2140WAT     H2 9281   6.365   2.805   6.545
 2140WAT    EPW 9282   6.419   2.766   6.587
 2141WAT      O 9283   6.669   1.211   7.567
 2141WAT     H1 9284   6.684   1.137   7.524
 2141WAT     H2 9285   6.609   1.252   7.517
 2141WAT    EPW 9286   6.662   1.206   7.553
 2142WAT      O 9287   6.761   1.684   6.418
 2142WAT     H1 9288   6.792   1.643   6.348
 2142WAT     H2 9289   6.833   1.700   6.465
 2142WAT    EPW 9290   6.776   1.681   6.415
 2143WAT      O 9291   6.863   1.656   5.921
 2143WAT     H1 9292   6.887   1.736   5.947
 2143WAT     H2 9293   6.789   1.670   5.877
 2143WAT    EPW 9294   6.856   1.670   5.918
 2144WAT      O 9295   7.227   2.929   6.045
 2144WAT     H1 9296   7.274   2.893   5.980
 2144WAT     H2 9297   7.283   2.987   6.080
 2144WAT    EPW 9298   7.242   2.932   6.040
 2145WAT      O 9299   6.336   2.773   7.160
 2145WAT     H1 9300   6.342   2.798   7.243
 2145WAT     H2 9301   6.255   2.741   7.154
 2145WAT    EPW 9302   6.325   2.772   7.171
 2146WAT      O 9303   5.756   1.432   7.288
 2146WAT     H1 9304   5.752   1.494   7.349
 2146WAT     H2 9305   5.821   1.458   7.236
 2146WAT    EPW 9306   5.765   1.445   7.289
 2147WAT      O 9307   7.000   2.575   7.445
 2147WAT     H1 9308   7.016   2.659   7.465
 2147WAT     H2 9309   7.080   2.539   7.444
 2147WAT    EPW 9310   7.015   2.582   7.448
 2148WAT      O 9311   6.725   2.543   5.877
 2148WAT     H1 9312   6.693   2.603   5.931
 2148WAT     H2 9313   6.803   2.575   5.855
 2148WAT    EPW 9314   6.732   2.556   5.882
 2149WAT      O 9315   7.058   1.296   6.001
 2149WAT     H1 9316   7.112   1.227   6.003
 2149WAT     H2 9317   7.079   1.341   6.073
 2149WAT    EPW 9318   7.069   1.292   6.012
 2150WAT      O 9319   5.903   1.389   6.279
 2150WAT     H1 9320   5.879   1.307   6.262
 2150WAT     H2 9321   5.853   1.411   6.347
 2150WAT    EPW 9322   5.892   1.380   6.286
 2151WAT      O 9323   6.076   2.687   7.060
 2151WAT     H1 9324   6.021   2.620   7.062
 2151WAT     H2 9325   6.113   2.682   6.981
 2151WAT    EPW 9326   6.074   2.677   7.049
 2152WAT      O 9327   6.828   1.554   6.178
 2152WAT     H1 9328   6.758   1.505   6.161
 2152WAT     H2 9329   6.847   1.590   6.101
 2152WAT    EPW 9330   6.820   1.552   6.164
 2153WAT      O 9331   6.841   2.803   7.159
 2153WAT     H1 9332   6.917   2.804   7.117
 2153WAT     H2 9333   6.782   2.803   7.095
 2153WAT    EPW 9334   6.843   2.803   7.144
 2154WAT      O 9335   6.820   1.229   6.125
 2154WAT     H1 9336   6.764   1.211   6.061
 2154WAT     H2 9337   6.893   1.252   6.083
 2154WAT    EPW 9338   6.822   1.230   6.109
 2155WAT      O 9339   7.445   2.837   6.547
 2155WAT     H1 9340   7.455   2.913   6.504
 2155WAT     H2 9341   7.401   2.787   6.491
 2155WAT    EPW 9342   7.440   2.841   6.532
 2156WAT      O 9343   6.643   1.494   6.585
 2156WAT     H1 9344   6.672   1.558   6.534
 2156WAT     H2 9345   6.654   1.526   6.666
 2156WAT    EPW 9346   6.649   1.508   6.590
 2157WAT      O 9347   7.200   2.427   6.354
 2157WAT     H1 9348   7.270   2.376   6.363
 2157WAT     H2 9349   7.139   2.387   6.403
 2157WAT    EPW 9350   7.201   2.414   6.363
 2158WAT      O 9351   6.245   2.502   7.349
 2158WAT     H1 9352   6.322   2.527   7.316
 2158WAT     H2 9353   6.230   2.560   7.412
 2158WAT    EPW 9354   6.254   2.514   7.353
 2159WAT      O 9355   6.231   1.037   6.442
 2159WAT     H1 9356   6.248   1.119   6.419
 2159WAT     H2 9357   6.204   1.000   6.367
 2159WAT    EPW 9358   6.229   1.043   6.427
 2160WAT      O 9359   6.433   2.101   6.777
 2160WAT     H1 9360   6.458   2.082   6.858
 2160WAT     H2 9361   6.376   2.038   6.758
 2160WAT    EPW 9362   6.429   2.089   6.786
 2161WAT      O 9363   7.014   1.447   7.177
 2161WAT     H1 9364   7.012   1.471   7.261
 2161WAT     H2 9365   6.951   1.387   7.172
 2161WAT    EPW 9366   7.004   1.441   7.189
 2162WAT      O 9367   6.541   2.104   7.031
 2162WAT     H1 9368   6.524   2.190   7.037
 2162WAT     H2 9369   6.508   2.071   7.104
 2162WAT    EPW 9370   6.534   2.112   7.043
 2163WAT      O 9371   7.131   2.244   7.015
 2163WAT     H1 9372   7.076   2.193   7.060
 2163WAT     H2 9373   7.114   2.324   7.045
 2163WAT    EPW 9374   7.120   2.248   7.026
 2164WAT      O 9375   7.169   1.106   6.442
 2164WAT     H1 9376   7.166   1.083   6.526
 2164WAT     H2 9377   7.211   1.039   6.404
 2164WAT    EPW 9378   7.175   1.092   6.449
 2165WAT      O 9379   7.388   1.538   7.296
 2165WAT     H1 9380   7.439   1.516   7.364
 2165WAT     H2 9381   7.342   1.605   7.326
 2165WAT    EPW 9382   7.389   1.544   7.311
 2166WAT      O 9383   6.169   1.428   6.579
 2166WAT     H1 9384   6.197   1.375   6.516
 2166WAT     H2 9385   6.165   1.376   6.649
 2166WAT    EPW 9386   6.173   1.412   6.580
 2167WAT      O 9387   7.482   2.176   6.004
 2167WAT     H1 9388   7.462   2.129   6.075
 2167WAT     H2 9389   7.560   2.145   5.980
 2167WAT    EPW 9390   7.490   2.164   6.011
 2168WAT      O 9391   6.236   2.209   6.500
 2168WAT     H1 9392   6.291   2.175   6.442
 2168WAT     H2 9393   6.176   2.147   6.510
 2168WAT    EPW 9394   6.235   2.195   6.493
 2169WAT      O 9395   6.065   2.861   6.658
 2169WAT     H1 9396   5.991   2.822   6.634
 2169WAT     H2 9397   6.109   2.870   6.583
 2169WAT    EPW 9398   6.061   2.856   6.644
 2170WAT      O 9399   6.026   1.557   6.866
 2170WAT     H1 9400   6.110   1.581   6.862
 2170WAT     H2 9401   5.984   1.625   6.831
 2170WAT    EPW 9402   6.033   1.571   6.860
 2171WAT      O 9403   7.247   1.874   5.953
 2171WAT     H1 9404   7.244   1.955   5.922
 2171WAT     H2 9405   7.216   1.882   6.034
 2171WAT    EPW 9406   7.242   1.887   5.961
 2172WAT      O 9407   6.375   2.142   6.265
 2172WAT     H1 9408   6.407   2.221   6.248
 2172WAT     H2 9409   6.435   2.088   6.231
 2172WAT    EPW 9410   6.389   2.146   6.257
 2173WAT      O 9411   5.875   2.314   6.669
 2173WAT     H1 9412   5.825   2.377   6.704
 2173WAT     H2 9413   5.954   2.350   6.667
 2173WAT    EPW 9414   5.879   2.329   6.674
 2174WAT      O 9415   5.905   1.998   6.260
 2174WAT     H1 9416   5.889   1.913   6.261
 2174WAT     H2 9417   5.978   2.005   6.213
 2174WAT    EPW 9418   5.914   1.987   6.253
 2175WAT      O 9419   7.423   1.279   6.120
 2175WAT     H1 9420   7.489   1.271   6.064
 2175WAT     H2 9421   7.402   1.363   6.116
 2175WAT    EPW 9422   7.429   1.290   6.111
 2176WAT      O 9423   6.848   2.592   6.636
 2176WAT     H1 9424   6.802   2.663   6.616
 2176WAT     H2 9425   6.869   2.559   6.559
 2176WAT    EPW 9426   6.844   2.598   6.622
 2177WAT      O 9427   5.818   2.467   6.186
 2177WAT     H1 9428   5.871   2.522   6.228
 2177WAT     H2 9429   5.812   2.399   6.240
 2177WAT    EPW 9430   5.825   2.465   6.200
 2178WAT      O 9431   6.245   2.266   6.893
 2178WAT     H1 9432   6.299   2.307   6.948
 2178WAT     H2 9433   6.298   2.219   6.843
 2178WAT    EPW 9434   6.261   2.265   6.894
 2179WAT      O 9435   7.116   1.510   6.615
 2179WAT     H1 9436   7.148   1.470   6.686
 2179WAT     H2 9437   7.052   1.457   6.589
 2179WAT    EPW 9438   7.112   1.496   6.622
 2180WAT      O 9439   5.830   2.309   5.952
 2180WAT     H1 9440   5.905   2.264   5.949
 2180WAT     H2 9441   5.840   2.361   6.021
 2180WAT    EPW 9442   5.843   2.310   5.962
 2181WAT      O 9443   5.901   2.045   6.729
 2181WAT     H1 9444   5.951   2.025   6.661
 2181WAT     H2 9445   5.890   2.131   6.721
 2181WAT    EPW 9446   5.906   2.055   6.718
 2182WAT      O 9447   6.571   1.467   6.080
 2182WAT     H1 9448   6.563   1.442   5.997
 2182WAT     H2 9449   6.537   1.548   6.080
 2182WAT    EPW 9450   6.565   1.475   6.067
 2183WAT      O 9451   7.281   2.650   7.199
 2183WAT     H1 9452   7.270   2.730   7.231
 2183WAT     H2 9453   7.327   2.664   7.126
 2183WAT    EPW 9454   7.286   2.664   7.193
 2184WAT      O 9455   6.373   2.493   6.534
 2184WAT     H1 9456   6.378   2.577   6.556
 2184WAT     H2 9457   6.444   2.458   6.571
 2184WAT    EPW 9458   6.384   2.500   6.543
 2185WAT      O 9459   6.000   1.715   7.491
 2185WAT     H1 9460   6.018   1.638   7.527
 2185WAT     H2 9461   6.046   1.715   7.417
 2185WAT    EPW 9462   6.009   1.704   7.486
 2186WAT      O 9463   6.183   1.733   6.079
 2186WAT     H1 9464   6.167   1.667   6.134
 2186WAT     H2 9465   6.145   1.707   6.005
 2186WAT    EPW 9466   6.175   1.719   6.077
 2187WAT      O 9467   6.243   1.909   6.733
 2187WAT     H1 9468   6.235   1.881   6.651
 2187WAT     H2 9469   6.255   1.835   6.778
 2187WAT    EPW 9470   6.244   1.894   6.727
 2188WAT      O 9471   6.232   1.879   7.078
 2188WAT     H1 9472   6.255   1.827   7.012
 2188WAT     H2 9473   6.176   1.936   7.042
 2188WAT    EPW 9474   6.227   1.880   7.063
 2189WAT      O 9475   7.277   1.649   6.905
 2189WAT     H1 9476   7.206   1.670   6.952
 2189WAT     H2 9477   7.280   1.712   6.844
 2189WAT    EPW 9478   7.267   1.661   6.903
 2190WAT      O 9479   6.631   2.800   6.984
 2190WAT     H1 9480   6.593   2.730   6.950
 2190WAT     H2 9481   6.625   2.860   6.921
 2190WAT    EPW 9482   6.625   2.798   6.970
 2191WAT      O 9483   6.843   1.229   7.231
 2191WAT     H1 9484   6.861   1.146   7.208
 2191WAT     H2 9485   6.866   1.233   7.314
 2191WAT    EPW 9486   6.849   1.217   7.240
 2192WAT      O 9487   7.077   1.438   6.234
 2192WAT     H1 9488   7.129   1.506   6.248
 2192WAT     H2 9489   6.998   1.475   6.225
 2192WAT    EPW 9490   7.073   1.454   6.235
 2193WAT      O 9491   5.918   1.976   7.582
 2193WAT     H1 9492   5.964   2.033   7.535
 2193WAT     H2 9493   5.950   1.899   7.557
 2193WAT    EPW 9494   5.929   1.973   7.571
 2194WAT      O 9495   7.216   2.221   7.441
 2194WAT     H1 9496   7.230   2.307   7.442
 2194WAT     H2 9497   7.271   2.192   7.380
 2194WAT    EPW 9498   7.226   2.230   7.432
 2195WAT      O 9499   6.586   2.603   7.531
 2195WAT     H1 9500   6.600   2.592   7.616
 2195WAT     H2 9501   6.574   2.521   7.502
 2195WAT    EPW 9502   6.586   2.589   7.539
 2196WAT      O 9503   6.677   1.582   6.844
 2196WAT     H1 9504   6.740   1.642   6.850
 2196WAT     H2 9505   6.714   1.510   6.877
 2196WAT    EPW 9506   6.692   1.580   6.850
 2197WAT      O 9507   6.932   1.899   6.048
 2197WAT     H1 9508   6.908   1.951   5.983
 2197WAT     H2 9509   6.872   1.914   6.110
 2197WAT    EPW 9510   6.920   1.909   6.048
 2198WAT      O 9511   7.421   2.258   6.373
 2198WAT     H1 9512   7.460   2.243   6.449
 2198WAT     H2 9513   7.425   2.181   6.332
 2198WAT    EPW 9514   7.427   2.244   6.378
 2199WAT      O 9515   7.073   2.628   6.803
 2199WAT     H1 9516   7.002   2.605   6.758
 2199WAT     H2 9517   7.104   2.695   6.758
 2199WAT    EPW 9518   7.067   2.634   6.790
 2200WAT      O 9519   6.989   2.296   6.779
 2200WAT     H1 9520   6.919   2.333   6.815
 2200WAT     H2 9521   7.033   2.264   6.847
 2200WAT    EPW 9522   6.985   2.297   6.794
 2201WAT      O 9523   6.424   2.753   6.200
 2201WAT     H1 9524   6.430   2.675   6.238
 2201WAT     H2 9525   6.494   2.756   6.147
 2201WAT    EPW 9526   6.435   2.742   6.198
 2202WAT      O 9527   6.367   1.132   6.015
 2202WAT     H1 9528   6.384   1.134   6.100
 2202WAT     H2 9529   6.323   1.206   6.001
 2202WAT    EPW 9530   6.363   1.143   6.026
 2203WAT      O 9531   6.653   2.749   6.048
 2203WAT     H1 9532   6.713   2.757   6.112
 2203WAT     H2 9533   6.658   2.825   6.007
 2203WAT    EPW 9534   6.663   2.761   6.052
 2204WAT      O 9535   7.421   2.133   7.269
 2204WAT     H1 9536   7.406   2.060   7.223
 2204WAT     H2 9537   7.447   2.190   7.207
 2204WAT    EPW 9538   7.423   2.131   7.253
 2205WAT      O 9539   7.352   1.227   7.554
 2205WAT     H1 9540   7.338   1.172   7.488
 2205WAT     H2 9541   7.429   1.263   7.535
 2205WAT    EPW 9542   7.361   1.224   7.541
 2206WAT      O 9543   6.155   2.010   6.140
 2206WAT     H1 9544   6.173   1.925   6.130
 2206WAT     H2 9545   6.221   2.040   6.189
 2206WAT    EPW 9546   6.168   2.002   6.146
 2207WAT      O 9547   6.941   2.096   7.150
 2207WAT     H1 9548   6.887   2.139   7.203
 2207WAT     H2 9549   6.967   2.028   7.198
 2207WAT    EPW 9550   6.937   2.092   7.165
 2208WAT      O 9551   5.812   1.121   6.228
 2208WAT     H1 9552   5.811   1.065   6.161
 2208WAT     H2 9553   5.779   1.075   6.294
 2208WAT    EPW 9554   5.807   1.106   6.228
 2209WAT      O 9555   6.775   1.926   6.276
 2209WAT     H1 9556   6.785   1.992   6.332
 2209WAT     H2 9557   6.763   1.857   6.328
 2209WAT    EPW 9558   6.774   1.926   6.292
 2210WAT      O 9559   7.294   2.445   6.862
 2210WAT     H1 9560   7.230   2.480   6.814
 2210WAT     H2 9561   7.256   2.377   6.901
 2210WAT    EPW 9562   7.279   2.440   6.861
 2211WAT      O 9563   6.242   1.371   5.952
 2211WAT     H1 9564   6.180   1.366   5.891
 2211WAT     H2 9565   6.309   1.408   5.911
 2211WAT    EPW 9566   6.243   1.376   5.937
 2212WAT      O 9567   6.688   2.162   6.691
 2212WAT     H1 9568   6.607   2.137   6.709
 2212WAT     H2 9569   6.734   2.130   6.758
 2212WAT    EPW 9570   6.683   2.153   6.704
 2213WAT      O 9571   6.345   2.757   5.834
 2213WAT     H1 9572   6.370   2.689   5.881
 2213WAT     H2 9573   6.353   2.825   5.889
 2213WAT    EPW 9574   6.350   2.757   5.849
 2214WAT      O 9575   6.059   2.068   6.965
 2214WAT     H1 9576   6.111   2.136   6.947
 2214WAT     H2 9577   6.017   2.054   6.890
 2214WAT    EPW 9578   6.060   2.076   6.951
 2215WAT      O 9579   6.379   1.600   6.613
 2215WAT     H1 9580   6.456   1.561   6.600
 2215WAT     H2 9581   6.321   1.537   6.601
 2215WAT    EPW 9582   6.382   1.585   6.609
 2216WAT      O 9583   5.866   1.723   6.274
 2216WAT     H1 9584   5.901   1.683   6.343
 2216WAT     H2 9585   5.878   1.665   6.209
 2216WAT    EPW 9586   5.873   1.708   6.275
 2217WAT      O 9587   7.322   2.054   6.925
 2217WAT     H1 9588   7.332   1.998   6.991
 2217WAT     H2 9589   7.257   2.106   6.951
 2217WAT    EPW 9590   7.314   2.053   6.939
 2218WAT      O 9591   6.384   1.888   5.822
 2218WAT     H1 9592   6.360   1.841   5.892
 2218WAT     H2 9593   6.325   1.867   5.762
 2218WAT    EPW 9594   6.372   1.878   5.824
 2219WAT      O 9595   6.029   2.166   7.404
 2219WAT     H1 9596   5.996   2.121   7.337
 2219WAT     H2 9597   6.000   2.247   7.390
 2219WAT    EPW 9598   6.020   2.171   7.392
 2220WAT      O 9599   6.455   1.718   6.050
 2220WAT     H1 9600   6.484   1.792   6.088
 2220WAT     H2 9601   6.371   1.715   6.072
 2220WAT    EPW 9602   6.447   1.729   6.058
 2221WAT      O 9603   7.231   1.470   7.618
 2221WAT     H1 9604   7.203   1.468   7.701
 2221WAT     H2 9605   7.248   1.386   7.600
 2221WAT    EPW 9606   7.229   1.457   7.628
 2222WAT      O 9607   5.850   1.354   6.742
 2222WAT     H1 9608   5.829   1.388   6.664
 2222WAT     H2 9609   5.918   1.402   6.767
 2222WAT    EPW 9610   5.857   1.366   6.734
 2223WAT      O 9611   7.147   1.825   7.642
 2223WAT     H1 9612   7.194   1.897   7.659
 2223WAT     H2 9613   7.065   1.851   7.655
 2223WAT    EPW 9614   7.142   1.840   7.646
 2224WAT      O 9615   7.286   1.788   7.405
 2224WAT     H1 9616   7.357   1.833   7.427
 2224WAT     H2 9617   7.241   1.783   7.480
 2224WAT    EPW 9618   7.290   1.794   7.419
 2225WAT      O 9619   7.399   2.444   5.992
 2225WAT     H1 9620   7.426   2.362   6.006
 2225WAT     H2 9621   7.316   2.443   6.019
 2225WAT    EPW 9622   7.391   2.432   5.998
 2226WAT      O 9623   7.335   1.657   6.531
 2226WAT     H1 9624   7.273   1.604   6.563
 2226WAT     H2 9625   7.338   1.722   6.588
 2226WAT    EPW 9626   7.326   1.659   6.544
 2227WAT      O 9627   7.013   2.262   5.926
 2227WAT     H1 9628   7.087   2.215   5.920
 2227WAT     H2 9629   6.985   2.265   5.843
 2227WAT    EPW 9630   7.020   2.255   5.913
 2228WAT      O 9631   6.475   2.377   7.027
 2228WAT     H1 9632   6.476   2.423   7.101
 2228WAT     H2 9633   6.481   2.438   6.964
 2228WAT    EPW 9634   6.476   2.392   7.028
 2229WAT      O 9635   6.299   2.230   7.377
 2229WAT     H1 9636   6.221   2.197   7.396
 2229WAT     H2 9637   6.282   2.314   7.360
 2229WAT    EPW 9638   6.285   2.238   7.377
 2230WAT      O 9639   7.258   1.312   7.185
 2230WAT     H1 9640   7.306   1.377   7.218
 2230WAT     H2 9641   7.179   1.347   7.176
 2230WAT    EPW 9642   7.254   1.326   7.189
 2231WAT      O 9643   6.786   2.028   6.927
 2231WAT     H1 9644   6.842   2.053   6.990
 2231WAT     H2 9645   6.708   2.044   6.962
 2231WAT    EPW 9646   6.783   2.034   6.941
 2232WAT      O 9647   6.422   1.587   7.314
 2232WAT     H1 9648   6.444   1.508   7.343
 2232WAT     H2 9649   6.449   1.587   7.231
 2232WAT    EPW 9650   6.430   1.575   7.306
 2233WAT      O 9651   6.683   2.794   6.519
 2233WAT     H1 9652   6.687   2.881   6.525
 2233WAT     H2 9653   6.709   2.779   6.437
 2233WAT    EPW 9654   6.687   2.805   6.508
 2234WAT      O 9655   7.299   1.138   6.969
 2234WAT     H1 9656   7.296   1.186   7.042
 2234WAT     H2 9657   7.364   1.081   6.985
 2234WAT    EPW 9658   7.308   1.136   6.982
 2235WAT      O 9659   6.570   1.177   7.169
 2235WAT     H1 9660   6.652   1.205   7.174
 2235WAT     H2 9661   6.577   1.100   7.129
 2235WAT    EPW 9662   6.583   1.170   7.164
 2236WAT      O 9663   6.498   2.591   6.851
 2236WAT     H1 9664   6.435   2.631   6.806
 2236WAT     H2 9665   6.542   2.547   6.790
 2236WAT    EPW 9666   6.495   2.590   6.836
 2237WAT      O 9667   6.947   2.162   7.504
 2237WAT     H1 9668   7.029   2.183   7.481
 2237WAT     H2 9669   6.898   2.203   7.445
 2237WAT    EPW 9670   6.952   2.171   7.492
 2238WAT      O 9671   7.270   2.494   7.429
 2238WAT     H1 9672   7.330   2.531   7.480
 2238WAT     H2 9673   7.282   2.535   7.352
 2238WAT    EPW 9674   7.281   2.506   7.425
 2239WAT      O 9675   7.507   1.807   5.885
 2239WAT     H1 9676   7.516   1.855   5.814
 2239WAT     H2 9677   7.424   1.822   5.910
 2239WAT    EPW 9678   7.496   1.816   5.878
 2240WAT      O 9679   6.609   2.041   5.877
 2240WAT     H1 9680   6.539   2.000   5.846
 2240WAT     H2 9681   6.585   2.125   5.879
 2240WAT    EPW 9682   6.595   2.048   5.873
 2241WAT      O 9683   6.288   1.671   6.866
 2241WAT     H1 9684   6.322   1.645   6.790
 2241WAT     H2 9685   6.346   1.644   6.925
 2241WAT    EPW 9686   6.301   1.663   6.863
 2242WAT      O 9687   7.010   1.521   7.445
 2242WAT     H1 9688   6.963   1.593   7.461
 2242WAT     H2 9689   7.078   1.529   7.500
 2242WAT    EPW 9690   7.013   1.533   7.456
 2243WAT      O 9691   7.045   1.695   7.052
 2243WAT     H1 9692   7.042   1.748   7.121
 2243WAT     H2 9693   7.028   1.616   7.086
 2243WAT    EPW 9694   7.042   1.691   7.067
 2244WAT      O 9695   6.738   2.819   7.426
 2244WAT     H1 9696   6.753   2.806   7.341
 2244WAT     H2 9697   6.707   2.741   7.452
 2244WAT    EPW 9698   6.736   2.805   7.417
 2245WAT      O 9699   7.235   1.666   6.272
 2245WAT     H1 9700   7.259   1.663   6.356
 2245WAT     H2 9701   7.311   1.677   6.230
 2245WAT    EPW 9702   7.250   1.667   6.279
 2246WAT      O 9703   6.580   1.160   6.806
 2246WAT     H1 9704   6.498   1.144   6.830
 2246WAT     H2 9705   6.575   1.168   6.720
 2246WAT    EPW 9706   6.567   1.159   6.797
 2247WAT      O 9707   7.415   1.248   6.402
 2247WAT     H1 9708   7.332   1.226   6.418
 2247WAT     H2 9709   7.421   1.243   6.315
 2247WAT    EPW 9710   7.404   1.244   6.391
 2248WAT      O 9711   7.413   2.018   6.223
 2248WAT     H1 9712   7.452   1.940   6.221
 2248WAT     H2 9713   7.328   1.998   6.226
 2248WAT    EPW 9714   7.407   2.003   6.224
 2249WAT      O 9715   6.776   2.270   7.308
 2249WAT     H1 9716   6.701   2.271   7.353
 2249WAT     H2 9717   6.788   2.354   7.287
 2249WAT    EPW 9718   6.766   2.283   7.312
 2250WAT      O 9719   5.842   1.251   7.486
 2250WAT     H1 9720   5.812   1.304   7.423
 2250WAT     H2 9721   5.770   1.211   7.514
 2250WAT    EPW 9722   5.827   1.253   7.481
 2251WAT      O 9723   6.331   2.897   6.908
 2251WAT     H1 9724   6.339   2.866   6.989
 2251WAT     H2 9725   6.299   2.829   6.863
 2251WAT    EPW 9726   6.327   2.883   6.913
 2252WAT      O 9727   6.154   1.479   6.198
 2252WAT     H1 9728   6.168   1.443   6.119
 2252WAT     H2 9729   6.073   1.453   6.218
 2252WAT    EPW 9730   6.144   1.470   6.189
 2253WAT      O 9731   7.049   2.239   6.513
 2253WAT     H1 9732   7.031   2.261   6.595
 2253WAT     H2 9733   7.081   2.158   6.520
 2253WAT    EPW 9734   7.051   2.231   6.526
 2254WAT      O 9735   6.798   2.149   6.438
 2254WAT     H1 9736   6.759   2.148   6.516
 2254WAT     H2 9737   6.877   2.183   6.454
 2254WAT    EPW 9738   6.804   2.154   6.452
 2255WAT      O 9739   6.791   2.548   7.265
 2255WAT     H1 9740   6.852   2.549   7.327
 2255WAT     H2 9741   6.816   2.613   7.212
 2255WAT    EPW 9742   6.804   2.558   7.266
 2256WAT      O 9743   7.038   1.862   7.276
 2256WAT     H1 9744   6.975   1.830   7.328
 2256WAT     H2 9745   7.110   1.851   7.324
 2256WAT    EPW 9746   7.039   1.856   7.291
 2257WAT      O 9747   5.980   2.868   7.410
 2257WAT     H1 9748   5.921   2.804   7.402
 2257WAT     H2 9749   5.933   2.935   7.441
 2257WAT    EPW 9750   5.964   2.869   7.414
 2258WAT      O 9751   6.890   1.941   7.655
 2258WAT     H1 9752   6.908   2.013   7.610
 2258WAT     H2 9753   6.823   1.964   7.706
 2258WAT    EPW 9754   6.883   1.955   7.656
 2259WAT      O 9755   7.151   2.878   6.707
 2259WAT     H1 9756   7.095   2.935   6.742
 2259WAT     H2 9757   7.228   2.902   6.741
 2259WAT    EPW 9758   7.154   2.890   6.717
 2260WAT      O 9759   6.805   2.405   6.963
 2260WAT     H1 9760   6.732   2.388   7.008
 2260WAT     H2 9761   6.859   2.437   7.023
 2260WAT    EPW 9762   6.802   2.407   6.979
 2261WAT      O 9763   6.159   1.680   7.261
 2261WAT     H1 9764   6.179   1.749   7.210
 2261WAT     H2 9765   6.237   1.650   7.285
 2261WAT    EPW 9766   6.174   1.686   7.257
 2262WAT      O 9767   5.968   1.524   7.132
 2262WAT     H1 9768   5.984   1.534   7.047
 2262WAT     H2 9769   6.025   1.578   7.170
 2262WAT    EPW 9770   5.979   1.533   7.125
 2263WAT      O 9771   7.491   1.744   6.183
 2263WAT     H1 9772   7.523   1.733   6.102
 2263WAT     H2 9773   7.523   1.676   6.227
 2263WAT    EPW 9774   7.500   1.732   6.178
 2264WAT      O 9775   6.201   1.254   7.415
 2264WAT     H1 9776   6.159   1.178   7.429
 2264WAT     H2 9777   6.180   1.274   7.333
 2264WAT    EPW 9778   6.192   1.246   7.405
 2265WAT      O 9779   6.875   2.508   6.375
 2265WAT     H1 9780   6.864   2.584   6.332
 2265WAT     H2 9781   6.811   2.458   6.343
 2265WAT    EPW 9782   6.864   2.512   6.364
 2266WAT      O 9783   7.365   1.892   7.147
 2266WAT     H1 9784   7.420   1.829   7.121
 2266WAT     H2 9785   7.320   1.853   7.211
 2266WAT    EPW 9786   7.367   1.877   7.153
 2267WAT      O 9787   5.907   2.033   7.196
 2267WAT     H1 9788   5.949   2.048   7.120
 2267WAT     H2 9789   5.884   1.949   7.190
 2267WAT    EPW 9790   5.910   2.023   7.184
 2268WAT      O 9791   6.057   1.634   5.844
 2268WAT     H1 9792   5.985   1.630   5.892
 2268WAT     H2 9793   6.061   1.556   5.805
 2268WAT    EPW 9794   6.047   1.622   5.845
 2269WAT      O 9795   6.930   1.258   7.493
 2269WAT     H1 9796   6.951   1.343   7.489
 2269WAT     H2 9797   6.852   1.258   7.533
 2269WAT    EPW 9798   6.921   1.271   7.499
 2270WAT      O 9799   6.891   1.350   6.580
 2270WAT     H1 9800   6.813   1.389   6.580
 2270WAT     H2 9801   6.885   1.291   6.517
 2270WAT    EPW 9802   6.879   1.347   6.571
 2271WAT      O 9803   6.380   2.518   5.988
 2271WAT     H1 9804   6.414   2.515   6.069
 2271WAT     H2 9805   6.296   2.496   6.001
 2271WAT    EPW 9806   6.372   2.515   6.002
 2272WAT      O 9807   7.213   1.384   6.842
 2272WAT     H1 9808   7.266   1.323   6.875
 2272WAT     H2 9809   7.244   1.458   6.875
 2272WAT    EPW 9810   7.225   1.386   6.852
 2273WAT      O 9811   6.417   2.002   7.254
 2273WAT     H1 9812   6.376   2.069   7.291
 2273WAT     H2 9813   6.354   1.963   7.207
 2273WAT    EPW 9814   6.402   2.006   7.253
 2274WAT      O 9815   7.286   1.866   6.717
 2274WAT     H1 9816   7.304   1.929   6.775
 2274WAT     H2 9817   7.239   1.906   6.656
 2274WAT    EPW 9818   7.282   1.881   6.717
 2275WAT      O 9819   7.286   2.702   6.345
 2275WAT     H1 9820   7.255   2.621   6.356
 2275WAT     H2 9821   7.336   2.696   6.274
 2275WAT    EPW 9822   7.289   2.689   6.336
 2276WAT      O 9823   6.123   2.431   6.046
 2276WAT     H1 9824   6.120   2.412   6.131
 2276WAT     H2 9825   6.138   2.354   6.008
 2276WAT    EPW 9826   6.125   2.417   6.053
 2277WAT      O 9827   6.442   2.275   5.855
 2277WAT     H1 9828   6.364   2.240   5.871
 2277WAT     H2 9829   6.438   2.353   5.893
 2277WAT    EPW 9830   6.430   2.281   5.863
 2278WAT      O 9831   6.386   1.337   7.031
 2278WAT     H1 9832   6.307   1.318   7.064
 2278WAT     H2 9833   6.439   1.280   7.070
 2278WAT    EPW 9834   6.382   1.326   7.041
 2279WAT      O 9835   6.759   1.335   6.929
 2279WAT     H1 9836   6.697   1.283   6.897
 2279WAT     H2 9837   6.833   1.295   6.907
 2279WAT    EPW 9838   6.760   1.322   6.921
 2280WAT      O 9839   7.061   2.508   7.068
 2280WAT     H1 9840   7.115   2.557   7.116
 2280WAT     H2 9841   7.065   2.544   6.988
 2280WAT    EPW 9842   7.070   2.520   7.063
 2281WAT      O 9843   7.010   2.858   7.467
 2281WAT     H1 9844   6.925   2.841   7.457
 2281WAT     H2 9845   7.011   2.940   7.498
 2281WAT    EPW 9846   6.998   2.868   7.470
 2282WAT      O 9847   6.587   1.806   7.377
 2282WAT     H1 9848   6.536   1.737   7.367
 2282WAT     H2 9849   6.541   1.871   7.342
 2282WAT    EPW 9850   6.573   1.806   7.370
 2283WAT      O 9851   6.634   1.152   5.939
 2283WAT     H1 9852   6.644   1.164   5.853
 2283WAT     H2 9853   6.548   1.156   5.950
 2283WAT    EPW 9854   6.623   1.155   5.928
 2284WAT      O 9855   7.479   2.266   7.026
 2284WAT     H1 9856   7.448   2.199   6.979
 2284WAT     H2 9857   7.463   2.335   6.976
 2284WAT    EPW 9858   7.472   2.266   7.012
 2285WAT      O 9859   6.416   2.812   7.432
 2285WAT     H1 9860   6.463   2.885   7.443
 2285WAT     H2 9861   6.469   2.749   7.459
 2285WAT    EPW 9862   6.431   2.813   7.437
 2286WAT      O 9863   7.398   2.698   6.940
 2286WAT     H1 9864   7.464   2.712   6.885
 2286WAT     H2 9865   7.365   2.622   6.914
 2286WAT    EPW 9866   7.403   2.689   6.928
 2287WAT      O 9867   6.135   1.301   7.153
 2287WAT     H1 9868   6.081   1.236   7.132
 2287WAT     H2 9869   6.086   1.372   7.142
 2287WAT    EPW 9870   6.120   1.302   7.148
 2288WAT      O 9871   6.986   1.226   6.810
 2288WAT     H1 9872   7.051   1.281   6.832
 2288WAT     H2 9873   6.954   1.261   6.737
 2288WAT    EPW 9874   6.991   1.240   6.803
 2289WAT      O 9875   6.178   2.704   7.526
 2289WAT     H1 9876   6.251   2.751   7.511
 2289WAT     H2 9877   6.114   2.756   7.497
 2289WAT    EPW 9878   6.180   2.719   7.519
 2290WAT      O 9879   6.972   1.747   6.587
 2290WAT     H1 9880   7.023   1.677   6.598
 2290WAT     H2 9881   6.940   1.763   6.666
 2290WAT    EPW 9882   6.975   1.739   6.600
 2291WAT      O 9883   5.990   1.636   6.511
 2291WAT     H1 9884   5.946   1.662   6.582
 2291WAT     H2 9885   6.028   1.562   6.537
 2291WAT    EPW 9886   5.989   1.629   6.525
 2292WAT      O 9887   5.973   2.433   7.317
 2292WAT     H1 9888   5.924   2.500   7.344
 2292WAT     H2 9889   6.054   2.464   7.322
 2292WAT    EPW 9890   5.978   2.448   7.321
 2293WAT      O 9891   7.150   1.919   6.223
 2293WAT     H1 9892   7.165   1.835   6.240
 2293WAT     H2 9893   7.075   1.918   6.178
 2293WAT    EPW 9894   7.141   1.907   6.219
 2294WAT      O 9895   6.149   2.770   6.176
 2294WAT     H1 9896   6.120   2.763   6.094
 2294WAT     H2 9897   6.235   2.759   6.168
 2294WAT    EPW 9898   6.157   2.768   6.163
 2295WAT      O 9899   6.543   1.965   6.136
 2295WAT     H1 9900   6.571   1.997   6.059
 2295WAT     H2 9901   6.617   1.955   6.182
 2295WAT    EPW 9902   6.558   1.969   6.131
 2296WAT      O 9903   7.414   2.806   5.880
 2296WAT     H1 9904   7.443   2.775   5.956
 2296WAT     H2 9905   7.409   2.735   5.830
 2296WAT    EPW 9906   7.418   2.791   5.884
 2297WAT      O 9907   7.499   1.965   7.478
 2297WAT     H1 9908   7.585   1.962   7.488
 2297WAT     H2 9909   7.488   2.027   7.416
 2297WAT    EPW 9910   7.510   1.974   7.470
 2298WAT      O 9911   7.141   2.464   6.085
 2298WAT     H1 9912   7.143   2.442   6.169
 2298WAT     H2 9913   7.089   2.404   6.049
 2298WAT    EPW 9914   7.133   2.452   6.092
 2299WAT      O 9915   7.501   1.489   7.546
 2299WAT     H1 9916   7.549   1.544   7.594
 2299WAT     H2 9917   7.421   1.497   7.579
 2299WAT    EPW 9918   7.496   1.498   7.558
 2300WAT      O 9919   7.501   1.667   7.072
 2300WAT     H1 9920   7.441   1.650   7.011
 2300WAT     H2 9921   7.478   1.614   7.138
 2300WAT    EPW 9922   7.489   1.656   7.073
 2301WAT      O 9923   6.473   1.314   7.393
 2301WAT     H1 9924   6.495   1.272   7.320
 2301WAT     H2 9925   6.389   1.293   7.405
 2301WAT    EPW 9926   6.464   1.305   7.384
 2302WAT      O 9927   7.298   2.056   7.655
 2302WAT     H1 9928   7.372   2.031   7.616
 2302WAT     H2 9929   7.265   2.116   7.601
 2302WAT    EPW 9930   7.304   2.061   7.642
 2303WAT      O 9931   6.191   2.670   6.809
 2303WAT     H1 9932   6.175   2.593   6.772
 2303WAT     H2 9933   6.149   2.726   6.756
 2303WAT    EPW 9934   6.182   2.667   6.796
 2304WAT      O 9935   6.751   2.300   6.016
 2304WAT     H1 9936   6.833   2.280   5.996
 2304WAT     H2 9937   6.736   2.372   5.969
 2304WAT    EPW 9938   6.761   2.307   6.006
 2305WAT      O 9939   5.946   2.923   7.139
 2305WAT     H1 9940   5.958   2.906   7.224
 2305WAT     H2 9941   5.980   2.853   7.100
 2305WAT    EPW 9942   5.953   2.910   7.146
 2306WAT      O 9943   6.906   1.157   4.485
 2306WAT     H1 9944   6.898   1.198   4.408
 2306WAT     H2 9945   6.992   1.150   4.496
 2306WAT    EPW 9946   6.917   1.162   4.475
 2307WAT      O 9947   6.873   1.775   4.954
 2307WAT     H1 9948   6.842   1.853   4.978
 2307WAT     H2 9949   6.929   1.755   5.018
 2307WAT    EPW 9950   6.877   1.783   4.967
 2308WAT      O 9951   5.834   2.249   4.449
 2308WAT     H1 9952   5.772   2.244   4.510
 2308WAT     H2 9953   5.843   2.166   4.422
 2308WAT    EPW 9954   5.826   2.236   4.454
 2309WAT      O 9955   7.461   2.684   4.234
 2309WAT     H1 9956   7.527   2.683   4.290
 2309WAT     H2 9957   7.457   2.602   4.205
 2309WAT    EPW 9958   7.470   2.672   4.238
 2310WAT      O 9959   5.853   1.592   4.123
 2310WAT     H1 9960   5.797   1.654   4.097
 2310WAT     H2 9961   5.809   1.518   4.109
 2310WAT    EPW 9962   5.838   1.590   4.117
 2311WAT      O 9963   6.185   2.192   4.019
 2311WAT     H1 9964   6.148   2.162   3.947
 2311WAT     H2 9965   6.176   2.127   4.076
 2311WAT    EPW 9966   6.178   2.178   4.017
 2312WAT      O 9967   7.127   1.968   4.615
 2312WAT     H1 9968   7.134   1.961   4.528
 2312WAT     H2 9969   7.069   1.906   4.635
 2312WAT    EPW 9970   7.119   1.958   4.605
 2313WAT      O 9971   6.088   2.363   4.420
 2313WAT     H1 9972   6.142   2.326   4.478
 2313WAT     H2 9973   6.012   2.324   4.436
 2313WAT    EPW 9974   6.085   2.352   4.431
 2314WAT      O 9975   6.561   1.268   4.369
 2314WAT     H1 9976   6.555   1.338   4.317
 2314WAT     H2 9977   6.638   1.234   4.348
 2314WAT    EPW 9978   6.571   1.274   4.358
 2315WAT      O 9979   5.960   2.624   4.006
 2315WAT     H1 9980   6.015   2.642   3.940
 2315WAT     H2 9981   6.005   2.567   4.055
 2315WAT    EPW 9982   5.975   2.618   4.003
 2316WAT      O 9983   5.882   2.479   5.150
 2316WAT     H1 9984   5.912   2.456   5.229
 2316WAT     H2 9985   5.811   2.429   5.140
 2316WAT    EPW 9986   5.876   2.468   5.160
 2317WAT      O 9987   6.533   2.300   5.589
 2317WAT     H1 9988   6.511   2.288   5.673
 2317WAT     H2 9989   6.460   2.279   5.546
 2317WAT    EPW 9990   6.519   2.295   5.595
 2318WAT      O 9991   6.042   2.002   4.602
 2318WAT     H1 9992   5.994   2.003   4.529
 2318WAT     H2 9993   6.097   1.936   4.589
 2318WAT    EPW 9994   6.043   1.993   4.589
 2319WAT      O 9995   6.480   1.588   5.152
 2319WAT     H1 9996   6.548   1.591   5.097
 2319WAT     H2 9997   6.456   1.504   5.148
 2319WAT    EPW 9998   6.487   1.576   5.143
 2320WAT      O 9999   6.506   2.571   5.328
 2320WAT     H110000   6.499   2.646   5.284
 2320WAT     H210001   6.591   2.565   5.345
 2320WAT    EPW10002   6.518   2.581   5.324
 2321WAT      O10003   6.216   1.787   4.589
 2321WAT     H110004   6.282   1.735   4.613
 2321WAT     H210005   6.147   1.734   4.589
 2321WAT    EPW10006   6.216   1.772   4.593
 2322WAT      O10007   6.628   2.423   4.754
 2322WAT     H110008   6.653   2.341   4.770
 2322WAT     H210009   6.704   2.466   4.748
 2322WAT    EPW10010   6.643   2.417   4.755
 2323WAT      O10011   6.691   2.343   4.378
 2323WAT     H110012   6.718   2.276   4.427
 2323WAT     H210013   6.713   2.319   4.297
 2323WAT    EPW10014   6.698   2.329   4.374
 2324WAT      O10015   6.826   1.819   5.541
 2324WAT     H110016   6.740   1.815   5.523
 2324WAT     H210017   6.829   1.866   5.615
 2324WAT    EPW10018   6.814   1.826   5.549
 2325WAT      O10019   6.291   1.293   4.462
 2325WAT     H110020   6.253   1.351   4.409
 2325WAT     H210021   6.374   1.293   4.436
 2325WAT    EPW10022   6.298   1.301   4.450
 2326WAT      O10023   7.256   1.042   5.459
 2326WAT     H110024   7.242   1.115   5.413
 2326WAT     H210025   7.180   1.029   5.499
 2326WAT    EPW10026   7.242   1.051   5.458
 2327WAT      O10027   6.597   1.215   4.648
 2327WAT     H110028   6.605   1.298   4.673
 2327WAT     H210029   6.574   1.220   4.564
 2327WAT    EPW10030   6.595   1.228   4.640
 2328WAT      O10031   7.046   1.474   3.890
 2328WAT     H110032   7.000   1.539   3.925
 2328WAT     H210033   7.051   1.415   3.953
 2328WAT    EPW10034   7.040   1.475   3.904
 2329WAT      O10035   5.870   1.743   4.852
 2329WAT     H110036   5.870   1.830   4.861
 2329WAT     H210037   5.803   1.717   4.901
 2329WAT    EPW10038   5.860   1.752   4.861
 2330WAT      O10039   5.854   2.702   4.671
 2330WAT     H110040   5.791   2.751   4.636
 2330WAT     H210041   5.894   2.668   4.602
 2330WAT    EPW10042   5.851   2.704   4.656
 2331WAT      O10043   6.440   2.452   4.358
 2331WAT     H110044   6.410   2.457   4.440
 2331WAT     H210045   6.521   2.421   4.368
 2331WAT    EPW10046   6.448   2.448   4.372
 2332WAT      O10047   7.032   2.715   4.172
 2332WAT     H110048   7.095   2.776   4.175
 2332WAT     H210049   7.075   2.641   4.186
 2332WAT    EPW10050   7.048   2.713   4.175
 2333WAT      O10051   6.837   2.763   4.358
 2333WAT     H110052   6.860   2.837   4.398
 2333WAT     H210053   6.901   2.749   4.300
 2333WAT    EPW10054   6.850   2.772   4.355
 2334WAT      O10055   6.159   1.257   4.891
 2334WAT     H110056   6.109   1.192   4.862
 2334WAT     H210057   6.218   1.217   4.942
 2334WAT    EPW10058   6.161   1.242   4.895
 2335WAT      O10059   6.475   1.451   5.807
 2335WAT     H110060   6.476   1.414   5.728
 2335WAT     H210061   6.516   1.527   5.796
 2335WAT    EPW10062   6.481   1.456   5.794
 2336WAT      O10063   5.981   2.617   4.434
 2336WAT     H110064   6.028   2.544   4.443
 2336WAT     H210065   6.034   2.671   4.390
 2336WAT    EPW10066   5.996   2.614   4.429
 2337WAT      O10067   7.513   1.523   4.466
 2337WAT     H110068   7.473   1.566   4.530
 2337WAT     H210069   7.494   1.440   4.482
 2337WAT    EPW10070   7.504   1.517   4.478
 2338WAT      O10071   7.062   2.811   5.113
 2338WAT     H110072   7.124   2.870   5.095
 2338WAT     H210073   7.060   2.761   5.042
 2338WAT    EPW10074   7.071   2.812   5.100
 2339WAT      O10075   6.054   1.370   5.743
 2339WAT     H110076   5.972   1.345   5.725
 2339WAT     H210077   6.101   1.338   5.678
 2339WAT    EPW10078   6.049   1.362   5.731
 2340WAT      O10079   6.146   2.433   4.800
 2340WAT     H110080   6.202   2.420   4.735
 2340WAT     H210081   6.175   2.380   4.863
 2340WAT    EPW10082   6.158   2.423   4.800
 2341WAT      O10083   6.421   2.744   4.711
 2341WAT     H110084   6.500   2.763   4.680
 2341WAT     H210085   6.367   2.794   4.664
 2341WAT    EPW10086   6.424   2.754   4.700
 2342WAT      O10087   6.667   1.182   5.668
 2342WAT     H110088   6.683   1.110   5.622
 2342WAT     H210089   6.600   1.219   5.626
 2342WAT    EPW10090   6.660   1.177   5.655
 2343WAT      O10091   6.761   1.683   4.524
 2343WAT     H110092   6.792   1.642   4.454
 2343WAT     H210093   6.833   1.701   4.571
 2343WAT    EPW10094   6.776   1.679   4.521
 2344WAT      O10095   6.868   1.656   4.024
 2344WAT     H110096   6.891   1.736   4.050
 2344WAT     H210097   6.794   1.669   3.979
 2344WAT    EPW10098   6.861   1.670   4.021
 2345WAT      O10099   7.220   2.922   4.145
 2345WAT     H110100   7.267   2.888   4.081
 2345WAT     H210101   7.276   2.976   4.186
 2345WAT    EPW10102   7.235   2.925   4.142
 2346WAT      O10103   6.320   2.806   5.293
 2346WAT     H110104   6.338   2.802   5.379
 2346WAT     H210105   6.246   2.761   5.285
 2346WAT    EPW10106   6.312   2.799   5.305
 2347WAT      O10107   5.781   1.477   5.460
 2347WAT     H110108   5.776   1.552   5.505
 2347WAT     H210109   5.838   1.495   5.397
 2347WAT    EPW10110   5.789   1.491   5.457
 2348WAT      O10111   6.961   2.515   5.568
 2348WAT     H110112   6.958   2.551   5.648
 2348WAT     H210113   7.047   2.504   5.554
 2348WAT    EPW10114   6.974   2.519   5.578
 2349WAT      O10115   6.729   2.539   3.980
 2349WAT     H110116   6.697   2.601   4.033
 2349WAT     H210117   6.807   2.570   3.957
 2349WAT    EPW10118   6.736   2.553   3.984
 2350WAT      O10119   7.056   1.295   4.101
 2350WAT     H110120   7.110   1.227   4.103
 2350WAT     H210121   7.078   1.341   4.172
 2350WAT    EPW10122   7.067   1.292   4.112
 2351WAT      O10123   5.909   1.384   4.390
 2351WAT     H110124   5.880   1.305   4.368
 2351WAT     H210125   5.858   1.407   4.457
 2351WAT    EPW10126   5.897   1.376   4.397
 2352WAT      O10127   6.070   2.692   5.179
 2352WAT     H110128   6.009   2.630   5.176
 2352WAT     H210129   6.107   2.689   5.100
 2352WAT    EPW10130   6.066   2.682   5.167
 2353WAT      O10131   6.828   1.556   4.281
 2353WAT     H110132   6.756   1.509   4.264
 2353WAT     H210133   6.848   1.592   4.204
 2353WAT    EPW10134   6.820   1.555   4.267
 2354WAT      O10135   6.841   2.796   5.270
 2354WAT     H110136   6.914   2.799   5.221
 2354WAT     H210137   6.777   2.794   5.210
 2354WAT    EPW10138   6.842   2.796   5.254
 2355WAT      O10139   6.819   1.231   4.229
 2355WAT     H110140   6.762   1.212   4.166
 2355WAT     H210141   6.891   1.253   4.186
 2355WAT    EPW10142   6.821   1.231   4.214
 2356WAT      O10143   7.506   2.820   4.545
 2356WAT     H110144   7.489   2.905   4.540
 2356WAT     H210145   7.428   2.782   4.532
 2356WAT    EPW10146   7.492   2.827   4.542
 2357WAT      O10147   6.643   1.492   4.694
 2357WAT     H110148   6.671   1.557   4.642
 2357WAT     H210149   6.654   1.525   4.774
 2357WAT    EPW10150   6.649   1.507   4.698
 2358WAT      O10151   7.201   2.424   4.459
 2358WAT     H110152   7.270   2.372   4.469
 2358WAT     H210153   7.140   2.387   4.509
 2358WAT    EPW10154   7.202   2.411   4.468
 2359WAT      O10155   6.249   2.526   5.454
 2359WAT     H110156   6.326   2.555   5.423
 2359WAT     H210157   6.238   2.574   5.527
 2359WAT    EPW10158   6.259   2.538   5.460
 2360WAT      O10159   6.231   1.034   4.546
 2360WAT     H110160   6.250   1.116   4.523
 2360WAT     H210161   6.203   0.999   4.471
 2360WAT    EPW10162   6.230   1.041   4.531
 2361WAT      O10163   6.434   2.100   4.886
 2361WAT     H110164   6.457   2.080   4.968
 2361WAT     H210165   6.376   2.039   4.866
 2361WAT    EPW10166   6.429   2.088   4.895
 2362WAT      O10167   7.015   1.450   5.285
 2362WAT     H110168   7.008   1.488   5.363
 2362WAT     H210169   6.949   1.393   5.283
 2362WAT    EPW10170   7.004   1.447   5.296
 2363WAT      O10171   6.533   2.098   5.144
 2363WAT     H110172   6.523   2.185   5.152
 2363WAT     H210173   6.502   2.067   5.219
 2363WAT    EPW10174   6.527   2.106   5.156
 2364WAT      O10175   7.127   2.245   5.125
 2364WAT     H110176   7.068   2.196   5.167
 2364WAT     H210177   7.110   2.326   5.153
 2364WAT    EPW10178   7.116   2.250   5.135
 2365WAT      O10179   7.172   1.110   4.543
 2365WAT     H110180   7.170   1.087   4.627
 2365WAT     H210181   7.212   1.044   4.504
 2365WAT    EPW10182   7.178   1.097   4.550
 2366WAT      O10183   5.787   2.523   5.766
 2366WAT     H110184   5.846   2.568   5.811
 2366WAT     H210185   5.791   2.443   5.801
 2366WAT    EPW10186   5.796   2.518   5.778
 2367WAT      O10187   7.401   1.450   5.429
 2367WAT     H110188   7.428   1.528   5.399
 2367WAT     H210189   7.381   1.467   5.513
 2367WAT    EPW10190   7.402   1.464   5.437
 2368WAT      O10191   6.166   1.429   4.678
 2368WAT     H110192   6.195   1.377   4.615
 2368WAT     H210193   6.162   1.376   4.748
 2368WAT    EPW10194   6.170   1.413   4.679
 2369WAT      O10195   7.482   2.176   4.106
 2369WAT     H110196   7.462   2.128   4.176
 2369WAT     H210197   7.562   2.148   4.084
 2369WAT    EPW10198   7.491   2.165   4.113
 2370WAT      O10199   6.231   2.207   4.599
 2370WAT     H110200   6.282   2.175   4.536
 2370WAT     H210201   6.171   2.145   4.610
 2370WAT    EPW10202   6.230   2.193   4.591
 2371WAT      O10203   6.057   2.863   4.768
 2371WAT     H110204   5.985   2.822   4.738
 2371WAT     H210205   6.106   2.872   4.696
 2371WAT    EPW10206   6.053   2.858   4.753
 2372WAT      O10207   6.027   1.565   4.996
 2372WAT     H110208   6.111   1.587   4.985
 2372WAT     H210209   5.984   1.627   4.952
 2372WAT    EPW10210   6.033   1.577   4.988
 2373WAT      O10211   7.247   1.874   4.056
 2373WAT     H110212   7.244   1.955   4.024
 2373WAT     H210213   7.214   1.883   4.137
 2373WAT    EPW10214   7.242   1.887   4.063
 2374WAT      O10215   6.357   2.147   4.354
 2374WAT     H110216   6.383   2.228   4.336
 2374WAT     H210217   6.423   2.097   4.324
 2374WAT    EPW10218   6.371   2.151   4.347
 2375WAT      O10219   5.886   2.319   4.793
 2375WAT     H110220   5.833   2.383   4.818
 2375WAT     H210221   5.963   2.357   4.786
 2375WAT    EPW10222   5.889   2.334   4.796
 2376WAT      O10223   6.610   1.696   5.787
 2376WAT     H110224   6.555   1.737   5.840
 2376WAT     H210225   6.596   1.733   5.709
 2376WAT    EPW10226   6.600   1.708   5.783
 2377WAT      O10227   5.906   1.994   4.361
 2377WAT     H110228   5.885   1.909   4.361
 2377WAT     H210229   5.977   1.998   4.311
 2377WAT    EPW10230   5.913   1.982   4.354
 2378WAT      O10231   7.419   1.283   4.217
 2378WAT     H110232   7.487   1.279   4.162
 2378WAT     H210233   7.394   1.367   4.211
 2378WAT    EPW10234   7.425   1.295   4.208
 2379WAT      O10235   6.852   2.589   4.735
 2379WAT     H110236   6.805   2.659   4.716
 2379WAT     H210237   6.876   2.559   4.656
 2379WAT    EPW10238   6.849   2.595   4.720
 2380WAT      O10239   5.801   2.465   4.284
 2380WAT     H110240   5.854   2.522   4.322
 2380WAT     H210241   5.799   2.398   4.340
 2380WAT    EPW10242   5.808   2.464   4.298
 2381WAT      O10243   6.252   2.272   5.001
 2381WAT     H110244   6.307   2.313   5.055
 2381WAT     H210245   6.305   2.223   4.952
 2381WAT    EPW10246   6.268   2.271   5.002
 2382WAT      O10247   7.118   1.512   4.721
 2382WAT     H110248   7.150   1.471   4.791
 2382WAT     H210249   7.054   1.460   4.693
 2382WAT    EPW10250   7.113   1.498   4.727
 2383WAT      O10251   5.801   2.294   4.064
 2383WAT     H110252   5.874   2.247   4.066
 2383WAT     H210253   5.812   2.352   4.127
 2383WAT    EPW10254   5.813   2.295   4.073
 2384WAT      O10255   5.903   2.047   4.838
 2384WAT     H110256   5.950   2.026   4.768
 2384WAT     H210257   5.895   2.134   4.832
 2384WAT    EPW10258   5.909   2.057   4.827
 2385WAT      O10259   6.569   1.474   4.184
 2385WAT     H110260   6.561   1.445   4.102
 2385WAT     H210261   6.535   1.554   4.181
 2385WAT    EPW10262   6.563   1.482   4.172
 2386WAT      O10263   7.271   2.643   5.317
 2386WAT     H110264   7.265   2.721   5.357
 2386WAT     H210265   7.321   2.661   5.247
 2386WAT    EPW10266   7.278   2.657   5.312
 2387WAT      O10267   6.380   2.485   4.625
 2387WAT     H110268   6.384   2.569   4.651
 2387WAT     H210269   6.451   2.449   4.662
 2387WAT    EPW10270   6.391   2.492   4.634
 2388WAT      O10271   6.165   1.815   5.659
 2388WAT     H110272   6.124   1.755   5.708
 2388WAT     H210273   6.159   1.782   5.578
 2388WAT    EPW10274   6.158   1.801   5.654
 2389WAT      O10275   6.186   1.728   4.183
 2389WAT     H110276   6.171   1.662   4.238
 2389WAT     H210277   6.147   1.703   4.109
 2389WAT    EPW10278   6.178   1.715   4.180
 2390WAT      O10279   6.242   1.910   4.842
 2390WAT     H110280   6.232   1.883   4.760
 2390WAT     H210281   6.255   1.836   4.886
 2390WAT    EPW10282   6.243   1.895   4.836
 2391WAT      O10283   6.224   1.881   5.189
 2391WAT     H110284   6.247   1.830   5.123
 2391WAT     H210285   6.172   1.940   5.151
 2391WAT    EPW10286   6.220   1.882   5.174
 2392WAT      O10287   7.279   1.650   5.014
 2392WAT     H110288   7.208   1.669   5.060
 2392WAT     H210289   7.282   1.712   4.953
 2392WAT    EPW10290   7.269   1.662   5.012
 2393WAT      O10291   6.618   2.779   5.110
 2393WAT     H110292   6.591   2.712   5.061
 2393WAT     H210293   6.611   2.847   5.057
 2393WAT    EPW10294   6.613   2.779   5.095
 2394WAT      O10295   6.844   1.236   5.351
 2394WAT     H110296   6.865   1.155   5.328
 2394WAT     H210297   6.876   1.244   5.432
 2394WAT    EPW10298   6.852   1.225   5.360
 2395WAT      O10299   7.078   1.440   4.332
 2395WAT     H110300   7.130   1.508   4.348
 2395WAT     H210301   6.999   1.476   4.325
 2395WAT    EPW10302   7.074   1.456   4.333
 2396WAT      O10303   6.044   2.054   5.727
 2396WAT     H110304   6.036   2.101   5.654
 2396WAT     H210305   6.088   1.983   5.701
 2396WAT    EPW10306   6.049   2.050   5.713
 2397WAT      O10307   7.233   2.212   5.587
 2397WAT     H110308   7.234   2.298   5.572
 2397WAT     H210309   7.285   2.180   5.525
 2397WAT    EPW10310   7.240   2.220   5.576
 2398WAT      O10311   6.611   2.570   5.625
 2398WAT     H110312   6.641   2.561   5.706
 2398WAT     H210313   6.587   2.490   5.602
 2398WAT    EPW10314   6.612   2.557   5.634
 2399WAT      O10315   6.677   1.578   4.954
 2399WAT     H110316   6.740   1.638   4.959
 2399WAT     H210317   6.714   1.506   4.986
 2399WAT    EPW10318   6.692   1.576   4.959
 2400WAT      O10319   6.932   1.900   4.152
 2400WAT     H110320   6.909   1.953   4.087
 2400WAT     H210321   6.871   1.913   4.213
 2400WAT    EPW10322   6.920   1.909   4.152
 2401WAT      O10323   7.420   2.254   4.479
 2401WAT     H110324   7.461   2.237   4.554
 2401WAT     H210325   7.425   2.178   4.436
 2401WAT    EPW10326   7.427   2.240   4.484
 2402WAT      O10327   7.078   2.623   4.902
 2402WAT     H110328   7.007   2.599   4.857
 2402WAT     H210329   7.108   2.691   4.857
 2402WAT    EPW10330   7.072   2.630   4.889
 2403WAT      O10331   6.979   2.294   4.891
 2403WAT     H110332   6.908   2.327   4.929
 2403WAT     H210333   7.027   2.266   4.958
 2403WAT    EPW10334   6.976   2.295   4.907
 2404WAT      O10335   6.439   2.733   4.318
 2404WAT     H110336   6.445   2.650   4.345
 2404WAT     H210337   6.503   2.740   4.259
 2404WAT    EPW10338   6.450   2.722   4.313
 2405WAT      O10339   6.363   1.129   4.112
 2405WAT     H110340   6.373   1.126   4.199
 2405WAT     H210341   6.321   1.204   4.099
 2405WAT    EPW10342   6.359   1.139   4.123
 2406WAT      O10343   6.654   2.748   4.146
 2406WAT     H110344   6.713   2.759   4.210
 2406WAT     H210345   6.653   2.824   4.105
 2406WAT    EPW10346   6.663   2.761   4.150
 2407WAT      O10347   7.435   2.130   5.407
 2407WAT     H110348   7.420   2.056   5.363
 2407WAT     H210349   7.453   2.187   5.345
 2407WAT    EPW10350   7.435   2.127   5.391
 2408WAT      O10351   6.967   2.662   5.810
 2408WAT     H110352   6.993   2.685   5.890
 2408WAT     H210353   6.992   2.730   5.761
 2408WAT    EPW10354   6.975   2.676   5.815
 2409WAT      O10355   7.340   1.174   5.696
 2409WAT     H110356   7.325   1.131   5.622
 2409WAT     H210357   7.377   1.114   5.748
 2409WAT    EPW10358   7.343   1.159   5.693
 2410WAT      O10359   6.147   2.006   4.224
 2410WAT     H110360   6.167   1.922   4.220
 2410WAT     H210361   6.210   2.040   4.274
 2410WAT    EPW10362   6.159   1.999   4.231
 2411WAT      O10363   6.930   2.107   5.256
 2411WAT     H110364   6.879   2.144   5.316
 2411WAT     H210365   6.962   2.037   5.298
 2411WAT    EPW10366   6.927   2.102   5.271
 2412WAT      O10367   5.802   1.128   4.320
 2412WAT     H110368   5.806   1.070   4.256
 2412WAT     H210369   5.770   1.083   4.388
 2412WAT    EPW10370   5.798   1.113   4.321
 2413WAT      O10371   6.772   1.924   4.379
 2413WAT     H110372   6.784   1.990   4.434
 2413WAT     H210373   6.760   1.855   4.431
 2413WAT    EPW10374   6.772   1.924   4.395
 2414WAT      O10375   7.296   2.443   4.976
 2414WAT     H110376   7.234   2.481   4.927
 2414WAT     H210377   7.254   2.377   5.014
 2414WAT    EPW10378   7.281   2.439   4.975
 2415WAT      O10379   6.245   1.371   4.051
 2415WAT     H110380   6.184   1.370   3.989
 2415WAT     H210381   6.313   1.408   4.011
 2415WAT    EPW10382   6.246   1.376   4.036
 2416WAT      O10383   6.689   2.153   4.794
 2416WAT     H110384   6.606   2.131   4.813
 2416WAT     H210385   6.734   2.123   4.863
 2416WAT    EPW10386   6.683   2.145   4.807
 2417WAT      O10387   6.342   2.764   3.938
 2417WAT     H110388   6.364   2.693   3.984
 2417WAT     H210389   6.348   2.828   3.997
 2417WAT    EPW10390   6.346   2.763   3.954
 2418WAT      O10391   6.061   2.078   5.073
 2418WAT     H110392   6.114   2.145   5.054
 2418WAT     H210393   6.021   2.062   4.997
 2418WAT    EPW10394   6.063   2.085   5.059
 2419WAT      O10395   6.378   1.598   4.722
 2419WAT     H110396   6.454   1.559   4.708
 2419WAT     H210397   6.319   1.536   4.707
 2419WAT    EPW10398   6.380   1.583   4.718
 2420WAT      O10399   5.850   1.720   4.378
 2420WAT     H110400   5.888   1.684   4.448
 2420WAT     H210401   5.865   1.662   4.315
 2420WAT    EPW10402   5.858   1.706   4.379
 2421WAT      O10403   7.317   2.045   5.049
 2421WAT     H110404   7.329   1.993   5.119
 2421WAT     H210405   7.252   2.097   5.074
 2421WAT    EPW10406   7.310   2.045   5.063
 2422WAT      O10407   6.385   1.902   3.920
 2422WAT     H110408   6.371   1.849   3.989
 2422WAT     H210409   6.320   1.881   3.865
 2422WAT    EPW10410   6.373   1.891   3.922
 2423WAT      O10411   6.022   2.192   5.491
 2423WAT     H110412   5.983   2.144   5.429
 2423WAT     H210413   5.998   2.274   5.472
 2423WAT    EPW10414   6.013   2.197   5.479
 2424WAT      O10415   6.456   1.728   4.141
 2424WAT     H110416   6.483   1.800   4.183
 2424WAT     H210417   6.373   1.721   4.164
 2424WAT    EPW10418   6.448   1.738   4.150
 2425WAT      O10419   7.321   1.451   5.704
 2425WAT     H110420   7.238   1.466   5.729
 2425WAT     H210421   7.325   1.364   5.703
 2425WAT    EPW10422   7.309   1.440   5.708
 2426WAT      O10423   5.849   1.352   4.855
 2426WAT     H110424   5.830   1.386   4.777
 2426WAT     H210425   5.921   1.396   4.879
 2426WAT    EPW10426   5.857   1.364   4.847
 2427WAT      O10427   7.091   1.794   5.738
 2427WAT     H110428   7.136   1.803   5.812
 2427WAT     H210429   7.019   1.841   5.752
 2427WAT    EPW10430   7.087   1.802   5.751
 2428WAT      O10431   7.270   1.846   5.533
 2428WAT     H110432   7.340   1.876   5.575
 2428WAT     H210433   7.217   1.820   5.597
 2428WAT    EPW10434   7.272   1.846   5.548
 2429WAT      O10435   7.403   2.445   4.100
 2429WAT     H110436   7.429   2.363   4.112
 2429WAT     H210437   7.320   2.444   4.126
 2429WAT    EPW10438   7.395   2.433   4.106
 2430WAT      O10439   7.335   1.660   4.637
 2430WAT     H110440   7.274   1.607   4.668
 2430WAT     H210441   7.337   1.726   4.694
 2430WAT    EPW10442   7.327   1.662   4.650
 2431WAT      O10443   7.016   2.260   4.025
 2431WAT     H110444   7.090   2.214   4.019
 2431WAT     H210445   6.988   2.265   3.942
 2431WAT    EPW10446   7.023   2.254   4.012
 2432WAT      O10447   6.493   2.380   5.128
 2432WAT     H110448   6.489   2.430   5.199
 2432WAT     H210449   6.489   2.438   5.063
 2432WAT    EPW10450   6.492   2.396   5.129
 2433WAT      O10451   6.292   2.249   5.451
 2433WAT     H110452   6.210   2.221   5.467
 2433WAT     H210453   6.282   2.335   5.443
 2433WAT    EPW10454   6.278   2.258   5.452
 2434WAT      O10455   7.234   1.274   5.302
 2434WAT     H110456   7.292   1.326   5.340
 2434WAT     H210457   7.163   1.325   5.293
 2434WAT    EPW10458   7.232   1.289   5.306
 2435WAT      O10459   6.779   2.025   5.036
 2435WAT     H110460   6.833   2.056   5.097
 2435WAT     H210461   6.699   2.038   5.070
 2435WAT    EPW10462   6.775   2.032   5.050
 2436WAT      O10463   6.413   1.588   5.423
 2436WAT     H110464   6.428   1.508   5.455
 2436WAT     H210465   6.443   1.584   5.341
 2436WAT    EPW10466   6.420   1.576   5.416
 2437WAT      O10467   6.684   2.792   4.625
 2437WAT     H110468   6.684   2.879   4.635
 2437WAT     H210469   6.703   2.782   4.540
 2437WAT    EPW10470   6.687   2.804   4.614
 2438WAT      O10471   7.293   1.133   5.070
 2438WAT     H110472   7.285   1.173   5.148
 2438WAT     H210473   7.348   1.067   5.087
 2438WAT    EPW10474   7.300   1.129   5.084
 2439WAT      O10475   6.568   1.200   5.332
 2439WAT     H110476   6.653   1.216   5.326
 2439WAT     H210477   6.562   1.115   5.315
 2439WAT    EPW10478   6.580   1.190   5.329
 2440WAT      O10479   6.505   2.584   4.941
 2440WAT     H110480   6.455   2.636   4.891
 2440WAT     H210481   6.550   2.537   4.882
 2440WAT    EPW10482   6.505   2.585   4.925
 2441WAT      O10483   6.957   2.196   5.656
 2441WAT     H110484   7.037   2.198   5.621
 2441WAT     H210485   6.907   2.229   5.592
 2441WAT    EPW10486   6.962   2.201   5.641
 2442WAT      O10487   7.237   2.484   5.542
 2442WAT     H110488   7.288   2.520   5.602
 2442WAT     H210489   7.256   2.528   5.469
 2442WAT    EPW10490   7.248   2.496   5.540
 2443WAT      O10491   7.506   1.804   3.988
 2443WAT     H110492   7.516   1.853   3.916
 2443WAT     H210493   7.424   1.821   4.013
 2443WAT    EPW10494   7.495   1.814   3.981
 2444WAT      O10495   6.616   2.043   3.980
 2444WAT     H110496   6.544   2.006   3.947
 2444WAT     H210497   6.596   2.128   3.984
 2444WAT    EPW10498   6.602   2.050   3.976
 2445WAT      O10499   6.290   1.673   4.976
 2445WAT     H110500   6.322   1.644   4.900
 2445WAT     H210501   6.349   1.645   5.034
 2445WAT    EPW10502   6.303   1.664   4.973
 2446WAT      O10503   6.983   1.586   5.524
 2446WAT     H110504   6.928   1.653   5.533
 2446WAT     H210505   7.023   1.582   5.601
 2446WAT    EPW10506   6.981   1.595   5.537
 2447WAT      O10507   7.047   1.697   5.158
 2447WAT     H110508   7.046   1.752   5.225
 2447WAT     H210509   7.032   1.620   5.194
 2447WAT    EPW10510   7.045   1.694   5.173
 2448WAT      O10511   6.760   2.793   5.537
 2448WAT     H110512   6.777   2.785   5.452
 2448WAT     H210513   6.723   2.718   5.558
 2448WAT    EPW10514   6.757   2.781   5.528
 2449WAT      O10515   7.236   1.668   4.377
 2449WAT     H110516   7.260   1.665   4.461
 2449WAT     H210517   7.311   1.679   4.335
 2449WAT    EPW10518   7.250   1.669   4.384
 2450WAT      O10519   6.580   1.147   4.929
 2450WAT     H110520   6.497   1.139   4.952
 2450WAT     H210521   6.578   1.155   4.843
 2450WAT    EPW10522   6.568   1.147   4.920
 2451WAT      O10523   7.416   1.254   4.499
 2451WAT     H110524   7.334   1.230   4.517
 2451WAT     H210525   7.420   1.249   4.412
 2451WAT    EPW10526   7.405   1.250   4.489
 2452WAT      O10527   7.413   2.017   4.325
 2452WAT     H110528   7.451   1.939   4.322
 2452WAT     H210529   7.328   1.999   4.328
 2452WAT    EPW10530   7.406   2.003   4.325
 2453WAT      O10531   6.775   2.255   5.445
 2453WAT     H110532   6.699   2.255   5.489
 2453WAT     H210533   6.779   2.336   5.411
 2453WAT    EPW10534   6.764   2.267   5.446
 2454WAT      O10535   5.812   1.258   5.629
 2454WAT     H110536   5.808   1.328   5.576
 2454WAT     H210537   5.728   1.236   5.640
 2454WAT    EPW10538   5.799   1.265   5.623
 2455WAT      O10539   6.327   2.897   5.025
 2455WAT     H110540   6.329   2.876   5.110
 2455WAT     H210541   6.294   2.826   4.987
 2455WAT    EPW10542   6.323   2.883   5.032
 2456WAT      O10543   6.158   1.474   4.300
 2456WAT     H110544   6.170   1.440   4.221
 2456WAT     H210545   6.077   1.451   4.321
 2456WAT    EPW10546   6.148   1.466   4.292
 2457WAT      O10547   7.048   2.240   4.625
 2457WAT     H110548   7.028   2.262   4.707
 2457WAT     H210549   7.081   2.160   4.632
 2457WAT    EPW10550   7.050   2.232   4.638
 2458WAT      O10551   6.801   2.146   4.541
 2458WAT     H110552   6.761   2.143   4.618
 2458WAT     H210553   6.879   2.180   4.560
 2458WAT    EPW10554   6.807   2.151   4.555
 2459WAT      O10555   6.790   2.528   5.353
 2459WAT     H110556   6.840   2.526   5.424
 2459WAT     H210557   6.822   2.594   5.306
 2459WAT    EPW10558   6.802   2.537   5.356
 2460WAT      O10559   7.037   1.879   5.371
 2460WAT     H110560   6.971   1.857   5.424
 2460WAT     H210561   7.107   1.873   5.423
 2460WAT    EPW10562   7.038   1.875   5.387
 2461WAT      O10563   5.969   2.877   5.546
 2461WAT     H110564   5.914   2.811   5.536
 2461WAT     H210565   5.918   2.943   5.573
 2461WAT    EPW10566   5.953   2.877   5.549
 2462WAT      O10567   6.859   1.969   5.777
 2462WAT     H110568   6.889   2.042   5.741
 2462WAT     H210569   6.778   1.991   5.802
 2462WAT    EPW10570   6.851   1.983   5.775
 2463WAT      O10571   7.157   2.880   4.817
 2463WAT     H110572   7.091   2.932   4.842
 2463WAT     H210573   7.223   2.905   4.868
 2463WAT    EPW10574   7.157   2.891   4.828
 2464WAT      O10575   6.783   2.390   5.072
 2464WAT     H110576   6.699   2.382   5.094
 2464WAT     H210577   6.820   2.421   5.144
 2464WAT    EPW10578   6.776   2.393   5.086
 2465WAT      O10579   7.417   2.563   5.742
 2465WAT     H110580   7.497   2.543   5.716
 2465WAT     H210581   7.407   2.518   5.816
 2465WAT    EPW10582   7.427   2.553   5.749
 2466WAT      O10583   6.161   1.706   5.397
 2466WAT     H110584   6.175   1.766   5.336
 2466WAT     H210585   6.237   1.665   5.405
 2466WAT    EPW10586   6.174   1.709   5.389
 2467WAT      O10587   5.976   1.537   5.268
 2467WAT     H110588   5.988   1.547   5.182
 2467WAT     H210589   6.030   1.596   5.303
 2467WAT    EPW10590   5.986   1.548   5.260
 2468WAT      O10591   7.490   1.744   4.286
 2468WAT     H110592   7.522   1.732   4.205
 2468WAT     H210593   7.523   1.677   4.331
 2468WAT    EPW10594   7.500   1.733   4.281
 2469WAT      O10595   6.191   1.237   5.543
 2469WAT     H110596   6.150   1.160   5.547
 2469WAT     H210597   6.174   1.264   5.462
 2469WAT    EPW10598   6.183   1.230   5.531
 2470WAT      O10599   6.889   2.513   4.473
 2470WAT     H110600   6.873   2.590   4.434
 2470WAT     H210601   6.826   2.461   4.442
 2470WAT    EPW10602   6.877   2.517   4.463
 2471WAT      O10603   7.378   1.891   5.278
 2471WAT     H110604   7.424   1.821   5.251
 2471WAT     H210605   7.335   1.862   5.347
 2471WAT    EPW10606   7.379   1.876   5.284
 2472WAT      O10607   5.893   2.050   5.293
 2472WAT     H110608   5.939   2.067   5.220
 2472WAT     H210609   5.869   1.967   5.283
 2472WAT    EPW10610   5.896   2.040   5.281
 2473WAT      O10611   6.060   1.638   3.948
 2473WAT     H110612   5.989   1.626   3.996
 2473WAT     H210613   6.067   1.564   3.902
 2473WAT    EPW10614   6.051   1.625   3.948
 2474WAT      O10615   6.928   1.274   5.618
 2474WAT     H110616   6.958   1.346   5.657
 2474WAT     H210617   6.847   1.265   5.649
 2474WAT    EPW10618   6.920   1.283   5.628
 2475WAT      O10619   6.893   1.353   4.681
 2475WAT     H110620   6.815   1.391   4.681
 2475WAT     H210621   6.886   1.293   4.618
 2475WAT    EPW10622   6.880   1.350   4.672
 2476WAT      O10623   6.372   2.520   4.087
 2476WAT     H110624   6.406   2.509   4.166
 2476WAT     H210625   6.287   2.500   4.098
 2476WAT    EPW10626   6.364   2.515   4.100
 2477WAT      O10627   7.214   1.383   4.948
 2477WAT     H110628   7.263   1.321   4.983
 2477WAT     H210629   7.244   1.457   4.984
 2477WAT    EPW10630   7.226   1.385   4.958
 2478WAT      O10631   6.405   2.001   5.371
 2478WAT     H110632   6.368   2.075   5.397
 2478WAT     H210633   6.345   1.965   5.319
 2478WAT    EPW10634   6.391   2.007   5.367
 2479WAT      O10635   7.289   1.867   4.828
 2479WAT     H110636   7.303   1.928   4.889
 2479WAT     H210637   7.241   1.909   4.768
 2479WAT    EPW10638   7.284   1.883   4.828
 2480WAT      O10639   7.268   2.702   4.440
 2480WAT     H110640   7.243   2.619   4.453
 2480WAT     H210641   7.316   2.697   4.367
 2480WAT    EPW10642   7.271   2.689   4.431
 2481WAT      O10643   6.114   2.430   4.143
 2481WAT     H110644   6.110   2.410   4.228
 2481WAT     H210645   6.133   2.353   4.105
 2481WAT    EPW10646   6.116   2.415   4.150
 2482WAT      O10647   6.448   2.279   3.958
 2482WAT     H110648   6.371   2.242   3.972
 2482WAT     H210649   6.440   2.358   3.994
 2482WAT    EPW10650   6.436   2.285   3.966
 2483WAT      O10651   6.387   1.336   5.169
 2483WAT     H110652   6.307   1.318   5.200
 2483WAT     H210653   6.439   1.284   5.216
 2483WAT    EPW10654   6.383   1.325   5.181
 2484WAT      O10655   6.761   1.331   5.038
 2484WAT     H110656   6.699   1.275   5.012
 2484WAT     H210657   6.835   1.293   5.012
 2484WAT    EPW10658   6.762   1.317   5.030
 2485WAT      O10659   7.060   2.507   5.176
 2485WAT     H110660   7.115   2.557   5.222
 2485WAT     H210661   7.059   2.544   5.097
 2485WAT    EPW10662   7.068   2.520   5.171
 2486WAT      O10663   7.019   2.857   5.617
 2486WAT     H110664   6.943   2.828   5.586
 2486WAT     H210665   7.004   2.942   5.631
 2486WAT    EPW10666   7.006   2.865   5.614
 2487WAT      O10667   6.548   1.806   5.528
 2487WAT     H110668   6.507   1.737   5.495
 2487WAT     H210669   6.509   1.874   5.490
 2487WAT    EPW10670   6.536   1.806   5.517
 2488WAT      O10671   6.633   1.153   4.044
 2488WAT     H110672   6.644   1.164   3.958
 2488WAT     H210673   6.546   1.157   4.054
 2488WAT    EPW10674   6.622   1.155   4.033
 2489WAT      O10675   7.475   2.256   5.152
 2489WAT     H110676   7.441   2.189   5.108
 2489WAT     H210677   7.457   2.325   5.101
 2489WAT    EPW10678   7.467   2.256   5.138
 2490WAT      O10679   6.415   2.767   5.561
 2490WAT     H110680   6.399   2.782   5.645
 2490WAT     H210681   6.478   2.706   5.561
 2490WAT    EPW10682   6.422   2.760   5.573
 2491WAT      O10683   7.400   2.692   5.068
 2491WAT     H110684   7.482   2.692   5.037
 2491WAT     H210685   7.366   2.618   5.037
 2491WAT    EPW10686   7.407   2.681   5.059
 2492WAT      O10687   6.132   1.309   5.285
 2492WAT     H110688   6.077   1.244   5.263
 2492WAT     H210689   6.084   1.381   5.276
 2492WAT    EPW10690   6.117   1.310   5.281
 2493WAT      O10691   6.986   1.228   4.911
 2493WAT     H110692   7.051   1.282   4.933
 2493WAT     H210693   6.954   1.264   4.838
 2493WAT    EPW10694   6.991   1.241   4.903
 2494WAT      O10695   6.126   2.677   5.684
 2494WAT     H110696   6.197   2.710   5.723
 2494WAT     H210697   6.091   2.746   5.644
 2494WAT    EPW10698   6.132   2.692   5.684
 2495WAT      O10699   6.972   1.748   4.694
 2495WAT     H110700   7.023   1.678   4.705
 2495WAT     H210701   6.939   1.764   4.773
 2495WAT    EPW10702   6.975   1.740   4.707
 2496WAT      O10703   5.986   1.638   4.612
 2496WAT     H110704   5.945   1.663   4.685
 2496WAT     H210705   6.024   1.563   4.634
 2496WAT    EPW10706   5.985   1.631   4.626
 2497WAT      O10707   5.980   2.455   5.408
 2497WAT     H110708   5.930   2.518   5.441
 2497WAT     H210709   6.061   2.488   5.414
 2497WAT    EPW10710   5.984   2.469   5.414
 2498WAT      O10711   7.149   1.921   4.328
 2498WAT     H110712   7.164   1.837   4.345
 2498WAT     H210713   7.074   1.920   4.284
 2498WAT    EPW10714   7.140   1.908   4.324
 2499WAT      O10715   6.168   2.777   4.301
 2499WAT     H110716   6.152   2.831   4.234
 2499WAT     H210717   6.253   2.760   4.294
 2499WAT    EPW10718   6.178   2.783   4.290
 2500WAT      O10719   6.541   1.973   4.238
 2500WAT     H110720   6.571   2.003   4.163
 2500WAT     H210721   6.613   1.960   4.286
 2500WAT    EPW10722   6.556   1.975   4.234
 2501WAT      O10723   7.413   2.806   3.983
 2501WAT     H110724   7.440   2.775   4.060
 2501WAT     H210725   7.407   2.734   3.933
 2501WAT    EPW10726   7.416   2.791   3.987
 2502WAT      O10727   7.512   1.965   5.631
 2502WAT     H110728   7.586   1.934   5.597
 2502WAT     H210729   7.493   2.034   5.581
 2502WAT    EPW10730   7.520   1.970   5.619
 2503WAT      O10731   7.143   2.461   4.189
 2503WAT     H110732   7.143   2.439   4.273
 2503WAT     H210733   7.091   2.401   4.152
 2503WAT    EPW10734   7.135   2.449   4.196
 2504WAT      O10735   7.512   1.522   5.898
 2504WAT     H110736   7.520   1.608   5.885
 2504WAT     H210737   7.457   1.497   5.836
 2504WAT    EPW10738   7.505   1.531   5.887
 2505WAT      O10739   7.493   1.654   5.192
 2505WAT     H110740   7.430   1.644   5.133
 2505WAT     H210741   7.565   1.626   5.150
 2505WAT    EPW10742   7.495   1.649   5.177
 2506WAT      O10743   6.455   1.329   5.546
 2506WAT     H110744   6.489   1.292   5.474
 2506WAT     H210745   6.375   1.294   5.550
 2506WAT    EPW10746   6.448   1.318   5.536
 2507WAT      O10747   7.249   2.130   5.856
 2507WAT     H110748   7.327   2.153   5.887
 2507WAT     H210749   7.253   2.152   5.772
 2507WAT    EPW10750   7.261   2.137   5.848
 2508WAT      O10751   6.180   2.678   4.927
 2508WAT     H110752   6.173   2.601   4.886
 2508WAT     H210753   6.139   2.734   4.873
 2508WAT    EPW10754   6.173   2.675   4.913
 2509WAT      O10755   6.754   2.294   4.115
 2509WAT     H110756   6.837   2.275   4.095
 2509WAT     H210757   6.738   2.367   4.071
 2509WAT    EPW10758   6.764   2.302   4.106
 2510WAT      O10759   5.951   2.928   5.268
 2510WAT     H110760   5.959   2.909   5.353
 2510WAT     H210761   5.984   2.858   5.229
 2510WAT    EPW10762   5.957   2.915   5.275
 2511WAT      O10763   6.904   1.160   2.584
 2511WAT     H110764   6.897   1.201   2.508
 2511WAT     H210765   6.990   1.152   2.596
 2511WAT    EPW10766   6.916   1.165   2.575
 2512WAT      O10767   6.877   1.775   3.055
 2512WAT     H110768   6.845   1.852   3.080
 2512WAT     H210769   6.933   1.754   3.119
 2512WAT    EPW10770   6.881   1.783   3.068
 2513WAT      O10771   5.830   2.240   2.533
 2513WAT     H110772   5.757   2.239   2.580
 2513WAT     H210773   5.837   2.159   2.502
 2513WAT    EPW10774   5.821   2.228   2.536
 2514WAT      O10775   7.455   2.694   2.331
 2514WAT     H110776   7.513   2.703   2.395
 2514WAT     H210777   7.461   2.610   2.309
 2514WAT    EPW10778   7.464   2.683   2.337
 2515WAT      O10779   5.843   1.599   2.214
 2515WAT     H110780   5.777   1.646   2.181
 2515WAT     H210781   5.813   1.517   2.209
 2515WAT    EPW10782   5.828   1.594   2.208
 2516WAT      O10783   6.169   2.186   2.122
 2516WAT     H110784   6.134   2.146   2.053
 2516WAT     H210785   6.170   2.124   2.183
 2516WAT    EPW10786   6.164   2.171   2.121
 2517WAT      O10787   7.128   1.968   2.712
 2517WAT     H110788   7.136   1.959   2.626
 2517WAT     H210789   7.071   1.905   2.734
 2517WAT    EPW10790   7.121   1.957   2.703
 2518WAT      O10791   6.088   2.358   2.526
 2518WAT     H110792   6.139   2.320   2.585
 2518WAT     H210793   6.011   2.319   2.537
 2518WAT    EPW10794   6.084   2.347   2.536
 2519WAT      O10795   6.564   1.272   2.473
 2519WAT     H110796   6.557   1.341   2.419
 2519WAT     H210797   6.641   1.237   2.451
 2519WAT    EPW10798   6.574   1.277   2.462
 2520WAT      O10799   6.000   2.645   2.127
 2520WAT     H110800   6.045   2.650   2.052
 2520WAT     H210801   6.032   2.574   2.166
 2520WAT    EPW10802   6.011   2.635   2.122
 2521WAT      O10803   5.941   2.372   3.225
 2521WAT     H110804   5.962   2.416   3.297
 2521WAT     H210805   5.857   2.392   3.212
 2521WAT    EPW10806   5.932   2.382   3.234
 2522WAT      O10807   6.533   2.294   3.692
 2522WAT     H110808   6.514   2.285   3.776
 2522WAT     H210809   6.460   2.270   3.652
 2522WAT    EPW10810   6.520   2.289   3.698
 2523WAT      O10811   6.015   2.002   2.688
 2523WAT     H110812   5.976   1.997   2.609
 2523WAT     H210813   6.069   1.934   2.687
 2523WAT    EPW10814   6.017   1.991   2.676
 2524WAT      O10815   6.476   1.604   3.250
 2524WAT     H110816   6.545   1.605   3.196
 2524WAT     H210817   6.449   1.521   3.246
 2524WAT    EPW10818   6.482   1.592   3.241
 2525WAT      O10819   6.499   2.560   3.441
 2525WAT     H110820   6.482   2.639   3.407
 2525WAT     H210821   6.585   2.563   3.458
 2525WAT    EPW10822   6.509   2.572   3.439
 2526WAT      O10823   6.196   1.801   2.730
 2526WAT     H110824   6.268   1.755   2.747
 2526WAT     H210825   6.134   1.741   2.722
 2526WAT    EPW10826   6.198   1.785   2.732
 2527WAT      O10827   6.629   2.411   2.848
 2527WAT     H110828   6.656   2.330   2.867
 2527WAT     H210829   6.703   2.457   2.846
 2527WAT    EPW10830   6.644   2.406   2.851
 2528WAT      O10831   6.693   2.348   2.475
 2528WAT     H110832   6.720   2.281   2.524
 2528WAT     H210833   6.715   2.324   2.394
 2528WAT    EPW10834   6.701   2.335   2.470
 2529WAT      O10835   6.827   1.819   3.642
 2529WAT     H110836   6.742   1.814   3.628
 2529WAT     H210837   6.833   1.866   3.716
 2529WAT    EPW10838   6.816   1.825   3.651
 2530WAT      O10839   6.292   1.293   2.561
 2530WAT     H110840   6.254   1.351   2.507
 2530WAT     H210841   6.376   1.294   2.535
 2530WAT    EPW10842   6.299   1.302   2.549
 2531WAT      O10843   7.256   1.041   3.558
 2531WAT     H110844   7.243   1.114   3.513
 2531WAT     H210845   7.180   1.028   3.599
 2531WAT    EPW10846   7.243   1.050   3.557
 2532WAT      O10847   6.592   1.221   2.753
 2532WAT     H110848   6.601   1.304   2.778
 2532WAT     H210849   6.573   1.226   2.668
 2532WAT    EPW10850   6.591   1.234   2.744
 2533WAT      O10851   7.047   1.475   1.989
 2533WAT     H110852   7.002   1.540   2.025
 2533WAT     H210853   7.053   1.416   2.054
 2533WAT    EPW10854   7.041   1.476   2.004
 2534WAT      O10855   5.854   1.740   2.943
 2534WAT     H110856   5.836   1.825   2.940
 2534WAT     H210857   5.788   1.707   2.990
 2534WAT    EPW10858   5.841   1.747   2.950
 2535WAT      O10859   5.820   2.674   2.751
 2535WAT     H110860   5.760   2.728   2.717
 2535WAT     H210861   5.867   2.650   2.682
 2535WAT    EPW10862   5.818   2.678   2.736
 2536WAT      O10863   6.438   2.447   2.452
 2536WAT     H110864   6.411   2.454   2.535
 2536WAT     H210865   6.521   2.422   2.461
 2536WAT    EPW10866   6.447   2.445   2.466
 2537WAT      O10867   7.033   2.723   2.275
 2537WAT     H110868   7.096   2.783   2.277
 2537WAT     H210869   7.076   2.647   2.286
 2537WAT    EPW10870   7.048   2.720   2.277
 2538WAT      O10871   6.837   2.765   2.465
 2538WAT     H110872   6.861   2.839   2.505
 2538WAT     H210873   6.900   2.754   2.405
 2538WAT    EPW10874   6.850   2.775   2.462
 2539WAT      O10875   6.095   1.259   2.979
 2539WAT     H110876   6.078   1.184   2.938
 2539WAT     H210877   6.155   1.237   3.038
 2539WAT    EPW10878   6.102   1.245   2.982
 2540WAT      O10879   6.482   1.448   3.908
 2540WAT     H110880   6.484   1.411   3.829
 2540WAT     H210881   6.522   1.524   3.897
 2540WAT    EPW10882   6.488   1.454   3.895
 2541WAT      O10883   5.974   2.612   2.525
 2541WAT     H110884   6.027   2.545   2.542
 2541WAT     H210885   6.025   2.669   2.485
 2541WAT    EPW10886   5.989   2.610   2.522
 2542WAT      O10887   7.517   1.525   2.568
 2542WAT     H110888   7.475   1.567   2.632
 2542WAT     H210889   7.494   1.442   2.580
 2542WAT    EPW10890   7.507   1.519   2.579
 2543WAT      O10891   7.072   2.809   3.230
 2543WAT     H110892   7.134   2.867   3.208
 2543WAT     H210893   7.061   2.764   3.156
 2543WAT    EPW10894   7.080   2.811   3.216
 2544WAT      O10895   6.070   1.378   3.832
 2544WAT     H110896   5.990   1.348   3.813
 2544WAT     H210897   6.120   1.341   3.770
 2544WAT    EPW10898   6.066   1.368   3.820
 2545WAT      O10899   6.172   2.443   2.901
 2545WAT     H110900   6.228   2.445   2.834
 2545WAT     H210901   6.214   2.399   2.962
 2545WAT    EPW10902   6.186   2.437   2.900
 2546WAT      O10903   6.423   2.725   2.828
 2546WAT     H110904   6.499   2.760   2.804
 2546WAT     H210905   6.391   2.783   2.885
 2546WAT    EPW10906   6.430   2.738   2.833
 2547WAT      O10907   6.671   1.178   3.773
 2547WAT     H110908   6.686   1.106   3.727
 2547WAT     H210909   6.606   1.217   3.730
 2547WAT    EPW10910   6.664   1.173   3.760
 2548WAT      O10911   6.762   1.686   2.625
 2548WAT     H110912   6.792   1.645   2.554
 2548WAT     H210913   6.834   1.703   2.671
 2548WAT    EPW10914   6.777   1.683   2.621
 2549WAT      O10915   6.868   1.655   2.124
 2549WAT     H110916   6.891   1.735   2.151
 2549WAT     H210917   6.795   1.669   2.078
 2549WAT    EPW10918   6.861   1.669   2.121
 2550WAT      O10919   7.222   2.929   2.243
 2550WAT     H110920   7.268   2.892   2.178
 2550WAT     H210921   7.278   2.985   2.279
 2550WAT    EPW10922   7.237   2.932   2.238
 2551WAT      O10923   6.377   2.814   3.385
 2551WAT     H110924   6.384   2.815   3.472
 2551WAT     H210925   6.298   2.779   3.371
 2551WAT    EPW10926   6.367   2.809   3.396
 2552WAT      O10927   5.745   1.420   3.508
 2552WAT     H110928   5.727   1.467   3.579
 2552WAT     H210929   5.812   1.462   3.471
 2552WAT    EPW10930   5.752   1.433   3.513
 2553WAT      O10931   6.965   2.509   3.663
 2553WAT     H110932   6.960   2.543   3.743
 2553WAT     H210933   7.051   2.500   3.649
 2553WAT    EPW10934   6.977   2.513   3.672
 2554WAT      O10935   6.721   2.546   2.081
 2554WAT     H110936   6.690   2.603   2.139
 2554WAT     H210937   6.799   2.578   2.059
 2554WAT    EPW10938   6.728   2.559   2.087
 2555WAT      O10939   7.058   1.298   2.202
 2555WAT     H110940   7.111   1.229   2.204
 2555WAT     H210941   7.080   1.342   2.274
 2555WAT    EPW10942   7.069   1.294   2.213
 2556WAT      O10943   5.901   1.389   2.483
 2556WAT     H110944   5.877   1.307   2.464
 2556WAT     H210945   5.849   1.411   2.549
 2556WAT    EPW10946   5.890   1.380   2.490
 2557WAT      O10947   6.138   2.694   3.306
 2557WAT     H110948   6.097   2.628   3.344
 2557WAT     H210949   6.121   2.683   3.221
 2557WAT    EPW10950   6.130   2.683   3.299
 2558WAT      O10951   6.827   1.558   2.382
 2558WAT     H110952   6.757   1.509   2.365
 2558WAT     H210953   6.848   1.592   2.305
 2558WAT    EPW10954   6.820   1.556   2.368
 2559WAT      O10955   6.845   2.808   3.381
 2559WAT     H110956   6.922   2.807   3.340
 2559WAT     H210957   6.787   2.804   3.316
 2559WAT    EPW10958   6.848   2.807   3.365
 2560WAT      O10959   6.820   1.235   2.330
 2560WAT     H110960   6.764   1.215   2.266
 2560WAT     H210961   6.893   1.257   2.286
 2560WAT    EPW10962   6.822   1.235   2.314
 2561WAT      O10963   7.512   2.818   2.604
 2561WAT     H110964   7.496   2.904   2.609
 2561WAT     H210965   7.433   2.783   2.612
 2561WAT    EPW10966   7.498   2.826   2.606
 2562WAT      O10967   6.640   1.499   2.796
 2562WAT     H110968   6.670   1.563   2.744
 2562WAT     H210969   6.654   1.531   2.877
 2562WAT    EPW10970   6.647   1.513   2.801
 2563WAT      O10971   7.198   2.423   2.553
 2563WAT     H110972   7.268   2.372   2.563
 2563WAT     H210973   7.138   2.387   2.604
 2563WAT    EPW10974   7.199   2.410   2.562
 2564WAT      O10975   6.255   2.513   3.591
 2564WAT     H110976   6.330   2.544   3.558
 2564WAT     H210977   6.237   2.568   3.656
 2564WAT    EPW10978   6.264   2.526   3.596
 2565WAT      O10979   6.232   1.030   2.625
 2565WAT     H110980   6.251   1.113   2.605
 2565WAT     H210981   6.203   0.997   2.549
 2565WAT    EPW10982   6.231   1.037   2.611
 2566WAT      O10983   6.440   2.079   2.986
 2566WAT     H110984   6.461   2.062   3.069
 2566WAT     H210985   6.367   2.033   2.974
 2566WAT    EPW10986   6.433   2.070   2.997
 2567WAT      O10987   7.017   1.449   3.386
 2567WAT     H110988   7.010   1.487   3.464
 2567WAT     H210989   6.951   1.392   3.385
 2567WAT    EPW10990   7.006   1.446   3.397
 2568WAT      O10991   6.529   2.087   3.249
 2568WAT     H110992   6.530   2.173   3.259
 2568WAT     H210993   6.498   2.057   3.325
 2568WAT    EPW10994   6.525   2.095   3.262
 2569WAT      O10995   7.129   2.245   3.226
 2569WAT     H110996   7.070   2.196   3.268
 2569WAT     H210997   7.112   2.326   3.254
 2569WAT    EPW10998   7.118   2.249   3.236
 2570WAT      O10999   7.170   1.109   2.640
 2570WAT     H111000   7.169   1.087   2.725
 2570WAT     H211001   7.211   1.042   2.602
 2570WAT    EPW11002   7.176   1.096   2.647
 2571WAT      O11003   5.760   2.494   3.866
 2571WAT     H111004   5.820   2.541   3.909
 2571WAT     H211005   5.761   2.417   3.907
 2571WAT    EPW11006   5.769   2.490   3.879
 2572WAT      O11007   7.403   1.450   3.528
 2572WAT     H111008   7.428   1.528   3.496
 2572WAT     H211009   7.383   1.468   3.611
 2572WAT    EPW11010   7.404   1.464   3.536
 2573WAT      O11011   6.177   1.431   2.779
 2573WAT     H111012   6.209   1.379   2.717
 2573WAT     H211013   6.156   1.376   2.843
 2573WAT    EPW11014   6.179   1.415   2.780
 2574WAT      O11015   7.481   2.177   2.206
 2574WAT     H111016   7.462   2.130   2.276
 2574WAT     H211017   7.561   2.149   2.183
 2574WAT    EPW11018   7.490   2.166   2.213
 2575WAT      O11019   6.219   2.188   2.704
 2575WAT     H111020   6.274   2.164   2.640
 2575WAT     H211021   6.154   2.130   2.698
 2575WAT    EPW11022   6.218   2.176   2.693
 2576WAT      O11023   6.016   2.845   2.847
 2576WAT     H111024   5.950   2.798   2.815
 2576WAT     H211025   6.055   2.878   2.776
 2576WAT    EPW11026   6.012   2.843   2.831
 2577WAT      O11027   6.018   1.677   3.162
 2577WAT     H111028   6.098   1.666   3.130
 2577WAT     H211029   5.969   1.688   3.090
 2577WAT    EPW11030   6.022   1.677   3.147
 2578WAT      O11031   7.247   1.873   2.155
 2578WAT     H111032   7.244   1.955   2.124
 2578WAT     H211033   7.216   1.882   2.236
 2578WAT    EPW11034   7.242   1.887   2.162
 2579WAT      O11035   6.357   2.151   2.458
 2579WAT     H111036   6.381   2.233   2.443
 2579WAT     H211037   6.423   2.104   2.427
 2579WAT    EPW11038   6.370   2.156   2.451
 2580WAT      O11039   5.915   2.333   2.897
 2580WAT     H111040   5.869   2.399   2.931
 2580WAT     H211041   5.991   2.370   2.876
 2580WAT    EPW11042   5.919   2.348   2.899
 2581WAT      O11043   6.614   1.694   3.895
 2581WAT     H111044   6.562   1.730   3.955
 2581WAT     H211045   6.593   1.737   3.822
 2581WAT    EPW11046   6.603   1.706   3.893
 2582WAT      O11047   5.899   1.987   2.438
 2582WAT     H111048   5.884   1.901   2.442
 2582WAT     H211049   5.974   1.993   2.394
 2582WAT    EPW11050   5.908   1.975   2.432
 2583WAT      O11051   7.426   1.283   2.309
 2583WAT     H111052   7.498   1.256   2.268
 2583WAT     H211053   7.416   1.365   2.280
 2583WAT    EPW11054   7.435   1.292   2.299
 2584WAT      O11055   6.846   2.587   2.844
 2584WAT     H111056   6.799   2.659   2.828
 2584WAT     H211057   6.871   2.561   2.765
 2584WAT    EPW11058   6.842   2.594   2.830
 2585WAT      O11059   5.819   2.453   2.363
 2585WAT     H111060   5.870   2.509   2.406
 2585WAT     H211061   5.810   2.386   2.418
 2585WAT    EPW11062   5.825   2.451   2.377
 2586WAT      O11063   6.286   2.281   3.093
 2586WAT     H111064   6.339   2.316   3.153
 2586WAT     H211065   6.339   2.228   3.048
 2586WAT    EPW11066   6.302   2.278   3.095
 2587WAT      O11067   7.118   1.512   2.821
 2587WAT     H111068   7.149   1.470   2.891
 2587WAT     H211069   7.054   1.460   2.793
 2587WAT    EPW11070   7.113   1.498   2.827
 2588WAT      O11071   5.832   2.286   2.139
 2588WAT     H111072   5.907   2.241   2.134
 2588WAT     H211073   5.844   2.338   2.207
 2588WAT    EPW11074   5.845   2.287   2.148
 2589WAT      O11075   5.848   2.066   2.898
 2589WAT     H111076   5.894   2.036   2.830
 2589WAT     H211077   5.851   2.153   2.889
 2589WAT    EPW11078   5.855   2.074   2.887
 2590WAT      O11079   6.567   1.474   2.285
 2590WAT     H111080   6.558   1.445   2.203
 2590WAT     H211081   6.537   1.556   2.281
 2590WAT    EPW11082   6.562   1.482   2.272
 2591WAT      O11083   7.285   2.644   3.421
 2591WAT     H111084   7.280   2.722   3.459
 2591WAT     H211085   7.331   2.660   3.348
 2591WAT    EPW11086   7.291   2.658   3.416
 2592WAT      O11087   6.384   2.477   2.719
 2592WAT     H111088   6.387   2.560   2.745
 2592WAT     H211089   6.455   2.442   2.755
 2592WAT    EPW11090   6.395   2.484   2.728
 2593WAT      O11091   6.158   1.832   3.769
 2593WAT     H111092   6.116   1.778   3.823
 2593WAT     H211093   6.154   1.792   3.692
 2593WAT    EPW11094   6.151   1.818   3.766
 2594WAT      O11095   6.189   1.723   2.277
 2594WAT     H111096   6.173   1.656   2.331
 2594WAT     H211097   6.149   1.699   2.203
 2594WAT    EPW11098   6.181   1.710   2.274
 2595WAT      O11099   6.192   1.953   2.976
 2595WAT     H111100   6.184   1.927   2.892
 2595WAT     H211101   6.217   1.880   3.017
 2595WAT    EPW11102   6.194   1.938   2.969
 2596WAT      O11103   6.197   1.876   3.318
 2596WAT     H111104   6.230   1.830   3.251
 2596WAT     H211105   6.112   1.883   3.300
 2596WAT    EPW11106   6.190   1.871   3.305
 2597WAT      O11107   7.280   1.649   3.113
 2597WAT     H111108   7.209   1.669   3.160
 2597WAT     H211109   7.282   1.711   3.052
 2597WAT    EPW11110   7.269   1.661   3.111
 2598WAT      O11111   6.677   2.764   3.170
 2598WAT     H111112   6.634   2.699   3.131
 2598WAT     H211113   6.662   2.832   3.118
 2598WAT    EPW11114   6.668   2.765   3.157
 2599WAT      O11115   6.846   1.235   3.449
 2599WAT     H111116   6.867   1.153   3.428
 2599WAT     H211117   6.876   1.243   3.530
 2599WAT    EPW11118   6.853   1.224   3.458
 2600WAT      O11119   7.075   1.438   2.436
 2600WAT     H111120   7.129   1.505   2.451
 2600WAT     H211121   6.997   1.477   2.428
 2600WAT    EPW11122   7.071   1.454   2.437
 2601WAT      O11123   6.055   2.091   3.795
 2601WAT     H111124   6.028   2.121   3.718
 2601WAT     H211125   6.087   2.012   3.777
 2601WAT    EPW11126   6.056   2.084   3.781
 2602WAT      O11127   7.234   2.212   3.686
 2602WAT     H111128   7.237   2.298   3.672
 2602WAT     H211129   7.287   2.180   3.623
 2602WAT    EPW11130   7.242   2.220   3.675
 2603WAT      O11131   6.612   2.566   3.730
 2603WAT     H111132   6.641   2.556   3.812
 2603WAT     H211133   6.587   2.486   3.708
 2603WAT    EPW11134   6.613   2.553   3.739
 2604WAT      O11135   6.677   1.583   3.056
 2604WAT     H111136   6.742   1.641   3.061
 2604WAT     H211137   6.711   1.510   3.088
 2604WAT    EPW11138   6.692   1.581   3.062
 2605WAT      O11139   6.931   1.899   2.254
 2605WAT     H111140   6.909   1.952   2.188
 2605WAT     H211141   6.870   1.913   2.314
 2605WAT    EPW11142   6.919   1.909   2.253
 2606WAT      O11143   7.418   2.254   2.577
 2606WAT     H111144   7.459   2.239   2.652
 2606WAT     H211145   7.424   2.178   2.535
 2606WAT    EPW11146   7.425   2.241   2.582
 2607WAT      O11147   7.072   2.625   3.009
 2607WAT     H111148   7.000   2.602   2.965
 2607WAT     H211149   7.102   2.694   2.966
 2607WAT    EPW11150   7.066   2.631   2.996
 2608WAT      O11151   6.983   2.285   2.989
 2608WAT     H111152   6.913   2.320   3.029
 2608WAT     H211153   7.033   2.259   3.056
 2608WAT    EPW11154   6.980   2.287   3.005
 2609WAT      O11155   6.402   2.732   2.395
 2609WAT     H111156   6.411   2.656   2.436
 2609WAT     H211157   6.478   2.740   2.351
 2609WAT    EPW11158   6.415   2.722   2.394
 2610WAT      O11159   6.369   1.129   2.206
 2610WAT     H111160   6.370   1.117   2.292
 2610WAT     H211161   6.322   1.202   2.196
 2610WAT    EPW11162   6.362   1.138   2.217
 2611WAT      O11163   6.645   2.742   2.263
 2611WAT     H111164   6.704   2.750   2.326
 2611WAT     H211165   6.650   2.818   2.220
 2611WAT    EPW11166   6.655   2.754   2.266
 2612WAT      O11167   7.436   2.130   3.506
 2612WAT     H111168   7.422   2.056   3.461
 2612WAT     H211169   7.455   2.188   3.443
 2612WAT    EPW11170   7.437   2.127   3.490
 2613WAT      O11171   6.974   2.651   3.909
 2613WAT     H111172   6.996   2.674   3.990
 2613WAT     H211173   7.004   2.717   3.860
 2613WAT    EPW11174   6.982   2.664   3.913
 2614WAT      O11175   7.341   1.174   3.795
 2614WAT     H111176   7.326   1.130   3.721
 2614WAT     H211177   7.378   1.114   3.847
 2614WAT    EPW11178   7.345   1.158   3.792
 2615WAT      O11179   6.153   2.002   2.328
 2615WAT     H111180   6.175   1.918   2.321
 2615WAT     H211181   6.217   2.036   2.377
 2615WAT    EPW11182   6.166   1.994   2.334
 2616WAT      O11183   6.931   2.107   3.357
 2616WAT     H111184   6.881   2.147   3.416
 2616WAT     H211185   6.962   2.038   3.400
 2616WAT    EPW11186   6.928   2.103   3.372
 2617WAT      O11187   5.810   1.123   2.427
 2617WAT     H111188   5.811   1.069   2.359
 2617WAT     H211189   5.777   1.075   2.492
 2617WAT    EPW11190   5.805   1.108   2.427
 2618WAT      O11191   6.768   1.927   2.478
 2618WAT     H111192   6.782   1.993   2.533
 2618WAT     H211193   6.759   1.858   2.531
 2618WAT    EPW11194   6.769   1.926   2.494
 2619WAT      O11195   7.296   2.446   3.076
 2619WAT     H111196   7.233   2.484   3.029
 2619WAT     H211197   7.255   2.381   3.117
 2619WAT    EPW11198   7.280   2.442   3.075
 2620WAT      O11199   6.240   1.368   2.152
 2620WAT     H111200   6.178   1.363   2.090
 2620WAT     H211201   6.307   1.405   2.111
 2620WAT    EPW11202   6.240   1.373   2.136
 2621WAT      O11203   6.693   2.144   2.894
 2621WAT     H111204   6.612   2.117   2.912
 2621WAT     H211205   6.739   2.117   2.963
 2621WAT    EPW11206   6.688   2.136   2.907
 2622WAT      O11207   6.356   2.757   2.027
 2622WAT     H111208   6.378   2.687   2.074
 2622WAT     H211209   6.360   2.823   2.084
 2622WAT    EPW11210   6.360   2.757   2.042
 2623WAT      O11211   6.376   1.614   2.836
 2623WAT     H111212   6.455   1.578   2.820
 2623WAT     H211213   6.321   1.549   2.819
 2623WAT    EPW11214   6.380   1.599   2.831
 2624WAT      O11215   5.861   1.714   2.474
 2624WAT     H111216   5.896   1.675   2.543
 2624WAT     H211217   5.874   1.657   2.409
 2624WAT    EPW11218   5.868   1.700   2.475
 2625WAT      O11219   7.318   2.045   3.149
 2625WAT     H111220   7.329   1.993   3.218
 2625WAT     H211221   7.254   2.098   3.174
 2625WAT    EPW11222   7.310   2.045   3.163
 2626WAT      O11223   6.380   1.904   2.016
 2626WAT     H111224   6.369   1.848   2.082
 2626WAT     H211225   6.323   1.877   1.956
 2626WAT    EPW11226   6.370   1.892   2.017
 2627WAT      O11227   5.985   2.209   3.542
 2627WAT     H111228   5.971   2.165   3.468
 2627WAT     H211229   5.991   2.292   3.515
 2627WAT    EPW11230   5.984   2.215   3.527
 2628WAT      O11231   6.459   1.731   2.236
 2628WAT     H111232   6.484   1.803   2.279
 2628WAT     H211233   6.376   1.721   2.259
 2628WAT    EPW11234   6.450   1.740   2.246
 2629WAT      O11235   7.322   1.450   3.803
 2629WAT     H111236   7.240   1.466   3.828
 2629WAT     H211237   7.327   1.363   3.802
 2629WAT    EPW11238   7.310   1.440   3.807
 2630WAT      O11239   5.828   1.383   2.957
 2630WAT     H111240   5.810   1.392   2.872
 2630WAT     H211241   5.908   1.347   2.957
 2630WAT    EPW11242   5.837   1.379   2.945
 2631WAT      O11243   7.093   1.793   3.839
 2631WAT     H111244   7.139   1.803   3.913
 2631WAT     H211245   7.022   1.841   3.853
 2631WAT    EPW11246   7.090   1.802   3.852
 2632WAT      O11247   7.270   1.846   3.632
 2632WAT     H111248   7.341   1.876   3.674
 2632WAT     H211249   7.218   1.820   3.697
 2632WAT    EPW11250   7.273   1.847   3.648
 2633WAT      O11251   7.406   2.448   2.197
 2633WAT     H111252   7.430   2.366   2.210
 2633WAT     H211253   7.322   2.449   2.223
 2633WAT    EPW11254   7.397   2.436   2.203
 2634WAT      O11255   7.336   1.660   2.738
 2634WAT     H111256   7.274   1.607   2.769
 2634WAT     H211257   7.338   1.726   2.795
 2634WAT    EPW11258   7.327   1.662   2.751
 2635WAT      O11259   7.014   2.263   2.126
 2635WAT     H111260   7.088   2.216   2.122
 2635WAT     H211261   6.987   2.265   2.043
 2635WAT    EPW11262   7.021   2.257   2.113
 2636WAT      O11263   6.511   2.373   3.241
 2636WAT     H111264   6.502   2.421   3.313
 2636WAT     H211265   6.512   2.432   3.177
 2636WAT    EPW11266   6.510   2.389   3.242
 2637WAT      O11267   6.279   2.237   3.568
 2637WAT     H111268   6.196   2.212   3.575
 2637WAT     H211269   6.274   2.324   3.574
 2637WAT    EPW11270   6.266   2.246   3.570
 2638WAT      O11271   7.236   1.273   3.403
 2638WAT     H111272   7.294   1.325   3.440
 2638WAT     H211273   7.165   1.324   3.394
 2638WAT    EPW11274   7.234   1.288   3.407
 2639WAT      O11275   6.778   2.022   3.140
 2639WAT     H111276   6.832   2.055   3.200
 2639WAT     H211277   6.699   2.032   3.175
 2639WAT    EPW11278   6.774   2.028   3.154
 2640WAT      O11279   6.426   1.585   3.527
 2640WAT     H111280   6.444   1.504   3.555
 2640WAT     H211281   6.452   1.584   3.444
 2640WAT    EPW11282   6.433   1.573   3.519
 2641WAT      O11283   6.683   2.797   2.736
 2641WAT     H111284   6.684   2.884   2.743
 2641WAT     H211285   6.703   2.783   2.652
 2641WAT    EPW11286   6.686   2.808   2.725
 2642WAT      O11287   7.291   1.132   3.170
 2642WAT     H111288   7.285   1.171   3.247
 2642WAT     H211289   7.345   1.065   3.185
 2642WAT    EPW11290   7.298   1.128   3.183
 2643WAT      O11291   6.570   1.204   3.418
 2643WAT     H111292   6.656   1.218   3.414
 2643WAT     H211293   6.563   1.119   3.399
 2643WAT    EPW11294   6.582   1.193   3.415
 2644WAT      O11295   6.519   2.566   3.046
 2644WAT     H111296   6.469   2.620   2.999
 2644WAT     H211297   6.559   2.518   2.986
 2644WAT    EPW11298   6.517   2.567   3.030
 2645WAT      O11299   6.959   2.197   3.754
 2645WAT     H111300   7.039   2.199   3.720
 2645WAT     H211301   6.909   2.232   3.691
 2645WAT    EPW11302   6.963   2.202   3.739
 2646WAT      O11303   7.242   2.483   3.642
 2646WAT     H111304   7.290   2.519   3.705
 2646WAT     H211305   7.263   2.529   3.571
 2646WAT    EPW11306   7.252   2.495   3.641
 2647WAT      O11307   7.505   1.799   2.089
 2647WAT     H111308   7.517   1.847   2.018
 2647WAT     H211309   7.423   1.818   2.113
 2647WAT    EPW11310   7.495   1.809   2.082
 2648WAT      O11311   6.614   2.041   2.080
 2648WAT     H111312   6.542   2.005   2.045
 2648WAT     H211313   6.595   2.126   2.082
 2648WAT    EPW11314   6.601   2.048   2.075
 2649WAT      O11315   6.290   1.714   3.084
 2649WAT     H111316   6.315   1.684   3.006
 2649WAT     H211317   6.350   1.681   3.139
 2649WAT    EPW11318   6.302   1.705   3.081
 2650WAT      O11319   6.984   1.585   3.625
 2650WAT     H111320   6.929   1.653   3.634
 2650WAT     H211321   7.025   1.581   3.702
 2650WAT    EPW11322   6.982   1.595   3.637
 2651WAT      O11323   7.049   1.696   3.259
 2651WAT     H111324   7.048   1.752   3.326
 2651WAT     H211325   7.034   1.619   3.296
 2651WAT    EPW11326   7.047   1.693   3.274
 2652WAT      O11327   6.779   2.781   3.651
 2652WAT     H111328   6.786   2.782   3.564
 2652WAT     H211329   6.735   2.708   3.667
 2652WAT    EPW11330   6.773   2.771   3.640
 2653WAT      O11331   7.235   1.665   2.478
 2653WAT     H111332   7.260   1.663   2.562
 2653WAT     H211333   7.310   1.675   2.435
 2653WAT    EPW11334   7.250   1.667   2.484
 2654WAT      O11335   6.561   1.153   3.034
 2654WAT     H111336   6.476   1.153   3.055
 2654WAT     H211337   6.562   1.160   2.947
 2654WAT    EPW11338   6.549   1.154   3.024
 2655WAT      O11339   7.412   1.257   2.591
 2655WAT     H111340   7.330   1.233   2.610
 2655WAT     H211341   7.415   1.257   2.504
 2655WAT    EPW11342   7.401   1.253   2.581
 2656WAT      O11343   7.414   2.017   2.424
 2656WAT     H111344   7.452   1.939   2.422
 2656WAT     H211345   7.329   1.998   2.428
 2656WAT    EPW11346   7.407   2.003   2.424
 2657WAT      O11347   6.774   2.258   3.542
 2657WAT     H111348   6.700   2.257   3.588
 2657WAT     H211349   6.778   2.339   3.511
 2657WAT    EPW11350   6.764   2.270   3.545
 2658WAT      O11351   5.854   1.243   3.700
 2658WAT     H111352   5.834   1.297   3.635
 2658WAT     H211353   5.777   1.213   3.727
 2658WAT    EPW11354   5.840   1.247   3.694
 2659WAT      O11355   6.358   2.853   3.070
 2659WAT     H111356   6.361   2.831   3.155
 2659WAT     H211357   6.297   2.915   3.068
 2659WAT    EPW11358   6.350   2.859   3.083
 2660WAT      O11359   6.155   1.472   2.399
 2660WAT     H111360   6.168   1.436   2.320
 2660WAT     H211361   6.074   1.448   2.420
 2660WAT    EPW11362   6.145   1.463   2.390
 2661WAT      O11363   7.049   2.239   2.722
 2661WAT     H111364   7.029   2.260   2.804
 2661WAT     H211365   7.083   2.159   2.728
 2661WAT    EPW11366   7.051   2.230   2.735
 2662WAT      O11367   6.801   2.150   2.638
 2662WAT     H111368   6.762   2.143   2.716
 2662WAT     H211369   6.880   2.182   2.657
 2662WAT    EPW11370   6.807   2.154   2.652
 2663WAT      O11371   6.786   2.534   3.454
 2663WAT     H111372   6.842   2.531   3.521
 2663WAT     H211373   6.814   2.602   3.408
 2663WAT    EPW11374   6.798   2.544   3.457
 2664WAT      O11375   7.038   1.879   3.471
 2664WAT     H111376   6.972   1.857   3.524
 2664WAT     H211377   7.108   1.874   3.523
 2664WAT    EPW11378   7.038   1.875   3.487
 2665WAT      O11379   5.943   2.865   3.645
 2665WAT     H111380   5.898   2.791   3.638
 2665WAT     H211381   5.881   2.926   3.651
 2665WAT    EPW11382   5.927   2.863   3.645
 2666WAT      O11383   6.863   1.969   3.877
 2666WAT     H111384   6.893   2.042   3.840
 2666WAT     H211385   6.783   1.991   3.903
 2666WAT    EPW11386   6.856   1.983   3.875
 2667WAT      O11387   7.157   2.879   2.924
 2667WAT     H111388   7.092   2.932   2.947
 2667WAT     H211389   7.222   2.902   2.976
 2667WAT    EPW11390   7.157   2.890   2.935
 2668WAT      O11391   6.795   2.382   3.177
 2668WAT     H111392   6.714   2.376   3.208
 2668WAT     H211393   6.839   2.423   3.240
 2668WAT    EPW11394   6.790   2.387   3.191
 2669WAT      O11395   7.415   2.561   3.848
 2669WAT     H111396   7.497   2.544   3.823
 2669WAT     H211397   7.407   2.518   3.923
 2669WAT    EPW11398   7.426   2.552   3.856
 2670WAT      O11399   6.169   1.692   3.525
 2670WAT     H111400   6.180   1.752   3.463
 2670WAT     H211401   6.248   1.653   3.531
 2670WAT    EPW11402   6.183   1.695   3.517
 2671WAT      O11403   5.979   1.530   3.399
 2671WAT     H111404   5.983   1.567   3.320
 2671WAT     H211405   6.029   1.581   3.449
 2671WAT    EPW11406   5.987   1.543   3.394
 2672WAT      O11407   7.490   1.744   2.387
 2672WAT     H111408   7.522   1.731   2.307
 2672WAT     H211409   7.522   1.677   2.433
 2672WAT    EPW11410   7.499   1.732   2.382
 2673WAT      O11411   6.209   1.231   3.638
 2673WAT     H111412   6.179   1.149   3.643
 2673WAT     H211413   6.188   1.256   3.557
 2673WAT    EPW11414   6.202   1.223   3.627
 2674WAT      O11415   6.887   2.517   2.582
 2674WAT     H111416   6.875   2.594   2.542
 2674WAT     H211417   6.826   2.466   2.547
 2674WAT    EPW11418   6.876   2.521   2.571
 2675WAT      O11419   7.378   1.891   3.377
 2675WAT     H111420   7.423   1.821   3.352
 2675WAT     H211421   7.334   1.863   3.447
 2675WAT    EPW11422   7.378   1.876   3.383
 2676WAT      O11423   5.915   2.068   3.309
 2676WAT     H111424   5.847   2.114   3.280
 2676WAT     H211425   5.880   1.990   3.326
 2676WAT    EPW11426   5.900   2.063   3.307
 2677WAT      O11427   6.057   1.633   2.042
 2677WAT     H111428   5.984   1.630   2.090
 2677WAT     H211429   6.060   1.555   2.003
 2677WAT    EPW11430   6.047   1.621   2.043
 2678WAT      O11431   6.928   1.274   3.716
 2678WAT     H111432   6.958   1.346   3.755
 2678WAT     H211433   6.848   1.264   3.750
 2678WAT    EPW11434   6.921   1.283   3.726
 2679WAT      O11435   6.891   1.356   2.780
 2679WAT     H111436   6.812   1.394   2.780
 2679WAT     H211437   6.885   1.297   2.717
 2679WAT    EPW11438   6.878   1.353   2.771
 2680WAT      O11439   6.379   2.513   2.175
 2680WAT     H111440   6.418   2.510   2.253
 2680WAT     H211441   6.296   2.493   2.193
 2680WAT    EPW11442   6.372   2.510   2.189
 2681WAT      O11443   7.210   1.382   3.049
 2681WAT     H111444   7.259   1.320   3.084
 2681WAT     H211445   7.241   1.456   3.084
 2681WAT    EPW11446   7.222   1.384   3.059
 2682WAT      O11447   6.399   1.997   3.479
 2682WAT     H111448   6.365   2.070   3.511
 2682WAT     H211449   6.333   1.962   3.433
 2682WAT    EPW11450   6.384   2.003   3.477
 2683WAT      O11451   7.289   1.867   2.928
 2683WAT     H111452   7.303   1.928   2.989
 2683WAT     H211453   7.242   1.910   2.868
 2683WAT    EPW11454   7.284   1.883   2.928
 2684WAT      O11455   7.260   2.702   2.537
 2684WAT     H111456   7.237   2.618   2.550
 2684WAT     H211457   7.306   2.699   2.463
 2684WAT    EPW11458   7.263   2.689   2.528
 2685WAT      O11459   6.125   2.427   2.249
 2685WAT     H111460   6.120   2.406   2.334
 2685WAT     H211461   6.136   2.350   2.210
 2685WAT    EPW11462   6.126   2.412   2.256
 2686WAT      O11463   6.439   2.270   2.051
 2686WAT     H111464   6.361   2.233   2.066
 2686WAT     H211465   6.432   2.349   2.087
 2686WAT    EPW11466   6.426   2.276   2.058
 2687WAT      O11467   6.386   1.351   3.270
 2687WAT     H111468   6.309   1.327   3.302
 2687WAT     H211469   6.442   1.298   3.312
 2687WAT    EPW11470   6.383   1.340   3.281
 2688WAT      O11471   6.753   1.331   3.135
 2688WAT     H111472   6.690   1.276   3.110
 2688WAT     H211473   6.826   1.291   3.109
 2688WAT    EPW11474   6.755   1.317   3.127
 2689WAT      O11475   7.061   2.507   3.277
 2689WAT     H111476   7.113   2.559   3.324
 2689WAT     H211477   7.059   2.545   3.198
 2689WAT    EPW11478   7.068   2.520   3.272
 2690WAT      O11479   7.041   2.845   3.718
 2690WAT     H111480   6.964   2.817   3.687
 2690WAT     H211481   7.025   2.929   3.736
 2690WAT    EPW11482   7.027   2.854   3.716
 2691WAT      O11483   6.550   1.807   3.636
 2691WAT     H111484   6.512   1.736   3.602
 2691WAT     H211485   6.507   1.873   3.599
 2691WAT    EPW11486   6.538   1.806   3.625
 2692WAT      O11487   6.637   1.156   2.142
 2692WAT     H111488   6.647   1.167   2.056
 2692WAT     H211489   6.551   1.158   2.153
 2692WAT    EPW11490   6.626   1.158   2.131
 2693WAT      O11491   7.477   2.256   3.249
 2693WAT     H111492   7.442   2.189   3.206
 2693WAT     H211493   7.459   2.325   3.199
 2693WAT    EPW11494   7.469   2.256   3.236
 2694WAT      O11495   6.423   2.767   3.664
 2694WAT     H111496   6.401   2.788   3.745
 2694WAT     H211497   6.484   2.705   3.674
 2694WAT    EPW11498   6.429   2.761   3.677
 2695WAT      O11499   7.406   2.692   3.168
 2695WAT     H111500   7.488   2.688   3.138
 2695WAT     H211501   7.369   2.619   3.136
 2695WAT    EPW11502   7.412   2.681   3.159
 2696WAT      O11503   6.135   1.302   3.383
 2696WAT     H111504   6.079   1.238   3.364
 2696WAT     H211505   6.085   1.373   3.383
 2696WAT    EPW11506   6.119   1.303   3.380
 2697WAT      O11507   6.981   1.228   3.009
 2697WAT     H111508   7.046   1.282   3.034
 2697WAT     H211509   6.950   1.266   2.937
 2697WAT    EPW11510   6.986   1.242   3.002
 2698WAT      O11511   6.124   2.682   3.787
 2698WAT     H111512   6.190   2.718   3.831
 2698WAT     H211513   6.085   2.751   3.749
 2698WAT    EPW11514   6.128   2.698   3.788
 2699WAT      O11515   6.974   1.749   2.794
 2699WAT     H111516   7.024   1.678   2.805
 2699WAT     H211517   6.942   1.764   2.873
 2699WAT    EPW11518   6.976   1.741   2.807
 2700WAT      O11519   5.984   1.628   2.713
 2700WAT     H111520   5.938   1.646   2.785
 2700WAT     H211521   6.027   1.556   2.735
 2700WAT    EPW11522   5.983   1.620   2.727
 2701WAT      O11523   6.011   2.486   3.469
 2701WAT     H111524   5.952   2.531   3.515
 2701WAT     H211525   6.085   2.498   3.513
 2701WAT    EPW11526   6.013   2.494   3.482
 2702WAT      O11527   7.150   1.919   2.426
 2702WAT     H111528   7.165   1.834   2.444
 2702WAT     H211529   7.075   1.917   2.382
 2702WAT    EPW11530   7.141   1.906   2.422
 2703WAT      O11531   6.130   2.777   2.362
 2703WAT     H111532   6.109   2.754   2.280
 2703WAT     H211533   6.215   2.760   2.366
 2703WAT    EPW11534   6.139   2.771   2.350
 2704WAT      O11535   6.537   1.976   2.339
 2704WAT     H111536   6.568   2.005   2.262
 2704WAT     H211537   6.610   1.963   2.386
 2704WAT    EPW11538   6.552   1.978   2.334
 2705WAT      O11539   7.410   2.807   2.077
 2705WAT     H111540   7.436   2.778   2.155
 2705WAT     H211541   7.407   2.735   2.028
 2705WAT    EPW11542   7.413   2.792   2.081
 2706WAT      O11543   7.512   1.964   3.731
 2706WAT     H111544   7.586   1.934   3.696
 2706WAT     H211545   7.494   2.034   3.681
 2706WAT    EPW11546   7.520   1.970   3.718
 2707WAT      O11547   7.143   2.466   2.284
 2707WAT     H111548   7.145   2.442   2.367
 2707WAT     H211549   7.092   2.407   2.246
 2707WAT    EPW11550   7.136   2.454   2.290
 2708WAT      O11551   7.508   1.519   4.002
 2708WAT     H111552   7.518   1.605   3.989
 2708WAT     H211553   7.455   1.494   3.938
 2708WAT    EPW11554   7.502   1.528   3.991
 2709WAT      O11555   7.491   1.652   3.294
 2709WAT     H111556   7.429   1.643   3.234
 2709WAT     H211557   7.563   1.623   3.254
 2709WAT    EPW11558   7.493   1.647   3.279
 2710WAT      O11559   6.469   1.325   3.642
 2710WAT     H111560   6.502   1.289   3.570
 2710WAT     H211561   6.389   1.291   3.647
 2710WAT    EPW11562   6.462   1.315   3.632
 2711WAT      O11563   7.251   2.128   3.955
 2711WAT     H111564   7.329   2.153   3.987
 2711WAT     H211565   7.255   2.151   3.871
 2711WAT    EPW11566   7.263   2.135   3.947
 2712WAT      O11567   6.062   2.657   3.044
 2712WAT     H111568   6.103   2.596   2.996
 2712WAT     H211569   6.058   2.726   2.990
 2712WAT    EPW11570   6.068   2.658   3.029
 2713WAT      O11571   6.749   2.297   2.210
 2713WAT     H111572   6.832   2.279   2.192
 2713WAT     H211573   6.734   2.371   2.167
 2713WAT    EPW11574   6.759   2.305   2.201
 2714WAT      O11575   5.915   2.856   3.362
 2714WAT     H111576   5.936   2.869   3.446
 2714WAT     H211577   5.986   2.820   3.328
 2714WAT    EPW11578   5.929   2.853   3.370
 2715WAT      O11579   6.933   1.153   0.665
 2715WAT     H111580   6.952   1.188   0.587
 2715WAT     H211581   7.011   1.138   0.700
 2715WAT    EPW11582   6.947   1.156   0.658
 2716WAT      O11583   6.871   1.783   1.157
 2716WAT     H111584   6.839   1.860   1.183
 2716WAT     H211585   6.926   1.762   1.220
 2716WAT    EPW11586   6.874   1.792   1.170
 2717WAT      O11587   5.833   2.244   0.661
 2717WAT     H111588   5.766   2.241   0.717
 2717WAT     H211589   5.837   2.162   0.630
 2717WAT    EPW11590   5.824   2.231   0.665
 2718WAT      O11591   7.489   2.616   0.457
 2718WAT     H111592   7.558   2.572   0.489
 2718WAT     H211593   7.444   2.555   0.415
 2718WAT    EPW11594   7.493   2.600   0.456
 2719WAT      O11595   5.862   1.617   0.314
 2719WAT     H111596   5.807   1.676   0.281
 2719WAT     H211597   5.820   1.541   0.306
 2719WAT    EPW11598   5.848   1.614   0.308
 2720WAT      O11599   6.116   2.155   0.255
 2720WAT     H111600   6.101   2.116   0.178
 2720WAT     H211601   6.123   2.089   0.311
 2720WAT    EPW11602   6.115   2.140   0.252
 2721WAT      O11603   7.132   1.977   0.826
 2721WAT     H111604   7.148   1.965   0.742
 2721WAT     H211605   7.072   1.916   0.845
 2721WAT    EPW11606   7.126   1.967   0.817
 2722WAT      O11607   6.088   2.357   0.633
 2722WAT     H111608   6.142   2.325   0.694
 2722WAT     H211609   6.012   2.317   0.650
 2722WAT    EPW11610   6.085   2.346   0.645
 2723WAT      O11611   6.584   1.268   0.613
 2723WAT     H111612   6.582   1.349   0.581
 2723WAT     H211613   6.627   1.223   0.553
 2723WAT    EPW11614   6.590   1.274   0.600
 2724WAT      O11615   6.020   2.660   0.274
 2724WAT     H111616   6.052   2.664   0.193
 2724WAT     H211617   6.042   2.580   0.301
 2724WAT    EPW11618   6.028   2.649   0.266
 2725WAT      O11619   5.846   2.496   1.350
 2725WAT     H111620   5.884   2.466   1.423
 2725WAT     H211621   5.780   2.440   1.337
 2725WAT    EPW11622   5.842   2.483   1.359
 2726WAT      O11623   6.532   2.301   1.788
 2726WAT     H111624   6.510   2.286   1.871
 2726WAT     H211625   6.460   2.280   1.744
 2726WAT    EPW11626   6.518   2.296   1.794
 2727WAT      O11627   6.049   2.010   0.811
 2727WAT     H111628   6.000   2.009   0.739
 2727WAT     H211629   6.104   1.943   0.798
 2727WAT    EPW11630   6.050   2.000   0.798
 2728WAT      O11631   6.484   1.588   1.354
 2728WAT     H111632   6.551   1.590   1.299
 2728WAT     H211633   6.459   1.504   1.353
 2728WAT    EPW11634   6.490   1.576   1.346
 2729WAT      O11635   6.513   2.586   1.531
 2729WAT     H111636   6.525   2.650   1.472
 2729WAT     H211637   6.593   2.566   1.556
 2729WAT    EPW11638   6.526   2.593   1.526
 2730WAT      O11639   6.219   1.791   0.792
 2730WAT     H111640   6.286   1.740   0.813
 2730WAT     H211641   6.150   1.737   0.796
 2730WAT    EPW11642   6.219   1.776   0.796
 2731WAT      O11643   6.627   2.425   0.948
 2731WAT     H111644   6.648   2.343   0.968
 2731WAT     H211645   6.703   2.467   0.947
 2731WAT    EPW11646   6.641   2.419   0.951
 2732WAT      O11647   6.653   2.339   0.596
 2732WAT     H111648   6.695   2.282   0.646
 2732WAT     H211649   6.691   2.331   0.518
 2732WAT    EPW11650   6.665   2.330   0.592
 2733WAT      O11651   6.825   1.819   1.742
 2733WAT     H111652   6.739   1.814   1.727
 2733WAT     H211653   6.831   1.864   1.816
 2733WAT    EPW11654   6.813   1.825   1.750
 2734WAT      O11655   6.307   1.283   0.684
 2734WAT     H111656   6.265   1.329   0.623
 2734WAT     H211657   6.389   1.278   0.654
 2734WAT    EPW11658   6.313   1.289   0.671
 2735WAT      O11659   7.253   1.041   1.656
 2735WAT     H111660   7.240   1.114   1.611
 2735WAT     H211661   7.178   1.029   1.698
 2735WAT    EPW11662   7.240   1.050   1.656
 2736WAT      O11663   6.615   1.216   0.883
 2736WAT     H111664   6.621   1.299   0.910
 2736WAT     H211665   6.600   1.223   0.798
 2736WAT    EPW11666   6.614   1.229   0.874
 2737WAT      O11667   5.872   1.746   1.058
 2737WAT     H111668   5.870   1.832   1.066
 2737WAT     H211669   5.804   1.719   1.106
 2737WAT    EPW11670   5.861   1.754   1.067
 2738WAT      O11671   5.849   2.709   0.872
 2738WAT     H111672   5.785   2.754   0.833
 2738WAT     H211673   5.891   2.670   0.805
 2738WAT    EPW11674   5.846   2.710   0.856
 2739WAT      O11675   6.478   2.560   0.587
 2739WAT     H111676   6.432   2.545   0.659
 2739WAT     H211677   6.541   2.499   0.590
 2739WAT    EPW11678   6.481   2.549   0.598
 2740WAT      O11679   6.999   2.667   0.373
 2740WAT     H111680   7.066   2.724   0.374
 2740WAT     H211681   7.037   2.592   0.395
 2740WAT    EPW11682   7.015   2.664   0.376
 2741WAT      O11683   6.822   2.763   0.562
 2741WAT     H111684   6.856   2.838   0.592
 2741WAT     H211685   6.880   2.738   0.502
 2741WAT    EPW11686   6.836   2.770   0.557
 2742WAT      O11687   6.149   1.257   1.103
 2742WAT     H111688   6.104   1.190   1.067
 2742WAT     H211689   6.208   1.217   1.153
 2742WAT    EPW11690   6.151   1.241   1.105
 2743WAT      O11691   6.474   1.451   2.010
 2743WAT     H111692   6.475   1.414   1.931
 2743WAT     H211693   6.518   1.525   1.998
 2743WAT    EPW11694   6.481   1.456   1.997
 2744WAT      O11695   5.987   2.613   0.651
 2744WAT     H111696   6.035   2.541   0.660
 2744WAT     H211697   6.040   2.667   0.607
 2744WAT    EPW11698   6.002   2.611   0.645
 2745WAT      O11699   7.527   1.523   0.689
 2745WAT     H111700   7.482   1.562   0.752
 2745WAT     H211701   7.504   1.439   0.696
 2745WAT    EPW11702   7.517   1.517   0.699
 2746WAT      O11703   7.060   2.815   1.314
 2746WAT     H111704   7.124   2.872   1.298
 2746WAT     H211705   7.061   2.764   1.244
 2746WAT    EPW11706   7.070   2.816   1.301
 2747WAT      O11707   6.052   1.369   1.942
 2747WAT     H111708   5.971   1.343   1.924
 2747WAT     H211709   6.100   1.337   1.876
 2747WAT    EPW11710   6.047   1.361   1.930
 2748WAT      O11711   6.127   2.434   1.020
 2748WAT     H111712   6.172   2.407   0.950
 2748WAT     H211713   6.158   2.384   1.085
 2748WAT    EPW11714   6.139   2.423   1.019
 2749WAT      O11715   6.428   2.754   0.926
 2749WAT     H111716   6.508   2.768   0.894
 2749WAT     H211717   6.376   2.799   0.873
 2749WAT    EPW11718   6.432   2.762   0.914
 2750WAT      O11719   6.669   1.183   1.871
 2750WAT     H111720   6.684   1.111   1.825
 2750WAT     H211721   6.602   1.220   1.830
 2750WAT    EPW11722   6.661   1.178   1.858
 2751WAT      O11723   6.755   1.710   0.723
 2751WAT     H111724   6.787   1.664   0.656
 2751WAT     H211725   6.825   1.727   0.771
 2751WAT    EPW11726   6.770   1.706   0.720
 2752WAT      O11727   6.877   1.717   0.268
 2752WAT     H111728   6.898   1.795   0.301
 2752WAT     H211729   6.811   1.734   0.215
 2752WAT    EPW11730   6.871   1.731   0.265
 2753WAT      O11731   7.202   2.846   0.420
 2753WAT     H111732   7.274   2.849   0.370
 2753WAT     H211733   7.231   2.812   0.495
 2753WAT    EPW11734   7.217   2.841   0.424
 2754WAT      O11735   6.284   2.832   1.506
 2754WAT     H111736   6.321   2.814   1.582
 2754WAT     H211737   6.223   2.771   1.496
 2754WAT    EPW11738   6.280   2.821   1.516
 2755WAT      O11739   5.777   1.477   1.661
 2755WAT     H111740   5.772   1.551   1.707
 2755WAT     H211741   5.834   1.496   1.598
 2755WAT    EPW11742   5.785   1.491   1.659
 2756WAT      O11743   6.966   2.515   1.776
 2756WAT     H111744   6.963   2.552   1.855
 2756WAT     H211745   7.052   2.506   1.761
 2756WAT    EPW11746   6.978   2.519   1.785
 2757WAT      O11747   6.787   2.579   0.213
 2757WAT     H111748   6.728   2.641   0.228
 2757WAT     H211749   6.861   2.612   0.243
 2757WAT    EPW11750   6.789   2.593   0.219
 2758WAT      O11751   7.014   1.218   0.408
 2758WAT     H111752   7.080   1.162   0.404
 2758WAT     H211753   7.052   1.293   0.433
 2758WAT    EPW11754   7.029   1.221   0.411
 2759WAT      O11755   5.880   1.398   0.581
 2759WAT     H111756   5.854   1.318   0.559
 2759WAT     H211757   5.835   1.415   0.653
 2759WAT    EPW11758   5.870   1.388   0.588
 2760WAT      O11759   6.052   2.695   1.376
 2760WAT     H111760   5.990   2.635   1.369
 2760WAT     H211761   6.093   2.691   1.299
 2760WAT    EPW11762   6.049   2.686   1.363
 2761WAT      O11763   6.828   1.568   0.494
 2761WAT     H111764   6.751   1.531   0.475
 2761WAT     H211765   6.848   1.612   0.422
 2761WAT    EPW11766   6.819   1.569   0.481
 2762WAT      O11767   6.841   2.790   1.472
 2762WAT     H111768   6.913   2.795   1.423
 2762WAT     H211769   6.776   2.787   1.413
 2762WAT    EPW11770   6.842   2.790   1.456
 2763WAT      O11771   6.738   1.211   0.374
 2763WAT     H111772   6.712   1.283   0.333
 2763WAT     H211773   6.825   1.217   0.373
 2763WAT    EPW11774   6.747   1.222   0.368
 2764WAT      O11775   7.457   2.840   0.864
 2764WAT     H111776   7.465   2.917   0.824
 2764WAT     H211777   7.422   2.789   0.802
 2764WAT    EPW11778   7.453   2.844   0.849
 2765WAT      O11779   6.652   1.506   0.891
 2765WAT     H111780   6.676   1.573   0.840
 2765WAT     H211781   6.664   1.536   0.972
 2765WAT    EPW11782   6.657   1.520   0.895
 2766WAT      O11783   7.207   2.439   0.688
 2766WAT     H111784   7.280   2.392   0.688
 2766WAT     H211785   7.153   2.392   0.738
 2766WAT    EPW11786   7.209   2.425   0.695
 2767WAT      O11787   6.250   2.531   1.646
 2767WAT     H111788   6.327   2.563   1.620
 2767WAT     H211789   6.235   2.572   1.722
 2767WAT    EPW11790   6.259   2.542   1.653
 2768WAT      O11791   6.235   1.025   0.752
 2768WAT     H111792   6.259   1.106   0.732
 2768WAT     H211793   6.201   0.995   0.677
 2768WAT    EPW11794   6.234   1.033   0.738
 2769WAT      O11795   6.432   2.112   1.091
 2769WAT     H111796   6.456   2.092   1.173
 2769WAT     H211797   6.376   2.048   1.070
 2769WAT    EPW11798   6.427   2.100   1.100
 2770WAT      O11799   7.013   1.451   1.483
 2770WAT     H111800   7.005   1.488   1.562
 2770WAT     H211801   6.946   1.395   1.480
 2770WAT    EPW11802   7.002   1.448   1.494
 2771WAT      O11803   6.532   2.108   1.349
 2771WAT     H111804   6.517   2.193   1.358
 2771WAT     H211805   6.501   2.074   1.423
 2771WAT    EPW11806   6.525   2.115   1.362
 2772WAT      O11807   7.128   2.243   1.324
 2772WAT     H111808   7.070   2.195   1.369
 2772WAT     H211809   7.114   2.324   1.352
 2772WAT    EPW11810   7.118   2.248   1.335
 2773WAT      O11811   7.185   1.106   0.763
 2773WAT     H111812   7.183   1.084   0.847
 2773WAT     H211813   7.231   1.042   0.726
 2773WAT    EPW11814   7.192   1.093   0.770
 2774WAT      O11815   5.790   2.519   1.984
 2774WAT     H111816   5.850   2.562   2.031
 2774WAT     H211817   5.796   2.437   2.013
 2774WAT    EPW11818   5.800   2.514   1.995
 2775WAT      O11819   7.401   1.450   1.625
 2775WAT     H111820   7.428   1.526   1.592
 2775WAT     H211821   7.382   1.469   1.708
 2775WAT    EPW11822   7.402   1.464   1.632
 2776WAT      O11823   6.178   1.426   0.890
 2776WAT     H111824   6.211   1.373   0.829
 2776WAT     H211825   6.170   1.374   0.960
 2776WAT    EPW11826   6.182   1.411   0.891
 2777WAT      O11827   7.389   2.163   0.316
 2777WAT     H111828   7.420   2.133   0.392
 2777WAT     H211829   7.356   2.091   0.278
 2777WAT    EPW11830   7.388   2.148   0.322
 2778WAT      O11831   6.220   2.228   0.837
 2778WAT     H111832   6.292   2.206   0.793
 2778WAT     H211833   6.171   2.156   0.835
 2778WAT    EPW11834   6.224   2.214   0.830
 2779WAT      O11835   6.061   2.861   0.956
 2779WAT     H111836   5.989   2.821   0.928
 2779WAT     H211837   6.112   2.864   0.886
 2779WAT    EPW11838   6.058   2.856   0.942
 2780WAT      O11839   6.033   1.571   1.201
 2780WAT     H111840   6.116   1.593   1.188
 2780WAT     H211841   5.988   1.631   1.157
 2780WAT    EPW11842   6.039   1.583   1.193
 2781WAT      O11843   7.270   1.906   0.274
 2781WAT     H111844   7.198   1.883   0.229
 2781WAT     H211845   7.241   1.914   0.356
 2781WAT    EPW11846   7.255   1.904   0.279
 2782WAT      O11847   6.429   2.169   0.663
 2782WAT     H111848   6.487   2.228   0.634
 2782WAT     H211849   6.437   2.103   0.606
 2782WAT    EPW11850   6.439   2.168   0.650
 2783WAT      O11851   5.869   2.324   1.015
 2783WAT     H111852   5.815   2.390   1.031
 2783WAT     H211853   5.947   2.362   1.009
 2783WAT    EPW11854   5.872   2.339   1.017
 2784WAT      O11855   6.614   1.693   1.994
 2784WAT     H111856   6.565   1.728   2.057
 2784WAT     H211857   6.591   1.737   1.922
 2784WAT    EPW11858   6.604   1.705   1.993
 2785WAT      O11859   5.911   1.986   0.574
 2785WAT     H111860   5.888   1.902   0.580
 2785WAT     H211861   5.985   1.984   0.527
 2785WAT    EPW11862   5.919   1.973   0.568
 2786WAT      O11863   7.434   1.237   0.427
 2786WAT     H111864   7.443   1.175   0.367
 2786WAT     H211865   7.418   1.309   0.380
 2786WAT    EPW11866   7.433   1.238   0.411
 2787WAT      O11867   6.857   2.582   0.931
 2787WAT     H111868   6.811   2.654   0.915
 2787WAT     H211869   6.877   2.552   0.851
 2787WAT    EPW11870   6.853   2.588   0.917
 2788WAT      O11871   5.818   2.458   0.491
 2788WAT     H111872   5.869   2.514   0.534
 2788WAT     H211873   5.811   2.391   0.546
 2788WAT    EPW11874   5.825   2.457   0.505
 2789WAT      O11875   6.243   2.274   1.213
 2789WAT     H111876   6.297   2.313   1.268
 2789WAT     H211877   6.296   2.229   1.160
 2789WAT    EPW11878   6.258   2.273   1.213
 2790WAT      O11879   7.110   1.525   0.924
 2790WAT     H111880   7.140   1.480   0.992
 2790WAT     H211881   7.051   1.471   0.888
 2790WAT    EPW11882   7.106   1.510   0.929
 2791WAT      O11883   5.839   2.252   0.298
 2791WAT     H111884   5.921   2.224   0.288
 2791WAT     H211885   5.847   2.324   0.346
 2791WAT    EPW11886   5.852   2.258   0.303
 2792WAT      O11887   5.897   2.050   1.040
 2792WAT     H111888   5.947   2.032   0.971
 2792WAT     H211889   5.887   2.136   1.037
 2792WAT    EPW11890   5.903   2.060   1.029
 2793WAT      O11891   6.570   1.475   0.423
 2793WAT     H111892   6.517   1.412   0.394
 2793WAT     H211893   6.525   1.549   0.408
 2793WAT    EPW11894   6.556   1.477   0.416
 2794WAT      O11895   7.271   2.643   1.510
 2794WAT     H111896   7.262   2.720   1.550
 2794WAT     H211897   7.320   2.662   1.440
 2794WAT    EPW11898   7.277   2.657   1.505
 2795WAT      O11899   6.371   2.502   0.832
 2795WAT     H111900   6.380   2.581   0.867
 2795WAT     H211901   6.439   2.457   0.864
 2795WAT    EPW11902   6.382   2.507   0.842
 2796WAT      O11903   6.163   1.816   1.857
 2796WAT     H111904   6.124   1.756   1.907
 2796WAT     H211905   6.159   1.781   1.777
 2796WAT    EPW11906   6.157   1.802   1.852
 2797WAT      O11907   6.132   1.677   0.380
 2797WAT     H111908   6.141   1.614   0.440
 2797WAT     H211909   6.051   1.666   0.350
 2797WAT    EPW11910   6.122   1.666   0.385
 2798WAT      O11911   6.249   1.913   1.044
 2798WAT     H111912   6.240   1.885   0.962
 2798WAT     H211913   6.263   1.840   1.089
 2798WAT    EPW11914   6.250   1.898   1.039
 2799WAT      O11915   6.225   1.880   1.390
 2799WAT     H111916   6.250   1.829   1.324
 2799WAT     H211917   6.172   1.938   1.352
 2799WAT    EPW11918   6.221   1.881   1.375
 2800WAT      O11919   7.276   1.648   1.217
 2800WAT     H111920   7.205   1.668   1.262
 2800WAT     H211921   7.281   1.711   1.157
 2800WAT    EPW11922   7.266   1.660   1.215
 2801WAT      O11923   6.611   2.760   1.323
 2801WAT     H111924   6.590   2.698   1.264
 2801WAT     H211925   6.597   2.834   1.279
 2801WAT    EPW11926   6.606   2.762   1.308
 2802WAT      O11927   6.844   1.234   1.553
 2802WAT     H111928   6.869   1.154   1.530
 2802WAT     H211929   6.878   1.244   1.633
 2802WAT    EPW11930   6.853   1.224   1.561
 2803WAT      O11931   7.086   1.456   0.522
 2803WAT     H111932   7.140   1.522   0.542
 2803WAT     H211933   7.007   1.495   0.520
 2803WAT    EPW11934   7.082   1.472   0.525
 2804WAT      O11935   6.038   2.054   1.919
 2804WAT     H111936   6.032   2.101   1.846
 2804WAT     H211937   6.083   1.983   1.895
 2804WAT    EPW11938   6.044   2.051   1.905
 2805WAT      O11939   7.233   2.215   1.788
 2805WAT     H111940   7.236   2.300   1.774
 2805WAT     H211941   7.286   2.182   1.728
 2805WAT    EPW11942   7.241   2.222   1.777
 2806WAT      O11943   6.608   2.571   1.828
 2806WAT     H111944   6.636   2.564   1.910
 2806WAT     H211945   6.585   2.490   1.807
 2806WAT    EPW11946   6.609   2.558   1.837
 2807WAT      O11947   6.679   1.582   1.155
 2807WAT     H111948   6.741   1.644   1.161
 2807WAT     H211949   6.718   1.511   1.186
 2807WAT    EPW11950   6.694   1.581   1.160
 2808WAT      O11951   6.944   1.952   0.397
 2808WAT     H111952   6.954   2.029   0.358
 2808WAT     H211953   6.873   1.963   0.447
 2808WAT    EPW11954   6.935   1.965   0.399
 2809WAT      O11955   7.440   2.288   0.689
 2809WAT     H111956   7.483   2.277   0.764
 2809WAT     H211957   7.445   2.210   0.650
 2809WAT    EPW11958   7.447   2.275   0.694
 2810WAT      O11959   7.078   2.616   1.106
 2810WAT     H111960   7.008   2.593   1.059
 2810WAT     H211961   7.108   2.686   1.064
 2810WAT    EPW11962   7.072   2.623   1.093
 2811WAT      O11963   6.982   2.293   1.090
 2811WAT     H111964   6.913   2.331   1.127
 2811WAT     H211965   7.028   2.262   1.157
 2811WAT    EPW11966   6.979   2.294   1.105
 2812WAT      O11967   6.420   2.806   0.456
 2812WAT     H111968   6.436   2.737   0.508
 2812WAT     H211969   6.489   2.807   0.402
 2812WAT    EPW11970   6.433   2.796   0.456
 2813WAT      O11971   6.405   1.261   0.352
 2813WAT     H111972   6.390   1.181   0.383
 2813WAT     H211973   6.332   1.282   0.310
 2813WAT    EPW11974   6.392   1.252   0.350
 2814WAT      O11975   6.664   2.805   0.332
 2814WAT     H111976   6.703   2.784   0.407
 2814WAT     H211977   6.683   2.890   0.322
 2814WAT    EPW11978   6.672   2.815   0.342
 2815WAT      O11979   7.435   2.129   1.611
 2815WAT     H111980   7.422   2.055   1.567
 2815WAT     H211981   7.456   2.187   1.549
 2815WAT    EPW11982   7.436   2.126   1.595
 2816WAT      O11983   6.963   2.666   2.013
 2816WAT     H111984   6.989   2.687   2.094
 2816WAT     H211985   6.988   2.734   1.965
 2816WAT    EPW11986   6.970   2.679   2.018
 2817WAT      O11987   7.341   1.174   1.893
 2817WAT     H111988   7.326   1.130   1.819
 2817WAT     H211989   7.378   1.114   1.945
 2817WAT    EPW11990   7.344   1.158   1.890
 2818WAT      O11991   6.156   1.951   0.439
 2818WAT     H111992   6.148   1.866   0.424
 2818WAT     H211993   6.234   1.958   0.478
 2818WAT    EPW11994   6.166   1.939   0.443
 2819WAT      O11995   6.931   2.108   1.460
 2819WAT     H111996   6.881   2.146   1.520
 2819WAT     H211997   6.963   2.038   1.501
 2819WAT    EPW11998   6.929   2.104   1.475
 2820WAT      O11999   5.786   1.139   0.510
 2820WAT     H112000   5.790   1.079   0.447
 2820WAT     H212001   5.762   1.093   0.580
 2820WAT    EPW12002   5.783   1.123   0.511
 2821WAT      O12003   6.725   1.950   0.572
 2821WAT     H112004   6.744   2.013   0.630
 2821WAT     H212005   6.726   1.877   0.620
 2821WAT    EPW12006   6.728   1.948   0.588
 2822WAT      O12007   7.296   2.438   1.172
 2822WAT     H112008   7.231   2.476   1.127
 2822WAT     H212009   7.258   2.368   1.206
 2822WAT    EPW12010   7.281   2.433   1.170
 2823WAT      O12011   6.172   1.378   0.241
 2823WAT     H112012   6.116   1.350   0.179
 2823WAT     H212013   6.189   1.460   0.217
 2823WAT    EPW12014   6.166   1.386   0.228
 2824WAT      O12015   6.687   2.157   0.997
 2824WAT     H112016   6.604   2.136   1.016
 2824WAT     H212017   6.731   2.127   1.066
 2824WAT    EPW12018   6.681   2.149   1.010
 2825WAT      O12019   6.058   2.073   1.274
 2825WAT     H112020   6.111   2.140   1.257
 2825WAT     H212021   6.018   2.059   1.198
 2825WAT    EPW12022   6.060   2.081   1.260
 2826WAT      O12023   6.385   1.604   0.923
 2826WAT     H112024   6.462   1.567   0.908
 2826WAT     H212025   6.328   1.539   0.910
 2826WAT    EPW12026   6.388   1.589   0.919
 2827WAT      O12027   5.862   1.711   0.595
 2827WAT     H112028   5.897   1.677   0.667
 2827WAT     H212029   5.871   1.647   0.536
 2827WAT    EPW12030   5.868   1.697   0.597
 2828WAT      O12031   7.323   2.047   1.254
 2828WAT     H112032   7.334   1.994   1.323
 2828WAT     H212033   7.256   2.098   1.278
 2828WAT    EPW12034   7.315   2.046   1.268
 2829WAT      O12035   6.022   2.194   1.682
 2829WAT     H112036   5.980   2.146   1.622
 2829WAT     H212037   5.999   2.276   1.663
 2829WAT    EPW12038   6.012   2.199   1.670
 2830WAT      O12039   6.419   1.703   0.370
 2830WAT     H112040   6.434   1.783   0.401
 2830WAT     H212041   6.332   1.699   0.365
 2830WAT    EPW12042   6.408   1.715   0.374
 2831WAT      O12043   7.321   1.450   1.902
 2831WAT     H112044   7.239   1.465   1.926
 2831WAT     H212045   7.326   1.363   1.899
 2831WAT    EPW12046   7.310   1.440   1.905
 2832WAT      O12047   5.841   1.352   1.054
 2832WAT     H112048   5.822   1.386   0.976
 2832WAT     H212049   5.919   1.386   1.073
 2832WAT    EPW12050   5.850   1.362   1.045
 2833WAT      O12051   7.092   1.791   1.939
 2833WAT     H112052   7.138   1.801   2.012
 2833WAT     H212053   7.020   1.839   1.953
 2833WAT    EPW12054   7.088   1.800   1.952
 2834WAT      O12055   7.270   1.845   1.734
 2834WAT     H112056   7.341   1.874   1.776
 2834WAT     H212057   7.218   1.819   1.798
 2834WAT    EPW12058   7.273   1.846   1.750
 2835WAT      O12059   7.332   2.436   0.323
 2835WAT     H112060   7.358   2.353   0.313
 2835WAT     H212061   7.251   2.428   0.355
 2835WAT    EPW12062   7.324   2.422   0.326
 2836WAT      O12063   7.340   1.657   0.853
 2836WAT     H112064   7.273   1.609   0.881
 2836WAT     H212065   7.342   1.725   0.908
 2836WAT    EPW12066   7.330   1.660   0.865
 2837WAT      O12067   7.016   2.190   0.268
 2837WAT     H112068   7.059   2.246   0.320
 2837WAT     H212069   7.057   2.199   0.191
 2837WAT    EPW12070   7.029   2.200   0.264
 2838WAT      O12071   6.475   2.385   1.343
 2838WAT     H112072   6.476   2.439   1.411
 2838WAT     H212073   6.480   2.438   1.274
 2838WAT    EPW12074   6.476   2.401   1.343
 2839WAT      O12075   6.292   2.252   1.647
 2839WAT     H112076   6.211   2.224   1.662
 2839WAT     H212077   6.283   2.338   1.639
 2839WAT    EPW12078   6.279   2.261   1.648
 2840WAT      O12079   7.231   1.274   1.501
 2840WAT     H112080   7.290   1.327   1.538
 2840WAT     H212081   7.161   1.325   1.492
 2840WAT    EPW12082   7.229   1.290   1.505
 2841WAT      O12083   6.776   2.033   1.241
 2841WAT     H112084   6.831   2.061   1.303
 2841WAT     H212085   6.697   2.047   1.275
 2841WAT    EPW12086   6.773   2.039   1.255
 2842WAT      O12087   6.415   1.590   1.626
 2842WAT     H112088   6.430   1.510   1.657
 2842WAT     H212089   6.446   1.586   1.544
 2842WAT    EPW12090   6.422   1.578   1.618
 2843WAT      O12091   6.693   2.794   0.836
 2843WAT     H112092   6.692   2.879   0.856
 2843WAT     H212093   6.711   2.793   0.751
 2843WAT    EPW12094   6.696   2.807   0.827
 2844WAT      O12095   7.294   1.137   1.269
 2844WAT     H112096   7.283   1.178   1.345
 2844WAT     H212097   7.355   1.077   1.287
 2844WAT    EPW12098   7.302   1.134   1.283
 2845WAT      O12099   6.570   1.195   1.542
 2845WAT     H112100   6.656   1.211   1.536
 2845WAT     H212101   6.566   1.108   1.542
 2845WAT    EPW12102   6.582   1.184   1.542
 2846WAT      O12103   6.504   2.576   1.143
 2846WAT     H112104   6.456   2.631   1.095
 2846WAT     H212105   6.547   2.529   1.084
 2846WAT    EPW12106   6.503   2.577   1.127
 2847WAT      O12107   6.959   2.194   1.857
 2847WAT     H112108   7.039   2.197   1.823
 2847WAT     H212109   6.908   2.226   1.794
 2847WAT    EPW12110   6.963   2.199   1.843
 2848WAT      O12111   7.241   2.486   1.740
 2848WAT     H112112   7.294   2.521   1.801
 2848WAT     H212113   7.261   2.531   1.668
 2848WAT    EPW12114   7.252   2.498   1.738
 2849WAT      O12115   7.495   1.738   0.252
 2849WAT     H112116   7.549   1.779   0.197
 2849WAT     H212117   7.423   1.788   0.251
 2849WAT    EPW12118   7.492   1.752   0.243
 2850WAT      O12119   6.296   1.676   1.177
 2850WAT     H112120   6.328   1.648   1.101
 2850WAT     H212121   6.354   1.647   1.236
 2850WAT    EPW12122   6.309   1.667   1.175
 2851WAT      O12123   6.982   1.585   1.723
 2851WAT     H112124   6.926   1.652   1.733
 2851WAT     H212125   7.023   1.582   1.800
 2851WAT    EPW12126   6.980   1.595   1.736
 2852WAT      O12127   7.044   1.699   1.358
 2852WAT     H112128   7.045   1.754   1.427
 2852WAT     H212129   7.028   1.621   1.394
 2852WAT    EPW12130   7.042   1.696   1.373
 2853WAT      O12131   6.754   2.796   1.736
 2853WAT     H112132   6.776   2.783   1.653
 2853WAT     H212133   6.719   2.720   1.760
 2853WAT    EPW12134   6.752   2.783   1.728
 2854WAT      O12135   7.248   1.675   0.591
 2854WAT     H112136   7.265   1.666   0.676
 2854WAT     H212137   7.327   1.688   0.556
 2854WAT    EPW12138   7.262   1.675   0.599
 2855WAT      O12139   6.581   1.147   1.159
 2855WAT     H112140   6.496   1.142   1.176
 2855WAT     H212141   6.584   1.153   1.072
 2855WAT    EPW12142   6.569   1.147   1.148
 2856WAT      O12143   7.425   1.254   0.706
 2856WAT     H112144   7.343   1.234   0.725
 2856WAT     H212145   7.430   1.243   0.620
 2856WAT    EPW12146   7.414   1.250   0.696
 2857WAT      O12147   7.436   2.035   0.564
 2857WAT     H112148   7.479   1.960   0.563
 2857WAT     H212149   7.352   2.011   0.568
 2857WAT    EPW12150   7.430   2.021   0.564
 2858WAT      O12151   6.776   2.254   1.648
 2858WAT     H112152   6.700   2.254   1.691
 2858WAT     H212153   6.782   2.336   1.617
 2858WAT    EPW12154   6.766   2.266   1.650
 2859WAT      O12155   5.811   1.257   1.829
 2859WAT     H112156   5.807   1.327   1.776
 2859WAT     H212157   5.727   1.235   1.840
 2859WAT    EPW12158   5.798   1.264   1.823
 2860WAT      O12159   6.299   2.917   1.236
 2860WAT     H112160   6.298   2.899   1.321
 2860WAT     H212161   6.277   2.841   1.199
 2860WAT    EPW12162   6.296   2.903   1.243
 2861WAT      O12163   6.146   1.434   0.516
 2861WAT     H112164   6.146   1.403   0.434
 2861WAT     H212165   6.064   1.422   0.543
 2861WAT    EPW12166   6.134   1.428   0.508
 2862WAT      O12167   7.049   2.246   0.826
 2862WAT     H112168   7.028   2.266   0.908
 2862WAT     H212169   7.083   2.166   0.832
 2862WAT    EPW12170   7.051   2.237   0.839
 2863WAT      O12171   6.798   2.158   0.744
 2863WAT     H112172   6.760   2.151   0.823
 2863WAT     H212173   6.877   2.188   0.762
 2863WAT    EPW12174   6.804   2.161   0.758
 2864WAT      O12175   6.791   2.526   1.565
 2864WAT     H112176   6.843   2.525   1.635
 2864WAT     H212177   6.823   2.590   1.516
 2864WAT    EPW12178   6.803   2.535   1.569
 2865WAT      O12179   7.038   1.880   1.573
 2865WAT     H112180   6.972   1.857   1.625
 2865WAT     H212181   7.108   1.873   1.624
 2865WAT    EPW12182   7.038   1.876   1.588
 2866WAT      O12183   5.983   2.868   1.750
 2866WAT     H112184   5.927   2.802   1.743
 2866WAT     H212185   5.933   2.935   1.776
 2866WAT    EPW12186   5.967   2.868   1.753
 2867WAT      O12187   6.862   1.966   1.979
 2867WAT     H112188   6.893   2.039   1.942
 2867WAT     H212189   6.781   1.988   2.004
 2867WAT    EPW12190   6.855   1.980   1.977
 2868WAT      O12191   7.152   2.872   1.024
 2868WAT     H112192   7.091   2.929   1.048
 2868WAT     H212193   7.223   2.899   1.068
 2868WAT    EPW12194   7.154   2.884   1.034
 2869WAT      O12195   6.798   2.409   1.268
 2869WAT     H112196   6.726   2.393   1.314
 2869WAT     H212197   6.855   2.436   1.329
 2869WAT    EPW12198   6.796   2.410   1.284
 2870WAT      O12199   7.420   2.562   1.944
 2870WAT     H112200   7.503   2.547   1.921
 2870WAT     H212201   7.412   2.519   2.020
 2870WAT    EPW12202   7.431   2.553   1.952
 2871WAT      O12203   6.162   1.704   1.597
 2871WAT     H112204   6.178   1.764   1.536
 2871WAT     H212205   6.239   1.663   1.605
 2871WAT    EPW12206   6.176   1.707   1.589
 2872WAT      O12207   5.969   1.548   1.468
 2872WAT     H112208   5.986   1.553   1.382
 2872WAT     H212209   6.029   1.600   1.504
 2872WAT    EPW12210   5.980   1.556   1.460
 2873WAT      O12211   7.507   1.757   0.528
 2873WAT     H112212   7.520   1.738   0.444
 2873WAT     H212213   7.537   1.686   0.570
 2873WAT    EPW12214   7.513   1.744   0.522
 2874WAT      O12215   6.193   1.242   1.741
 2874WAT     H112216   6.161   1.161   1.742
 2874WAT     H212217   6.175   1.270   1.661
 2874WAT    EPW12218   6.186   1.234   1.729
 2875WAT      O12219   6.869   2.507   0.664
 2875WAT     H112220   6.849   2.587   0.633
 2875WAT     H212221   6.797   2.461   0.648
 2875WAT    EPW12222   6.856   2.512   0.657
 2876WAT      O12223   7.380   1.890   1.480
 2876WAT     H112224   7.425   1.820   1.454
 2876WAT     H212225   7.336   1.862   1.550
 2876WAT    EPW12226   7.380   1.875   1.486
 2877WAT      O12227   5.882   2.058   1.487
 2877WAT     H112228   5.932   2.069   1.416
 2877WAT     H212229   5.860   1.973   1.483
 2877WAT    EPW12230   5.886   2.047   1.476
 2878WAT      O12231   6.929   1.274   1.818
 2878WAT     H112232   6.959   1.346   1.857
 2878WAT     H212233   6.848   1.266   1.850
 2878WAT    EPW12234   6.922   1.284   1.829
 2879WAT      O12235   6.900   1.358   0.854
 2879WAT     H112236   6.820   1.394   0.853
 2879WAT     H212237   6.897   1.300   0.789
 2879WAT    EPW12238   6.888   1.355   0.844
 2880WAT      O12239   6.401   2.438   0.346
 2880WAT     H112240   6.426   2.481   0.417
 2880WAT     H212241   6.314   2.442   0.348
 2880WAT    EPW12242   6.392   2.445   0.357
 2881WAT      O12243   7.208   1.385   1.144
 2881WAT     H112244   7.258   1.322   1.178
 2881WAT     H212245   7.238   1.458   1.180
 2881WAT    EPW12246   7.219   1.386   1.154
 2882WAT      O12247   6.406   2.001   1.573
 2882WAT     H112248   6.367   2.076   1.598
 2882WAT     H212249   6.346   1.965   1.520
 2882WAT    EPW12250   6.391   2.007   1.569
 2883WAT      O12251   7.291   1.869   1.036
 2883WAT     H112252   7.307   1.929   1.097
 2883WAT     H212253   7.245   1.912   0.976
 2883WAT    EPW12254   7.287   1.884   1.036
 2884WAT      O12255   7.305   2.704   0.647
 2884WAT     H112256   7.266   2.629   0.671
 2884WAT     H212257   7.370   2.678   0.595
 2884WAT    EPW12258   7.309   2.689   0.643
 2885WAT      O12259   6.124   2.416   0.363
 2885WAT     H112260   6.116   2.397   0.448
 2885WAT     H212261   6.123   2.337   0.325
 2885WAT    EPW12262   6.123   2.401   0.370
 2886WAT      O12263   6.410   2.166   0.285
 2886WAT     H112264   6.326   2.164   0.262
 2886WAT     H212265   6.426   2.250   0.302
 2886WAT    EPW12266   6.400   2.178   0.284
 2887WAT      O12267   6.389   1.336   1.382
 2887WAT     H112268   6.308   1.319   1.409
 2887WAT     H212269   6.438   1.280   1.426
 2887WAT    EPW12270   6.385   1.325   1.392
 2888WAT      O12271   6.770   1.337   1.237
 2888WAT     H112272   6.706   1.279   1.225
 2888WAT     H212273   6.840   1.298   1.201
 2888WAT    EPW12274   6.771   1.323   1.230
 2889WAT      O12275   7.057   2.506   1.374
 2889WAT     H112276   7.113   2.553   1.422
 2889WAT     H212277   7.063   2.543   1.295
 2889WAT    EPW12278   7.066   2.519   1.369
 2890WAT      O12279   7.014   2.858   1.817
 2890WAT     H112280   6.936   2.830   1.787
 2890WAT     H212281   7.001   2.943   1.832
 2890WAT    EPW12282   7.000   2.866   1.815
 2891WAT      O12283   6.546   1.809   1.736
 2891WAT     H112284   6.507   1.739   1.702
 2891WAT     H212285   6.507   1.876   1.697
 2891WAT    EPW12286   6.535   1.808   1.725
 2892WAT      O12287   7.479   2.257   1.358
 2892WAT     H112288   7.445   2.191   1.313
 2892WAT     H212289   7.465   2.327   1.307
 2892WAT    EPW12290   7.472   2.258   1.344
 2893WAT      O12291   6.420   2.780   1.751
 2893WAT     H112292   6.407   2.789   1.837
 2893WAT     H212293   6.479   2.716   1.747
 2893WAT    EPW12294   6.427   2.772   1.763
 2894WAT      O12295   7.394   2.694   1.251
 2894WAT     H112296   7.459   2.709   1.195
 2894WAT     H212297   7.364   2.615   1.227
 2894WAT    EPW12298   7.399   2.684   1.239
 2895WAT      O12299   6.127   1.316   1.486
 2895WAT     H112300   6.074   1.250   1.464
 2895WAT     H212301   6.077   1.387   1.475
 2895WAT    EPW12302   6.112   1.317   1.481
 2896WAT      O12303   6.981   1.232   1.090
 2896WAT     H112304   7.046   1.285   1.114
 2896WAT     H212305   6.953   1.268   1.015
 2896WAT    EPW12306   6.987   1.245   1.082
 2897WAT      O12307   6.138   2.668   1.884
 2897WAT     H112308   6.209   2.702   1.923
 2897WAT     H212309   6.101   2.737   1.845
 2897WAT    EPW12310   6.143   2.683   1.884
 2898WAT      O12311   6.967   1.763   0.896
 2898WAT     H112312   7.015   1.691   0.906
 2898WAT     H212313   6.934   1.777   0.975
 2898WAT    EPW12314   6.969   1.754   0.909
 2899WAT      O12315   5.996   1.633   0.827
 2899WAT     H112316   5.953   1.658   0.900
 2899WAT     H212317   6.037   1.560   0.852
 2899WAT    EPW12318   5.995   1.626   0.842
 2900WAT      O12319   5.979   2.456   1.594
 2900WAT     H112320   5.933   2.514   1.640
 2900WAT     H212321   6.060   2.488   1.596
 2900WAT    EPW12322   5.984   2.469   1.601
 2901WAT      O12323   7.174   1.932   0.547
 2901WAT     H112324   7.186   1.847   0.561
 2901WAT     H212325   7.095   1.936   0.510
 2901WAT    EPW12326   7.164   1.920   0.544
 2902WAT      O12327   6.149   2.778   0.494
 2902WAT     H112328   6.108   2.755   0.420
 2902WAT     H212329   6.232   2.785   0.470
 2902WAT    EPW12330   6.155   2.776   0.479
 2903WAT      O12331   6.461   1.965   0.470
 2903WAT     H112332   6.461   2.025   0.406
 2903WAT     H212333   6.545   1.962   0.493
 2903WAT    EPW12334   6.474   1.974   0.464
 2904WAT      O12335   7.443   2.831   0.281
 2904WAT     H112336   7.473   2.768   0.333
 2904WAT     H212337   7.439   2.793   0.203
 2904WAT    EPW12338   7.447   2.816   0.277
 2905WAT      O12339   7.514   1.962   1.833
 2905WAT     H112340   7.589   1.933   1.799
 2905WAT     H212341   7.494   2.031   1.784
 2905WAT    EPW12342   7.522   1.968   1.821
 2906WAT      O12343   7.076   2.408   0.446
 2906WAT     H112344   7.110   2.415   0.526
 2906WAT     H212345   6.991   2.401   0.461
 2906WAT    EPW12346   7.069   2.408   0.460
 2907WAT      O12347   7.489   1.515   2.117
 2907WAT     H112348   7.505   1.600   2.101
 2907WAT     H212349   7.442   1.490   2.048
 2907WAT    EPW12350   7.484   1.524   2.104
 2908WAT      O12351   7.490   1.651   1.395
 2908WAT     H112352   7.427   1.641   1.336
 2908WAT     H212353   7.562   1.624   1.353
 2908WAT    EPW12354   7.491   1.645   1.380
 2909WAT      O12355   6.456   1.332   1.749
 2909WAT     H112356   6.491   1.294   1.678
 2909WAT     H212357   6.375   1.299   1.751
 2909WAT    EPW12358   6.449   1.321   1.739
 2910WAT      O12359   7.249   2.130   2.058
 2910WAT     H112360   7.327   2.154   2.090
 2910WAT     H212361   7.253   2.153   1.974
 2910WAT    EPW12362   7.261   2.137   2.050
 2911WAT      O12363   6.178   2.684   1.129
 2911WAT     H112364   6.170   2.605   1.093
 2911WAT     H212365   6.140   2.737   1.072
 2911WAT    EPW12366   6.171   2.680   1.116
 2912WAT      O12367   6.802   2.348   0.365
 2912WAT     H112368   6.847   2.294   0.315
 2912WAT     H212369   6.785   2.416   0.313
 2912WAT    EPW12370   6.806   2.350   0.350
 2913WAT      O12371   5.947   2.932   1.478
 2913WAT     H112372   5.964   2.912   1.561
 2913WAT     H212373   5.978   2.863   1.434
 2913WAT    EPW12374   5.954   2.919   1.484
 2914WAT      O12375   5.839   0.404   6.409
 2914WAT     H112376   5.852   0.450   6.482
 2914WAT     H212377   5.794   0.335   6.436
 2914WAT    EPW12378   5.834   0.401   6.423
 2915WAT      O12379   7.491   0.852   6.124
 2915WAT     H112380   7.570   0.831   6.155
 2915WAT     H212381   7.460   0.776   6.094
 2915WAT    EPW12382   7.498   0.838   6.124
 2916WAT      O12383   6.128   0.350   5.873
 2916WAT     H112384   6.092   0.343   5.794
 2916WAT     H212385   6.136   0.268   5.900
 2916WAT    EPW12386   6.124   0.337   5.866
 2917WAT      O12387   6.096   0.479   6.303
 2917WAT     H112388   6.161   0.431   6.336
 2917WAT     H212389   6.024   0.438   6.331
 2917WAT    EPW12390   6.095   0.466   6.312
 2918WAT      O12391   5.963   0.764   5.906
 2918WAT     H112392   6.014   0.781   5.837
 2918WAT     H212393   6.011   0.708   5.953
 2918WAT    EPW12394   5.978   0.758   5.903
 2919WAT      O12395   5.875   0.687   7.063
 2919WAT     H112396   5.900   0.666   7.144
 2919WAT     H212397   5.813   0.628   7.045
 2919WAT    EPW12398   5.870   0.675   7.073
 2920WAT      O12399   6.519   0.460   7.464
 2920WAT     H112400   6.511   0.414   7.537
 2920WAT     H212401   6.448   0.437   7.418
 2920WAT    EPW12402   6.507   0.450   7.468
 2921WAT      O12403   6.487   0.720   7.234
 2921WAT     H112404   6.465   0.799   7.205
 2921WAT     H212405   6.573   0.726   7.248
 2921WAT    EPW12406   6.496   0.732   7.232
 2922WAT      O12407   6.634   0.566   6.655
 2922WAT     H112408   6.654   0.485   6.682
 2922WAT     H212409   6.712   0.605   6.649
 2922WAT    EPW12410   6.649   0.560   6.658
 2923WAT      O12411   6.729   0.525   6.287
 2923WAT     H112412   6.733   0.453   6.335
 2923WAT     H212413   6.746   0.497   6.206
 2923WAT    EPW12414   6.732   0.510   6.282
 2924WAT      O12415   5.862   0.863   6.568
 2924WAT     H112416   5.798   0.908   6.529
 2924WAT     H212417   5.902   0.822   6.503
 2924WAT    EPW12418   5.858   0.863   6.553
 2925WAT      O12419   6.476   0.634   6.255
 2925WAT     H112420   6.441   0.613   6.331
 2925WAT     H212421   6.557   0.601   6.260
 2925WAT    EPW12422   6.483   0.626   6.267
 2926WAT      O12423   7.037   0.886   6.060
 2926WAT     H112424   7.103   0.942   6.062
 2926WAT     H212425   7.074   0.808   6.073
 2926WAT    EPW12426   7.052   0.883   6.062
 2927WAT      O12427   6.850   0.919   6.256
 2927WAT     H112428   6.870   0.994   6.296
 2927WAT     H212429   6.910   0.912   6.193
 2927WAT    EPW12430   6.862   0.929   6.253
 2928WAT      O12431   6.004   0.744   6.351
 2928WAT     H112432   6.050   0.670   6.353
 2928WAT     H212433   6.053   0.797   6.301
 2928WAT    EPW12434   6.018   0.741   6.344
 2929WAT      O12435   7.081   0.963   7.024
 2929WAT     H112436   7.145   1.019   7.004
 2929WAT     H212437   7.074   0.914   6.952
 2929WAT    EPW12438   7.089   0.964   7.010
 2930WAT      O12439   6.164   0.602   6.677
 2930WAT     H112440   6.233   0.594   6.624
 2930WAT     H212441   6.183   0.548   6.743
 2930WAT    EPW12442   6.177   0.593   6.679
 2931WAT      O12443   6.420   0.867   6.569
 2931WAT     H112444   6.499   0.894   6.544
 2931WAT     H212445   6.366   0.926   6.532
 2931WAT    EPW12446   6.424   0.880   6.560
 2932WAT      O12447   7.234   1.084   6.039
 2932WAT     H112448   7.282   1.051   5.974
 2932WAT     H212449   7.289   1.138   6.080
 2932WAT    EPW12450   7.249   1.087   6.036
 2933WAT      O12451   6.344   0.950   7.169
 2933WAT     H112452   6.350   0.971   7.253
 2933WAT     H212453   6.262   0.921   7.161
 2933WAT    EPW12454   6.332   0.949   7.180
 2934WAT      O12455   6.950   0.729   7.475
 2934WAT     H112456   6.936   0.654   7.517
 2934WAT     H212457   7.036   0.728   7.458
 2934WAT    EPW12458   6.960   0.718   7.479
 2935WAT      O12459   6.732   0.698   5.870
 2935WAT     H112460   6.701   0.757   5.926
 2935WAT     H212461   6.808   0.730   5.844
 2935WAT    EPW12462   6.738   0.711   5.874
 2936WAT      O12463   6.090   0.865   7.068
 2936WAT     H112464   6.025   0.807   7.069
 2936WAT     H212465   6.123   0.857   6.987
 2936WAT    EPW12466   6.085   0.855   7.056
 2937WAT      O12467   6.847   0.957   7.163
 2937WAT     H112468   6.924   0.957   7.123
 2937WAT     H212469   6.790   0.959   7.098
 2937WAT    EPW12470   6.850   0.957   7.148
 2938WAT      O12471   7.449   1.013   6.576
 2938WAT     H112472   7.463   1.090   6.537
 2938WAT     H212473   7.416   0.964   6.512
 2938WAT    EPW12474   7.446   1.018   6.561
 2939WAT      O12475   7.215   0.633   6.374
 2939WAT     H112476   7.239   0.553   6.397
 2939WAT     H212477   7.131   0.637   6.397
 2939WAT    EPW12478   7.206   0.622   6.381
 2940WAT      O12479   6.240   0.661   7.361
 2940WAT     H112480   6.316   0.686   7.325
 2940WAT     H212481   6.228   0.717   7.426
 2940WAT    EPW12482   6.250   0.673   7.365
 2941WAT      O12483   6.401   0.229   6.831
 2941WAT     H112484   6.422   0.232   6.916
 2941WAT     H212485   6.363   0.152   6.822
 2941WAT    EPW12486   6.399   0.218   6.842
 2942WAT      O12487   6.468   0.311   7.094
 2942WAT     H112488   6.464   0.394   7.067
 2942WAT     H212489   6.415   0.310   7.164
 2942WAT    EPW12490   6.459   0.323   7.101
 2943WAT      O12491   7.121   0.388   7.068
 2943WAT     H112492   7.059   0.340   7.103
 2943WAT     H212493   7.094   0.470   7.081
 2943WAT    EPW12494   7.108   0.393   7.075
 2944WAT      O12495   7.486   0.376   6.014
 2944WAT     H112496   7.458   0.315   6.070
 2944WAT     H212497   7.483   0.336   5.937
 2944WAT    EPW12498   7.482   0.361   6.011
 2945WAT      O12499   6.097   0.153   6.532
 2945WAT     H112500   6.164   0.194   6.494
 2945WAT     H212501   6.089   0.079   6.486
 2945WAT    EPW12502   6.105   0.148   6.520
 2946WAT      O12503   6.061   1.029   6.659
 2946WAT     H112504   5.989   0.989   6.631
 2946WAT     H212505   6.110   1.035   6.587
 2946WAT    EPW12506   6.058   1.024   6.644
 2947WAT      O12507   6.300   0.335   6.424
 2947WAT     H112508   6.336   0.404   6.464
 2947WAT     H212509   6.366   0.299   6.381
 2947WAT    EPW12510   6.315   0.340   6.424
 2948WAT      O12511   5.898   0.528   6.648
 2948WAT     H112512   5.850   0.586   6.692
 2948WAT     H212513   5.979   0.562   6.652
 2948WAT    EPW12514   5.903   0.542   6.655
 2949WAT      O12515   6.851   0.739   6.624
 2949WAT     H112516   6.802   0.808   6.602
 2949WAT     H212517   6.887   0.715   6.548
 2949WAT    EPW12518   6.849   0.746   6.610
 2950WAT      O12519   5.809   0.601   6.214
 2950WAT     H112520   5.869   0.653   6.249
 2950WAT     H212521   5.802   0.536   6.272
 2950WAT    EPW12522   5.817   0.599   6.228
 2951WAT      O12523   6.225   0.440   6.887
 2951WAT     H112524   6.282   0.488   6.934
 2951WAT     H212525   6.274   0.373   6.860
 2951WAT    EPW12526   6.241   0.437   6.890
 2952WAT      O12527   5.833   0.451   5.979
 2952WAT     H112528   5.917   0.433   5.964
 2952WAT     H212529   5.835   0.504   6.048
 2952WAT    EPW12530   5.845   0.456   5.987
 2953WAT      O12531   5.916   0.260   6.716
 2953WAT     H112532   5.974   0.223   6.663
 2953WAT     H212533   5.920   0.345   6.696
 2953WAT    EPW12534   5.925   0.267   6.705
 2954WAT      O12535   7.301   0.814   7.203
 2954WAT     H112536   7.300   0.897   7.230
 2954WAT     H212537   7.336   0.819   7.123
 2954WAT    EPW12538   7.306   0.827   7.195
 2955WAT      O12539   6.396   0.597   6.520
 2955WAT     H112540   6.393   0.684   6.528
 2955WAT     H212541   6.471   0.575   6.558
 2955WAT    EPW12542   6.406   0.606   6.527
 2956WAT      O12543   6.641   0.956   6.984
 2956WAT     H112544   6.606   0.887   6.943
 2956WAT     H212545   6.636   1.020   6.924
 2956WAT    EPW12546   6.635   0.955   6.969
 2957WAT      O12547   7.185   0.426   7.459
 2957WAT     H112548   7.205   0.511   7.458
 2957WAT     H212549   7.234   0.392   7.395
 2957WAT    EPW12550   7.195   0.433   7.450
 2958WAT      O12551   6.585   0.743   7.527
 2958WAT     H112552   6.609   0.729   7.610
 2958WAT     H212553   6.562   0.664   7.498
 2958WAT    EPW12554   6.585   0.729   7.535
 2959WAT      O12555   7.300   0.369   6.426
 2959WAT     H112556   7.366   0.364   6.483
 2959WAT     H212557   7.328   0.322   6.358
 2959WAT    EPW12558   7.314   0.361   6.424
 2960WAT      O12559   7.061   0.780   6.808
 2960WAT     H112560   6.991   0.761   6.760
 2960WAT     H212561   7.099   0.845   6.763
 2960WAT    EPW12562   7.056   0.787   6.794
 2961WAT      O12563   7.058   0.431   6.785
 2961WAT     H112564   6.986   0.475   6.809
 2961WAT     H212565   7.080   0.388   6.857
 2961WAT    EPW12566   7.050   0.431   6.799
 2962WAT      O12567   6.444   0.904   6.210
 2962WAT     H112568   6.453   0.823   6.241
 2962WAT     H212569   6.507   0.911   6.151
 2962WAT    EPW12570   6.454   0.893   6.206
 2963WAT      O12571   6.664   0.900   6.046
 2963WAT     H112572   6.722   0.909   6.110
 2963WAT     H212573   6.666   0.977   6.005
 2963WAT    EPW12574   6.673   0.913   6.049
 2964WAT      O12575   7.335   0.323   7.241
 2964WAT     H112576   7.267   0.330   7.186
 2964WAT     H212577   7.402   0.354   7.194
 2964WAT    EPW12578   7.335   0.329   7.226
 2965WAT      O12579   6.917   0.246   7.194
 2965WAT     H112580   6.870   0.301   7.241
 2965WAT     H212581   6.936   0.181   7.250
 2965WAT    EPW12582   6.913   0.244   7.209
 2966WAT      O12583   7.306   0.552   6.893
 2966WAT     H112584   7.250   0.546   6.827
 2966WAT     H212585   7.263   0.516   6.960
 2966WAT    EPW12586   7.292   0.546   6.894
 2967WAT      O12587   6.654   0.293   6.715
 2967WAT     H112588   6.572   0.270   6.734
 2967WAT     H212589   6.696   0.283   6.791
 2967WAT    EPW12590   6.648   0.288   6.729
 2968WAT      O12591   6.342   0.915   5.839
 2968WAT     H112592   6.367   0.845   5.884
 2968WAT     H212593   6.351   0.981   5.896
 2968WAT    EPW12594   6.347   0.914   5.854
 2969WAT      O12595   5.975   0.350   6.975
 2969WAT     H112596   6.051   0.387   6.955
 2969WAT     H212597   5.958   0.299   6.906
 2969WAT    EPW12598   5.984   0.348   6.962
 2970WAT      O12599   5.993   0.351   7.258
 2970WAT     H112600   5.990   0.348   7.171
 2970WAT     H212601   5.979   0.435   7.276
 2970WAT    EPW12602   5.990   0.363   7.247
 2971WAT      O12603   7.384   0.629   6.006
 2971WAT     H112604   7.415   0.548   6.014
 2971WAT     H212605   7.301   0.622   6.033
 2971WAT    EPW12606   7.376   0.616   6.011
 2972WAT      O12607   7.031   0.414   5.929
 2972WAT     H112608   7.085   0.346   5.931
 2972WAT     H212609   7.010   0.421   5.844
 2972WAT    EPW12610   7.036   0.405   5.917
 2973WAT      O12611   6.437   0.572   7.009
 2973WAT     H112612   6.449   0.616   7.083
 2973WAT     H212613   6.463   0.628   6.947
 2973WAT    EPW12614   6.442   0.587   7.011
 2974WAT      O12615   6.283   0.389   7.311
 2974WAT     H112616   6.205   0.351   7.303
 2974WAT     H212617   6.263   0.473   7.323
 2974WAT    EPW12618   6.269   0.396   7.312
 2975WAT      O12619   6.730   0.289   6.990
 2975WAT     H112620   6.788   0.259   7.047
 2975WAT     H212621   6.655   0.288   7.034
 2975WAT    EPW12622   6.727   0.284   7.005
 2976WAT      O12623   6.684   0.939   6.506
 2976WAT     H112624   6.686   1.025   6.519
 2976WAT     H212625   6.713   0.930   6.424
 2976WAT    EPW12626   6.688   0.950   6.496
 2977WAT      O12627   6.520   0.757   6.821
 2977WAT     H112628   6.474   0.801   6.761
 2977WAT     H212629   6.567   0.701   6.774
 2977WAT    EPW12630   6.520   0.755   6.806
 2978WAT      O12631   6.920   0.465   7.550
 2978WAT     H112632   7.000   0.439   7.528
 2978WAT     H212633   6.871   0.445   7.481
 2978WAT    EPW12634   6.925   0.458   7.537
 2979WAT      O12635   7.228   0.701   7.444
 2979WAT     H112636   7.266   0.756   7.500
 2979WAT     H212637   7.256   0.728   7.366
 2979WAT    EPW12638   7.238   0.713   7.441
 2980WAT      O12639   6.564   0.286   6.020
 2980WAT     H112640   6.511   0.321   5.959
 2980WAT     H212641   6.635   0.336   6.015
 2980WAT    EPW12642   6.566   0.299   6.010
 2981WAT      O12643   6.728   0.977   7.427
 2981WAT     H112644   6.766   0.968   7.349
 2981WAT     H212645   6.710   0.895   7.451
 2981WAT    EPW12646   6.731   0.964   7.419
 2982WAT      O12647   7.391   0.197   6.216
 2982WAT     H112648   7.453   0.139   6.238
 2982WAT     H212649   7.324   0.147   6.190
 2982WAT    EPW12650   7.390   0.181   6.216
 2983WAT      O12651   6.760   0.434   7.322
 2983WAT     H112652   6.682   0.432   7.360
 2983WAT     H212653   6.765   0.514   7.289
 2983WAT    EPW12654   6.749   0.445   7.323
 2984WAT      O12655   6.342   1.054   6.905
 2984WAT     H112656   6.351   1.031   6.989
 2984WAT     H212657   6.305   0.984   6.869
 2984WAT    EPW12658   6.337   1.040   6.912
 2985WAT      O12659   7.028   0.360   6.513
 2985WAT     H112660   7.036   0.381   6.598
 2985WAT     H212661   7.110   0.352   6.485
 2985WAT    EPW12662   7.041   0.362   6.522
 2986WAT      O12663   6.761   0.299   6.448
 2986WAT     H112664   6.727   0.290   6.528
 2986WAT     H212665   6.846   0.308   6.462
 2986WAT    EPW12666   6.768   0.299   6.462
 2987WAT      O12667   6.775   0.706   7.261
 2987WAT     H112668   6.827   0.712   7.331
 2987WAT     H212669   6.803   0.771   7.210
 2987WAT    EPW12670   6.787   0.716   7.264
 2988WAT      O12671   5.992   1.033   7.415
 2988WAT     H112672   5.932   0.971   7.407
 2988WAT     H212673   5.947   1.101   7.445
 2988WAT    EPW12674   5.976   1.034   7.419
 2989WAT      O12675   7.153   1.027   6.710
 2989WAT     H112676   7.099   1.084   6.748
 2989WAT     H212677   7.232   1.049   6.742
 2989WAT    EPW12678   7.157   1.038   6.720
 2990WAT      O12679   6.834   0.539   6.913
 2990WAT     H112680   6.794   0.468   6.946
 2990WAT     H212681   6.865   0.580   6.983
 2990WAT    EPW12682   6.833   0.534   6.928
 2991WAT      O12683   6.940   0.680   6.370
 2991WAT     H112684   6.917   0.756   6.334
 2991WAT     H212685   6.877   0.625   6.345
 2991WAT    EPW12686   6.927   0.683   6.361
 2992WAT      O12687   6.377   0.672   5.987
 2992WAT     H112688   6.420   0.663   6.063
 2992WAT     H212689   6.294   0.653   6.009
 2992WAT    EPW12690   6.371   0.668   6.002
 2993WAT      O12691   7.323   0.891   6.350
 2993WAT     H112692   7.292   0.809   6.359
 2993WAT     H212693   7.371   0.886   6.277
 2993WAT    EPW12694   7.325   0.878   6.340
 2994WAT      O12695   6.122   0.574   6.041
 2994WAT     H112696   6.116   0.546   6.123
 2994WAT     H212697   6.131   0.501   5.994
 2994WAT    EPW12698   6.123   0.559   6.046
 2995WAT      O12699   6.405   0.436   5.837
 2995WAT     H112700   6.321   0.411   5.841
 2995WAT     H212701   6.406   0.512   5.878
 2995WAT    EPW12702   6.393   0.443   5.843
 2996WAT      O12703   7.061   0.659   7.065
 2996WAT     H112704   7.103   0.718   7.112
 2996WAT     H212705   7.065   0.690   6.983
 2996WAT    EPW12706   7.068   0.672   7.060
 2997WAT      O12707   7.051   1.008   7.454
 2997WAT     H112708   6.991   0.947   7.471
 2997WAT     H212709   7.011   1.082   7.478
 2997WAT    EPW12710   7.036   1.010   7.460
 2998WAT      O12711   7.514   0.428   7.051
 2998WAT     H112712   7.597   0.431   7.023
 2998WAT     H212713   7.470   0.470   6.989
 2998WAT    EPW12714   7.520   0.435   7.038
 2999WAT      O12715   6.420   0.964   7.445
 2999WAT     H112716   6.471   1.034   7.458
 2999WAT     H212717   6.471   0.897   7.465
 2999WAT    EPW12718   6.435   0.965   7.450
 3000WAT      O12719   7.387   0.823   6.930
 3000WAT     H112720   7.433   0.843   6.859
 3000WAT     H212721   7.358   0.742   6.915
 3000WAT    EPW12722   7.389   0.814   6.918
 3001WAT      O12723   6.180   0.863   7.540
 3001WAT     H112724   6.255   0.906   7.527
 3001WAT     H212725   6.119   0.917   7.511
 3001WAT    EPW12726   6.182   0.877   7.534
 3002WAT      O12727   5.963   0.627   7.316
 3002WAT     H112728   5.916   0.683   7.364
 3002WAT     H212729   6.045   0.649   7.332
 3002WAT    EPW12730   5.968   0.638   7.326
 3003WAT      O12731   6.168   0.912   6.196
 3003WAT     H112732   6.142   0.951   6.123
 3003WAT     H212733   6.254   0.907   6.188
 3003WAT    EPW12734   6.177   0.917   6.184
 3004WAT      O12735   6.523   0.236   6.294
 3004WAT     H112736   6.536   0.245   6.208
 3004WAT     H212737   6.603   0.242   6.328
 3004WAT    EPW12738   6.536   0.238   6.286
 3005WAT      O12739   7.428   0.971   5.875
 3005WAT     H112740   7.461   0.943   5.951
 3005WAT     H212741   7.423   0.898   5.826
 3005WAT    EPW12742   7.432   0.956   5.879
 3006WAT      O12743   7.449   0.165   7.451
 3006WAT     H112744   7.534   0.182   7.440
 3006WAT     H212745   7.411   0.204   7.382
 3006WAT    EPW12746   7.456   0.173   7.439
 3007WAT      O12747   7.122   0.626   6.091
 3007WAT     H112748   7.118   0.602   6.175
 3007WAT     H212749   7.085   0.559   6.049
 3007WAT    EPW12750   7.116   0.612   6.097
 3008WAT      O12751   7.298   0.268   7.669
 3008WAT     H112752   7.350   0.225   7.613
 3008WAT     H212753   7.255   0.324   7.617
 3008WAT    EPW12754   7.300   0.270   7.653
 3009WAT      O12755   6.186   0.843   6.811
 3009WAT     H112756   6.182   0.768   6.767
 3009WAT     H212757   6.143   0.899   6.760
 3009WAT    EPW12758   6.179   0.840   6.797
 3010WAT      O12759   6.775   0.466   6.020
 3010WAT     H112760   6.854   0.440   5.994
 3010WAT     H212761   6.758   0.536   5.971
 3010WAT    EPW12762   6.784   0.473   6.009
 3011WAT      O12763   5.951   1.093   7.146
 3011WAT     H112764   5.963   1.075   7.231
 3011WAT     H212765   5.989   1.025   7.106
 3011WAT    EPW12766   5.958   1.080   7.153
 3012WAT      O12767   5.839   0.404   4.512
 3012WAT     H112768   5.854   0.451   4.584
 3012WAT     H212769   5.791   0.337   4.541
 3012WAT    EPW12770   5.834   0.401   4.527
 3013WAT      O12771   7.490   0.850   4.223
 3013WAT     H112772   7.567   0.828   4.257
 3013WAT     H212773   7.458   0.775   4.194
 3013WAT    EPW12774   7.497   0.836   4.224
 3014WAT      O12775   6.127   0.347   3.976
 3014WAT     H112776   6.090   0.339   3.898
 3014WAT     H212777   6.135   0.264   4.004
 3014WAT    EPW12778   6.123   0.333   3.969
 3015WAT      O12779   6.096   0.476   4.405
 3015WAT     H112780   6.160   0.428   4.439
 3015WAT     H212781   6.023   0.436   4.433
 3015WAT    EPW12782   6.095   0.463   4.414
 3016WAT      O12783   5.966   0.756   4.004
 3016WAT     H112784   6.018   0.773   3.936
 3016WAT     H212785   6.013   0.701   4.052
 3016WAT    EPW12786   5.981   0.751   4.001
 3017WAT      O12787   5.883   0.686   5.153
 3017WAT     H112788   5.918   0.660   5.228
 3017WAT     H212789   5.814   0.633   5.143
 3017WAT    EPW12790   5.878   0.674   5.163
 3018WAT      O12791   6.515   0.464   5.578
 3018WAT     H112792   6.488   0.449   5.659
 3018WAT     H212793   6.448   0.439   5.528
 3018WAT    EPW12794   6.501   0.458   5.582
 3019WAT      O12795   6.503   0.745   5.325
 3019WAT     H112796   6.504   0.820   5.280
 3019WAT     H212797   6.587   0.729   5.340
 3019WAT    EPW12798   6.515   0.754   5.320
 3020WAT      O12799   6.637   0.560   4.746
 3020WAT     H112800   6.657   0.481   4.777
 3020WAT     H212801   6.714   0.601   4.741
 3020WAT    EPW12802   6.651   0.555   4.750
 3021WAT      O12803   6.729   0.525   4.387
 3021WAT     H112804   6.732   0.452   4.436
 3021WAT     H212805   6.745   0.496   4.306
 3021WAT    EPW12806   6.732   0.510   4.382
 3022WAT      O12807   5.861   0.863   4.668
 3022WAT     H112808   5.799   0.909   4.627
 3022WAT     H212809   5.901   0.822   4.602
 3022WAT    EPW12810   5.858   0.864   4.652
 3023WAT      O12811   6.477   0.635   4.355
 3023WAT     H112812   6.440   0.612   4.431
 3023WAT     H212813   6.558   0.603   4.361
 3023WAT    EPW12814   6.484   0.627   4.367
 3024WAT      O12815   7.038   0.885   4.159
 3024WAT     H112816   7.105   0.941   4.162
 3024WAT     H212817   7.076   0.808   4.174
 3024WAT    EPW12818   7.054   0.882   4.162
 3025WAT      O12819   6.853   0.919   4.357
 3025WAT     H112820   6.873   0.994   4.398
 3025WAT     H212821   6.912   0.914   4.293
 3025WAT    EPW12822   6.865   0.929   4.354
 3026WAT      O12823   6.003   0.741   4.451
 3026WAT     H112824   6.049   0.668   4.454
 3026WAT     H212825   6.051   0.795   4.403
 3026WAT    EPW12826   6.017   0.738   4.445
 3027WAT      O12827   7.073   0.964   5.121
 3027WAT     H112828   7.136   1.022   5.102
 3027WAT     H212829   7.067   0.917   5.048
 3027WAT    EPW12830   7.082   0.966   5.107
 3028WAT      O12831   6.167   0.609   4.785
 3028WAT     H112832   6.235   0.597   4.732
 3028WAT     H212833   6.183   0.554   4.851
 3028WAT    EPW12834   6.179   0.599   4.787
 3029WAT      O12835   6.421   0.862   4.668
 3029WAT     H112836   6.500   0.890   4.645
 3029WAT     H212837   6.367   0.921   4.635
 3029WAT    EPW12838   6.424   0.875   4.660
 3030WAT      O12839   7.234   1.084   4.138
 3030WAT     H112840   7.283   1.052   4.073
 3030WAT     H212841   7.288   1.139   4.179
 3030WAT    EPW12842   7.249   1.087   4.135
 3031WAT      O12843   6.328   0.989   5.295
 3031WAT     H112844   6.343   0.978   5.380
 3031WAT     H212845   6.254   0.945   5.282
 3031WAT    EPW12846   6.319   0.981   5.306
 3032WAT      O12847   6.976   0.685   5.550
 3032WAT     H112848   6.970   0.716   5.631
 3032WAT     H212849   7.062   0.674   5.539
 3032WAT    EPW12850   6.988   0.688   5.560
 3033WAT      O12851   6.730   0.700   3.969
 3033WAT     H112852   6.701   0.759   4.025
 3033WAT     H212853   6.807   0.732   3.943
 3033WAT    EPW12854   6.737   0.713   3.973
 3034WAT      O12855   6.087   0.876   5.177
 3034WAT     H112856   6.021   0.820   5.175
 3034WAT     H212857   6.123   0.870   5.098
 3034WAT    EPW12858   6.083   0.867   5.165
 3035WAT      O12859   6.843   0.962   5.264
 3035WAT     H112860   6.917   0.963   5.219
 3035WAT     H212861   6.781   0.958   5.203
 3035WAT    EPW12862   6.845   0.962   5.248
 3036WAT      O12863   7.459   1.015   4.664
 3036WAT     H112864   7.470   1.093   4.626
 3036WAT     H212865   7.422   0.967   4.601
 3036WAT    EPW12866   7.455   1.020   4.649
 3037WAT      O12867   7.224   0.642   4.500
 3037WAT     H112868   7.246   0.558   4.507
 3037WAT     H212869   7.137   0.642   4.506
 3037WAT    EPW12870   7.214   0.630   4.502
 3038WAT      O12871   6.254   0.684   5.461
 3038WAT     H112872   6.328   0.716   5.428
 3038WAT     H212873   6.240   0.732   5.532
 3038WAT    EPW12874   6.263   0.696   5.466
 3039WAT      O12875   6.400   0.239   4.930
 3039WAT     H112876   6.420   0.238   5.015
 3039WAT     H212877   6.359   0.163   4.918
 3039WAT    EPW12878   6.397   0.228   4.941
 3040WAT      O12879   6.465   0.315   5.196
 3040WAT     H112880   6.461   0.399   5.172
 3040WAT     H212881   6.416   0.311   5.268
 3040WAT    EPW12882   6.458   0.327   5.203
 3041WAT      O12883   7.105   0.395   5.158
 3041WAT     H112884   7.046   0.347   5.200
 3041WAT     H212885   7.079   0.477   5.173
 3041WAT    EPW12886   7.093   0.400   5.167
 3042WAT      O12887   5.761   0.667   5.726
 3042WAT     H112888   5.817   0.672   5.792
 3042WAT     H212889   5.752   0.581   5.712
 3042WAT    EPW12890   5.768   0.655   5.733
 3043WAT      O12891   7.486   0.377   4.113
 3043WAT     H112892   7.459   0.317   4.169
 3043WAT     H212893   7.483   0.337   4.036
 3043WAT    EPW12894   7.482   0.362   4.110
 3044WAT      O12895   6.107   0.150   4.646
 3044WAT     H112896   6.171   0.194   4.605
 3044WAT     H212897   6.097   0.078   4.597
 3044WAT    EPW12898   6.115   0.146   4.632
 3045WAT      O12899   6.060   1.028   4.762
 3045WAT     H112900   5.989   0.987   4.734
 3045WAT     H212901   6.111   1.034   4.691
 3045WAT    EPW12902   6.057   1.023   4.747
 3046WAT      O12903   6.299   0.333   4.527
 3046WAT     H112904   6.335   0.403   4.565
 3046WAT     H212905   6.365   0.298   4.482
 3046WAT    EPW12906   6.314   0.338   4.526
 3047WAT      O12907   5.903   0.530   4.749
 3047WAT     H112908   5.853   0.586   4.793
 3047WAT     H212909   5.983   0.565   4.756
 3047WAT    EPW12910   5.908   0.543   4.757
 3048WAT      O12911   6.855   0.733   4.715
 3048WAT     H112912   6.805   0.801   4.693
 3048WAT     H212913   6.892   0.710   4.639
 3048WAT    EPW12914   6.853   0.740   4.700
 3049WAT      O12915   5.811   0.595   4.314
 3049WAT     H112916   5.870   0.649   4.349
 3049WAT     H212917   5.804   0.531   4.373
 3049WAT    EPW12918   5.819   0.594   4.328
 3050WAT      O12919   6.219   0.443   4.995
 3050WAT     H112920   6.274   0.490   5.045
 3050WAT     H212921   6.270   0.378   4.966
 3050WAT    EPW12922   6.235   0.440   4.998
 3051WAT      O12923   5.835   0.444   4.080
 3051WAT     H112924   5.919   0.426   4.065
 3051WAT     H212925   5.836   0.498   4.148
 3051WAT    EPW12926   5.847   0.449   4.088
 3052WAT      O12927   5.916   0.260   4.818
 3052WAT     H112928   5.977   0.223   4.768
 3052WAT     H212929   5.922   0.345   4.798
 3052WAT    EPW12930   5.926   0.267   4.807
 3053WAT      O12931   7.294   0.803   5.314
 3053WAT     H112932   7.286   0.882   5.351
 3053WAT     H212933   7.333   0.820   5.238
 3053WAT    EPW12934   7.298   0.817   5.308
 3054WAT      O12935   6.394   0.593   4.620
 3054WAT     H112936   6.392   0.679   4.627
 3054WAT     H212937   6.470   0.570   4.656
 3054WAT    EPW12938   6.405   0.602   4.626
 3055WAT      O12939   6.623   0.929   5.102
 3055WAT     H112940   6.599   0.864   5.049
 3055WAT     H212941   6.615   1.000   5.052
 3055WAT    EPW12942   6.618   0.930   5.087
 3056WAT      O12943   7.266   0.375   5.573
 3056WAT     H112944   7.268   0.462   5.564
 3056WAT     H212945   7.284   0.346   5.493
 3056WAT    EPW12946   7.269   0.384   5.560
 3057WAT      O12947   6.605   0.731   5.624
 3057WAT     H112948   6.638   0.718   5.703
 3057WAT     H212949   6.577   0.652   5.600
 3057WAT    EPW12950   6.606   0.718   5.632
 3058WAT      O12951   7.299   0.371   4.523
 3058WAT     H112952   7.363   0.364   4.582
 3058WAT     H212953   7.329   0.324   4.456
 3058WAT    EPW12954   7.313   0.363   4.522
 3059WAT      O12955   7.059   0.784   4.903
 3059WAT     H112956   6.992   0.762   4.852
 3059WAT     H212957   7.098   0.848   4.859
 3059WAT    EPW12958   7.055   0.790   4.889
 3060WAT      O12959   7.047   0.439   4.878
 3060WAT     H112960   6.974   0.481   4.902
 3060WAT     H212961   7.071   0.397   4.951
 3060WAT    EPW12962   7.039   0.439   4.893
 3061WAT      O12963   6.441   0.905   4.308
 3061WAT     H112964   6.451   0.825   4.340
 3061WAT     H212965   6.506   0.912   4.250
 3061WAT    EPW12966   6.452   0.895   4.304
 3062WAT      O12967   6.664   0.900   4.148
 3062WAT     H112968   6.723   0.909   4.212
 3062WAT     H212969   6.665   0.978   4.108
 3062WAT    EPW12970   6.673   0.913   4.151
 3063WAT      O12971   7.322   0.307   5.313
 3063WAT     H112972   7.254   0.329   5.262
 3063WAT     H212973   7.391   0.332   5.265
 3063WAT    EPW12974   7.322   0.314   5.298
 3064WAT      O12975   6.970   0.821   5.798
 3064WAT     H112976   6.995   0.844   5.879
 3064WAT     H212977   6.994   0.888   5.749
 3064WAT    EPW12978   6.977   0.834   5.803
 3065WAT      O12979   6.913   0.253   5.305
 3065WAT     H112980   6.869   0.306   5.359
 3065WAT     H212981   6.940   0.188   5.356
 3065WAT    EPW12982   6.911   0.252   5.320
 3066WAT      O12983   7.298   0.569   4.993
 3066WAT     H112984   7.242   0.568   4.926
 3066WAT     H212985   7.253   0.530   5.057
 3066WAT    EPW12986   7.283   0.563   4.993
 3067WAT      O12987   6.657   0.291   4.818
 3067WAT     H112988   6.574   0.271   4.837
 3067WAT     H212989   6.699   0.281   4.894
 3067WAT    EPW12990   6.651   0.286   4.832
 3068WAT      O12991   6.348   0.912   3.934
 3068WAT     H112992   6.373   0.843   3.981
 3068WAT     H212993   6.353   0.978   3.991
 3068WAT    EPW12994   6.352   0.912   3.949
 3069WAT      O12995   5.970   0.345   5.079
 3069WAT     H112996   6.045   0.385   5.059
 3069WAT     H212997   5.954   0.296   5.009
 3069WAT    EPW12998   5.979   0.344   5.066
 3070WAT      O12999   6.003   0.350   5.361
 3070WAT     H113000   5.995   0.341   5.275
 3070WAT     H213001   5.991   0.436   5.374
 3070WAT    EPW13002   6.000   0.361   5.350
 3071WAT      O13003   7.377   0.628   4.108
 3071WAT     H113004   7.411   0.548   4.116
 3071WAT     H213005   7.296   0.619   4.140
 3071WAT    EPW13006   7.370   0.615   4.114
 3072WAT      O13007   7.029   0.416   4.026
 3072WAT     H113008   7.084   0.348   4.031
 3072WAT     H213009   7.009   0.420   3.941
 3072WAT    EPW13010   7.034   0.407   4.014
 3073WAT      O13011   6.428   0.578   5.120
 3073WAT     H113012   6.445   0.626   5.190
 3073WAT     H213013   6.456   0.627   5.053
 3073WAT    EPW13014   6.435   0.592   5.120
 3074WAT      O13015   6.285   0.406   5.414
 3074WAT     H113016   6.205   0.372   5.403
 3074WAT     H213017   6.270   0.491   5.423
 3074WAT    EPW13018   6.271   0.413   5.414
 3075WAT      O13019   6.728   0.291   5.096
 3075WAT     H113020   6.785   0.264   5.157
 3075WAT     H213021   6.652   0.290   5.138
 3075WAT    EPW13022   6.726   0.287   5.111
 3076WAT      O13023   6.685   0.936   4.607
 3076WAT     H113024   6.686   1.021   4.626
 3076WAT     H213025   6.713   0.932   4.525
 3076WAT    EPW13026   6.689   0.948   4.598
 3077WAT      O13027   6.517   0.744   4.918
 3077WAT     H113028   6.473   0.790   4.858
 3077WAT     H213029   6.565   0.689   4.870
 3077WAT    EPW13030   6.518   0.743   4.902
 3078WAT      O13031   6.990   0.378   5.655
 3078WAT     H113032   7.065   0.390   5.612
 3078WAT     H213033   6.930   0.413   5.602
 3078WAT    EPW13034   6.992   0.385   5.641
 3079WAT      O13035   7.252   0.647   5.538
 3079WAT     H113036   7.299   0.684   5.602
 3079WAT     H213037   7.276   0.691   5.467
 3079WAT    EPW13038   7.263   0.659   5.537
 3080WAT      O13039   6.564   0.287   4.119
 3080WAT     H113040   6.511   0.321   4.058
 3080WAT     H213041   6.635   0.337   4.114
 3080WAT    EPW13042   6.567   0.299   4.109
 3081WAT      O13043   6.757   0.953   5.531
 3081WAT     H113044   6.776   0.943   5.446
 3081WAT     H213045   6.719   0.877   5.552
 3081WAT    EPW13046   6.754   0.940   5.521
 3082WAT      O13047   7.392   0.198   4.315
 3082WAT     H113048   7.453   0.140   4.338
 3082WAT     H213049   7.325   0.148   4.290
 3082WAT    EPW13050   7.391   0.182   4.315
 3083WAT      O13051   6.772   0.432   5.462
 3083WAT     H113052   6.695   0.429   5.502
 3083WAT     H213053   6.773   0.509   5.422
 3083WAT    EPW13054   6.761   0.443   5.462
 3084WAT      O13055   6.332   1.068   5.020
 3084WAT     H113056   6.335   1.054   5.106
 3084WAT     H213057   6.301   0.993   4.988
 3084WAT    EPW13058   6.328   1.055   5.028
 3085WAT      O13059   7.026   0.363   4.608
 3085WAT     H113060   7.033   0.385   4.692
 3085WAT     H213061   7.109   0.355   4.581
 3085WAT    EPW13062   7.039   0.365   4.616
 3086WAT      O13063   6.760   0.297   4.547
 3086WAT     H113064   6.727   0.287   4.627
 3086WAT     H213065   6.845   0.307   4.560
 3086WAT    EPW13066   6.767   0.297   4.561
 3087WAT      O13067   6.784   0.693   5.352
 3087WAT     H113068   6.842   0.694   5.418
 3087WAT     H213069   6.815   0.752   5.296
 3087WAT    EPW13070   6.797   0.702   5.354
 3088WAT      O13071   5.974   1.036   5.552
 3088WAT     H113072   5.918   0.970   5.538
 3088WAT     H213073   5.922   1.101   5.582
 3088WAT    EPW13074   5.958   1.036   5.555
 3089WAT      O13075   7.155   1.031   4.811
 3089WAT     H113076   7.099   1.087   4.847
 3089WAT     H213077   7.231   1.052   4.848
 3089WAT    EPW13078   7.158   1.042   4.822
 3090WAT      O13079   6.822   0.542   5.011
 3090WAT     H113080   6.787   0.469   5.045
 3090WAT     H213081   6.858   0.581   5.080
 3090WAT    EPW13082   6.822   0.537   5.026
 3091WAT      O13083   7.420   0.722   5.749
 3091WAT     H113084   7.499   0.690   5.730
 3091WAT     H213085   7.401   0.685   5.826
 3091WAT    EPW13086   7.429   0.712   5.757
 3092WAT      O13087   6.948   0.675   4.456
 3092WAT     H113088   6.921   0.753   4.426
 3092WAT     H213089   6.881   0.622   4.438
 3092WAT    EPW13090   6.934   0.679   4.449
 3093WAT      O13091   6.378   0.671   4.087
 3093WAT     H113092   6.422   0.662   4.162
 3093WAT     H213093   6.296   0.651   4.109
 3093WAT    EPW13094   6.373   0.667   4.102
 3094WAT      O13095   7.320   0.896   4.445
 3094WAT     H113096   7.293   0.815   4.462
 3094WAT     H213097   7.368   0.887   4.372
 3094WAT    EPW13098   7.323   0.883   4.436
 3095WAT      O13099   6.125   0.571   4.143
 3095WAT     H113100   6.118   0.543   4.226
 3095WAT     H213101   6.133   0.498   4.097
 3095WAT    EPW13102   6.125   0.556   4.149
 3096WAT      O13103   6.404   0.435   3.936
 3096WAT     H113104   6.320   0.410   3.942
 3096WAT     H213105   6.405   0.511   3.978
 3096WAT    EPW13106   6.391   0.442   3.943
 3097WAT      O13107   7.046   0.665   5.161
 3097WAT     H113108   7.092   0.720   5.210
 3097WAT     H213109   7.055   0.697   5.080
 3097WAT    EPW13110   7.054   0.678   5.156
 3098WAT      O13111   7.020   1.015   5.606
 3098WAT     H113112   6.943   0.987   5.575
 3098WAT     H213113   7.006   1.099   5.623
 3098WAT    EPW13114   7.007   1.023   5.604
 3099WAT      O13115   7.504   0.417   5.128
 3099WAT     H113116   7.587   0.427   5.103
 3099WAT     H213117   7.460   0.468   5.072
 3099WAT    EPW13118   7.510   0.426   5.116
 3100WAT      O13119   6.413   0.935   5.563
 3100WAT     H113120   6.396   0.946   5.648
 3100WAT     H213121   6.475   0.873   5.563
 3100WAT    EPW13122   6.420   0.927   5.576
 3101WAT      O13123   7.386   0.838   5.043
 3101WAT     H113124   7.443   0.852   4.978
 3101WAT     H213125   7.353   0.759   5.025
 3101WAT    EPW13126   7.390   0.828   5.030
 3102WAT      O13127   6.126   0.829   5.686
 3102WAT     H113128   6.193   0.863   5.731
 3102WAT     H213129   6.089   0.899   5.649
 3102WAT    EPW13130   6.130   0.844   5.688
 3103WAT      O13131   5.988   0.625   5.397
 3103WAT     H113132   5.936   0.683   5.437
 3103WAT     H213133   6.068   0.654   5.414
 3103WAT    EPW13134   5.992   0.638   5.406
 3104WAT      O13135   6.165   0.912   4.299
 3104WAT     H113136   6.137   0.950   4.226
 3104WAT     H213137   6.251   0.906   4.288
 3104WAT    EPW13138   6.173   0.917   4.287
 3105WAT      O13139   6.522   0.237   4.393
 3105WAT     H113140   6.535   0.246   4.307
 3105WAT     H213141   6.602   0.242   4.427
 3105WAT    EPW13142   6.535   0.239   4.385
 3106WAT      O13143   7.428   0.970   3.974
 3106WAT     H113144   7.460   0.943   4.050
 3106WAT     H213145   7.422   0.897   3.926
 3106WAT    EPW13146   7.432   0.955   3.978
 3107WAT      O13147   7.452   0.268   5.753
 3107WAT     H113148   7.500   0.212   5.707
 3107WAT     H213149   7.405   0.309   5.692
 3107WAT    EPW13150   7.452   0.266   5.737
 3108WAT      O13151   7.115   0.621   4.197
 3108WAT     H113152   7.084   0.605   4.277
 3108WAT     H213153   7.079   0.559   4.148
 3108WAT    EPW13154   7.105   0.610   4.202
 3109WAT      O13155   7.197   0.202   5.851
 3109WAT     H113156   7.280   0.217   5.828
 3109WAT     H213157   7.153   0.214   5.777
 3109WAT    EPW13158   7.203   0.206   5.837
 3110WAT      O13159   6.189   0.850   4.922
 3110WAT     H113160   6.187   0.774   4.879
 3110WAT     H213161   6.146   0.905   4.870
 3110WAT    EPW13162   6.183   0.847   4.908
 3111WAT      O13163   6.774   0.468   4.120
 3111WAT     H113164   6.852   0.441   4.091
 3111WAT     H213165   6.757   0.537   4.070
 3111WAT    EPW13166   6.783   0.474   4.108
 3112WAT      O13167   5.952   1.097   5.277
 3112WAT     H113168   5.959   1.075   5.361
 3112WAT     H213169   5.991   1.031   5.235
 3112WAT    EPW13170   5.958   1.084   5.283
 3113WAT      O13171   5.839   0.401   2.606
 3113WAT     H113172   5.857   0.447   2.679
 3113WAT     H213173   5.792   0.334   2.635
 3113WAT    EPW13174   5.835   0.398   2.621
 3114WAT      O13175   7.490   0.852   2.322
 3114WAT     H113176   7.568   0.830   2.356
 3114WAT     H213177   7.459   0.776   2.292
 3114WAT    EPW13178   7.497   0.837   2.323
 3115WAT      O13179   6.127   0.345   2.073
 3115WAT     H113180   6.092   0.337   1.993
 3115WAT     H213181   6.137   0.263   2.100
 3115WAT    EPW13182   6.123   0.332   2.065
 3116WAT      O13183   6.096   0.473   2.499
 3116WAT     H113184   6.161   0.426   2.533
 3116WAT     H213185   6.024   0.433   2.527
 3116WAT    EPW13186   6.095   0.461   2.508
 3117WAT      O13187   5.979   0.778   2.116
 3117WAT     H113188   6.022   0.788   2.041
 3117WAT     H213189   6.021   0.713   2.155
 3117WAT    EPW13190   5.991   0.770   2.110
 3118WAT      O13191   5.874   0.688   3.239
 3118WAT     H113192   5.910   0.665   3.315
 3118WAT     H213193   5.809   0.631   3.229
 3118WAT    EPW13194   5.870   0.676   3.249
 3119WAT      O13195   6.513   0.464   3.677
 3119WAT     H113196   6.486   0.448   3.758
 3119WAT     H213197   6.446   0.439   3.627
 3119WAT    EPW13198   6.499   0.458   3.681
 3120WAT      O13199   6.504   0.752   3.422
 3120WAT     H113200   6.510   0.824   3.373
 3120WAT     H213201   6.587   0.732   3.440
 3120WAT    EPW13202   6.517   0.760   3.417
 3121WAT      O13203   6.635   0.562   2.848
 3121WAT     H113204   6.655   0.483   2.879
 3121WAT     H213205   6.712   0.603   2.845
 3121WAT    EPW13206   6.649   0.556   2.852
 3122WAT      O13207   6.728   0.526   2.486
 3122WAT     H113208   6.731   0.454   2.535
 3122WAT     H213209   6.745   0.497   2.406
 3122WAT    EPW13210   6.731   0.511   2.481
 3123WAT      O13211   5.864   0.858   2.758
 3123WAT     H113212   5.799   0.903   2.719
 3123WAT     H213213   5.903   0.816   2.693
 3123WAT    EPW13214   5.860   0.859   2.743
 3124WAT      O13215   6.475   0.635   2.453
 3124WAT     H113216   6.439   0.612   2.528
 3124WAT     H213217   6.556   0.604   2.458
 3124WAT    EPW13218   6.482   0.627   2.465
 3125WAT      O13219   7.038   0.887   2.260
 3125WAT     H113220   7.105   0.943   2.263
 3125WAT     H213221   7.076   0.809   2.274
 3125WAT    EPW13222   7.054   0.884   2.263
 3126WAT      O13223   6.853   0.922   2.457
 3126WAT     H113224   6.873   0.997   2.496
 3126WAT     H213225   6.912   0.915   2.394
 3126WAT    EPW13226   6.864   0.932   2.454
 3127WAT      O13227   6.005   0.739   2.544
 3127WAT     H113228   6.051   0.665   2.547
 3127WAT     H213229   6.053   0.791   2.493
 3127WAT    EPW13230   6.019   0.736   2.537
 3128WAT      O13231   7.068   0.967   3.219
 3128WAT     H113232   7.132   1.024   3.201
 3128WAT     H213233   7.064   0.918   3.147
 3128WAT    EPW13234   7.077   0.968   3.206
 3129WAT      O13235   6.169   0.609   2.885
 3129WAT     H113236   6.236   0.596   2.831
 3129WAT     H213237   6.185   0.555   2.951
 3129WAT    EPW13238   6.182   0.599   2.887
 3130WAT      O13239   6.420   0.862   2.757
 3130WAT     H113240   6.500   0.890   2.737
 3130WAT     H213241   6.368   0.920   2.718
 3130WAT    EPW13242   6.424   0.874   2.748
 3131WAT      O13243   7.235   1.086   2.238
 3131WAT     H113244   7.283   1.053   2.172
 3131WAT     H213245   7.289   1.142   2.276
 3131WAT    EPW13246   7.250   1.089   2.234
 3132WAT      O13247   6.319   0.997   3.388
 3132WAT     H113248   6.339   0.983   3.472
 3132WAT     H213249   6.250   0.946   3.374
 3132WAT    EPW13250   6.312   0.988   3.399
 3133WAT      O13251   6.976   0.683   3.651
 3133WAT     H113252   6.969   0.715   3.732
 3133WAT     H213253   7.062   0.672   3.640
 3133WAT    EPW13254   6.988   0.686   3.661
 3134WAT      O13255   6.733   0.699   2.070
 3134WAT     H113256   6.703   0.759   2.126
 3134WAT     H213257   6.810   0.731   2.045
 3134WAT    EPW13258   6.740   0.713   2.075
 3135WAT      O13259   6.088   0.871   3.262
 3135WAT     H113260   6.021   0.816   3.256
 3135WAT     H213261   6.125   0.866   3.183
 3135WAT    EPW13262   6.083   0.862   3.249
 3136WAT      O13263   6.837   0.960   3.362
 3136WAT     H113264   6.911   0.962   3.316
 3136WAT     H213265   6.775   0.958   3.300
 3136WAT    EPW13266   6.839   0.960   3.346
 3137WAT      O13267   7.454   1.019   2.763
 3137WAT     H113268   7.466   1.096   2.724
 3137WAT     H213269   7.419   0.969   2.701
 3137WAT    EPW13270   7.451   1.023   2.748
 3138WAT      O13271   7.217   0.636   2.578
 3138WAT     H113272   7.241   0.554   2.599
 3138WAT     H213273   7.132   0.638   2.598
 3138WAT    EPW13274   7.208   0.624   2.584
 3139WAT      O13275   6.252   0.683   3.554
 3139WAT     H113276   6.325   0.719   3.525
 3139WAT     H213277   6.236   0.725   3.629
 3139WAT    EPW13278   6.260   0.694   3.561
 3140WAT      O13279   6.401   0.238   3.035
 3140WAT     H113280   6.422   0.241   3.120
 3140WAT     H213281   6.363   0.160   3.027
 3140WAT    EPW13282   6.399   0.227   3.046
 3141WAT      O13283   6.467   0.320   3.297
 3141WAT     H113284   6.462   0.404   3.273
 3141WAT     H213285   6.417   0.317   3.369
 3141WAT    EPW13286   6.459   0.332   3.304
 3142WAT      O13287   7.105   0.394   3.259
 3142WAT     H113288   7.046   0.346   3.301
 3142WAT     H213289   7.080   0.476   3.274
 3142WAT    EPW13290   7.093   0.399   3.267
 3143WAT      O13291   5.763   0.663   3.825
 3143WAT     H113292   5.820   0.669   3.890
 3143WAT     H213293   5.756   0.577   3.811
 3143WAT    EPW13294   5.770   0.651   3.832
 3144WAT      O13295   7.487   0.376   2.213
 3144WAT     H113296   7.459   0.316   2.269
 3144WAT     H213297   7.485   0.335   2.136
 3144WAT    EPW13298   7.483   0.361   2.210
 3145WAT      O13299   6.099   0.149   2.733
 3145WAT     H113300   6.166   0.190   2.695
 3145WAT     H213301   6.091   0.076   2.687
 3145WAT    EPW13302   6.108   0.145   2.721
 3146WAT      O13303   6.064   1.025   2.840
 3146WAT     H113304   5.994   0.978   2.815
 3146WAT     H213305   6.114   1.027   2.769
 3146WAT    EPW13306   6.061   1.018   2.826
 3147WAT      O13307   6.299   0.332   2.622
 3147WAT     H113308   6.334   0.401   2.661
 3147WAT     H213309   6.366   0.296   2.579
 3147WAT    EPW13310   6.314   0.337   2.621
 3148WAT      O13311   5.908   0.527   2.842
 3148WAT     H113312   5.856   0.582   2.884
 3148WAT     H213313   5.987   0.562   2.851
 3148WAT    EPW13314   5.912   0.540   2.850
 3149WAT      O13315   6.851   0.736   2.821
 3149WAT     H113316   6.802   0.805   2.799
 3149WAT     H213317   6.887   0.713   2.745
 3149WAT    EPW13318   6.849   0.743   2.806
 3150WAT      O13319   5.810   0.594   2.410
 3150WAT     H113320   5.871   0.647   2.445
 3150WAT     H213321   5.802   0.531   2.469
 3150WAT    EPW13322   5.818   0.593   2.424
 3151WAT      O13323   6.220   0.443   3.095
 3151WAT     H113324   6.273   0.490   3.145
 3151WAT     H213325   6.270   0.377   3.067
 3151WAT    EPW13326   6.235   0.440   3.098
 3152WAT      O13327   5.833   0.455   2.170
 3152WAT     H113328   5.915   0.426   2.160
 3152WAT     H213329   5.836   0.503   2.242
 3152WAT    EPW13330   5.846   0.458   2.179
 3153WAT      O13331   5.916   0.259   2.914
 3153WAT     H113332   5.976   0.220   2.863
 3153WAT     H213333   5.924   0.343   2.894
 3153WAT    EPW13334   5.926   0.265   2.903
 3154WAT      O13335   7.287   0.803   3.411
 3154WAT     H113336   7.281   0.881   3.449
 3154WAT     H213337   7.330   0.820   3.336
 3154WAT    EPW13338   7.293   0.817   3.405
 3155WAT      O13339   6.394   0.591   2.717
 3155WAT     H113340   6.393   0.678   2.723
 3155WAT     H213341   6.470   0.569   2.754
 3155WAT    EPW13342   6.405   0.601   2.724
 3156WAT      O13343   6.611   0.935   3.203
 3156WAT     H113344   6.591   0.870   3.149
 3156WAT     H213345   6.600   1.007   3.154
 3156WAT    EPW13346   6.607   0.936   3.188
 3157WAT      O13347   7.266   0.375   3.671
 3157WAT     H113348   7.268   0.462   3.662
 3157WAT     H213349   7.285   0.346   3.591
 3157WAT    EPW13350   7.269   0.384   3.658
 3158WAT      O13351   6.604   0.731   3.722
 3158WAT     H113352   6.636   0.720   3.802
 3158WAT     H213353   6.575   0.652   3.699
 3158WAT    EPW13354   6.604   0.718   3.730
 3159WAT      O13355   7.299   0.369   2.625
 3159WAT     H113356   7.364   0.363   2.683
 3159WAT     H213357   7.329   0.322   2.557
 3159WAT    EPW13358   7.313   0.362   2.623
 3160WAT      O13359   7.060   0.785   3.004
 3160WAT     H113360   6.991   0.763   2.954
 3160WAT     H213361   7.098   0.850   2.959
 3160WAT    EPW13362   7.055   0.791   2.990
 3161WAT      O13363   7.049   0.441   2.979
 3161WAT     H113364   6.976   0.483   3.003
 3161WAT     H213365   7.072   0.398   3.051
 3161WAT    EPW13366   7.041   0.441   2.993
 3162WAT      O13367   6.436   0.905   2.397
 3162WAT     H113368   6.447   0.826   2.433
 3162WAT     H213369   6.505   0.912   2.343
 3162WAT    EPW13370   6.448   0.894   2.394
 3163WAT      O13371   6.666   0.902   2.247
 3163WAT     H113372   6.724   0.911   2.312
 3163WAT     H213373   6.668   0.980   2.207
 3163WAT    EPW13374   6.675   0.915   2.250
 3164WAT      O13375   7.323   0.307   3.411
 3164WAT     H113376   7.255   0.328   3.361
 3164WAT     H213377   7.392   0.331   3.364
 3164WAT    EPW13378   7.323   0.314   3.397
 3165WAT      O13379   6.971   0.821   3.898
 3165WAT     H113380   6.995   0.844   3.978
 3165WAT     H213381   6.994   0.889   3.849
 3165WAT    EPW13382   6.978   0.834   3.902
 3166WAT      O13383   6.913   0.253   3.406
 3166WAT     H113384   6.869   0.305   3.460
 3166WAT     H213385   6.941   0.188   3.457
 3166WAT    EPW13386   6.911   0.251   3.421
 3167WAT      O13387   7.299   0.571   3.093
 3167WAT     H113388   7.242   0.567   3.027
 3167WAT     H213389   7.255   0.534   3.160
 3167WAT    EPW13390   7.284   0.565   3.093
 3168WAT      O13391   6.656   0.292   2.919
 3168WAT     H113392   6.574   0.272   2.939
 3168WAT     H213393   6.699   0.283   2.995
 3168WAT    EPW13394   6.650   0.288   2.933
 3169WAT      O13395   6.344   0.911   2.033
 3169WAT     H113396   6.370   0.842   2.079
 3169WAT     H213397   6.354   0.978   2.089
 3169WAT    EPW13398   6.349   0.911   2.048
 3170WAT      O13399   5.968   0.348   3.175
 3170WAT     H113400   6.044   0.386   3.156
 3170WAT     H213401   5.952   0.297   3.106
 3170WAT    EPW13402   5.977   0.346   3.162
 3171WAT      O13403   6.001   0.354   3.456
 3171WAT     H113404   5.994   0.343   3.369
 3171WAT     H213405   5.990   0.440   3.466
 3171WAT    EPW13406   5.998   0.365   3.444
 3172WAT      O13407   7.382   0.629   2.204
 3172WAT     H113408   7.414   0.548   2.213
 3172WAT     H213409   7.300   0.621   2.233
 3172WAT    EPW13410   7.375   0.616   2.210
 3173WAT      O13411   7.030   0.414   2.130
 3173WAT     H113412   7.086   0.347   2.132
 3173WAT     H213413   7.009   0.420   2.045
 3173WAT    EPW13414   7.035   0.405   2.117
 3174WAT      O13415   6.427   0.582   3.219
 3174WAT     H113416   6.443   0.631   3.289
 3174WAT     H213417   6.454   0.631   3.152
 3174WAT    EPW13418   6.433   0.596   3.219
 3175WAT      O13419   6.284   0.405   3.512
 3175WAT     H113420   6.204   0.372   3.501
 3175WAT     H213421   6.269   0.491   3.520
 3175WAT    EPW13422   6.270   0.413   3.512
 3176WAT      O13423   6.729   0.293   3.197
 3176WAT     H113424   6.786   0.266   3.258
 3176WAT     H213425   6.653   0.294   3.239
 3176WAT    EPW13426   6.727   0.289   3.212
 3177WAT      O13427   6.685   0.940   2.708
 3177WAT     H113428   6.687   1.025   2.727
 3177WAT     H213429   6.718   0.937   2.627
 3177WAT    EPW13430   6.690   0.952   2.699
 3178WAT      O13431   6.514   0.749   3.015
 3178WAT     H113432   6.468   0.793   2.956
 3178WAT     H213433   6.561   0.693   2.968
 3178WAT    EPW13434   6.514   0.747   3.000
 3179WAT      O13435   6.991   0.374   3.753
 3179WAT     H113436   7.066   0.387   3.711
 3179WAT     H213437   6.932   0.411   3.700
 3179WAT    EPW13438   6.993   0.381   3.739
 3180WAT      O13439   7.252   0.647   3.638
 3180WAT     H113440   7.300   0.684   3.701
 3180WAT     H213441   7.275   0.692   3.566
 3180WAT    EPW13442   7.263   0.659   3.636
 3181WAT      O13443   6.565   0.284   2.218
 3181WAT     H113444   6.512   0.318   2.157
 3181WAT     H213445   6.636   0.334   2.214
 3181WAT    EPW13446   6.568   0.296   2.208
 3182WAT      O13447   6.758   0.951   3.631
 3182WAT     H113448   6.774   0.942   3.546
 3182WAT     H213449   6.719   0.876   3.652
 3182WAT    EPW13450   6.754   0.939   3.621
 3183WAT      O13451   7.392   0.197   2.416
 3183WAT     H113452   7.453   0.139   2.438
 3183WAT     H213453   7.325   0.147   2.390
 3183WAT    EPW13454   7.391   0.181   2.415
 3184WAT      O13455   6.771   0.431   3.562
 3184WAT     H113456   6.694   0.429   3.602
 3184WAT     H213457   6.772   0.509   3.522
 3184WAT    EPW13458   6.760   0.442   3.562
 3185WAT      O13459   6.300   1.095   3.117
 3185WAT     H113460   6.310   1.080   3.202
 3185WAT     H213461   6.283   1.016   3.083
 3185WAT    EPW13462   6.299   1.081   3.124
 3186WAT      O13463   7.026   0.364   2.709
 3186WAT     H113464   7.033   0.386   2.793
 3186WAT     H213465   7.109   0.355   2.683
 3186WAT    EPW13466   7.039   0.366   2.718
 3187WAT      O13467   6.759   0.299   2.648
 3187WAT     H113468   6.727   0.289   2.728
 3187WAT     H213469   6.845   0.309   2.661
 3187WAT    EPW13470   6.767   0.299   2.662
 3188WAT      O13471   6.785   0.693   3.452
 3188WAT     H113472   6.843   0.693   3.518
 3188WAT     H213473   6.815   0.754   3.398
 3188WAT    EPW13474   6.798   0.702   3.454
 3189WAT      O13475   5.995   1.014   3.638
 3189WAT     H113476   5.933   0.954   3.627
 3189WAT     H213477   5.952   1.084   3.666
 3189WAT    EPW13478   5.980   1.015   3.640
 3190WAT      O13479   7.152   1.032   2.910
 3190WAT     H113480   7.096   1.088   2.946
 3190WAT     H213481   7.229   1.054   2.946
 3190WAT    EPW13482   7.155   1.044   2.920
 3191WAT      O13483   6.824   0.543   3.113
 3191WAT     H113484   6.789   0.471   3.147
 3191WAT     H213485   6.860   0.583   3.182
 3191WAT    EPW13486   6.824   0.538   3.128
 3192WAT      O13487   7.419   0.720   3.851
 3192WAT     H113488   7.498   0.688   3.834
 3192WAT     H213489   7.397   0.683   3.927
 3192WAT    EPW13490   7.427   0.710   3.860
 3193WAT      O13491   6.941   0.679   2.566
 3193WAT     H113492   6.917   0.756   2.531
 3193WAT     H213493   6.877   0.625   2.542
 3193WAT    EPW13494   6.928   0.683   2.557
 3194WAT      O13495   6.377   0.670   2.185
 3194WAT     H113496   6.421   0.661   2.260
 3194WAT     H213497   6.296   0.648   2.206
 3194WAT    EPW13498   6.372   0.665   2.199
 3195WAT      O13499   7.319   0.893   2.544
 3195WAT     H113500   7.291   0.812   2.557
 3195WAT     H213501   7.368   0.887   2.472
 3195WAT    EPW13502   7.322   0.881   2.535
 3196WAT      O13503   6.124   0.571   2.238
 3196WAT     H113504   6.117   0.542   2.320
 3196WAT     H213505   6.130   0.498   2.191
 3196WAT    EPW13506   6.124   0.556   2.243
 3197WAT      O13507   6.404   0.432   2.036
 3197WAT     H113508   6.320   0.408   2.041
 3197WAT     H213509   6.406   0.509   2.077
 3197WAT    EPW13510   6.392   0.440   2.043
 3198WAT      O13511   7.051   0.665   3.262
 3198WAT     H113512   7.097   0.719   3.312
 3198WAT     H213513   7.058   0.699   3.182
 3198WAT    EPW13514   7.059   0.678   3.257
 3199WAT      O13515   7.020   1.015   3.705
 3199WAT     H113516   6.943   0.987   3.674
 3199WAT     H213517   7.006   1.099   3.722
 3199WAT    EPW13518   7.007   1.023   3.703
 3200WAT      O13519   7.504   0.417   3.226
 3200WAT     H113520   7.587   0.427   3.201
 3200WAT     H213521   7.460   0.468   3.170
 3200WAT    EPW13522   7.510   0.426   3.214
 3201WAT      O13523   6.410   0.937   3.657
 3201WAT     H113524   6.396   0.946   3.742
 3201WAT     H213525   6.473   0.876   3.653
 3201WAT    EPW13526   6.417   0.930   3.669
 3202WAT      O13527   7.385   0.840   3.142
 3202WAT     H113528   7.443   0.854   3.078
 3202WAT     H213529   7.353   0.761   3.123
 3202WAT    EPW13530   7.389   0.830   3.130
 3203WAT      O13531   6.134   0.815   3.786
 3203WAT     H113532   6.200   0.850   3.830
 3203WAT     H213533   6.098   0.883   3.745
 3203WAT    EPW13534   6.139   0.830   3.787
 3204WAT      O13535   5.986   0.630   3.482
 3204WAT     H113536   5.933   0.684   3.525
 3204WAT     H213537   6.066   0.658   3.501
 3204WAT    EPW13538   5.990   0.642   3.491
 3205WAT      O13539   6.160   0.902   2.379
 3205WAT     H113540   6.130   0.912   2.297
 3205WAT     H213541   6.246   0.897   2.368
 3205WAT    EPW13542   6.168   0.903   2.365
 3206WAT      O13543   6.523   0.235   2.492
 3206WAT     H113544   6.537   0.244   2.406
 3206WAT     H213545   6.603   0.241   2.527
 3206WAT    EPW13546   6.537   0.237   2.484
 3207WAT      O13547   7.428   0.971   2.073
 3207WAT     H113548   7.460   0.942   2.149
 3207WAT     H213549   7.423   0.899   2.024
 3207WAT    EPW13550   7.432   0.956   2.077
 3208WAT      O13551   7.450   0.269   3.852
 3208WAT     H113552   7.499   0.213   3.806
 3208WAT     H213553   7.403   0.309   3.791
 3208WAT    EPW13554   7.451   0.266   3.836
 3209WAT      O13555   7.121   0.625   2.292
 3209WAT     H113556   7.113   0.603   2.375
 3209WAT     H213557   7.084   0.559   2.249
 3209WAT    EPW13558   7.115   0.612   2.298
 3210WAT      O13559   7.196   0.202   3.952
 3210WAT     H113560   7.279   0.217   3.928
 3210WAT     H213561   7.151   0.213   3.878
 3210WAT    EPW13562   7.202   0.206   3.937
 3211WAT      O13563   6.197   0.857   3.009
 3211WAT     H113564   6.194   0.778   2.972
 3211WAT     H213565   6.154   0.908   2.954
 3211WAT    EPW13566   6.191   0.853   2.996
 3212WAT      O13567   6.774   0.466   2.220
 3212WAT     H113568   6.853   0.440   2.194
 3212WAT     H213569   6.758   0.536   2.170
 3212WAT    EPW13570   6.783   0.473   2.209
 3213WAT      O13571   5.956   1.091   3.369
 3213WAT     H113572   5.966   1.066   3.452
 3213WAT     H213573   5.993   1.026   3.324
 3213WAT    EPW13574   5.963   1.078   3.375
 3214WAT      O13575   5.843   0.402   0.721
 3214WAT     H113576   5.855   0.450   0.792
 3214WAT     H213577   5.796   0.334   0.749
 3214WAT    EPW13578   5.838   0.399   0.735
 3215WAT      O13579   7.522   0.808   0.461
 3215WAT     H113580   7.600   0.774   0.480
 3215WAT     H213581   7.478   0.742   0.426
 3215WAT    EPW13582   7.527   0.793   0.459
 3216WAT      O13583   6.086   0.326   0.231
 3216WAT     H113584   6.067   0.298   0.151
 3216WAT     H213585   6.094   0.252   0.277
 3216WAT    EPW13586   6.085   0.311   0.226
 3217WAT      O13587   6.099   0.483   0.620
 3217WAT     H113588   6.168   0.435   0.642
 3217WAT     H213589   6.031   0.437   0.649
 3217WAT    EPW13590   6.099   0.469   0.628
 3218WAT      O13591   6.015   0.825   0.274
 3218WAT     H113592   6.050   0.833   0.195
 3218WAT     H213593   6.037   0.744   0.298
 3218WAT    EPW13594   6.023   0.814   0.266
 3219WAT      O13595   5.878   0.685   1.355
 3219WAT     H113596   5.914   0.659   1.430
 3219WAT     H213597   5.811   0.630   1.344
 3219WAT    EPW13598   5.874   0.673   1.364
 3220WAT      O13599   6.513   0.464   1.778
 3220WAT     H113600   6.486   0.447   1.859
 3220WAT     H213601   6.446   0.440   1.729
 3220WAT    EPW13602   6.499   0.458   1.783
 3221WAT      O13603   6.509   0.756   1.526
 3221WAT     H113604   6.523   0.821   1.469
 3221WAT     H213605   6.589   0.730   1.547
 3221WAT    EPW13606   6.523   0.762   1.521
 3222WAT      O13607   6.637   0.558   0.956
 3222WAT     H113608   6.658   0.479   0.987
 3222WAT     H213609   6.714   0.598   0.950
 3222WAT    EPW13610   6.652   0.552   0.960
 3223WAT      O13611   6.720   0.529   0.617
 3223WAT     H113612   6.727   0.460   0.671
 3223WAT     H213613   6.729   0.494   0.538
 3223WAT    EPW13614   6.722   0.513   0.613
 3224WAT      O13615   5.857   0.870   0.876
 3224WAT     H113616   5.797   0.917   0.834
 3224WAT     H213617   5.897   0.825   0.812
 3224WAT    EPW13618   5.854   0.870   0.860
 3225WAT      O13619   6.489   0.682   0.573
 3225WAT     H113620   6.447   0.655   0.644
 3225WAT     H213621   6.567   0.644   0.579
 3225WAT    EPW13622   6.495   0.672   0.584
 3226WAT      O13623   6.992   0.832   0.351
 3226WAT     H113624   7.055   0.891   0.354
 3226WAT     H213625   7.032   0.757   0.372
 3226WAT    EPW13626   7.007   0.830   0.355
 3227WAT      O13627   6.839   0.914   0.565
 3227WAT     H113628   6.871   0.990   0.593
 3227WAT     H213629   6.887   0.896   0.495
 3227WAT    EPW13630   6.851   0.923   0.559
 3228WAT      O13631   5.997   0.743   0.665
 3228WAT     H113632   6.046   0.671   0.669
 3228WAT     H213633   6.046   0.799   0.618
 3228WAT    EPW13634   6.011   0.741   0.659
 3229WAT      O13635   7.074   0.968   1.324
 3229WAT     H113636   7.139   1.023   1.306
 3229WAT     H213637   7.069   0.917   1.253
 3229WAT    EPW13638   7.083   0.968   1.311
 3230WAT      O13639   6.169   0.610   0.987
 3230WAT     H113640   6.235   0.597   0.932
 3230WAT     H213641   6.186   0.555   1.053
 3230WAT    EPW13642   6.181   0.600   0.989
 3231WAT      O13643   6.427   0.865   0.883
 3231WAT     H113644   6.505   0.893   0.858
 3231WAT     H213645   6.371   0.921   0.846
 3231WAT    EPW13646   6.430   0.877   0.874
 3232WAT      O13647   7.197   1.006   0.412
 3232WAT     H113648   7.266   1.008   0.359
 3232WAT     H213649   7.230   0.978   0.487
 3232WAT    EPW13650   7.212   1.002   0.415
 3233WAT      O13651   6.306   1.004   1.504
 3233WAT     H113652   6.333   0.982   1.584
 3233WAT     H213653   6.238   0.951   1.490
 3233WAT    EPW13654   6.300   0.993   1.514
 3234WAT      O13655   6.978   0.683   1.752
 3234WAT     H113656   6.973   0.715   1.833
 3234WAT     H213657   7.064   0.673   1.740
 3234WAT    EPW13658   6.990   0.686   1.762
 3235WAT      O13659   6.767   0.694   0.247
 3235WAT     H113660   6.705   0.754   0.250
 3235WAT     H213661   6.840   0.739   0.265
 3235WAT    EPW13662   6.769   0.709   0.250
 3236WAT      O13663   6.080   0.875   1.379
 3236WAT     H113664   6.013   0.820   1.374
 3236WAT     H213665   6.118   0.868   1.301
 3236WAT    EPW13666   6.076   0.866   1.366
 3237WAT      O13667   6.845   0.959   1.469
 3237WAT     H113668   6.920   0.961   1.423
 3237WAT     H213669   6.783   0.955   1.408
 3237WAT    EPW13670   6.847   0.959   1.453
 3238WAT      O13671   7.472   1.013   0.866
 3238WAT     H113672   7.480   1.092   0.830
 3238WAT     H213673   7.437   0.965   0.802
 3238WAT    EPW13674   7.468   1.018   0.851
 3239WAT      O13675   7.223   0.662   0.731
 3239WAT     H113676   7.252   0.580   0.729
 3239WAT     H213677   7.136   0.653   0.727
 3239WAT    EPW13678   7.214   0.648   0.730
 3240WAT      O13679   6.255   0.687   1.656
 3240WAT     H113680   6.328   0.723   1.626
 3240WAT     H213681   6.238   0.733   1.729
 3240WAT    EPW13682   6.263   0.699   1.662
 3241WAT      O13683   6.403   0.239   1.143
 3241WAT     H113684   6.422   0.242   1.228
 3241WAT     H213685   6.364   0.161   1.133
 3241WAT    EPW13686   6.400   0.228   1.154
 3242WAT      O13687   6.466   0.319   1.406
 3242WAT     H113688   6.461   0.402   1.381
 3242WAT     H213689   6.414   0.315   1.477
 3242WAT    EPW13690   6.457   0.330   1.413
 3243WAT      O13691   7.108   0.394   1.370
 3243WAT     H113692   7.049   0.346   1.412
 3243WAT     H213693   7.083   0.476   1.386
 3243WAT    EPW13694   7.096   0.399   1.379
 3244WAT      O13695   5.766   0.668   1.930
 3244WAT     H113696   5.818   0.666   2.000
 3244WAT     H213697   5.753   0.583   1.913
 3244WAT    EPW13698   5.772   0.655   1.938
 3245WAT      O13699   7.410   0.346   0.319
 3245WAT     H113700   7.406   0.296   0.391
 3245WAT     H213701   7.437   0.291   0.257
 3245WAT    EPW13702   7.413   0.331   0.321
 3246WAT      O13703   6.122   0.165   0.818
 3246WAT     H113704   6.191   0.200   0.778
 3246WAT     H213705   6.111   0.088   0.778
 3246WAT    EPW13706   6.131   0.159   0.806
 3247WAT      O13707   6.062   1.029   0.966
 3247WAT     H113708   5.989   0.989   0.939
 3247WAT     H213709   6.112   1.031   0.895
 3247WAT    EPW13710   6.059   1.024   0.952
 3248WAT      O13711   6.326   0.340   0.688
 3248WAT     H113712   6.364   0.405   0.732
 3248WAT     H213713   6.381   0.325   0.622
 3248WAT    EPW13714   6.340   0.347   0.685
 3249WAT      O13715   5.904   0.530   0.957
 3249WAT     H113716   5.853   0.586   0.999
 3249WAT     H213717   5.983   0.566   0.962
 3249WAT    EPW13718   5.908   0.544   0.964
 3250WAT      O13719   6.856   0.731   0.925
 3250WAT     H113720   6.807   0.800   0.904
 3250WAT     H213721   6.893   0.709   0.849
 3250WAT    EPW13722   6.854   0.738   0.911
 3251WAT      O13723   5.811   0.591   0.522
 3251WAT     H113724   5.869   0.647   0.558
 3251WAT     H213725   5.804   0.528   0.582
 3251WAT    EPW13726   5.819   0.590   0.536
 3252WAT      O13727   6.221   0.445   1.199
 3252WAT     H113728   6.274   0.493   1.249
 3252WAT     H213729   6.272   0.380   1.171
 3252WAT    EPW13730   6.237   0.443   1.202
 3253WAT      O13731   5.819   0.402   0.314
 3253WAT     H113732   5.901   0.387   0.289
 3253WAT     H213733   5.826   0.467   0.372
 3253WAT    EPW13734   5.832   0.410   0.319
 3254WAT      O13735   5.936   0.257   1.011
 3254WAT     H113736   5.997   0.227   0.955
 3254WAT     H213737   5.936   0.343   0.995
 3254WAT    EPW13738   5.945   0.266   1.000
 3255WAT      O13739   7.288   0.803   1.509
 3255WAT     H113740   7.281   0.881   1.548
 3255WAT     H213741   7.330   0.821   1.434
 3255WAT    EPW13742   7.293   0.817   1.504
 3256WAT      O13743   6.398   0.599   0.823
 3256WAT     H113744   6.397   0.685   0.839
 3256WAT     H213745   6.473   0.573   0.859
 3256WAT    EPW13746   6.409   0.608   0.831
 3257WAT      O13747   6.620   0.921   1.315
 3257WAT     H113748   6.600   0.859   1.256
 3257WAT     H213749   6.609   0.995   1.271
 3257WAT    EPW13750   6.616   0.922   1.299
 3258WAT      O13751   7.267   0.375   1.775
 3258WAT     H113752   7.269   0.461   1.765
 3258WAT     H213753   7.287   0.344   1.695
 3258WAT    EPW13754   7.270   0.383   1.762
 3259WAT      O13755   6.606   0.730   1.824
 3259WAT     H113756   6.639   0.718   1.904
 3259WAT     H213757   6.576   0.651   1.802
 3259WAT    EPW13758   6.606   0.716   1.833
 3260WAT      O13759   7.319   0.394   0.741
 3260WAT     H113760   7.384   0.388   0.798
 3260WAT     H213761   7.342   0.338   0.678
 3260WAT    EPW13762   7.332   0.384   0.740
 3261WAT      O13763   7.061   0.779   1.113
 3261WAT     H113764   6.994   0.758   1.062
 3261WAT     H213765   7.101   0.843   1.068
 3261WAT    EPW13766   7.057   0.785   1.099
 3262WAT      O13767   7.048   0.444   1.095
 3262WAT     H113768   6.974   0.485   1.118
 3262WAT     H213769   7.072   0.402   1.168
 3262WAT    EPW13770   7.041   0.444   1.109
 3263WAT      O13771   6.417   0.936   0.468
 3263WAT     H113772   6.436   0.864   0.513
 3263WAT     H213773   6.484   0.945   0.413
 3263WAT    EPW13774   6.430   0.927   0.467
 3264WAT      O13775   6.660   0.946   0.343
 3264WAT     H113776   6.703   0.926   0.417
 3264WAT     H213777   6.680   1.029   0.329
 3264WAT    EPW13778   6.669   0.955   0.352
 3265WAT      O13779   7.329   0.305   1.517
 3265WAT     H113780   7.260   0.326   1.467
 3265WAT     H213781   7.397   0.330   1.468
 3265WAT    EPW13782   7.329   0.312   1.502
 3266WAT      O13783   6.972   0.821   1.999
 3266WAT     H113784   6.996   0.845   2.079
 3266WAT     H213785   6.995   0.889   1.949
 3266WAT    EPW13786   6.979   0.834   2.004
 3267WAT      O13787   6.918   0.251   1.517
 3267WAT     H113788   6.873   0.303   1.570
 3267WAT     H213789   6.946   0.186   1.569
 3267WAT    EPW13790   6.915   0.249   1.532
 3268WAT      O13791   7.300   0.571   1.199
 3268WAT     H113792   7.242   0.568   1.134
 3268WAT     H213793   7.258   0.536   1.267
 3268WAT    EPW13794   7.285   0.565   1.199
 3269WAT      O13795   6.663   0.291   1.037
 3269WAT     H113796   6.580   0.271   1.053
 3269WAT     H213797   6.701   0.284   1.116
 3269WAT    EPW13798   6.657   0.287   1.051
 3270WAT      O13799   5.972   0.345   1.276
 3270WAT     H113800   6.046   0.387   1.258
 3270WAT     H213801   5.959   0.294   1.207
 3270WAT    EPW13802   5.981   0.343   1.263
 3271WAT      O13803   6.004   0.350   1.559
 3271WAT     H113804   5.996   0.340   1.472
 3271WAT     H213805   5.991   0.435   1.571
 3271WAT    EPW13806   6.001   0.361   1.548
 3272WAT      O13807   7.365   0.620   0.343
 3272WAT     H113808   7.385   0.536   0.329
 3272WAT     H213809   7.282   0.616   0.373
 3272WAT    EPW13810   7.355   0.607   0.345
 3273WAT      O13811   6.993   0.418   0.232
 3273WAT     H113812   7.055   0.368   0.197
 3273WAT     H213813   6.966   0.468   0.166
 3273WAT    EPW13814   6.998   0.418   0.217
 3274WAT      O13815   6.427   0.581   1.329
 3274WAT     H113816   6.444   0.631   1.398
 3274WAT     H213817   6.455   0.628   1.261
 3274WAT    EPW13818   6.433   0.595   1.329
 3275WAT      O13819   6.282   0.407   1.618
 3275WAT     H113820   6.203   0.374   1.605
 3275WAT     H213821   6.268   0.493   1.624
 3275WAT    EPW13822   6.268   0.415   1.617
 3276WAT      O13823   6.731   0.295   1.313
 3276WAT     H113824   6.787   0.266   1.372
 3276WAT     H213825   6.654   0.293   1.355
 3276WAT    EPW13826   6.728   0.290   1.328
 3277WAT      O13827   6.691   0.940   0.822
 3277WAT     H113828   6.692   1.024   0.844
 3277WAT     H213829   6.719   0.940   0.739
 3277WAT    EPW13830   6.695   0.952   0.813
 3278WAT      O13831   6.519   0.742   1.126
 3278WAT     H113832   6.477   0.789   1.065
 3278WAT     H213833   6.566   0.685   1.079
 3278WAT    EPW13834   6.520   0.741   1.110
 3279WAT      O13835   6.989   0.377   1.856
 3279WAT     H113836   7.063   0.391   1.813
 3279WAT     H213837   6.928   0.413   1.804
 3279WAT    EPW13838   6.991   0.385   1.842
 3280WAT      O13839   7.254   0.646   1.736
 3280WAT     H113840   7.302   0.683   1.799
 3280WAT     H213841   7.277   0.690   1.665
 3280WAT    EPW13842   7.264   0.658   1.735
 3281WAT      O13843   6.755   0.953   1.732
 3281WAT     H113844   6.777   0.942   1.648
 3281WAT     H213845   6.718   0.877   1.754
 3281WAT    EPW13846   6.753   0.940   1.723
 3282WAT      O13847   7.392   0.186   0.555
 3282WAT     H113848   7.463   0.139   0.574
 3282WAT     H213849   7.328   0.128   0.557
 3282WAT    EPW13850   7.393   0.171   0.558
 3283WAT      O13851   6.771   0.430   1.666
 3283WAT     H113852   6.693   0.428   1.705
 3283WAT     H213853   6.772   0.507   1.625
 3283WAT    EPW13854   6.760   0.441   1.666
 3284WAT      O13855   6.325   1.072   1.230
 3284WAT     H113856   6.323   1.059   1.316
 3284WAT     H213857   6.297   0.996   1.197
 3284WAT    EPW13858   6.321   1.059   1.238
 3285WAT      O13859   7.048   0.384   0.824
 3285WAT     H113860   7.052   0.402   0.909
 3285WAT     H213861   7.132   0.378   0.800
 3285WAT    EPW13862   7.061   0.386   0.833
 3286WAT      O13863   6.782   0.312   0.777
 3286WAT     H113864   6.750   0.294   0.856
 3286WAT     H213865   6.867   0.325   0.791
 3286WAT    EPW13866   6.790   0.312   0.790
 3287WAT      O13867   6.787   0.689   1.555
 3287WAT     H113868   6.845   0.690   1.620
 3287WAT     H213869   6.817   0.749   1.499
 3287WAT    EPW13870   6.800   0.698   1.556
 3288WAT      O13871   5.974   1.035   1.752
 3288WAT     H113872   5.918   0.970   1.737
 3288WAT     H213873   5.924   1.100   1.782
 3288WAT    EPW13874   5.959   1.035   1.754
 3289WAT      O13875   7.158   1.028   1.027
 3289WAT     H113876   7.095   1.084   1.051
 3289WAT     H213877   7.226   1.053   1.075
 3289WAT    EPW13878   7.159   1.040   1.038
 3290WAT      O13879   6.822   0.546   1.227
 3290WAT     H113880   6.788   0.473   1.260
 3290WAT     H213881   6.859   0.584   1.297
 3290WAT    EPW13882   6.823   0.540   1.242
 3291WAT      O13883   7.421   0.721   1.948
 3291WAT     H113884   7.500   0.690   1.930
 3291WAT     H213885   7.401   0.684   2.024
 3291WAT    EPW13886   7.430   0.711   1.956
 3292WAT      O13887   6.945   0.674   0.665
 3292WAT     H113888   6.916   0.752   0.637
 3292WAT     H213889   6.877   0.622   0.654
 3292WAT    EPW13890   6.931   0.678   0.659
 3293WAT      O13891   6.386   0.621   0.316
 3293WAT     H113892   6.424   0.638   0.393
 3293WAT     H213893   6.301   0.623   0.334
 3293WAT    EPW13894   6.379   0.624   0.330
 3294WAT      O13895   7.329   0.898   0.641
 3294WAT     H113896   7.296   0.823   0.670
 3294WAT     H213897   7.396   0.873   0.591
 3294WAT    EPW13898   7.334   0.883   0.638
 3295WAT      O13899   6.112   0.578   0.359
 3295WAT     H113900   6.106   0.552   0.442
 3295WAT     H213901   6.105   0.504   0.313
 3295WAT    EPW13902   6.110   0.563   0.364
 3296WAT      O13903   6.371   0.362   0.217
 3296WAT     H113904   6.284   0.359   0.214
 3296WAT     H213905   6.389   0.446   0.235
 3296WAT    EPW13906   6.361   0.374   0.219
 3297WAT      O13907   7.053   0.665   1.372
 3297WAT     H113908   7.103   0.719   1.419
 3297WAT     H213909   7.059   0.696   1.291
 3297WAT    EPW13910   7.061   0.678   1.367
 3298WAT      O13911   7.019   1.015   1.806
 3298WAT     H113912   6.942   0.987   1.776
 3298WAT     H213913   7.005   1.099   1.823
 3298WAT    EPW13914   7.006   1.023   1.804
 3299WAT      O13915   7.507   0.419   1.330
 3299WAT     H113916   7.590   0.432   1.306
 3299WAT     H213917   7.462   0.469   1.275
 3299WAT    EPW13918   7.513   0.428   1.318
 3300WAT      O13919   6.415   0.938   1.760
 3300WAT     H113920   6.400   0.945   1.845
 3300WAT     H213921   6.477   0.877   1.755
 3300WAT    EPW13922   6.422   0.930   1.772
 3301WAT      O13923   7.386   0.840   1.239
 3301WAT     H113924   7.438   0.856   1.171
 3301WAT     H213925   7.355   0.760   1.222
 3301WAT    EPW13926   7.389   0.831   1.226
 3302WAT      O13927   6.128   0.828   1.882
 3302WAT     H113928   6.195   0.861   1.926
 3302WAT     H213929   6.090   0.897   1.846
 3302WAT    EPW13930   6.132   0.843   1.883
 3303WAT      O13931   5.988   0.625   1.597
 3303WAT     H113932   5.937   0.683   1.637
 3303WAT     H213933   6.069   0.655   1.611
 3303WAT    EPW13934   5.993   0.638   1.605
 3304WAT      O13935   6.146   0.917   0.505
 3304WAT     H113936   6.104   0.904   0.430
 3304WAT     H213937   6.230   0.922   0.482
 3304WAT    EPW13938   6.152   0.916   0.491
 3305WAT      O13939   6.494   0.309   0.461
 3305WAT     H113940   6.453   0.313   0.384
 3305WAT     H213941   6.574   0.337   0.443
 3305WAT    EPW13942   6.500   0.314   0.447
 3306WAT      O13943   7.435   0.991   0.269
 3306WAT     H113944   7.474   0.938   0.325
 3306WAT     H213945   7.428   0.943   0.196
 3306WAT    EPW13946   7.439   0.976   0.267
 3307WAT      O13947   7.456   0.267   1.952
 3307WAT     H113948   7.503   0.209   1.906
 3307WAT     H213949   7.408   0.308   1.891
 3307WAT    EPW13950   7.456   0.264   1.936
 3308WAT      O13951   7.099   0.592   0.427
 3308WAT     H113952   7.058   0.588   0.504
 3308WAT     H213953   7.060   0.530   0.380
 3308WAT    EPW13954   7.087   0.583   0.432
 3309WAT      O13955   7.200   0.205   2.050
 3309WAT     H113956   7.283   0.218   2.028
 3309WAT     H213957   7.157   0.219   1.975
 3309WAT    EPW13958   7.206   0.209   2.036
 3310WAT      O13959   6.190   0.850   1.127
 3310WAT     H113960   6.188   0.775   1.083
 3310WAT     H213961   6.147   0.905   1.074
 3310WAT    EPW13962   6.183   0.847   1.113
 3311WAT      O13963   6.738   0.438   0.360
 3311WAT     H113964   6.812   0.405   0.328
 3311WAT     H213965   6.730   0.515   0.319
 3311WAT    EPW13966   6.748   0.444   0.349
 3312WAT      O13967   5.951   1.100   1.478
 3312WAT     H113968   5.960   1.078   1.562
 3312WAT     H213969   5.988   1.034   1.435
 3312WAT    EPW13970   5.958   1.087   1.484
 3313WAT      O13971   5.033   6.674   6.393
 3313WAT     H113972   5.025   6.717   6.317
 3313WAT     H213973   5.119   6.662   6.400
 3313WAT    EPW13974   5.045   6.679   6.383
 3314WAT      O13975   4.991   7.319   6.816
 3314WAT     H113976   4.971   7.400   6.842
 3314WAT     H213977   5.044   7.290   6.879
 3314WAT    EPW13978   4.996   7.327   6.829
 3315WAT      O13979   3.970   7.173   6.062
 3315WAT     H113980   3.889   7.182   6.033
 3315WAT     H213981   3.967   7.102   6.113
 3315WAT    EPW13982   3.958   7.164   6.066
 3316WAT      O13983   5.268   7.482   6.482
 3316WAT     H113984   5.270   7.482   6.395
 3316WAT     H213985   5.208   7.422   6.501
 3316WAT    EPW13986   5.259   7.473   6.472
 3317WAT      O13987   4.631   6.768   6.301
 3317WAT     H113988   4.659   6.815   6.233
 3317WAT     H213989   4.633   6.686   6.270
 3317WAT    EPW13990   4.636   6.763   6.286
 3318WAT      O13991   4.165   7.593   6.407
 3318WAT     H113992   4.112   7.543   6.359
 3318WAT     H213993   4.219   7.536   6.444
 3318WAT    EPW13994   4.165   7.577   6.406
 3319WAT      O13995   4.584   7.127   7.029
 3319WAT     H113996   4.654   7.129   6.978
 3319WAT     H213997   4.561   7.042   7.029
 3319WAT    EPW13998   4.591   7.115   7.022
 3320WAT      O13999   4.297   7.377   6.537
 3320WAT     H114000   4.370   7.329   6.544
 3320WAT     H214001   4.235   7.319   6.518
 3320WAT    EPW14002   4.299   7.362   6.535
 3321WAT      O14003   4.987   7.333   7.493
 3321WAT     H114004   4.900   7.325   7.493
 3321WAT     H214005   5.003   7.374   7.417
 3321WAT    EPW14006   4.976   7.338   7.482
 3322WAT      O14007   4.379   6.850   6.376
 3322WAT     H114008   4.344   6.892   6.308
 3322WAT     H214009   4.461   6.833   6.350
 3322WAT    EPW14010   4.386   6.853   6.362
 3323WAT      O14011   5.417   6.585   7.349
 3323WAT     H114012   5.406   6.657   7.301
 3323WAT     H214013   5.338   6.570   7.382
 3323WAT    EPW14014   5.404   6.593   7.347
 3324WAT      O14015   4.725   6.771   6.561
 3324WAT     H114016   4.721   6.856   6.577
 3324WAT     H214017   4.696   6.764   6.479
 3324WAT    EPW14018   4.720   6.782   6.551
 3325WAT      O14019   5.155   6.995   5.806
 3325WAT     H114020   5.106   7.058   5.841
 3325WAT     H214021   5.171   6.942   5.874
 3325WAT    EPW14022   5.150   6.996   5.822
 3326WAT      O14023   3.965   7.243   6.749
 3326WAT     H114024   4.013   7.311   6.776
 3326WAT     H214025   3.903   7.236   6.810
 3326WAT    EPW14026   3.963   7.252   6.762
 3327WAT      O14027   4.269   6.785   6.784
 3327WAT     H114028   4.217   6.723   6.754
 3327WAT     H214029   4.332   6.741   6.826
 3327WAT    EPW14030   4.271   6.770   6.786
 3328WAT      O14031   5.720   6.972   6.493
 3328WAT     H114032   5.669   7.041   6.507
 3328WAT     H214033   5.663   6.907   6.482
 3328WAT    EPW14034   5.704   6.972   6.494
 3329WAT      O14035   4.175   6.949   7.576
 3329WAT     H114036   4.100   6.903   7.576
 3329WAT     H214037   4.231   6.897   7.533
 3329WAT    EPW14038   4.172   6.935   7.569
 3330WAT      O14039   4.816   6.758   7.547
 3330WAT     H114040   4.826   6.678   7.513
 3330WAT     H214041   4.746   6.789   7.505
 3330WAT    EPW14042   4.807   6.750   7.535
 3331WAT      O14043   4.882   7.203   6.416
 3331WAT     H114044   4.909   7.153   6.349
 3331WAT     H214045   4.956   7.225   6.456
 3331WAT    EPW14046   4.897   7.199   6.412
 3332WAT      O14047   4.983   7.180   5.943
 3332WAT     H114048   4.995   7.259   5.977
 3332WAT     H214049   4.905   7.186   5.904
 3332WAT    EPW14050   4.973   7.192   5.942
 3333WAT      O14051   5.630   6.903   6.924
 3333WAT     H114052   5.691   6.888   6.863
 3333WAT     H214053   5.652   6.849   6.988
 3333WAT    EPW14054   5.643   6.893   6.925
 3334WAT      O14055   3.882   6.962   7.313
 3334WAT     H114056   3.875   7.032   7.365
 3334WAT     H214057   3.947   6.984   7.259
 3334WAT    EPW14058   3.891   6.976   7.313
 3335WAT      O14059   5.205   6.819   6.012
 3335WAT     H114060   5.261   6.753   6.013
 3335WAT     H214061   5.228   6.866   6.082
 3335WAT    EPW14062   5.217   6.817   6.023
 3336WAT      O14063   3.981   6.958   6.244
 3336WAT     H114064   3.964   6.873   6.234
 3336WAT     H214065   3.949   6.976   6.323
 3336WAT    EPW14066   3.974   6.948   6.254
 3337WAT      O14067   4.970   7.057   6.195
 3337WAT     H114068   4.933   6.979   6.181
 3337WAT     H214069   4.968   7.095   6.117
 3337WAT    EPW14070   4.964   7.051   6.181
 3338WAT      O14071   4.961   6.769   6.137
 3338WAT     H114072   4.896   6.756   6.080
 3338WAT     H214073   5.031   6.779   6.086
 3338WAT    EPW14074   4.962   6.769   6.121
 3339WAT      O14075   4.740   7.044   6.594
 3339WAT     H114076   4.783   7.097   6.539
 3339WAT     H214077   4.760   7.076   6.673
 3339WAT    EPW14078   4.749   7.056   6.598
 3340WAT      O14079   4.344   6.588   6.466
 3340WAT     H114080   4.353   6.672   6.444
 3340WAT     H214081   4.328   6.548   6.390
 3340WAT    EPW14082   4.343   6.594   6.451
 3341WAT      O14083   5.121   6.977   7.160
 3341WAT     H114084   5.111   7.015   7.238
 3341WAT     H214085   5.057   6.918   7.157
 3341WAT    EPW14086   5.110   6.974   7.171
 3342WAT      O14087   5.299   6.606   6.473
 3342WAT     H114088   5.300   6.592   6.559
 3342WAT     H214089   5.334   6.534   6.439
 3342WAT    EPW14090   5.304   6.594   6.481
 3343WAT      O14091   5.514   7.063   7.242
 3343WAT     H114092   5.597   7.052   7.219
 3343WAT     H214093   5.519   7.083   7.327
 3343WAT    EPW14094   5.527   7.065   7.251
 3344WAT      O14095   4.274   6.986   6.590
 3344WAT     H114096   4.303   6.938   6.523
 3344WAT     H214097   4.271   6.929   6.656
 3344WAT    EPW14098   4.278   6.970   6.590
 3345WAT      O14099   4.131   7.066   6.882
 3345WAT     H114100   4.212   7.090   6.863
 3345WAT     H214101   4.081   7.123   6.838
 3345WAT    EPW14102   4.135   7.078   6.873
 3346WAT      O14103   5.396   7.462   5.951
 3346WAT     H114104   5.401   7.548   5.942
 3346WAT     H214105   5.362   7.451   6.031
 3346WAT    EPW14106   5.392   7.473   5.962
 3347WAT      O14107   5.695   6.872   5.922
 3347WAT     H114108   5.742   6.820   5.871
 3347WAT     H214109   5.675   6.939   5.871
 3347WAT    EPW14110   5.699   6.874   5.907
 3348WAT      O14111   5.786   7.247   7.187
 3348WAT     H114112   5.861   7.203   7.175
 3348WAT     H214113   5.746   7.241   7.110
 3348WAT    EPW14114   5.791   7.239   7.174
 3349WAT      O14115   5.571   6.782   6.156
 3349WAT     H114116   5.645   6.745   6.184
 3349WAT     H214117   5.596   6.825   6.084
 3349WAT    EPW14118   5.585   6.783   6.150
 3350WAT      O14119   5.252   7.040   6.618
 3350WAT     H114120   5.284   7.005   6.691
 3350WAT     H214121   5.191   6.983   6.593
 3350WAT    EPW14122   5.248   7.027   6.625
 3351WAT      O14123   4.698   6.941   6.093
 3351WAT     H114124   4.674   6.932   6.010
 3351WAT     H214125   4.678   7.024   6.112
 3351WAT    EPW14126   4.691   6.952   6.083
 3352WAT      O14127   4.262   7.219   7.544
 3352WAT     H114128   4.231   7.139   7.562
 3352WAT     H214129   4.267   7.219   7.457
 3352WAT    EPW14130   4.258   7.207   7.534
 3353WAT      O14131   4.345   7.228   6.044
 3353WAT     H114132   4.321   7.163   6.097
 3353WAT     H214133   4.284   7.227   5.981
 3353WAT    EPW14134   4.332   7.218   6.042
 3354WAT      O14135   4.192   7.401   6.801
 3354WAT     H114136   4.218   7.422   6.720
 3354WAT     H214137   4.248   7.338   6.824
 3354WAT    EPW14138   4.204   7.395   6.792
 3355WAT      O14139   4.327   7.396   7.071
 3355WAT     H114140   4.370   7.351   7.010
 3355WAT     H214141   4.266   7.439   7.025
 3355WAT    EPW14142   4.324   7.396   7.055
 3356WAT      O14143   5.398   7.220   6.891
 3356WAT     H114144   5.326   7.239   6.935
 3356WAT     H214145   5.399   7.278   6.826
 3356WAT    EPW14146   5.388   7.231   6.888
 3357WAT      O14147   4.961   6.758   7.234
 3357WAT     H114148   4.985   6.676   7.215
 3357WAT     H214149   4.993   6.769   7.315
 3357WAT    EPW14150   4.969   6.747   7.243
 3358WAT      O14151   5.236   6.975   6.236
 3358WAT     H114152   5.288   7.044   6.246
 3358WAT     H214153   5.156   7.010   6.233
 3358WAT    EPW14154   5.232   6.990   6.237
 3359WAT      O14155   4.796   7.122   6.851
 3359WAT     H114156   4.860   7.182   6.847
 3359WAT     H214157   4.837   7.051   6.881
 3359WAT    EPW14158   4.812   7.120   6.855
 3360WAT      O14159   5.004   7.423   6.085
 3360WAT     H114160   4.989   7.496   6.040
 3360WAT     H214161   4.934   7.417   6.138
 3360WAT    EPW14162   4.991   7.433   6.086
 3361WAT      O14163   4.479   6.663   5.970
 3361WAT     H114164   4.434   6.622   6.033
 3361WAT     H214165   4.431   6.734   5.954
 3361WAT    EPW14166   4.465   6.667   5.977
 3362WAT      O14167   5.604   6.638   7.552
 3362WAT     H114168   5.547   6.621   7.489
 3362WAT     H214169   5.556   6.632   7.625
 3362WAT    EPW14170   5.589   6.634   7.554
 3363WAT      O14171   3.896   6.692   6.217
 3363WAT     H114172   3.910   6.635   6.152
 3363WAT     H214173   3.877   6.640   6.285
 3363WAT    EPW14174   3.895   6.676   6.218
 3364WAT      O14175   4.781   7.403   6.253
 3364WAT     H114176   4.746   7.467   6.302
 3364WAT     H214177   4.806   7.344   6.312
 3364WAT    EPW14178   4.780   7.404   6.269
 3365WAT      O14179   4.331   6.897   5.915
 3365WAT     H114180   4.277   6.912   5.848
 3365WAT     H214181   4.404   6.938   5.892
 3365WAT    EPW14182   4.334   6.905   5.902
 3366WAT      O14183   4.483   7.167   6.601
 3366WAT     H114184   4.560   7.128   6.590
 3366WAT     H214185   4.426   7.103   6.590
 3366WAT    EPW14186   4.486   7.152   6.598
 3367WAT      O14187   4.003   7.351   6.288
 3367WAT     H114188   4.027   7.297   6.353
 3367WAT     H214189   4.017   7.304   6.216
 3367WAT    EPW14190   4.008   7.336   6.287
 3368WAT      O14191   4.510   7.364   5.854
 3368WAT     H114192   4.464   7.333   5.921
 3368WAT     H214193   4.451   7.374   5.790
 3368WAT    EPW14194   4.495   7.361   5.854
 3369WAT      O14195   4.620   7.204   6.129
 3369WAT     H114196   4.657   7.276   6.161
 3369WAT     H214197   4.537   7.227   6.115
 3369WAT    EPW14198   4.613   7.218   6.132
 3370WAT      O14199   5.370   6.957   7.498
 3370WAT     H114200   5.326   6.906   7.553
 3370WAT     H214201   5.366   6.913   7.423
 3370WAT    EPW14202   5.363   6.943   7.495
 3371WAT      O14203   3.951   6.876   6.739
 3371WAT     H114204   3.933   6.914   6.662
 3371WAT     H214205   4.023   6.917   6.766
 3371WAT    EPW14206   3.959   6.888   6.731
 3372WAT      O14207   5.249   7.322   7.599
 3372WAT     H114208   5.245   7.318   7.686
 3372WAT     H214209   5.168   7.343   7.576
 3372WAT    EPW14210   5.237   7.325   7.609
 3373WAT      O14211   5.489   7.406   7.480
 3373WAT     H114212   5.494   7.492   7.498
 3373WAT     H214213   5.415   7.382   7.519
 3373WAT    EPW14214   5.479   7.415   7.489
 3374WAT      O14215   5.496   7.148   6.533
 3374WAT     H114216   5.427   7.102   6.559
 3374WAT     H214217   5.490   7.222   6.578
 3374WAT    EPW14218   5.485   7.152   6.544
 3375WAT      O14219   5.355   6.838   7.224
 3375WAT     H114220   5.411   6.904   7.214
 3375WAT     H214221   5.279   6.873   7.198
 3375WAT    EPW14222   5.352   6.853   7.218
 3376WAT      O14223   4.573   7.114   7.310
 3376WAT     H114224   4.583   7.031   7.332
 3376WAT     H214225   4.591   7.115   7.225
 3376WAT    EPW14226   4.577   7.102   7.301
 3377WAT      O14227   5.429   6.641   7.026
 3377WAT     H114228   5.397   6.711   7.068
 3377WAT     H214229   5.514   6.643   7.045
 3377WAT    EPW14230   5.437   6.652   7.035
 3378WAT      O14231   4.692   6.702   7.172
 3378WAT     H114232   4.774   6.730   7.182
 3378WAT     H214233   4.701   6.626   7.131
 3378WAT    EPW14234   4.705   6.695   7.168
 3379WAT      O14235   5.639   7.309   5.922
 3379WAT     H114236   5.697   7.352   5.874
 3379WAT     H214237   5.567   7.359   5.917
 3379WAT    EPW14238   5.637   7.323   5.914
 3380WAT      O14239   4.384   7.204   6.857
 3380WAT     H114240   4.422   7.196   6.779
 3380WAT     H214241   4.445   7.175   6.912
 3380WAT    EPW14242   4.399   7.198   6.854
 3381WAT      O14243   5.123   7.100   7.417
 3381WAT     H114244   5.072   7.159   7.457
 3381WAT     H214245   5.198   7.104   7.461
 3381WAT    EPW14246   5.127   7.110   7.429
 3382WAT      O14247   5.146   7.216   7.014
 3382WAT     H114248   5.146   7.263   7.087
 3382WAT     H214249   5.137   7.134   7.043
 3382WAT    EPW14250   5.145   7.211   7.029
 3383WAT      O14251   5.397   7.205   6.280
 3383WAT     H114252   5.421   7.184   6.362
 3383WAT     H214253   5.469   7.242   6.247
 3383WAT    EPW14254   5.412   7.207   6.287
 3384WAT      O14255   4.705   6.689   6.830
 3384WAT     H114256   4.620   6.677   6.845
 3384WAT     H214257   4.709   6.703   6.744
 3384WAT    EPW14258   4.693   6.689   6.820
 3385WAT      O14259   5.516   6.784   6.433
 3385WAT     H114260   5.439   6.746   6.448
 3385WAT     H214261   5.514   6.801   6.347
 3385WAT    EPW14262   5.504   6.781   6.422
 3386WAT      O14263   3.961   6.769   7.495
 3386WAT     H114264   3.937   6.833   7.440
 3386WAT     H214265   3.885   6.739   7.526
 3386WAT    EPW14266   3.946   6.774   7.492
 3387WAT      O14267   4.256   6.991   6.171
 3387WAT     H114268   4.267   6.950   6.095
 3387WAT     H214269   4.171   6.979   6.189
 3387WAT    EPW14270   4.245   6.983   6.162
 3388WAT      O14271   5.681   7.205   7.440
 3388WAT     H114272   5.631   7.272   7.466
 3388WAT     H214273   5.721   7.234   7.369
 3388WAT    EPW14274   5.679   7.219   7.434
 3389WAT      O14275   5.158   7.336   7.259
 3389WAT     H114276   5.156   7.261   7.304
 3389WAT     H214277   5.243   7.351   7.246
 3389WAT    EPW14278   5.170   7.327   7.264
 3390WAT      O14279   4.307   7.193   7.263
 3390WAT     H114280   4.314   7.266   7.215
 3390WAT     H214281   4.389   7.172   7.281
 3390WAT    EPW14282   4.320   7.201   7.259
 3391WAT      O14283   4.109   7.035   7.154
 3391WAT     H114284   4.115   7.047   7.068
 3391WAT     H214285   4.173   7.083   7.187
 3391WAT    EPW14286   4.119   7.044   7.147
 3392WAT      O14287   5.623   7.345   6.200
 3392WAT     H114288   5.638   7.340   6.114
 3392WAT     H214289   5.703   7.348   6.235
 3392WAT    EPW14290   5.637   7.345   6.193
 3393WAT      O14291   4.316   6.759   7.417
 3393WAT     H114292   4.265   6.692   7.440
 3393WAT     H214293   4.286   6.781   7.338
 3393WAT    EPW14294   4.304   6.753   7.409
 3394WAT      O14295   5.428   7.333   7.215
 3394WAT     H114296   5.461   7.253   7.206
 3394WAT     H214297   5.463   7.362   7.289
 3394WAT    EPW14298   5.438   7.325   7.224
 3395WAT      O14299   4.138   7.206   5.845
 3395WAT     H114300   4.085   7.197   5.914
 3395WAT     H214301   4.137   7.127   5.808
 3395WAT    EPW14302   4.130   7.193   5.850
 3396WAT      O14303   5.074   6.831   7.486
 3396WAT     H114304   5.080   6.916   7.472
 3396WAT     H214305   4.995   6.821   7.523
 3396WAT    EPW14306   5.063   6.842   7.489
 3397WAT      O14307   5.028   6.871   6.589
 3397WAT     H114308   4.946   6.899   6.592
 3397WAT     H214309   5.026   6.809   6.528
 3397WAT    EPW14310   5.016   6.866   6.581
 3398WAT      O14311   5.357   6.947   6.860
 3398WAT     H114312   5.437   6.914   6.871
 3398WAT     H214313   5.366   7.031   6.880
 3398WAT    EPW14314   5.370   6.955   6.864
 3399WAT      O14315   5.446   7.388   6.670
 3399WAT     H114316   5.513   7.444   6.673
 3399WAT     H214317   5.392   7.424   6.612
 3399WAT    EPW14318   5.448   7.401   6.662
 3400WAT      O14319   4.502   6.870   7.052
 3400WAT     H114320   4.424   6.835   7.070
 3400WAT     H214321   4.559   6.810   7.080
 3400WAT    EPW14322   4.499   6.856   7.059
 3401WAT      O14323   5.691   6.737   7.139
 3401WAT     H114324   5.709   6.795   7.201
 3401WAT     H214325   5.765   6.692   7.130
 3401WAT    EPW14326   5.704   6.739   7.147
 3402WAT      O14327   4.891   6.876   6.931
 3402WAT     H114328   4.832   6.818   6.905
 3402WAT     H214329   4.967   6.839   6.910
 3402WAT    EPW14330   4.894   6.862   6.924
 3403WAT      O14331   4.710   7.298   7.472
 3403WAT     H114332   4.672   7.240   7.419
 3403WAT     H214333   4.645   7.328   7.522
 3403WAT    EPW14334   4.695   7.294   7.472
 3404WAT      O14335   4.761   6.679   5.935
 3404WAT     H114336   4.773   6.694   5.850
 3404WAT     H214337   4.675   6.686   5.946
 3404WAT    EPW14338   4.750   6.682   5.924
 3405WAT      O14339   4.245   6.789   7.152
 3405WAT     H114340   4.185   6.732   7.123
 3405WAT     H214341   4.206   6.866   7.146
 3405WAT    EPW14342   4.230   6.792   7.147
 3406WAT      O14343   5.133   6.777   6.831
 3406WAT     H114344   5.198   6.832   6.849
 3406WAT     H214345   5.103   6.805   6.753
 3406WAT    EPW14346   5.138   6.789   6.822
 3407WAT      O14347   5.104   7.271   6.566
 3407WAT     H114348   5.155   7.202   6.581
 3407WAT     H214349   5.070   7.289   6.644
 3407WAT    EPW14350   5.107   7.264   6.580
 3408WAT      O14351   4.095   7.190   6.504
 3408WAT     H114352   4.042   7.200   6.573
 3408WAT     H214353   4.140   7.118   6.523
 3408WAT    EPW14354   4.094   7.181   6.517
 3409WAT      O14355   5.264   7.436   6.199
 3409WAT     H114356   5.293   7.357   6.224
 3409WAT     H214357   5.183   7.420   6.173
 3409WAT    EPW14358   5.257   7.422   6.199
 3410WAT      O14359   5.596   7.042   7.660
 3410WAT     H114360   5.641   7.094   7.607
 3410WAT     H214361   5.529   7.015   7.611
 3410WAT    EPW14362   5.593   7.046   7.645
 3411WAT      O14363   5.669   7.180   6.942
 3411WAT     H114364   5.586   7.205   6.932
 3411WAT     H214365   5.665   7.093   6.937
 3411WAT    EPW14366   5.656   7.171   6.940
 3412WAT      O14367   4.590   6.834   7.395
 3412WAT     H114368   4.610   6.791   7.322
 3412WAT     H214369   4.506   6.815   7.407
 3412WAT    EPW14370   4.580   6.825   7.386
 3413WAT      O14371   5.047   6.687   4.500
 3413WAT     H114372   5.036   6.731   4.425
 3413WAT     H214373   5.133   6.679   4.507
 3413WAT    EPW14374   5.058   6.692   4.490
 3414WAT      O14375   4.995   7.321   4.924
 3414WAT     H114376   4.967   7.402   4.940
 3414WAT     H214377   5.051   7.304   4.988
 3414WAT    EPW14378   4.999   7.330   4.936
 3415WAT      O14379   3.974   7.150   4.149
 3415WAT     H114380   3.895   7.172   4.118
 3415WAT     H214381   3.957   7.081   4.200
 3415WAT    EPW14382   3.959   7.143   4.152
 3416WAT      O14383   5.280   7.490   4.575
 3416WAT     H114384   5.277   7.486   4.488
 3416WAT     H214385   5.221   7.431   4.601
 3416WAT    EPW14386   5.271   7.481   4.566
 3417WAT      O14387   4.607   6.768   4.338
 3417WAT     H114388   4.649   6.837   4.305
 3417WAT     H214389   4.645   6.757   4.416
 3417WAT    EPW14390   4.619   6.776   4.345
 3418WAT      O14391   4.165   7.582   4.503
 3418WAT     H114392   4.112   7.533   4.454
 3418WAT     H214393   4.221   7.525   4.538
 3418WAT    EPW14394   4.165   7.567   4.501
 3419WAT      O14395   4.583   7.092   5.144
 3419WAT     H114396   4.656   7.099   5.096
 3419WAT     H214397   4.569   7.005   5.147
 3419WAT    EPW14398   4.592   7.080   5.137
 3420WAT      O14399   4.303   7.362   4.624
 3420WAT     H114400   4.374   7.314   4.636
 3420WAT     H214401   4.241   7.303   4.606
 3420WAT    EPW14402   4.304   7.346   4.623
 3421WAT      O14403   5.026   7.323   5.610
 3421WAT     H114404   4.941   7.320   5.591
 3421WAT     H214405   5.061   7.360   5.539
 3421WAT    EPW14406   5.018   7.328   5.597
 3422WAT      O14407   4.362   6.824   4.461
 3422WAT     H114408   4.327   6.882   4.406
 3422WAT     H214409   4.445   6.818   4.434
 3422WAT    EPW14410   4.369   6.832   4.449
 3423WAT      O14411   5.409   6.588   5.437
 3423WAT     H114412   5.380   6.652   5.385
 3423WAT     H214413   5.336   6.560   5.477
 3423WAT    EPW14414   5.394   6.594   5.435
 3424WAT      O14415   5.144   7.000   3.907
 3424WAT     H114416   5.094   7.060   3.946
 3424WAT     H214417   5.161   6.942   3.969
 3424WAT    EPW14418   5.139   7.000   3.922
 3425WAT      O14419   3.984   7.225   4.849
 3425WAT     H114420   4.035   7.292   4.871
 3425WAT     H214421   3.916   7.232   4.904
 3425WAT    EPW14422   3.981   7.236   4.860
 3426WAT      O14423   4.224   6.780   4.877
 3426WAT     H114424   4.195   6.707   4.840
 3426WAT     H214425   4.287   6.752   4.931
 3426WAT    EPW14426   4.229   6.765   4.880
 3427WAT      O14427   4.586   6.972   5.826
 3427WAT     H114428   4.582   6.943   5.744
 3427WAT     H214429   4.631   7.046   5.821
 3427WAT    EPW14430   4.592   6.978   5.813
 3428WAT      O14431   5.723   6.974   4.593
 3428WAT     H114432   5.672   7.043   4.608
 3428WAT     H214433   5.667   6.909   4.583
 3428WAT    EPW14434   5.707   6.975   4.594
 3429WAT      O14435   4.124   6.956   5.721
 3429WAT     H114436   4.064   6.913   5.768
 3429WAT     H214437   4.081   6.981   5.650
 3429WAT    EPW14438   4.109   6.953   5.718
 3430WAT      O14439   4.806   6.706   5.650
 3430WAT     H114440   4.826   6.624   5.627
 3430WAT     H214441   4.794   6.746   5.574
 3430WAT    EPW14442   4.807   6.699   5.635
 3431WAT      O14443   4.904   7.242   4.512
 3431WAT     H114444   4.927   7.184   4.451
 3431WAT     H214445   4.978   7.256   4.556
 3431WAT    EPW14446   4.918   7.236   4.509
 3432WAT      O14447   4.957   7.197   4.030
 3432WAT     H114448   4.969   7.272   4.072
 3432WAT     H214449   4.871   7.198   4.012
 3432WAT    EPW14450   4.946   7.208   4.033
 3433WAT      O14451   5.620   6.889   5.018
 3433WAT     H114452   5.684   6.878   4.959
 3433WAT     H214453   5.640   6.830   5.080
 3433WAT    EPW14454   5.633   6.878   5.018
 3434WAT      O14455   3.943   7.034   5.509
 3434WAT     H114456   3.913   7.113   5.530
 3434WAT     H214457   3.991   7.049   5.438
 3434WAT    EPW14458   3.946   7.048   5.501
 3435WAT      O14459   5.202   6.814   4.101
 3435WAT     H114460   5.256   6.746   4.107
 3435WAT     H214461   5.227   6.866   4.166
 3435WAT    EPW14462   5.214   6.812   4.111
 3436WAT      O14463   3.981   6.939   4.343
 3436WAT     H114464   3.967   6.854   4.333
 3436WAT     H214465   3.944   6.956   4.421
 3436WAT    EPW14466   3.973   6.929   4.353
 3437WAT      O14467   4.977   7.078   4.293
 3437WAT     H114468   4.936   7.000   4.289
 3437WAT     H214469   4.964   7.112   4.214
 3437WAT    EPW14470   4.969   7.071   4.281
 3438WAT      O14471   4.965   6.782   4.246
 3438WAT     H114472   4.897   6.763   4.195
 3438WAT     H214473   5.033   6.785   4.190
 3438WAT    EPW14474   4.965   6.780   4.230
 3439WAT      O14475   4.758   7.091   4.700
 3439WAT     H114476   4.807   7.144   4.651
 3439WAT     H214477   4.782   7.110   4.782
 3439WAT    EPW14478   4.769   7.102   4.705
 3440WAT      O14479   4.350   6.555   4.562
 3440WAT     H114480   4.373   6.638   4.551
 3440WAT     H214481   4.331   6.528   4.481
 3440WAT    EPW14482   4.351   6.563   4.548
 3441WAT      O14483   5.142   7.000   5.240
 3441WAT     H114484   5.154   7.030   5.321
 3441WAT     H214485   5.079   6.940   5.250
 3441WAT    EPW14486   5.135   6.996   5.253
 3442WAT      O14487   5.308   6.610   4.578
 3442WAT     H114488   5.300   6.595   4.663
 3442WAT     H214489   5.341   6.536   4.547
 3442WAT    EPW14490   5.312   6.597   4.586
 3443WAT      O14491   5.524   7.005   5.395
 3443WAT     H114492   5.610   7.007   5.411
 3443WAT     H214493   5.488   7.008   5.475
 3443WAT    EPW14494   5.531   7.006   5.409
 3444WAT      O14495   4.284   6.970   4.681
 3444WAT     H114496   4.312   6.920   4.616
 3444WAT     H214497   4.271   6.914   4.746
 3444WAT    EPW14498   4.287   6.954   4.681
 3445WAT      O14499   4.154   7.083   5.026
 3445WAT     H114500   4.231   7.106   4.993
 3445WAT     H214501   4.097   7.106   4.964
 3445WAT    EPW14502   4.157   7.090   5.012
 3446WAT      O14503   5.394   7.457   4.045
 3446WAT     H114504   5.403   7.544   4.036
 3446WAT     H214505   5.358   7.448   4.124
 3446WAT    EPW14506   5.390   7.469   4.055
 3447WAT      O14507   5.689   6.874   4.028
 3447WAT     H114508   5.747   6.827   3.983
 3447WAT     H214509   5.669   6.939   3.974
 3447WAT    EPW14510   5.695   6.877   4.013
 3448WAT      O14511   4.735   7.206   5.811
 3448WAT     H114512   4.672   7.257   5.842
 3448WAT     H214513   4.746   7.234   5.729
 3448WAT    EPW14514   4.727   7.217   5.803
 3449WAT      O14515   5.796   7.283   5.251
 3449WAT     H114516   5.860   7.224   5.253
 3449WAT     H214517   5.744   7.255   5.187
 3449WAT    EPW14518   5.798   7.270   5.242
 3450WAT      O14519   5.564   6.773   4.257
 3450WAT     H114520   5.639   6.739   4.284
 3450WAT     H214521   5.587   6.819   4.187
 3450WAT    EPW14522   5.579   6.775   4.251
 3451WAT      O14523   5.241   7.033   4.704
 3451WAT     H114524   5.274   6.997   4.776
 3451WAT     H214525   5.170   6.986   4.687
 3451WAT    EPW14526   5.236   7.021   4.712
 3452WAT      O14527   4.710   6.975   4.183
 3452WAT     H114528   4.681   6.962   4.102
 3452WAT     H214529   4.685   7.057   4.201
 3452WAT    EPW14530   4.702   6.985   4.174
 3453WAT      O14531   4.302   7.359   5.669
 3453WAT     H114532   4.245   7.310   5.714
 3453WAT     H214533   4.295   7.329   5.587
 3453WAT    EPW14534   4.292   7.347   5.663
 3454WAT      O14535   4.342   7.233   4.144
 3454WAT     H114536   4.317   7.182   4.210
 3454WAT     H214537   4.291   7.208   4.078
 3454WAT    EPW14538   4.331   7.222   4.144
 3455WAT      O14539   4.208   7.392   4.888
 3455WAT     H114540   4.230   7.408   4.805
 3455WAT     H214541   4.266   7.332   4.913
 3455WAT    EPW14542   4.220   7.385   4.879
 3456WAT      O14543   4.320   7.386   5.169
 3456WAT     H114544   4.363   7.338   5.111
 3456WAT     H214545   4.261   7.429   5.121
 3456WAT    EPW14546   4.318   7.385   5.153
 3457WAT      O14547   5.392   7.211   4.974
 3457WAT     H114548   5.339   7.243   5.035
 3457WAT     H214549   5.397   7.275   4.915
 3457WAT    EPW14550   5.385   7.225   4.974
 3458WAT      O14551   5.004   6.785   5.363
 3458WAT     H114552   5.007   6.702   5.336
 3458WAT     H214553   5.042   6.783   5.441
 3458WAT    EPW14554   5.010   6.773   5.370
 3459WAT      O14555   5.242   6.987   4.308
 3459WAT     H114556   5.295   7.053   4.328
 3459WAT     H214557   5.162   7.022   4.316
 3459WAT    EPW14558   5.238   7.002   4.312
 3460WAT      O14559   4.805   7.121   4.978
 3460WAT     H114560   4.869   7.179   4.972
 3460WAT     H214561   4.845   7.048   5.003
 3460WAT    EPW14562   4.820   7.119   4.980
 3461WAT      O14563   4.996   7.430   4.179
 3461WAT     H114564   4.991   7.507   4.139
 3461WAT     H214565   4.928   7.430   4.233
 3461WAT    EPW14566   4.985   7.441   4.181
 3462WAT      O14567   4.471   6.658   4.124
 3462WAT     H114568   4.508   6.680   4.200
 3462WAT     H214569   4.426   6.730   4.101
 3462WAT    EPW14570   4.470   6.672   4.132
 3463WAT      O14571   5.522   6.738   5.642
 3463WAT     H114572   5.489   6.690   5.578
 3463WAT     H214573   5.529   6.682   5.709
 3463WAT    EPW14574   5.518   6.723   5.643
 3464WAT      O14575   3.919   6.659   4.318
 3464WAT     H114576   3.921   6.604   4.251
 3464WAT     H214577   3.894   6.609   4.385
 3464WAT    EPW14578   3.916   6.643   4.318
 3465WAT      O14579   4.777   7.429   4.352
 3465WAT     H114580   4.745   7.493   4.401
 3465WAT     H214581   4.809   7.373   4.410
 3465WAT    EPW14582   4.777   7.430   4.368
 3466WAT      O14583   4.338   6.888   4.049
 3466WAT     H114584   4.280   6.886   3.985
 3466WAT     H214585   4.406   6.931   4.014
 3466WAT    EPW14586   4.340   6.894   4.035
 3467WAT      O14587   4.489   7.161   4.706
 3467WAT     H114588   4.570   7.131   4.696
 3467WAT     H214589   4.439   7.090   4.691
 3467WAT    EPW14590   4.493   7.146   4.702
 3468WAT      O14591   4.008   7.328   4.378
 3468WAT     H114592   4.033   7.275   4.443
 3468WAT     H214593   4.023   7.280   4.306
 3468WAT    EPW14594   4.014   7.313   4.377
 3469WAT      O14595   4.467   7.376   3.929
 3469WAT     H114596   4.429   7.351   4.003
 3469WAT     H214597   4.400   7.381   3.873
 3469WAT    EPW14598   4.451   7.373   3.931
 3470WAT      O14599   4.623   7.235   4.209
 3470WAT     H114600   4.653   7.304   4.254
 3470WAT     H214601   4.537   7.250   4.202
 3470WAT    EPW14602   4.615   7.247   4.214
 3471WAT      O14603   5.389   6.988   5.649
 3471WAT     H114604   5.327   6.991   5.710
 3471WAT     H214605   5.419   6.906   5.656
 3471WAT    EPW14606   5.385   6.976   5.659
 3472WAT      O14607   3.948   6.878   4.851
 3472WAT     H114608   3.932   6.902   4.768
 3472WAT     H214609   4.034   6.864   4.852
 3472WAT    EPW14610   3.958   6.880   4.839
 3473WAT      O14611   5.296   7.337   5.717
 3473WAT     H114612   5.310   7.369   5.797
 3473WAT     H214613   5.208   7.336   5.711
 3473WAT    EPW14614   5.285   7.342   5.728
 3474WAT      O14615   5.475   7.407   5.519
 3474WAT     H114616   5.488   7.491   5.536
 3474WAT     H214617   5.419   7.381   5.581
 3474WAT    EPW14618   5.469   7.415   5.530
 3475WAT      O14619   5.491   7.144   4.630
 3475WAT     H114620   5.422   7.097   4.654
 3475WAT     H214621   5.485   7.217   4.677
 3475WAT    EPW14622   5.480   7.148   4.640
 3476WAT      O14623   5.830   7.411   5.745
 3476WAT     H114624   5.804   7.372   5.671
 3476WAT     H214625   5.916   7.418   5.736
 3476WAT    EPW14626   5.839   7.406   5.733
 3477WAT      O14627   5.353   6.818   5.278
 3477WAT     H114628   5.413   6.876   5.304
 3477WAT     H214629   5.285   6.867   5.255
 3477WAT    EPW14630   5.352   6.834   5.278
 3478WAT      O14631   4.565   7.138   5.417
 3478WAT     H114632   4.571   7.057   5.447
 3478WAT     H214633   4.579   7.130   5.332
 3478WAT    EPW14634   4.568   7.125   5.409
 3479WAT      O14635   5.420   6.617   5.096
 3479WAT     H114636   5.397   6.690   5.139
 3479WAT     H214637   5.506   6.610   5.111
 3479WAT    EPW14638   5.429   6.627   5.104
 3480WAT      O14639   4.731   6.823   5.385
 3480WAT     H114640   4.815   6.822   5.362
 3480WAT     H214641   4.688   6.817   5.309
 3480WAT    EPW14642   4.737   6.822   5.370
 3481WAT      O14643   5.638   7.306   4.024
 3481WAT     H114644   5.696   7.349   3.976
 3481WAT     H214645   5.565   7.354   4.017
 3481WAT    EPW14646   5.636   7.320   4.016
 3482WAT      O14647   4.404   7.201   4.965
 3482WAT     H114648   4.438   7.190   4.885
 3482WAT     H214649   4.463   7.165   5.018
 3482WAT    EPW14650   4.418   7.194   4.961
 3483WAT      O14651   5.183   7.108   5.492
 3483WAT     H114652   5.129   7.142   5.552
 3483WAT     H214653   5.248   7.075   5.539
 3483WAT    EPW14654   5.185   7.108   5.508
 3484WAT      O14655   5.159   7.257   5.131
 3484WAT     H114656   5.172   7.300   5.206
 3484WAT     H214657   5.153   7.174   5.156
 3484WAT    EPW14658   5.160   7.251   5.146
 3485WAT      O14659   5.401   7.211   4.377
 3485WAT     H114660   5.423   7.187   4.458
 3485WAT     H214661   5.473   7.250   4.348
 3485WAT    EPW14662   5.415   7.213   4.385
 3486WAT      O14663   4.685   6.688   4.991
 3486WAT     H114664   4.603   6.658   4.994
 3486WAT     H214665   4.698   6.703   4.906
 3486WAT    EPW14666   4.675   6.685   4.979
 3487WAT      O14667   5.524   6.785   4.535
 3487WAT     H114668   5.448   6.747   4.555
 3487WAT     H214669   5.518   6.800   4.449
 3487WAT    EPW14670   5.512   6.781   4.525
 3488WAT      O14671   3.891   6.755   5.515
 3488WAT     H114672   3.909   6.840   5.522
 3488WAT     H214673   3.816   6.747   5.558
 3488WAT    EPW14674   3.883   6.766   5.522
 3489WAT      O14675   4.250   7.008   4.289
 3489WAT     H114676   4.267   6.969   4.213
 3489WAT     H214677   4.166   6.991   4.303
 3489WAT    EPW14678   4.240   6.999   4.280
 3490WAT      O14679   5.729   7.287   5.518
 3490WAT     H114680   5.647   7.318   5.522
 3490WAT     H214681   5.751   7.298   5.434
 3490WAT    EPW14682   5.720   7.293   5.506
 3491WAT      O14683   5.192   7.366   5.386
 3491WAT     H114684   5.202   7.283   5.411
 3491WAT     H214685   5.274   7.396   5.379
 3491WAT    EPW14686   5.205   7.358   5.389
 3492WAT      O14687   4.307   7.247   5.408
 3492WAT     H114688   4.312   7.304   5.342
 3492WAT     H214689   4.388   7.215   5.414
 3492WAT    EPW14690   4.320   7.251   5.399
 3493WAT      O14691   4.115   7.084   5.294
 3493WAT     H114692   4.127   7.086   5.207
 3493WAT     H214693   4.180   7.134   5.324
 3493WAT    EPW14694   4.127   7.092   5.286
 3494WAT      O14695   5.625   7.355   4.301
 3494WAT     H114696   5.640   7.346   4.215
 3494WAT     H214697   5.705   7.354   4.336
 3494WAT    EPW14698   5.639   7.353   4.293
 3495WAT      O14699   5.449   7.255   5.282
 3495WAT     H114700   5.474   7.174   5.302
 3495WAT     H214701   5.478   7.302   5.350
 3495WAT    EPW14702   5.457   7.250   5.295
 3496WAT      O14703   4.163   7.146   3.942
 3496WAT     H114704   4.098   7.150   4.000
 3496WAT     H214705   4.154   7.068   3.905
 3496WAT    EPW14706   4.152   7.135   3.945
 3497WAT      O14707   5.074   6.785   5.637
 3497WAT     H114708   5.097   6.854   5.685
 3497WAT     H214709   4.992   6.769   5.661
 3497WAT    EPW14710   5.065   6.793   5.648
 3498WAT      O14711   4.999   6.887   4.690
 3498WAT     H114712   4.914   6.909   4.692
 3498WAT     H214713   5.001   6.821   4.634
 3498WAT    EPW14714   4.987   6.880   4.682
 3499WAT      O14715   5.348   6.939   4.944
 3499WAT     H114716   5.427   6.905   4.959
 3499WAT     H214717   5.357   7.023   4.964
 3499WAT    EPW14718   5.361   6.946   4.949
 3500WAT      O14719   5.455   7.388   4.764
 3500WAT     H114720   5.528   7.436   4.762
 3500WAT     H214721   5.403   7.428   4.706
 3500WAT    EPW14722   5.458   7.401   4.755
 3501WAT      O14723   4.497   6.830   5.207
 3501WAT     H114724   4.412   6.842   5.221
 3501WAT     H214725   4.499   6.777   5.138
 3501WAT    EPW14726   4.485   6.824   5.199
 3502WAT      O14727   5.677   6.694   5.214
 3502WAT     H114728   5.657   6.718   5.296
 3502WAT     H214729   5.761   6.669   5.220
 3502WAT    EPW14730   5.687   6.694   5.227
 3503WAT      O14731   4.886   6.871   5.069
 3503WAT     H114732   4.825   6.814   5.044
 3503WAT     H214733   4.959   6.840   5.035
 3503WAT    EPW14734   4.887   6.858   5.061
 3504WAT      O14735   4.745   7.309   5.553
 3504WAT     H114736   4.695   7.256   5.504
 3504WAT     H214737   4.696   7.381   5.561
 3504WAT    EPW14738   4.730   7.312   5.547
 3505WAT      O14739   4.759   6.681   4.062
 3505WAT     H114740   4.770   6.696   3.976
 3505WAT     H214741   4.674   6.695   4.075
 3505WAT    EPW14742   4.748   6.685   4.051
 3506WAT      O14743   4.230   6.830   5.288
 3506WAT     H114744   4.173   6.775   5.251
 3506WAT     H214745   4.189   6.907   5.287
 3506WAT    EPW14746   4.216   6.833   5.282
 3507WAT      O14747   5.110   6.785   4.927
 3507WAT     H114748   5.180   6.836   4.940
 3507WAT     H214749   5.076   6.816   4.853
 3507WAT    EPW14750   5.115   6.797   4.918
 3508WAT      O14751   5.122   7.283   4.677
 3508WAT     H114752   5.164   7.208   4.686
 3508WAT     H214753   5.085   7.296   4.755
 3508WAT    EPW14754   5.123   7.274   4.690
 3509WAT      O14755   4.101   7.172   4.598
 3509WAT     H114756   4.052   7.180   4.669
 3509WAT     H214757   4.150   7.101   4.614
 3509WAT    EPW14758   4.101   7.163   4.611
 3510WAT      O14759   5.260   7.435   4.292
 3510WAT     H114760   5.290   7.358   4.318
 3510WAT     H214761   5.178   7.418   4.269
 3510WAT    EPW14762   5.252   7.421   4.293
 3511WAT      O14763   5.630   7.081   5.760
 3511WAT     H114764   5.624   7.156   5.804
 3511WAT     H214765   5.549   7.069   5.729
 3511WAT    EPW14766   5.617   7.091   5.762
 3512WAT      O14767   5.662   7.167   5.032
 3512WAT     H114768   5.579   7.192   5.025
 3512WAT     H214769   5.658   7.080   5.033
 3512WAT    EPW14770   5.649   7.158   5.031
 3513WAT      O14771   4.544   6.823   5.583
 3513WAT     H114772   4.600   6.830   5.516
 3513WAT     H214773   4.577   6.758   5.631
 3513WAT    EPW14774   4.557   6.814   5.580
 3514WAT      O14775   5.040   6.678   2.600
 3514WAT     H114776   5.043   6.725   2.526
 3514WAT     H214777   5.124   6.660   2.616
 3514WAT    EPW14778   5.053   6.683   2.592
 3515WAT      O14779   4.995   7.308   3.029
 3515WAT     H114780   4.969   7.388   3.052
 3515WAT     H214781   5.052   7.286   3.091
 3515WAT    EPW14782   4.999   7.316   3.042
 3516WAT      O14783   3.976   7.152   2.259
 3516WAT     H114784   3.896   7.162   2.227
 3516WAT     H214785   3.969   7.082   2.310
 3516WAT    EPW14786   3.963   7.143   2.262
 3517WAT      O14787   5.262   7.480   2.683
 3517WAT     H114788   5.264   7.477   2.595
 3517WAT     H214789   5.205   7.418   2.704
 3517WAT    EPW14790   5.254   7.471   2.673
 3518WAT      O14791   4.696   6.792   2.485
 3518WAT     H114792   4.688   6.857   2.427
 3518WAT     H214793   4.774   6.758   2.466
 3518WAT    EPW14794   4.706   6.796   2.474
 3519WAT      O14795   4.167   7.580   2.604
 3519WAT     H114796   4.115   7.531   2.555
 3519WAT     H214797   4.222   7.523   2.639
 3519WAT    EPW14798   4.167   7.565   2.602
 3520WAT      O14799   4.585   7.117   3.241
 3520WAT     H114800   4.657   7.116   3.191
 3520WAT     H214801   4.567   7.032   3.252
 3520WAT    EPW14802   4.593   7.104   3.235
 3521WAT      O14803   4.307   7.366   2.729
 3521WAT     H114804   4.380   7.319   2.739
 3521WAT     H214805   4.247   7.306   2.709
 3521WAT    EPW14806   4.309   7.350   2.727
 3522WAT      O14807   5.016   7.285   3.768
 3522WAT     H114808   4.942   7.301   3.725
 3522WAT     H214809   4.988   7.258   3.846
 3522WAT    EPW14810   5.001   7.283   3.773
 3523WAT      O14811   4.420   6.825   2.564
 3523WAT     H114812   4.382   6.879   2.506
 3523WAT     H214813   4.503   6.822   2.537
 3523WAT    EPW14814   4.427   6.833   2.552
 3524WAT      O14815   5.386   6.594   3.563
 3524WAT     H114816   5.363   6.657   3.508
 3524WAT     H214817   5.312   6.574   3.604
 3524WAT    EPW14818   5.372   6.601   3.561
 3525WAT      O14819   4.719   6.748   2.765
 3525WAT     H114820   4.726   6.831   2.789
 3525WAT     H214821   4.699   6.752   2.681
 3525WAT    EPW14822   4.717   6.761   2.756
 3526WAT      O14823   5.146   6.995   2.007
 3526WAT     H114824   5.101   7.060   2.042
 3526WAT     H214825   5.160   6.941   2.074
 3526WAT    EPW14826   5.142   6.996   2.022
 3527WAT      O14827   3.982   7.217   2.939
 3527WAT     H114828   4.025   7.289   2.965
 3527WAT     H214829   3.914   7.214   2.993
 3527WAT    EPW14830   3.978   7.228   2.951
 3528WAT      O14831   4.258   6.783   2.969
 3528WAT     H114832   4.220   6.712   2.936
 3528WAT     H214833   4.315   6.751   3.028
 3528WAT    EPW14834   4.261   6.768   2.973
 3529WAT      O14835   4.578   6.977   3.925
 3529WAT     H114836   4.585   6.950   3.843
 3529WAT     H214837   4.611   7.058   3.923
 3529WAT    EPW14838   4.584   6.985   3.913
 3530WAT      O14839   5.721   6.973   2.693
 3530WAT     H114840   5.671   7.042   2.707
 3530WAT     H214841   5.665   6.907   2.686
 3530WAT    EPW14842   5.706   6.973   2.694
 3531WAT      O14843   4.156   6.883   3.834
 3531WAT     H114844   4.077   6.855   3.810
 3531WAT     H214845   4.209   6.854   3.771
 3531WAT    EPW14846   4.152   6.875   3.821
 3532WAT      O14847   4.784   6.723   3.787
 3532WAT     H114848   4.799   6.653   3.737
 3532WAT     H214849   4.720   6.765   3.745
 3532WAT    EPW14850   4.777   6.719   3.774
 3533WAT      O14851   4.882   7.201   2.625
 3533WAT     H114852   4.910   7.160   2.553
 3533WAT     H214853   4.956   7.222   2.666
 3533WAT    EPW14854   4.897   7.198   2.621
 3534WAT      O14855   4.983   7.195   2.133
 3534WAT     H114856   4.993   7.274   2.168
 3534WAT     H214857   4.903   7.198   2.097
 3534WAT    EPW14858   4.973   7.207   2.133
 3535WAT      O14859   5.635   6.890   3.118
 3535WAT     H114860   5.698   6.877   3.058
 3535WAT     H214861   5.654   6.832   3.180
 3535WAT    EPW14862   5.647   6.879   3.118
 3536WAT      O14863   3.895   7.007   3.558
 3536WAT     H114864   3.883   7.083   3.600
 3536WAT     H214865   3.957   7.025   3.501
 3536WAT    EPW14866   3.902   7.021   3.556
 3537WAT      O14867   5.195   6.821   2.218
 3537WAT     H114868   5.249   6.753   2.222
 3537WAT     H214869   5.217   6.869   2.288
 3537WAT    EPW14870   5.206   6.818   2.229
 3538WAT      O14871   3.999   6.946   2.455
 3538WAT     H114872   3.978   6.862   2.443
 3538WAT     H214873   3.959   6.967   2.529
 3538WAT    EPW14874   3.990   6.937   2.464
 3539WAT      O14875   4.959   7.078   2.386
 3539WAT     H114876   4.897   7.019   2.369
 3539WAT     H214877   4.969   7.119   2.309
 3539WAT    EPW14878   4.951   7.076   2.372
 3540WAT      O14879   4.952   6.763   2.341
 3540WAT     H114880   4.894   6.753   2.276
 3540WAT     H214881   5.027   6.781   2.299
 3540WAT    EPW14882   4.955   6.764   2.325
 3541WAT      O14883   4.761   7.023   2.803
 3541WAT     H114884   4.796   7.082   2.750
 3541WAT     H214885   4.774   7.057   2.883
 3541WAT    EPW14886   4.768   7.037   2.807
 3542WAT      O14887   4.349   6.567   2.640
 3542WAT     H114888   4.371   6.650   2.621
 3542WAT     H214889   4.322   6.535   2.564
 3542WAT    EPW14890   4.348   6.575   2.626
 3543WAT      O14891   5.119   6.991   3.356
 3543WAT     H114892   5.125   7.027   3.435
 3543WAT     H214893   5.053   6.935   3.365
 3543WAT    EPW14894   5.110   6.988   3.369
 3544WAT      O14895   5.300   6.601   2.678
 3544WAT     H114896   5.302   6.583   2.763
 3544WAT     H214897   5.336   6.531   2.641
 3544WAT    EPW14898   5.305   6.588   2.685
 3545WAT      O14899   5.517   7.007   3.498
 3545WAT     H114900   5.603   7.009   3.514
 3545WAT     H214901   5.481   7.013   3.577
 3545WAT    EPW14902   5.525   7.008   3.512
 3546WAT      O14903   4.296   6.971   2.769
 3546WAT     H114904   4.330   6.920   2.706
 3546WAT     H214905   4.285   6.916   2.836
 3546WAT    EPW14906   4.299   6.955   2.769
 3547WAT      O14907   4.148   7.071   3.108
 3547WAT     H114908   4.228   7.095   3.083
 3547WAT     H214909   4.095   7.111   3.051
 3547WAT    EPW14910   4.152   7.081   3.096
 3548WAT      O14911   5.392   7.457   2.150
 3548WAT     H114912   5.395   7.544   2.140
 3548WAT     H214913   5.359   7.447   2.230
 3548WAT    EPW14914   5.387   7.469   2.160
 3549WAT      O14915   5.682   6.876   2.133
 3549WAT     H114916   5.744   6.829   2.092
 3549WAT     H214917   5.664   6.940   2.076
 3549WAT    EPW14918   5.689   6.879   2.119
 3550WAT      O14919   4.704   7.224   3.906
 3550WAT     H114920   4.638   7.274   3.933
 3550WAT     H214921   4.716   7.248   3.823
 3550WAT    EPW14922   4.696   7.235   3.898
 3551WAT      O14923   5.803   7.290   3.350
 3551WAT     H114924   5.865   7.229   3.351
 3551WAT     H214925   5.748   7.263   3.287
 3551WAT    EPW14926   5.804   7.277   3.341
 3552WAT      O14927   5.558   6.777   2.363
 3552WAT     H114928   5.634   6.741   2.389
 3552WAT     H214929   5.580   6.823   2.292
 3552WAT    EPW14930   5.573   6.779   2.357
 3553WAT      O14931   5.256   7.033   2.817
 3553WAT     H114932   5.290   7.000   2.890
 3553WAT     H214933   5.191   6.978   2.797
 3553WAT    EPW14934   5.252   7.020   2.825
 3554WAT      O14935   4.698   6.983   2.290
 3554WAT     H114936   4.678   6.964   2.207
 3554WAT     H214937   4.674   7.067   2.298
 3554WAT    EPW14938   4.692   6.993   2.279
 3555WAT      O14939   4.230   7.352   3.768
 3555WAT     H114940   4.208   7.281   3.814
 3555WAT     H214941   4.242   7.321   3.688
 3555WAT    EPW14942   4.229   7.337   3.763
 3556WAT      O14943   4.341   7.232   2.253
 3556WAT     H114944   4.322   7.175   2.316
 3556WAT     H214945   4.287   7.211   2.189
 3556WAT    EPW14946   4.330   7.221   2.253
 3557WAT      O14947   4.198   7.392   2.991
 3557WAT     H114948   4.223   7.413   2.910
 3557WAT     H214949   4.257   7.332   3.015
 3557WAT    EPW14950   4.210   7.386   2.983
 3558WAT      O14951   4.311   7.386   3.271
 3558WAT     H114952   4.357   7.340   3.213
 3558WAT     H214953   4.251   7.427   3.222
 3558WAT    EPW14954   4.309   7.386   3.255
 3559WAT      O14955   5.400   7.207   3.072
 3559WAT     H114956   5.343   7.235   3.132
 3559WAT     H214957   5.402   7.272   3.014
 3559WAT    EPW14958   5.392   7.221   3.072
 3560WAT      O14959   4.959   6.774   3.453
 3560WAT     H114960   4.990   6.697   3.427
 3560WAT     H214961   4.994   6.786   3.532
 3560WAT    EPW14962   4.969   6.765   3.461
 3561WAT      O14963   5.215   6.975   2.444
 3561WAT     H114964   5.271   7.041   2.454
 3561WAT     H214965   5.137   7.014   2.435
 3561WAT    EPW14966   5.211   6.990   2.444
 3562WAT      O14967   4.801   7.108   3.063
 3562WAT     H114968   4.865   7.167   3.060
 3562WAT     H214969   4.841   7.035   3.090
 3562WAT    EPW14970   4.816   7.106   3.066
 3563WAT      O14971   5.000   7.428   2.289
 3563WAT     H114972   4.985   7.504   2.248
 3563WAT     H214973   4.933   7.422   2.345
 3563WAT    EPW14974   4.988   7.439   2.291
 3564WAT      O14975   4.496   6.669   2.195
 3564WAT     H114976   4.490   6.647   2.279
 3564WAT     H214977   4.443   6.738   2.188
 3564WAT    EPW14978   4.488   6.676   2.206
 3565WAT      O14979   5.521   6.746   3.753
 3565WAT     H114980   5.483   6.697   3.692
 3565WAT     H214981   5.528   6.692   3.821
 3565WAT    EPW14982   5.516   6.731   3.754
 3566WAT      O14983   3.914   6.675   2.429
 3566WAT     H114984   3.917   6.618   2.362
 3566WAT     H214985   3.883   6.627   2.495
 3566WAT    EPW14986   3.910   6.659   2.429
 3567WAT      O14987   4.787   7.414   2.472
 3567WAT     H114988   4.760   7.479   2.524
 3567WAT     H214989   4.809   7.351   2.528
 3567WAT    EPW14990   4.786   7.414   2.488
 3568WAT      O14991   4.345   6.895   2.152
 3568WAT     H114992   4.283   6.892   2.091
 3568WAT     H214993   4.411   6.937   2.113
 3568WAT    EPW14994   4.346   6.901   2.137
 3569WAT      O14995   4.497   7.156   2.805
 3569WAT     H114996   4.574   7.115   2.796
 3569WAT     H214997   4.439   7.094   2.789
 3569WAT    EPW14998   4.500   7.141   2.801
 3570WAT      O14999   4.006   7.335   2.480
 3570WAT     H115000   4.033   7.281   2.543
 3570WAT     H215001   4.018   7.288   2.407
 3570WAT    EPW15002   4.012   7.320   2.478
 3571WAT      O15003   4.479   7.355   2.029
 3571WAT     H115004   4.442   7.331   2.104
 3571WAT     H215005   4.412   7.365   1.975
 3571WAT    EPW15006   4.464   7.353   2.032
 3572WAT      O15007   4.621   7.244   2.313
 3572WAT     H115008   4.653   7.310   2.360
 3572WAT     H215009   4.535   7.261   2.310
 3572WAT    EPW15010   4.613   7.256   2.320
 3573WAT      O15011   5.382   6.993   3.751
 3573WAT     H115012   5.318   6.997   3.811
 3573WAT     H215013   5.414   6.913   3.761
 3573WAT    EPW15014   5.377   6.982   3.761
 3574WAT      O15015   3.950   6.864   2.938
 3574WAT     H115016   3.934   6.904   2.862
 3574WAT     H215017   4.034   6.882   2.953
 3574WAT    EPW15018   3.960   6.873   2.929
 3575WAT      O15019   5.297   7.347   3.800
 3575WAT     H115020   5.312   7.375   3.882
 3575WAT     H215021   5.210   7.344   3.795
 3575WAT    EPW15022   5.287   7.351   3.812
 3576WAT      O15023   5.486   7.411   3.609
 3576WAT     H115024   5.481   7.498   3.608
 3576WAT     H215025   5.424   7.388   3.666
 3576WAT    EPW15026   5.476   7.420   3.618
 3577WAT      O15027   5.497   7.148   2.730
 3577WAT     H115028   5.430   7.100   2.760
 3577WAT     H215029   5.491   7.222   2.776
 3577WAT    EPW15030   5.486   7.152   2.742
 3578WAT      O15031   5.830   7.409   3.848
 3578WAT     H115032   5.805   7.372   3.773
 3578WAT     H215033   5.916   7.417   3.840
 3578WAT    EPW15034   5.839   7.405   3.836
 3579WAT      O15035   5.336   6.820   3.399
 3579WAT     H115036   5.397   6.878   3.420
 3579WAT     H215037   5.267   6.868   3.376
 3579WAT    EPW15038   5.335   6.835   3.398
 3580WAT      O15039   4.562   7.147   3.521
 3580WAT     H115040   4.568   7.066   3.552
 3580WAT     H215041   4.576   7.138   3.435
 3580WAT    EPW15042   4.565   7.134   3.513
 3581WAT      O15043   5.422   6.622   3.222
 3581WAT     H115044   5.391   6.693   3.264
 3581WAT     H215045   5.508   6.626   3.237
 3581WAT    EPW15046   5.430   6.633   3.231
 3582WAT      O15047   4.689   6.712   3.469
 3582WAT     H115048   4.773   6.734   3.454
 3582WAT     H215049   4.694   6.631   3.500
 3582WAT    EPW15050   4.702   6.704   3.471
 3583WAT      O15051   5.638   7.308   2.119
 3583WAT     H115052   5.698   7.352   2.073
 3583WAT     H215053   5.566   7.357   2.112
 3583WAT    EPW15054   5.636   7.322   2.111
 3584WAT      O15055   4.397   7.202   3.060
 3584WAT     H115056   4.435   7.192   2.982
 3584WAT     H215057   4.457   7.172   3.116
 3584WAT    EPW15058   4.411   7.196   3.057
 3585WAT      O15059   5.167   7.122   3.597
 3585WAT     H115060   5.117   7.160   3.658
 3585WAT     H215061   5.235   7.092   3.642
 3585WAT    EPW15062   5.170   7.123   3.613
 3586WAT      O15063   5.166   7.236   3.228
 3586WAT     H115064   5.178   7.284   3.300
 3586WAT     H215065   5.152   7.156   3.259
 3586WAT    EPW15066   5.166   7.231   3.243
 3587WAT      O15067   5.390   7.198   2.480
 3587WAT     H115068   5.415   7.179   2.561
 3587WAT     H215069   5.461   7.233   2.444
 3587WAT    EPW15070   5.404   7.201   2.487
 3588WAT      O15071   4.697   6.667   3.049
 3588WAT     H115072   4.612   6.666   3.070
 3588WAT     H215073   4.696   6.678   2.962
 3588WAT    EPW15074   4.684   6.669   3.039
 3589WAT      O15075   5.516   6.783   2.641
 3589WAT     H115076   5.440   6.745   2.660
 3589WAT     H215077   5.511   6.799   2.556
 3589WAT    EPW15078   5.504   6.780   2.631
 3590WAT      O15079   3.912   6.783   3.720
 3590WAT     H115080   3.910   6.855   3.672
 3590WAT     H215081   3.828   6.767   3.737
 3590WAT    EPW15082   3.899   6.791   3.716
 3591WAT      O15083   4.275   6.997   2.401
 3591WAT     H115084   4.286   6.963   2.321
 3591WAT     H215085   4.191   6.984   2.417
 3591WAT    EPW15086   4.264   6.990   2.392
 3592WAT      O15087   5.735   7.288   3.617
 3592WAT     H115088   5.655   7.323   3.621
 3592WAT     H215089   5.759   7.302   3.534
 3592WAT    EPW15090   5.727   7.295   3.605
 3593WAT      O15091   5.210   7.368   3.465
 3593WAT     H115092   5.192   7.299   3.514
 3593WAT     H215093   5.296   7.363   3.452
 3593WAT    EPW15094   5.220   7.357   3.470
 3594WAT      O15095   4.293   7.239   3.507
 3594WAT     H115096   4.298   7.297   3.442
 3594WAT     H215097   4.375   7.212   3.516
 3594WAT    EPW15098   4.306   7.243   3.499
 3595WAT      O15099   4.104   7.073   3.378
 3595WAT     H115100   4.121   7.077   3.293
 3595WAT     H215101   4.167   7.123   3.413
 3595WAT    EPW15102   4.116   7.081   3.371
 3596WAT      O15103   5.617   7.336   2.397
 3596WAT     H115104   5.633   7.333   2.311
 3596WAT     H215105   5.697   7.341   2.433
 3596WAT    EPW15106   5.631   7.336   2.390
 3597WAT      O15107   4.326   6.775   3.638
 3597WAT     H115108   4.339   6.689   3.631
 3597WAT     H215109   4.298   6.798   3.558
 3597WAT    EPW15110   4.324   6.766   3.625
 3598WAT      O15111   5.466   7.258   3.375
 3598WAT     H115112   5.482   7.176   3.399
 3598WAT     H215113   5.498   7.305   3.441
 3598WAT    EPW15114   5.473   7.253   3.388
 3599WAT      O15115   4.162   7.154   2.051
 3599WAT     H115116   4.096   7.157   2.108
 3599WAT     H215117   4.154   7.075   2.014
 3599WAT    EPW15118   4.151   7.143   2.054
 3600WAT      O15119   5.037   6.818   3.721
 3600WAT     H115120   5.069   6.882   3.770
 3600WAT     H215121   4.959   6.802   3.755
 3600WAT    EPW15122   5.030   6.825   3.733
 3601WAT      O15123   5.028   6.870   2.802
 3601WAT     H115124   4.948   6.904   2.804
 3601WAT     H215125   5.023   6.810   2.739
 3601WAT    EPW15126   5.016   6.866   2.793
 3602WAT      O15127   5.362   6.934   3.056
 3602WAT     H115128   5.443   6.903   3.068
 3602WAT     H215129   5.371   7.019   3.074
 3602WAT    EPW15130   5.376   6.942   3.060
 3603WAT      O15131   5.449   7.391   2.864
 3603WAT     H115132   5.515   7.447   2.865
 3603WAT     H215133   5.392   7.426   2.808
 3603WAT    EPW15134   5.450   7.404   2.856
 3604WAT      O15135   4.512   6.864   3.309
 3604WAT     H115136   4.429   6.840   3.325
 3604WAT     H215137   4.559   6.801   3.347
 3604WAT    EPW15138   4.506   6.851   3.317
 3605WAT      O15139   5.682   6.705   3.324
 3605WAT     H115140   5.673   6.749   3.399
 3605WAT     H215141   5.764   6.675   3.328
 3605WAT    EPW15142   5.693   6.707   3.336
 3606WAT      O15143   4.896   6.857   3.127
 3606WAT     H115144   4.837   6.795   3.110
 3606WAT     H215145   4.972   6.819   3.111
 3606WAT    EPW15146   4.898   6.842   3.122
 3607WAT      O15147   4.750   7.313   3.649
 3607WAT     H115148   4.698   7.260   3.603
 3607WAT     H215149   4.713   7.391   3.641
 3607WAT    EPW15150   4.737   7.316   3.641
 3608WAT      O15151   4.766   6.705   2.143
 3608WAT     H115152   4.775   6.713   2.057
 3608WAT     H215153   4.680   6.708   2.156
 3608WAT    EPW15154   4.755   6.707   2.132
 3609WAT      O15155   4.241   6.827   3.382
 3609WAT     H115156   4.186   6.763   3.357
 3609WAT     H215157   4.193   6.899   3.373
 3609WAT    EPW15158   4.225   6.828   3.377
 3610WAT      O15159   5.144   6.758   3.033
 3610WAT     H115160   5.209   6.813   3.052
 3610WAT     H215161   5.112   6.790   2.959
 3610WAT    EPW15162   5.149   6.771   3.025
 3611WAT      O15163   5.106   7.265   2.776
 3611WAT     H115164   5.159   7.197   2.788
 3611WAT     H215165   5.074   7.282   2.855
 3611WAT    EPW15166   5.109   7.258   2.789
 3612WAT      O15167   4.109   7.174   2.692
 3612WAT     H115168   4.058   7.179   2.762
 3612WAT     H215169   4.156   7.102   2.706
 3612WAT    EPW15170   4.109   7.164   2.704
 3613WAT      O15171   5.262   7.433   2.400
 3613WAT     H115172   5.290   7.354   2.424
 3613WAT     H215173   5.180   7.419   2.374
 3613WAT    EPW15174   5.254   7.419   2.399
 3614WAT      O15175   5.627   7.080   3.858
 3614WAT     H115176   5.624   7.154   3.904
 3614WAT     H215177   5.545   7.071   3.829
 3614WAT    EPW15178   5.614   7.090   3.861
 3615WAT      O15179   5.671   7.170   3.131
 3615WAT     H115180   5.588   7.193   3.125
 3615WAT     H215181   5.668   7.082   3.132
 3615WAT    EPW15182   5.659   7.160   3.130
 3616WAT      O15183   4.580   6.886   3.652
 3616WAT     H115184   4.616   6.842   3.585
 3616WAT     H215185   4.497   6.858   3.652
 3616WAT    EPW15186   4.573   6.875   3.642
 3617WAT      O15187   5.084   6.676   0.672
 3617WAT     H115188   5.106   6.711   0.595
 3617WAT     H215189   5.160   6.646   0.703
 3617WAT    EPW15190   5.099   6.677   0.665
 3618WAT      O15191   4.987   7.319   1.127
 3618WAT     H115192   4.963   7.398   1.153
 3618WAT     H215193   5.042   7.292   1.190
 3618WAT    EPW15194   4.992   7.327   1.140
 3619WAT      O15195   4.023   7.166   0.387
 3619WAT     H115196   3.952   7.174   0.336
 3619WAT     H215197   4.005   7.096   0.436
 3619WAT    EPW15198   4.010   7.157   0.387
 3620WAT      O15199   5.271   7.494   0.803
 3620WAT     H115200   5.278   7.495   0.716
 3620WAT     H215201   5.213   7.431   0.819
 3620WAT    EPW15202   5.264   7.485   0.793
 3621WAT      O15203   4.712   6.784   0.618
 3621WAT     H115204   4.717   6.863   0.581
 3621WAT     H215205   4.740   6.730   0.556
 3621WAT    EPW15206   4.717   6.788   0.604
 3622WAT      O15207   4.179   7.594   0.695
 3622WAT     H115208   4.121   7.544   0.655
 3622WAT     H215209   4.230   7.537   0.738
 3622WAT    EPW15210   4.178   7.579   0.696
 3623WAT      O15211   4.585   7.120   1.346
 3623WAT     H115212   4.658   7.120   1.297
 3623WAT     H215213   4.565   7.036   1.353
 3623WAT    EPW15214   4.593   7.108   1.339
 3624WAT      O15215   4.299   7.380   0.835
 3624WAT     H115216   4.371   7.333   0.850
 3624WAT     H215217   4.239   7.319   0.818
 3624WAT    EPW15218   4.301   7.364   0.835
 3625WAT      O15219   5.022   7.340   1.804
 3625WAT     H115220   4.936   7.336   1.788
 3625WAT     H215221   5.056   7.370   1.729
 3625WAT    EPW15222   5.014   7.344   1.790
 3626WAT      O15223   4.437   6.818   0.693
 3626WAT     H115224   4.391   6.849   0.626
 3626WAT     H215225   4.517   6.808   0.661
 3626WAT    EPW15226   4.442   6.821   0.679
 3627WAT      O15227   5.391   6.594   1.663
 3627WAT     H115228   5.367   6.657   1.608
 3627WAT     H215229   5.317   6.572   1.703
 3627WAT    EPW15230   5.376   6.600   1.661
 3628WAT      O15231   4.773   6.780   0.889
 3628WAT     H115232   4.751   6.861   0.910
 3628WAT     H215233   4.752   6.774   0.804
 3628WAT    EPW15234   4.767   6.791   0.880
 3629WAT      O15235   3.978   7.229   1.049
 3629WAT     H115236   4.021   7.300   1.076
 3629WAT     H215237   3.912   7.223   1.104
 3629WAT    EPW15238   3.975   7.239   1.061
 3630WAT      O15239   4.270   6.792   1.087
 3630WAT     H115240   4.230   6.722   1.053
 3630WAT     H215241   4.329   6.757   1.142
 3630WAT    EPW15242   4.273   6.776   1.090
 3631WAT      O15243   4.583   6.978   2.021
 3631WAT     H115244   4.584   6.949   1.939
 3631WAT     H215245   4.624   7.055   2.016
 3631WAT    EPW15246   4.590   6.985   2.009
 3632WAT      O15247   5.714   6.971   0.799
 3632WAT     H115248   5.664   7.040   0.817
 3632WAT     H215249   5.657   6.907   0.783
 3632WAT    EPW15250   5.698   6.971   0.799
 3633WAT      O15251   4.153   6.894   1.945
 3633WAT     H115252   4.074   6.866   1.923
 3633WAT     H215253   4.204   6.868   1.878
 3633WAT    EPW15254   4.149   6.886   1.932
 3634WAT      O15255   4.785   6.719   1.870
 3634WAT     H115256   4.801   6.645   1.826
 3634WAT     H215257   4.718   6.753   1.827
 3634WAT    EPW15258   4.778   6.713   1.857
 3635WAT      O15259   4.885   7.209   0.735
 3635WAT     H115260   4.915   7.168   0.664
 3635WAT     H215261   4.957   7.232   0.778
 3635WAT    EPW15262   4.900   7.206   0.731
 3636WAT      O15263   4.962   7.265   0.275
 3636WAT     H115264   4.978   7.340   0.316
 3636WAT     H215265   4.879   7.272   0.250
 3636WAT    EPW15266   4.952   7.277   0.277
 3637WAT      O15267   5.636   6.898   1.233
 3637WAT     H115268   5.697   6.884   1.172
 3637WAT     H215269   5.654   6.838   1.294
 3637WAT    EPW15270   5.648   6.887   1.233
 3638WAT      O15271   3.895   7.010   1.663
 3638WAT     H115272   3.887   7.087   1.705
 3638WAT     H215273   3.957   7.026   1.604
 3638WAT    EPW15274   3.903   7.024   1.661
 3639WAT      O15275   5.144   6.759   0.414
 3639WAT     H115276   5.209   6.712   0.379
 3639WAT     H215277   5.183   6.834   0.435
 3639WAT    EPW15278   5.160   6.763   0.412
 3640WAT      O15279   3.982   6.945   0.561
 3640WAT     H115280   3.955   6.864   0.542
 3640WAT     H215281   3.941   6.963   0.636
 3640WAT    EPW15282   3.972   6.936   0.569
 3641WAT      O15283   4.963   7.096   0.493
 3641WAT     H115284   4.891   7.050   0.475
 3641WAT     H215285   4.971   7.148   0.423
 3641WAT    EPW15286   4.954   7.097   0.480
 3642WAT      O15287   4.871   6.750   0.360
 3642WAT     H115288   4.843   6.831   0.347
 3642WAT     H215289   4.958   6.759   0.369
 3642WAT    EPW15290   4.880   6.763   0.359
 3643WAT      O15291   4.729   7.054   0.911
 3643WAT     H115292   4.780   7.102   0.859
 3643WAT     H215293   4.755   7.077   0.991
 3643WAT    EPW15294   4.740   7.065   0.915
 3644WAT      O15295   4.361   6.562   0.753
 3644WAT     H115296   4.384   6.644   0.738
 3644WAT     H215297   4.328   6.535   0.677
 3644WAT    EPW15298   4.360   6.570   0.740
 3645WAT      O15299   5.117   6.979   1.454
 3645WAT     H115300   5.119   7.010   1.535
 3645WAT     H215301   5.051   6.922   1.456
 3645WAT    EPW15302   5.107   6.975   1.466
 3646WAT      O15303   5.321   6.594   0.784
 3646WAT     H115304   5.321   6.574   0.869
 3646WAT     H215305   5.353   6.522   0.747
 3646WAT    EPW15306   5.326   6.580   0.791
 3647WAT      O15307   5.508   7.027   1.595
 3647WAT     H115308   5.594   7.021   1.608
 3647WAT     H215309   5.475   7.025   1.676
 3647WAT    EPW15310   5.516   7.026   1.609
 3648WAT      O15311   4.294   6.972   0.879
 3648WAT     H115312   4.336   6.922   0.822
 3648WAT     H215313   4.287   6.921   0.950
 3648WAT    EPW15314   4.299   6.957   0.881
 3649WAT      O15315   4.145   7.081   1.214
 3649WAT     H115316   4.225   7.105   1.189
 3649WAT     H215317   4.093   7.121   1.157
 3649WAT    EPW15318   4.150   7.090   1.202
 3650WAT      O15319   5.404   7.359   0.276
 3650WAT     H115320   5.329   7.317   0.259
 3650WAT     H215321   5.385   7.406   0.347
 3650WAT    EPW15322   5.390   7.360   0.284
 3651WAT      O15323   5.614   6.966   0.241
 3651WAT     H115324   5.625   6.945   0.157
 3651WAT     H215325   5.621   7.053   0.241
 3651WAT    EPW15326   5.617   6.976   0.228
 3652WAT      O15327   4.728   7.216   2.011
 3652WAT     H115328   4.662   7.263   2.041
 3652WAT     H215329   4.737   7.243   1.929
 3652WAT    EPW15330   4.719   7.227   2.003
 3653WAT      O15331   5.807   7.292   1.456
 3653WAT     H115332   5.868   7.229   1.458
 3653WAT     H215333   5.752   7.266   1.393
 3653WAT    EPW15334   5.808   7.279   1.447
 3654WAT      O15335   5.534   6.781   0.439
 3654WAT     H115336   5.614   6.749   0.454
 3654WAT     H215337   5.549   6.846   0.382
 3654WAT    EPW15338   5.548   6.786   0.433
 3655WAT      O15339   5.247   7.037   0.927
 3655WAT     H115340   5.283   7.004   1.000
 3655WAT     H215341   5.187   6.978   0.905
 3655WAT    EPW15342   5.243   7.024   0.935
 3656WAT      O15343   4.713   6.986   0.419
 3656WAT     H115344   4.651   6.930   0.394
 3656WAT     H215345   4.678   7.064   0.405
 3656WAT    EPW15346   4.699   6.989   0.413
 3657WAT      O15347   4.239   7.353   1.874
 3657WAT     H115348   4.212   7.284   1.920
 3657WAT     H215349   4.247   7.323   1.793
 3657WAT    EPW15350   4.236   7.339   1.869
 3658WAT      O15351   4.318   7.164   0.374
 3658WAT     H115352   4.312   7.105   0.438
 3658WAT     H215353   4.236   7.191   0.362
 3658WAT    EPW15354   4.305   7.159   0.381
 3659WAT      O15355   4.196   7.403   1.099
 3659WAT     H115356   4.221   7.422   1.017
 3659WAT     H215357   4.254   7.344   1.124
 3659WAT    EPW15358   4.208   7.397   1.090
 3660WAT      O15359   4.312   7.397   1.380
 3660WAT     H115360   4.355   7.349   1.321
 3660WAT     H215361   4.250   7.437   1.333
 3660WAT    EPW15362   4.309   7.396   1.364
 3661WAT      O15363   5.394   7.211   1.190
 3661WAT     H115364   5.326   7.234   1.239
 3661WAT     H215365   5.397   7.274   1.129
 3661WAT    EPW15366   5.384   7.224   1.188
 3662WAT      O15367   4.956   6.763   1.551
 3662WAT     H115368   4.983   6.684   1.527
 3662WAT     H215369   4.993   6.775   1.629
 3662WAT    EPW15370   4.965   6.753   1.559
 3663WAT      O15371   5.227   6.998   0.519
 3663WAT     H115372   5.283   7.062   0.538
 3663WAT     H215373   5.149   7.038   0.519
 3663WAT    EPW15374   5.224   7.013   0.522
 3664WAT      O15375   4.802   7.113   1.170
 3664WAT     H115376   4.864   7.174   1.162
 3664WAT     H215377   4.847   7.041   1.191
 3664WAT    EPW15378   4.818   7.111   1.172
 3665WAT      O15379   5.010   7.481   0.443
 3665WAT     H115380   5.003   7.566   0.422
 3665WAT     H215381   4.939   7.466   0.490
 3665WAT    EPW15382   4.999   7.491   0.447
 3666WAT      O15383   4.524   6.790   0.364
 3666WAT     H115384   4.511   6.706   0.382
 3666WAT     H215385   4.456   6.811   0.314
 3666WAT    EPW15386   4.512   6.781   0.359
 3667WAT      O15387   5.522   6.744   1.855
 3667WAT     H115388   5.484   6.695   1.793
 3667WAT     H215389   5.526   6.690   1.923
 3667WAT    EPW15390   5.517   6.729   1.856
 3668WAT      O15391   3.896   6.677   0.508
 3668WAT     H115392   3.900   6.619   0.443
 3668WAT     H215393   3.873   6.630   0.577
 3668WAT    EPW15394   3.893   6.661   0.508
 3669WAT      O15395   4.777   7.416   0.581
 3669WAT     H115396   4.742   7.473   0.636
 3669WAT     H215397   4.804   7.351   0.634
 3669WAT    EPW15398   4.775   7.415   0.597
 3670WAT      O15399   4.307   6.916   0.233
 3670WAT     H115400   4.276   6.917   0.151
 3670WAT     H215401   4.318   7.000   0.252
 3670WAT    EPW15402   4.304   6.928   0.224
 3671WAT      O15403   4.479   7.174   0.911
 3671WAT     H115404   4.558   7.138   0.905
 3671WAT     H215405   4.425   7.108   0.897
 3671WAT    EPW15406   4.483   7.159   0.908
 3672WAT      O15407   4.017   7.349   0.601
 3672WAT     H115408   4.038   7.296   0.667
 3672WAT     H215409   4.032   7.300   0.530
 3672WAT    EPW15410   4.023   7.334   0.600
 3673WAT      O15411   4.605   7.238   0.383
 3673WAT     H115412   4.622   7.301   0.441
 3673WAT     H215413   4.518   7.236   0.379
 3673WAT    EPW15414   4.595   7.247   0.391
 3674WAT      O15415   5.381   6.990   1.851
 3674WAT     H115416   5.320   6.993   1.912
 3674WAT     H215417   5.414   6.909   1.859
 3674WAT    EPW15418   5.377   6.978   1.861
 3675WAT      O15419   3.947   6.875   1.043
 3675WAT     H115420   3.930   6.911   0.966
 3675WAT     H215421   4.032   6.893   1.055
 3675WAT    EPW15422   3.957   6.883   1.034
 3676WAT      O15423   5.288   7.331   1.916
 3676WAT     H115424   5.301   7.362   1.996
 3676WAT     H215425   5.202   7.339   1.905
 3676WAT    EPW15426   5.277   7.337   1.926
 3677WAT      O15427   5.497   7.405   1.751
 3677WAT     H115428   5.491   7.492   1.755
 3677WAT     H215429   5.430   7.378   1.800
 3677WAT    EPW15430   5.486   7.414   1.759
 3678WAT      O15431   5.491   7.148   0.843
 3678WAT     H115432   5.422   7.103   0.870
 3678WAT     H215433   5.488   7.221   0.890
 3678WAT    EPW15434   5.481   7.152   0.854
 3679WAT      O15435   5.837   7.412   1.952
 3679WAT     H115436   5.814   7.372   1.878
 3679WAT     H215437   5.924   7.420   1.945
 3679WAT    EPW15438   5.847   7.407   1.940
 3680WAT      O15439   5.342   6.822   1.501
 3680WAT     H115440   5.399   6.886   1.519
 3680WAT     H215441   5.270   6.865   1.476
 3680WAT    EPW15442   5.340   6.838   1.500
 3681WAT      O15443   4.559   7.147   1.625
 3681WAT     H115444   4.560   7.065   1.656
 3681WAT     H215445   4.574   7.137   1.540
 3681WAT    EPW15446   4.561   7.133   1.617
 3682WAT      O15447   5.426   6.621   1.328
 3682WAT     H115448   5.395   6.692   1.369
 3682WAT     H215449   5.512   6.626   1.341
 3682WAT    EPW15450   5.434   6.632   1.336
 3683WAT      O15451   4.681   6.717   1.566
 3683WAT     H115452   4.767   6.730   1.555
 3683WAT     H215453   4.676   6.633   1.587
 3683WAT    EPW15454   4.693   6.707   1.567
 3684WAT      O15455   5.656   7.248   0.237
 3684WAT     H115456   5.682   7.278   0.160
 3684WAT     H215457   5.575   7.280   0.245
 3684WAT    EPW15458   5.648   7.257   0.227
 3685WAT      O15459   4.394   7.214   1.171
 3685WAT     H115460   4.429   7.203   1.092
 3685WAT     H215461   4.454   7.180   1.225
 3685WAT    EPW15462   4.408   7.207   1.167
 3686WAT      O15463   5.158   7.100   1.702
 3686WAT     H115464   5.110   7.139   1.763
 3686WAT     H215465   5.227   7.070   1.746
 3686WAT    EPW15466   5.161   7.101   1.718
 3687WAT      O15467   5.148   7.225   1.326
 3687WAT     H115468   5.155   7.270   1.400
 3687WAT     H215469   5.136   7.143   1.352
 3687WAT    EPW15470   5.147   7.220   1.340
 3688WAT      O15471   5.397   7.213   0.591
 3688WAT     H115472   5.420   7.189   0.672
 3688WAT     H215473   5.472   7.244   0.558
 3688WAT    EPW15474   5.412   7.214   0.598
 3689WAT      O15475   4.712   6.680   1.160
 3689WAT     H115476   4.626   6.673   1.177
 3689WAT     H215477   4.715   6.694   1.074
 3689WAT    EPW15478   4.700   6.681   1.150
 3690WAT      O15479   5.521   6.782   0.722
 3690WAT     H115480   5.448   6.741   0.747
 3690WAT     H215481   5.508   6.796   0.637
 3690WAT    EPW15482   5.508   6.778   0.713
 3691WAT      O15483   3.914   6.789   1.830
 3691WAT     H115484   3.912   6.860   1.779
 3691WAT     H215485   3.829   6.771   1.843
 3691WAT    EPW15486   3.901   6.797   1.824
 3692WAT      O15487   4.257   6.930   0.516
 3692WAT     H115488   4.253   6.898   0.435
 3692WAT     H215489   4.173   6.933   0.541
 3692WAT    EPW15490   4.244   6.926   0.507
 3693WAT      O15491   5.745   7.283   1.725
 3693WAT     H115492   5.665   7.316   1.735
 3693WAT     H215493   5.764   7.300   1.641
 3693WAT    EPW15494   5.736   7.290   1.714
 3694WAT      O15495   5.189   7.340   1.571
 3694WAT     H115496   5.183   7.263   1.611
 3694WAT     H215497   5.273   7.344   1.547
 3694WAT    EPW15498   5.201   7.329   1.573
 3695WAT      O15499   4.293   7.243   1.611
 3695WAT     H115500   4.298   7.303   1.547
 3695WAT     H215501   4.375   7.214   1.619
 3695WAT    EPW15502   4.306   7.248   1.603
 3696WAT      O15503   4.103   7.079   1.483
 3696WAT     H115504   4.119   7.082   1.398
 3696WAT     H215505   4.166   7.128   1.518
 3696WAT    EPW15506   4.115   7.087   1.476
 3697WAT      O15507   5.636   7.333   0.512
 3697WAT     H115508   5.659   7.315   0.430
 3697WAT     H215509   5.712   7.344   0.553
 3697WAT    EPW15510   5.650   7.332   0.506
 3698WAT      O15511   4.305   6.779   1.743
 3698WAT     H115512   4.275   6.697   1.747
 3698WAT     H215513   4.288   6.803   1.660
 3698WAT    EPW15514   4.298   6.771   1.731
 3699WAT      O15515   5.451   7.290   1.502
 3699WAT     H115516   5.471   7.206   1.514
 3699WAT     H215517   5.482   7.329   1.574
 3699WAT    EPW15518   5.459   7.283   1.514
 3700WAT      O15519   5.043   6.808   1.819
 3700WAT     H115520   5.071   6.873   1.870
 3700WAT     H215521   4.962   6.794   1.847
 3700WAT    EPW15522   5.035   6.816   1.830
 3701WAT      O15523   5.052   6.837   0.893
 3701WAT     H115524   4.966   6.832   0.904
 3701WAT     H215525   5.066   6.793   0.819
 3701WAT    EPW15526   5.042   6.830   0.883
 3702WAT      O15527   5.366   6.939   1.160
 3702WAT     H115528   5.447   6.908   1.175
 3702WAT     H215529   5.372   7.023   1.182
 3702WAT    EPW15530   5.379   6.947   1.165
 3703WAT      O15531   5.452   7.389   0.982
 3703WAT     H115532   5.518   7.446   0.989
 3703WAT     H215533   5.397   7.429   0.927
 3703WAT    EPW15534   5.454   7.404   0.975
 3704WAT      O15535   4.510   6.866   1.398
 3704WAT     H115536   4.428   6.844   1.418
 3704WAT     H215537   4.558   6.805   1.439
 3704WAT    EPW15538   4.505   6.854   1.407
 3705WAT      O15539   5.684   6.704   1.431
 3705WAT     H115540   5.673   6.739   1.510
 3705WAT     H215541   5.766   6.675   1.433
 3705WAT    EPW15542   5.695   6.705   1.443
 3706WAT      O15543   4.917   6.867   1.221
 3706WAT     H115544   4.856   6.805   1.215
 3706WAT     H215545   4.991   6.824   1.207
 3706WAT    EPW15546   4.919   6.851   1.218
 3707WAT      O15547   4.739   7.320   1.754
 3707WAT     H115548   4.690   7.264   1.708
 3707WAT     H215549   4.687   7.389   1.766
 3707WAT    EPW15550   4.724   7.322   1.749
 3708WAT      O15551   4.245   6.836   1.483
 3708WAT     H115552   4.191   6.771   1.459
 3708WAT     H215553   4.195   6.907   1.474
 3708WAT    EPW15554   4.229   6.837   1.478
 3709WAT      O15555   5.161   6.749   1.137
 3709WAT     H115556   5.223   6.807   1.154
 3709WAT     H215557   5.133   6.772   1.057
 3709WAT    EPW15558   5.166   6.761   1.128
 3710WAT      O15559   5.109   7.277   0.880
 3710WAT     H115560   5.157   7.205   0.894
 3710WAT     H215561   5.074   7.293   0.958
 3710WAT    EPW15562   5.111   7.269   0.894
 3711WAT      O15563   4.109   7.179   0.806
 3711WAT     H115564   4.058   7.184   0.876
 3711WAT     H215565   4.156   7.106   0.820
 3711WAT    EPW15566   4.108   7.169   0.819
 3712WAT      O15567   5.283   7.456   0.522
 3712WAT     H115568   5.305   7.375   0.547
 3712WAT     H215569   5.198   7.449   0.503
 3712WAT    EPW15570   5.274   7.443   0.523
 3713WAT      O15571   5.625   7.078   1.958
 3713WAT     H115572   5.622   7.154   2.000
 3713WAT     H215573   5.544   7.068   1.928
 3713WAT    EPW15574   5.613   7.088   1.960
 3714WAT      O15575   5.667   7.177   1.242
 3714WAT     H115576   5.583   7.199   1.236
 3714WAT     H215577   5.664   7.090   1.244
 3714WAT    EPW15578   5.654   7.167   1.242
 3715WAT      O15579   4.565   6.883   1.750
 3715WAT     H115580   4.600   6.840   1.683
 3715WAT     H215581   4.483   6.851   1.754
 3715WAT    EPW15582   4.558   6.872   1.741
 3716WAT      O15583   5.056   4.855   6.387
 3716WAT     H115584   5.073   4.911   6.322
 3716WAT     H215585   5.135   4.828   6.412
 3716WAT    EPW15586   5.070   4.859   6.381
 3717WAT      O15587   4.999   5.470   6.838
 3717WAT     H115588   4.964   5.547   6.860
 3717WAT     H215589   5.053   5.453   6.905
 3717WAT    EPW15590   5.002   5.479   6.851
 3718WAT      O15591   3.916   5.940   6.375
 3718WAT     H115592   3.837   5.938   6.411
 3718WAT     H215593   3.922   5.863   6.335
 3718WAT    EPW15594   3.905   5.929   6.374
 3719WAT      O15595   5.604   6.325   6.161
 3719WAT     H115596   5.668   6.269   6.181
 3719WAT     H215597   5.555   6.280   6.105
 3719WAT    EPW15598   5.606   6.310   6.155
 3720WAT      O15599   4.276   5.802   5.877
 3720WAT     H115600   4.210   5.790   5.821
 3720WAT     H215601   4.246   5.767   5.951
 3720WAT    EPW15602   4.262   5.795   5.880
 3721WAT      O15603   5.242   5.654   6.490
 3721WAT     H115604   5.255   5.640   6.405
 3721WAT     H215605   5.188   5.590   6.513
 3721WAT    EPW15606   5.236   5.642   6.481
 3722WAT      O15607   4.178   6.023   6.303
 3722WAT     H115608   4.234   5.989   6.361
 3722WAT     H215609   4.101   5.993   6.329
 3722WAT    EPW15610   4.175   6.014   6.315
 3723WAT      O15611   4.674   4.996   6.251
 3723WAT     H115612   4.656   5.056   6.191
 3723WAT     H215613   4.754   4.969   6.230
 3723WAT    EPW15614   4.683   5.001   6.239
 3724WAT      O15615   4.079   6.350   5.911
 3724WAT     H115616   4.133   6.345   5.843
 3724WAT     H215617   4.133   6.357   5.979
 3724WAT    EPW15618   4.095   6.350   5.911
 3725WAT      O15619   4.664   6.013   7.463
 3725WAT     H115620   4.668   5.963   7.535
 3725WAT     H215621   4.586   5.993   7.429
 3725WAT    EPW15622   4.653   6.003   7.469
 3726WAT      O15623   4.136   5.690   6.481
 3726WAT     H115624   4.083   5.688   6.412
 3726WAT     H215625   4.189   5.622   6.468
 3726WAT    EPW15626   4.136   5.680   6.469
 3727WAT      O15627   4.595   5.282   7.042
 3727WAT     H115628   4.665   5.286   6.991
 3727WAT     H215629   4.568   5.200   7.036
 3727WAT    EPW15630   4.601   5.271   7.034
 3728WAT      O15631   4.626   6.282   7.204
 3728WAT     H115632   4.640   6.350   7.151
 3728WAT     H215633   4.705   6.264   7.236
 3728WAT    EPW15634   4.639   6.290   7.201
 3729WAT      O15635   4.319   5.479   6.475
 3729WAT     H115636   4.388   5.430   6.500
 3729WAT     H215637   4.253   5.422   6.475
 3729WAT    EPW15638   4.319   5.463   6.479
 3730WAT      O15639   4.748   6.117   6.639
 3730WAT     H115640   4.774   6.036   6.658
 3730WAT     H215641   4.823   6.160   6.626
 3730WAT    EPW15642   4.763   6.112   6.640
 3731WAT      O15643   4.820   6.046   6.281
 3731WAT     H115644   4.846   5.977   6.327
 3731WAT     H215645   4.842   6.026   6.199
 3731WAT    EPW15646   4.827   6.033   6.276
 3732WAT      O15647   4.957   5.483   7.444
 3732WAT     H115648   4.873   5.488   7.421
 3732WAT     H215649   4.963   5.538   7.511
 3732WAT    EPW15650   4.945   5.492   7.450
 3733WAT      O15651   4.400   5.004   6.338
 3733WAT     H115652   4.360   5.054   6.278
 3733WAT     H215653   4.483   5.004   6.313
 3733WAT    EPW15654   4.406   5.012   6.326
 3734WAT      O15655   5.415   4.766   7.345
 3734WAT     H115656   5.397   4.832   7.291
 3734WAT     H215657   5.338   4.745   7.378
 3734WAT    EPW15658   5.401   4.772   7.342
 3735WAT      O15659   4.719   4.925   6.525
 3735WAT     H115660   4.729   5.007   6.553
 3735WAT     H215661   4.693   4.935   6.442
 3735WAT    EPW15662   4.716   4.939   6.517
 3736WAT      O15663   5.130   5.138   5.800
 3736WAT     H115664   5.091   5.205   5.841
 3736WAT     H215665   5.153   5.085   5.866
 3736WAT    EPW15666   5.127   5.140   5.816
 3737WAT      O15667   3.994   5.435   6.730
 3737WAT     H115668   3.990   5.521   6.745
 3737WAT     H215669   3.929   5.403   6.780
 3737WAT    EPW15670   3.984   5.443   6.740
 3738WAT      O15671   3.953   6.384   6.581
 3738WAT     H115672   3.896   6.436   6.540
 3738WAT     H215673   3.998   6.347   6.517
 3738WAT    EPW15674   3.951   6.386   6.566
 3739WAT      O15675   4.548   6.084   6.243
 3739WAT     H115676   4.520   6.124   6.315
 3739WAT     H215677   4.634   6.076   6.256
 3739WAT    EPW15678   4.557   6.089   6.255
 3740WAT      O15679   5.181   6.424   6.040
 3740WAT     H115680   5.251   6.476   6.047
 3740WAT     H215681   5.209   6.348   6.073
 3740WAT    EPW15682   5.196   6.421   6.046
 3741WAT      O15683   4.986   6.448   6.234
 3741WAT     H115684   4.994   6.517   6.287
 3741WAT     H215685   5.051   6.457   6.177
 3741WAT    EPW15686   4.997   6.460   6.233
 3742WAT      O15687   4.259   4.926   6.756
 3742WAT     H115688   4.223   4.852   6.727
 3742WAT     H215689   4.320   4.898   6.811
 3742WAT    EPW15690   4.263   4.911   6.760
 3743WAT      O15691   4.096   6.281   6.365
 3743WAT     H115692   4.138   6.205   6.357
 3743WAT     H215693   4.144   6.336   6.317
 3743WAT    EPW15694   4.110   6.278   6.357
 3744WAT      O15695   5.717   5.127   6.498
 3744WAT     H115696   5.666   5.197   6.508
 3744WAT     H215697   5.661   5.061   6.487
 3744WAT    EPW15698   5.701   5.127   6.498
 3745WAT      O15699   5.221   6.448   7.058
 3745WAT     H115700   5.290   6.502   7.051
 3745WAT     H215701   5.206   6.424   6.976
 3745WAT    EPW15702   5.229   6.453   7.045
 3746WAT      O15703   4.112   5.175   7.565
 3746WAT     H115704   4.033   5.143   7.583
 3746WAT     H215705   4.155   5.107   7.531
 3746WAT    EPW15706   4.107   5.160   7.562
 3747WAT      O15707   4.285   6.138   6.677
 3747WAT     H115708   4.342   6.136   6.610
 3747WAT     H215709   4.317   6.080   6.733
 3747WAT    EPW15710   4.298   6.129   6.675
 3748WAT      O15711   4.536   6.440   6.612
 3748WAT     H115712   4.615   6.463   6.581
 3748WAT     H215713   4.482   6.494   6.570
 3748WAT    EPW15714   4.540   6.452   6.602
 3749WAT      O15715   4.800   4.915   7.551
 3749WAT     H115716   4.813   4.836   7.516
 3749WAT     H215717   4.729   4.944   7.509
 3749WAT    EPW15718   4.791   4.908   7.539
 3750WAT      O15719   4.884   5.376   6.412
 3750WAT     H115720   4.910   5.331   6.343
 3750WAT     H215721   4.957   5.390   6.457
 3750WAT    EPW15722   4.898   5.372   6.409
 3751WAT      O15723   4.990   5.353   5.916
 3751WAT     H115724   5.024   5.426   5.949
 3751WAT     H215725   4.961   5.378   5.837
 3751WAT    EPW15726   4.991   5.368   5.909
 3752WAT      O15727   5.388   6.611   6.038
 3752WAT     H115728   5.438   6.590   5.969
 3752WAT     H215729   5.441   6.658   6.088
 3752WAT    EPW15730   5.404   6.615   6.035
 3753WAT      O15731   4.414   6.541   7.182
 3753WAT     H115732   4.459   6.529   7.256
 3753WAT     H215733   4.367   6.612   7.198
 3753WAT    EPW15734   4.414   6.550   7.195
 3754WAT      O15735   5.626   5.052   6.912
 3754WAT     H115736   5.691   5.042   6.855
 3754WAT     H215737   5.647   4.996   6.976
 3754WAT    EPW15738   5.639   5.042   6.913
 3755WAT      O15739   3.865   5.177   7.303
 3755WAT     H115740   3.860   5.253   7.345
 3755WAT     H215741   3.930   5.189   7.247
 3755WAT    EPW15742   3.873   5.190   7.301
 3756WAT      O15743   5.076   6.215   7.472
 3756WAT     H115744   5.071   6.140   7.516
 3756WAT     H215745   5.161   6.222   7.454
 3756WAT    EPW15746   5.088   6.205   7.476
 3757WAT      O15747   4.856   6.232   5.863
 3757WAT     H115748   4.828   6.292   5.919
 3757WAT     H215749   4.933   6.262   5.837
 3757WAT    EPW15750   4.863   6.245   5.867
 3758WAT      O15751   5.190   4.975   6.020
 3758WAT     H115752   5.245   4.908   6.021
 3758WAT     H215753   5.216   5.025   6.087
 3758WAT    EPW15754   5.202   4.973   6.030
 3759WAT      O15755   3.990   5.104   6.255
 3759WAT     H115756   3.981   5.018   6.245
 3759WAT     H215757   3.952   5.120   6.331
 3759WAT    EPW15758   3.983   5.094   6.265
 3760WAT      O15759   4.188   6.347   7.061
 3760WAT     H115760   4.253   6.339   7.119
 3760WAT     H215761   4.230   6.361   6.986
 3760WAT    EPW15762   4.204   6.348   7.058
 3761WAT      O15763   4.958   5.241   6.176
 3761WAT     H115764   4.930   5.160   6.161
 3761WAT     H215765   4.957   5.278   6.097
 3761WAT    EPW15766   4.954   5.235   6.162
 3762WAT      O15767   4.972   6.485   7.165
 3762WAT     H115768   5.051   6.476   7.130
 3762WAT     H215769   4.919   6.482   7.095
 3762WAT    EPW15770   4.976   6.483   7.149
 3763WAT      O15771   4.931   4.965   6.122
 3763WAT     H115772   4.879   4.933   6.059
 3763WAT     H215773   5.011   4.961   6.086
 3763WAT    EPW15774   4.936   4.959   6.107
 3764WAT      O15775   5.659   6.545   6.439
 3764WAT     H115776   5.619   6.621   6.452
 3764WAT     H215777   5.594   6.489   6.424
 3764WAT    EPW15778   5.644   6.548   6.438
 3765WAT      O15779   4.767   5.193   6.590
 3765WAT     H115780   4.797   5.256   6.538
 3765WAT     H215781   4.778   5.226   6.670
 3765WAT    EPW15782   4.773   5.207   6.594
 3766WAT      O15783   5.388   6.123   6.501
 3766WAT     H115784   5.449   6.061   6.493
 3766WAT     H215785   5.313   6.079   6.492
 3766WAT    EPW15786   5.386   6.107   6.499
 3767WAT      O15787   4.356   6.222   7.271
 3767WAT     H115788   4.436   6.248   7.249
 3767WAT     H215789   4.339   6.266   7.344
 3767WAT    EPW15790   4.365   6.233   7.278
 3768WAT      O15791   4.311   4.746   6.399
 3768WAT     H115792   4.335   4.829   6.384
 3768WAT     H215793   4.286   4.717   6.320
 3768WAT    EPW15794   4.311   4.754   6.385
 3769WAT      O15795   4.542   5.798   6.769
 3769WAT     H115796   4.569   5.780   6.850
 3769WAT     H215797   4.485   5.734   6.751
 3769WAT    EPW15798   4.537   5.786   6.778
 3770WAT      O15799   5.108   5.152   7.158
 3770WAT     H115800   5.103   5.180   7.240
 3770WAT     H215801   5.044   5.093   7.153
 3770WAT    EPW15802   5.098   5.147   7.169
 3771WAT      O15803   4.657   5.816   7.022
 3771WAT     H115804   4.636   5.900   7.027
 3771WAT     H215805   4.624   5.782   7.095
 3771WAT    EPW15806   4.649   5.823   7.034
 3772WAT      O15807   5.283   5.888   7.035
 3772WAT     H115808   5.210   5.857   7.069
 3772WAT     H215809   5.274   5.975   7.041
 3772WAT    EPW15810   5.271   5.897   7.041
 3773WAT      O15811   5.302   4.761   6.480
 3773WAT     H115812   5.304   4.749   6.566
 3773WAT     H215813   5.335   4.688   6.447
 3773WAT    EPW15814   5.307   4.749   6.488
 3774WAT      O15815   5.493   5.230   7.229
 3774WAT     H115816   5.575   5.204   7.239
 3774WAT     H215817   5.463   5.235   7.311
 3774WAT    EPW15818   5.501   5.227   7.242
 3775WAT      O15819   4.285   5.124   6.564
 3775WAT     H115820   4.316   5.077   6.497
 3775WAT     H215821   4.277   5.065   6.628
 3775WAT    EPW15822   4.289   5.108   6.564
 3776WAT      O15823   5.584   5.918   6.028
 3776WAT     H115824   5.585   5.870   6.101
 3776WAT     H215825   5.668   5.927   6.007
 3776WAT    EPW15826   5.596   5.912   6.035
 3777WAT      O15827   4.332   5.888   6.486
 3777WAT     H115828   4.386   5.857   6.425
 3777WAT     H215829   4.274   5.824   6.495
 3777WAT    EPW15830   4.332   5.874   6.478
 3778WAT      O15831   4.156   6.556   6.665
 3778WAT     H115832   4.087   6.513   6.633
 3778WAT     H215833   4.207   6.567   6.596
 3778WAT    EPW15834   4.153   6.551   6.650
 3779WAT      O15835   4.159   5.258   6.871
 3779WAT     H115836   4.241   5.287   6.865
 3779WAT     H215837   4.112   5.317   6.826
 3779WAT    EPW15838   4.164   5.271   6.863
 3780WAT      O15839   5.802   6.337   7.380
 3780WAT     H115840   5.735   6.342   7.324
 3780WAT     H215841   5.764   6.318   7.456
 3780WAT    EPW15842   5.787   6.335   7.383
 3781WAT      O15843   5.391   5.588   5.950
 3781WAT     H115844   5.388   5.670   5.921
 3781WAT     H215845   5.365   5.594   6.033
 3781WAT    EPW15846   5.387   5.601   5.958
 3782WAT      O15847   4.446   5.823   6.234
 3782WAT     H115848   4.476   5.904   6.229
 3782WAT     H215849   4.514   5.774   6.209
 3782WAT    EPW15850   4.461   5.828   6.229
 3783WAT      O15851   5.656   5.062   5.916
 3783WAT     H115852   5.650   4.991   5.867
 3783WAT     H215853   5.632   5.127   5.862
 3783WAT    EPW15854   5.652   5.061   5.901
 3784WAT      O15855   4.032   6.028   6.721
 3784WAT     H115856   3.974   6.057   6.662
 3784WAT     H215857   4.108   6.058   6.690
 3784WAT    EPW15858   4.035   6.037   6.708
 3785WAT      O15859   5.810   5.469   7.172
 3785WAT     H115860   5.832   5.397   7.129
 3785WAT     H215861   5.725   5.479   7.154
 3785WAT    EPW15862   5.801   5.460   7.163
 3786WAT      O15863   3.969   5.695   6.253
 3786WAT     H115864   3.963   5.608   6.252
 3786WAT     H215865   4.038   5.711   6.201
 3786WAT    EPW15866   3.978   5.685   6.245
 3787WAT      O15867   5.559   4.945   6.154
 3787WAT     H115868   5.635   4.907   6.174
 3787WAT     H215869   5.579   4.995   6.086
 3787WAT    EPW15870   5.573   4.947   6.147
 3788WAT      O15871   4.967   6.286   6.601
 3788WAT     H115872   4.917   6.352   6.573
 3788WAT     H215873   5.003   6.256   6.527
 3788WAT    EPW15874   4.965   6.291   6.586
 3789WAT      O15875   3.895   6.165   6.213
 3789WAT     H115876   3.959   6.210   6.251
 3789WAT     H215877   3.888   6.093   6.263
 3789WAT    EPW15878   3.904   6.161   6.226
 3790WAT      O15879   4.354   5.966   6.881
 3790WAT     H115880   4.409   6.006   6.936
 3790WAT     H215881   4.407   5.915   6.833
 3790WAT    EPW15882   4.370   5.964   6.882
 3791WAT      O15883   5.256   5.201   6.615
 3791WAT     H115884   5.287   5.169   6.689
 3791WAT     H215885   5.191   5.146   6.594
 3791WAT    EPW15886   5.251   5.188   6.623
 3792WAT      O15887   3.949   6.035   5.973
 3792WAT     H115888   4.036   6.040   5.970
 3792WAT     H215889   3.928   6.082   6.043
 3792WAT    EPW15890   3.959   6.042   5.983
 3793WAT      O15891   4.012   5.746   6.723
 3793WAT     H115892   4.053   5.725   6.649
 3793WAT     H215893   4.017   5.833   6.724
 3793WAT    EPW15894   4.019   5.756   6.712
 3794WAT      O15895   4.619   5.175   6.047
 3794WAT     H115896   4.606   5.152   5.964
 3794WAT     H215897   4.592   5.258   6.050
 3794WAT    EPW15898   4.613   5.184   6.035
 3795WAT      O15899   5.549   6.350   7.240
 3795WAT     H115900   5.513   6.429   7.249
 3795WAT     H215901   5.544   6.335   7.154
 3795WAT    EPW15902   5.543   6.360   7.229
 3796WAT      O15903   4.506   6.184   6.504
 3796WAT     H115904   4.510   6.269   6.526
 3796WAT     H215905   4.578   6.150   6.538
 3796WAT    EPW15906   4.517   6.192   6.512
 3797WAT      O15907   4.103   5.440   7.472
 3797WAT     H115908   4.111   5.363   7.513
 3797WAT     H215909   4.153   5.432   7.402
 3797WAT    EPW15910   4.111   5.427   7.468
 3798WAT      O15911   4.200   5.414   6.068
 3798WAT     H115912   4.226   5.334   6.089
 3798WAT     H215913   4.125   5.424   6.111
 3798WAT    EPW15914   4.193   5.404   6.077
 3799WAT      O15915   4.344   5.610   6.727
 3799WAT     H115916   4.334   5.581   6.645
 3799WAT     H215917   4.363   5.538   6.772
 3799WAT    EPW15918   4.346   5.595   6.721
 3800WAT      O15919   4.350   5.578   7.071
 3800WAT     H115920   4.374   5.524   7.006
 3800WAT     H215921   4.291   5.631   7.033
 3800WAT    EPW15922   4.345   5.578   7.056
 3801WAT      O15923   5.398   5.380   6.894
 3801WAT     H115924   5.330   5.404   6.943
 3801WAT     H215925   5.395   5.435   6.827
 3801WAT    EPW15926   5.388   5.392   6.891
 3802WAT      O15927   4.746   6.471   6.996
 3802WAT     H115928   4.723   6.402   6.948
 3802WAT     H215929   4.743   6.538   6.941
 3802WAT    EPW15930   4.742   6.471   6.981
 3803WAT      O15931   4.947   4.924   7.232
 3803WAT     H115932   4.971   4.843   7.212
 3803WAT     H215933   4.980   4.936   7.312
 3803WAT    EPW15934   4.955   4.914   7.241
 3804WAT      O15935   5.210   5.137   6.242
 3804WAT     H115936   5.271   5.198   6.251
 3804WAT     H215937   5.137   5.183   6.227
 3804WAT    EPW15938   5.208   5.153   6.241
 3805WAT      O15939   4.055   5.695   7.587
 3805WAT     H115940   4.097   5.752   7.536
 3805WAT     H215941   4.080   5.617   7.557
 3805WAT    EPW15942   4.065   5.692   7.575
 3806WAT      O15943   5.309   5.969   7.478
 3806WAT     H115944   5.338   6.050   7.460
 3806WAT     H215945   5.342   5.921   7.413
 3806WAT    EPW15946   5.318   5.974   7.466
 3807WAT      O15947   4.710   6.293   7.526
 3807WAT     H115948   4.724   6.285   7.611
 3807WAT     H215949   4.698   6.211   7.499
 3807WAT    EPW15950   4.710   6.280   7.535
 3808WAT      O15951   4.799   5.278   6.851
 3808WAT     H115952   4.864   5.336   6.854
 3808WAT     H215953   4.835   5.205   6.880
 3808WAT    EPW15954   4.814   5.276   6.856
 3809WAT      O15955   5.064   5.588   6.053
 3809WAT     H115956   5.047   5.644   5.989
 3809WAT     H215957   5.001   5.602   6.111
 3809WAT    EPW15958   5.052   5.598   6.052
 3810WAT      O15959   5.562   5.908   6.490
 3810WAT     H115960   5.577   5.854   6.557
 3810WAT     H215961   5.561   5.855   6.421
 3810WAT    EPW15962   5.564   5.892   6.490
 3811WAT      O15963   5.157   6.329   6.809
 3811WAT     H115964   5.096   6.312   6.749
 3811WAT     H215965   5.207   6.389   6.769
 3811WAT    EPW15966   5.155   6.336   6.794
 3812WAT      O15967   5.156   5.960   6.790
 3812WAT     H115968   5.082   5.989   6.826
 3812WAT     H215969   5.193   5.914   6.854
 3812WAT    EPW15970   5.151   5.957   6.805
 3813WAT      O15971   4.630   6.489   6.261
 3813WAT     H115972   4.548   6.465   6.246
 3813WAT     H215973   4.673   6.461   6.191
 3813WAT    EPW15974   4.625   6.482   6.249
 3814WAT      O15975   4.489   4.826   5.998
 3814WAT     H115976   4.481   4.809   6.083
 3814WAT     H215977   4.427   4.885   5.982
 3814WAT    EPW15978   4.479   4.832   6.008
 3815WAT      O15979   4.788   6.427   6.044
 3815WAT     H115980   4.854   6.434   6.101
 3815WAT     H215981   4.786   6.505   6.005
 3815WAT    EPW15982   4.798   6.440   6.047
 3816WAT      O15983   5.411   5.817   7.277
 3816WAT     H115984   5.382   5.837   7.197
 3816WAT     H215985   5.497   5.826   7.270
 3816WAT    EPW15986   5.419   5.821   7.264
 3817WAT      O15987   5.572   4.870   7.555
 3817WAT     H115988   5.527   4.838   7.487
 3817WAT     H215989   5.541   4.824   7.623
 3817WAT    EPW15990   5.560   4.858   7.555
 3818WAT      O15991   4.219   5.698   6.124
 3818WAT     H115992   4.237   5.613   6.128
 3818WAT     H215993   4.286   5.735   6.167
 3818WAT    EPW15994   4.232   5.691   6.131
 3819WAT      O15995   5.049   5.791   7.139
 3819WAT     H115996   4.999   5.833   7.196
 3819WAT     H215997   5.079   5.723   7.185
 3819WAT    EPW15998   5.046   5.787   7.154
 3820WAT      O15999   3.951   4.832   6.254
 3820WAT     H116000   3.955   4.780   6.184
 3820WAT     H216001   3.897   4.790   6.307
 3820WAT    EPW16002   3.944   4.818   6.251
 3821WAT      O16003   4.882   5.616   6.266
 3821WAT     H116004   4.898   5.682   6.322
 3821WAT     H216005   4.878   5.546   6.317
 3821WAT    EPW16006   4.884   5.615   6.282
 3822WAT      O16007   5.399   6.109   6.787
 3822WAT     H116008   5.414   6.123   6.702
 3822WAT     H216009   5.321   6.069   6.787
 3822WAT    EPW16010   5.390   6.105   6.774
 3823WAT      O16011   4.310   5.029   5.913
 3823WAT     H116012   4.256   4.999   5.851
 3823WAT     H216013   4.374   5.068   5.868
 3823WAT    EPW16014   4.312   5.030   5.897
 3824WAT      O16015   4.802   5.845   6.681
 3824WAT     H116016   4.718   5.826   6.697
 3824WAT     H216017   4.844   5.812   6.749
 3824WAT    EPW16018   4.796   5.838   6.693
 3825WAT      O16019   4.473   6.416   5.828
 3825WAT     H116020   4.486   6.346   5.880
 3825WAT     H216021   4.474   6.483   5.883
 3825WAT    EPW16022   4.475   6.415   5.844
 3826WAT      O16023   4.173   5.769   6.958
 3826WAT     H116024   4.232   5.828   6.933
 3826WAT     H216025   4.135   5.745   6.883
 3826WAT    EPW16026   4.176   5.774   6.943
 3827WAT      O16027   4.495   5.299   6.607
 3827WAT     H116028   4.573   5.261   6.596
 3827WAT     H216029   4.439   5.233   6.596
 3827WAT    EPW16030   4.499   5.283   6.604
 3828WAT      O16031   5.773   6.493   6.019
 3828WAT     H116032   5.840   6.444   5.992
 3828WAT     H216033   5.723   6.437   6.063
 3828WAT    EPW16034   5.776   6.478   6.021
 3829WAT      O16035   3.984   5.423   6.242
 3829WAT     H116036   4.007   5.374   6.310
 3829WAT     H216037   3.918   5.379   6.206
 3829WAT    EPW16038   3.977   5.409   6.247
 3830WAT      O16039   5.527   5.751   6.971
 3830WAT     H116040   5.531   5.681   7.022
 3830WAT     H216041   5.445   5.779   6.981
 3830WAT    EPW16042   5.516   5.745   6.980
 3831WAT      O16043   4.154   5.877   7.389
 3831WAT     H116044   4.123   5.821   7.330
 3831WAT     H216045   4.116   5.953   7.367
 3831WAT    EPW16046   4.144   5.880   7.377
 3832WAT      O16047   5.621   5.733   6.707
 3832WAT     H116048   5.596   5.745   6.790
 3832WAT     H216049   5.708   5.729   6.713
 3832WAT    EPW16050   5.630   5.734   6.720
 3833WAT      O16051   4.502   5.435   6.049
 3833WAT     H116052   4.550   5.501   6.078
 3833WAT     H216053   4.445   5.421   6.113
 3833WAT    EPW16054   4.501   5.443   6.062
 3834WAT      O16055   5.380   5.198   7.488
 3834WAT     H116056   5.437   5.204   7.554
 3834WAT     H216057   5.352   5.115   7.493
 3834WAT    EPW16058   5.384   5.186   7.499
 3835WAT      O16059   3.942   5.041   6.740
 3835WAT     H116060   3.923   5.063   6.657
 3835WAT     H216061   4.028   5.056   6.746
 3835WAT    EPW16062   3.952   5.047   6.729
 3836WAT      O16063   5.766   6.234   6.789
 3836WAT     H116064   5.794   6.289   6.727
 3836WAT     H216065   5.831   6.233   6.847
 3836WAT    EPW16066   5.779   6.242   6.789
 3837WAT      O16067   5.281   5.592   7.538
 3837WAT     H116068   5.327   5.653   7.581
 3837WAT     H216069   5.201   5.599   7.574
 3837WAT    EPW16070   5.276   5.602   7.550
 3838WAT      O16071   5.537   5.524   7.430
 3838WAT     H116072   5.575   5.597   7.459
 3838WAT     H216073   5.457   5.528   7.464
 3838WAT    EPW16074   5.531   5.535   7.439
 3839WAT      O16075   5.459   6.163   5.996
 3839WAT     H116076   5.497   6.085   6.010
 3839WAT     H216077   5.385   6.157   6.041
 3839WAT    EPW16078   5.454   6.150   6.005
 3840WAT      O16079   5.497   5.308   6.525
 3840WAT     H116080   5.430   5.260   6.553
 3840WAT     H216081   5.489   5.382   6.570
 3840WAT    EPW16082   5.486   5.312   6.536
 3841WAT      O16083   5.684   5.879   7.268
 3841WAT     H116084   5.751   5.830   7.242
 3841WAT     H216085   5.675   5.937   7.202
 3841WAT    EPW16086   5.692   5.880   7.254
 3842WAT      O16087   5.144   5.972   5.942
 3842WAT     H116088   5.220   5.930   5.931
 3842WAT     H216089   5.114   5.982   5.860
 3842WAT    EPW16090   5.151   5.967   5.928
 3843WAT      O16091   4.567   6.083   7.019
 3843WAT     H116092   4.584   6.133   7.089
 3843WAT     H216093   4.589   6.135   6.952
 3843WAT    EPW16094   4.573   6.098   7.019
 3844WAT      O16095   4.417   5.954   7.342
 3844WAT     H116096   4.339   5.924   7.369
 3844WAT     H216097   4.399   6.034   7.313
 3844WAT    EPW16098   4.403   5.961   7.342
 3845WAT      O16099   5.344   4.997   7.187
 3845WAT     H116100   5.397   5.066   7.189
 3845WAT     H216101   5.265   5.032   7.172
 3845WAT    EPW16102   5.340   5.012   7.185
 3846WAT      O16103   4.896   5.718   6.919
 3846WAT     H116104   4.952   5.737   6.983
 3846WAT     H216105   4.818   5.736   6.954
 3846WAT    EPW16106   4.892   5.723   6.934
 3847WAT      O16107   4.535   5.281   7.316
 3847WAT     H116108   4.551   5.202   7.348
 3847WAT     H216109   4.564   5.277   7.234
 3847WAT    EPW16110   4.541   5.269   7.309
 3848WAT      O16111   4.788   6.483   6.501
 3848WAT     H116112   4.811   6.566   6.509
 3848WAT     H216113   4.753   6.478   6.421
 3848WAT    EPW16114   4.786   6.494   6.490
 3849WAT      O16115   5.428   4.789   7.016
 3849WAT     H116116   5.395   4.860   7.053
 3849WAT     H216117   5.513   4.794   7.036
 3849WAT    EPW16118   5.436   4.800   7.025
 3850WAT      O16119   4.675   4.862   7.175
 3850WAT     H116120   4.757   4.892   7.185
 3850WAT     H216121   4.686   4.789   7.129
 3850WAT    EPW16122   4.689   4.856   7.170
 3851WAT      O16123   4.631   6.278   6.829
 3851WAT     H116124   4.586   6.331   6.776
 3851WAT     H216125   4.677   6.228   6.775
 3851WAT    EPW16126   4.631   6.278   6.813
 3852WAT      O16127   5.042   5.932   7.533
 3852WAT     H116128   5.127   5.935   7.513
 3852WAT     H216129   5.003   5.936   7.455
 3852WAT    EPW16130   5.049   5.933   7.519
 3853WAT      O16131   5.360   6.242   7.423
 3853WAT     H116132   5.373   6.304   7.483
 3853WAT     H216133   5.415   6.263   7.359
 3853WAT    EPW16134   5.370   6.254   7.423
 3854WAT      O16135   5.636   5.472   5.910
 3854WAT     H116136   5.685   5.526   5.862
 3854WAT     H216137   5.559   5.512   5.914
 3854WAT    EPW16138   5.632   5.486   5.903
 3855WAT      O16139   4.754   5.783   5.909
 3855WAT     H116140   4.682   5.819   5.877
 3855WAT     H216141   4.796   5.850   5.946
 3855WAT    EPW16142   4.750   5.798   5.910
 3856WAT      O16143   4.415   5.379   6.861
 3856WAT     H116144   4.448   5.350   6.786
 3856WAT     H216145   4.470   5.347   6.921
 3856WAT    EPW16146   4.428   5.370   6.859
 3857WAT      O16147   5.105   5.246   7.420
 3857WAT     H116148   5.058   5.317   7.437
 3857WAT     H216149   5.185   5.266   7.449
 3857WAT    EPW16150   5.110   5.259   7.427
 3858WAT      O16151   5.168   5.407   7.049
 3858WAT     H116152   5.171   5.456   7.121
 3858WAT     H216153   5.151   5.327   7.079
 3858WAT    EPW16154   5.166   5.402   7.064
 3859WAT      O16155   4.881   6.506   7.438
 3859WAT     H116156   4.901   6.494   7.354
 3859WAT     H216157   4.845   6.430   7.461
 3859WAT    EPW16158   4.879   6.493   7.429
 3860WAT      O16159   5.392   5.354   6.274
 3860WAT     H116160   5.418   5.337   6.356
 3860WAT     H216161   5.464   5.381   6.234
 3860WAT    EPW16162   5.407   5.355   6.280
 3861WAT      O16163   4.701   4.852   6.804
 3861WAT     H116164   4.618   4.838   6.827
 3861WAT     H216165   4.698   4.861   6.717
 3861WAT    EPW16166   4.688   4.852   6.795
 3862WAT      O16167   5.518   4.937   6.433
 3862WAT     H116168   5.442   4.899   6.449
 3862WAT     H216169   5.516   4.953   6.347
 3862WAT    EPW16170   5.506   4.934   6.423
 3863WAT      O16171   5.539   5.751   6.253
 3863WAT     H116172   5.582   5.675   6.241
 3863WAT     H216173   5.455   5.728   6.247
 3863WAT    EPW16174   5.533   5.736   6.250
 3864WAT      O16175   4.890   5.960   7.297
 3864WAT     H116176   4.815   5.957   7.340
 3864WAT     H216177   4.899   6.044   7.276
 3864WAT    EPW16178   4.880   5.972   7.300
 3865WAT      O16179   3.890   4.922   7.419
 3865WAT     H116180   3.889   5.008   7.402
 3865WAT     H216181   3.820   4.910   7.469
 3865WAT    EPW16182   3.880   4.933   7.423
 3866WAT      O16183   4.449   6.596   6.907
 3866WAT     H116184   4.444   6.574   6.991
 3866WAT     H216185   4.420   6.524   6.866
 3866WAT    EPW16186   4.444   6.582   6.913
 3867WAT      O16187   4.251   5.157   6.156
 3867WAT     H116188   4.258   5.110   6.083
 3867WAT     H216189   4.170   5.137   6.184
 3867WAT    EPW16190   4.240   5.147   6.149
 3868WAT      O16191   5.173   5.924   6.516
 3868WAT     H116192   5.164   5.937   6.602
 3868WAT     H216193   5.207   5.844   6.510
 3868WAT    EPW16194   5.177   5.914   6.528
 3869WAT      O16195   4.923   5.837   6.431
 3869WAT     H116196   4.881   5.834   6.508
 3869WAT     H216197   5.002   5.867   6.452
 3869WAT    EPW16198   4.928   5.841   6.446
 3870WAT      O16199   4.900   6.235   7.265
 3870WAT     H116200   4.951   6.234   7.335
 3870WAT     H216201   4.931   6.302   7.218
 3870WAT    EPW16202   4.912   6.245   7.268
 3871WAT      O16203   5.727   5.321   7.478
 3871WAT     H116204   5.672   5.387   7.460
 3871WAT     H216205   5.805   5.360   7.480
 3871WAT    EPW16206   5.731   5.337   7.475
 3872WAT      O16207   5.154   5.575   7.275
 3872WAT     H116208   5.090   5.543   7.324
 3872WAT     H216209   5.217   5.593   7.333
 3872WAT    EPW16210   5.154   5.573   7.291
 3873WAT      O16211   4.086   6.542   7.407
 3873WAT     H116212   4.027   6.478   7.405
 3873WAT     H216213   4.042   6.610   7.442
 3873WAT    EPW16214   4.071   6.543   7.412
 3874WAT      O16215   5.024   5.673   7.637
 3874WAT     H116216   5.027   5.756   7.609
 3874WAT     H216217   5.004   5.681   7.722
 3874WAT    EPW16218   5.021   5.687   7.646
 3875WAT      O16219   5.301   6.568   6.756
 3875WAT     H116220   5.243   6.628   6.782
 3875WAT     H216221   5.367   6.579   6.812
 3875WAT    EPW16222   5.302   6.579   6.768
 3876WAT      O16223   4.947   6.051   6.954
 3876WAT     H116224   4.914   5.993   7.010
 3876WAT     H216225   5.009   6.092   7.001
 3876WAT    EPW16226   4.951   6.049   6.969
 3877WAT      O16227   4.275   5.381   7.256
 3877WAT     H116228   4.298   5.447   7.203
 3877WAT     H216229   4.351   5.348   7.283
 3877WAT    EPW16230   4.289   5.386   7.252
 3878WAT      O16231   4.084   5.219   7.132
 3878WAT     H116232   4.102   5.228   7.047
 3878WAT     H216233   4.142   5.271   7.171
 3878WAT    EPW16234   4.095   5.228   7.125
 3879WAT      O16235   5.619   5.490   6.188
 3879WAT     H116236   5.634   5.486   6.102
 3879WAT     H216237   5.693   5.459   6.222
 3879WAT    EPW16238   5.632   5.484   6.180
 3880WAT      O16239   4.275   4.957   7.429
 3880WAT     H116240   4.232   4.882   7.441
 3880WAT     H216241   4.263   4.975   7.345
 3880WAT    EPW16242   4.267   4.948   7.419
 3881WAT      O16243   5.039   6.203   6.344
 3881WAT     H116244   5.019   6.282   6.312
 3881WAT     H216245   4.967   6.156   6.328
 3881WAT    EPW16246   5.025   6.208   6.337
 3882WAT      O16247   5.534   5.518   7.150
 3882WAT     H116248   5.508   5.435   7.141
 3882WAT     H216249   5.529   5.532   7.236
 3882WAT    EPW16250   5.529   5.508   7.161
 3883WAT      O16251   4.032   5.726   7.194
 3883WAT     H116252   4.072   5.739   7.117
 3883WAT     H216253   4.005   5.643   7.189
 3883WAT    EPW16254   4.034   5.716   7.182
 3884WAT      O16255   5.060   4.979   7.484
 3884WAT     H116256   5.069   5.065   7.475
 3884WAT     H216257   4.982   4.970   7.523
 3884WAT    EPW16258   5.050   4.990   7.488
 3885WAT      O16259   5.026   5.042   6.593
 3885WAT     H116260   4.948   5.079   6.590
 3885WAT     H216261   5.023   4.982   6.529
 3885WAT    EPW16262   5.014   5.039   6.583
 3886WAT      O16263   4.480   6.169   5.977
 3886WAT     H116264   4.513   6.162   6.057
 3886WAT     H216265   4.394   6.160   5.989
 3886WAT    EPW16266   4.472   6.166   5.991
 3887WAT      O16267   5.355   5.108   6.856
 3887WAT     H116268   5.435   5.075   6.866
 3887WAT     H216269   5.364   5.191   6.882
 3887WAT    EPW16270   5.369   5.115   6.861
 3888WAT      O16271   4.530   5.711   7.242
 3888WAT     H116272   4.488   5.780   7.275
 3888WAT     H216273   4.468   5.670   7.197
 3888WAT    EPW16274   4.514   5.715   7.241
 3889WAT      O16275   5.429   5.540   6.664
 3889WAT     H116276   5.494   5.598   6.675
 3889WAT     H216277   5.373   5.582   6.612
 3889WAT    EPW16278   5.430   5.555   6.658
 3890WAT      O16279   5.440   6.377   6.382
 3890WAT     H116280   5.423   6.300   6.419
 3890WAT     H216281   5.481   6.356   6.309
 3890WAT    EPW16282   5.444   6.363   6.377
 3891WAT      O16283   4.224   6.055   6.019
 3891WAT     H116284   4.220   6.046   6.106
 3891WAT     H216285   4.252   5.977   5.991
 3891WAT    EPW16286   4.227   6.042   6.028
 3892WAT      O16287   4.528   5.929   5.840
 3892WAT     H116288   4.449   5.892   5.845
 3892WAT     H216289   4.518   6.005   5.882
 3892WAT    EPW16290   4.515   5.935   5.847
 3893WAT      O16291   4.497   5.031   7.040
 3893WAT     H116292   4.418   5.012   7.072
 3893WAT     H216293   4.549   4.971   7.075
 3893WAT    EPW16294   4.493   5.019   7.050
 3894WAT      O16295   5.687   4.884   7.126
 3894WAT     H116296   5.701   4.950   7.183
 3894WAT     H216297   5.765   4.845   7.121
 3894WAT    EPW16298   5.701   4.888   7.134
 3895WAT      O16299   4.885   5.029   6.925
 3895WAT     H116300   4.827   4.972   6.893
 3895WAT     H216301   4.962   4.993   6.908
 3895WAT    EPW16302   4.888   5.016   6.918
 3896WAT      O16303   5.198   6.159   7.037
 3896WAT     H116304   5.221   6.227   7.087
 3896WAT     H216305   5.197   6.193   6.956
 3896WAT    EPW16306   5.201   6.174   7.032
 3897WAT      O16307   5.169   6.565   7.472
 3897WAT     H116308   5.094   6.520   7.479
 3897WAT     H216309   5.144   6.648   7.487
 3897WAT    EPW16310   5.154   6.571   7.475
 3898WAT      O16311   4.690   5.513   7.372
 3898WAT     H116312   4.641   5.441   7.365
 3898WAT     H216313   4.642   5.575   7.335
 3898WAT    EPW16314   4.676   5.512   7.365
 3899WAT      O16315   4.759   4.850   5.940
 3899WAT     H116316   4.766   4.844   5.853
 3899WAT     H216317   4.673   4.854   5.953
 3899WAT    EPW16318   4.748   4.850   5.929
 3900WAT      O16319   5.649   6.007   7.020
 3900WAT     H116320   5.618   5.932   6.990
 3900WAT     H216321   5.599   6.067   6.982
 3900WAT    EPW16322   5.637   6.005   7.010
 3901WAT      O16323   4.538   6.504   7.437
 3901WAT     H116324   4.575   6.575   7.473
 3901WAT     H216325   4.593   6.440   7.456
 3901WAT    EPW16326   4.551   6.505   7.445
 3902WAT      O16327   5.540   6.278   6.958
 3902WAT     H116328   5.611   6.282   6.908
 3902WAT     H216329   5.481   6.239   6.907
 3902WAT    EPW16330   5.542   6.273   6.943
 3903WAT      O16331   4.245   4.991   7.158
 3903WAT     H116332   4.196   4.922   7.135
 3903WAT     H216333   4.192   5.059   7.144
 3903WAT    EPW16334   4.230   4.991   7.152
 3904WAT      O16335   5.132   4.937   6.830
 3904WAT     H116336   5.197   4.992   6.850
 3904WAT     H216337   5.101   4.969   6.755
 3904WAT    EPW16338   5.137   4.950   6.822
 3905WAT      O16339   4.296   6.374   7.489
 3905WAT     H116340   4.368   6.423   7.489
 3905WAT     H216341   4.232   6.431   7.473
 3905WAT    EPW16342   4.297   6.389   7.487
 3906WAT      O16343   5.099   5.431   6.579
 3906WAT     H116344   5.154   5.364   6.592
 3906WAT     H216345   5.068   5.447   6.659
 3906WAT    EPW16346   5.103   5.423   6.593
 3907WAT      O16347   4.093   5.321   6.489
 3907WAT     H116348   4.055   5.348   6.562
 3907WAT     H216349   4.136   5.249   6.514
 3907WAT    EPW16350   4.094   5.314   6.504
 3908WAT      O16351   4.083   6.124   7.257
 3908WAT     H116352   4.030   6.183   7.294
 3908WAT     H216353   4.162   6.161   7.262
 3908WAT    EPW16354   4.087   6.138   7.263
 3909WAT      O16355   5.290   5.604   6.216
 3909WAT     H116356   5.312   5.522   6.234
 3909WAT     H216357   5.215   5.597   6.172
 3909WAT    EPW16358   5.282   5.591   6.212
 3910WAT      O16359   4.646   5.657   6.130
 3910WAT     H116360   4.679   5.696   6.059
 3910WAT     H216361   4.716   5.642   6.180
 3910WAT    EPW16362   4.661   5.661   6.127
 3911WAT      O16363   5.567   6.547   5.837
 3911WAT     H116364   5.637   6.537   5.888
 3911WAT     H216365   5.551   6.466   5.808
 3911WAT    EPW16366   5.575   6.534   5.840
 3912WAT      O16367   5.660   5.756   7.523
 3912WAT     H116368   5.739   5.731   7.548
 3912WAT     H216369   5.675   5.806   7.453
 3912WAT    EPW16370   5.674   5.760   7.516
 3913WAT      O16371   5.220   6.165   6.132
 3913WAT     H116372   5.174   6.161   6.206
 3913WAT     H216373   5.183   6.104   6.082
 3913WAT    EPW16374   5.208   6.155   6.136
 3914WAT      O16375   5.593   5.161   7.667
 3914WAT     H116376   5.646   5.214   7.621
 3914WAT     H216377   5.609   5.082   7.634
 3914WAT    EPW16378   5.603   5.157   7.655
 3915WAT      O16379   5.675   5.330   6.920
 3915WAT     H116380   5.592   5.357   6.917
 3915WAT     H216381   5.669   5.243   6.920
 3915WAT    EPW16382   5.662   5.321   6.919
 3916WAT      O16383   4.564   4.989   7.403
 3916WAT     H116384   4.580   4.953   7.325
 3916WAT     H216385   4.478   4.978   7.414
 3916WAT    EPW16386   4.554   4.982   7.393
 3917WAT      O16387   5.421   5.792   7.664
 3917WAT     H116388   5.503   5.785   7.635
 3917WAT     H216389   5.388   5.859   7.619
 3917WAT    EPW16390   5.428   5.801   7.653
 3918WAT      O16391   4.297   6.377   6.815
 3918WAT     H116392   4.304   6.306   6.765
 3918WAT     H216393   4.251   6.432   6.765
 3918WAT    EPW16394   4.291   6.375   6.800
 3919WAT      O16395   4.882   6.000   6.017
 3919WAT     H116396   4.967   5.985   6.003
 3919WAT     H216397   4.865   6.071   5.970
 3919WAT    EPW16398   4.892   6.008   6.008
 3920WAT      O16399   4.058   6.582   7.134
 3920WAT     H116400   4.064   6.572   7.221
 3920WAT     H216401   4.096   6.510   7.103
 3920WAT    EPW16402   4.064   6.570   7.143
 3921WAT      O16403   5.043   4.813   4.503
 3921WAT     H116404   5.037   4.841   4.421
 3921WAT     H216405   5.128   4.795   4.513
 3921WAT    EPW16406   5.055   4.814   4.492
 3922WAT      O16407   4.975   5.462   4.945
 3922WAT     H116408   4.938   5.536   4.974
 3922WAT     H216409   5.036   5.446   5.005
 3922WAT    EPW16410   4.978   5.471   4.958
 3923WAT      O16411   3.962   5.925   4.475
 3923WAT     H116412   3.962   5.942   4.561
 3923WAT     H216413   3.893   5.873   4.465
 3923WAT    EPW16414   3.952   5.920   4.486
 3924WAT      O16415   5.600   6.322   4.261
 3924WAT     H116416   5.664   6.266   4.282
 3924WAT     H216417   5.549   6.276   4.207
 3924WAT    EPW16418   5.602   6.307   4.256
 3925WAT      O16419   4.202   5.823   4.062
 3925WAT     H116420   4.205   5.799   3.978
 3925WAT     H216421   4.187   5.749   4.105
 3925WAT    EPW16422   4.200   5.809   4.056
 3926WAT      O16423   5.235   5.652   4.590
 3926WAT     H116424   5.245   5.638   4.505
 3926WAT     H216425   5.182   5.588   4.616
 3926WAT    EPW16426   5.229   5.641   4.581
 3927WAT      O16427   4.224   6.005   4.404
 3927WAT     H116428   4.272   5.963   4.464
 3927WAT     H216429   4.143   5.976   4.417
 3927WAT    EPW16430   4.219   5.995   4.415
 3928WAT      O16431   4.555   4.994   4.444
 3928WAT     H116432   4.596   5.025   4.374
 3928WAT     H216433   4.511   4.925   4.414
 3928WAT    EPW16434   4.554   4.988   4.429
 3929WAT      O16435   4.083   6.306   3.987
 3929WAT     H116436   4.139   6.325   3.923
 3929WAT     H216437   4.125   6.247   4.035
 3929WAT    EPW16438   4.097   6.300   3.985
 3930WAT      O16439   4.000   6.152   5.136
 3930WAT     H116440   4.031   6.133   5.216
 3930WAT     H216441   3.947   6.085   5.119
 3930WAT    EPW16442   3.997   6.139   5.145
 3931WAT      O16443   4.638   5.981   5.590
 3931WAT     H116444   4.610   5.965   5.671
 3931WAT     H216445   4.569   5.962   5.540
 3931WAT    EPW16446   4.624   5.976   5.595
 3932WAT      O16447   4.220   5.578   4.489
 3932WAT     H116448   4.148   5.569   4.537
 3932WAT     H216449   4.255   5.498   4.490
 3932WAT    EPW16450   4.215   5.565   4.496
 3933WAT      O16451   4.579   5.265   5.093
 3933WAT     H116452   4.517   5.299   5.041
 3933WAT     H216453   4.555   5.182   5.102
 3933WAT    EPW16454   4.567   5.258   5.086
 3934WAT      O16455   4.626   6.320   5.325
 3934WAT     H116456   4.665   6.366   5.262
 3934WAT     H216457   4.693   6.278   5.363
 3934WAT    EPW16458   4.642   6.320   5.321
 3935WAT      O16459   4.314   5.318   4.466
 3935WAT     H116460   4.366   5.280   4.525
 3935WAT     H216461   4.307   5.257   4.404
 3935WAT    EPW16462   4.321   5.303   4.466
 3936WAT      O16463   4.755   6.085   4.768
 3936WAT     H116464   4.777   6.002   4.784
 3936WAT     H216465   4.831   6.124   4.750
 3936WAT    EPW16466   4.769   6.079   4.768
 3937WAT      O16467   4.824   6.046   4.382
 3937WAT     H116468   4.849   5.975   4.427
 3937WAT     H216469   4.835   6.021   4.299
 3937WAT    EPW16470   4.830   6.032   4.376
 3938WAT      O16471   4.920   5.450   5.655
 3938WAT     H116472   4.852   5.460   5.601
 3938WAT     H216473   4.940   5.532   5.677
 3938WAT    EPW16474   4.913   5.464   5.650
 3939WAT      O16475   5.377   4.916   5.548
 3939WAT     H116476   5.377   4.923   5.461
 3939WAT     H216477   5.321   4.850   5.563
 3939WAT    EPW16478   5.368   4.907   5.538
 3940WAT      O16479   4.664   4.837   4.655
 3940WAT     H116480   4.643   4.898   4.596
 3940WAT     H216481   4.626   4.765   4.624
 3940WAT    EPW16482   4.655   4.835   4.642
 3941WAT      O16483   5.140   5.139   3.876
 3941WAT     H116484   5.096   5.204   3.915
 3941WAT     H216485   5.160   5.086   3.942
 3941WAT    EPW16486   5.136   5.141   3.892
 3942WAT      O16487   3.972   6.370   4.656
 3942WAT     H116488   3.909   6.419   4.620
 3942WAT     H216489   4.015   6.338   4.587
 3942WAT    EPW16490   3.969   6.372   4.640
 3943WAT      O16491   4.554   6.084   4.389
 3943WAT     H116492   4.531   6.093   4.473
 3943WAT     H216493   4.641   6.075   4.392
 3943WAT    EPW16494   4.564   6.084   4.402
 3944WAT      O16495   5.164   6.423   4.168
 3944WAT     H116496   5.235   6.472   4.170
 3944WAT     H216497   5.193   6.343   4.186
 3944WAT    EPW16498   5.179   6.418   4.171
 3945WAT      O16499   4.983   6.452   4.375
 3945WAT     H116500   5.000   6.527   4.416
 3945WAT     H216501   5.041   6.451   4.309
 3945WAT    EPW16502   4.994   6.463   4.371
 3946WAT      O16503   4.524   5.150   5.776
 3946WAT     H116504   4.538   5.107   5.702
 3946WAT     H216505   4.537   5.234   5.755
 3946WAT    EPW16506   4.528   5.156   5.762
 3947WAT      O16507   4.124   6.280   4.433
 3947WAT     H116508   4.179   6.214   4.447
 3947WAT     H216509   4.173   6.340   4.393
 3947WAT    EPW16510   4.139   6.279   4.430
 3948WAT      O16511   5.706   5.111   4.602
 3948WAT     H116512   5.654   5.180   4.615
 3948WAT     H216513   5.651   5.045   4.588
 3948WAT    EPW16514   5.690   5.112   4.602
 3949WAT      O16515   5.217   6.437   5.173
 3949WAT     H116516   5.286   6.489   5.158
 3949WAT     H216517   5.196   6.408   5.093
 3949WAT    EPW16518   5.224   6.440   5.159
 3950WAT      O16519   4.255   6.105   4.807
 3950WAT     H116520   4.327   6.099   4.757
 3950WAT     H216521   4.277   6.062   4.879
 3950WAT    EPW16522   4.269   6.098   4.810
 3951WAT      O16523   4.545   6.382   4.681
 3951WAT     H116524   4.625   6.404   4.657
 3951WAT     H216525   4.495   6.448   4.653
 3951WAT    EPW16526   4.549   6.395   4.673
 3952WAT      O16527   4.771   4.825   5.667
 3952WAT     H116528   4.813   4.758   5.630
 3952WAT     H216529   4.688   4.814   5.642
 3952WAT    EPW16530   4.765   4.814   5.658
 3953WAT      O16531   4.888   5.395   4.500
 3953WAT     H116532   4.914   5.342   4.436
 3953WAT     H216533   4.958   5.401   4.552
 3953WAT    EPW16534   4.902   5.388   4.498
 3954WAT      O16535   4.999   5.338   4.025
 3954WAT     H116536   5.021   5.416   4.059
 3954WAT     H216537   4.922   5.353   3.987
 3954WAT    EPW16538   4.991   5.352   4.024
 3955WAT      O16539   5.377   6.601   4.143
 3955WAT     H116540   5.428   6.582   4.075
 3955WAT     H216541   5.429   6.649   4.195
 3955WAT    EPW16542   5.393   6.606   4.141
 3956WAT      O16543   4.395   6.481   5.275
 3956WAT     H116544   4.460   6.425   5.292
 3956WAT     H216545   4.330   6.430   5.248
 3956WAT    EPW16546   4.395   6.465   5.273
 3957WAT      O16547   5.618   5.050   5.048
 3957WAT     H116548   5.682   5.046   4.988
 3957WAT     H216549   5.640   4.988   5.105
 3957WAT    EPW16550   5.631   5.040   5.047
 3958WAT      O16551   5.109   6.225   5.513
 3958WAT     H116552   5.096   6.235   5.599
 3958WAT     H216553   5.196   6.226   5.505
 3958WAT    EPW16554   5.120   6.226   5.525
 3959WAT      O16555   4.847   6.256   3.988
 3959WAT     H116556   4.824   6.313   4.051
 3959WAT     H216557   4.925   6.286   3.962
 3959WAT    EPW16558   4.855   6.269   3.994
 3960WAT      O16559   5.199   4.973   4.086
 3960WAT     H116560   5.258   4.910   4.093
 3960WAT     H216561   5.215   5.023   4.156
 3960WAT    EPW16562   5.210   4.971   4.098
 3961WAT      O16563   4.175   6.368   5.146
 3961WAT     H116564   4.119   6.301   5.143
 3961WAT     H216565   4.214   6.366   5.068
 3961WAT    EPW16566   4.173   6.358   5.134
 3962WAT      O16567   4.947   5.233   4.280
 3962WAT     H116568   4.875   5.184   4.268
 3962WAT     H216569   4.964   5.262   4.200
 3962WAT    EPW16570   4.939   5.230   4.266
 3963WAT      O16571   4.978   6.515   5.286
 3963WAT     H116572   5.054   6.490   5.252
 3963WAT     H216573   4.920   6.492   5.226
 3963WAT    EPW16574   4.981   6.508   5.272
 3964WAT      O16575   4.988   4.872   4.239
 3964WAT     H116576   4.915   4.858   4.193
 3964WAT     H216577   5.044   4.903   4.180
 3964WAT    EPW16578   4.985   4.875   4.223
 3965WAT      O16579   5.662   6.543   4.540
 3965WAT     H116580   5.623   6.620   4.554
 3965WAT     H216581   5.596   6.488   4.527
 3965WAT    EPW16582   5.647   6.546   4.540
 3966WAT      O16583   4.748   5.215   4.661
 3966WAT     H116584   4.782   5.279   4.613
 3966WAT     H216585   4.770   5.237   4.743
 3966WAT    EPW16586   4.756   5.228   4.666
 3967WAT      O16587   5.382   6.119   4.599
 3967WAT     H116588   5.441   6.055   4.592
 3967WAT     H216589   5.305   6.078   4.594
 3967WAT    EPW16590   5.379   6.104   4.597
 3968WAT      O16591   4.364   6.218   5.474
 3968WAT     H116592   4.441   6.258   5.463
 3968WAT     H216593   4.331   6.255   5.546
 3968WAT    EPW16594   4.370   6.229   5.483
 3969WAT      O16595   4.526   5.800   4.888
 3969WAT     H116596   4.557   5.789   4.968
 3969WAT     H216597   4.471   5.733   4.878
 3969WAT    EPW16598   4.523   5.788   4.898
 3970WAT      O16599   5.128   5.163   5.268
 3970WAT     H116600   5.119   5.207   5.343
 3970WAT     H216601   5.067   5.101   5.274
 3970WAT    EPW16602   5.117   5.161   5.280
 3971WAT      O16603   4.636   5.817   5.142
 3971WAT     H116604   4.623   5.902   5.159
 3971WAT     H216605   4.601   5.777   5.211
 3971WAT    EPW16606   4.629   5.824   5.155
 3972WAT      O16607   5.276   5.874   5.141
 3972WAT     H116608   5.202   5.853   5.183
 3972WAT     H216609   5.282   5.961   5.152
 3972WAT    EPW16610   5.266   5.884   5.149
 3973WAT      O16611   5.310   4.726   4.581
 3973WAT     H116612   5.319   4.712   4.667
 3973WAT     H216613   5.343   4.654   4.545
 3973WAT    EPW16614   5.316   4.713   4.589
 3974WAT      O16615   3.884   6.216   5.758
 3974WAT     H116616   3.939   6.264   5.806
 3974WAT     H216617   3.891   6.136   5.793
 3974WAT    EPW16618   3.893   6.211   5.770
 3975WAT      O16619   5.512   5.235   5.365
 3975WAT     H116620   5.591   5.207   5.387
 3975WAT     H216621   5.468   5.235   5.440
 3975WAT    EPW16622   5.517   5.231   5.379
 3976WAT      O16623   5.573   5.910   4.122
 3976WAT     H116624   5.574   5.864   4.196
 3976WAT     H216625   5.658   5.921   4.104
 3976WAT    EPW16626   5.586   5.905   4.130
 3977WAT      O16627   4.378   5.807   4.533
 3977WAT     H116628   4.414   5.808   4.612
 3977WAT     H216629   4.332   5.733   4.532
 3977WAT    EPW16630   4.376   5.796   4.544
 3978WAT      O16631   4.160   6.543   4.756
 3978WAT     H116632   4.093   6.497   4.725
 3978WAT     H216633   4.215   6.548   4.688
 3978WAT    EPW16634   4.159   6.537   4.741
 3979WAT      O16635   5.813   6.338   5.506
 3979WAT     H116636   5.738   6.340   5.462
 3979WAT     H216637   5.792   6.293   5.578
 3979WAT    EPW16638   5.799   6.331   5.510
 3980WAT      O16639   5.387   5.576   4.044
 3980WAT     H116640   5.379   5.658   4.016
 3980WAT     H216641   5.358   5.580   4.126
 3980WAT    EPW16642   5.382   5.589   4.052
 3981WAT      O16643   5.710   5.052   4.032
 3981WAT     H116644   5.740   4.982   3.989
 3981WAT     H216645   5.672   5.100   3.970
 3981WAT    EPW16646   5.709   5.048   4.017
 3982WAT      O16647   4.003   5.976   4.754
 3982WAT     H116648   3.948   6.038   4.783
 3982WAT     H216649   4.082   6.011   4.766
 3982WAT    EPW16650   4.006   5.990   4.760
 3983WAT      O16651   4.554   5.428   5.741
 3983WAT     H116652   4.615   5.445   5.801
 3983WAT     H216653   4.591   5.451   5.666
 3983WAT    EPW16654   4.569   5.434   5.739
 3984WAT      O16655   5.814   5.458   5.257
 3984WAT     H116656   5.871   5.393   5.262
 3984WAT     H216657   5.757   5.432   5.197
 3984WAT    EPW16658   5.814   5.445   5.249
 3985WAT      O16659   3.903   5.530   4.319
 3985WAT     H116660   3.901   5.443   4.321
 3985WAT     H216661   3.977   5.548   4.277
 3985WAT    EPW16662   3.914   5.520   4.313
 3986WAT      O16663   5.572   4.935   4.251
 3986WAT     H116664   5.645   4.897   4.279
 3986WAT     H216665   5.599   4.988   4.188
 3986WAT    EPW16666   5.587   4.937   4.246
 3987WAT      O16667   4.989   6.233   4.725
 3987WAT     H116668   4.940   6.302   4.703
 3987WAT     H216669   5.025   6.208   4.650
 3987WAT    EPW16670   4.987   6.239   4.711
 3988WAT      O16671   3.952   6.127   4.279
 3988WAT     H116672   4.002   6.184   4.323
 3988WAT     H216673   3.933   6.066   4.339
 3988WAT    EPW16674   3.956   6.126   4.295
 3989WAT      O16675   4.345   5.963   5.026
 3989WAT     H116676   4.400   6.010   5.075
 3989WAT     H216677   4.398   5.912   4.979
 3989WAT    EPW16678   4.361   5.962   5.027
 3990WAT      O16679   5.219   5.184   4.719
 3990WAT     H116680   5.250   5.148   4.792
 3990WAT     H216681   5.152   5.132   4.697
 3990WAT    EPW16682   5.214   5.171   4.726
 3991WAT      O16683   3.954   5.975   4.037
 3991WAT     H116684   4.016   5.915   4.048
 3991WAT     H216685   3.959   6.024   4.109
 3991WAT    EPW16686   3.964   5.974   4.049
 3992WAT      O16687   4.058   5.711   4.896
 3992WAT     H116688   4.003   5.643   4.890
 3992WAT     H216689   4.029   5.766   4.834
 3992WAT    EPW16690   4.045   5.709   4.886
 3993WAT      O16691   4.690   5.114   4.209
 3993WAT     H116692   4.700   5.054   4.146
 3993WAT     H216693   4.625   5.164   4.179
 3993WAT    EPW16694   4.682   5.113   4.195
 3994WAT      O16695   5.567   6.358   5.357
 3994WAT     H116696   5.523   6.433   5.365
 3994WAT     H216697   5.564   6.342   5.271
 3994WAT    EPW16698   5.560   6.367   5.345
 3995WAT      O16699   4.494   6.115   4.658
 3995WAT     H116700   4.501   6.202   4.660
 3995WAT     H216701   4.569   6.088   4.693
 3995WAT    EPW16702   4.506   6.124   4.663
 3996WAT      O16703   4.266   5.341   4.105
 3996WAT     H116704   4.270   5.259   4.134
 3996WAT     H216705   4.223   5.334   4.029
 3996WAT    EPW16706   4.260   5.328   4.098
 3997WAT      O16707   4.329   5.614   4.844
 3997WAT     H116708   4.246   5.630   4.865
 3997WAT     H216709   4.338   5.529   4.863
 3997WAT    EPW16710   4.318   5.604   4.850
 3998WAT      O16711   4.286   5.565   5.271
 3998WAT     H116712   4.231   5.498   5.274
 3998WAT     H216713   4.241   5.626   5.226
 3998WAT    EPW16714   4.271   5.564   5.265
 3999WAT      O16715   5.398   5.373   4.980
 3999WAT     H116716   5.332   5.399   5.031
 3999WAT     H216717   5.396   5.428   4.913
 3999WAT    EPW16718   5.388   5.385   4.978
 4000WAT      O16719   4.759   6.451   5.116
 4000WAT     H116720   4.738   6.393   5.055
 4000WAT     H216721   4.747   6.528   5.077
 4000WAT    EPW16722   4.754   6.454   5.101
 4001WAT      O16723   4.959   4.939   5.327
 4001WAT     H116724   4.976   4.855   5.307
 4001WAT     H216725   4.979   4.944   5.411
 4001WAT    EPW16726   4.965   4.927   5.336
 4002WAT      O16727   5.215   5.133   4.308
 4002WAT     H116728   5.265   5.203   4.327
 4002WAT     H216729   5.134   5.164   4.315
 4002WAT    EPW16730   5.211   5.148   4.312
 4003WAT      O16731   4.155   5.637   5.633
 4003WAT     H116732   4.161   5.704   5.577
 4003WAT     H216733   4.106   5.579   5.591
 4003WAT    EPW16734   4.149   5.638   5.619
 4004WAT      O16735   5.320   5.952   5.595
 4004WAT     H116736   5.348   6.031   5.569
 4004WAT     H216737   5.348   5.899   5.531
 4004WAT    EPW16738   5.328   5.956   5.582
 4005WAT      O16739   4.718   6.250   5.620
 4005WAT     H116740   4.752   6.247   5.701
 4005WAT     H216741   4.694   6.168   5.605
 4005WAT    EPW16742   4.719   6.238   5.630
 4006WAT      O16743   4.806   5.233   4.932
 4006WAT     H116744   4.861   5.300   4.945
 4006WAT     H216745   4.741   5.249   4.987
 4006WAT    EPW16746   4.805   5.246   4.942
 4007WAT      O16747   5.052   5.583   4.155
 4007WAT     H116748   5.035   5.630   4.084
 4007WAT     H216749   4.987   5.604   4.210
 4007WAT    EPW16750   5.040   5.593   4.153
 4008WAT      O16751   5.551   5.900   4.595
 4008WAT     H116752   5.570   5.846   4.660
 4008WAT     H216753   5.552   5.849   4.524
 4008WAT    EPW16754   5.554   5.884   4.594
 4009WAT      O16755   5.177   6.314   4.921
 4009WAT     H116756   5.119   6.286   4.863
 4009WAT     H216757   5.212   6.384   4.884
 4009WAT    EPW16758   5.174   6.320   4.907
 4010WAT      O16759   5.162   5.970   4.900
 4010WAT     H116760   5.090   6.004   4.937
 4010WAT     H216761   5.194   5.919   4.963
 4010WAT    EPW16762   5.156   5.968   4.915
 4011WAT      O16763   4.535   6.332   4.261
 4011WAT     H116764   4.551   6.262   4.311
 4011WAT     H216765   4.613   6.369   4.251
 4011WAT    EPW16766   4.549   6.327   4.267
 4012WAT      O16767   4.779   6.437   4.187
 4012WAT     H116768   4.840   6.447   4.249
 4012WAT     H216769   4.775   6.515   4.149
 4012WAT    EPW16770   4.788   6.450   4.190
 4013WAT      O16771   5.396   5.795   5.379
 4013WAT     H116772   5.368   5.822   5.301
 4013WAT     H216773   5.482   5.808   5.376
 4013WAT    EPW16774   5.405   5.801   5.367
 4014WAT      O16775   5.104   6.339   5.785
 4014WAT     H116776   5.131   6.365   5.864
 4014WAT     H216777   5.133   6.402   5.732
 4014WAT    EPW16778   5.112   6.353   5.789
 4015WAT      O16779   5.601   4.872   5.715
 4015WAT     H116780   5.536   4.886   5.658
 4015WAT     H216781   5.577   4.797   5.755
 4015WAT    EPW16782   5.588   4.863   5.713
 4016WAT      O16783   4.170   5.587   4.216
 4016WAT     H116784   4.198   5.510   4.185
 4016WAT     H216785   4.189   5.583   4.301
 4016WAT    EPW16786   4.177   5.575   4.224
 4017WAT      O16787   5.036   5.802   5.270
 4017WAT     H116788   4.988   5.834   5.335
 4017WAT     H216789   5.073   5.731   5.304
 4017WAT    EPW16790   5.034   5.797   5.284
 4018WAT      O16791   4.864   5.632   4.360
 4018WAT     H116792   4.884   5.694   4.418
 4018WAT     H216793   4.867   5.558   4.406
 4018WAT    EPW16794   4.868   5.630   4.375
 4019WAT      O16795   5.429   6.091   4.909
 4019WAT     H116796   5.458   6.112   4.829
 4019WAT     H216797   5.347   6.064   4.895
 4019WAT    EPW16798   5.421   6.090   4.895
 4020WAT      O16799   4.794   5.812   4.798
 4020WAT     H116800   4.710   5.798   4.815
 4020WAT     H216801   4.835   5.782   4.869
 4020WAT    EPW16802   4.788   5.806   4.811
 4021WAT      O16803   4.441   6.474   3.909
 4021WAT     H116804   4.460   6.397   3.945
 4021WAT     H216805   4.451   6.531   3.975
 4021WAT    EPW16806   4.445   6.471   3.924
 4022WAT      O16807   4.159   5.787   5.150
 4022WAT     H116808   4.215   5.846   5.118
 4022WAT     H216809   4.119   5.755   5.079
 4022WAT    EPW16810   4.161   5.791   5.135
 4023WAT      O16811   4.471   5.184   4.658
 4023WAT     H116812   4.556   5.202   4.658
 4023WAT     H216813   4.466   5.108   4.615
 4023WAT    EPW16814   4.483   5.175   4.652
 4024WAT      O16815   5.770   6.492   4.121
 4024WAT     H116816   5.838   6.442   4.095
 4024WAT     H216817   5.720   6.436   4.165
 4024WAT    EPW16818   5.773   6.476   4.123
 4025WAT      O16819   5.521   5.732   5.077
 4025WAT     H116820   5.521   5.662   5.130
 4025WAT     H216821   5.439   5.763   5.085
 4025WAT    EPW16822   5.509   5.726   5.086
 4026WAT      O16823   4.477   5.622   3.910
 4026WAT     H116824   4.483   5.556   3.966
 4026WAT     H216825   4.448   5.585   3.837
 4026WAT    EPW16826   4.474   5.607   3.908
 4027WAT      O16827   4.148   5.849   5.434
 4027WAT     H116828   4.139   5.816   5.354
 4027WAT     H216829   4.113   5.928   5.428
 4027WAT    EPW16830   4.142   5.856   5.421
 4028WAT      O16831   5.618   5.726   4.812
 4028WAT     H116832   5.591   5.732   4.895
 4028WAT     H216833   5.705   5.726   4.819
 4028WAT    EPW16834   5.627   5.727   4.825
 4029WAT      O16835   4.533   5.417   4.091
 4029WAT     H116836   4.546   5.466   4.162
 4029WAT     H216837   4.453   5.383   4.103
 4029WAT    EPW16838   4.523   5.419   4.103
 4030WAT      O16839   5.337   5.184   5.620
 4030WAT     H116840   5.279   5.176   5.684
 4030WAT     H216841   5.351   5.102   5.595
 4030WAT    EPW16842   5.331   5.171   5.626
 4031WAT      O16843   5.759   6.228   4.887
 4031WAT     H116844   5.790   6.285   4.829
 4031WAT     H216845   5.821   6.226   4.949
 4031WAT    EPW16846   5.773   6.236   4.888
 4032WAT      O16847   5.239   5.527   5.726
 4032WAT     H116848   5.282   5.534   5.801
 4032WAT     H216849   5.170   5.580   5.736
 4032WAT    EPW16850   5.235   5.536   5.738
 4033WAT      O16851   5.462   5.542   5.552
 4033WAT     H116852   5.489   5.622   5.575
 4033WAT     H216853   5.390   5.530   5.601
 4033WAT    EPW16854   5.455   5.552   5.562
 4034WAT      O16855   5.452   6.158   4.100
 4034WAT     H116856   5.488   6.079   4.112
 4034WAT     H216857   5.374   6.150   4.140
 4034WAT    EPW16858   5.446   6.145   4.108
 4035WAT      O16859   5.471   5.285   4.626
 4035WAT     H116860   5.402   5.240   4.656
 4035WAT     H216861   5.467   5.360   4.670
 4035WAT    EPW16862   5.460   5.289   4.637
 4036WAT      O16863   5.788   5.625   5.738
 4036WAT     H116864   5.791   5.571   5.670
 4036WAT     H216865   5.866   5.663   5.738
 4036WAT    EPW16866   5.800   5.623   5.728
 4037WAT      O16867   5.665   5.873   5.376
 4037WAT     H116868   5.732   5.823   5.351
 4037WAT     H216869   5.657   5.931   5.311
 4037WAT    EPW16870   5.674   5.874   5.363
 4038WAT      O16871   5.113   5.956   4.037
 4038WAT     H116872   5.189   5.914   4.032
 4038WAT     H216873   5.087   5.962   3.953
 4038WAT    EPW16874   5.120   5.951   4.024
 4039WAT      O16875   4.560   6.102   5.146
 4039WAT     H116876   4.574   6.156   5.213
 4039WAT     H216877   4.583   6.149   5.076
 4039WAT    EPW16878   4.566   6.117   5.145
 4040WAT      O16879   4.406   5.940   5.444
 4040WAT     H116880   4.326   5.907   5.443
 4040WAT     H216881   4.393   6.027   5.447
 4040WAT    EPW16882   4.392   5.948   5.444
 4041WAT      O16883   5.360   5.001   5.279
 4041WAT     H116884   5.424   5.060   5.278
 4041WAT     H216885   5.288   5.050   5.268
 4041WAT    EPW16886   5.359   5.017   5.277
 4042WAT      O16887   4.879   5.712   5.051
 4042WAT     H116888   4.934   5.730   5.116
 4042WAT     H216889   4.801   5.736   5.082
 4042WAT    EPW16890   4.876   5.718   5.065
 4043WAT      O16891   4.582   5.276   5.382
 4043WAT     H116892   4.547   5.200   5.406
 4043WAT     H216893   4.576   5.275   5.295
 4043WAT    EPW16894   4.576   5.265   5.373
 4044WAT      O16895   4.821   6.426   4.614
 4044WAT     H116896   4.802   6.509   4.635
 4044WAT     H216897   4.855   6.432   4.534
 4044WAT    EPW16898   4.823   6.439   4.606
 4045WAT      O16899   5.359   4.763   5.124
 4045WAT     H116900   5.362   4.839   5.166
 4045WAT     H216901   5.416   4.713   5.167
 4045WAT    EPW16902   5.368   4.766   5.136
 4046WAT      O16903   4.684   4.886   5.331
 4046WAT     H116904   4.769   4.902   5.326
 4046WAT     H216905   4.680   4.800   5.345
 4046WAT    EPW16906   4.696   4.876   5.333
 4047WAT      O16907   4.638   6.273   4.935
 4047WAT     H116908   4.592   6.317   4.876
 4047WAT     H216909   4.683   6.215   4.888
 4047WAT    EPW16910   4.638   6.271   4.919
 4048WAT      O16911   5.060   5.936   5.679
 4048WAT     H116912   5.140   5.944   5.645
 4048WAT     H216913   5.007   5.948   5.610
 4048WAT    EPW16914   5.064   5.939   5.663
 4049WAT      O16915   5.391   6.214   5.521
 4049WAT     H116916   5.426   6.241   5.597
 4049WAT     H216917   5.444   6.249   5.461
 4049WAT    EPW16918   5.404   6.223   5.524
 4050WAT      O16919   5.636   5.460   4.010
 4050WAT     H116920   5.683   5.519   3.967
 4050WAT     H216921   5.556   5.496   4.013
 4050WAT    EPW16922   5.631   5.474   4.004
 4051WAT      O16923   4.723   5.735   3.975
 4051WAT     H116924   4.651   5.702   3.940
 4051WAT     H216925   4.700   5.815   4.000
 4051WAT    EPW16926   4.709   5.742   3.974
 4052WAT      O16927   4.378   5.332   4.896
 4052WAT     H116928   4.402   5.284   4.827
 4052WAT     H216929   4.313   5.285   4.931
 4052WAT    EPW16930   4.372   5.318   4.891
 4053WAT      O16931   5.133   5.339   5.488
 4053WAT     H116932   5.073   5.361   5.548
 4053WAT     H216933   5.197   5.304   5.536
 4053WAT    EPW16934   5.134   5.337   5.504
 4054WAT      O16935   5.170   5.412   5.136
 4054WAT     H116936   5.182   5.464   5.205
 4054WAT     H216937   5.158   5.333   5.172
 4054WAT    EPW16938   5.170   5.408   5.152
 4055WAT      O16939   4.888   6.465   5.543
 4055WAT     H116940   4.906   6.465   5.458
 4055WAT     H216941   4.850   6.387   5.556
 4055WAT    EPW16942   4.885   6.453   5.532
 4056WAT      O16943   5.383   5.355   4.374
 4056WAT     H116944   5.405   5.328   4.454
 4056WAT     H216945   5.459   5.382   4.340
 4056WAT    EPW16946   5.398   5.355   4.381
 4057WAT      O16947   4.616   4.779   4.934
 4057WAT     H116948   4.538   4.795   4.969
 4057WAT     H216949   4.599   4.772   4.849
 4057WAT    EPW16950   4.602   4.780   4.927
 4058WAT      O16951   5.513   4.919   4.529
 4058WAT     H116952   5.437   4.880   4.545
 4058WAT     H216953   5.508   4.939   4.444
 4058WAT    EPW16954   5.501   4.916   4.519
 4059WAT      O16955   5.530   5.749   4.351
 4059WAT     H116956   5.572   5.673   4.340
 4059WAT     H216957   5.446   5.726   4.344
 4059WAT    EPW16958   5.524   5.734   4.348
 4060WAT      O16959   4.884   5.942   5.462
 4060WAT     H116960   4.807   5.935   5.502
 4060WAT     H216961   4.883   6.023   5.430
 4060WAT    EPW16962   4.873   5.953   5.463
 4061WAT      O16963   4.423   6.606   5.028
 4061WAT     H116964   4.413   6.568   5.106
 4061WAT     H216965   4.405   6.542   4.971
 4061WAT    EPW16966   4.419   6.591   5.031
 4062WAT      O16967   5.164   5.922   4.626
 4062WAT     H116968   5.162   5.936   4.712
 4062WAT     H216969   5.200   5.843   4.619
 4062WAT    EPW16970   5.169   5.912   4.638
 4063WAT      O16971   4.912   5.837   4.543
 4063WAT     H116972   4.874   5.823   4.620
 4063WAT     H216973   4.992   5.864   4.565
 4063WAT    EPW16974   4.919   5.839   4.557
 4064WAT      O16975   4.882   6.194   5.351
 4064WAT     H116976   4.957   6.213   5.392
 4064WAT     H216977   4.909   6.167   5.273
 4064WAT    EPW16978   4.897   6.193   5.346
 4065WAT      O16979   5.735   5.454   5.525
 4065WAT     H116980   5.648   5.461   5.530
 4065WAT     H216981   5.751   5.462   5.439
 4065WAT    EPW16982   5.725   5.456   5.513
 4066WAT      O16983   5.183   5.585   5.362
 4066WAT     H116984   5.174   5.515   5.412
 4066WAT     H216985   5.262   5.616   5.384
 4066WAT    EPW16986   5.194   5.580   5.373
 4067WAT      O16987   4.092   6.556   5.520
 4067WAT     H116988   4.044   6.483   5.515
 4067WAT     H216989   4.034   6.619   5.534
 4067WAT    EPW16990   4.077   6.554   5.521
 4068WAT      O16991   4.990   5.691   5.787
 4068WAT     H116992   5.019   5.765   5.751
 4068WAT     H216993   4.910   5.712   5.816
 4068WAT    EPW16994   4.982   5.705   5.786
 4069WAT      O16995   5.275   6.569   4.856
 4069WAT     H116996   5.214   6.628   4.876
 4069WAT     H216997   5.337   6.582   4.916
 4069WAT    EPW16998   5.275   6.580   4.867
 4070WAT      O16999   4.984   6.055   5.128
 4070WAT     H117000   4.988   5.977   5.165
 4070WAT     H217001   5.064   6.089   5.142
 4070WAT    EPW17002   4.997   6.049   5.135
 4071WAT      O17003   5.523   6.286   5.757
 4071WAT     H117004   5.606   6.259   5.755
 4071WAT     H217005   5.490   6.246   5.828
 4071WAT    EPW17006   5.531   6.276   5.767
 4072WAT      O17007   5.614   5.488   4.290
 4072WAT     H117008   5.630   5.481   4.205
 4072WAT     H217009   5.688   5.459   4.327
 4072WAT    EPW17010   5.628   5.482   4.283
 4073WAT      O17011   5.049   6.192   4.452
 4073WAT     H117012   5.032   6.275   4.432
 4073WAT     H217013   4.975   6.150   4.432
 4073WAT    EPW17014   5.036   6.198   4.446
 4074WAT      O17015   5.494   5.513   5.269
 4074WAT     H117016   5.500   5.426   5.270
 4074WAT     H217017   5.483   5.534   5.352
 4074WAT    EPW17018   5.493   5.503   5.281
 4075WAT      O17019   5.003   4.976   5.604
 4075WAT     H117020   5.032   5.033   5.663
 4075WAT     H217021   4.925   4.952   5.635
 4075WAT    EPW17022   4.996   4.981   5.617
 4076WAT      O17023   4.980   5.040   4.652
 4076WAT     H117024   4.912   5.081   4.617
 4076WAT     H217025   4.992   4.972   4.600
 4076WAT    EPW17026   4.972   5.036   4.639
 4077WAT      O17027   4.464   6.217   4.023
 4077WAT     H117028   4.499   6.251   4.095
 4077WAT     H217029   4.386   6.188   4.050
 4077WAT    EPW17030   4.457   6.218   4.037
 4078WAT      O17031   5.344   5.099   4.957
 4078WAT     H117032   5.419   5.061   4.981
 4078WAT     H217033   5.359   5.184   4.971
 4078WAT    EPW17034   5.358   5.106   4.963
 4079WAT      O17035   4.520   5.691   5.363
 4079WAT     H117036   4.482   5.763   5.394
 4079WAT     H217037   4.453   5.642   5.336
 4079WAT    EPW17038   4.504   5.694   5.363
 4080WAT      O17039   5.430   5.532   4.751
 4080WAT     H117040   5.494   5.589   4.765
 4080WAT     H217041   5.373   5.576   4.703
 4080WAT    EPW17042   5.431   5.547   4.746
 4081WAT      O17043   5.441   6.376   4.487
 4081WAT     H117044   5.422   6.299   4.523
 4081WAT     H217045   5.481   6.354   4.412
 4081WAT    EPW17046   5.444   6.361   4.481
 4082WAT      O17047   4.235   6.099   4.126
 4082WAT     H117048   4.222   6.093   4.212
 4082WAT     H217049   4.217   6.019   4.097
 4082WAT    EPW17050   4.231   6.086   4.134
 4083WAT      O17051   4.527   5.944   4.012
 4083WAT     H117052   4.469   5.914   3.953
 4083WAT     H217053   4.518   6.030   4.006
 4083WAT    EPW17054   4.517   5.952   4.002
 4084WAT      O17055   4.516   5.002   5.137
 4084WAT     H117056   4.447   4.950   5.126
 4084WAT     H217057   4.564   4.960   5.196
 4084WAT    EPW17058   4.513   4.988   5.144
 4085WAT      O17059   5.699   4.846   5.225
 4085WAT     H117060   5.661   4.771   5.246
 4085WAT     H217061   5.784   4.829   5.231
 4085WAT    EPW17062   5.706   4.832   5.229
 4086WAT      O17063   5.240   6.153   5.151
 4086WAT     H117064   5.251   6.223   5.201
 4086WAT     H217065   5.240   6.185   5.070
 4086WAT    EPW17066   5.241   6.168   5.147
 4087WAT      O17067   5.173   6.530   5.588
 4087WAT     H117068   5.100   6.497   5.553
 4087WAT     H217069   5.150   6.610   5.613
 4087WAT    EPW17070   5.159   6.537   5.586
 4088WAT      O17071   4.679   5.500   5.507
 4088WAT     H117072   4.656   5.429   5.463
 4088WAT     H217073   4.640   5.565   5.464
 4088WAT    EPW17074   4.670   5.499   5.494
 4089WAT      O17075   4.756   4.816   4.086
 4089WAT     H117076   4.774   4.817   4.001
 4089WAT     H217077   4.668   4.812   4.088
 4089WAT    EPW17078   4.745   4.815   4.074
 4090WAT      O17079   5.640   5.989   5.118
 4090WAT     H117080   5.618   5.908   5.097
 4090WAT     H217081   5.589   6.038   5.066
 4090WAT    EPW17082   5.629   5.985   5.107
 4091WAT      O17083   4.542   6.506   5.576
 4091WAT     H117084   4.534   6.473   5.657
 4091WAT     H217085   4.607   6.460   5.541
 4091WAT    EPW17086   4.550   6.494   5.583
 4092WAT      O17087   5.549   6.293   5.076
 4092WAT     H117088   5.618   6.291   5.022
 4092WAT     H217089   5.489   6.245   5.034
 4092WAT    EPW17090   5.550   6.286   5.061
 4093WAT      O17091   5.097   4.934   4.934
 4093WAT     H117092   5.158   4.986   4.968
 4093WAT     H217093   5.143   4.879   4.884
 4093WAT    EPW17094   5.113   4.934   4.932
 4094WAT      O17095   4.243   6.361   5.686
 4094WAT     H117096   4.313   6.385   5.732
 4094WAT     H217097   4.211   6.436   5.656
 4094WAT    EPW17098   4.249   6.375   5.688
 4095WAT      O17099   5.091   5.432   4.688
 4095WAT     H117100   5.136   5.358   4.699
 4095WAT     H217101   5.054   5.445   4.766
 4095WAT    EPW17102   5.092   5.423   4.701
 4096WAT      O17103   4.101   6.130   5.395
 4096WAT     H117104   4.047   6.189   5.431
 4096WAT     H217105   4.180   6.163   5.409
 4096WAT    EPW17106   4.104   6.143   5.403
 4097WAT      O17107   5.281   5.603   4.313
 4097WAT     H117108   5.302   5.520   4.332
 4097WAT     H217109   5.205   5.596   4.270
 4097WAT    EPW17110   5.273   5.590   4.310
 4098WAT      O17111   4.296   6.463   4.304
 4098WAT     H117112   4.298   6.535   4.255
 4098WAT     H217113   4.374   6.426   4.289
 4098WAT    EPW17114   4.308   6.468   4.295
 4099WAT      O17115   4.623   5.661   4.226
 4099WAT     H117116   4.660   5.675   4.148
 4099WAT     H217117   4.691   5.648   4.278
 4099WAT    EPW17118   4.638   5.661   4.222
 4100WAT      O17119   5.560   6.547   3.943
 4100WAT     H117120   5.631   6.539   3.994
 4100WAT     H217121   5.547   6.467   3.914
 4100WAT    EPW17122   5.569   6.534   3.946
 4101WAT      O17123   5.584   5.781   5.635
 4101WAT     H117124   5.654   5.743   5.672
 4101WAT     H217125   5.618   5.823   5.566
 4101WAT    EPW17126   5.600   5.782   5.630
 4102WAT      O17127   5.205   6.152   4.220
 4102WAT     H117128   5.166   6.146   4.298
 4102WAT     H217129   5.163   6.093   4.172
 4102WAT    EPW17130   5.193   6.143   4.224
 4103WAT      O17131   5.586   5.254   5.734
 4103WAT     H117132   5.584   5.332   5.773
 4103WAT     H217133   5.505   5.244   5.703
 4103WAT    EPW17134   5.574   5.264   5.735
 4104WAT      O17135   5.667   5.334   5.048
 4104WAT     H117136   5.584   5.355   5.030
 4104WAT     H217137   5.664   5.247   5.056
 4104WAT    EPW17138   5.654   5.324   5.046
 4105WAT      O17139   4.537   5.015   5.531
 4105WAT     H117140   4.595   4.989   5.471
 4105WAT     H217141   4.495   4.941   5.552
 4105WAT    EPW17142   4.539   5.000   5.525
 4106WAT      O17143   5.376   5.845   5.861
 4106WAT     H117144   5.450   5.872   5.899
 4106WAT     H217145   5.388   5.865   5.777
 4106WAT    EPW17146   5.389   5.852   5.854
 4107WAT      O17147   4.304   6.367   4.906
 4107WAT     H117148   4.293   6.287   4.871
 4107WAT     H217149   4.257   6.418   4.853
 4107WAT    EPW17150   4.295   6.363   4.893
 4108WAT      O17151   4.845   6.001   4.108
 4108WAT     H117152   4.927   5.974   4.092
 4108WAT     H217153   4.842   6.079   4.071
 4108WAT    EPW17154   4.857   6.008   4.101
 4109WAT      O17155   4.068   6.606   5.241
 4109WAT     H117156   4.068   6.581   5.324
 4109WAT     H217157   4.094   6.535   5.198
 4109WAT    EPW17158   4.072   6.592   5.247
 4110WAT      O17159   5.059   4.826   2.582
 4110WAT     H117160   5.050   4.870   2.508
 4110WAT     H217161   5.144   4.807   2.585
 4110WAT    EPW17162   5.070   4.830   2.572
 4111WAT      O17163   4.991   5.495   3.035
 4111WAT     H117164   4.952   5.567   3.066
 4111WAT     H217165   5.051   5.476   3.095
 4111WAT    EPW17166   4.994   5.502   3.048
 4112WAT      O17167   3.952   5.976   2.586
 4112WAT     H117168   3.873   5.968   2.621
 4112WAT     H217169   3.967   5.899   2.548
 4112WAT    EPW17170   3.943   5.964   2.585
 4113WAT      O17171   5.599   6.321   2.358
 4113WAT     H117172   5.663   6.264   2.377
 4113WAT     H217173   5.546   6.275   2.306
 4113WAT    EPW17174   5.601   6.306   2.353
 4114WAT      O17175   3.929   5.240   2.181
 4114WAT     H117176   3.876   5.307   2.197
 4114WAT     H217177   3.949   5.209   2.260
 4114WAT    EPW17178   3.924   5.245   2.195
 4115WAT      O17179   4.280   5.881   2.134
 4115WAT     H117180   4.245   5.842   2.063
 4115WAT     H217181   4.284   5.817   2.193
 4115WAT    EPW17182   4.275   5.866   2.132
 4116WAT      O17183   5.243   5.658   2.680
 4116WAT     H117184   5.250   5.643   2.594
 4116WAT     H217185   5.189   5.594   2.707
 4116WAT    EPW17186   5.236   5.646   2.671
 4117WAT      O17187   4.213   6.070   2.538
 4117WAT     H117188   4.269   6.029   2.591
 4117WAT     H217189   4.136   6.035   2.558
 4117WAT    EPW17190   4.210   6.059   2.549
 4118WAT      O17191   4.616   4.946   2.459
 4118WAT     H117192   4.653   5.011   2.415
 4118WAT     H217193   4.684   4.897   2.484
 4118WAT    EPW17194   4.631   4.948   2.456
 4119WAT      O17195   4.113   6.344   2.128
 4119WAT     H117196   4.159   6.349   2.054
 4119WAT     H217197   4.144   6.272   2.166
 4119WAT    EPW17198   4.124   6.334   2.123
 4120WAT      O17199   4.017   6.109   3.263
 4120WAT     H117200   3.936   6.081   3.277
 4120WAT     H217201   4.034   6.085   3.181
 4120WAT    EPW17202   4.008   6.102   3.253
 4121WAT      O17203   4.676   6.002   3.726
 4121WAT     H117204   4.691   5.977   3.809
 4121WAT     H217205   4.597   5.970   3.709
 4121WAT    EPW17206   4.666   5.993   3.736
 4122WAT      O17207   4.155   5.693   2.708
 4122WAT     H117208   4.112   5.705   2.633
 4122WAT     H217209   4.200   5.619   2.695
 4122WAT    EPW17210   4.155   5.684   2.695
 4123WAT      O17211   4.592   5.276   3.233
 4123WAT     H117212   4.661   5.278   3.180
 4123WAT     H217213   4.575   5.191   3.240
 4123WAT    EPW17214   4.600   5.264   3.226
 4124WAT      O17215   4.627   6.260   3.425
 4124WAT     H117216   4.637   6.324   3.366
 4124WAT     H217217   4.708   6.243   3.452
 4124WAT    EPW17218   4.640   6.267   3.420
 4125WAT      O17219   4.305   5.457   2.700
 4125WAT     H117220   4.371   5.405   2.723
 4125WAT     H217221   4.235   5.405   2.708
 4125WAT    EPW17222   4.304   5.442   2.704
 4126WAT      O17223   4.740   6.103   2.844
 4126WAT     H117224   4.763   6.021   2.864
 4126WAT     H217225   4.817   6.144   2.835
 4126WAT    EPW17226   4.755   6.097   2.846
 4127WAT      O17227   4.779   6.022   2.486
 4127WAT     H117228   4.822   5.963   2.533
 4127WAT     H217229   4.805   6.006   2.404
 4127WAT    EPW17230   4.789   6.011   2.481
 4128WAT      O17231   4.946   5.511   3.666
 4128WAT     H117232   4.860   5.503   3.655
 4128WAT     H217233   4.954   5.560   3.738
 4128WAT    EPW17234   4.935   5.517   3.675
 4129WAT      O17235   4.368   5.006   2.576
 4129WAT     H117236   4.341   5.070   2.523
 4129WAT     H217237   4.448   4.987   2.546
 4129WAT    EPW17238   4.376   5.013   2.564
 4130WAT      O17239   5.310   4.753   3.572
 4130WAT     H117240   5.309   4.838   3.550
 4130WAT     H217241   5.314   4.712   3.495
 4130WAT    EPW17242   5.310   4.760   3.557
 4131WAT      O17243   4.797   4.985   2.849
 4131WAT     H117244   4.761   5.058   2.815
 4131WAT     H217245   4.739   4.923   2.830
 4131WAT    EPW17246   4.783   4.987   2.841
 4132WAT      O17247   5.181   5.159   1.980
 4132WAT     H117248   5.128   5.220   2.011
 4132WAT     H217249   5.193   5.105   2.047
 4132WAT    EPW17250   5.175   5.160   1.994
 4133WAT      O17251   3.930   5.422   2.962
 4133WAT     H117252   3.906   5.502   2.938
 4133WAT     H217253   3.871   5.400   3.023
 4133WAT    EPW17254   3.918   5.431   2.968
 4134WAT      O17255   3.955   6.404   2.754
 4134WAT     H117256   3.894   6.455   2.719
 4134WAT     H217257   3.996   6.370   2.685
 4134WAT    EPW17258   3.952   6.406   2.739
 4135WAT      O17259   4.568   6.199   2.460
 4135WAT     H117260   4.529   6.187   2.537
 4135WAT     H217261   4.640   6.149   2.466
 4135WAT    EPW17262   4.573   6.190   2.472
 4136WAT      O17263   5.160   6.420   2.269
 4136WAT     H117264   5.231   6.470   2.273
 4136WAT     H217265   5.189   6.341   2.290
 4136WAT    EPW17266   5.175   6.416   2.273
 4137WAT      O17267   4.964   6.455   2.458
 4137WAT     H117268   4.988   6.524   2.505
 4137WAT     H217269   5.026   6.448   2.398
 4137WAT    EPW17270   4.977   6.464   2.456
 4138WAT      O17271   4.205   4.858   3.040
 4138WAT     H117272   4.203   4.771   3.031
 4138WAT     H217273   4.227   4.869   3.124
 4138WAT    EPW17274   4.208   4.847   3.051
 4139WAT      O17275   4.682   5.101   3.889
 4139WAT     H117276   4.627   5.100   3.822
 4139WAT     H217277   4.710   5.184   3.892
 4139WAT    EPW17278   4.678   5.113   3.880
 4140WAT      O17279   4.096   6.319   2.527
 4140WAT     H117280   4.145   6.249   2.544
 4140WAT     H217281   4.149   6.371   2.481
 4140WAT    EPW17282   4.111   6.316   2.523
 4141WAT      O17283   5.727   5.111   2.737
 4141WAT     H117284   5.674   5.180   2.738
 4141WAT     H217285   5.673   5.045   2.717
 4141WAT    EPW17286   5.711   5.111   2.735
 4142WAT      O17287   5.209   6.443   3.256
 4142WAT     H117288   5.280   6.493   3.249
 4142WAT     H217289   5.196   6.414   3.174
 4142WAT    EPW17290   5.217   6.446   3.243
 4143WAT      O17291   4.289   6.139   2.915
 4143WAT     H117292   4.338   6.135   2.843
 4143WAT     H217293   4.316   6.071   2.963
 4143WAT    EPW17294   4.300   6.128   2.912
 4144WAT      O17295   4.538   6.434   2.811
 4144WAT     H117296   4.618   6.452   2.780
 4144WAT     H217297   4.485   6.483   2.762
 4144WAT    EPW17298   4.542   6.444   2.799
 4145WAT      O17299   4.796   4.862   3.814
 4145WAT     H117300   4.735   4.819   3.769
 4145WAT     H217301   4.757   4.937   3.836
 4145WAT    EPW17302   4.781   4.866   3.810
 4146WAT      O17303   4.892   5.390   2.605
 4146WAT     H117304   4.921   5.343   2.538
 4146WAT     H217305   4.962   5.399   2.656
 4146WAT    EPW17306   4.906   5.384   2.603
 4147WAT      O17307   4.999   5.345   2.108
 4147WAT     H117308   5.020   5.424   2.138
 4147WAT     H217309   4.921   5.357   2.070
 4147WAT    EPW17310   4.990   5.358   2.107
 4148WAT      O17311   5.370   6.606   2.251
 4148WAT     H117312   5.419   6.586   2.182
 4148WAT     H217313   5.424   6.653   2.301
 4148WAT    EPW17314   5.386   6.610   2.248
 4149WAT      O17315   4.400   6.524   3.403
 4149WAT     H117316   4.449   6.506   3.473
 4149WAT     H217317   4.348   6.454   3.396
 4149WAT    EPW17318   4.400   6.511   3.412
 4150WAT      O17319   5.656   5.089   3.175
 4150WAT     H117320   5.713   5.063   3.114
 4150WAT     H217321   5.674   5.037   3.243
 4150WAT    EPW17322   5.667   5.077   3.176
 4151WAT      O17323   5.109   6.231   3.660
 4151WAT     H117324   5.104   6.260   3.742
 4151WAT     H217325   5.195   6.226   3.645
 4151WAT    EPW17326   5.121   6.235   3.670
 4152WAT      O17327   4.849   6.246   2.075
 4152WAT     H117328   4.820   6.308   2.129
 4152WAT     H217329   4.928   6.275   2.051
 4152WAT    EPW17330   4.857   6.259   2.080
 4153WAT      O17331   5.218   4.985   2.195
 4153WAT     H117332   5.271   4.916   2.205
 4153WAT     H217333   5.236   5.035   2.264
 4153WAT    EPW17334   5.229   4.982   2.206
 4154WAT      O17335   3.980   5.099   2.415
 4154WAT     H117336   3.973   5.012   2.410
 4154WAT     H217337   3.927   5.120   2.481
 4154WAT    EPW17338   3.971   5.089   2.424
 4155WAT      O17339   4.157   6.351   3.287
 4155WAT     H117340   4.104   6.286   3.264
 4155WAT     H217341   4.204   6.365   3.214
 4155WAT    EPW17342   4.156   6.344   3.273
 4156WAT      O17343   4.977   5.252   2.375
 4156WAT     H117344   4.916   5.190   2.366
 4156WAT     H217345   4.986   5.283   2.294
 4156WAT    EPW17346   4.969   5.247   2.361
 4157WAT      O17347   4.965   6.490   3.370
 4157WAT     H117348   5.041   6.480   3.330
 4157WAT     H217349   4.906   6.483   3.306
 4157WAT    EPW17350   4.967   6.487   3.355
 4158WAT      O17351   4.981   4.934   2.334
 4158WAT     H117352   4.916   4.921   2.277
 4158WAT     H217353   5.050   4.948   2.283
 4158WAT    EPW17354   4.981   4.934   2.318
 4159WAT      O17355   5.660   6.545   2.638
 4159WAT     H117356   5.619   6.620   2.655
 4159WAT     H217357   5.594   6.488   2.626
 4159WAT    EPW17358   5.644   6.547   2.639
 4160WAT      O17359   4.720   5.245   2.781
 4160WAT     H117360   4.767   5.291   2.723
 4160WAT     H217361   4.750   5.271   2.858
 4160WAT    EPW17362   4.731   5.255   2.784
 4161WAT      O17363   5.393   6.119   2.703
 4161WAT     H117364   5.456   6.059   2.691
 4161WAT     H217365   5.319   6.074   2.696
 4161WAT    EPW17366   5.392   6.104   2.700
 4162WAT      O17367   4.383   6.188   3.574
 4162WAT     H117368   4.456   6.210   3.533
 4162WAT     H217369   4.375   6.250   3.636
 4162WAT    EPW17370   4.392   6.200   3.577
 4163WAT      O17371   4.177   4.813   2.501
 4163WAT     H117372   4.242   4.863   2.531
 4163WAT     H217373   4.218   4.747   2.462
 4163WAT    EPW17374   4.193   4.811   2.499
 4164WAT      O17375   4.543   5.752   2.986
 4164WAT     H117376   4.563   5.737   3.070
 4164WAT     H217377   4.486   5.689   2.967
 4164WAT    EPW17378   4.538   5.741   2.995
 4165WAT      O17379   5.149   5.169   3.358
 4165WAT     H117380   5.141   5.220   3.428
 4165WAT     H217381   5.080   5.115   3.365
 4165WAT    EPW17382   5.137   5.169   3.369
 4166WAT      O17383   4.611   5.773   3.260
 4166WAT     H117384   4.605   5.860   3.260
 4166WAT     H217385   4.595   5.752   3.343
 4166WAT    EPW17386   4.607   5.783   3.272
 4167WAT      O17387   5.266   5.883   3.247
 4167WAT     H117388   5.191   5.856   3.282
 4167WAT     H217389   5.260   5.970   3.251
 4167WAT    EPW17390   5.254   5.892   3.253
 4168WAT      O17391   5.321   4.756   2.660
 4168WAT     H117392   5.312   4.740   2.745
 4168WAT     H217393   5.351   4.681   2.627
 4168WAT    EPW17394   5.324   4.743   2.668
 4169WAT      O17395   3.896   6.169   3.834
 4169WAT     H117396   3.949   6.219   3.882
 4169WAT     H217397   3.895   6.093   3.876
 4169WAT    EPW17398   3.903   6.165   3.847
 4170WAT      O17399   5.517   5.244   3.466
 4170WAT     H117400   5.597   5.218   3.488
 4170WAT     H217401   5.483   5.274   3.541
 4170WAT    EPW17402   5.524   5.245   3.481
 4171WAT      O17403   4.272   5.067   2.835
 4171WAT     H117404   4.295   5.028   2.761
 4171WAT     H217405   4.256   5.000   2.889
 4171WAT    EPW17406   4.273   5.051   2.832
 4172WAT      O17407   5.571   5.916   2.220
 4172WAT     H117408   5.572   5.869   2.293
 4172WAT     H217409   5.655   5.926   2.200
 4172WAT    EPW17410   5.584   5.910   2.228
 4173WAT      O17411   4.348   5.896   2.711
 4173WAT     H117412   4.412   5.873   2.656
 4173WAT     H217413   4.293   5.829   2.708
 4173WAT    EPW17414   4.349   5.883   2.703
 4174WAT      O17415   4.174   6.544   2.853
 4174WAT     H117416   4.100   6.509   2.822
 4174WAT     H217417   4.225   6.551   2.783
 4174WAT    EPW17418   4.170   6.540   2.838
 4175WAT      O17419   4.115   5.252   3.081
 4175WAT     H117420   4.072   5.176   3.083
 4175WAT     H217421   4.055   5.309   3.053
 4175WAT    EPW17422   4.100   5.249   3.078
 4176WAT      O17423   5.806   6.343   3.613
 4176WAT     H117424   5.728   6.349   3.574
 4176WAT     H217425   5.788   6.297   3.686
 4176WAT    EPW17426   5.792   6.337   3.618
 4177WAT      O17427   5.391   5.576   2.140
 4177WAT     H117428   5.383   5.657   2.110
 4177WAT     H217429   5.359   5.580   2.221
 4177WAT    EPW17430   5.385   5.588   2.148
 4178WAT      O17431   4.539   5.849   2.510
 4178WAT     H117432   4.599   5.912   2.505
 4178WAT     H217433   4.571   5.787   2.459
 4178WAT    EPW17434   4.552   5.849   2.502
 4179WAT      O17435   5.743   5.035   2.146
 4179WAT     H117436   5.779   4.974   2.094
 4179WAT     H217437   5.701   5.088   2.091
 4179WAT    EPW17438   5.742   5.034   2.130
 4180WAT      O17439   4.030   6.064   2.986
 4180WAT     H117440   3.978   6.133   2.978
 4180WAT     H217441   4.106   6.091   2.950
 4180WAT    EPW17442   4.034   6.078   2.979
 4181WAT      O17443   4.745   5.376   3.913
 4181WAT     H117444   4.679   5.386   3.969
 4181WAT     H217445   4.718   5.418   3.841
 4181WAT    EPW17446   4.731   5.383   3.910
 4182WAT      O17447   5.807   5.489   3.380
 4182WAT     H117448   5.842   5.415   3.349
 4182WAT     H217449   5.728   5.492   3.344
 4182WAT    EPW17450   5.800   5.479   3.370
 4183WAT      O17451   4.039   5.745   2.464
 4183WAT     H117452   3.965   5.709   2.436
 4183WAT     H217453   4.099   5.715   2.408
 4183WAT    EPW17454   4.037   5.735   2.452
 4184WAT      O17455   5.610   4.912   2.363
 4184WAT     H117456   5.680   4.864   2.383
 4184WAT     H217457   5.637   4.962   2.297
 4184WAT    EPW17458   5.624   4.912   2.356
 4185WAT      O17459   4.968   6.261   2.808
 4185WAT     H117460   4.922   6.333   2.789
 4185WAT     H217461   4.995   6.232   2.730
 4185WAT    EPW17462   4.965   6.267   2.794
 4186WAT      O17463   3.935   6.151   2.373
 4186WAT     H117464   3.988   6.210   2.410
 4186WAT     H217465   3.926   6.090   2.435
 4186WAT    EPW17466   3.941   6.151   2.388
 4187WAT      O17467   4.362   5.936   3.088
 4187WAT     H117468   4.416   5.978   3.142
 4187WAT     H217469   4.414   5.887   3.040
 4187WAT    EPW17470   4.377   5.935   3.089
 4188WAT      O17471   5.251   5.209   2.853
 4188WAT     H117472   5.273   5.194   2.936
 4188WAT     H217473   5.200   5.141   2.833
 4188WAT    EPW17474   5.247   5.197   2.863
 4189WAT      O17475   3.960   6.005   2.129
 4189WAT     H117476   4.026   5.949   2.131
 4189WAT     H217477   3.966   6.047   2.206
 4189WAT    EPW17478   3.970   6.003   2.141
 4190WAT      O17479   4.004   5.789   2.926
 4190WAT     H117480   4.047   5.767   2.853
 4190WAT     H217481   4.012   5.876   2.929
 4190WAT    EPW17482   4.012   5.799   2.916
 4191WAT      O17483   4.717   5.147   2.298
 4191WAT     H117484   4.707   5.119   2.216
 4191WAT     H217485   4.682   5.227   2.297
 4191WAT    EPW17486   4.711   5.155   2.286
 4192WAT      O17487   5.550   6.377   3.477
 4192WAT     H117488   5.503   6.448   3.497
 4192WAT     H217489   5.548   6.376   3.389
 4192WAT    EPW17490   5.543   6.387   3.467
 4193WAT      O17491   4.493   6.179   2.724
 4193WAT     H117492   4.503   6.261   2.750
 4193WAT     H217493   4.565   6.139   2.755
 4193WAT    EPW17494   4.505   6.185   2.732
 4194WAT      O17495   4.117   5.501   3.727
 4194WAT     H117496   4.054   5.443   3.709
 4194WAT     H217497   4.178   5.484   3.667
 4194WAT    EPW17498   4.117   5.490   3.715
 4195WAT      O17499   4.314   5.411   2.231
 4195WAT     H117500   4.297   5.352   2.293
 4195WAT     H217501   4.267   5.383   2.163
 4195WAT    EPW17502   4.304   5.398   2.230
 4196WAT      O17503   4.334   5.570   2.951
 4196WAT     H117504   4.260   5.616   2.959
 4196WAT     H217505   4.329   5.536   2.871
 4196WAT    EPW17506   4.322   5.572   2.941
 4197WAT      O17507   4.338   5.565   3.266
 4197WAT     H117508   4.408   5.616   3.272
 4197WAT     H217509   4.277   5.617   3.230
 4197WAT    EPW17510   4.339   5.580   3.261
 4198WAT      O17511   5.411   5.380   3.069
 4198WAT     H117512   5.341   5.403   3.116
 4198WAT     H217513   5.407   5.432   2.999
 4198WAT    EPW17514   5.400   5.391   3.066
 4199WAT      O17515   4.738   6.439   3.213
 4199WAT     H117516   4.715   6.377   3.156
 4199WAT     H217517   4.726   6.513   3.168
 4199WAT    EPW17518   4.733   6.440   3.198
 4200WAT      O17519   4.974   4.958   3.441
 4200WAT     H117520   4.998   4.881   3.410
 4200WAT     H217521   4.995   4.954   3.526
 4200WAT    EPW17522   4.980   4.946   3.449
 4201WAT      O17523   5.233   5.143   2.417
 4201WAT     H117524   5.284   5.212   2.436
 4201WAT     H217525   5.153   5.177   2.415
 4201WAT    EPW17526   5.229   5.158   2.420
 4202WAT      O17527   4.196   5.771   3.783
 4202WAT     H117528   4.137   5.814   3.735
 4202WAT     H217529   4.173   5.687   3.772
 4202WAT    EPW17530   4.184   5.765   3.774
 4203WAT      O17531   5.315   5.942   3.702
 4203WAT     H117532   5.343   6.022   3.680
 4203WAT     H217533   5.347   5.891   3.638
 4203WAT    EPW17534   5.324   5.946   3.689
 4204WAT      O17535   4.726   6.281   3.738
 4204WAT     H117536   4.756   6.281   3.819
 4204WAT     H217537   4.709   6.197   3.722
 4204WAT    EPW17538   4.728   6.268   3.747
 4205WAT      O17539   4.800   5.293   3.044
 4205WAT     H117540   4.861   5.355   3.046
 4205WAT     H217541   4.844   5.221   3.067
 4205WAT    EPW17542   4.816   5.291   3.048
 4206WAT      O17543   5.057   5.586   2.242
 4206WAT     H117544   5.032   5.635   2.174
 4206WAT     H217545   4.997   5.604   2.303
 4206WAT    EPW17546   5.045   5.596   2.241
 4207WAT      O17547   5.571   5.909   2.684
 4207WAT     H117548   5.582   5.855   2.752
 4207WAT     H217549   5.561   5.855   2.616
 4207WAT    EPW17550   5.571   5.893   2.684
 4208WAT      O17551   5.163   6.306   3.008
 4208WAT     H117552   5.102   6.289   2.949
 4208WAT     H217553   5.212   6.368   2.971
 4208WAT    EPW17554   5.161   6.313   2.994
 4209WAT      O17555   5.158   5.952   2.995
 4209WAT     H117556   5.085   5.987   3.027
 4209WAT     H217557   5.191   5.907   3.062
 4209WAT    EPW17558   5.152   5.951   3.009
 4210WAT      O17559   4.549   6.465   2.396
 4210WAT     H117560   4.554   6.385   2.432
 4210WAT     H217561   4.619   6.468   2.343
 4210WAT    EPW17562   4.560   6.453   2.393
 4211WAT      O17563   4.508   4.846   2.208
 4211WAT     H117564   4.525   4.847   2.294
 4211WAT     H217565   4.456   4.915   2.196
 4211WAT    EPW17566   4.503   4.856   2.219
 4212WAT      O17567   4.780   6.452   2.247
 4212WAT     H117568   4.838   6.459   2.312
 4212WAT     H217569   4.785   6.529   2.207
 4212WAT    EPW17570   4.790   6.464   2.251
 4213WAT      O17571   5.397   5.797   3.477
 4213WAT     H117572   5.364   5.833   3.405
 4213WAT     H217573   5.482   5.819   3.474
 4213WAT    EPW17574   5.405   5.806   3.466
 4214WAT      O17575   5.090   6.370   3.906
 4214WAT     H117576   5.117   6.390   3.986
 4214WAT     H217577   5.114   6.438   3.858
 4214WAT    EPW17578   5.097   6.383   3.911
 4215WAT      O17579   5.581   4.784   3.654
 4215WAT     H117580   5.497   4.783   3.632
 4215WAT     H217581   5.582   4.755   3.736
 4215WAT    EPW17582   5.569   4.780   3.663
 4216WAT      O17583   4.278   5.676   2.325
 4216WAT     H117584   4.283   5.592   2.301
 4216WAT     H217585   4.344   5.686   2.380
 4216WAT    EPW17586   4.288   5.665   2.330
 4217WAT      O17587   5.028   5.797   3.363
 4217WAT     H117588   4.986   5.836   3.429
 4217WAT     H217589   5.066   5.729   3.401
 4217WAT    EPW17590   5.027   5.793   3.378
 4218WAT      O17591   3.944   4.821   2.362
 4218WAT     H117592   3.935   4.741   2.329
 4218WAT     H217593   4.013   4.815   2.414
 4218WAT    EPW17594   3.953   4.808   2.364
 4219WAT      O17595   4.891   5.630   2.463
 4219WAT     H117596   4.905   5.693   2.521
 4219WAT     H217597   4.886   5.558   2.512
 4219WAT    EPW17598   4.892   5.629   2.478
 4220WAT      O17599   5.410   6.087   2.987
 4220WAT     H117600   5.423   6.104   2.903
 4220WAT     H217601   5.329   6.056   2.991
 4220WAT    EPW17602   5.400   6.085   2.975
 4221WAT      O17603   4.360   5.075   2.158
 4221WAT     H117604   4.305   5.058   2.092
 4221WAT     H217605   4.430   5.108   2.118
 4221WAT    EPW17606   4.362   5.077   2.142
 4222WAT      O17607   4.796   5.833   2.894
 4222WAT     H117608   4.715   5.804   2.905
 4222WAT     H217609   4.837   5.809   2.967
 4222WAT    EPW17610   4.790   5.825   2.906
 4223WAT      O17611   4.473   6.455   2.018
 4223WAT     H117612   4.494   6.385   2.067
 4223WAT     H217613   4.482   6.522   2.074
 4223WAT    EPW17614   4.478   6.454   2.034
 4224WAT      O17615   4.160   5.754   3.155
 4224WAT     H117616   4.216   5.819   3.139
 4224WAT     H217617   4.103   5.761   3.089
 4224WAT    EPW17618   4.160   5.765   3.143
 4225WAT      O17619   4.454   5.278   2.854
 4225WAT     H117620   4.534   5.259   2.825
 4225WAT     H217621   4.410   5.204   2.842
 4225WAT    EPW17622   4.459   5.264   2.848
 4226WAT      O17623   5.767   6.493   2.219
 4226WAT     H117624   5.835   6.445   2.192
 4226WAT     H217625   5.718   6.436   2.263
 4226WAT    EPW17626   5.770   6.477   2.222
 4227WAT      O17627   4.043   5.392   2.504
 4227WAT     H117628   4.041   5.357   2.583
 4227WAT     H217629   4.108   5.349   2.464
 4227WAT    EPW17630   4.053   5.380   2.510
 4228WAT      O17631   5.516   5.751   3.171
 4228WAT     H117632   5.520   5.681   3.223
 4228WAT     H217633   5.434   5.780   3.183
 4228WAT    EPW17634   5.504   5.745   3.181
 4229WAT      O17635   4.470   5.579   2.031
 4229WAT     H117636   4.424   5.540   2.094
 4229WAT     H217637   4.425   5.559   1.958
 4229WAT    EPW17638   4.456   5.570   2.029
 4230WAT      O17639   4.050   5.926   3.598
 4230WAT     H117640   4.056   5.865   3.536
 4230WAT     H217641   3.966   5.921   3.623
 4230WAT    EPW17642   4.038   5.916   3.593
 4231WAT      O17643   5.619   5.738   2.908
 4231WAT     H117644   5.590   5.749   2.989
 4231WAT     H217645   5.706   5.736   2.917
 4231WAT    EPW17646   5.628   5.739   2.921
 4232WAT      O17647   4.595   5.397   2.261
 4232WAT     H117648   4.609   5.476   2.296
 4232WAT     H217649   4.508   5.394   2.253
 4232WAT    EPW17650   4.584   5.408   2.265
 4233WAT      O17651   5.357   5.202   3.718
 4233WAT     H117652   5.295   5.188   3.777
 4233WAT     H217653   5.348   5.135   3.663
 4233WAT    EPW17654   5.347   5.190   3.718
 4234WAT      O17655   3.970   5.011   3.067
 4234WAT     H117656   3.911   4.983   3.010
 4234WAT     H217657   4.036   4.954   3.059
 4234WAT    EPW17658   3.971   4.999   3.058
 4235WAT      O17659   5.757   6.238   2.977
 4235WAT     H117660   5.791   6.293   2.919
 4235WAT     H217661   5.812   6.242   3.045
 4235WAT    EPW17662   5.770   6.247   2.979
 4236WAT      O17663   5.252   5.504   3.810
 4236WAT     H117664   5.289   5.512   3.889
 4236WAT     H217665   5.172   5.535   3.822
 4236WAT    EPW17666   5.246   5.510   3.823
 4237WAT      O17667   5.476   5.534   3.640
 4237WAT     H117668   5.500   5.614   3.664
 4237WAT     H217669   5.407   5.517   3.689
 4237WAT    EPW17670   5.470   5.543   3.651
 4238WAT      O17671   5.441   6.160   2.204
 4238WAT     H117672   5.478   6.081   2.212
 4238WAT     H217673   5.365   6.150   2.245
 4238WAT    EPW17674   5.435   6.147   2.211
 4239WAT      O17675   5.497   5.288   2.735
 4239WAT     H117676   5.428   5.248   2.769
 4239WAT     H217677   5.492   5.369   2.768
 4239WAT    EPW17678   5.486   5.294   2.745
 4240WAT      O17679   5.790   5.626   3.850
 4240WAT     H117680   5.795   5.568   3.785
 4240WAT     H217681   5.868   5.664   3.851
 4240WAT    EPW17682   5.802   5.623   3.841
 4241WAT      O17683   5.660   5.893   3.469
 4241WAT     H117684   5.731   5.849   3.443
 4241WAT     H217685   5.649   5.952   3.405
 4241WAT    EPW17686   5.669   5.895   3.455
 4242WAT      O17687   5.117   5.959   2.134
 4242WAT     H117688   5.193   5.916   2.126
 4242WAT     H217689   5.087   5.963   2.052
 4242WAT    EPW17690   5.124   5.953   2.121
 4243WAT      O17691   4.568   6.059   3.234
 4243WAT     H117692   4.583   6.110   3.303
 4243WAT     H217693   4.588   6.111   3.166
 4243WAT    EPW17694   4.573   6.074   3.234
 4244WAT      O17695   4.418   5.911   3.671
 4244WAT     H117696   4.347   5.871   3.703
 4244WAT     H217697   4.387   5.987   3.641
 4244WAT    EPW17698   4.403   5.916   3.671
 4245WAT      O17699   5.343   5.024   3.499
 4245WAT     H117700   5.410   5.074   3.473
 4245WAT     H217701   5.275   5.058   3.455
 4245WAT    EPW17702   5.342   5.036   3.488
 4246WAT      O17703   4.869   5.724   3.150
 4246WAT     H117704   4.923   5.741   3.216
 4246WAT     H217705   4.790   5.726   3.186
 4246WAT    EPW17706   4.865   5.727   3.165
 4247WAT      O17707   4.541   5.321   3.506
 4247WAT     H117708   4.540   5.243   3.544
 4247WAT     H217709   4.564   5.304   3.424
 4247WAT    EPW17710   4.544   5.307   3.499
 4248WAT      O17711   4.801   6.473   2.717
 4248WAT     H117712   4.807   6.558   2.737
 4248WAT     H217713   4.821   6.471   2.632
 4248WAT    EPW17714   4.805   6.485   2.707
 4249WAT      O17715   5.463   4.840   3.207
 4249WAT     H117716   5.439   4.920   3.185
 4249WAT     H217717   5.539   4.851   3.249
 4249WAT    EPW17718   5.471   4.853   3.210
 4250WAT      O17719   4.683   4.926   3.459
 4250WAT     H117720   4.770   4.930   3.450
 4250WAT     H217721   4.671   4.851   3.502
 4250WAT    EPW17722   4.694   4.915   3.464
 4251WAT      O17723   4.619   6.258   3.036
 4251WAT     H117724   4.576   6.315   2.986
 4251WAT     H217725   4.664   6.210   2.979
 4251WAT    EPW17726   4.619   6.259   3.020
 4252WAT      O17727   5.050   5.910   3.768
 4252WAT     H117728   5.132   5.922   3.742
 4252WAT     H217729   5.002   5.932   3.698
 4252WAT    EPW17730   5.055   5.915   3.754
 4253WAT      O17731   5.389   6.207   3.637
 4253WAT     H117732   5.427   6.232   3.711
 4253WAT     H217733   5.435   6.248   3.575
 4253WAT    EPW17734   5.401   6.217   3.639
 4254WAT      O17735   5.646   5.470   2.122
 4254WAT     H117736   5.692   5.526   2.073
 4254WAT     H217737   5.565   5.502   2.118
 4254WAT    EPW17738   5.641   5.483   2.114
 4255WAT      O17739   4.697   5.734   2.080
 4255WAT     H117740   4.630   5.687   2.050
 4255WAT     H217741   4.668   5.816   2.076
 4255WAT    EPW17742   4.683   5.739   2.075
 4256WAT      O17743   5.148   5.348   3.568
 4256WAT     H117744   5.078   5.386   3.605
 4256WAT     H217745   5.201   5.333   3.636
 4256WAT    EPW17746   5.145   5.352   3.584
 4257WAT      O17747   5.181   5.421   3.222
 4257WAT     H117748   5.192   5.476   3.289
 4257WAT     H217749   5.161   5.345   3.261
 4257WAT    EPW17750   5.180   5.418   3.238
 4258WAT      O17751   4.870   6.502   3.631
 4258WAT     H117752   4.896   6.488   3.548
 4258WAT     H217753   4.840   6.424   3.656
 4258WAT    EPW17754   4.869   6.488   3.622
 4259WAT      O17755   5.396   5.362   2.486
 4259WAT     H117756   5.420   5.334   2.565
 4259WAT     H217757   5.470   5.394   2.452
 4259WAT    EPW17758   5.410   5.363   2.493
 4260WAT      O17759   5.548   4.919   2.638
 4260WAT     H117760   5.469   4.884   2.651
 4260WAT     H217761   5.550   4.934   2.553
 4260WAT    EPW17762   5.536   4.916   2.628
 4261WAT      O17763   5.528   5.754   2.448
 4261WAT     H117764   5.571   5.679   2.440
 4261WAT     H217765   5.444   5.731   2.439
 4261WAT    EPW17766   5.522   5.740   2.446
 4262WAT      O17767   4.884   5.957   3.544
 4262WAT     H117768   4.814   5.961   3.595
 4262WAT     H217769   4.894   6.039   3.516
 4262WAT    EPW17770   4.875   5.970   3.547
 4263WAT      O17771   4.433   6.610   3.130
 4263WAT     H117772   4.429   6.599   3.216
 4263WAT     H217773   4.403   6.535   3.098
 4263WAT    EPW17774   4.428   6.598   3.138
 4264WAT      O17775   4.245   5.185   2.389
 4264WAT     H117776   4.277   5.144   2.319
 4264WAT     H217777   4.167   5.149   2.401
 4264WAT    EPW17778   4.239   5.174   2.380
 4265WAT      O17779   5.176   5.927   2.719
 4265WAT     H117780   5.169   5.935   2.806
 4265WAT     H217781   5.208   5.846   2.709
 4265WAT    EPW17782   5.180   5.916   2.730
 4266WAT      O17783   4.921   5.843   2.642
 4266WAT     H117784   4.883   5.834   2.720
 4266WAT     H217785   5.000   5.874   2.662
 4266WAT    EPW17786   4.927   5.846   2.656
 4267WAT      O17787   4.909   6.227   3.472
 4267WAT     H117788   4.971   6.229   3.534
 4267WAT     H217789   4.932   6.291   3.418
 4267WAT    EPW17790   4.922   6.237   3.473
 4268WAT      O17791   5.746   5.444   3.645
 4268WAT     H117792   5.660   5.460   3.646
 4268WAT     H217793   5.769   5.465   3.564
 4268WAT    EPW17794   5.736   5.449   3.633
 4269WAT      O17795   5.200   5.594   3.441
 4269WAT     H117796   5.189   5.529   3.499
 4269WAT     H217797   5.271   5.635   3.470
 4269WAT    EPW17798   5.209   5.590   3.454
 4270WAT      O17799   4.051   6.549   3.638
 4270WAT     H117800   3.987   6.489   3.629
 4270WAT     H217801   4.009   6.619   3.669
 4270WAT    EPW17802   4.035   6.550   3.641
 4271WAT      O17803   4.982   5.670   3.893
 4271WAT     H117804   5.008   5.744   3.856
 4271WAT     H217805   4.900   5.686   3.915
 4271WAT    EPW17806   4.974   5.683   3.891
 4272WAT      O17807   5.304   6.541   2.952
 4272WAT     H117808   5.257   6.605   2.987
 4272WAT     H217809   5.373   6.535   3.006
 4272WAT    EPW17810   5.308   6.549   2.965
 4273WAT      O17811   4.949   6.048   3.155
 4273WAT     H117812   4.921   5.985   3.209
 4273WAT     H217813   5.008   6.091   3.202
 4273WAT    EPW17814   4.954   6.045   3.170
 4274WAT      O17815   5.524   6.284   3.867
 4274WAT     H117816   5.607   6.257   3.865
 4274WAT     H217817   5.492   6.244   3.937
 4274WAT    EPW17818   5.532   6.274   3.877
 4275WAT      O17819   4.330   5.499   3.541
 4275WAT     H117820   4.301   5.506   3.459
 4275WAT     H217821   4.384   5.430   3.538
 4275WAT    EPW17822   4.334   5.490   3.529
 4276WAT      O17823   5.622   5.497   2.398
 4276WAT     H117824   5.635   5.492   2.312
 4276WAT     H217825   5.697   5.469   2.432
 4276WAT    EPW17826   5.635   5.492   2.390
 4277WAT      O17827   4.304   4.981   3.586
 4277WAT     H117828   4.258   4.936   3.646
 4277WAT     H217829   4.274   4.951   3.510
 4277WAT    EPW17830   4.293   4.970   3.584
 4278WAT      O17831   5.003   6.189   2.538
 4278WAT     H117832   4.984   6.270   2.511
 4278WAT     H217833   4.929   6.145   2.521
 4278WAT    EPW17834   4.989   6.195   2.531
 4279WAT      O17835   5.524   5.522   3.356
 4279WAT     H117836   5.512   5.436   3.352
 4279WAT     H217837   5.503   5.542   3.438
 4279WAT    EPW17838   5.519   5.512   3.367
 4280WAT      O17839   4.019   5.730   3.401
 4280WAT     H117840   4.058   5.736   3.324
 4280WAT     H217841   4.001   5.645   3.409
 4280WAT    EPW17842   4.022   5.718   3.391
 4281WAT      O17843   4.153   5.309   2.024
 4281WAT     H117844   4.077   5.298   2.066
 4281WAT     H217845   4.168   5.230   1.990
 4281WAT    EPW17846   4.144   5.295   2.025
 4282WAT      O17847   5.038   4.930   3.709
 4282WAT     H117848   5.072   4.995   3.756
 4282WAT     H217849   4.961   4.916   3.747
 4282WAT    EPW17850   5.032   4.938   3.722
 4283WAT      O17851   5.073   4.994   2.805
 4283WAT     H117852   4.987   4.999   2.819
 4283WAT     H217853   5.079   4.943   2.735
 4283WAT    EPW17854   5.061   4.987   2.797
 4284WAT      O17855   4.492   6.219   2.185
 4284WAT     H117856   4.531   6.217   2.263
 4284WAT     H217857   4.410   6.195   2.203
 4284WAT    EPW17858   4.485   6.215   2.199
 4285WAT      O17859   5.336   5.090   3.140
 4285WAT     H117860   5.408   5.139   3.135
 4285WAT     H217861   5.292   5.125   3.206
 4285WAT    EPW17862   5.340   5.102   3.149
 4286WAT      O17863   4.520   5.699   3.515
 4286WAT     H117864   4.489   5.765   3.562
 4286WAT     H217865   4.458   5.638   3.522
 4286WAT    EPW17866   4.506   5.699   3.523
 4287WAT      O17867   5.440   5.540   2.840
 4287WAT     H117868   5.500   5.601   2.857
 4287WAT     H217869   5.382   5.581   2.790
 4287WAT    EPW17870   5.441   5.555   2.835
 4288WAT      O17871   5.441   6.375   2.583
 4288WAT     H117872   5.426   6.298   2.621
 4288WAT     H217873   5.482   6.353   2.509
 4288WAT    EPW17874   5.445   6.360   2.578
 4289WAT      O17875   4.240   6.126   2.257
 4289WAT     H117876   4.238   6.107   2.342
 4289WAT     H217877   4.249   6.048   2.219
 4289WAT    EPW17878   4.241   6.112   2.264
 4290WAT      O17879   4.542   5.971   2.053
 4290WAT     H117880   4.464   5.938   2.072
 4290WAT     H217881   4.542   6.049   2.093
 4290WAT    EPW17882   4.531   5.978   2.062
 4291WAT      O17883   4.492   5.024   3.274
 4291WAT     H117884   4.415   4.985   3.290
 4291WAT     H217885   4.548   4.980   3.323
 4291WAT    EPW17886   4.489   5.012   3.283
 4292WAT      O17887   5.694   4.884   3.370
 4292WAT     H117888   5.676   4.876   3.455
 4292WAT     H217889   5.773   4.849   3.362
 4292WAT    EPW17890   5.703   4.878   3.381
 4293WAT      O17891   4.911   5.046   3.098
 4293WAT     H117892   4.864   5.010   3.034
 4293WAT     H217893   4.982   4.996   3.102
 4293WAT    EPW17894   4.914   5.033   3.090
 4294WAT      O17895   5.198   6.154   3.243
 4294WAT     H117896   5.218   6.223   3.293
 4294WAT     H217897   5.198   6.187   3.162
 4294WAT    EPW17898   5.201   6.169   3.238
 4295WAT      O17899   5.141   6.562   3.706
 4295WAT     H117900   5.067   6.530   3.675
 4295WAT     H217901   5.122   6.646   3.722
 4295WAT    EPW17902   5.127   6.569   3.704
 4296WAT      O17903   4.667   5.505   3.667
 4296WAT     H117904   4.635   5.440   3.619
 4296WAT     H217905   4.638   5.576   3.627
 4296WAT    EPW17906   4.658   5.506   3.654
 4297WAT      O17907   4.778   4.873   2.147
 4297WAT     H117908   4.795   4.878   2.062
 4297WAT     H217909   4.691   4.876   2.151
 4297WAT    EPW17910   4.768   4.874   2.135
 4298WAT      O17911   5.623   6.014   3.210
 4298WAT     H117912   5.603   5.931   3.191
 4298WAT     H217913   5.576   6.059   3.152
 4298WAT    EPW17914   5.613   6.008   3.198
 4299WAT      O17915   4.540   6.477   3.646
 4299WAT     H117916   4.516   6.493   3.729
 4299WAT     H217917   4.601   6.415   3.654
 4299WAT    EPW17918   4.545   6.471   3.659
 4300WAT      O17919   5.512   6.325   3.096
 4300WAT     H117920   5.590   6.313   3.058
 4300WAT     H217921   5.464   6.259   3.064
 4300WAT    EPW17922   5.517   6.313   3.086
 4301WAT      O17923   4.232   4.884   3.324
 4301WAT     H117924   4.277   4.810   3.326
 4301WAT     H217925   4.150   4.859   3.344
 4301WAT    EPW17926   4.226   4.869   3.327
 4302WAT      O17927   5.146   4.898   3.055
 4302WAT     H117928   5.209   4.954   3.079
 4302WAT     H217929   5.127   4.922   2.974
 4302WAT    EPW17930   5.153   4.910   3.047
 4303WAT      O17931   4.234   6.371   3.754
 4303WAT     H117932   4.296   6.412   3.800
 4303WAT     H217933   4.184   6.436   3.724
 4303WAT    EPW17934   4.236   6.386   3.756
 4304WAT      O17935   5.102   5.438   2.783
 4304WAT     H117936   5.151   5.369   2.802
 4304WAT     H217937   5.065   5.460   2.859
 4304WAT    EPW17938   5.103   5.431   2.797
 4305WAT      O17939   4.094   5.289   2.760
 4305WAT     H117940   4.037   5.312   2.822
 4305WAT     H217941   4.129   5.215   2.791
 4305WAT    EPW17942   4.090   5.282   2.774
 4306WAT      O17943   5.283   5.603   2.405
 4306WAT     H117944   5.302   5.521   2.427
 4306WAT     H217945   5.208   5.596   2.361
 4306WAT    EPW17946   5.275   5.590   2.402
 4307WAT      O17947   4.272   6.466   2.372
 4307WAT     H117948   4.242   6.457   2.291
 4307WAT     H217949   4.359   6.458   2.363
 4307WAT    EPW17950   4.281   6.463   2.359
 4308WAT      O17951   4.645   5.657   2.342
 4308WAT     H117952   4.664   5.689   2.263
 4308WAT     H217953   4.723   5.649   2.380
 4308WAT    EPW17954   4.659   5.661   2.336
 4309WAT      O17955   5.551   6.549   2.049
 4309WAT     H117956   5.623   6.540   2.098
 4309WAT     H217957   5.537   6.468   2.018
 4309WAT    EPW17958   5.559   6.535   2.052
 4310WAT      O17959   5.589   5.774   3.726
 4310WAT     H117960   5.657   5.744   3.770
 4310WAT     H217961   5.625   5.825   3.664
 4310WAT    EPW17962   5.604   5.777   3.723
 4311WAT      O17963   5.193   6.150   2.327
 4311WAT     H117964   5.145   6.143   2.400
 4311WAT     H217965   5.157   6.092   2.273
 4311WAT    EPW17966   5.181   6.140   2.330
 4312WAT      O17967   5.604   5.225   3.847
 4312WAT     H117968   5.605   5.303   3.886
 4312WAT     H217969   5.525   5.220   3.812
 4312WAT    EPW17970   5.593   5.236   3.848
 4313WAT      O17971   5.681   5.361   3.128
 4313WAT     H117972   5.598   5.379   3.110
 4313WAT     H217973   5.679   5.276   3.149
 4313WAT    EPW17974   5.668   5.351   3.129
 4314WAT      O17975   4.550   5.085   3.644
 4314WAT     H117976   4.597   5.034   3.590
 4314WAT     H217977   4.469   5.053   3.636
 4314WAT    EPW17978   4.545   5.073   3.634
 4315WAT      O17979   5.356   5.837   3.965
 4315WAT     H117980   5.431   5.864   4.002
 4315WAT     H217981   5.364   5.862   3.882
 4315WAT    EPW17982   5.368   5.845   3.958
 4316WAT      O17983   4.287   6.384   3.046
 4316WAT     H117984   4.298   6.307   3.006
 4316WAT     H217985   4.250   6.434   2.984
 4316WAT    EPW17986   4.283   6.380   3.031
 4317WAT      O17987   4.857   6.007   2.225
 4317WAT     H117988   4.936   5.977   2.202
 4317WAT     H217989   4.847   6.078   2.175
 4317WAT    EPW17990   4.868   6.013   2.214
 4318WAT      O17991   4.059   6.608   3.365
 4318WAT     H117992   4.063   6.594   3.451
 4318WAT     H217993   4.090   6.534   3.331
 4318WAT    EPW17994   4.064   6.595   3.373
 4319WAT      O17995   5.083   4.827   0.676
 4319WAT     H117996   5.105   4.861   0.599
 4319WAT     H217997   5.159   4.797   0.707
 4319WAT    EPW17998   5.097   4.828   0.669
 4320WAT      O17999   4.986   5.481   1.146
 4320WAT     H118000   4.951   5.556   1.173
 4320WAT     H218001   5.045   5.463   1.207
 4320WAT    EPW18002   4.989   5.489   1.159
 4321WAT      O18003   3.968   5.951   0.677
 4321WAT     H118004   3.960   5.955   0.764
 4321WAT     H218005   3.961   5.866   0.659
 4321WAT    EPW18006   3.966   5.939   0.687
 4322WAT      O18007   5.593   6.303   0.461
 4322WAT     H118008   5.658   6.247   0.478
 4322WAT     H218009   5.544   6.261   0.403
 4322WAT    EPW18010   5.596   6.288   0.455
 4323WAT      O18011   3.983   5.310   0.326
 4323WAT     H118012   3.926   5.366   0.290
 4323WAT     H218013   3.942   5.233   0.322
 4323WAT    EPW18014   3.969   5.307   0.320
 4324WAT      O18015   4.229   5.854   0.258
 4324WAT     H118016   4.217   5.812   0.182
 4324WAT     H218017   4.235   5.790   0.316
 4324WAT    EPW18018   4.228   5.839   0.255
 4325WAT      O18019   5.240   5.662   0.802
 4325WAT     H118020   5.255   5.646   0.717
 4325WAT     H218021   5.186   5.598   0.825
 4325WAT    EPW18022   5.234   5.650   0.793
 4326WAT      O18023   4.218   6.060   0.627
 4326WAT     H118024   4.272   6.026   0.687
 4326WAT     H218025   4.142   6.020   0.642
 4326WAT    EPW18026   4.215   6.049   0.638
 4327WAT      O18027   4.706   4.964   0.615
 4327WAT     H118028   4.702   5.046   0.583
 4327WAT     H218029   4.746   4.920   0.552
 4327WAT    EPW18030   4.711   4.970   0.601
 4328WAT      O18031   4.127   6.363   0.282
 4328WAT     H118032   4.157   6.372   0.201
 4328WAT     H218033   4.153   6.283   0.305
 4328WAT    EPW18034   4.135   6.352   0.274
 4329WAT      O18035   3.972   6.177   1.339
 4329WAT     H118036   4.007   6.152   1.415
 4329WAT     H218037   3.902   6.124   1.330
 4329WAT    EPW18038   3.967   6.165   1.349
 4330WAT      O18039   4.637   6.004   1.789
 4330WAT     H118040   4.615   5.988   1.872
 4330WAT     H218041   4.565   5.984   1.744
 4330WAT    EPW18042   4.623   5.998   1.795
 4331WAT      O18043   4.165   5.704   0.809
 4331WAT     H118044   4.114   5.701   0.738
 4331WAT     H218045   4.218   5.636   0.799
 4331WAT    EPW18046   4.165   5.694   0.797
 4332WAT      O18047   4.593   5.262   1.358
 4332WAT     H118048   4.662   5.261   1.305
 4332WAT     H218049   4.569   5.178   1.362
 4332WAT    EPW18050   4.600   5.249   1.351
 4333WAT      O18051   4.634   6.283   1.527
 4333WAT     H118052   4.648   6.344   1.466
 4333WAT     H218053   4.714   6.257   1.550
 4333WAT    EPW18054   4.648   6.288   1.521
 4334WAT      O18055   4.320   5.480   0.791
 4334WAT     H118056   4.387   5.430   0.818
 4334WAT     H218057   4.252   5.427   0.795
 4334WAT    EPW18058   4.320   5.465   0.796
 4335WAT      O18059   4.741   6.113   0.944
 4335WAT     H118060   4.762   6.032   0.966
 4335WAT     H218061   4.818   6.154   0.936
 4335WAT    EPW18062   4.755   6.107   0.946
 4336WAT      O18063   4.771   6.038   0.586
 4336WAT     H118064   4.811   5.980   0.637
 4336WAT     H218065   4.804   6.021   0.506
 4336WAT    EPW18066   4.782   6.027   0.581
 4337WAT      O18067   4.925   5.520   1.766
 4337WAT     H118068   4.839   5.517   1.750
 4337WAT     H218069   4.931   5.569   1.838
 4337WAT    EPW18070   4.913   5.526   1.774
 4338WAT      O18071   4.428   4.986   0.690
 4338WAT     H118072   4.387   5.032   0.628
 4338WAT     H218073   4.509   4.979   0.659
 4338WAT    EPW18074   4.434   4.992   0.676
 4339WAT      O18075   5.427   4.762   1.633
 4339WAT     H118076   5.399   4.829   1.584
 4339WAT     H218077   5.355   4.735   1.674
 4339WAT    EPW18078   5.413   4.768   1.631
 4340WAT      O18079   4.774   4.951   0.881
 4340WAT     H118080   4.757   5.034   0.902
 4340WAT     H218081   4.752   4.947   0.797
 4340WAT    EPW18082   4.768   4.963   0.872
 4341WAT      O18083   3.979   5.433   1.060
 4341WAT     H118084   3.977   5.519   1.070
 4341WAT     H218085   3.911   5.405   1.107
 4341WAT    EPW18086   3.969   5.441   1.069
 4342WAT      O18087   3.968   6.408   0.876
 4342WAT     H118088   3.906   6.455   0.837
 4342WAT     H218089   4.011   6.371   0.809
 4342WAT    EPW18090   3.965   6.409   0.860
 4343WAT      O18091   4.590   6.252   0.584
 4343WAT     H118092   4.544   6.236   0.656
 4343WAT     H218093   4.653   6.192   0.587
 4343WAT    EPW18094   4.592   6.240   0.595
 4344WAT      O18095   5.164   6.392   0.390
 4344WAT     H118096   5.226   6.452   0.375
 4344WAT     H218097   5.208   6.325   0.425
 4344WAT    EPW18098   5.180   6.391   0.393
 4345WAT      O18099   4.959   6.462   0.559
 4345WAT     H118100   4.992   6.532   0.600
 4345WAT     H218101   5.019   6.442   0.500
 4345WAT    EPW18102   4.973   6.470   0.556
 4346WAT      O18103   4.247   4.926   1.100
 4346WAT     H118104   4.220   4.854   1.061
 4346WAT     H218105   4.311   4.898   1.153
 4346WAT    EPW18106   4.252   4.912   1.102
 4347WAT      O18107   4.599   5.145   2.028
 4347WAT     H118108   4.588   5.118   1.946
 4347WAT     H218109   4.642   5.221   2.019
 4347WAT    EPW18110   4.604   5.152   2.014
 4348WAT      O18111   4.107   6.313   0.653
 4348WAT     H118112   4.156   6.241   0.661
 4348WAT     H218113   4.158   6.368   0.609
 4348WAT    EPW18114   4.122   6.310   0.647
 4349WAT      O18115   5.711   5.120   0.804
 4349WAT     H118116   5.661   5.190   0.815
 4349WAT     H218117   5.653   5.056   0.790
 4349WAT    EPW18118   5.695   5.121   0.804
 4350WAT      O18119   5.217   6.436   1.358
 4350WAT     H118120   5.286   6.489   1.350
 4350WAT     H218121   5.205   6.407   1.277
 4350WAT    EPW18122   5.226   6.440   1.345
 4351WAT      O18123   4.186   5.040   1.936
 4351WAT     H118124   4.107   5.008   1.919
 4351WAT     H218125   4.235   5.008   1.872
 4351WAT    EPW18126   4.182   5.031   1.924
 4352WAT      O18127   4.246   6.138   1.005
 4352WAT     H118128   4.303   6.124   0.940
 4352WAT     H218129   4.273   6.084   1.068
 4352WAT    EPW18130   4.259   6.128   1.005
 4353WAT      O18131   4.554   6.444   0.925
 4353WAT     H118132   4.632   6.460   0.889
 4353WAT     H218133   4.498   6.489   0.874
 4353WAT    EPW18134   4.557   6.453   0.912
 4354WAT      O18135   4.850   4.859   1.880
 4354WAT     H118136   4.870   4.776   1.859
 4354WAT     H218137   4.804   4.887   1.811
 4354WAT    EPW18138   4.846   4.851   1.866
 4355WAT      O18139   4.876   5.404   0.721
 4355WAT     H118140   4.904   5.356   0.654
 4355WAT     H218141   4.948   5.415   0.770
 4355WAT    EPW18142   4.891   5.399   0.719
 4356WAT      O18143   4.960   5.426   0.266
 4356WAT     H118144   4.993   5.502   0.295
 4356WAT     H218145   4.882   5.449   0.234
 4356WAT    EPW18146   4.953   5.441   0.266
 4357WAT      O18147   5.358   6.590   0.339
 4357WAT     H118148   5.402   6.550   0.275
 4357WAT     H218149   5.416   6.646   0.373
 4357WAT    EPW18150   5.373   6.592   0.335
 4358WAT      O18151   4.405   6.527   1.496
 4358WAT     H118152   4.441   6.509   1.573
 4358WAT     H218153   4.344   6.466   1.487
 4358WAT    EPW18154   4.401   6.515   1.506
 4359WAT      O18155   5.634   5.063   1.245
 4359WAT     H118156   5.696   5.052   1.185
 4359WAT     H218157   5.652   5.001   1.304
 4359WAT    EPW18158   5.646   5.052   1.245
 4360WAT      O18159   3.866   5.148   1.657
 4360WAT     H118160   3.859   5.211   1.717
 4360WAT     H218161   3.927   5.178   1.602
 4360WAT    EPW18162   3.874   5.162   1.657
 4361WAT      O18163   5.109   6.232   1.751
 4361WAT     H118164   5.102   6.254   1.836
 4361WAT     H218165   5.195   6.227   1.738
 4361WAT    EPW18166   5.121   6.235   1.762
 4362WAT      O18167   4.951   6.273   0.244
 4362WAT     H118168   4.891   6.336   0.251
 4362WAT     H218169   5.024   6.311   0.270
 4362WAT    EPW18170   4.953   6.288   0.249
 4363WAT      O18171   5.138   4.908   0.417
 4363WAT     H118172   5.205   4.865   0.382
 4363WAT     H218173   5.171   4.986   0.436
 4363WAT    EPW18174   5.152   4.913   0.415
 4364WAT      O18175   3.997   5.079   0.580
 4364WAT     H118176   3.973   4.998   0.560
 4364WAT     H218177   3.949   5.098   0.651
 4364WAT    EPW18178   3.986   5.070   0.587
 4365WAT      O18179   4.171   6.386   1.374
 4365WAT     H118180   4.108   6.325   1.364
 4365WAT     H218181   4.214   6.384   1.298
 4365WAT    EPW18182   4.168   6.377   1.362
 4366WAT      O18183   4.945   5.265   0.489
 4366WAT     H118184   4.869   5.225   0.474
 4366WAT     H218185   4.957   5.314   0.418
 4366WAT    EPW18186   4.936   5.266   0.476
 4367WAT      O18187   4.974   6.489   1.473
 4367WAT     H118188   5.051   6.477   1.432
 4367WAT     H218189   4.916   6.483   1.408
 4367WAT    EPW18190   4.977   6.486   1.457
 4368WAT      O18191   4.862   4.915   0.376
 4368WAT     H118192   4.842   4.992   0.340
 4368WAT     H218193   4.949   4.917   0.381
 4368WAT    EPW18194   4.872   4.927   0.371
 4369WAT      O18195   5.663   6.543   0.727
 4369WAT     H118196   5.622   6.618   0.741
 4369WAT     H218197   5.598   6.485   0.718
 4369WAT    EPW18198   5.647   6.546   0.727
 4370WAT      O18199   4.738   5.227   0.899
 4370WAT     H118200   4.778   5.285   0.848
 4370WAT     H218201   4.761   5.252   0.980
 4370WAT    EPW18202   4.747   5.239   0.904
 4371WAT      O18203   5.358   6.100   0.730
 4371WAT     H118204   5.426   6.049   0.752
 4371WAT     H218205   5.289   6.058   0.762
 4371WAT    EPW18206   5.358   6.086   0.738
 4372WAT      O18207   4.363   6.235   1.643
 4372WAT     H118208   4.441   6.266   1.619
 4372WAT     H218209   4.348   6.274   1.719
 4372WAT    EPW18210   4.372   6.245   1.651
 4373WAT      O18211   4.353   4.726   0.736
 4373WAT     H118212   4.374   4.809   0.722
 4373WAT     H218213   4.323   4.699   0.659
 4373WAT    EPW18214   4.352   4.734   0.723
 4374WAT      O18215   4.542   5.807   1.089
 4374WAT     H118216   4.564   5.789   1.172
 4374WAT     H218217   4.485   5.743   1.069
 4374WAT    EPW18218   4.536   5.795   1.098
 4375WAT      O18219   5.146   5.174   1.473
 4375WAT     H118220   5.139   5.215   1.550
 4375WAT     H218221   5.083   5.113   1.477
 4375WAT    EPW18222   5.136   5.171   1.485
 4376WAT      O18223   4.643   5.815   1.348
 4376WAT     H118224   4.621   5.899   1.355
 4376WAT     H218225   4.612   5.779   1.422
 4376WAT    EPW18226   4.635   5.822   1.360
 4377WAT      O18227   5.267   5.876   1.351
 4377WAT     H118228   5.192   5.849   1.385
 4377WAT     H218229   5.262   5.963   1.357
 4377WAT    EPW18230   5.255   5.885   1.357
 4378WAT      O18231   5.320   4.744   0.787
 4378WAT     H118232   5.319   4.729   0.873
 4378WAT     H218233   5.352   4.670   0.754
 4378WAT    EPW18234   5.325   4.731   0.795
 4379WAT      O18235   3.903   6.229   1.968
 4379WAT     H118236   3.962   6.275   2.014
 4379WAT     H218237   3.914   6.147   1.997
 4379WAT    EPW18238   3.914   6.224   1.979
 4380WAT      O18239   5.522   5.220   1.570
 4380WAT     H118240   5.604   5.200   1.590
 4380WAT     H218241   5.480   5.212   1.647
 4380WAT    EPW18242   5.528   5.216   1.585
 4381WAT      O18243   4.284   5.111   0.898
 4381WAT     H118244   4.324   5.063   0.837
 4381WAT     H218245   4.276   5.055   0.965
 4381WAT    EPW18246   4.289   5.095   0.899
 4382WAT      O18247   5.561   5.936   0.342
 4382WAT     H118248   5.557   5.885   0.413
 4382WAT     H218249   5.645   5.933   0.320
 4382WAT    EPW18250   5.573   5.928   0.350
 4383WAT      O18251   4.342   5.918   0.829
 4383WAT     H118252   4.413   5.893   0.783
 4383WAT     H218253   4.292   5.847   0.827
 4383WAT    EPW18254   4.345   5.904   0.822
 4384WAT      O18255   4.180   6.561   0.963
 4384WAT     H118256   4.106   6.522   0.937
 4384WAT     H218257   4.230   6.560   0.892
 4384WAT    EPW18258   4.177   6.555   0.949
 4385WAT      O18259   4.149   5.285   1.225
 4385WAT     H118260   4.231   5.309   1.210
 4385WAT     H218261   4.103   5.331   1.168
 4385WAT    EPW18262   4.154   5.295   1.215
 4386WAT      O18263   5.805   6.340   1.714
 4386WAT     H118264   5.728   6.348   1.674
 4386WAT     H218265   5.786   6.296   1.787
 4386WAT    EPW18266   5.791   6.335   1.719
 4387WAT      O18267   5.410   5.562   0.267
 4387WAT     H118268   5.339   5.568   0.216
 4387WAT     H218269   5.382   5.592   0.344
 4387WAT    EPW18270   5.395   5.567   0.271
 4388WAT      O18271   4.548   5.862   0.650
 4388WAT     H118272   4.605   5.922   0.622
 4388WAT     H218273   4.559   5.795   0.596
 4388WAT    EPW18274   4.558   5.861   0.638
 4389WAT      O18275   5.687   5.093   0.242
 4389WAT     H118276   5.706   5.016   0.205
 4389WAT     H218277   5.646   5.136   0.179
 4389WAT    EPW18278   5.684   5.088   0.228
 4390WAT      O18279   3.998   6.012   0.957
 4390WAT     H118280   3.944   6.073   0.989
 4390WAT     H218281   4.077   6.049   0.964
 4390WAT    EPW18282   4.002   6.026   0.963
 4391WAT      O18283   4.731   5.392   2.011
 4391WAT     H118284   4.682   5.417   2.078
 4391WAT     H218285   4.699   5.438   1.944
 4391WAT    EPW18286   4.719   5.402   2.011
 4392WAT      O18287   5.812   5.477   1.480
 4392WAT     H118288   5.858   5.406   1.461
 4392WAT     H218289   5.738   5.466   1.435
 4392WAT    EPW18290   5.808   5.465   1.470
 4393WAT      O18291   4.016   5.684   0.581
 4393WAT     H118292   3.995   5.599   0.588
 4393WAT     H218293   4.088   5.683   0.532
 4393WAT    EPW18294   4.024   5.671   0.575
 4394WAT      O18295   5.547   4.936   0.446
 4394WAT     H118296   5.623   4.899   0.465
 4394WAT     H218297   5.569   5.005   0.397
 4394WAT    EPW18298   5.561   4.940   0.441
 4395WAT      O18299   4.972   6.266   0.910
 4395WAT     H118300   4.928   6.339   0.893
 4395WAT     H218301   4.995   6.238   0.831
 4395WAT    EPW18302   4.969   6.273   0.896
 4396WAT      O18303   3.933   6.157   0.499
 4396WAT     H118304   3.986   6.214   0.539
 4396WAT     H218305   3.928   6.091   0.556
 4396WAT    EPW18306   3.940   6.156   0.513
 4397WAT      O18307   4.347   5.970   1.200
 4397WAT     H118308   4.399   6.012   1.256
 4397WAT     H218309   4.402   5.925   1.150
 4397WAT    EPW18310   4.363   5.970   1.201
 4398WAT      O18311   5.245   5.208   0.920
 4398WAT     H118312   5.281   5.174   0.993
 4398WAT     H218313   5.186   5.147   0.898
 4398WAT    EPW18314   5.242   5.194   0.928
 4399WAT      O18315   3.953   5.960   0.295
 4399WAT     H118316   4.035   5.929   0.288
 4399WAT     H218317   3.962   6.028   0.349
 4399WAT    EPW18318   3.967   5.966   0.302
 4400WAT      O18319   4.015   5.745   1.038
 4400WAT     H118320   4.067   5.721   0.972
 4400WAT     H218321   4.007   5.831   1.027
 4400WAT    EPW18322   4.021   5.754   1.027
 4401WAT      O18323   4.687   5.168   0.420
 4401WAT     H118324   4.634   5.103   0.394
 4401WAT     H218325   4.641   5.240   0.403
 4401WAT    EPW18326   4.673   5.169   0.413
 4402WAT      O18327   5.552   6.376   1.578
 4402WAT     H118328   5.505   6.447   1.598
 4402WAT     H218329   5.550   6.375   1.490
 4402WAT    EPW18330   5.545   6.386   1.568
 4403WAT      O18331   4.484   6.194   0.833
 4403WAT     H118332   4.498   6.274   0.867
 4403WAT     H218333   4.551   6.147   0.862
 4403WAT    EPW18334   4.496   6.199   0.842
 4404WAT      O18335   4.256   5.507   1.854
 4404WAT     H118336   4.217   5.444   1.899
 4404WAT     H218337   4.256   5.477   1.772
 4404WAT    EPW18338   4.250   5.493   1.849
 4405WAT      O18339   4.251   5.379   0.390
 4405WAT     H118340   4.260   5.316   0.449
 4405WAT     H218341   4.171   5.364   0.357
 4405WAT    EPW18342   4.240   5.368   0.394
 4406WAT      O18343   4.356   5.609   1.044
 4406WAT     H118344   4.347   5.575   0.964
 4406WAT     H218345   4.374   5.540   1.094
 4406WAT    EPW18346   4.358   5.594   1.039
 4407WAT      O18347   4.336   5.584   1.395
 4407WAT     H118348   4.361   5.530   1.332
 4407WAT     H218349   4.283   5.640   1.354
 4407WAT    EPW18350   4.332   5.584   1.380
 4408WAT      O18351   5.407   5.384   1.185
 4408WAT     H118352   5.338   5.408   1.232
 4408WAT     H218353   5.404   5.438   1.116
 4408WAT    EPW18354   5.396   5.396   1.181
 4409WAT      O18355   4.751   6.447   1.314
 4409WAT     H118356   4.725   6.386   1.258
 4409WAT     H218357   4.738   6.521   1.271
 4409WAT    EPW18358   4.745   6.449   1.299
 4410WAT      O18359   4.998   4.941   1.536
 4410WAT     H118360   5.006   4.858   1.513
 4410WAT     H218361   5.035   4.945   1.615
 4410WAT    EPW18362   5.004   4.930   1.545
 4411WAT      O18363   5.207   5.154   0.513
 4411WAT     H118364   5.265   5.219   0.526
 4411WAT     H218365   5.130   5.196   0.512
 4411WAT    EPW18366   5.204   5.170   0.515
 4412WAT      O18367   4.153   5.753   1.925
 4412WAT     H118368   4.145   5.801   1.852
 4412WAT     H218369   4.193   5.681   1.899
 4412WAT    EPW18370   4.158   5.750   1.910
 4413WAT      O18371   5.309   5.944   1.801
 4413WAT     H118372   5.337   6.023   1.779
 4413WAT     H218373   5.339   5.892   1.738
 4413WAT    EPW18374   5.317   5.948   1.789
 4414WAT      O18375   4.730   6.268   1.825
 4414WAT     H118376   4.761   6.260   1.906
 4414WAT     H218377   4.701   6.187   1.806
 4414WAT    EPW18378   4.731   6.255   1.834
 4415WAT      O18379   4.796   5.277   1.165
 4415WAT     H118380   4.857   5.340   1.167
 4415WAT     H218381   4.840   5.204   1.182
 4415WAT    EPW18382   4.812   5.276   1.167
 4416WAT      O18383   5.060   5.652   0.392
 4416WAT     H118384   5.079   5.735   0.370
 4416WAT     H218385   4.993   5.660   0.447
 4416WAT    EPW18386   5.053   5.666   0.397
 4417WAT      O18387   5.545   5.915   0.816
 4417WAT     H118388   5.569   5.860   0.879
 4417WAT     H218389   5.552   5.867   0.743
 4417WAT    EPW18390   5.550   5.900   0.814
 4418WAT      O18391   5.171   6.297   1.112
 4418WAT     H118392   5.106   6.282   1.055
 4418WAT     H218393   5.217   6.360   1.074
 4418WAT    EPW18394   5.168   6.304   1.098
 4419WAT      O18395   5.164   5.960   1.099
 4419WAT     H118396   5.090   5.995   1.131
 4419WAT     H218397   5.193   5.911   1.165
 4419WAT    EPW18398   5.157   5.958   1.114
 4420WAT      O18399   4.541   6.494   0.445
 4420WAT     H118400   4.554   6.426   0.498
 4420WAT     H218401   4.611   6.493   0.393
 4420WAT    EPW18402   4.553   6.484   0.445
 4421WAT      O18403   4.521   4.948   0.361
 4421WAT     H118404   4.514   4.865   0.388
 4421WAT     H218405   4.446   4.963   0.320
 4421WAT    EPW18406   4.509   4.938   0.359
 4422WAT      O18407   4.793   6.487   0.333
 4422WAT     H118408   4.832   6.472   0.410
 4422WAT     H218409   4.813   6.571   0.316
 4422WAT    EPW18410   4.801   6.497   0.342
 4423WAT      O18411   5.394   5.793   1.585
 4423WAT     H118412   5.360   5.826   1.512
 4423WAT     H218413   5.478   5.812   1.579
 4423WAT    EPW18414   5.401   5.801   1.573
 4424WAT      O18415   5.095   6.361   2.005
 4424WAT     H118416   5.120   6.383   2.086
 4424WAT     H218417   5.121   6.429   1.957
 4424WAT    EPW18418   5.103   6.374   2.010
 4425WAT      O18419   5.539   4.895   1.849
 4425WAT     H118420   5.506   4.851   1.781
 4425WAT     H218421   5.538   4.837   1.914
 4425WAT    EPW18422   5.534   4.880   1.848
 4426WAT      O18423   4.263   5.654   0.447
 4426WAT     H118424   4.260   5.568   0.432
 4426WAT     H218425   4.339   5.664   0.489
 4426WAT    EPW18426   4.274   5.643   0.451
 4427WAT      O18427   5.032   5.790   1.469
 4427WAT     H118428   4.983   5.829   1.530
 4427WAT     H218429   5.066   5.721   1.511
 4427WAT    EPW18430   5.030   5.786   1.484
 4428WAT      O18431   3.899   4.818   0.515
 4428WAT     H118432   3.904   4.759   0.451
 4428WAT     H218433   3.876   4.770   0.585
 4428WAT    EPW18434   3.896   4.802   0.516
 4429WAT      O18435   4.847   5.643   0.571
 4429WAT     H118436   4.862   5.707   0.629
 4429WAT     H218437   4.849   5.571   0.620
 4429WAT    EPW18438   4.850   5.642   0.587
 4430WAT      O18439   5.432   6.068   1.105
 4430WAT     H118440   5.467   6.051   1.027
 4430WAT     H218441   5.348   6.048   1.094
 4430WAT    EPW18442   5.425   6.062   1.092
 4431WAT      O18443   4.289   5.068   0.247
 4431WAT     H118444   4.226   5.046   0.192
 4431WAT     H218445   4.318   5.144   0.215
 4431WAT    EPW18446   4.284   5.076   0.234
 4432WAT      O18447   4.799   5.845   0.997
 4432WAT     H118448   4.715   5.826   1.014
 4432WAT     H218449   4.841   5.814   1.067
 4432WAT    EPW18450   4.793   5.837   1.010
 4433WAT      O18451   4.167   5.772   1.274
 4433WAT     H118452   4.220   5.839   1.255
 4433WAT     H218453   4.127   5.755   1.198
 4433WAT    EPW18454   4.169   5.779   1.260
 4434WAT      O18455   4.476   5.305   0.939
 4434WAT     H118456   4.556   5.275   0.921
 4434WAT     H218457   4.425   5.235   0.926
 4434WAT    EPW18458   4.480   5.290   0.934
 4435WAT      O18459   5.753   6.473   0.315
 4435WAT     H118460   5.829   6.432   0.303
 4435WAT     H218461   5.709   6.419   0.368
 4435WAT    EPW18462   5.758   6.459   0.321
 4436WAT      O18463   3.972   5.407   0.600
 4436WAT     H118464   4.007   5.369   0.670
 4436WAT     H218465   3.987   5.350   0.535
 4436WAT    EPW18466   3.980   5.393   0.601
 4437WAT      O18467   5.517   5.736   1.289
 4437WAT     H118468   5.518   5.665   1.339
 4437WAT     H218469   5.436   5.766   1.298
 4437WAT    EPW18470   5.505   5.730   1.298
 4438WAT      O18471   4.132   5.895   1.688
 4438WAT     H118472   4.093   5.846   1.628
 4438WAT     H218473   4.109   5.976   1.667
 4438WAT    EPW18474   4.123   5.900   1.676
 4439WAT      O18475   5.618   5.741   1.026
 4439WAT     H118476   5.591   5.743   1.109
 4439WAT     H218477   5.705   5.734   1.033
 4439WAT    EPW18478   5.627   5.740   1.039
 4440WAT      O18479   4.535   5.397   0.365
 4440WAT     H118480   4.554   5.476   0.397
 4440WAT     H218481   4.448   5.394   0.365
 4440WAT    EPW18482   4.525   5.408   0.370
 4441WAT      O18483   5.420   5.154   1.828
 4441WAT     H118484   5.346   5.159   1.873
 4441WAT     H218485   5.444   5.070   1.836
 4441WAT    EPW18486   5.413   5.142   1.836
 4442WAT      O18487   3.928   5.051   1.060
 4442WAT     H118488   3.911   5.071   0.976
 4442WAT     H218489   4.014   5.038   1.061
 4442WAT    EPW18490   3.938   5.052   1.047
 4443WAT      O18491   5.754   6.231   1.075
 4443WAT     H118492   5.790   6.288   1.019
 4443WAT     H218493   5.808   6.234   1.144
 4443WAT    EPW18494   5.767   6.240   1.077
 4444WAT      O18495   5.248   5.501   1.911
 4444WAT     H118496   5.285   5.509   1.990
 4444WAT     H218497   5.174   5.546   1.920
 4444WAT    EPW18498   5.242   5.508   1.924
 4445WAT      O18499   5.479   5.541   1.753
 4445WAT     H118500   5.499   5.622   1.777
 4445WAT     H218501   5.407   5.523   1.799
 4445WAT    EPW18502   5.471   5.550   1.763
 4446WAT      O18503   5.432   6.173   0.282
 4446WAT     H118504   5.473   6.097   0.288
 4446WAT     H218505   5.360   6.161   0.330
 4446WAT    EPW18506   5.427   6.160   0.290
 4447WAT      O18507   5.490   5.304   0.823
 4447WAT     H118508   5.420   5.261   0.852
 4447WAT     H218509   5.486   5.380   0.865
 4447WAT    EPW18510   5.479   5.308   0.833
 4448WAT      O18511   5.792   5.627   1.947
 4448WAT     H118512   5.794   5.569   1.881
 4448WAT     H218513   5.870   5.665   1.943
 4448WAT    EPW18514   5.803   5.624   1.937
 4449WAT      O18515   5.659   5.885   1.579
 4449WAT     H118516   5.728   5.839   1.551
 4449WAT     H218517   5.648   5.945   1.517
 4449WAT    EPW18518   5.667   5.887   1.566
 4450WAT      O18519   5.157   5.908   0.322
 4450WAT     H118520   5.186   5.968   0.378
 4450WAT     H218521   5.212   5.916   0.254
 4450WAT    EPW18522   5.169   5.918   0.320
 4451WAT      O18523   4.563   6.085   1.341
 4451WAT     H118524   4.575   6.137   1.410
 4451WAT     H218525   4.582   6.136   1.273
 4451WAT    EPW18526   4.568   6.100   1.341
 4452WAT      O18527   4.400   5.955   1.646
 4452WAT     H118528   4.319   5.928   1.663
 4452WAT     H218529   4.391   6.041   1.634
 4452WAT    EPW18530   4.387   5.964   1.647
 4453WAT      O18531   5.369   4.998   1.483
 4453WAT     H118532   5.427   5.061   1.496
 4453WAT     H218533   5.294   5.042   1.474
 4453WAT    EPW18534   5.366   5.014   1.483
 4454WAT      O18535   4.885   5.726   1.243
 4454WAT     H118536   4.938   5.744   1.309
 4454WAT     H218537   4.806   5.741   1.276
 4454WAT    EPW18538   4.881   5.731   1.257
 4455WAT      O18539   4.519   5.314   1.620
 4455WAT     H118540   4.532   5.238   1.662
 4455WAT     H218541   4.551   5.299   1.540
 4455WAT    EPW18542   4.526   5.300   1.615
 4456WAT      O18543   4.816   6.489   0.826
 4456WAT     H118544   4.829   6.572   0.850
 4456WAT     H218545   4.833   6.489   0.741
 4456WAT    EPW18546   4.820   6.501   0.817
 4457WAT      O18547   5.434   4.788   1.303
 4457WAT     H118548   5.406   4.861   1.342
 4457WAT     H218549   5.519   4.786   1.323
 4457WAT    EPW18550   5.443   4.799   1.312
 4458WAT      O18551   4.738   4.923   1.635
 4458WAT     H118552   4.810   4.934   1.586
 4458WAT     H218553   4.696   4.858   1.596
 4458WAT    EPW18554   4.742   4.915   1.622
 4459WAT      O18555   4.628   6.268   1.141
 4459WAT     H118556   4.584   6.325   1.092
 4459WAT     H218557   4.669   6.218   1.083
 4459WAT    EPW18558   4.627   6.269   1.125
 4460WAT      O18559   5.042   5.915   1.869
 4460WAT     H118560   5.123   5.927   1.839
 4460WAT     H218561   4.992   5.934   1.800
 4460WAT    EPW18562   5.046   5.920   1.854
 4461WAT      O18563   5.389   6.207   1.736
 4461WAT     H118564   5.425   6.233   1.812
 4461WAT     H218565   5.436   6.248   1.676
 4461WAT    EPW18566   5.401   6.217   1.739
 4462WAT      O18567   5.678   5.499   0.230
 4462WAT     H118568   5.708   5.563   0.179
 4462WAT     H218569   5.591   5.510   0.228
 4462WAT    EPW18570   5.670   5.510   0.222
 4463WAT      O18571   4.411   5.383   1.195
 4463WAT     H118572   4.437   5.353   1.117
 4463WAT     H218573   4.467   5.346   1.250
 4463WAT    EPW18574   4.423   5.373   1.191
 4464WAT      O18575   5.130   5.346   1.698
 4464WAT     H118576   5.055   5.386   1.715
 4464WAT     H218577   5.176   5.355   1.772
 4464WAT    EPW18578   5.126   5.353   1.711
 4465WAT      O18579   5.177   5.416   1.335
 4465WAT     H118580   5.186   5.470   1.403
 4465WAT     H218581   5.165   5.338   1.371
 4465WAT    EPW18582   5.177   5.413   1.350
 4466WAT      O18583   4.881   6.490   1.735
 4466WAT     H118584   4.904   6.478   1.651
 4466WAT     H218585   4.845   6.413   1.757
 4466WAT    EPW18586   4.879   6.477   1.726
 4467WAT      O18587   5.392   5.361   0.570
 4467WAT     H118588   5.417   5.338   0.651
 4467WAT     H218589   5.465   5.394   0.535
 4467WAT    EPW18590   5.407   5.363   0.577
 4468WAT      O18591   4.711   4.839   1.141
 4468WAT     H118592   4.628   4.818   1.159
 4468WAT     H218593   4.709   4.859   1.057
 4468WAT    EPW18594   4.698   4.839   1.131
 4469WAT      O18595   5.520   4.930   0.728
 4469WAT     H118596   5.447   4.888   0.750
 4469WAT     H218597   5.510   4.945   0.643
 4469WAT    EPW18598   5.508   4.926   0.718
 4470WAT      O18599   5.534   5.767   0.571
 4470WAT     H118600   5.582   5.696   0.557
 4470WAT     H218601   5.452   5.738   0.563
 4470WAT    EPW18602   5.529   5.753   0.568
 4471WAT      O18603   4.877   5.953   1.645
 4471WAT     H118604   4.800   5.956   1.686
 4471WAT     H218605   4.886   6.034   1.613
 4471WAT    EPW18606   4.867   5.966   1.646
 4472WAT      O18607   3.935   4.940   1.838
 4472WAT     H118608   3.916   5.004   1.782
 4472WAT     H218609   3.858   4.906   1.858
 4472WAT    EPW18610   3.921   4.944   1.833
 4473WAT      O18611   4.448   6.605   1.226
 4473WAT     H118612   4.439   6.591   1.312
 4473WAT     H218613   4.418   6.532   1.190
 4473WAT    EPW18614   4.443   6.592   1.233
 4474WAT      O18615   4.262   5.133   0.520
 4474WAT     H118616   4.265   5.102   0.439
 4474WAT     H218617   4.181   5.116   0.546
 4474WAT    EPW18618   4.251   5.126   0.512
 4475WAT      O18619   5.160   5.927   0.825
 4475WAT     H118620   5.156   5.940   0.911
 4475WAT     H218621   5.192   5.846   0.819
 4475WAT    EPW18622   5.164   5.917   0.837
 4476WAT      O18623   4.905   5.855   0.742
 4476WAT     H118624   4.867   5.845   0.820
 4476WAT     H218625   4.986   5.881   0.762
 4476WAT    EPW18626   4.911   5.857   0.756
 4477WAT      O18627   4.914   6.220   1.558
 4477WAT     H118628   4.973   6.222   1.622
 4477WAT     H218629   4.937   6.286   1.506
 4477WAT    EPW18630   4.926   6.230   1.560
 4478WAT      O18631   5.743   5.442   1.745
 4478WAT     H118632   5.657   5.458   1.747
 4478WAT     H218633   5.765   5.460   1.662
 4478WAT    EPW18634   5.734   5.447   1.733
 4479WAT      O18635   5.196   5.582   1.557
 4479WAT     H118636   5.184   5.517   1.614
 4479WAT     H218637   5.269   5.620   1.585
 4479WAT    EPW18638   5.205   5.578   1.570
 4480WAT      O18639   4.083   6.569   1.752
 4480WAT     H118640   4.029   6.502   1.739
 4480WAT     H218641   4.031   6.633   1.781
 4480WAT    EPW18642   4.067   6.568   1.754
 4481WAT      O18643   4.960   5.680   1.994
 4481WAT     H118644   4.986   5.754   1.956
 4481WAT     H218645   4.878   5.697   2.016
 4481WAT    EPW18646   4.952   5.694   1.991
 4482WAT      O18647   5.318   6.524   1.053
 4482WAT     H118648   5.282   6.591   1.097
 4482WAT     H218649   5.387   6.502   1.101
 4482WAT    EPW18650   5.323   6.531   1.066
 4483WAT      O18651   4.949   6.059   1.250
 4483WAT     H118652   4.892   6.010   1.295
 4483WAT     H218653   5.001   6.092   1.311
 4483WAT    EPW18654   4.948   6.056   1.265
 4484WAT      O18655   5.517   6.286   1.970
 4484WAT     H118656   5.600   6.258   1.969
 4484WAT     H218657   5.483   6.245   2.039
 4484WAT    EPW18658   5.524   6.276   1.980
 4485WAT      O18659   4.260   5.404   1.594
 4485WAT     H118660   4.273   5.467   1.534
 4485WAT     H218661   4.339   5.368   1.603
 4485WAT    EPW18662   4.274   5.408   1.587
 4486WAT      O18663   4.060   5.250   1.479
 4486WAT     H118664   4.083   5.256   1.395
 4486WAT     H218665   4.123   5.295   1.520
 4486WAT    EPW18666   4.072   5.258   1.472
 4487WAT      O18667   5.622   5.507   0.506
 4487WAT     H118668   5.646   5.509   0.422
 4487WAT     H218669   5.691   5.469   0.545
 4487WAT    EPW18670   5.636   5.501   0.499
 4488WAT      O18671   4.325   4.934   1.719
 4488WAT     H118672   4.360   4.858   1.694
 4488WAT     H218673   4.285   4.963   1.647
 4488WAT    EPW18674   4.325   4.927   1.705
 4489WAT      O18675   4.998   6.198   0.636
 4489WAT     H118676   4.978   6.279   0.614
 4489WAT     H218677   4.925   6.153   0.620
 4489WAT    EPW18678   4.984   6.203   0.630
 4490WAT      O18679   5.517   5.504   1.472
 4490WAT     H118680   5.507   5.418   1.471
 4490WAT     H218681   5.500   5.526   1.555
 4490WAT    EPW18682   5.513   5.495   1.484
 4491WAT      O18683   3.997   5.754   1.492
 4491WAT     H118684   4.047   5.766   1.421
 4491WAT     H218685   3.974   5.670   1.487
 4491WAT    EPW18686   4.001   5.743   1.481
 4492WAT      O18687   5.091   4.962   1.800
 4492WAT     H118688   5.119   5.030   1.846
 4492WAT     H218689   5.014   4.942   1.836
 4492WAT    EPW18690   5.084   4.969   1.812
 4493WAT      O18691   5.053   5.008   0.882
 4493WAT     H118692   4.966   5.003   0.893
 4493WAT     H218693   5.067   4.957   0.812
 4493WAT    EPW18694   5.042   5.000   0.873
 4494WAT      O18695   4.517   6.136   0.337
 4494WAT     H118696   4.542   6.176   0.410
 4494WAT     H218697   4.430   6.142   0.339
 4494WAT    EPW18698   4.507   6.143   0.348
 4495WAT      O18699   5.368   5.111   1.153
 4495WAT     H118700   5.446   5.077   1.174
 4495WAT     H218701   5.376   5.195   1.175
 4495WAT    EPW18702   5.381   5.118   1.159
 4496WAT      O18703   4.519   5.709   1.573
 4496WAT     H118704   4.479   5.782   1.596
 4496WAT     H218705   4.460   5.668   1.523
 4496WAT    EPW18706   4.504   5.713   1.569
 4497WAT      O18707   5.438   5.543   0.956
 4497WAT     H118708   5.499   5.604   0.973
 4497WAT     H218709   5.378   5.587   0.910
 4497WAT    EPW18710   5.438   5.559   0.952
 4498WAT      O18711   5.443   6.367   0.681
 4498WAT     H118712   5.416   6.289   0.710
 4498WAT     H218713   5.485   6.348   0.607
 4498WAT    EPW18714   5.445   6.353   0.674
 4499WAT      O18715   4.240   6.118   0.357
 4499WAT     H118716   4.237   6.101   0.442
 4499WAT     H218717   4.237   6.039   0.320
 4499WAT    EPW18718   4.239   6.104   0.364
 4500WAT      O18719   4.523   5.860   0.284
 4500WAT     H118720   4.438   5.862   0.266
 4500WAT     H218721   4.543   5.944   0.296
 4500WAT    EPW18722   4.514   5.873   0.283
 4501WAT      O18723   4.477   5.015   1.405
 4501WAT     H118724   4.390   5.016   1.418
 4501WAT     H218725   4.499   4.933   1.424
 4501WAT    EPW18726   4.467   5.003   1.410
 4502WAT      O18727   5.684   4.850   1.426
 4502WAT     H118728   5.656   4.840   1.509
 4502WAT     H218729   5.768   4.827   1.430
 4502WAT    EPW18730   5.692   4.845   1.439
 4503WAT      O18731   4.907   5.031   1.208
 4503WAT     H118732   4.848   4.967   1.199
 4503WAT     H218733   4.983   4.990   1.201
 4503WAT    EPW18734   4.909   5.015   1.205
 4504WAT      O18735   5.204   6.149   1.352
 4504WAT     H118736   5.223   6.220   1.398
 4504WAT     H218737   5.200   6.177   1.269
 4504WAT    EPW18738   5.206   6.164   1.346
 4505WAT      O18739   5.150   6.554   1.808
 4505WAT     H118740   5.078   6.518   1.775
 4505WAT     H218741   5.128   6.637   1.822
 4505WAT    EPW18742   5.136   6.561   1.805
 4506WAT      O18743   4.645   5.520   1.754
 4506WAT     H118744   4.609   5.452   1.714
 4506WAT     H218745   4.614   5.589   1.710
 4506WAT    EPW18746   4.635   5.520   1.742
 4507WAT      O18747   5.622   6.001   1.319
 4507WAT     H118748   5.606   5.916   1.308
 4507WAT     H218749   5.569   6.040   1.261
 4507WAT    EPW18750   5.612   5.994   1.308
 4508WAT      O18751   4.547   6.479   1.744
 4508WAT     H118752   4.530   6.486   1.829
 4508WAT     H218753   4.604   6.412   1.740
 4508WAT    EPW18754   4.553   6.470   1.756
 4509WAT      O18755   5.508   6.331   1.176
 4509WAT     H118756   5.588   6.316   1.145
 4509WAT     H218757   5.465   6.258   1.159
 4509WAT    EPW18758   5.514   6.318   1.169
 4510WAT      O18759   4.207   5.009   1.482
 4510WAT     H118760   4.157   4.941   1.461
 4510WAT     H218761   4.154   5.077   1.471
 4510WAT    EPW18762   4.192   5.009   1.477
 4511WAT      O18763   5.155   4.925   1.127
 4511WAT     H118764   5.219   4.982   1.146
 4511WAT     H218765   5.126   4.952   1.049
 4511WAT    EPW18766   5.160   4.937   1.119
 4512WAT      O18767   4.248   6.372   1.882
 4512WAT     H118768   4.319   6.406   1.919
 4512WAT     H218769   4.209   6.440   1.845
 4512WAT    EPW18770   4.253   6.387   1.882
 4513WAT      O18771   5.093   5.442   0.891
 4513WAT     H118772   5.143   5.372   0.902
 4513WAT     H218773   5.060   5.457   0.970
 4513WAT    EPW18774   5.096   5.434   0.904
 4514WAT      O18775   4.101   5.317   0.831
 4514WAT     H118776   4.059   5.341   0.903
 4514WAT     H218777   4.144   5.245   0.855
 4514WAT    EPW18778   4.101   5.310   0.845
 4515WAT      O18779   4.091   6.154   1.592
 4515WAT     H118780   4.041   6.215   1.630
 4515WAT     H218781   4.170   6.189   1.593
 4515WAT    EPW18782   4.095   6.168   1.598
 4516WAT      O18783   5.295   5.617   0.531
 4516WAT     H118784   5.312   5.532   0.542
 4516WAT     H218785   5.218   5.617   0.492
 4516WAT    EPW18786   5.286   5.604   0.527
 4517WAT      O18787   4.269   6.479   0.497
 4517WAT     H118788   4.224   6.457   0.425
 4517WAT     H218789   4.352   6.482   0.469
 4517WAT    EPW18790   4.274   6.476   0.482
 4518WAT      O18791   4.586   5.657   0.463
 4518WAT     H118792   4.584   5.717   0.399
 4518WAT     H218793   4.671   5.655   0.486
 4518WAT    EPW18794   4.599   5.666   0.457
 4519WAT      O18795   5.511   6.438   0.163
 4519WAT     H118796   5.591   6.448   0.194
 4519WAT     H218797   5.493   6.354   0.180
 4519WAT    EPW18798   5.520   6.427   0.170
 4520WAT      O18799   5.587   5.783   1.839
 4520WAT     H118800   5.657   5.748   1.877
 4520WAT     H218801   5.620   5.828   1.771
 4520WAT    EPW18802   5.602   5.785   1.834
 4521WAT      O18803   5.227   6.128   0.486
 4521WAT     H118804   5.281   6.115   0.553
 4521WAT     H218805   5.150   6.142   0.524
 4521WAT    EPW18806   5.224   6.128   0.502
 4522WAT      O18807   5.638   5.225   1.981
 4522WAT     H118808   5.628   5.308   2.008
 4522WAT     H218809   5.568   5.212   1.931
 4522WAT    EPW18810   5.626   5.235   1.978
 4523WAT      O18811   5.677   5.343   1.244
 4523WAT     H118812   5.594   5.365   1.229
 4523WAT     H218813   5.674   5.256   1.252
 4523WAT    EPW18814   5.664   5.334   1.243
 4524WAT      O18815   4.553   5.081   1.762
 4524WAT     H118816   4.615   5.037   1.718
 4524WAT     H218817   4.481   5.035   1.747
 4524WAT    EPW18818   4.552   5.068   1.753
 4525WAT      O18819   5.357   5.836   2.061
 4525WAT     H118820   5.431   5.865   2.097
 4525WAT     H218821   5.363   5.861   1.978
 4525WAT    EPW18822   5.369   5.844   2.054
 4526WAT      O18823   4.300   6.381   1.130
 4526WAT     H118824   4.289   6.304   1.091
 4526WAT     H218825   4.259   6.437   1.077
 4526WAT    EPW18826   4.293   6.378   1.116
 4527WAT      O18827   4.899   6.018   0.344
 4527WAT     H118828   4.975   5.979   0.325
 4527WAT     H218829   4.905   6.095   0.305
 4527WAT    EPW18830   4.911   6.023   0.336
 4528WAT      O18831   4.063   6.622   1.474
 4528WAT     H118832   4.074   6.604   1.559
 4528WAT     H218833   4.095   6.552   1.433
 4528WAT    EPW18834   4.069   6.609   1.481
 4529WAT      O18835   5.025   2.954   6.376
 4529WAT     H118836   5.017   3.001   6.303
 4529WAT     H218837   5.110   2.938   6.381
 4529WAT    EPW18838   5.036   2.959   6.366
 4530WAT      O18839   5.004   3.633   6.839
 4530WAT     H118840   4.967   3.709   6.861
 4530WAT     H218841   5.057   3.616   6.907
 4530WAT    EPW18842   5.007   3.642   6.853
 4531WAT      O18843   4.020   4.135   6.369
 4531WAT     H118844   3.979   4.142   6.445
 4531WAT     H218845   3.989   4.061   6.335
 4531WAT    EPW18846   4.010   4.125   6.375
 4532WAT      O18847   5.594   4.465   6.173
 4532WAT     H118848   5.657   4.408   6.190
 4532WAT     H218849   5.542   4.422   6.116
 4532WAT    EPW18850   5.595   4.450   6.167
 4533WAT      O18851   3.887   3.386   5.968
 4533WAT     H118852   3.854   3.466   5.959
 4533WAT     H218853   3.835   3.337   5.918
 4533WAT    EPW18854   3.874   3.391   5.960
 4534WAT      O18855   4.279   4.021   5.884
 4534WAT     H118856   4.223   3.986   5.827
 4534WAT     H218857   4.288   3.959   5.945
 4534WAT    EPW18858   4.272   4.007   5.885
 4535WAT      O18859   5.236   3.807   6.480
 4535WAT     H118860   5.243   3.793   6.394
 4535WAT     H218861   5.183   3.742   6.506
 4535WAT    EPW18862   5.229   3.795   6.471
 4536WAT      O18863   4.663   3.156   6.321
 4536WAT     H118864   4.680   3.189   6.241
 4536WAT     H218865   4.630   3.078   6.304
 4536WAT    EPW18866   4.661   3.150   6.307
 4537WAT      O18867   4.145   4.507   5.896
 4537WAT     H118868   4.158   4.535   5.815
 4537WAT     H218869   4.190   4.433   5.900
 4537WAT    EPW18870   4.153   4.500   5.885
 4538WAT      O18871   3.996   4.337   7.045
 4538WAT     H118872   4.029   4.314   7.123
 4538WAT     H218873   3.944   4.269   7.025
 4538WAT    EPW18874   3.993   4.323   7.054
 4539WAT      O18875   4.676   4.161   7.476
 4539WAT     H118876   4.690   4.115   7.549
 4539WAT     H218877   4.599   4.132   7.448
 4539WAT    EPW18878   4.667   4.150   7.483
 4540WAT      O18879   4.143   3.855   6.460
 4540WAT     H118880   4.104   3.863   6.383
 4540WAT     H218881   4.197   3.787   6.450
 4540WAT    EPW18882   4.145   3.846   6.447
 4541WAT      O18883   4.579   3.440   7.022
 4541WAT     H118884   4.654   3.444   6.979
 4541WAT     H218885   4.559   3.355   7.023
 4541WAT    EPW18886   4.587   3.428   7.016
 4542WAT      O18887   4.616   4.405   7.233
 4542WAT     H118888   4.596   4.480   7.192
 4542WAT     H218889   4.702   4.411   7.243
 4542WAT    EPW18890   4.626   4.417   7.229
 4543WAT      O18891   4.295   3.627   6.419
 4543WAT     H118892   4.362   3.605   6.470
 4543WAT     H218893   4.228   3.580   6.450
 4543WAT    EPW18894   4.295   3.617   6.431
 4544WAT      O18895   4.734   4.290   6.666
 4544WAT     H118896   4.759   4.208   6.680
 4544WAT     H218897   4.809   4.333   6.654
 4544WAT    EPW18898   4.749   4.284   6.666
 4545WAT      O18899   4.774   4.190   6.282
 4545WAT     H118900   4.818   4.132   6.329
 4545WAT     H218901   4.805   4.179   6.201
 4545WAT    EPW18902   4.785   4.180   6.277
 4546WAT      O18903   4.951   3.638   7.446
 4546WAT     H118904   4.868   3.643   7.421
 4546WAT     H218905   4.956   3.695   7.512
 4546WAT    EPW18906   4.940   3.647   7.452
 4547WAT      O18907   4.423   3.295   6.338
 4547WAT     H118908   4.445   3.370   6.376
 4547WAT     H218909   4.497   3.250   6.336
 4547WAT    EPW18910   4.437   3.300   6.343
 4548WAT      O18911   5.415   2.905   7.344
 4548WAT     H118912   5.402   2.976   7.295
 4548WAT     H218913   5.337   2.889   7.379
 4548WAT    EPW18914   5.402   2.913   7.342
 4549WAT      O18915   4.765   3.151   6.581
 4549WAT     H118916   4.746   3.235   6.594
 4549WAT     H218917   4.739   3.136   6.499
 4549WAT    EPW18918   4.759   3.161   6.571
 4550WAT      O18919   5.168   3.312   5.788
 4550WAT     H118920   5.118   3.376   5.820
 4550WAT     H218921   5.179   3.258   5.856
 4550WAT    EPW18922   5.162   3.314   5.803
 4551WAT      O18923   3.969   3.600   6.756
 4551WAT     H118924   3.956   3.686   6.757
 4551WAT     H218925   3.904   3.568   6.803
 4551WAT    EPW18926   3.958   3.608   6.763
 4552WAT      O18927   3.916   4.582   6.616
 4552WAT     H118928   3.867   4.635   6.567
 4552WAT     H218929   3.890   4.502   6.592
 4552WAT    EPW18930   3.905   4.578   6.605
 4553WAT      O18931   4.544   4.349   6.276
 4553WAT     H118932   4.521   4.350   6.360
 4553WAT     H218933   4.620   4.306   6.276
 4553WAT    EPW18934   4.552   4.343   6.288
 4554WAT      O18935   5.164   4.576   6.076
 4554WAT     H118936   5.236   4.625   6.081
 4554WAT     H218937   5.192   4.496   6.095
 4554WAT    EPW18938   5.178   4.571   6.080
 4555WAT      O18939   4.965   4.628   6.257
 4555WAT     H118940   4.991   4.701   6.297
 4555WAT     H218941   5.029   4.613   6.199
 4555WAT    EPW18942   4.979   4.636   6.254
 4556WAT      O18943   4.258   3.078   6.799
 4556WAT     H118944   4.219   3.013   6.756
 4556WAT     H218945   4.327   3.040   6.837
 4556WAT    EPW18946   4.263   3.063   6.799
 4557WAT      O18947   4.206   4.427   6.340
 4557WAT     H118948   4.212   4.468   6.417
 4557WAT     H218949   4.228   4.489   6.282
 4557WAT    EPW18950   4.210   4.442   6.342
 4558WAT      O18951   5.708   3.280   6.497
 4558WAT     H118952   5.655   3.349   6.504
 4558WAT     H218953   5.653   3.213   6.490
 4558WAT    EPW18954   5.692   3.281   6.497
 4559WAT      O18955   5.216   4.604   7.063
 4559WAT     H118956   5.285   4.657   7.053
 4559WAT     H218957   5.199   4.578   6.981
 4559WAT    EPW18958   5.224   4.608   7.049
 4560WAT      O18959   4.145   3.290   7.558
 4560WAT     H118960   4.079   3.232   7.558
 4560WAT     H218961   4.210   3.246   7.520
 4560WAT    EPW18962   4.145   3.275   7.552
 4561WAT      O18963   4.197   4.267   6.726
 4561WAT     H118964   4.232   4.221   6.660
 4561WAT     H218965   4.223   4.225   6.797
 4561WAT    EPW18966   4.206   4.254   6.727
 4562WAT      O18967   4.517   4.615   6.555
 4562WAT     H118968   4.599   4.631   6.531
 4562WAT     H218969   4.470   4.664   6.501
 4562WAT    EPW18970   4.522   4.625   6.544
 4563WAT      O18971   4.813   3.070   7.549
 4563WAT     H118972   4.821   2.989   7.518
 4563WAT     H218973   4.743   3.101   7.508
 4563WAT    EPW18974   4.804   3.062   7.538
 4564WAT      O18975   4.883   3.546   6.409
 4564WAT     H118976   4.906   3.496   6.342
 4564WAT     H218977   4.956   3.553   6.456
 4564WAT    EPW18978   4.897   3.540   6.406
 4565WAT      O18979   4.986   3.500   5.910
 4565WAT     H118980   4.999   3.581   5.939
 4565WAT     H218981   4.910   3.506   5.867
 4565WAT    EPW18982   4.977   3.513   5.908
 4566WAT      O18983   5.371   4.765   6.056
 4566WAT     H118984   5.417   4.729   5.991
 4566WAT     H218985   5.428   4.816   6.097
 4566WAT    EPW18986   5.386   4.767   6.053
 4567WAT      O18987   4.461   4.626   7.145
 4567WAT     H118988   4.466   4.650   7.229
 4567WAT     H218989   4.381   4.590   7.139
 4567WAT    EPW18990   4.450   4.625   7.157
 4568WAT      O18991   5.628   3.207   6.911
 4568WAT     H118992   5.692   3.197   6.853
 4568WAT     H218993   5.649   3.151   6.975
 4568WAT    EPW18994   5.640   3.197   6.912
 4569WAT      O18995   3.869   3.284   7.307
 4569WAT     H118996   3.860   3.353   7.361
 4569WAT     H218997   3.935   3.307   7.255
 4569WAT    EPW18998   3.877   3.298   7.307
 4570WAT      O18999   5.075   4.370   7.463
 4570WAT     H119000   5.069   4.296   7.510
 4570WAT     H219001   5.160   4.375   7.445
 4570WAT    EPW19002   5.087   4.360   7.467
 4571WAT      O19003   4.847   4.405   5.860
 4571WAT     H119004   4.811   4.460   5.917
 4571WAT     H219005   4.922   4.442   5.839
 4571WAT    EPW19006   4.852   4.418   5.865
 4572WAT      O19007   5.199   3.135   5.999
 4572WAT     H119008   5.254   3.068   6.008
 4572WAT     H219009   5.212   3.183   6.071
 4572WAT    EPW19010   5.209   3.132   6.011
 4573WAT      O19011   4.209   4.527   7.042
 4573WAT     H119012   4.146   4.467   7.039
 4573WAT     H219013   4.244   4.523   6.962
 4573WAT    EPW19014   4.205   4.518   7.030
 4574WAT      O19015   4.947   3.402   6.173
 4574WAT     H119016   4.880   3.347   6.160
 4574WAT     H219017   4.963   3.434   6.093
 4574WAT    EPW19018   4.940   3.398   6.159
 4575WAT      O19019   4.966   4.650   7.168
 4575WAT     H119020   5.046   4.640   7.133
 4575WAT     H219021   4.914   4.651   7.098
 4575WAT    EPW19022   4.970   4.649   7.152
 4576WAT      O19023   4.961   3.056   6.123
 4576WAT     H119024   4.899   3.036   6.065
 4576WAT     H219025   5.029   3.080   6.074
 4576WAT    EPW19026   4.962   3.057   6.107
 4577WAT      O19027   5.658   4.696   6.442
 4577WAT     H119028   5.618   4.773   6.455
 4577WAT     H219029   5.592   4.640   6.430
 4577WAT    EPW19030   5.642   4.699   6.442
 4578WAT      O19031   4.713   3.420   6.599
 4578WAT     H119032   4.766   3.462   6.543
 4578WAT     H219033   4.748   3.437   6.677
 4578WAT    EPW19034   4.726   3.429   6.602
 4579WAT      O19035   5.387   4.271   6.506
 4579WAT     H119036   5.450   4.211   6.496
 4579WAT     H219037   5.313   4.225   6.497
 4579WAT    EPW19038   5.386   4.255   6.503
 4580WAT      O19039   4.367   4.350   7.347
 4580WAT     H119040   4.444   4.376   7.316
 4580WAT     H219041   4.349   4.409   7.408
 4580WAT    EPW19042   4.376   4.363   7.352
 4581WAT      O19043   4.209   3.022   6.394
 4581WAT     H119044   4.288   2.992   6.370
 4581WAT     H219045   4.156   2.993   6.331
 4581WAT    EPW19046   4.213   3.013   6.381
 4582WAT      O19047   4.521   3.973   6.761
 4582WAT     H119048   4.556   3.959   6.840
 4582WAT     H219049   4.467   3.905   6.750
 4582WAT    EPW19050   4.518   3.961   6.771
 4583WAT      O19051   5.114   3.309   7.162
 4583WAT     H119052   5.101   3.338   7.243
 4583WAT     H219053   5.049   3.252   7.150
 4583WAT    EPW19054   5.102   3.305   7.172
 4584WAT      O19055   4.643   3.964   7.009
 4584WAT     H119056   4.624   4.048   7.023
 4584WAT     H219057   4.612   3.925   7.081
 4584WAT    EPW19058   4.635   3.971   7.022
 4585WAT      O19059   5.282   4.042   7.038
 4585WAT     H119060   5.208   4.010   7.070
 4585WAT     H219061   5.272   4.128   7.044
 4585WAT    EPW19062   5.270   4.050   7.044
 4586WAT      O19063   5.292   2.903   6.469
 4586WAT     H119064   5.294   2.891   6.556
 4586WAT     H219065   5.330   2.831   6.438
 4586WAT    EPW19066   5.298   2.890   6.478
 4587WAT      O19067   5.505   3.392   7.229
 4587WAT     H119068   5.587   3.362   7.230
 4587WAT     H219069   5.490   3.414   7.312
 4587WAT    EPW19070   5.515   3.391   7.241
 4588WAT      O19071   4.249   3.260   6.593
 4588WAT     H119072   4.255   3.205   6.525
 4588WAT     H219073   4.256   3.207   6.662
 4588WAT    EPW19074   4.251   3.244   6.593
 4589WAT      O19075   5.571   4.068   6.039
 4589WAT     H119076   5.573   4.018   6.111
 4589WAT     H219077   5.655   4.075   6.018
 4589WAT    EPW19078   5.584   4.061   6.047
 4590WAT      O19079   4.300   4.067   6.556
 4590WAT     H119080   4.379   4.038   6.579
 4590WAT     H219081   4.255   3.995   6.539
 4590WAT    EPW19082   4.305   4.052   6.557
 4591WAT      O19083   4.181   4.682   6.638
 4591WAT     H119084   4.098   4.659   6.625
 4591WAT     H219085   4.208   4.706   6.558
 4591WAT    EPW19086   4.173   4.682   6.624
 4592WAT      O19087   4.139   3.421   6.885
 4592WAT     H119088   4.220   3.452   6.873
 4592WAT     H219089   4.088   3.481   6.847
 4592WAT    EPW19090   4.144   3.435   6.878
 4593WAT      O19091   5.799   4.498   7.379
 4593WAT     H119092   5.732   4.506   7.323
 4593WAT     H219093   5.762   4.461   7.450
 4593WAT    EPW19094   5.784   4.494   7.381
 4594WAT      O19095   5.382   3.729   5.937
 4594WAT     H119096   5.381   3.811   5.909
 4594WAT     H219097   5.349   3.735   6.018
 4594WAT    EPW19098   5.377   3.742   5.945
 4595WAT      O19099   4.530   4.037   6.294
 4595WAT     H119100   4.605   4.082   6.293
 4595WAT     H219101   4.551   3.963   6.254
 4595WAT    EPW19102   4.544   4.033   6.288
 4596WAT      O19103   5.715   3.206   5.954
 4596WAT     H119104   5.755   3.139   5.915
 4596WAT     H219105   5.687   3.255   5.888
 4596WAT    EPW19106   5.717   3.203   5.939
 4597WAT      O19107   3.944   4.170   6.645
 4597WAT     H119108   3.873   4.205   6.680
 4597WAT     H219109   4.009   4.216   6.680
 4597WAT    EPW19110   3.943   4.182   6.655
 4598WAT      O19111   5.812   3.623   7.172
 4598WAT     H119112   5.834   3.549   7.131
 4598WAT     H219113   5.728   3.634   7.149
 4598WAT    EPW19114   5.803   3.614   7.162
 4599WAT      O19115   3.990   3.902   6.218
 4599WAT     H119116   3.927   3.841   6.216
 4599WAT     H219117   3.990   3.933   6.136
 4599WAT    EPW19118   3.980   3.898   6.205
 4600WAT      O19119   5.568   3.088   6.166
 4600WAT     H119120   5.642   3.049   6.191
 4600WAT     H219121   5.595   3.142   6.103
 4600WAT    EPW19122   5.583   3.091   6.160
 4601WAT      O19123   4.960   4.445   6.610
 4601WAT     H119124   4.913   4.514   6.585
 4601WAT     H219125   4.987   4.410   6.535
 4601WAT    EPW19126   4.957   4.450   6.596
 4602WAT      O19127   3.987   4.334   6.182
 4602WAT     H119128   4.042   4.386   6.225
 4602WAT     H219129   3.975   4.267   6.235
 4602WAT    EPW19130   3.993   4.332   6.196
 4603WAT      O19131   4.327   4.110   6.914
 4603WAT     H119132   4.379   4.151   6.970
 4603WAT     H219133   4.382   4.075   6.856
 4603WAT    EPW19134   4.343   4.111   6.914
 4604WAT      O19135   5.242   3.346   6.612
 4604WAT     H119136   5.276   3.314   6.686
 4604WAT     H219137   5.185   3.285   6.588
 4604WAT    EPW19138   5.238   3.332   6.619
 4605WAT      O19139   3.949   4.004   5.950
 4605WAT     H119140   3.984   3.956   5.885
 4605WAT     H219141   3.959   4.086   5.921
 4605WAT    EPW19142   3.956   4.009   5.936
 4606WAT      O19143   3.995   3.903   6.699
 4606WAT     H119144   4.039   3.876   6.629
 4606WAT     H219145   3.983   3.988   6.684
 4606WAT    EPW19146   4.000   3.912   6.686
 4607WAT      O19147   4.681   3.306   6.083
 4607WAT     H119148   4.662   3.276   6.003
 4607WAT     H219149   4.631   3.377   6.091
 4607WAT    EPW19150   4.671   3.312   6.072
 4608WAT      O19151   5.546   4.519   7.239
 4608WAT     H119152   5.512   4.599   7.243
 4608WAT     H219153   5.542   4.498   7.155
 4608WAT    EPW19154   5.540   4.527   7.227
 4609WAT      O19155   4.486   4.343   6.542
 4609WAT     H119156   4.487   4.429   6.556
 4609WAT     H219157   4.561   4.315   6.578
 4609WAT    EPW19158   4.497   4.351   6.550
 4610WAT      O19159   4.100   3.562   7.485
 4610WAT     H119160   4.115   3.485   7.523
 4610WAT     H219161   4.151   3.561   7.415
 4610WAT    EPW19162   4.109   3.550   7.481
 4611WAT      O19163   4.231   3.548   6.087
 4611WAT     H119164   4.230   3.466   6.117
 4611WAT     H219165   4.205   3.540   6.004
 4611WAT    EPW19166   4.227   3.534   6.079
 4612WAT      O19167   4.320   3.790   6.741
 4612WAT     H119168   4.257   3.815   6.796
 4612WAT     H219169   4.340   3.710   6.768
 4612WAT    EPW19170   4.314   3.782   6.753
 4613WAT      O19171   4.331   3.725   7.079
 4613WAT     H119172   4.356   3.675   7.012
 4613WAT     H219173   4.266   3.772   7.046
 4613WAT    EPW19174   4.325   3.725   7.064
 4614WAT      O19175   5.398   3.534   6.889
 4614WAT     H119176   5.330   3.558   6.939
 4614WAT     H219177   5.392   3.588   6.821
 4614WAT    EPW19178   5.387   3.546   6.887
 4615WAT      O19179   4.756   4.648   6.987
 4615WAT     H119180   4.711   4.580   6.955
 4615WAT     H219181   4.751   4.707   6.923
 4615WAT    EPW19182   4.748   4.647   6.973
 4616WAT      O19183   4.957   3.074   7.236
 4616WAT     H119184   4.982   2.993   7.216
 4616WAT     H219185   4.989   3.087   7.316
 4616WAT    EPW19186   4.965   3.064   7.245
 4617WAT      O19187   5.205   3.291   6.224
 4617WAT     H119188   5.257   3.360   6.235
 4617WAT     H219189   5.125   3.327   6.218
 4617WAT    EPW19190   5.201   3.307   6.225
 4618WAT      O19191   4.051   3.826   7.589
 4618WAT     H119192   4.095   3.880   7.536
 4618WAT     H219193   4.074   3.746   7.560
 4618WAT    EPW19194   4.061   3.822   7.577
 4619WAT      O19195   5.312   4.130   7.478
 4619WAT     H119196   5.341   4.210   7.460
 4619WAT     H219197   5.344   4.081   7.413
 4619WAT    EPW19198   5.321   4.134   7.466
 4620WAT      O19199   4.708   4.453   7.528
 4620WAT     H119200   4.718   4.444   7.614
 4620WAT     H219201   4.696   4.371   7.500
 4620WAT    EPW19202   4.707   4.439   7.537
 4621WAT      O19203   4.805   3.441   6.859
 4621WAT     H119204   4.871   3.499   6.860
 4621WAT     H219205   4.843   3.367   6.883
 4621WAT    EPW19206   4.821   3.439   6.863
 4622WAT      O19207   5.032   3.747   6.044
 4622WAT     H119208   5.011   3.800   5.977
 4622WAT     H219209   4.971   3.764   6.103
 4622WAT    EPW19210   5.020   3.758   6.043
 4623WAT      O19211   5.565   4.058   6.488
 4623WAT     H119212   5.578   4.005   6.555
 4623WAT     H219213   5.554   4.004   6.420
 4623WAT    EPW19214   5.565   4.043   6.488
 4624WAT      O19215   5.158   4.486   6.813
 4624WAT     H119216   5.095   4.469   6.755
 4624WAT     H219217   5.206   4.546   6.774
 4624WAT    EPW19218   5.156   4.492   6.799
 4625WAT      O19219   5.156   4.107   6.792
 4625WAT     H119220   5.083   4.138   6.827
 4625WAT     H219221   5.192   4.061   6.857
 4625WAT    EPW19222   5.150   4.105   6.807
 4626WAT      O19223   4.545   4.613   6.193
 4626WAT     H119224   4.545   4.536   6.233
 4626WAT     H219225   4.617   4.611   6.144
 4626WAT    EPW19226   4.556   4.602   6.192
 4627WAT      O19227   4.490   2.976   5.978
 4627WAT     H119228   4.486   2.952   6.062
 4627WAT     H219229   4.431   3.039   5.971
 4627WAT    EPW19230   4.481   2.982   5.989
 4628WAT      O19231   4.778   4.598   6.050
 4628WAT     H119232   4.838   4.609   6.112
 4628WAT     H219233   4.779   4.674   6.007
 4628WAT    EPW19234   4.787   4.611   6.053
 4629WAT      O19235   5.411   3.971   7.279
 4629WAT     H119236   5.380   3.990   7.200
 4629WAT     H219237   5.497   3.979   7.270
 4629WAT    EPW19238   5.419   3.975   7.266
 4630WAT      O19239   5.613   2.941   7.541
 4630WAT     H119240   5.554   2.929   7.478
 4630WAT     H219241   5.566   2.961   7.611
 4630WAT    EPW19242   5.597   2.942   7.542
 4631WAT      O19243   4.317   3.841   6.097
 4631WAT     H119244   4.279   3.763   6.109
 4631WAT     H219245   4.399   3.827   6.123
 4631WAT    EPW19246   4.324   3.827   6.102
 4632WAT      O19247   5.046   3.944   7.136
 4632WAT     H119248   4.996   3.990   7.190
 4632WAT     H219249   5.073   3.877   7.184
 4632WAT    EPW19250   5.043   3.941   7.151
 4633WAT      O19251   3.930   2.990   6.231
 4633WAT     H119252   3.939   2.934   6.165
 4633WAT     H219253   3.889   2.943   6.292
 4633WAT    EPW19254   3.925   2.975   6.231
 4634WAT      O19255   4.858   3.784   6.266
 4634WAT     H119256   4.879   3.849   6.320
 4634WAT     H219257   4.864   3.713   6.315
 4634WAT    EPW19258   4.862   3.783   6.281
 4635WAT      O19259   5.394   4.260   6.789
 4635WAT     H119260   5.409   4.274   6.704
 4635WAT     H219261   5.318   4.218   6.790
 4635WAT    EPW19262   5.385   4.256   6.777
 4636WAT      O19263   4.319   3.192   5.914
 4636WAT     H119264   4.265   3.191   5.846
 4636WAT     H219265   4.390   3.233   5.883
 4636WAT    EPW19266   4.322   3.198   5.900
 4637WAT      O19267   4.790   4.015   6.684
 4637WAT     H119268   4.707   3.992   6.697
 4637WAT     H219269   4.832   3.978   6.751
 4637WAT    EPW19270   4.784   4.006   6.696
 4638WAT      O19271   4.493   4.592   5.836
 4638WAT     H119272   4.495   4.519   5.884
 4638WAT     H219273   4.491   4.656   5.896
 4638WAT    EPW19274   4.493   4.591   5.852
 4639WAT      O19275   4.147   3.897   6.937
 4639WAT     H119276   4.192   3.972   6.936
 4639WAT     H219277   4.088   3.907   6.874
 4639WAT    EPW19278   4.145   3.910   6.928
 4640WAT      O19279   4.443   3.465   6.596
 4640WAT     H119280   4.527   3.441   6.596
 4640WAT     H219281   4.400   3.389   6.594
 4640WAT    EPW19282   4.449   3.450   6.596
 4641WAT      O19283   5.766   4.627   6.027
 4641WAT     H119284   5.834   4.579   5.999
 4641WAT     H219285   5.720   4.570   6.075
 4641WAT    EPW19286   5.769   4.611   6.030
 4642WAT      O19287   4.000   3.527   6.269
 4642WAT     H119288   4.025   3.517   6.352
 4642WAT     H219289   4.073   3.551   6.228
 4642WAT    EPW19290   4.014   3.529   6.275
 4643WAT      O19291   5.526   3.910   6.968
 4643WAT     H119292   5.531   3.840   7.019
 4643WAT     H219293   5.445   3.939   6.980
 4643WAT    EPW19294   5.515   3.904   6.977
 4644WAT      O19295   4.523   3.674   5.846
 4644WAT     H119296   4.508   3.628   5.919
 4644WAT     H219297   4.446   3.671   5.805
 4644WAT    EPW19298   4.509   3.667   5.851
 4645WAT      O19299   4.155   4.012   7.396
 4645WAT     H119300   4.123   3.963   7.331
 4645WAT     H219301   4.125   4.092   7.379
 4645WAT    EPW19302   4.145   4.016   7.384
 4646WAT      O19303   5.617   3.883   6.705
 4646WAT     H119304   5.592   3.897   6.787
 4646WAT     H219305   5.704   3.879   6.710
 4646WAT    EPW19306   5.627   3.884   6.718
 4647WAT      O19307   4.517   3.543   6.092
 4647WAT     H119308   4.545   3.618   6.129
 4647WAT     H219309   4.431   3.544   6.107
 4647WAT    EPW19310   4.508   3.554   6.100
 4648WAT      O19311   5.375   3.285   7.493
 4648WAT     H119312   5.314   3.256   7.548
 4648WAT     H219313   5.365   3.234   7.422
 4648WAT    EPW19314   5.364   3.273   7.490
 4649WAT      O19315   3.933   3.212   6.714
 4649WAT     H119316   3.917   3.239   6.633
 4649WAT     H219317   4.018   3.230   6.725
 4649WAT    EPW19318   3.943   3.219   6.704
 4650WAT      O19319   5.766   4.392   6.791
 4650WAT     H119320   5.795   4.445   6.728
 4650WAT     H219321   5.833   4.391   6.848
 4650WAT    EPW19322   5.780   4.399   6.790
 4651WAT      O19323   5.276   3.740   7.539
 4651WAT     H119324   5.324   3.801   7.579
 4651WAT     H219325   5.197   3.750   7.574
 4651WAT    EPW19326   5.272   3.751   7.550
 4652WAT      O19327   5.531   3.672   7.426
 4652WAT     H119328   5.572   3.744   7.453
 4652WAT     H219329   5.452   3.679   7.462
 4652WAT    EPW19330   5.526   3.684   7.435
 4653WAT      O19331   5.442   4.309   6.007
 4653WAT     H119332   5.480   4.232   6.021
 4653WAT     H219333   5.365   4.302   6.048
 4653WAT    EPW19334   5.436   4.297   6.015
 4654WAT      O19335   5.481   3.456   6.519
 4654WAT     H119336   5.414   3.409   6.547
 4654WAT     H219337   5.474   3.531   6.564
 4654WAT    EPW19338   5.470   3.460   6.529
 4655WAT      O19339   5.685   4.030   7.266
 4655WAT     H119340   5.752   3.981   7.241
 4655WAT     H219341   5.676   4.087   7.200
 4655WAT    EPW19342   5.693   4.031   7.252
 4656WAT      O19343   5.137   4.107   5.937
 4656WAT     H119344   5.214   4.067   5.926
 4656WAT     H219345   5.106   4.115   5.856
 4656WAT    EPW19346   5.144   4.102   5.924
 4657WAT      O19347   4.557   4.227   7.033
 4657WAT     H119348   4.571   4.270   7.107
 4657WAT     H219349   4.573   4.287   6.971
 4657WAT    EPW19350   4.562   4.242   7.035
 4658WAT      O19351   4.424   4.079   7.375
 4658WAT     H119352   4.346   4.045   7.395
 4658WAT     H219353   4.407   4.164   7.361
 4658WAT    EPW19354   4.410   4.087   7.376
 4659WAT      O19355   5.348   3.162   7.216
 4659WAT     H119356   5.403   3.229   7.204
 4659WAT     H219357   5.270   3.194   7.194
 4659WAT    EPW19358   5.345   3.176   7.211
 4660WAT      O19359   4.889   3.877   6.915
 4660WAT     H119360   4.944   3.902   6.977
 4660WAT     H219361   4.811   3.892   6.949
 4660WAT    EPW19362   4.886   3.883   6.929
 4661WAT      O19363   4.540   3.432   7.302
 4661WAT     H119364   4.561   3.353   7.332
 4661WAT     H219365   4.562   3.429   7.218
 4661WAT    EPW19366   4.546   3.420   7.294
 4662WAT      O19367   4.794   4.649   6.495
 4662WAT     H119368   4.795   4.735   6.510
 4662WAT     H219369   4.827   4.643   6.414
 4662WAT    EPW19370   4.799   4.661   6.485
 4663WAT      O19371   5.427   2.953   7.026
 4663WAT     H119372   5.392   3.025   7.061
 4663WAT     H219373   5.511   2.959   7.047
 4663WAT    EPW19374   5.434   2.965   7.034
 4664WAT      O19375   4.687   3.002   7.181
 4664WAT     H119376   4.768   3.034   7.188
 4664WAT     H219377   4.697   2.933   7.128
 4664WAT    EPW19378   4.701   2.996   7.174
 4665WAT      O19379   4.604   4.439   6.862
 4665WAT     H119380   4.528   4.460   6.824
 4665WAT     H219381   4.648   4.399   6.798
 4665WAT    EPW19382   4.599   4.436   6.847
 4666WAT      O19383   5.045   4.088   7.531
 4666WAT     H119384   5.130   4.093   7.512
 4666WAT     H219385   5.006   4.092   7.453
 4666WAT    EPW19386   5.052   4.089   7.517
 4667WAT      O19387   5.357   4.405   7.419
 4667WAT     H119388   5.356   4.474   7.472
 4667WAT     H219389   5.413   4.428   7.356
 4667WAT    EPW19390   5.365   4.418   7.418
 4668WAT      O19391   5.640   3.625   5.910
 4668WAT     H119392   5.684   3.684   5.863
 4668WAT     H219393   5.558   3.655   5.908
 4668WAT    EPW19394   5.635   3.638   5.903
 4669WAT      O19395   4.681   3.895   5.899
 4669WAT     H119396   4.629   3.833   5.865
 4669WAT     H219397   4.642   3.969   5.876
 4669WAT    EPW19398   4.668   3.897   5.890
 4670WAT      O19399   4.390   3.545   6.854
 4670WAT     H119400   4.411   3.516   6.775
 4670WAT     H219401   4.451   3.510   6.906
 4670WAT    EPW19402   4.402   3.536   6.850
 4671WAT      O19403   5.105   3.407   7.424
 4671WAT     H119404   5.051   3.474   7.437
 4671WAT     H219405   5.183   3.439   7.446
 4671WAT    EPW19406   5.109   3.422   7.429
 4672WAT      O19407   5.171   3.564   7.050
 4672WAT     H119408   5.171   3.613   7.122
 4672WAT     H219409   5.154   3.484   7.080
 4672WAT    EPW19410   5.169   3.559   7.065
 4673WAT      O19411   4.876   4.666   7.440
 4673WAT     H119412   4.896   4.656   7.355
 4673WAT     H219413   4.841   4.590   7.462
 4673WAT    EPW19414   4.874   4.654   7.431
 4674WAT      O19415   5.377   3.513   6.269
 4674WAT     H119416   5.402   3.492   6.350
 4674WAT     H219417   5.451   3.541   6.231
 4674WAT    EPW19418   5.392   3.514   6.275
 4675WAT      O19419   4.716   3.012   6.821
 4675WAT     H119420   4.632   2.992   6.829
 4675WAT     H219421   4.723   3.043   6.739
 4675WAT    EPW19422   4.705   3.013   6.810
 4676WAT      O19423   5.509   3.084   6.440
 4676WAT     H119424   5.432   3.045   6.452
 4676WAT     H219425   5.510   3.101   6.355
 4676WAT    EPW19426   5.498   3.081   6.429
 4677WAT      O19427   5.519   3.898   6.257
 4677WAT     H119428   5.561   3.822   6.244
 4677WAT     H219429   5.435   3.878   6.245
 4677WAT    EPW19430   5.513   3.884   6.254
 4678WAT      O19431   4.892   4.118   7.296
 4678WAT     H119432   4.819   4.116   7.343
 4678WAT     H219433   4.900   4.202   7.274
 4678WAT    EPW19434   4.883   4.130   7.300
 4679WAT      O19435   3.953   3.088   7.487
 4679WAT     H119436   3.923   3.149   7.432
 4679WAT     H219437   3.880   3.048   7.515
 4679WAT    EPW19438   3.937   3.091   7.483
 4680WAT      O19439   4.453   4.752   6.889
 4680WAT     H119440   4.459   4.722   6.971
 4680WAT     H219441   4.436   4.681   6.842
 4680WAT    EPW19442   4.452   4.737   6.894
 4681WAT      O19443   4.212   3.283   6.158
 4681WAT     H119444   4.245   3.249   6.085
 4681WAT     H219445   4.276   3.273   6.216
 4681WAT    EPW19446   4.226   3.276   6.156
 4682WAT      O19447   5.170   4.078   6.516
 4682WAT     H119448   5.162   4.087   6.602
 4682WAT     H219449   5.201   3.997   6.506
 4682WAT    EPW19450   5.173   4.067   6.527
 4683WAT      O19451   4.912   4.006   6.434
 4683WAT     H119452   4.873   4.003   6.512
 4683WAT     H219453   4.993   4.032   6.452
 4683WAT    EPW19454   4.918   4.009   6.448
 4684WAT      O19455   4.900   4.395   7.255
 4684WAT     H119456   4.951   4.393   7.325
 4684WAT     H219457   4.926   4.466   7.212
 4684WAT    EPW19458   4.911   4.405   7.259
 4685WAT      O19459   5.730   3.475   7.473
 4685WAT     H119460   5.675   3.542   7.459
 4685WAT     H219461   5.808   3.513   7.475
 4685WAT    EPW19462   5.733   3.491   7.471
 4686WAT      O19463   5.149   3.730   7.277
 4686WAT     H119464   5.083   3.699   7.326
 4686WAT     H219465   5.211   3.749   7.336
 4686WAT    EPW19466   5.148   3.728   7.293
 4687WAT      O19467   4.083   4.721   7.417
 4687WAT     H119468   4.037   4.647   7.419
 4687WAT     H219469   4.023   4.784   7.427
 4687WAT    EPW19470   4.068   4.719   7.419
 4688WAT      O19471   5.023   3.831   7.637
 4688WAT     H119472   5.027   3.913   7.607
 4688WAT     H219473   5.010   3.840   7.722
 4688WAT    EPW19474   5.021   3.844   7.645
 4689WAT      O19475   5.298   4.727   6.759
 4689WAT     H119476   5.240   4.787   6.783
 4689WAT     H219477   5.362   4.736   6.818
 4689WAT    EPW19478   5.299   4.737   6.771
 4690WAT      O19479   4.951   4.214   6.950
 4690WAT     H119480   4.890   4.190   7.008
 4690WAT     H219481   5.011   4.255   6.998
 4690WAT    EPW19482   4.950   4.216   6.966
 4691WAT      O19483   4.276   3.526   7.267
 4691WAT     H119484   4.293   3.593   7.214
 4691WAT     H219485   4.355   3.494   7.287
 4691WAT    EPW19486   4.290   3.531   7.262
 4692WAT      O19487   4.082   3.367   7.147
 4692WAT     H119488   4.096   3.380   7.062
 4692WAT     H219489   4.144   3.416   7.185
 4692WAT    EPW19490   4.093   3.377   7.140
 4693WAT      O19491   5.610   3.644   6.188
 4693WAT     H119492   5.628   3.642   6.103
 4693WAT     H219493   5.684   3.617   6.225
 4693WAT    EPW19494   5.624   3.640   6.181
 4694WAT      O19495   4.313   3.102   7.415
 4694WAT     H119496   4.273   3.027   7.434
 4694WAT     H219497   4.291   3.117   7.332
 4694WAT    EPW19498   4.304   3.093   7.406
 4695WAT      O19499   4.998   4.359   6.343
 4695WAT     H119500   4.983   4.439   6.313
 4695WAT     H219501   4.925   4.315   6.323
 4695WAT    EPW19502   4.985   4.364   6.335
 4696WAT      O19503   5.536   3.679   7.144
 4696WAT     H119504   5.512   3.596   7.132
 4696WAT     H219505   5.528   3.690   7.230
 4696WAT    EPW19506   5.531   3.668   7.155
 4697WAT      O19507   4.030   3.873   7.193
 4697WAT     H119508   4.054   3.886   7.111
 4697WAT     H219509   4.003   3.790   7.194
 4697WAT    EPW19510   4.030   3.863   7.181
 4698WAT      O19511   4.122   3.451   5.835
 4698WAT     H119512   4.048   3.432   5.875
 4698WAT     H219513   4.130   3.388   5.775
 4698WAT    EPW19514   4.112   3.439   5.832
 4699WAT      O19515   5.072   3.139   7.489
 4699WAT     H119516   5.074   3.225   7.475
 4699WAT     H219517   4.993   3.127   7.525
 4699WAT    EPW19518   5.060   3.150   7.492
 4700WAT      O19519   5.044   3.145   6.582
 4700WAT     H119520   4.958   3.156   6.589
 4700WAT     H219521   5.052   3.089   6.516
 4700WAT    EPW19522   5.032   3.139   6.573
 4701WAT      O19523   4.477   4.351   5.994
 4701WAT     H119524   4.510   4.354   6.075
 4701WAT     H219525   4.396   4.322   6.006
 4701WAT    EPW19526   4.470   4.347   6.008
 4702WAT      O19527   5.357   3.261   6.852
 4702WAT     H119528   5.438   3.229   6.862
 4702WAT     H219529   5.365   3.345   6.874
 4702WAT    EPW19530   5.370   3.269   6.857
 4703WAT      O19531   4.528   3.855   7.234
 4703WAT     H119532   4.491   3.921   7.277
 4703WAT     H219533   4.461   3.816   7.195
 4703WAT    EPW19534   4.513   3.859   7.235
 4704WAT      O19535   5.423   3.692   6.656
 4704WAT     H119536   5.488   3.749   6.668
 4704WAT     H219537   5.368   3.734   6.604
 4704WAT    EPW19538   5.425   3.707   6.650
 4705WAT      O19539   5.436   4.528   6.393
 4705WAT     H119540   5.419   4.451   6.431
 4705WAT     H219541   5.476   4.506   6.319
 4705WAT    EPW19542   5.439   4.513   6.388
 4706WAT      O19543   4.223   4.247   6.042
 4706WAT     H119544   4.139   4.265   6.058
 4706WAT     H219545   4.219   4.180   5.987
 4706WAT    EPW19546   4.210   4.240   6.037
 4707WAT      O19547   4.535   4.122   5.824
 4707WAT     H119548   4.454   4.092   5.832
 4707WAT     H219549   4.535   4.196   5.870
 4707WAT    EPW19550   4.523   4.128   5.832
 4708WAT      O19551   4.504   3.182   7.055
 4708WAT     H119552   4.423   3.157   7.077
 4708WAT     H219553   4.553   3.115   7.080
 4708WAT    EPW19554   4.499   3.169   7.062
 4709WAT      O19555   5.687   3.039   7.126
 4709WAT     H119556   5.703   3.102   7.184
 4709WAT     H219557   5.764   2.997   7.120
 4709WAT    EPW19558   5.701   3.042   7.134
 4710WAT      O19559   4.902   3.193   6.931
 4710WAT     H119560   4.841   3.136   6.905
 4710WAT     H219561   4.977   3.154   6.911
 4710WAT    EPW19562   4.904   3.179   6.924
 4711WAT      O19563   5.202   4.314   7.040
 4711WAT     H119564   5.220   4.383   7.090
 4711WAT     H219565   5.203   4.347   6.959
 4711WAT    EPW19566   5.205   4.329   7.035
 4712WAT      O19567   5.171   4.720   7.472
 4712WAT     H119568   5.098   4.673   7.477
 4712WAT     H219569   5.144   4.802   7.485
 4712WAT    EPW19570   5.156   4.725   7.475
 4713WAT      O19571   4.689   3.663   7.366
 4713WAT     H119572   4.642   3.590   7.355
 4713WAT     H219573   4.641   3.724   7.327
 4713WAT    EPW19574   4.675   3.661   7.359
 4714WAT      O19575   4.762   2.989   5.925
 4714WAT     H119576   4.769   3.009   5.841
 4714WAT     H219577   4.677   2.997   5.942
 4714WAT    EPW19578   4.751   2.993   5.915
 4715WAT      O19579   5.653   4.164   7.024
 4715WAT     H119580   5.618   4.093   6.988
 4715WAT     H219581   5.602   4.229   6.994
 4715WAT    EPW19582   5.640   4.163   7.014
 4716WAT      O19583   4.536   4.661   7.422
 4716WAT     H119584   4.578   4.735   7.439
 4716WAT     H219585   4.592   4.599   7.449
 4716WAT    EPW19586   4.551   4.663   7.428
 4717WAT      O19587   5.541   4.424   6.962
 4717WAT     H119588   5.610   4.431   6.909
 4717WAT     H219589   5.481   4.386   6.911
 4717WAT    EPW19590   5.542   4.419   6.946
 4718WAT      O19591   4.242   3.136   7.152
 4718WAT     H119592   4.190   3.071   7.126
 4718WAT     H219593   4.193   3.207   7.142
 4718WAT    EPW19594   4.227   3.137   7.147
 4719WAT      O19595   5.140   3.082   6.835
 4719WAT     H119596   5.204   3.139   6.848
 4719WAT     H219597   5.111   3.101   6.755
 4719WAT    EPW19598   5.145   3.093   6.825
 4720WAT      O19599   4.297   4.558   7.517
 4720WAT     H119600   4.370   4.603   7.501
 4720WAT     H219601   4.233   4.613   7.495
 4720WAT    EPW19602   4.298   4.573   7.511
 4721WAT      O19603   5.098   3.585   6.580
 4721WAT     H119604   5.147   3.513   6.590
 4721WAT     H219605   5.069   3.602   6.660
 4721WAT    EPW19606   5.101   3.577   6.593
 4722WAT      O19607   4.088   3.482   6.528
 4722WAT     H119608   4.048   3.513   6.599
 4722WAT     H219609   4.130   3.411   6.558
 4722WAT    EPW19610   4.088   3.476   6.543
 4723WAT      O19611   4.101   4.279   7.296
 4723WAT     H119612   4.056   4.340   7.340
 4723WAT     H219613   4.184   4.306   7.304
 4723WAT    EPW19614   4.107   4.292   7.304
 4724WAT      O19615   5.268   3.758   6.200
 4724WAT     H119616   5.287   3.675   6.219
 4724WAT     H219617   5.192   3.753   6.158
 4724WAT    EPW19618   5.259   3.745   6.197
 4725WAT      O19619   4.269   4.615   6.150
 4725WAT     H119620   4.234   4.603   6.071
 4725WAT     H219621   4.355   4.609   6.135
 4725WAT    EPW19622   4.277   4.613   6.136
 4726WAT      O19623   4.606   3.808   6.152
 4726WAT     H119624   4.630   3.839   6.074
 4726WAT     H219625   4.681   3.796   6.194
 4726WAT    EPW19626   4.620   3.811   6.146
 4727WAT      O19627   5.538   4.653   5.868
 4727WAT     H119628   5.614   4.641   5.910
 4727WAT     H219629   5.526   4.577   5.825
 4727WAT    EPW19630   5.547   4.640   5.868
 4728WAT      O19631   5.660   3.901   7.517
 4728WAT     H119632   5.740   3.879   7.543
 4728WAT     H219633   5.675   3.953   7.448
 4728WAT    EPW19634   5.674   3.906   7.511
 4729WAT      O19635   5.195   4.304   6.134
 4729WAT     H119636   5.145   4.299   6.206
 4729WAT     H219637   5.161   4.244   6.081
 4729WAT    EPW19638   5.182   4.294   6.137
 4730WAT      O19639   5.605   3.308   7.667
 4730WAT     H119640   5.657   3.363   7.623
 4730WAT     H219641   5.534   3.301   7.616
 4730WAT    EPW19642   5.602   3.315   7.653
 4731WAT      O19643   5.673   3.485   6.920
 4731WAT     H119644   5.590   3.511   6.912
 4731WAT     H219645   5.668   3.398   6.920
 4731WAT    EPW19646   5.660   3.476   6.919
 4732WAT      O19647   4.589   3.159   7.393
 4732WAT     H119648   4.607   3.117   7.319
 4732WAT     H219649   4.505   3.139   7.408
 4732WAT    EPW19650   4.579   3.150   7.384
 4733WAT      O19651   5.421   3.941   7.657
 4733WAT     H119652   5.503   3.934   7.627
 4733WAT     H219653   5.390   4.011   7.615
 4733WAT    EPW19654   5.429   3.951   7.646
 4734WAT      O19655   4.329   4.504   6.790
 4734WAT     H119656   4.296   4.427   6.765
 4734WAT     H219657   4.288   4.561   6.738
 4734WAT    EPW19658   4.318   4.501   6.778
 4735WAT      O19659   4.878   4.179   6.029
 4735WAT     H119660   4.952   4.142   6.003
 4735WAT     H219661   4.865   4.243   5.971
 4735WAT    EPW19662   4.887   4.183   6.017
 4736WAT      O19663   4.089   4.762   7.139
 4736WAT     H119664   4.093   4.739   7.223
 4736WAT     H219665   4.120   4.691   7.098
 4736WAT    EPW19666   4.094   4.748   7.146
 4737WAT      O19667   4.973   3.630   4.918
 4737WAT     H119668   4.933   3.703   4.944
 4737WAT     H219669   5.024   3.609   4.985
 4737WAT    EPW19670   4.975   3.637   4.931
 4738WAT      O19671   5.589   4.483   4.241
 4738WAT     H119672   5.646   4.420   4.261
 4738WAT     H219673   5.530   4.443   4.191
 4738WAT    EPW19674   5.589   4.468   4.236
 4739WAT      O19675   5.253   3.789   4.588
 4739WAT     H119676   5.260   3.777   4.502
 4739WAT     H219677   5.197   3.727   4.613
 4739WAT    EPW19678   5.246   3.778   4.579
 4740WAT      O19679   4.528   3.079   4.444
 4740WAT     H119680   4.489   3.154   4.465
 4740WAT     H219681   4.462   3.023   4.434
 4740WAT    EPW19682   4.513   3.082   4.446
 4741WAT      O19683   4.220   4.478   3.963
 4741WAT     H119684   4.166   4.410   3.961
 4741WAT     H219685   4.169   4.544   3.986
 4741WAT    EPW19686   4.204   4.478   3.966
 4742WAT      O19687   4.635   4.148   5.559
 4742WAT     H119688   4.607   4.137   5.641
 4742WAT     H219689   4.561   4.150   5.512
 4742WAT    EPW19690   4.620   4.147   5.564
 4743WAT      O19691   4.557   3.346   4.974
 4743WAT     H119692   4.633   3.375   4.941
 4743WAT     H219693   4.517   3.310   4.905
 4743WAT    EPW19694   4.562   3.345   4.959
 4744WAT      O19695   4.629   4.603   5.390
 4744WAT     H119696   4.623   4.574   5.308
 4744WAT     H219697   4.650   4.532   5.436
 4744WAT    EPW19698   4.631   4.588   5.385
 4745WAT      O19699   4.843   4.206   4.863
 4745WAT     H119700   4.803   4.143   4.817
 4745WAT     H219701   4.853   4.271   4.805
 4745WAT    EPW19702   4.838   4.206   4.848
 4746WAT      O19703   4.693   4.149   4.425
 4746WAT     H119704   4.749   4.088   4.455
 4746WAT     H219705   4.616   4.119   4.451
 4746WAT    EPW19706   4.690   4.135   4.434
 4747WAT      O19707   4.944   3.678   5.584
 4747WAT     H119708   4.864   3.665   5.550
 4747WAT     H219709   4.930   3.735   5.648
 4747WAT    EPW19710   4.930   3.684   5.588
 4748WAT      O19711   5.407   2.910   5.442
 4748WAT     H119712   5.382   2.976   5.391
 4748WAT     H219713   5.333   2.887   5.483
 4748WAT    EPW19714   5.392   2.916   5.441
 4749WAT      O19715   4.698   3.063   4.663
 4749WAT     H119716   4.746   3.135   4.651
 4749WAT     H219717   4.640   3.066   4.598
 4749WAT    EPW19718   4.697   3.074   4.652
 4750WAT      O19719   5.108   3.283   3.928
 4750WAT     H119720   5.058   3.353   3.940
 4750WAT     H219721   5.104   3.241   4.005
 4750WAT    EPW19722   5.100   3.287   3.941
 4751WAT      O19723   5.188   4.571   4.173
 4751WAT     H119724   5.246   4.637   4.174
 4751WAT     H219725   5.131   4.593   4.235
 4751WAT    EPW19726   5.188   4.584   4.182
 4752WAT      O19727   4.975   4.573   4.365
 4752WAT     H119728   4.978   4.643   4.416
 4752WAT     H219729   4.903   4.585   4.317
 4752WAT    EPW19730   4.965   4.585   4.365
 4753WAT      O19731   4.564   3.285   5.808
 4753WAT     H119732   4.548   3.251   5.729
 4753WAT     H219733   4.616   3.352   5.790
 4753WAT    EPW19734   4.569   3.290   5.794
 4754WAT      O19735   5.734   3.286   4.592
 4754WAT     H119736   5.686   3.358   4.595
 4754WAT     H219737   5.675   3.223   4.578
 4754WAT    EPW19738   5.718   3.287   4.590
 4755WAT      O19739   5.146   4.582   5.143
 4755WAT     H119740   5.214   4.637   5.142
 4755WAT     H219741   5.142   4.553   5.061
 4755WAT    EPW19742   5.156   4.586   5.131
 4756WAT      O19743   4.132   3.225   5.666
 4756WAT     H119744   4.051   3.198   5.647
 4756WAT     H219745   4.171   3.228   5.588
 4756WAT    EPW19746   4.125   3.222   5.652
 4757WAT      O19747   4.787   3.039   5.645
 4757WAT     H119748   4.813   2.961   5.617
 4757WAT     H219749   4.773   3.084   5.572
 4757WAT    EPW19750   4.789   3.034   5.630
 4758WAT      O19751   4.885   3.515   4.482
 4758WAT     H119752   4.910   3.481   4.405
 4758WAT     H219753   4.961   3.527   4.524
 4758WAT    EPW19754   4.900   3.511   4.477
 4759WAT      O19755   4.938   3.512   3.951
 4759WAT     H119756   4.952   3.596   3.931
 4759WAT     H219757   4.865   3.493   3.907
 4759WAT    EPW19758   4.929   3.522   3.942
 4760WAT      O19759   5.387   4.772   4.122
 4760WAT     H119760   5.436   4.747   4.055
 4760WAT     H219761   5.442   4.818   4.172
 4760WAT    EPW19762   5.403   4.775   4.120
 4761WAT      O19763   5.631   3.209   5.039
 4761WAT     H119764   5.694   3.209   4.979
 4761WAT     H219765   5.653   3.142   5.091
 4761WAT    EPW19766   5.644   3.199   5.038
 4762WAT      O19767   5.098   4.366   5.596
 4762WAT     H119768   5.098   4.423   5.662
 4762WAT     H219769   5.182   4.366   5.570
 4762WAT    EPW19770   5.111   4.374   5.602
 4763WAT      O19771   4.888   4.363   4.056
 4763WAT     H119772   4.835   4.417   4.100
 4763WAT     H219773   4.841   4.341   3.986
 4763WAT    EPW19774   4.873   4.367   4.052
 4764WAT      O19775   5.122   3.118   4.158
 4764WAT     H119776   5.186   3.059   4.156
 4764WAT     H219777   5.141   3.167   4.228
 4764WAT    EPW19778   5.134   3.117   4.168
 4765WAT      O19779   4.938   3.411   4.222
 4765WAT     H119780   4.868   3.362   4.207
 4765WAT     H219781   4.945   3.461   4.151
 4765WAT    EPW19782   4.929   3.411   4.210
 4766WAT      O19783   4.916   4.650   5.265
 4766WAT     H119784   4.988   4.630   5.220
 4766WAT     H219785   4.851   4.627   5.211
 4766WAT    EPW19786   4.917   4.644   5.250
 4767WAT      O19787   4.849   3.038   4.213
 4767WAT     H119788   4.805   3.110   4.193
 4767WAT     H219789   4.932   3.058   4.191
 4767WAT    EPW19790   4.855   3.052   4.207
 4768WAT      O19791   5.660   4.684   4.535
 4768WAT     H119792   5.615   4.758   4.547
 4768WAT     H219793   5.598   4.624   4.524
 4768WAT    EPW19794   5.644   4.686   4.535
 4769WAT      O19795   4.848   3.298   4.655
 4769WAT     H119796   4.839   3.363   4.596
 4769WAT     H219797   4.833   3.338   4.731
 4769WAT    EPW19798   4.845   3.314   4.657
 4770WAT      O19799   4.253   4.373   5.448
 4770WAT     H119800   4.206   4.395   5.377
 4770WAT     H219801   4.229   4.432   5.507
 4770WAT    EPW19802   4.242   4.385   5.446
 4771WAT      O19803   5.116   3.305   5.283
 4771WAT     H119804   5.118   3.351   5.357
 4771WAT     H219805   5.046   3.254   5.293
 4771WAT    EPW19806   5.106   3.304   5.296
 4772WAT      O19807   4.656   3.934   5.207
 4772WAT     H119808   4.588   3.957   5.156
 4772WAT     H219809   4.618   3.890   5.272
 4772WAT    EPW19810   4.640   3.931   5.209
 4773WAT      O19811   5.248   4.008   5.121
 4773WAT     H119812   5.188   3.986   5.181
 4773WAT     H219813   5.256   4.094   5.130
 4773WAT    EPW19814   5.240   4.017   5.131
 4774WAT      O19815   5.347   2.912   4.573
 4774WAT     H119816   5.334   2.900   4.658
 4774WAT     H219817   5.360   2.831   4.542
 4774WAT    EPW19818   5.347   2.898   4.581
 4775WAT      O19819   3.986   4.258   5.834
 4775WAT     H119820   3.993   4.344   5.848
 4775WAT     H219821   3.973   4.252   5.748
 4775WAT    EPW19822   3.985   4.270   5.823
 4776WAT      O19823   5.500   3.372   5.382
 4776WAT     H119824   5.586   3.359   5.392
 4776WAT     H219825   5.468   3.360   5.461
 4776WAT    EPW19826   5.508   3.368   5.395
 4777WAT      O19827   5.529   4.084   4.101
 4777WAT     H119828   5.517   4.037   4.174
 4777WAT     H219829   5.616   4.088   4.094
 4777WAT    EPW19830   5.540   4.078   4.111
 4778WAT      O19831   5.823   4.489   5.507
 4778WAT     H119832   5.752   4.499   5.458
 4778WAT     H219833   5.794   4.445   5.577
 4778WAT    EPW19834   5.808   4.484   5.510
 4779WAT      O19835   5.336   3.727   4.039
 4779WAT     H119836   5.336   3.808   4.006
 4779WAT     H219837   5.297   3.737   4.116
 4779WAT    EPW19838   5.330   3.740   4.046
 4780WAT      O19839   5.745   3.228   3.968
 4780WAT     H119840   5.707   3.184   4.033
 4780WAT     H219841   5.774   3.301   4.006
 4780WAT    EPW19842   5.744   3.232   3.983
 4781WAT      O19843   4.730   3.509   5.768
 4781WAT     H119844   4.669   3.563   5.798
 4781WAT     H219845   4.733   3.526   5.682
 4781WAT    EPW19846   4.722   3.519   5.760
 4782WAT      O19847   5.806   3.625   5.270
 4782WAT     H119848   5.868   3.564   5.262
 4782WAT     H219849   5.741   3.595   5.220
 4782WAT    EPW19850   5.806   3.611   5.262
 4783WAT      O19851   5.648   3.155   4.231
 4783WAT     H119852   5.695   3.086   4.255
 4783WAT     H219853   5.695   3.223   4.259
 4783WAT    EPW19854   5.662   3.155   4.239
 4784WAT      O19855   4.901   4.435   4.714
 4784WAT     H119856   4.831   4.487   4.708
 4784WAT     H219857   4.908   4.401   4.634
 4784WAT    EPW19858   4.892   4.438   4.701
 4785WAT      O19859   4.408   4.150   4.885
 4785WAT     H119860   4.404   4.105   4.811
 4785WAT     H219861   4.324   4.161   4.907
 4785WAT    EPW19862   4.395   4.145   4.878
 4786WAT      O19863   5.268   3.368   4.726
 4786WAT     H119864   5.300   3.331   4.798
 4786WAT     H219865   5.217   3.306   4.692
 4786WAT    EPW19866   5.265   3.353   4.732
 4787WAT      O19867   4.705   3.261   4.129
 4787WAT     H119868   4.675   3.267   4.047
 4787WAT     H219869   4.649   3.311   4.174
 4787WAT    EPW19870   4.692   3.269   4.123
 4788WAT      O19871   4.271   3.662   5.728
 4788WAT     H119872   4.222   3.594   5.751
 4788WAT     H219873   4.269   3.661   5.641
 4788WAT    EPW19874   4.263   3.652   5.719
 4789WAT      O19875   4.354   3.771   5.220
 4789WAT     H119876   4.371   3.716   5.154
 4789WAT     H219877   4.291   3.822   5.188
 4789WAT    EPW19878   4.347   3.770   5.206
 4790WAT      O19879   5.380   3.526   5.000
 4790WAT     H119880   5.302   3.545   5.033
 4790WAT     H219881   5.384   3.575   4.928
 4790WAT    EPW19882   5.369   3.536   4.994
 4791WAT      O19883   4.698   4.567   5.105
 4791WAT     H119884   4.669   4.493   5.070
 4791WAT     H219885   4.669   4.628   5.049
 4791WAT    EPW19886   4.689   4.565   5.091
 4792WAT      O19887   4.911   3.122   5.367
 4792WAT     H119888   4.933   3.044   5.333
 4792WAT     H219889   4.960   3.128   5.438
 4792WAT    EPW19890   4.922   3.111   5.372
 4793WAT      O19891   5.157   3.302   4.366
 4793WAT     H119892   5.221   3.362   4.364
 4793WAT     H219893   5.091   3.341   4.324
 4793WAT    EPW19894   5.157   3.317   4.359
 4794WAT      O19895   4.083   3.868   5.737
 4794WAT     H119896   4.057   3.869   5.654
 4794WAT     H219897   4.140   3.802   5.740
 4794WAT    EPW19898   4.087   3.858   5.725
 4795WAT      O19899   5.270   4.079   5.520
 4795WAT     H119900   5.302   4.161   5.517
 4795WAT     H219901   5.331   4.032   5.479
 4795WAT    EPW19902   5.283   4.084   5.514
 4796WAT      O19903   4.732   4.414   5.598
 4796WAT     H119904   4.753   4.408   5.682
 4796WAT     H219905   4.703   4.334   5.578
 4796WAT    EPW19906   4.731   4.401   5.607
 4797WAT      O19907   4.821   3.398   4.912
 4797WAT     H119908   4.867   3.472   4.917
 4797WAT     H219909   4.874   3.339   4.949
 4797WAT    EPW19910   4.836   3.400   4.918
 4798WAT      O19911   5.432   4.181   4.499
 4798WAT     H119912   5.451   4.158   4.581
 4798WAT     H219913   5.456   4.112   4.453
 4798WAT    EPW19914   5.438   4.168   4.505
 4799WAT      O19915   5.132   4.462   4.890
 4799WAT     H119916   5.065   4.462   4.835
 4799WAT     H219917   5.187   4.521   4.856
 4799WAT    EPW19918   5.130   4.471   4.877
 4800WAT      O19919   5.153   4.105   4.871
 4800WAT     H119920   5.073   4.135   4.888
 4800WAT     H219921   5.172   4.057   4.941
 4800WAT    EPW19922   5.144   4.102   4.884
 4801WAT      O19923   4.750   4.558   4.198
 4801WAT     H119924   4.666   4.545   4.219
 4801WAT     H219925   4.749   4.636   4.159
 4801WAT    EPW19926   4.737   4.568   4.196
 4802WAT      O19927   5.457   3.946   5.374
 4802WAT     H119928   5.459   3.926   5.289
 4802WAT     H219929   5.531   3.990   5.387
 4802WAT    EPW19930   5.468   3.950   5.363
 4803WAT      O19931   5.087   4.544   5.811
 4803WAT     H119932   5.116   4.558   5.892
 4803WAT     H219933   5.113   4.615   5.768
 4803WAT    EPW19934   5.095   4.557   5.817
 4804WAT      O19935   5.536   3.046   5.647
 4804WAT     H119936   5.499   3.001   5.583
 4804WAT     H219937   5.537   2.990   5.714
 4804WAT    EPW19938   5.531   3.031   5.647
 4805WAT      O19939   5.074   3.970   5.351
 4805WAT     H119940   5.133   4.009   5.402
 4805WAT     H219941   5.096   3.885   5.355
 4805WAT    EPW19942   5.086   3.963   5.359
 4806WAT      O19943   4.965   3.760   4.371
 4806WAT     H119944   4.930   3.827   4.415
 4806WAT     H219945   4.920   3.691   4.401
 4806WAT    EPW19946   4.953   3.760   4.382
 4807WAT      O19947   5.436   4.196   4.906
 4807WAT     H119948   5.444   4.281   4.921
 4807WAT     H219949   5.350   4.184   4.898
 4807WAT    EPW19950   5.425   4.207   4.907
 4808WAT      O19951   4.732   3.968   4.762
 4808WAT     H119952   4.656   3.940   4.731
 4808WAT     H219953   4.747   3.916   4.830
 4808WAT    EPW19954   4.723   3.956   4.768
 4809WAT      O19955   4.484   4.778   4.094
 4809WAT     H119956   4.457   4.697   4.110
 4809WAT     H219957   4.410   4.823   4.088
 4809WAT    EPW19958   4.469   4.773   4.096
 4810WAT      O19959   4.161   3.953   5.134
 4810WAT     H119960   4.133   3.998   5.065
 4810WAT     H219961   4.087   3.922   5.169
 4810WAT    EPW19962   4.146   3.955   5.129
 4811WAT      O19963   5.776   4.644   4.112
 4811WAT     H119964   5.842   4.592   4.089
 4811WAT     H219965   5.721   4.591   4.153
 4811WAT    EPW19966   5.778   4.629   4.115
 4812WAT      O19967   5.502   3.872   5.107
 4812WAT     H119968   5.487   3.793   5.139
 4812WAT     H219969   5.422   3.902   5.090
 4812WAT    EPW19970   5.488   3.865   5.109
 4813WAT      O19971   5.655   3.824   4.865
 4813WAT     H119972   5.624   3.853   4.941
 4813WAT     H219973   5.732   3.865   4.858
 4813WAT    EPW19974   5.662   3.835   4.875
 4814WAT      O19975   4.544   3.425   4.277
 4814WAT     H119976   4.556   3.424   4.363
 4814WAT     H219977   4.458   3.416   4.268
 4814WAT    EPW19978   4.533   3.423   4.288
 4815WAT      O19979   5.409   3.302   5.638
 4815WAT     H119980   5.336   3.306   5.685
 4815WAT     H219981   5.434   3.218   5.646
 4815WAT    EPW19982   5.402   3.290   5.646
 4816WAT      O19983   5.763   4.383   4.870
 4816WAT     H119984   5.802   4.441   4.819
 4816WAT     H219985   5.813   4.381   4.942
 4816WAT    EPW19986   5.776   4.391   4.873
 4817WAT      O19987   5.254   3.650   5.699
 4817WAT     H119988   5.281   3.661   5.781
 4817WAT     H219989   5.176   3.690   5.698
 4817WAT    EPW19990   5.246   3.657   5.711
 4818WAT      O19991   5.493   3.707   5.565
 4818WAT     H119992   5.499   3.794   5.570
 4818WAT     H219993   5.417   3.690   5.604
 4818WAT    EPW19994   5.483   3.718   5.572
 4819WAT      O19995   5.415   4.334   4.089
 4819WAT     H119996   5.443   4.252   4.095
 4819WAT     H219997   5.329   4.328   4.104
 4819WAT    EPW19998   5.407   4.321   4.092
 4820WAT      O19999   5.501   3.460   4.611
 4820WAT     H120000   5.435   3.415   4.647
 4820WAT     H220001   5.503   3.534   4.657
 4820WAT    EPW20002   5.491   3.464   4.623
 4821WAT      O20003   5.783   3.792   5.740
 4821WAT     H120004   5.787   3.734   5.674
 4821WAT     H220005   5.863   3.827   5.741
 4821WAT    EPW20006   5.796   3.788   5.730
 4822WAT      O20007   5.692   4.082   5.403
 4822WAT     H120008   5.749   4.028   5.364
 4822WAT     H220009   5.678   4.143   5.343
 4822WAT    EPW20010   5.699   4.083   5.388
 4823WAT      O20011   5.089   4.062   3.971
 4823WAT     H120012   5.169   4.028   3.959
 4823WAT     H220013   5.055   4.062   3.890
 4823WAT    EPW20014   5.096   4.057   3.957
 4824WAT      O20015   4.608   4.261   5.267
 4824WAT     H120016   4.529   4.231   5.289
 4824WAT     H220017   4.602   4.277   5.182
 4824WAT    EPW20018   4.596   4.259   5.258
 4825WAT      O20019   4.389   4.133   5.405
 4825WAT     H120020   4.332   4.086   5.359
 4825WAT     H220021   4.344   4.205   5.426
 4825WAT    EPW20022   4.374   4.136   5.401
 4826WAT      O20023   5.352   3.148   5.292
 4826WAT     H120024   5.407   3.214   5.308
 4826WAT     H220025   5.275   3.188   5.282
 4826WAT    EPW20026   5.349   3.164   5.293
 4827WAT      O20027   4.851   3.866   5.014
 4827WAT     H120028   4.898   3.936   5.036
 4827WAT     H220029   4.785   3.866   5.072
 4827WAT    EPW20030   4.848   3.876   5.025
 4828WAT      O20031   4.572   3.372   5.363
 4828WAT     H120032   4.542   3.316   5.424
 4828WAT     H220033   4.499   3.405   5.329
 4828WAT    EPW20034   4.557   3.368   5.367
 4829WAT      O20035   5.422   2.941   5.109
 4829WAT     H120036   5.396   3.015   5.146
 4829WAT     H220037   5.507   2.936   5.130
 4829WAT    EPW20038   5.431   2.951   5.117
 4830WAT      O20039   4.615   4.312   4.994
 4830WAT     H120040   4.546   4.275   4.957
 4830WAT     H220041   4.683   4.277   4.951
 4830WAT    EPW20042   4.615   4.302   4.982
 4831WAT      O20043   5.042   4.103   5.679
 4831WAT     H120044   5.113   4.078   5.636
 4831WAT     H220045   5.034   4.187   5.659
 4831WAT    EPW20046   5.051   4.112   5.669
 4832WAT      O20047   5.366   4.346   5.520
 4832WAT     H120048   5.413   4.365   5.591
 4832WAT     H220049   5.404   4.391   5.456
 4832WAT    EPW20050   5.378   4.355   5.521
 4833WAT      O20051   5.587   3.615   4.006
 4833WAT     H120052   5.636   3.678   3.971
 4833WAT     H220053   5.507   3.649   4.007
 4833WAT    EPW20054   5.582   3.629   4.001
 4834WAT      O20055   4.699   3.758   3.810
 4834WAT     H120056   4.676   3.674   3.805
 4834WAT     H220057   4.660   3.794   3.740
 4834WAT    EPW20058   4.690   3.751   3.799
 4835WAT      O20059   4.427   3.592   5.020
 4835WAT     H120060   4.392   3.612   4.942
 4835WAT     H220061   4.463   3.514   5.006
 4835WAT    EPW20062   4.427   3.584   5.006
 4836WAT      O20063   5.123   3.485   5.500
 4836WAT     H120064   5.055   3.532   5.528
 4836WAT     H220065   5.182   3.494   5.563
 4836WAT    EPW20066   5.122   3.493   5.513
 4837WAT      O20067   5.132   3.540   5.125
 4837WAT     H120068   5.140   3.597   5.191
 4837WAT     H220069   5.125   3.463   5.166
 4837WAT    EPW20070   5.132   3.537   5.141
 4838WAT      O20071   4.911   4.624   5.538
 4838WAT     H120072   4.902   4.633   5.452
 4838WAT     H220073   4.864   4.552   5.556
 4838WAT    EPW20074   4.902   4.614   5.528
 4839WAT      O20075   5.356   3.514   4.379
 4839WAT     H120076   5.392   3.493   4.456
 4839WAT     H220077   5.421   3.552   4.336
 4839WAT    EPW20078   5.371   3.516   4.384
 4840WAT      O20079   4.671   3.022   4.936
 4840WAT     H120080   4.603   2.968   4.944
 4840WAT     H220081   4.675   3.037   4.850
 4840WAT    EPW20082   4.661   3.017   4.925
 4841WAT      O20083   5.543   3.098   4.504
 4841WAT     H120084   5.467   3.058   4.521
 4841WAT     H220085   5.536   3.120   4.420
 4841WAT    EPW20086   5.531   3.095   4.494
 4842WAT      O20087   5.453   3.940   4.329
 4842WAT     H120088   5.508   3.873   4.330
 4842WAT     H220089   5.375   3.903   4.318
 4842WAT    EPW20090   5.449   3.925   4.327
 4843WAT      O20091   4.318   4.809   5.076
 4843WAT     H120092   4.267   4.785   5.143
 4843WAT     H220093   4.267   4.799   5.006
 4843WAT    EPW20094   4.303   4.804   5.076
 4844WAT      O20095   5.141   4.038   4.606
 4844WAT     H120096   5.146   4.059   4.690
 4844WAT     H220097   5.178   3.959   4.602
 4844WAT    EPW20098   5.147   4.029   4.618
 4845WAT      O20099   4.881   3.972   4.530
 4845WAT     H120100   4.833   3.957   4.601
 4845WAT     H220101   4.959   3.995   4.561
 4845WAT    EPW20102   4.885   3.973   4.545
 4846WAT      O20103   4.959   4.351   5.354
 4846WAT     H120104   5.001   4.365   5.429
 4846WAT     H220105   4.942   4.432   5.324
 4846WAT    EPW20106   4.963   4.365   5.361
 4847WAT      O20107   5.749   3.602   5.539
 4847WAT     H120108   5.664   3.621   5.546
 4847WAT     H220109   5.767   3.618   5.455
 4847WAT    EPW20110   5.739   3.607   5.528
 4848WAT      O20111   5.182   3.709   5.338
 4848WAT     H120112   5.163   3.647   5.397
 4848WAT     H220113   5.268   3.698   5.325
 4848WAT    EPW20114   5.192   3.698   5.345
 4849WAT      O20115   4.939   3.863   5.797
 4849WAT     H120116   4.963   3.938   5.761
 4849WAT     H220117   4.858   3.879   5.826
 4849WAT    EPW20118   4.930   3.876   5.796
 4850WAT      O20119   5.338   4.660   4.859
 4850WAT     H120120   5.343   4.710   4.930
 4850WAT     H220121   5.397   4.598   4.874
 4850WAT    EPW20122   5.347   4.658   4.871
 4851WAT      O20123   4.948   4.124   5.101
 4851WAT     H120124   4.906   4.163   5.035
 4851WAT     H220125   5.014   4.178   5.118
 4851WAT    EPW20126   4.951   4.137   5.094
 4852WAT      O20127   5.510   4.402   5.754
 4852WAT     H120128   5.595   4.382   5.754
 4852WAT     H220129   5.481   4.366   5.828
 4852WAT    EPW20130   5.518   4.394   5.765
 4853WAT      O20131   4.237   3.668   5.454
 4853WAT     H120132   4.161   3.713   5.458
 4853WAT     H220133   4.265   3.683   5.373
 4853WAT    EPW20134   4.230   3.677   5.443
 4854WAT      O20135   5.557   3.680   4.280
 4854WAT     H120136   5.573   3.661   4.197
 4854WAT     H220137   5.631   3.660   4.321
 4854WAT    EPW20138   5.570   3.674   4.274
 4855WAT      O20139   4.218   3.154   5.399
 4855WAT     H120140   4.184   3.076   5.415
 4855WAT     H220141   4.154   3.197   5.359
 4855WAT    EPW20142   4.204   3.149   5.395
 4856WAT      O20143   4.922   4.319   4.464
 4856WAT     H120144   4.920   4.396   4.423
 4856WAT     H220145   4.846   4.282   4.444
 4856WAT    EPW20146   4.911   4.325   4.455
 4857WAT      O20147   5.450   3.649   5.295
 4857WAT     H120148   5.466   3.564   5.299
 4857WAT     H220149   5.471   3.679   5.374
 4857WAT    EPW20150   5.456   3.641   5.307
 4858WAT      O20151   5.051   3.129   5.611
 4858WAT     H120152   5.085   3.194   5.660
 4858WAT     H220153   4.977   3.109   5.653
 4858WAT    EPW20154   5.045   3.136   5.625
 4859WAT      O20155   5.097   3.179   4.631
 4859WAT     H120156   5.016   3.212   4.634
 4859WAT     H220157   5.117   3.182   4.546
 4859WAT    EPW20158   5.088   3.184   4.619
 4860WAT      O20159   4.452   4.477   4.117
 4860WAT     H120160   4.426   4.500   4.197
 4860WAT     H220161   4.379   4.479   4.070
 4860WAT    EPW20162   4.438   4.481   4.122
 4861WAT      O20163   5.364   3.251   4.960
 4861WAT     H120164   5.444   3.222   4.975
 4861WAT     H220165   5.366   3.334   4.987
 4861WAT    EPW20166   5.376   3.259   4.966
 4862WAT      O20167   4.529   3.822   5.428
 4862WAT     H120168   4.494   3.889   5.472
 4862WAT     H220169   4.465   3.798   5.373
 4862WAT    EPW20170   4.514   3.828   5.426
 4863WAT      O20171   5.437   3.681   4.772
 4863WAT     H120172   5.504   3.733   4.790
 4863WAT     H220173   5.389   3.728   4.717
 4863WAT    EPW20174   5.439   3.695   4.767
 4864WAT      O20175   5.453   4.494   4.482
 4864WAT     H120176   5.464   4.411   4.507
 4864WAT     H220177   5.485   4.495   4.401
 4864WAT    EPW20178   5.460   4.482   4.474
 4865WAT      O20179   4.530   4.225   4.021
 4865WAT     H120180   4.457   4.205   3.977
 4865WAT     H220181   4.510   4.301   4.058
 4865WAT    EPW20182   4.516   4.233   4.020
 4866WAT      O20183   4.458   3.068   5.259
 4866WAT     H120184   4.379   3.098   5.279
 4866WAT     H220185   4.445   2.982   5.249
 4866WAT    EPW20186   4.444   3.059   5.261
 4867WAT      O20187   5.682   2.999   5.220
 4867WAT     H120188   5.667   3.024   5.303
 4867WAT     H220189   5.765   2.972   5.222
 4867WAT    EPW20190   5.692   2.999   5.233
 4868WAT      O20191   4.910   3.153   5.022
 4868WAT     H120192   4.856   3.102   4.976
 4868WAT     H220193   4.989   3.129   4.994
 4868WAT    EPW20194   4.914   3.142   5.011
 4869WAT      O20195   5.178   4.287   5.116
 4869WAT     H120196   5.178   4.350   5.176
 4869WAT     H220197   5.174   4.330   5.040
 4869WAT    EPW20198   5.177   4.303   5.114
 4870WAT      O20199   5.154   4.744   5.623
 4870WAT     H120200   5.098   4.693   5.579
 4870WAT     H220201   5.112   4.821   5.626
 4870WAT    EPW20202   5.139   4.748   5.617
 4871WAT      O20203   4.686   3.597   5.502
 4871WAT     H120204   4.655   3.532   5.452
 4871WAT     H220205   4.633   3.664   5.483
 4871WAT    EPW20206   4.674   3.597   5.492
 4872WAT      O20207   5.644   4.131   5.104
 4872WAT     H120208   5.622   4.047   5.113
 4872WAT     H220209   5.588   4.161   5.045
 4872WAT    EPW20210   5.633   4.123   5.096
 4873WAT      O20211   4.502   4.742   5.602
 4873WAT     H120212   4.497   4.685   5.668
 4873WAT     H220213   4.525   4.693   5.534
 4873WAT    EPW20214   4.504   4.726   5.601
 4874WAT      O20215   5.508   4.460   4.957
 4874WAT     H120216   5.589   4.442   4.929
 4874WAT     H220217   5.519   4.474   5.043
 4874WAT    EPW20218   5.522   4.459   4.966
 4875WAT      O20219   5.148   3.084   4.894
 4875WAT     H120220   5.215   3.135   4.917
 4875WAT     H220221   5.134   3.106   4.810
 4875WAT    EPW20222   5.156   3.095   4.885
 4876WAT      O20223   4.177   4.581   5.626
 4876WAT     H120224   4.236   4.636   5.593
 4876WAT     H220225   4.103   4.604   5.587
 4876WAT    EPW20226   4.175   4.593   5.616
 4877WAT      O20227   5.093   3.579   4.667
 4877WAT     H120228   5.149   3.516   4.690
 4877WAT     H220229   5.051   3.598   4.741
 4877WAT    EPW20230   5.095   3.572   4.681
 4878WAT      O20231   5.233   3.756   4.307
 4878WAT     H120232   5.256   3.674   4.327
 4878WAT     H220233   5.146   3.756   4.317
 4878WAT    EPW20234   5.224   3.744   4.311
 4879WAT      O20235   5.577   4.696   3.921
 4879WAT     H120236   5.644   4.689   3.977
 4879WAT     H220237   5.557   4.614   3.902
 4879WAT    EPW20238   5.584   4.683   3.926
 4880WAT      O20239   5.586   3.971   5.653
 4880WAT     H120240   5.652   3.923   5.684
 4880WAT     H220241   5.623   4.019   5.590
 4880WAT    EPW20242   5.601   3.971   5.649
 4881WAT      O20243   5.150   4.261   4.152
 4881WAT     H120244   5.094   4.325   4.132
 4881WAT     H220245   5.130   4.198   4.096
 4881WAT    EPW20246   5.139   4.261   4.141
 4882WAT      O20247   5.643   3.383   5.761
 4882WAT     H120248   5.633   3.465   5.790
 4882WAT     H220249   5.567   3.367   5.721
 4882WAT    EPW20250   5.630   3.393   5.759
 4883WAT      O20251   5.633   3.481   5.102
 4883WAT     H120252   5.552   3.501   5.076
 4883WAT     H220253   5.637   3.394   5.091
 4883WAT    EPW20254   5.622   3.471   5.096
 4884WAT      O20255   4.478   3.177   5.550
 4884WAT     H120256   4.508   3.096   5.540
 4884WAT     H220257   4.399   3.174   5.513
 4884WAT    EPW20258   4.471   3.164   5.543
 4885WAT      O20259   5.383   3.990   5.855
 4885WAT     H120260   5.445   4.016   5.911
 4885WAT     H220261   5.422   3.995   5.778
 4885WAT    EPW20262   5.398   3.995   5.852
 4886WAT      O20263   4.847   4.085   4.130
 4886WAT     H120264   4.914   4.050   4.087
 4886WAT     H220265   4.859   4.171   4.120
 4886WAT    EPW20266   4.859   4.092   4.122
 4887WAT      O20267   4.949   3.689   3.004
 4887WAT     H120268   4.865   3.696   3.024
 4887WAT     H220269   4.986   3.665   3.079
 4887WAT    EPW20270   4.942   3.686   3.018
 4888WAT      O20271   5.585   4.487   2.336
 4888WAT     H120272   5.650   4.436   2.365
 4888WAT     H220273   5.539   4.434   2.285
 4888WAT    EPW20274   5.588   4.471   2.333
 4889WAT      O20275   5.220   3.827   2.702
 4889WAT     H120276   5.242   3.816   2.618
 4889WAT     H220277   5.168   3.759   2.719
 4889WAT    EPW20278   5.216   3.815   2.692
 4890WAT      O20279   4.104   4.439   2.103
 4890WAT     H120280   4.149   4.466   2.034
 4890WAT     H220281   4.154   4.376   2.137
 4890WAT    EPW20282   4.118   4.434   2.098
 4891WAT      O20283   4.757   4.140   2.437
 4891WAT     H120284   4.800   4.098   2.501
 4891WAT     H220285   4.730   4.076   2.385
 4891WAT    EPW20286   4.760   4.124   2.439
 4892WAT      O20287   5.386   2.831   3.539
 4892WAT     H120288   5.390   2.865   3.458
 4892WAT     H220289   5.300   2.823   3.553
 4892WAT    EPW20290   5.374   2.835   3.529
 4893WAT      O20291   5.192   3.294   1.967
 4893WAT     H120292   5.183   3.379   1.984
 4893WAT     H220293   5.193   3.257   2.046
 4893WAT    EPW20294   5.191   3.301   1.981
 4894WAT      O20295   4.563   4.342   2.485
 4894WAT     H120296   4.524   4.330   2.562
 4894WAT     H220297   4.621   4.276   2.482
 4894WAT    EPW20298   4.566   4.330   2.496
 4895WAT      O20299   5.182   4.582   2.260
 4895WAT     H120300   5.255   4.629   2.269
 4895WAT     H220301   5.208   4.501   2.277
 4895WAT    EPW20302   5.197   4.577   2.263
 4896WAT      O20303   4.971   4.600   2.438
 4896WAT     H120304   4.987   4.665   2.495
 4896WAT     H220305   5.041   4.602   2.386
 4896WAT    EPW20306   4.984   4.610   2.439
 4897WAT      O20307   5.739   3.299   2.725
 4897WAT     H120308   5.777   3.269   2.798
 4897WAT     H220309   5.679   3.237   2.707
 4897WAT    EPW20310   5.736   3.285   2.733
 4898WAT      O20311   5.316   4.640   3.316
 4898WAT     H120312   5.358   4.707   3.278
 4898WAT     H220313   5.358   4.570   3.286
 4898WAT    EPW20314   5.329   4.639   3.306
 4899WAT      O20315   4.918   3.530   2.562
 4899WAT     H120316   4.845   3.504   2.602
 4899WAT     H220317   4.971   3.551   2.627
 4899WAT    EPW20318   4.915   3.530   2.577
 4900WAT      O20319   5.393   4.772   2.246
 4900WAT     H120320   5.441   4.746   2.178
 4900WAT     H220321   5.451   4.811   2.298
 4900WAT    EPW20322   5.409   4.774   2.244
 4901WAT      O20323   4.375   4.657   3.309
 4901WAT     H120324   4.389   4.602   3.375
 4901WAT     H220325   4.332   4.609   3.250
 4901WAT    EPW20326   4.370   4.642   3.310
 4902WAT      O20327   5.652   3.234   3.160
 4902WAT     H120328   5.713   3.218   3.099
 4902WAT     H220329   5.674   3.180   3.225
 4902WAT    EPW20330   5.664   3.224   3.160
 4903WAT      O20331   5.154   4.399   3.617
 4903WAT     H120332   5.120   4.327   3.653
 4903WAT     H220333   5.240   4.382   3.615
 4903WAT    EPW20334   5.162   4.386   3.622
 4904WAT      O20335   5.203   3.165   2.216
 4904WAT     H120336   5.260   3.099   2.226
 4904WAT     H220337   5.221   3.218   2.283
 4904WAT    EPW20338   5.214   3.163   2.228
 4905WAT      O20339   5.045   4.706   3.337
 4905WAT     H120340   5.128   4.686   3.321
 4905WAT     H220341   5.010   4.714   3.257
 4905WAT    EPW20342   5.052   4.704   3.323
 4906WAT      O20343   4.986   3.083   2.375
 4906WAT     H120344   4.912   3.079   2.329
 4906WAT     H220345   5.048   3.095   2.314
 4906WAT    EPW20346   4.984   3.084   2.359
 4907WAT      O20347   5.675   4.673   2.641
 4907WAT     H120348   5.635   4.749   2.655
 4907WAT     H220349   5.609   4.618   2.625
 4907WAT    EPW20350   5.659   4.676   2.641
 4908WAT      O20351   5.372   4.273   2.681
 4908WAT     H120352   5.434   4.212   2.683
 4908WAT     H220353   5.298   4.227   2.684
 4908WAT    EPW20354   5.370   4.257   2.682
 4909WAT      O20355   5.063   3.317   3.492
 4909WAT     H120356   5.036   3.396   3.517
 4909WAT     H220357   5.009   3.263   3.535
 4909WAT    EPW20358   5.051   3.321   3.502
 4910WAT      O20359   5.192   4.034   3.209
 4910WAT     H120360   5.140   4.013   3.276
 4910WAT     H220361   5.138   4.073   3.152
 4910WAT    EPW20362   5.176   4.036   3.210
 4911WAT      O20363   5.382   2.936   2.691
 4911WAT     H120364   5.364   2.918   2.774
 4911WAT     H220365   5.367   2.861   2.649
 4911WAT    EPW20366   5.377   2.922   2.697
 4912WAT      O20367   5.497   3.452   3.493
 4912WAT     H120368   5.570   3.411   3.515
 4912WAT     H220369   5.487   3.512   3.555
 4912WAT    EPW20370   5.506   3.455   3.505
 4913WAT      O20371   5.830   4.483   3.634
 4913WAT     H120372   5.757   4.480   3.587
 4913WAT     H220373   5.810   4.435   3.705
 4913WAT    EPW20374   5.816   4.475   3.638
 4914WAT      O20375   5.377   3.708   2.150
 4914WAT     H120376   5.362   3.787   2.116
 4914WAT     H220377   5.355   3.717   2.234
 4914WAT    EPW20378   5.371   3.721   2.157
 4915WAT      O20379   5.730   3.220   2.176
 4915WAT     H120380   5.778   3.153   2.148
 4915WAT     H220381   5.704   3.259   2.102
 4915WAT    EPW20382   5.733   3.216   2.161
 4916WAT      O20383   4.708   3.464   3.782
 4916WAT     H120384   4.648   3.407   3.811
 4916WAT     H220385   4.713   3.447   3.697
 4916WAT    EPW20386   4.700   3.453   3.774
 4917WAT      O20387   5.786   3.660   3.418
 4917WAT     H120388   5.824   3.586   3.391
 4917WAT     H220389   5.708   3.660   3.379
 4917WAT    EPW20390   5.780   3.649   3.408
 4918WAT      O20391   5.564   3.118   2.380
 4918WAT     H120392   5.633   3.072   2.406
 4918WAT     H220393   5.597   3.172   2.320
 4918WAT    EPW20394   5.579   3.119   2.375
 4919WAT      O20395   5.250   3.392   2.881
 4919WAT     H120396   5.268   3.433   2.956
 4919WAT     H220397   5.227   3.312   2.906
 4919WAT    EPW20398   5.249   3.386   2.896
 4920WAT      O20399   3.956   4.093   2.147
 4920WAT     H120400   3.989   4.013   2.142
 4920WAT     H220401   4.017   4.138   2.190
 4920WAT    EPW20402   3.970   4.088   2.153
 4921WAT      O20403   5.598   4.499   3.472
 4921WAT     H120404   5.578   4.583   3.484
 4921WAT     H220405   5.585   4.487   3.387
 4921WAT    EPW20406   5.593   4.510   3.462
 4922WAT      O20407   5.321   3.559   3.089
 4922WAT     H120408   5.249   3.572   3.136
 4922WAT     H220409   5.321   3.625   3.032
 4922WAT    EPW20410   5.311   3.571   3.088
 4923WAT      O20411   5.115   3.336   2.453
 4923WAT     H120412   5.055   3.396   2.475
 4923WAT     H220413   5.071   3.261   2.457
 4923WAT    EPW20414   5.099   3.334   2.457
 4924WAT      O20415   5.311   4.077   3.643
 4924WAT     H120416   5.353   4.153   3.636
 4924WAT     H220417   5.348   4.028   3.580
 4924WAT    EPW20418   5.323   4.081   3.632
 4925WAT      O20419   4.736   4.291   3.832
 4925WAT     H120420   4.666   4.275   3.881
 4925WAT     H220421   4.739   4.222   3.778
 4925WAT    EPW20422   4.726   4.278   3.831
 4926WAT      O20423   5.079   3.768   2.258
 4926WAT     H120424   5.056   3.783   2.175
 4926WAT     H220425   5.004   3.779   2.302
 4926WAT    EPW20426   5.064   3.772   2.252
 4927WAT      O20427   5.575   4.076   2.688
 4927WAT     H120428   5.578   4.025   2.758
 4927WAT     H220429   5.554   4.021   2.623
 4927WAT    EPW20430   5.572   4.060   2.689
 4928WAT      O20431   4.564   4.613   2.402
 4928WAT     H120432   4.573   4.541   2.450
 4928WAT     H220433   4.632   4.611   2.347
 4928WAT    EPW20434   4.575   4.602   2.401
 4929WAT      O20435   4.787   4.611   2.233
 4929WAT     H120436   4.844   4.608   2.299
 4929WAT     H220437   4.790   4.694   2.207
 4929WAT    EPW20438   4.796   4.623   2.239
 4930WAT      O20439   5.440   3.928   3.443
 4930WAT     H120440   5.433   3.943   3.357
 4930WAT     H220441   5.519   3.960   3.463
 4930WAT    EPW20442   5.451   3.935   3.433
 4931WAT      O20443   5.034   4.577   3.944
 4931WAT     H120444   5.088   4.585   4.013
 4931WAT     H220445   4.979   4.514   3.968
 4931WAT    EPW20446   5.034   4.569   3.958
 4932WAT      O20447   5.482   3.015   3.731
 4932WAT     H120448   5.454   2.955   3.675
 4932WAT     H220449   5.496   2.969   3.804
 4932WAT    EPW20450   5.480   2.999   3.734
 4933WAT      O20451   4.945   3.968   3.439
 4933WAT     H120452   4.859   3.960   3.444
 4933WAT     H220453   4.973   3.885   3.437
 4933WAT    EPW20454   4.937   3.955   3.439
 4934WAT      O20455   4.864   3.786   2.438
 4934WAT     H120456   4.883   3.843   2.502
 4934WAT     H220457   4.876   3.708   2.476
 4934WAT    EPW20458   4.869   3.783   2.453
 4935WAT      O20459   5.395   4.220   3.134
 4935WAT     H120460   5.366   4.233   3.052
 4935WAT     H220461   5.336   4.167   3.169
 4935WAT    EPW20462   5.382   4.214   3.127
 4936WAT      O20463   4.438   4.616   2.070
 4936WAT     H120464   4.468   4.548   2.117
 4936WAT     H220465   4.463   4.685   2.117
 4936WAT    EPW20466   4.446   4.616   2.084
 4937WAT      O20467   5.783   4.639   2.218
 4937WAT     H120468   5.843   4.585   2.187
 4937WAT     H220469   5.724   4.586   2.253
 4937WAT    EPW20470   5.783   4.623   2.219
 4938WAT      O20471   5.446   3.892   3.157
 4938WAT     H120472   5.455   3.812   3.192
 4938WAT     H220473   5.360   3.906   3.158
 4938WAT    EPW20474   5.435   3.882   3.162
 4939WAT      O20475   5.591   3.902   2.913
 4939WAT     H120476   5.556   3.908   2.993
 4939WAT     H220477   5.676   3.891   2.928
 4939WAT    EPW20478   5.598   3.901   2.927
 4940WAT      O20479   5.734   4.423   3.020
 4940WAT     H120480   5.775   4.465   2.956
 4940WAT     H220481   5.794   4.418   3.083
 4940WAT    EPW20482   5.749   4.429   3.020
 4941WAT      O20483   5.235   3.660   3.789
 4941WAT     H120484   5.255   3.668   3.873
 4941WAT     H220485   5.151   3.685   3.785
 4941WAT    EPW20486   5.225   3.665   3.801
 4942WAT      O20487   5.476   3.678   3.660
 4942WAT     H120488   5.498   3.761   3.674
 4942WAT     H220489   5.399   3.670   3.700
 4942WAT    EPW20490   5.468   3.689   3.668
 4943WAT      O20491   5.447   4.312   2.179
 4943WAT     H120492   5.489   4.235   2.185
 4943WAT     H220493   5.370   4.296   2.218
 4943WAT    EPW20494   5.442   4.298   2.186
 4944WAT      O20495   5.772   3.788   3.882
 4944WAT     H120496   5.784   3.726   3.822
 4944WAT     H220497   5.850   3.826   3.889
 4944WAT    EPW20498   5.785   3.785   3.874
 4945WAT      O20499   5.684   4.052   3.489
 4945WAT     H120500   5.755   4.007   3.468
 4945WAT     H220501   5.671   4.103   3.419
 4945WAT    EPW20502   5.693   4.053   3.475
 4946WAT      O20503   5.091   4.109   2.111
 4946WAT     H120504   5.159   4.056   2.119
 4946WAT     H220505   5.070   4.103   2.026
 4946WAT    EPW20506   5.098   4.101   2.099
 4947WAT      O20507   5.323   3.242   3.472
 4947WAT     H120508   5.369   3.316   3.473
 4947WAT     H220509   5.241   3.269   3.468
 4947WAT    EPW20510   5.318   3.257   3.472
 4948WAT      O20511   5.452   2.922   3.282
 4948WAT     H120512   5.418   2.999   3.259
 4948WAT     H220513   5.536   2.942   3.299
 4948WAT    EPW20514   5.460   2.936   3.281
 4949WAT      O20515   5.040   4.029   3.695
 4949WAT     H120516   5.124   4.040   3.673
 4949WAT     H220517   5.000   4.018   3.618
 4949WAT    EPW20518   5.047   4.029   3.680
 4950WAT      O20519   5.425   4.337   3.624
 4950WAT     H120520   5.455   4.363   3.702
 4950WAT     H220521   5.477   4.378   3.567
 4950WAT    EPW20522   5.437   4.347   3.627
 4951WAT      O20523   5.629   3.595   2.124
 4951WAT     H120524   5.685   3.649   2.085
 4951WAT     H220525   5.555   3.642   2.128
 4951WAT    EPW20526   5.626   3.610   2.119
 4952WAT      O20527   4.731   3.846   1.980
 4952WAT     H120528   4.701   3.784   1.926
 4952WAT     H220529   4.700   3.920   1.945
 4952WAT    EPW20530   4.722   3.848   1.967
 4953WAT      O20531   4.995   3.571   3.589
 4953WAT     H120532   4.928   3.575   3.533
 4953WAT     H220533   4.959   3.596   3.664
 4953WAT    EPW20534   4.980   3.575   3.592
 4954WAT      O20535   5.069   3.600   3.239
 4954WAT     H120536   5.096   3.653   3.303
 4954WAT     H220537   4.996   3.565   3.272
 4954WAT    EPW20538   5.062   3.603   3.253
 4955WAT      O20539   4.821   4.511   3.663
 4955WAT     H120540   4.836   4.476   3.585
 4955WAT     H220541   4.788   4.445   3.709
 4955WAT    EPW20542   4.818   4.497   3.658
 4956WAT      O20543   5.339   3.498   2.529
 4956WAT     H120544   5.282   3.437   2.505
 4956WAT     H220545   5.407   3.486   2.476
 4956WAT    EPW20546   5.340   3.487   2.518
 4957WAT      O20547   5.494   3.187   2.640
 4957WAT     H120548   5.448   3.117   2.662
 4957WAT     H220549   5.510   3.177   2.555
 4957WAT    EPW20550   5.490   3.175   2.631
 4958WAT      O20551   5.527   3.909   2.476
 4958WAT     H120552   5.559   3.934   2.399
 4958WAT     H220553   5.456   3.862   2.456
 4958WAT    EPW20554   5.522   3.906   2.462
 4959WAT      O20555   5.141   4.099   2.742
 4959WAT     H120556   5.132   4.123   2.826
 4959WAT     H220557   5.174   4.018   2.748
 4959WAT    EPW20558   5.145   4.091   2.755
 4960WAT      O20559   4.899   3.998   2.632
 4960WAT     H120560   4.863   3.981   2.709
 4960WAT     H220561   4.975   4.035   2.653
 4960WAT    EPW20562   4.905   4.001   2.646
 4961WAT      O20563   4.955   4.454   3.424
 4961WAT     H120564   5.027   4.424   3.463
 4961WAT     H220565   4.981   4.529   3.388
 4961WAT    EPW20566   4.969   4.461   3.425
 4962WAT      O20567   5.744   3.597   3.685
 4962WAT     H120568   5.658   3.611   3.689
 4962WAT     H220569   5.766   3.624   3.605
 4962WAT    EPW20570   5.735   3.603   3.674
 4963WAT      O20571   5.151   3.755   3.457
 4963WAT     H120572   5.109   3.698   3.509
 4963WAT     H220573   5.222   3.776   3.503
 4963WAT    EPW20574   5.155   3.750   3.472
 4964WAT      O20575   4.173   4.822   3.776
 4964WAT     H120576   4.090   4.799   3.758
 4964WAT     H220577   4.167   4.858   3.855
 4964WAT    EPW20578   4.160   4.824   3.785
 4965WAT      O20579   4.972   3.772   3.812
 4965WAT     H120580   4.994   3.850   3.779
 4965WAT     H220581   4.885   3.774   3.814
 4965WAT    EPW20582   4.962   3.784   3.807
 4966WAT      O20583   5.312   4.708   2.936
 4966WAT     H120584   5.257   4.757   2.981
 4966WAT     H220585   5.378   4.694   2.992
 4966WAT    EPW20586   5.314   4.713   2.951
 4967WAT      O20587   5.534   4.431   3.861
 4967WAT     H120588   5.614   4.397   3.871
 4967WAT     H220589   5.490   4.400   3.930
 4967WAT    EPW20590   5.539   4.422   3.873
 4968WAT      O20591   5.578   3.498   2.391
 4968WAT     H120592   5.587   3.525   2.308
 4968WAT     H220593   5.652   3.524   2.429
 4968WAT    EPW20594   5.590   3.506   2.384
 4969WAT      O20595   4.993   4.323   2.482
 4969WAT     H120596   4.978   4.409   2.484
 4969WAT     H220597   4.913   4.288   2.483
 4969WAT    EPW20598   4.979   4.331   2.483
 4970WAT      O20599   5.523   3.680   3.330
 4970WAT     H120600   5.498   3.602   3.361
 4970WAT     H220601   5.495   3.735   3.391
 4970WAT    EPW20602   5.515   3.676   3.343
 4971WAT      O20603   5.042   3.104   3.713
 4971WAT     H120604   5.024   3.149   3.785
 4971WAT     H220605   4.967   3.062   3.696
 4971WAT    EPW20606   5.028   3.105   3.721
 4972WAT      O20607   4.499   4.380   2.207
 4972WAT     H120608   4.524   4.384   2.291
 4972WAT     H220609   4.419   4.347   2.211
 4972WAT    EPW20610   4.491   4.376   2.220
 4973WAT      O20611   5.376   3.177   3.209
 4973WAT     H120612   5.458   3.204   3.194
 4973WAT     H220613   5.362   3.202   3.291
 4973WAT    EPW20614   5.386   3.185   3.219
 4974WAT      O20615   5.416   3.695   2.848
 4974WAT     H120616   5.476   3.755   2.864
 4974WAT     H220617   5.357   3.737   2.800
 4974WAT    EPW20618   5.416   3.710   2.843
 4975WAT      O20619   5.449   4.523   2.576
 4975WAT     H120620   5.422   4.446   2.609
 4975WAT     H220621   5.478   4.502   2.497
 4975WAT    EPW20622   5.449   4.508   2.569
 4976WAT      O20623   4.258   4.228   2.221
 4976WAT     H120624   4.261   4.211   2.306
 4976WAT     H220625   4.312   4.169   2.186
 4976WAT    EPW20626   4.266   4.217   2.228
 4977WAT      O20627   4.503   4.104   2.138
 4977WAT     H120628   4.552   4.046   2.182
 4977WAT     H220629   4.540   4.180   2.156
 4977WAT    EPW20630   4.515   4.106   2.147
 4978WAT      O20631   5.702   3.034   3.352
 4978WAT     H120632   5.707   3.049   3.438
 4978WAT     H220633   5.770   2.982   3.337
 4978WAT    EPW20634   5.713   3.029   3.362
 4979WAT      O20635   5.660   4.160   3.229
 4979WAT     H120636   5.699   4.114   3.166
 4979WAT     H220637   5.580   4.174   3.197
 4979WAT    EPW20638   5.654   4.156   3.215
 4980WAT      O20639   4.630   4.716   3.645
 4980WAT     H120640   4.551   4.692   3.674
 4980WAT     H220641   4.676   4.642   3.647
 4980WAT    EPW20642   4.625   4.702   3.650
 4981WAT      O20643   5.513   4.462   3.204
 4981WAT     H120644   5.576   4.465   3.144
 4981WAT     H220645   5.471   4.387   3.186
 4981WAT    EPW20646   5.516   4.451   3.192
 4982WAT      O20647   5.194   3.146   3.006
 4982WAT     H120648   5.246   3.162   3.075
 4982WAT     H220649   5.115   3.135   3.042
 4982WAT    EPW20650   5.190   3.146   3.021
 4983WAT      O20651   4.378   4.630   3.747
 4983WAT     H120652   4.345   4.567   3.797
 4983WAT     H220653   4.318   4.693   3.751
 4983WAT    EPW20654   4.364   4.630   3.755
 4984WAT      O20655   5.079   3.596   2.776
 4984WAT     H120656   5.128   3.529   2.804
 4984WAT     H220657   5.036   3.621   2.848
 4984WAT    EPW20658   5.080   3.590   2.791
 4985WAT      O20659   5.293   3.755   2.432
 4985WAT     H120660   5.297   3.672   2.459
 4985WAT     H220661   5.219   3.757   2.384
 4985WAT    EPW20662   5.283   3.743   2.429
 4986WAT      O20663   4.290   4.611   2.344
 4986WAT     H120664   4.288   4.613   2.256
 4986WAT     H220665   4.375   4.612   2.363
 4986WAT    EPW20666   4.302   4.612   2.334
 4987WAT      O20667   4.696   3.928   2.255
 4987WAT     H120668   4.709   3.893   2.176
 4987WAT     H220669   4.732   3.869   2.309
 4987WAT    EPW20670   4.703   3.914   2.251
 4988WAT      O20671   5.570   4.701   2.043
 4988WAT     H120672   5.641   4.688   2.092
 4988WAT     H220673   5.552   4.622   2.011
 4988WAT    EPW20674   5.578   4.687   2.046
 4989WAT      O20675   5.585   3.927   3.729
 4989WAT     H120676   5.648   3.900   3.782
 4989WAT     H220677   5.626   3.979   3.672
 4989WAT    EPW20678   5.600   3.931   3.729
 4990WAT      O20679   5.193   4.301   2.289
 4990WAT     H120680   5.141   4.298   2.359
 4990WAT     H220681   5.156   4.246   2.233
 4990WAT    EPW20682   5.180   4.293   2.291
 4991WAT      O20683   5.525   3.364   3.845
 4991WAT     H120684   5.535   3.438   3.890
 4991WAT     H220685   5.591   3.314   3.873
 4991WAT    EPW20686   5.536   3.368   3.856
 4992WAT      O20687   5.593   3.476   3.017
 4992WAT     H120688   5.522   3.509   3.055
 4992WAT     H220689   5.613   3.407   3.066
 4992WAT    EPW20690   5.586   3.471   3.030
 4993WAT      O20691   5.348   3.976   3.923
 4993WAT     H120692   5.414   4.012   3.967
 4993WAT     H220693   5.370   3.988   3.839
 4993WAT    EPW20694   5.361   3.983   3.917
 4994WAT      O20695   4.851   4.233   2.184
 4994WAT     H120696   4.920   4.182   2.168
 4994WAT     H220697   4.830   4.213   2.267
 4994WAT    EPW20698   4.858   4.222   2.194
 4995WAT      O20699   5.071   2.988   0.661
 4995WAT     H120700   5.087   3.020   0.581
 4995WAT     H220701   5.146   2.950   0.684
 4995WAT    EPW20702   5.084   2.987   0.652
 4996WAT      O20703   4.979   3.624   1.149
 4996WAT     H120704   4.945   3.701   1.174
 4996WAT     H220705   5.042   3.609   1.207
 4996WAT    EPW20706   4.983   3.633   1.161
 4997WAT      O20707   3.966   4.108   0.676
 4997WAT     H120708   3.958   4.113   0.763
 4997WAT     H220709   3.964   4.023   0.660
 4997WAT    EPW20710   3.965   4.096   0.687
 4998WAT      O20711   5.595   4.461   0.462
 4998WAT     H120712   5.658   4.404   0.480
 4998WAT     H220713   5.545   4.420   0.405
 4998WAT    EPW20714   5.597   4.447   0.457
 4999WAT      O20715   3.982   3.460   0.331
 4999WAT     H120716   3.929   3.520   0.295
 4999WAT     H220717   3.941   3.385   0.314
 4999WAT    EPW20718   3.968   3.458   0.323
 5000WAT      O20719   4.227   4.003   0.257
 5000WAT     H120720   4.214   3.962   0.182
 5000WAT     H220721   4.235   3.938   0.315
 5000WAT    EPW20722   4.227   3.988   0.255
 5001WAT      O20723   5.238   3.817   0.813
 5001WAT     H120724   5.253   3.803   0.728
 5001WAT     H220725   5.181   3.753   0.833
 5001WAT    EPW20726   5.232   3.805   0.803
 5002WAT      O20727   4.215   4.216   0.621
 5002WAT     H120728   4.269   4.184   0.682
 5002WAT     H220729   4.139   4.177   0.638
 5002WAT    EPW20730   4.212   4.206   0.633
 5003WAT      O20731   4.723   3.109   0.616
 5003WAT     H120732   4.720   3.182   0.570
 5003WAT     H220733   4.765   3.053   0.564
 5003WAT    EPW20734   4.729   3.111   0.602
 5004WAT      O20735   4.127   4.512   0.268
 5004WAT     H120736   4.159   4.517   0.187
 5004WAT     H220737   4.152   4.432   0.294
 5004WAT    EPW20738   4.136   4.501   0.260
 5005WAT      O20739   3.992   4.308   1.323
 5005WAT     H120740   4.024   4.298   1.404
 5005WAT     H220741   3.924   4.253   1.321
 5005WAT    EPW20742   3.987   4.298   1.335
 5006WAT      O20743   4.594   4.070   1.878
 5006WAT     H120744   4.553   4.079   1.955
 5006WAT     H220745   4.528   4.071   1.820
 5006WAT    EPW20746   4.578   4.072   1.881
 5007WAT      O20747   4.168   3.866   0.824
 5007WAT     H120748   4.119   3.862   0.752
 5007WAT     H220749   4.221   3.797   0.817
 5007WAT    EPW20750   4.169   3.855   0.812
 5008WAT      O20751   4.583   3.397   1.352
 5008WAT     H120752   4.654   3.397   1.302
 5008WAT     H220753   4.563   3.312   1.360
 5008WAT    EPW20754   4.590   3.384   1.346
 5009WAT      O20755   4.664   4.384   1.571
 5009WAT     H120756   4.624   4.460   1.558
 5009WAT     H220757   4.748   4.403   1.559
 5009WAT    EPW20758   4.671   4.398   1.567
 5010WAT      O20759   4.309   3.629   0.803
 5010WAT     H120760   4.369   3.571   0.827
 5010WAT     H220761   4.234   3.585   0.807
 5010WAT    EPW20762   4.307   3.614   0.807
 5011WAT      O20763   4.738   4.282   0.959
 5011WAT     H120764   4.759   4.200   0.978
 5011WAT     H220765   4.816   4.322   0.950
 5011WAT    EPW20766   4.753   4.276   0.960
 5012WAT      O20767   4.772   4.191   0.588
 5012WAT     H120768   4.812   4.133   0.640
 5012WAT     H220769   4.806   4.176   0.510
 5012WAT    EPW20770   4.783   4.180   0.584
 5013WAT      O20771   4.938   3.655   1.740
 5013WAT     H120772   4.852   3.665   1.728
 5013WAT     H220773   4.955   3.703   1.810
 5013WAT    EPW20774   4.928   3.663   1.748
 5014WAT      O20775   4.451   3.134   0.690
 5014WAT     H120776   4.415   3.177   0.623
 5014WAT     H220777   4.533   3.121   0.664
 5014WAT    EPW20778   4.458   3.138   0.676
 5015WAT      O20779   5.394   2.874   1.649
 5015WAT     H120780   5.375   2.952   1.614
 5015WAT     H220781   5.320   2.850   1.688
 5015WAT    EPW20782   5.380   2.882   1.650
 5016WAT      O20783   4.784   3.124   0.883
 5016WAT     H120784   4.761   3.207   0.895
 5016WAT     H220785   4.768   3.110   0.799
 5016WAT    EPW20786   4.778   3.134   0.872
 5017WAT      O20787   3.952   3.611   1.072
 5017WAT     H120788   3.963   3.686   1.116
 5017WAT     H220789   3.885   3.573   1.112
 5017WAT    EPW20790   3.944   3.617   1.084
 5018WAT      O20791   3.968   4.551   0.877
 5018WAT     H120792   3.906   4.600   0.840
 5018WAT     H220793   4.009   4.516   0.809
 5018WAT    EPW20794   3.965   4.553   0.862
 5019WAT      O20795   4.589   4.404   0.584
 5019WAT     H120796   4.547   4.392   0.659
 5019WAT     H220797   4.653   4.345   0.587
 5019WAT    EPW20798   4.592   4.394   0.596
 5020WAT      O20799   5.165   4.547   0.390
 5020WAT     H120800   5.228   4.607   0.378
 5020WAT     H220801   5.208   4.480   0.425
 5020WAT    EPW20802   5.181   4.546   0.393
 5021WAT      O20803   4.959   4.616   0.558
 5021WAT     H120804   4.993   4.684   0.601
 5021WAT     H220805   5.019   4.596   0.499
 5021WAT    EPW20806   4.973   4.623   0.556
 5022WAT      O20807   4.107   4.470   0.648
 5022WAT     H120808   4.156   4.398   0.656
 5022WAT     H220809   4.157   4.525   0.603
 5022WAT    EPW20810   4.122   4.467   0.643
 5023WAT      O20811   5.701   3.265   0.813
 5023WAT     H120812   5.650   3.335   0.823
 5023WAT     H220813   5.645   3.202   0.793
 5023WAT    EPW20814   5.685   3.266   0.812
 5024WAT      O20815   5.240   4.594   1.365
 5024WAT     H120816   5.306   4.649   1.350
 5024WAT     H220817   5.218   4.566   1.285
 5024WAT    EPW20818   5.247   4.598   1.351
 5025WAT      O20819   4.245   4.270   1.020
 5025WAT     H120820   4.294   4.242   0.954
 5025WAT     H220821   4.275   4.225   1.089
 5025WAT    EPW20822   4.257   4.259   1.021
 5026WAT      O20823   4.548   4.619   0.914
 5026WAT     H120824   4.628   4.631   0.883
 5026WAT     H220825   4.497   4.659   0.856
 5026WAT    EPW20826   4.552   4.626   0.901
 5027WAT      O20827   4.819   2.988   1.868
 5027WAT     H120828   4.836   2.908   1.837
 5027WAT     H220829   4.733   2.996   1.858
 5027WAT    EPW20830   4.809   2.977   1.862
 5028WAT      O20831   4.866   3.559   0.725
 5028WAT     H120832   4.894   3.511   0.658
 5028WAT     H220833   4.937   3.570   0.774
 5028WAT    EPW20834   4.881   3.554   0.723
 5029WAT      O20835   4.972   3.577   0.268
 5029WAT     H120836   4.998   3.654   0.300
 5029WAT     H220837   4.897   3.596   0.228
 5029WAT    EPW20838   4.965   3.591   0.267
 5030WAT      O20839   5.361   4.749   0.345
 5030WAT     H120840   5.404   4.709   0.282
 5030WAT     H220841   5.420   4.804   0.380
 5030WAT    EPW20842   5.376   4.751   0.341
 5031WAT      O20843   5.621   3.190   1.254
 5031WAT     H120844   5.681   3.183   1.191
 5031WAT     H220845   5.661   3.156   1.324
 5031WAT    EPW20846   5.636   3.184   1.255
 5032WAT      O20847   5.145   4.383   1.753
 5032WAT     H120848   5.143   4.413   1.835
 5032WAT     H220849   5.231   4.372   1.738
 5032WAT    EPW20850   5.158   4.386   1.763
 5033WAT      O20851   4.948   4.431   0.246
 5033WAT     H120852   4.889   4.494   0.252
 5033WAT     H220853   5.022   4.469   0.271
 5033WAT    EPW20854   4.950   4.446   0.251
 5034WAT      O20855   5.138   3.069   0.402
 5034WAT     H120856   5.208   3.027   0.372
 5034WAT     H220857   5.170   3.147   0.426
 5034WAT    EPW20858   5.153   3.074   0.402
 5035WAT      O20859   4.039   3.190   0.679
 5035WAT     H120860   4.008   3.120   0.638
 5035WAT     H220861   3.971   3.222   0.722
 5035WAT    EPW20862   4.025   3.184   0.679
 5036WAT      O20863   4.119   4.561   1.313
 5036WAT     H120864   4.081   4.482   1.317
 5036WAT     H220865   4.187   4.549   1.260
 5036WAT    EPW20866   4.123   4.547   1.306
 5037WAT      O20867   4.943   3.421   0.494
 5037WAT     H120868   4.871   3.376   0.476
 5037WAT     H220869   4.957   3.468   0.423
 5037WAT    EPW20870   4.935   3.421   0.481
 5038WAT      O20871   5.000   4.667   1.472
 5038WAT     H120872   5.077   4.651   1.435
 5038WAT     H220873   4.943   4.658   1.407
 5038WAT    EPW20874   5.003   4.663   1.457
 5039WAT      O20875   4.864   3.061   0.359
 5039WAT     H120876   4.840   3.140   0.334
 5039WAT     H220877   4.951   3.066   0.363
 5039WAT    EPW20878   4.874   3.073   0.356
 5040WAT      O20879   5.663   4.691   0.734
 5040WAT     H120880   5.622   4.767   0.748
 5040WAT     H220881   5.598   4.634   0.724
 5040WAT    EPW20882   5.647   4.694   0.734
 5041WAT      O20883   4.714   3.391   0.902
 5041WAT     H120884   4.757   3.447   0.851
 5041WAT     H220885   4.743   3.409   0.982
 5041WAT    EPW20886   4.725   3.402   0.907
 5042WAT      O20887   5.357   4.252   0.730
 5042WAT     H120888   5.424   4.201   0.750
 5042WAT     H220889   5.288   4.211   0.765
 5042WAT    EPW20890   5.356   4.238   0.738
 5043WAT      O20891   4.333   4.390   1.658
 5043WAT     H120892   4.368   4.455   1.612
 5043WAT     H220893   4.311   4.427   1.734
 5043WAT    EPW20894   4.335   4.405   1.662
 5044WAT      O20895   4.334   2.895   0.761
 5044WAT     H120896   4.375   2.968   0.736
 5044WAT     H220897   4.307   2.859   0.686
 5044WAT    EPW20898   4.336   2.900   0.746
 5045WAT      O20899   4.539   3.950   1.092
 5045WAT     H120900   4.565   3.931   1.173
 5045WAT     H220901   4.482   3.886   1.074
 5045WAT    EPW20902   4.534   3.938   1.102
 5046WAT      O20903   5.157   3.311   1.462
 5046WAT     H120904   5.154   3.356   1.536
 5046WAT     H220905   5.092   3.254   1.469
 5046WAT    EPW20906   5.147   3.309   1.474
 5047WAT      O20907   4.640   3.943   1.349
 5047WAT     H120908   4.637   4.030   1.358
 5047WAT     H220909   4.598   3.913   1.419
 5047WAT    EPW20910   4.634   3.952   1.360
 5048WAT      O20911   5.276   4.040   1.351
 5048WAT     H120912   5.200   4.009   1.382
 5048WAT     H220913   5.267   4.127   1.360
 5048WAT    EPW20914   5.263   4.048   1.357
 5049WAT      O20915   5.312   2.887   0.739
 5049WAT     H120916   5.311   2.862   0.823
 5049WAT     H220917   5.344   2.817   0.698
 5049WAT    EPW20918   5.317   2.873   0.745
 5050WAT      O20919   3.893   4.323   1.959
 5050WAT     H120920   3.955   4.365   2.003
 5050WAT     H220921   3.899   4.241   1.988
 5050WAT    EPW20922   3.903   4.317   1.970
 5051WAT      O20923   5.509   3.363   1.562
 5051WAT     H120924   5.594   3.351   1.577
 5051WAT     H220925   5.473   3.361   1.642
 5051WAT    EPW20926   5.516   3.361   1.576
 5052WAT      O20927   4.256   3.218   0.868
 5052WAT     H120928   4.320   3.186   0.818
 5052WAT     H220929   4.185   3.206   0.820
 5052WAT    EPW20930   4.255   3.211   0.854
 5053WAT      O20931   5.560   4.094   0.340
 5053WAT     H120932   5.556   4.042   0.410
 5053WAT     H220933   5.645   4.091   0.317
 5053WAT    EPW20934   5.572   4.086   0.347
 5054WAT      O20935   4.341   4.084   0.826
 5054WAT     H120936   4.413   4.058   0.783
 5054WAT     H220937   4.293   4.011   0.831
 5054WAT    EPW20938   4.345   4.069   0.820
 5055WAT      O20939   4.189   4.697   0.957
 5055WAT     H120940   4.115   4.657   0.934
 5055WAT     H220941   4.233   4.703   0.882
 5055WAT    EPW20942   4.184   4.692   0.943
 5056WAT      O20943   4.134   3.408   1.124
 5056WAT     H120944   4.204   3.435   1.168
 5056WAT     H220945   4.081   3.477   1.123
 5056WAT    EPW20946   4.136   3.422   1.130
 5057WAT      O20947   5.815   4.508   1.685
 5057WAT     H120948   5.739   4.508   1.642
 5057WAT     H220949   5.797   4.464   1.758
 5057WAT    EPW20950   5.801   4.502   1.689
 5058WAT      O20951   5.393   3.691   0.274
 5058WAT     H120952   5.318   3.655   0.247
 5058WAT     H220953   5.370   3.731   0.349
 5058WAT    EPW20954   5.378   3.692   0.281
 5059WAT      O20955   4.547   4.017   0.651
 5059WAT     H120956   4.605   4.075   0.623
 5059WAT     H220957   4.558   3.949   0.597
 5059WAT    EPW20958   4.557   4.015   0.639
 5060WAT      O20959   5.691   3.250   0.225
 5060WAT     H120960   5.710   3.177   0.181
 5060WAT     H220961   5.648   3.299   0.166
 5060WAT    EPW20962   5.687   3.247   0.210
 5061WAT      O20963   3.991   4.173   0.956
 5061WAT     H120964   3.937   4.232   0.989
 5061WAT     H220965   4.070   4.205   0.972
 5061WAT    EPW20966   3.994   4.186   0.963
 5062WAT      O20967   5.795   3.639   1.474
 5062WAT     H120968   5.827   3.567   1.435
 5062WAT     H220969   5.711   3.638   1.451
 5062WAT    EPW20970   5.787   3.628   1.465
 5063WAT      O20971   4.029   3.842   0.590
 5063WAT     H120972   4.003   3.759   0.594
 5063WAT     H220973   4.100   3.839   0.540
 5063WAT    EPW20974   4.036   3.829   0.583
 5064WAT      O20975   5.561   3.103   0.440
 5064WAT     H120976   5.635   3.063   0.461
 5064WAT     H220977   5.586   3.165   0.384
 5064WAT    EPW20978   5.576   3.106   0.435
 5065WAT      O20979   4.971   4.432   0.915
 5065WAT     H120980   4.926   4.504   0.897
 5065WAT     H220981   4.993   4.401   0.836
 5065WAT    EPW20982   4.968   4.438   0.901
 5066WAT      O20983   3.930   4.314   0.498
 5066WAT     H120984   3.985   4.370   0.538
 5066WAT     H220985   3.924   4.248   0.554
 5066WAT    EPW20986   3.938   4.313   0.512
 5067WAT      O20987   4.370   4.126   1.221
 5067WAT     H120988   4.428   4.165   1.274
 5067WAT     H220989   4.420   4.076   1.170
 5067WAT    EPW20990   4.386   4.124   1.221
 5068WAT      O20991   5.234   3.365   0.946
 5068WAT     H120992   5.254   3.354   1.030
 5068WAT     H220993   5.184   3.296   0.927
 5068WAT    EPW20994   5.230   3.353   0.955
 5069WAT      O20995   3.952   4.114   0.296
 5069WAT     H120996   4.033   4.081   0.290
 5069WAT     H220997   3.961   4.183   0.349
 5069WAT    EPW20998   3.965   4.119   0.303
 5070WAT      O20999   4.020   3.915   1.057
 5070WAT     H121000   4.070   3.886   0.992
 5070WAT     H221001   4.009   4.000   1.039
 5070WAT    EPW21002   4.026   3.923   1.045
 5071WAT      O21003   4.693   3.306   0.417
 5071WAT     H121004   4.636   3.244   0.396
 5071WAT     H221005   4.648   3.380   0.406
 5071WAT    EPW21006   4.678   3.308   0.412
 5072WAT      O21007   5.562   4.518   1.546
 5072WAT     H121008   5.518   4.592   1.558
 5072WAT     H221009   5.557   4.504   1.460
 5072WAT    EPW21010   5.555   4.527   1.535
 5073WAT      O21011   4.492   4.361   0.838
 5073WAT     H121012   4.500   4.442   0.869
 5073WAT     H221013   4.561   4.319   0.871
 5073WAT    EPW21014   4.503   4.367   0.847
 5074WAT      O21015   4.254   3.523   0.393
 5074WAT     H121016   4.262   3.459   0.452
 5074WAT     H221017   4.175   3.509   0.359
 5074WAT    EPW21018   4.243   3.511   0.396
 5075WAT      O21019   4.357   3.749   1.054
 5075WAT     H121020   4.344   3.712   0.976
 5075WAT     H221021   4.365   3.680   1.108
 5075WAT    EPW21022   4.356   3.733   1.051
 5076WAT      O21023   4.305   3.702   1.419
 5076WAT     H121024   4.332   3.650   1.355
 5076WAT     H221025   4.261   3.765   1.378
 5076WAT    EPW21026   4.302   3.704   1.404
 5077WAT      O21027   5.404   3.509   1.168
 5077WAT     H121028   5.339   3.535   1.219
 5077WAT     H221029   5.407   3.569   1.105
 5077WAT    EPW21030   5.395   3.521   1.166
 5078WAT      O21031   4.819   4.615   1.269
 5078WAT     H121032   4.765   4.553   1.242
 5078WAT     H221033   4.791   4.687   1.228
 5078WAT    EPW21034   4.807   4.616   1.259
 5079WAT      O21035   5.018   3.072   1.528
 5079WAT     H121036   5.018   2.986   1.513
 5079WAT     H221037   5.028   3.078   1.615
 5079WAT    EPW21038   5.020   3.060   1.539
 5080WAT      O21039   5.206   3.313   0.506
 5080WAT     H121040   5.263   3.376   0.525
 5080WAT     H221041   5.129   3.353   0.512
 5080WAT    EPW21042   5.203   3.328   0.510
 5081WAT      O21043   5.322   4.086   1.792
 5081WAT     H121044   5.356   4.164   1.771
 5081WAT     H221045   5.351   4.033   1.728
 5081WAT    EPW21046   5.331   4.090   1.779
 5082WAT      O21047   4.740   4.297   1.828
 5082WAT     H121048   4.693   4.227   1.849
 5082WAT     H221049   4.698   4.330   1.758
 5082WAT    EPW21050   4.727   4.292   1.821
 5083WAT      O21051   4.799   3.410   1.167
 5083WAT     H121052   4.855   3.477   1.170
 5083WAT     H221053   4.850   3.341   1.182
 5083WAT    EPW21054   4.815   3.410   1.169
 5084WAT      O21055   5.059   3.805   0.399
 5084WAT     H121056   5.078   3.887   0.375
 5084WAT     H221057   4.991   3.815   0.453
 5084WAT    EPW21058   5.052   3.818   0.403
 5085WAT      O21059   5.551   4.071   0.805
 5085WAT     H121060   5.570   4.016   0.870
 5085WAT     H221061   5.556   4.020   0.734
 5085WAT    EPW21062   5.555   4.055   0.804
 5086WAT      O21063   5.174   4.462   1.119
 5086WAT     H121064   5.106   4.448   1.065
 5086WAT     H221065   5.217   4.528   1.081
 5086WAT    EPW21066   5.170   4.470   1.105
 5087WAT      O21067   5.155   4.129   1.108
 5087WAT     H121068   5.079   4.157   1.141
 5087WAT     H221069   5.189   4.081   1.173
 5087WAT    EPW21070   5.149   4.126   1.123
 5088WAT      O21071   4.539   4.646   0.445
 5088WAT     H121072   4.552   4.578   0.497
 5088WAT     H221073   4.610   4.648   0.394
 5088WAT    EPW21074   4.552   4.636   0.445
 5089WAT      O21075   4.515   3.094   0.379
 5089WAT     H121076   4.515   3.011   0.403
 5089WAT     H221077   4.440   3.103   0.335
 5089WAT    EPW21078   4.504   3.083   0.376
 5090WAT      O21079   4.792   4.650   0.335
 5090WAT     H121080   4.831   4.632   0.411
 5090WAT     H221081   4.809   4.734   0.322
 5090WAT    EPW21082   4.800   4.660   0.344
 5091WAT      O21083   5.404   3.934   1.577
 5091WAT     H121084   5.371   3.976   1.508
 5091WAT     H221085   5.487   3.959   1.578
 5091WAT    EPW21086   5.411   3.944   1.567
 5092WAT      O21087   5.115   4.527   1.996
 5092WAT     H121088   5.142   4.547   2.076
 5092WAT     H221089   5.145   4.593   1.947
 5092WAT    EPW21090   5.123   4.540   2.000
 5093WAT      O21091   5.546   3.024   1.832
 5093WAT     H121092   5.502   2.971   1.778
 5093WAT     H221093   5.546   2.980   1.907
 5093WAT    EPW21094   5.539   3.010   1.835
 5094WAT      O21095   4.268   3.801   0.445
 5094WAT     H121096   4.264   3.715   0.432
 5094WAT     H221097   4.347   3.812   0.482
 5094WAT    EPW21098   4.279   3.790   0.449
 5095WAT      O21099   5.040   3.945   1.452
 5095WAT     H121100   4.993   3.991   1.509
 5095WAT     H221101   5.067   3.876   1.498
 5095WAT    EPW21102   5.037   3.942   1.467
 5096WAT      O21103   3.912   2.971   0.541
 5096WAT     H121104   3.918   2.918   0.472
 5096WAT     H221105   3.877   2.920   0.603
 5096WAT    EPW21106   3.908   2.955   0.540
 5097WAT      O21107   4.844   3.800   0.577
 5097WAT     H121108   4.860   3.863   0.635
 5097WAT     H221109   4.844   3.727   0.625
 5097WAT    EPW21110   4.847   3.798   0.592
 5098WAT      O21111   5.429   4.240   1.126
 5098WAT     H121112   5.466   4.237   1.047
 5098WAT     H221113   5.345   4.227   1.110
 5098WAT    EPW21114   5.422   4.238   1.112
 5099WAT      O21115   4.282   3.205   0.254
 5099WAT     H121116   4.235   3.177   0.186
 5099WAT     H221117   4.314   3.282   0.227
 5099WAT    EPW21118   4.280   3.212   0.240
 5100WAT      O21119   4.793   4.011   1.002
 5100WAT     H121120   4.710   3.987   1.016
 5100WAT     H221121   4.836   3.977   1.070
 5100WAT    EPW21122   4.787   4.002   1.014
 5101WAT      O21123   4.182   3.927   1.292
 5101WAT     H121124   4.238   3.992   1.274
 5101WAT     H221125   4.137   3.919   1.218
 5101WAT    EPW21126   4.184   3.936   1.278
 5102WAT      O21127   4.441   3.427   0.941
 5102WAT     H121128   4.524   3.408   0.922
 5102WAT     H221129   4.397   3.357   0.914
 5102WAT    EPW21130   4.447   3.414   0.934
 5103WAT      O21131   5.759   4.627   0.315
 5103WAT     H121132   5.833   4.583   0.301
 5103WAT     H221133   5.713   4.573   0.367
 5103WAT    EPW21134   5.763   4.612   0.321
 5104WAT      O21135   3.971   3.568   0.598
 5104WAT     H121136   4.001   3.527   0.669
 5104WAT     H221137   3.989   3.513   0.533
 5104WAT    EPW21138   3.978   3.554   0.599
 5105WAT      O21139   5.516   3.892   1.281
 5105WAT     H121140   5.514   3.822   1.332
 5105WAT     H221141   5.437   3.927   1.291
 5105WAT    EPW21142   5.504   3.887   1.290
 5106WAT      O21143   4.117   4.059   1.717
 5106WAT     H121144   4.090   3.999   1.660
 5106WAT     H221145   4.092   4.134   1.679
 5106WAT    EPW21146   4.109   4.061   1.703
 5107WAT      O21147   5.617   3.895   1.018
 5107WAT     H121148   5.590   3.899   1.101
 5107WAT     H221149   5.704   3.889   1.026
 5107WAT    EPW21150   5.626   3.895   1.031
 5108WAT      O21151   4.542   3.540   0.377
 5108WAT     H121152   4.559   3.620   0.406
 5108WAT     H221153   4.454   3.537   0.373
 5108WAT    EPW21154   4.531   3.551   0.381
 5109WAT      O21155   5.429   3.282   1.820
 5109WAT     H121156   5.354   3.282   1.865
 5109WAT     H221157   5.455   3.199   1.825
 5109WAT    EPW21158   5.422   3.270   1.827
 5110WAT      O21159   3.939   3.202   1.082
 5110WAT     H121160   3.896   3.217   1.007
 5110WAT     H221161   3.973   3.280   1.101
 5110WAT    EPW21162   3.937   3.216   1.074
 5111WAT      O21163   5.751   4.382   1.082
 5111WAT     H121164   5.786   4.439   1.026
 5111WAT     H221165   5.811   4.378   1.146
 5111WAT    EPW21166   5.765   4.390   1.083
 5112WAT      O21167   5.228   3.594   1.944
 5112WAT     H121168   5.275   3.617   2.013
 5112WAT     H221169   5.159   3.647   1.948
 5112WAT    EPW21170   5.225   3.605   1.955
 5113WAT      O21171   5.472   3.674   1.756
 5113WAT     H121172   5.502   3.751   1.785
 5113WAT     H221173   5.408   3.654   1.813
 5113WAT    EPW21174   5.467   3.683   1.769
 5114WAT      O21175   5.433   4.333   0.283
 5114WAT     H121176   5.473   4.256   0.288
 5114WAT     H221177   5.358   4.320   0.327
 5114WAT    EPW21178   5.428   4.320   0.290
 5115WAT      O21179   5.479   3.447   0.830
 5115WAT     H121180   5.409   3.408   0.864
 5115WAT     H221181   5.480   3.525   0.869
 5115WAT    EPW21182   5.469   3.453   0.841
 5116WAT      O21183   5.840   3.699   1.982
 5116WAT     H121184   5.820   3.669   1.902
 5116WAT     H221185   5.875   3.777   1.967
 5116WAT    EPW21186   5.842   3.706   1.968
 5117WAT      O21187   5.660   4.043   1.585
 5117WAT     H121188   5.729   3.997   1.558
 5117WAT     H221189   5.649   4.102   1.521
 5117WAT    EPW21190   5.669   4.045   1.571
 5118WAT      O21191   5.161   4.058   0.325
 5118WAT     H121192   5.188   4.120   0.380
 5118WAT     H221193   5.223   4.056   0.263
 5118WAT    EPW21194   5.174   4.066   0.324
 5119WAT      O21195   4.622   4.226   1.346
 5119WAT     H121196   4.626   4.269   1.422
 5119WAT     H221197   4.619   4.289   1.287
 5119WAT    EPW21198   4.622   4.241   1.349
 5120WAT      O21199   4.390   4.104   1.688
 5120WAT     H121200   4.307   4.084   1.705
 5120WAT     H221201   4.387   4.189   1.669
 5120WAT    EPW21202   4.377   4.114   1.687
 5121WAT      O21203   5.365   3.123   1.528
 5121WAT     H121204   5.418   3.193   1.536
 5121WAT     H221205   5.285   3.159   1.521
 5121WAT    EPW21206   5.361   3.139   1.528
 5122WAT      O21207   4.883   3.872   1.234
 5122WAT     H121208   4.939   3.901   1.295
 5122WAT     H221209   4.805   3.881   1.271
 5122WAT    EPW21210   4.880   3.878   1.248
 5123WAT      O21211   4.604   3.460   1.628
 5123WAT     H121212   4.566   3.391   1.665
 5123WAT     H221213   4.598   3.443   1.543
 5123WAT    EPW21214   4.597   3.447   1.621
 5124WAT      O21215   4.814   4.654   0.824
 5124WAT     H121216   4.831   4.736   0.846
 5124WAT     H221217   4.830   4.652   0.738
 5124WAT    EPW21218   4.819   4.665   0.814
 5125WAT      O21219   4.744   3.024   1.469
 5125WAT     H121220   4.825   3.047   1.489
 5125WAT     H221221   4.742   2.938   1.484
 5125WAT    EPW21222   4.756   3.015   1.474
 5126WAT      O21223   4.627   4.432   1.164
 5126WAT     H121224   4.561   4.476   1.129
 5126WAT     H221225   4.662   4.390   1.095
 5126WAT    EPW21226   4.623   4.432   1.148
 5127WAT      O21227   5.054   4.044   1.844
 5127WAT     H121228   5.135   4.064   1.819
 5127WAT     H221229   5.005   4.071   1.777
 5127WAT    EPW21230   5.059   4.051   1.830
 5128WAT      O21231   5.419   4.345   1.720
 5128WAT     H121232   5.453   4.377   1.794
 5128WAT     H221233   5.461   4.387   1.657
 5128WAT    EPW21234   5.430   4.356   1.722
 5129WAT      O21235   5.665   3.650   0.231
 5129WAT     H121236   5.690   3.713   0.177
 5129WAT     H221237   5.578   3.655   0.231
 5129WAT    EPW21238   5.656   3.660   0.223
 5130WAT      O21239   4.385   3.512   1.201
 5130WAT     H121240   4.410   3.483   1.122
 5130WAT     H221241   4.445   3.478   1.255
 5130WAT    EPW21242   4.398   3.503   1.197
 5131WAT      O21243   5.152   3.491   1.679
 5131WAT     H121244   5.073   3.527   1.692
 5131WAT     H221245   5.189   3.495   1.758
 5131WAT    EPW21246   5.146   3.497   1.693
 5132WAT      O21247   5.182   3.561   1.327
 5132WAT     H121248   5.192   3.619   1.391
 5132WAT     H221249   5.165   3.487   1.369
 5132WAT    EPW21250   5.181   3.559   1.343
 5133WAT      O21251   4.886   4.597   1.788
 5133WAT     H121252   4.901   4.542   1.722
 5133WAT     H221253   4.799   4.597   1.796
 5133WAT    EPW21254   4.875   4.589   1.780
 5134WAT      O21255   5.388   3.517   0.579
 5134WAT     H121256   5.411   3.490   0.658
 5134WAT     H221257   5.462   3.549   0.545
 5134WAT    EPW21258   5.402   3.518   0.585
 5135WAT      O21259   4.699   3.024   1.131
 5135WAT     H121260   4.614   3.010   1.138
 5135WAT     H221261   4.710   3.048   1.048
 5135WAT    EPW21262   4.688   3.025   1.120
 5136WAT      O21263   5.512   3.081   0.717
 5136WAT     H121264   5.437   3.037   0.727
 5136WAT     H221265   5.512   3.103   0.633
 5136WAT    EPW21266   5.501   3.077   0.706
 5137WAT      O21267   5.533   3.921   0.564
 5137WAT     H121268   5.580   3.849   0.552
 5137WAT     H221269   5.451   3.892   0.561
 5137WAT    EPW21270   5.528   3.906   0.562
 5138WAT      O21271   4.896   4.120   1.625
 5138WAT     H121272   4.817   4.114   1.661
 5138WAT     H221273   4.908   4.206   1.615
 5138WAT    EPW21274   4.886   4.132   1.629
 5139WAT      O21275   4.454   4.750   1.221
 5139WAT     H121276   4.461   4.726   1.305
 5139WAT     H221277   4.424   4.678   1.182
 5139WAT    EPW21278   4.451   4.736   1.228
 5140WAT      O21279   4.262   3.279   0.528
 5140WAT     H121280   4.255   3.241   0.450
 5140WAT     H221281   4.190   3.254   0.570
 5140WAT    EPW21282   4.251   3.269   0.523
 5141WAT      O21283   5.159   4.083   0.835
 5141WAT     H121284   5.153   4.100   0.920
 5141WAT     H221285   5.191   4.002   0.832
 5141WAT    EPW21286   5.163   4.073   0.847
 5142WAT      O21287   4.905   4.011   0.749
 5142WAT     H121288   4.864   4.004   0.826
 5142WAT     H221289   4.985   4.037   0.770
 5142WAT    EPW21290   4.911   4.014   0.763
 5143WAT      O21291   4.942   4.415   1.575
 5143WAT     H121292   5.012   4.399   1.624
 5143WAT     H221293   4.964   4.486   1.530
 5143WAT    EPW21294   4.955   4.423   1.576
 5144WAT      O21295   5.744   3.587   1.742
 5144WAT     H121296   5.660   3.608   1.749
 5144WAT     H221297   5.765   3.612   1.661
 5144WAT    EPW21298   5.735   3.594   1.731
 5145WAT      O21299   5.202   3.735   1.544
 5145WAT     H121300   5.194   3.669   1.601
 5145WAT     H221301   5.274   3.776   1.570
 5145WAT    EPW21302   5.212   3.731   1.556
 5146WAT      O21303   4.073   4.706   1.741
 5146WAT     H121304   4.012   4.644   1.738
 5146WAT     H221305   4.031   4.775   1.774
 5146WAT    EPW21306   4.058   4.707   1.745
 5147WAT      O21307   5.006   3.797   1.973
 5147WAT     H121308   5.033   3.872   1.937
 5147WAT     H221309   4.921   3.810   1.985
 5147WAT    EPW21310   4.998   3.810   1.970
 5148WAT      O21311   5.306   4.703   1.061
 5148WAT     H121312   5.250   4.766   1.083
 5148WAT     H221313   5.371   4.713   1.119
 5148WAT    EPW21314   5.308   4.714   1.073
 5149WAT      O21315   4.931   4.217   1.259
 5149WAT     H121316   4.848   4.214   1.287
 5149WAT     H221317   4.974   4.254   1.325
 5149WAT    EPW21318   4.925   4.222   1.273
 5150WAT      O21319   5.531   4.443   1.953
 5150WAT     H121320   5.613   4.415   1.949
 5150WAT     H221321   5.497   4.398   2.020
 5150WAT    EPW21322   5.538   4.432   1.962
 5151WAT      O21323   4.121   3.468   1.527
 5151WAT     H121324   4.180   3.532   1.518
 5151WAT     H221325   4.105   3.468   1.613
 5151WAT    EPW21326   4.128   3.478   1.538
 5152WAT      O21327   5.619   3.658   0.508
 5152WAT     H121328   5.640   3.659   0.423
 5152WAT     H221329   5.689   3.622   0.546
 5152WAT    EPW21330   5.632   3.653   0.501
 5153WAT      O21331   4.387   3.051   1.644
 5153WAT     H121332   4.441   3.008   1.698
 5153WAT     H221333   4.335   3.096   1.698
 5153WAT    EPW21334   4.387   3.051   1.660
 5154WAT      O21335   4.997   4.354   0.642
 5154WAT     H121336   4.976   4.435   0.617
 5154WAT     H221337   4.925   4.308   0.626
 5154WAT    EPW21338   4.983   4.359   0.636
 5155WAT      O21339   5.515   3.647   1.471
 5155WAT     H121340   5.501   3.561   1.472
 5155WAT     H221341   5.495   3.672   1.552
 5155WAT    EPW21342   5.510   3.638   1.483
 5156WAT      O21343   4.013   3.900   1.510
 5156WAT     H121344   4.065   3.921   1.443
 5156WAT     H221345   3.987   3.818   1.491
 5156WAT    EPW21346   4.017   3.891   1.497
 5157WAT      O21347   5.064   3.099   1.802
 5157WAT     H121348   5.094   3.164   1.852
 5157WAT     H221349   4.984   3.083   1.835
 5157WAT    EPW21350   5.056   3.106   1.814
 5158WAT      O21351   5.065   3.144   0.891
 5158WAT     H121352   4.979   3.149   0.904
 5158WAT     H221353   5.072   3.104   0.814
 5158WAT    EPW21354   5.054   3.139   0.881
 5159WAT      O21355   4.516   4.284   0.339
 5159WAT     H121356   4.540   4.325   0.413
 5159WAT     H221357   4.429   4.291   0.340
 5159WAT    EPW21358   4.507   4.291   0.350
 5160WAT      O21359   5.315   3.227   1.233
 5160WAT     H121360   5.386   3.277   1.226
 5160WAT     H221361   5.272   3.261   1.301
 5160WAT    EPW21362   5.319   3.240   1.242
 5161WAT      O21363   4.494   3.861   1.569
 5161WAT     H121364   4.451   3.929   1.601
 5161WAT     H221365   4.432   3.810   1.536
 5161WAT    EPW21366   4.479   3.863   1.569
 5162WAT      O21367   5.440   3.691   0.957
 5162WAT     H121368   5.501   3.752   0.973
 5162WAT     H221369   5.377   3.735   0.915
 5162WAT    EPW21370   5.440   3.707   0.953
 5163WAT      O21371   5.444   4.517   0.684
 5163WAT     H121372   5.416   4.439   0.711
 5163WAT     H221373   5.486   4.500   0.610
 5163WAT    EPW21374   5.446   4.503   0.677
 5164WAT      O21375   4.239   4.269   0.351
 5164WAT     H121376   4.234   4.253   0.437
 5164WAT     H221377   4.237   4.190   0.315
 5164WAT    EPW21378   4.238   4.255   0.358
 5165WAT      O21379   4.523   4.009   0.285
 5165WAT     H121380   4.438   4.010   0.265
 5165WAT     H221381   4.542   4.093   0.299
 5165WAT    EPW21382   4.513   4.021   0.284
 5166WAT      O21383   4.505   3.134   1.398
 5166WAT     H121384   4.459   3.123   1.472
 5166WAT     H221385   4.583   3.100   1.418
 5166WAT    EPW21386   4.510   3.127   1.412
 5167WAT      O21387   5.683   3.024   1.471
 5167WAT     H121388   5.682   3.061   1.550
 5167WAT     H221389   5.764   2.991   1.466
 5167WAT    EPW21390   5.695   3.024   1.482
 5168WAT      O21391   4.933   3.167   1.203
 5168WAT     H121392   4.860   3.119   1.201
 5168WAT     H221393   4.997   3.107   1.198
 5168WAT    EPW21394   4.932   3.151   1.202
 5169WAT      O21395   5.201   4.310   1.359
 5169WAT     H121396   5.228   4.382   1.401
 5169WAT     H221397   5.190   4.337   1.277
 5169WAT    EPW21398   5.203   4.324   1.353
 5170WAT      O21399   5.194   4.705   1.784
 5170WAT     H121400   5.129   4.669   1.739
 5170WAT     H221401   5.168   4.788   1.795
 5170WAT    EPW21402   5.180   4.712   1.779
 5171WAT      O21403   4.660   3.704   1.742
 5171WAT     H121404   4.638   3.625   1.714
 5171WAT     H221405   4.611   3.757   1.692
 5171WAT    EPW21406   4.649   3.700   1.731
 5172WAT      O21407   5.631   4.152   1.322
 5172WAT     H121408   5.612   4.068   1.307
 5172WAT     H221409   5.574   4.194   1.272
 5172WAT    EPW21410   5.620   4.145   1.313
 5173WAT      O21411   4.624   4.602   1.863
 5173WAT     H121412   4.564   4.610   1.926
 5173WAT     H221413   4.581   4.624   1.791
 5173WAT    EPW21414   4.609   4.606   1.862
 5174WAT      O21415   5.542   4.464   1.264
 5174WAT     H121416   5.611   4.456   1.211
 5174WAT     H221417   5.483   4.409   1.230
 5174WAT    EPW21418   5.544   4.455   1.251
 5175WAT      O21419   4.159   3.213   1.384
 5175WAT     H121420   4.137   3.150   1.440
 5175WAT     H221421   4.147   3.286   1.430
 5175WAT    EPW21422   4.154   3.215   1.399
 5176WAT      O21423   5.179   3.022   1.113
 5176WAT     H121424   5.218   3.093   1.146
 5176WAT     H221425   5.141   3.052   1.040
 5176WAT    EPW21426   5.179   3.037   1.107
 5177WAT      O21427   4.245   4.533   1.883
 5177WAT     H121428   4.306   4.574   1.930
 5177WAT     H221429   4.204   4.598   1.841
 5177WAT    EPW21430   4.248   4.549   1.884
 5178WAT      O21431   5.085   3.597   0.893
 5178WAT     H121432   5.134   3.526   0.904
 5178WAT     H221433   5.050   3.611   0.971
 5178WAT    EPW21434   5.087   3.589   0.906
 5179WAT      O21435   4.075   3.490   0.847
 5179WAT     H121436   4.028   3.536   0.904
 5179WAT     H221437   4.112   3.429   0.896
 5179WAT    EPW21438   4.073   3.488   0.863
 5180WAT      O21439   4.077   4.306   1.587
 5180WAT     H121440   4.027   4.366   1.626
 5180WAT     H221441   4.159   4.336   1.600
 5180WAT    EPW21442   4.082   4.320   1.595
 5181WAT      O21443   5.292   3.773   0.541
 5181WAT     H121444   5.308   3.688   0.553
 5181WAT     H221445   5.214   3.774   0.502
 5181WAT    EPW21446   5.283   3.761   0.537
 5182WAT      O21447   4.265   4.632   0.483
 5182WAT     H121448   4.223   4.606   0.411
 5182WAT     H221449   4.349   4.634   0.458
 5182WAT    EPW21450   4.271   4.628   0.468
 5183WAT      O21451   4.585   3.807   0.465
 5183WAT     H121452   4.582   3.866   0.401
 5183WAT     H221453   4.668   3.807   0.490
 5183WAT    EPW21454   4.597   3.816   0.459
 5184WAT      O21455   5.513   4.598   0.168
 5184WAT     H121456   5.594   4.604   0.199
 5184WAT     H221457   5.492   4.515   0.182
 5184WAT    EPW21458   5.522   4.587   0.174
 5185WAT      O21459   5.601   3.905   1.839
 5185WAT     H121460   5.616   3.938   1.919
 5185WAT     H221461   5.629   3.967   1.785
 5185WAT    EPW21462   5.608   3.919   1.843
 5186WAT      O21463   5.225   4.283   0.486
 5186WAT     H121464   5.278   4.269   0.554
 5186WAT     H221465   5.147   4.296   0.524
 5186WAT    EPW21466   5.221   4.283   0.502
 5187WAT      O21467   5.654   3.365   1.958
 5187WAT     H121468   5.640   3.443   1.995
 5187WAT     H221469   5.580   3.349   1.916
 5187WAT    EPW21470   5.641   3.374   1.957
 5188WAT      O21471   5.673   3.474   1.233
 5188WAT     H121472   5.590   3.495   1.217
 5188WAT     H221473   5.671   3.387   1.241
 5188WAT    EPW21474   5.661   3.464   1.232
 5189WAT      O21475   5.323   3.961   2.045
 5189WAT     H121476   5.398   3.985   2.081
 5189WAT     H221477   5.327   3.994   1.964
 5189WAT    EPW21478   5.334   3.969   2.038
 5190WAT      O21479   4.321   4.519   1.119
 5190WAT     H121480   4.303   4.440   1.088
 5190WAT     H221481   4.282   4.573   1.063
 5190WAT    EPW21482   4.313   4.515   1.106
 5191WAT      O21483   4.905   4.175   0.349
 5191WAT     H121484   4.979   4.135   0.326
 5191WAT     H221485   4.909   4.252   0.309
 5191WAT    EPW21486   4.916   4.180   0.340
 5192WAT      O21487   4.046   4.779   1.469
 5192WAT     H121488   4.068   4.751   1.549
 5192WAT     H221489   4.072   4.715   1.416
 5192WAT    EPW21490   4.053   4.766   1.473
 5193WAT      O21491   5.042   1.154   6.394
 5193WAT     H121492   5.043   1.201   6.321
 5193WAT     H221493   5.127   1.139   6.410
 5193WAT    EPW21494   5.055   1.159   6.386
 5194WAT      O21495   4.999   1.776   6.841
 5194WAT     H121496   4.964   1.853   6.861
 5194WAT     H221497   5.054   1.760   6.907
 5194WAT    EPW21498   5.002   1.785   6.854
 5195WAT      O21499   3.960   2.257   6.372
 5195WAT     H121500   3.959   2.263   6.459
 5195WAT     H221501   3.956   2.171   6.357
 5195WAT    EPW21502   3.959   2.245   6.382
 5196WAT      O21503   5.598   2.627   6.160
 5196WAT     H121504   5.661   2.570   6.179
 5196WAT     H221505   5.546   2.582   6.106
 5196WAT    EPW21506   5.599   2.612   6.155
 5197WAT      O21507   3.945   1.579   6.013
 5197WAT     H121508   3.879   1.633   5.995
 5197WAT     H221509   3.910   1.500   6.003
 5197WAT    EPW21510   3.930   1.576   6.009
 5198WAT      O21511   4.192   2.200   5.926
 5198WAT     H121512   4.180   2.158   5.851
 5198WAT     H221513   4.206   2.136   5.984
 5198WAT    EPW21514   4.192   2.184   5.924
 5199WAT      O21515   5.244   1.960   6.486
 5199WAT     H121516   5.253   1.945   6.400
 5199WAT     H221517   5.189   1.897   6.512
 5199WAT    EPW21518   5.237   1.948   6.477
 5200WAT      O21519   4.206   2.378   6.313
 5200WAT     H121520   4.261   2.337   6.367
 5200WAT     H221521   4.130   2.336   6.326
 5200WAT    EPW21522   4.203   2.366   6.323
 5201WAT      O21523   4.682   1.285   6.257
 5201WAT     H121524   4.674   1.357   6.208
 5201WAT     H221525   4.761   1.254   6.234
 5201WAT    EPW21526   4.693   1.291   6.246
 5202WAT      O21527   4.114   2.657   5.917
 5202WAT     H121528   4.152   2.672   5.840
 5202WAT     H221529   4.159   2.590   5.950
 5202WAT    EPW21530   4.126   2.649   5.911
 5203WAT      O21531   4.003   2.472   7.046
 5203WAT     H121532   4.029   2.450   7.126
 5203WAT     H221533   3.934   2.420   7.032
 5203WAT    EPW21534   3.996   2.461   7.055
 5204WAT      O21535   4.668   2.313   7.475
 5204WAT     H121536   4.679   2.266   7.548
 5204WAT     H221537   4.589   2.287   7.446
 5204WAT    EPW21538   4.658   2.302   7.482
 5205WAT      O21539   4.157   1.997   6.503
 5205WAT     H121540   4.106   1.994   6.432
 5205WAT     H221541   4.214   1.933   6.491
 5205WAT    EPW21542   4.158   1.987   6.491
 5206WAT      O21543   4.597   1.585   7.041
 5206WAT     H121544   4.666   1.591   6.989
 5206WAT     H221545   4.572   1.501   7.034
 5206WAT    EPW21546   4.603   1.573   7.032
 5207WAT      O21547   4.605   2.551   7.226
 5207WAT     H121548   4.583   2.626   7.187
 5207WAT     H221549   4.691   2.559   7.238
 5207WAT    EPW21550   4.614   2.563   7.222
 5208WAT      O21551   4.334   1.785   6.488
 5208WAT     H121552   4.401   1.733   6.509
 5208WAT     H221553   4.266   1.731   6.489
 5208WAT    EPW21554   4.334   1.769   6.492
 5209WAT      O21555   4.755   2.427   6.658
 5209WAT     H121556   4.779   2.344   6.670
 5209WAT     H221557   4.829   2.466   6.635
 5209WAT    EPW21558   4.769   2.420   6.656
 5210WAT      O21559   4.807   2.339   6.262
 5210WAT     H121560   4.837   2.272   6.309
 5210WAT     H221561   4.820   2.314   6.179
 5210WAT    EPW21562   4.813   2.326   6.257
 5211WAT      O21563   4.952   1.785   7.446
 5211WAT     H121564   4.868   1.792   7.422
 5211WAT     H221565   4.958   1.843   7.512
 5211WAT    EPW21566   4.940   1.795   7.452
 5212WAT      O21567   4.409   1.297   6.350
 5212WAT     H121568   4.370   1.355   6.299
 5212WAT     H221569   4.493   1.301   6.327
 5212WAT    EPW21570   4.416   1.306   6.339
 5213WAT      O21571   5.430   1.075   7.341
 5213WAT     H121572   5.411   1.145   7.292
 5213WAT     H221573   5.354   1.055   7.378
 5213WAT    EPW21574   5.416   1.083   7.340
 5214WAT      O21575   4.724   1.222   6.530
 5214WAT     H121576   4.736   1.305   6.556
 5214WAT     H221577   4.702   1.230   6.446
 5214WAT    EPW21578   4.722   1.236   6.521
 5215WAT      O21579   5.165   1.446   5.784
 5215WAT     H121580   5.117   1.514   5.812
 5215WAT     H221581   5.175   1.398   5.857
 5215WAT    EPW21582   5.159   1.449   5.799
 5216WAT      O21583   3.982   1.749   6.749
 5216WAT     H121584   3.982   1.836   6.761
 5216WAT     H221585   3.914   1.722   6.797
 5216WAT    EPW21586   3.972   1.758   6.758
 5217WAT      O21587   3.948   2.716   6.579
 5217WAT     H121588   3.887   2.764   6.540
 5217WAT     H221589   3.990   2.679   6.511
 5217WAT    EPW21590   3.945   2.717   6.563
 5218WAT      O21591   4.533   2.390   6.264
 5218WAT     H121592   4.514   2.428   6.341
 5218WAT     H221593   4.620   2.384   6.265
 5218WAT    EPW21594   4.543   2.395   6.276
 5219WAT      O21595   5.171   2.731   6.041
 5219WAT     H121596   5.239   2.784   6.054
 5219WAT     H221597   5.199   2.654   6.070
 5219WAT    EPW21598   5.185   2.727   6.047
 5220WAT      O21599   4.946   2.742   6.202
 5220WAT     H121600   4.958   2.810   6.254
 5220WAT     H221601   5.011   2.748   6.144
 5220WAT    EPW21602   4.957   2.753   6.201
 5221WAT      O21603   4.289   1.251   6.785
 5221WAT     H121604   4.238   1.186   6.757
 5221WAT     H221605   4.350   1.210   6.832
 5221WAT    EPW21606   4.291   1.235   6.788
 5222WAT      O21607   4.081   2.624   6.352
 5222WAT     H121608   4.138   2.558   6.353
 5222WAT     H221609   4.118   2.682   6.299
 5222WAT    EPW21610   4.095   2.623   6.344
 5223WAT      O21611   5.723   1.437   6.499
 5223WAT     H121612   5.672   1.508   6.507
 5223WAT     H221613   5.666   1.372   6.491
 5223WAT    EPW21614   5.707   1.438   6.499
 5224WAT      O21615   5.222   2.759   7.059
 5224WAT     H121616   5.289   2.814   7.050
 5224WAT     H221617   5.204   2.736   6.977
 5224WAT    EPW21618   5.229   2.763   7.045
 5225WAT      O21619   4.154   1.443   7.564
 5225WAT     H121620   4.086   1.390   7.558
 5225WAT     H221621   4.218   1.398   7.526
 5225WAT    EPW21622   4.154   1.429   7.557
 5226WAT      O21623   4.260   2.437   6.683
 5226WAT     H121624   4.321   2.430   6.622
 5226WAT     H221625   4.287   2.384   6.746
 5226WAT    EPW21626   4.273   2.428   6.683
 5227WAT      O21627   4.563   2.753   6.617
 5227WAT     H121628   4.647   2.770   6.600
 5227WAT     H221629   4.520   2.791   6.551
 5227WAT    EPW21630   4.569   2.761   6.605
 5228WAT      O21631   4.803   1.225   7.562
 5228WAT     H121632   4.812   1.146   7.524
 5228WAT     H221633   4.737   1.261   7.518
 5228WAT    EPW21634   4.794   1.218   7.550
 5229WAT      O21635   4.889   1.682   6.418
 5229WAT     H121636   4.918   1.643   6.345
 5229WAT     H221637   4.962   1.696   6.464
 5229WAT    EPW21638   4.904   1.678   6.414
 5230WAT      O21639   4.998   1.649   5.904
 5230WAT     H121640   5.023   1.729   5.931
 5230WAT     H221641   4.922   1.665   5.864
 5230WAT    EPW21642   4.991   1.663   5.902
 5231WAT      O21643   5.377   2.924   6.045
 5231WAT     H121644   5.428   2.902   5.977
 5231WAT     H221645   5.431   2.970   6.096
 5231WAT    EPW21646   5.393   2.927   6.043
 5232WAT      O21647   4.452   2.773   7.140
 5232WAT     H121648   4.458   2.797   7.224
 5232WAT     H221649   4.371   2.742   7.134
 5232WAT    EPW21650   4.441   2.772   7.152
 5233WAT      O21651   5.632   1.361   6.906
 5233WAT     H121652   5.698   1.349   6.850
 5233WAT     H221653   5.651   1.307   6.972
 5233WAT    EPW21654   5.644   1.351   6.907
 5234WAT      O21655   3.870   1.432   7.288
 5234WAT     H121656   3.866   1.494   7.349
 5234WAT     H221657   3.934   1.458   7.235
 5234WAT    EPW21658   3.879   1.445   7.289
 5235WAT      O21659   5.069   2.516   7.451
 5235WAT     H121660   5.065   2.445   7.502
 5235WAT     H221661   5.155   2.524   7.435
 5235WAT    EPW21662   5.081   2.507   7.456
 5236WAT      O21663   4.869   2.531   5.854
 5236WAT     H121664   4.831   2.592   5.904
 5236WAT     H221665   4.945   2.568   5.831
 5236WAT    EPW21666   4.875   2.546   5.858
 5237WAT      O21667   5.189   1.290   6.015
 5237WAT     H121668   5.246   1.225   6.019
 5237WAT     H221669   5.207   1.339   6.085
 5237WAT    EPW21670   5.200   1.288   6.026
 5238WAT      O21671   4.019   1.392   6.282
 5238WAT     H121672   3.992   1.311   6.262
 5238WAT     H221673   3.969   1.414   6.350
 5238WAT    EPW21674   4.007   1.383   6.289
 5239WAT      O21675   4.190   2.690   7.047
 5239WAT     H121676   4.136   2.622   7.047
 5239WAT     H221677   4.222   2.690   6.966
 5239WAT    EPW21678   4.187   2.680   7.035
 5240WAT      O21679   4.951   1.566   6.168
 5240WAT     H121680   4.875   1.526   6.153
 5240WAT     H221681   4.974   1.596   6.089
 5240WAT    EPW21682   4.943   1.565   6.154
 5241WAT      O21683   4.975   2.799   7.172
 5241WAT     H121684   5.055   2.789   7.137
 5241WAT     H221685   4.923   2.803   7.102
 5241WAT    EPW21686   4.979   2.798   7.156
 5242WAT      O21687   4.942   1.232   6.133
 5242WAT     H121688   4.888   1.211   6.068
 5242WAT     H221689   5.016   1.253   6.092
 5242WAT    EPW21690   4.945   1.232   6.117
 5243WAT      O21691   5.656   2.848   6.448
 5243WAT     H121692   5.614   2.923   6.461
 5243WAT     H221693   5.592   2.791   6.433
 5243WAT    EPW21694   5.640   2.850   6.447
 5244WAT      O21695   4.774   1.492   6.592
 5244WAT     H121696   4.802   1.556   6.539
 5244WAT     H221697   4.783   1.526   6.672
 5244WAT    EPW21698   4.780   1.507   6.596
 5245WAT      O21699   5.396   2.420   6.499
 5245WAT     H121700   5.460   2.361   6.491
 5245WAT     H221701   5.323   2.373   6.492
 5245WAT    EPW21702   5.395   2.404   6.497
 5246WAT      O21703   4.355   2.505   7.347
 5246WAT     H121704   4.431   2.526   7.311
 5246WAT     H221705   4.344   2.564   7.410
 5246WAT    EPW21706   4.364   2.517   7.351
 5247WAT      O21707   4.348   1.038   6.438
 5247WAT     H121708   4.368   1.120   6.415
 5247WAT     H221709   4.320   1.002   6.364
 5247WAT    EPW21710   4.347   1.045   6.424
 5248WAT      O21711   4.550   2.101   6.767
 5248WAT     H121712   4.575   2.087   6.849
 5248WAT     H221713   4.492   2.037   6.752
 5248WAT    EPW21714   4.545   2.090   6.777
 5249WAT      O21715   5.111   1.463   7.163
 5249WAT     H121716   5.102   1.491   7.245
 5249WAT     H221717   5.048   1.404   7.154
 5249WAT    EPW21718   5.100   1.459   7.174
 5250WAT      O21719   4.652   2.106   7.023
 5250WAT     H121720   4.638   2.192   7.029
 5250WAT     H221721   4.618   2.075   7.097
 5250WAT    EPW21722   4.645   2.114   7.035
 5251WAT      O21723   5.283   2.201   7.041
 5251WAT     H121724   5.208   2.168   7.073
 5251WAT     H221725   5.271   2.287   7.046
 5251WAT    EPW21726   5.270   2.209   7.047
 5252WAT      O21727   5.301   1.080   6.476
 5252WAT     H121728   5.305   1.062   6.561
 5252WAT     H221729   5.337   1.010   6.438
 5252WAT    EPW21730   5.307   1.067   6.483
 5253WAT      O21731   5.498   1.542   7.237
 5253WAT     H121732   5.581   1.515   7.239
 5253WAT     H221733   5.479   1.553   7.321
 5253WAT    EPW21734   5.508   1.540   7.250
 5254WAT      O21735   4.290   1.427   6.575
 5254WAT     H121736   4.317   1.375   6.510
 5254WAT     H221737   4.286   1.374   6.644
 5254WAT    EPW21738   4.293   1.412   6.576
 5255WAT      O21739   5.572   2.221   6.025
 5255WAT     H121740   5.575   2.174   6.098
 5255WAT     H221741   5.656   2.232   6.004
 5255WAT    EPW21742   5.585   2.216   6.032
 5256WAT      O21743   4.340   2.206   6.486
 5256WAT     H121744   4.389   2.171   6.423
 5256WAT     H221745   4.281   2.144   6.502
 5256WAT    EPW21746   4.339   2.191   6.479
 5257WAT      O21747   4.167   2.878   6.630
 5257WAT     H121748   4.091   2.835   6.617
 5257WAT     H221749   4.180   2.919   6.554
 5257WAT    EPW21750   4.157   2.877   6.616
 5258WAT      O21751   4.142   1.556   6.865
 5258WAT     H121752   4.226   1.579   6.860
 5258WAT     H221753   4.101   1.626   6.832
 5258WAT    EPW21754   4.148   1.570   6.859
 5259WAT      O21755   5.797   2.655   7.381
 5259WAT     H121756   5.732   2.658   7.323
 5259WAT     H221757   5.757   2.651   7.458
 5259WAT    EPW21758   5.782   2.655   7.384
 5260WAT      O21759   5.391   1.880   5.942
 5260WAT     H121760   5.384   1.962   5.912
 5260WAT     H221761   5.362   1.885   6.024
 5260WAT    EPW21762   5.386   1.893   5.949
 5261WAT      O21763   4.450   2.127   6.238
 5261WAT     H121764   4.475   2.211   6.236
 5261WAT     H221765   4.523   2.084   6.216
 5261WAT    EPW21766   4.465   2.133   6.235
 5262WAT      O21767   5.718   1.356   5.946
 5262WAT     H121768   5.756   1.290   5.904
 5262WAT     H221769   5.688   1.407   5.882
 5262WAT    EPW21770   5.719   1.354   5.931
 5263WAT      O21771   4.003   2.319   6.651
 5263WAT     H121772   3.953   2.379   6.689
 5263WAT     H221773   4.083   2.355   6.653
 5263WAT    EPW21774   4.007   2.333   6.657
 5264WAT      O21775   5.809   1.777   7.172
 5264WAT     H121776   5.828   1.705   7.128
 5264WAT     H221777   5.725   1.791   7.153
 5264WAT    EPW21778   5.799   1.769   7.163
 5265WAT      O21779   4.002   1.988   6.278
 5265WAT     H121780   3.987   1.902   6.275
 5265WAT     H221781   4.067   2.000   6.222
 5265WAT    EPW21782   4.009   1.977   6.269
 5266WAT      O21783   5.573   1.246   6.163
 5266WAT     H121784   5.647   1.204   6.185
 5266WAT     H221785   5.598   1.298   6.098
 5266WAT    EPW21786   5.588   1.247   6.156
 5267WAT      O21787   4.975   2.585   6.589
 5267WAT     H121788   4.926   2.653   6.565
 5267WAT     H221789   5.004   2.553   6.514
 5267WAT    EPW21790   4.972   2.590   6.575
 5268WAT      O21791   3.911   2.468   6.200
 5268WAT     H121792   3.965   2.524   6.239
 5268WAT     H221793   3.906   2.401   6.256
 5268WAT    EPW21794   3.918   2.466   6.214
 5269WAT      O21795   4.358   2.268   6.880
 5269WAT     H121796   4.413   2.308   6.934
 5269WAT     H221797   4.411   2.219   6.830
 5269WAT    EPW21798   4.374   2.267   6.880
 5270WAT      O21799   5.258   1.507   6.614
 5270WAT     H121800   5.289   1.475   6.689
 5270WAT     H221801   5.193   1.453   6.593
 5270WAT    EPW21802   5.253   1.495   6.622
 5271WAT      O21803   3.936   2.312   5.968
 5271WAT     H121804   4.014   2.275   5.960
 5271WAT     H221805   3.945   2.363   6.039
 5271WAT    EPW21806   3.949   2.314   5.978
 5272WAT      O21807   4.011   2.051   6.732
 5272WAT     H121808   4.061   2.026   6.665
 5272WAT     H221809   4.006   2.137   6.722
 5272WAT    EPW21810   4.018   2.060   6.721
 5273WAT      O21811   4.681   1.499   6.082
 5273WAT     H121812   4.671   1.467   6.002
 5273WAT     H221813   4.644   1.578   6.077
 5273WAT    EPW21814   4.674   1.506   6.069
 5274WAT      O21815   5.545   2.664   7.237
 5274WAT     H121816   5.509   2.743   7.243
 5274WAT     H221817   5.539   2.644   7.152
 5274WAT    EPW21818   5.539   2.672   7.225
 5275WAT      O21819   4.505   2.489   6.530
 5275WAT     H121820   4.516   2.574   6.546
 5275WAT     H221821   4.577   2.453   6.564
 5275WAT    EPW21822   4.517   2.496   6.538
 5276WAT      O21823   4.114   1.716   7.493
 5276WAT     H121824   4.133   1.639   7.529
 5276WAT     H221825   4.160   1.715   7.418
 5276WAT    EPW21826   4.124   1.704   7.487
 5277WAT      O21827   4.292   1.734   6.073
 5277WAT     H121828   4.280   1.665   6.126
 5277WAT     H221829   4.249   1.711   6.000
 5277WAT    EPW21830   4.284   1.720   6.070
 5278WAT      O21831   4.358   1.907   6.739
 5278WAT     H121832   4.349   1.881   6.657
 5278WAT     H221833   4.372   1.833   6.783
 5278WAT    EPW21834   4.359   1.893   6.733
 5279WAT      O21835   4.340   1.880   7.078
 5279WAT     H121836   4.366   1.831   7.011
 5279WAT     H221837   4.286   1.938   7.041
 5279WAT    EPW21838   4.336   1.882   7.063
 5280WAT      O21839   5.401   1.689   6.895
 5280WAT     H121840   5.331   1.711   6.943
 5280WAT     H221841   5.397   1.743   6.827
 5280WAT    EPW21842   5.390   1.700   6.892
 5281WAT      O21843   4.769   2.799   6.989
 5281WAT     H121844   4.731   2.730   6.950
 5281WAT     H221845   4.764   2.862   6.929
 5281WAT    EPW21846   4.763   2.798   6.974
 5282WAT      O21847   4.955   1.236   7.237
 5282WAT     H121848   4.978   1.155   7.215
 5282WAT     H221849   4.986   1.245   7.318
 5282WAT    EPW21850   4.963   1.226   7.246
 5283WAT      O21851   5.196   1.443   6.242
 5283WAT     H121852   5.255   1.507   6.251
 5283WAT     H221853   5.121   1.486   6.227
 5283WAT    EPW21854   5.194   1.459   6.241
 5284WAT      O21855   4.031   1.978   7.581
 5284WAT     H121856   4.077   2.035   7.535
 5284WAT     H221857   4.064   1.901   7.557
 5284WAT    EPW21858   4.043   1.975   7.571
 5285WAT      O21859   5.312   2.279   7.485
 5285WAT     H121860   5.339   2.360   7.466
 5285WAT     H221861   5.342   2.231   7.419
 5285WAT    EPW21862   5.320   2.284   7.472
 5286WAT      O21863   4.706   2.601   7.521
 5286WAT     H121864   4.710   2.595   7.608
 5286WAT     H221865   4.694   2.519   7.495
 5286WAT    EPW21866   4.705   2.588   7.530
 5287WAT      O21867   4.802   1.581   6.851
 5287WAT     H121868   4.865   1.641   6.854
 5287WAT     H221869   4.840   1.509   6.884
 5287WAT    EPW21870   4.817   1.579   6.856
 5288WAT      O21871   5.062   1.887   6.045
 5288WAT     H121872   5.046   1.946   5.983
 5288WAT     H221873   5.002   1.904   6.106
 5288WAT    EPW21874   5.051   1.898   6.045
 5289WAT      O21875   5.583   2.213   6.483
 5289WAT     H121876   5.589   2.161   6.552
 5289WAT     H221877   5.567   2.159   6.417
 5289WAT    EPW21878   5.582   2.197   6.484
 5290WAT      O21879   5.154   2.639   6.808
 5290WAT     H121880   5.096   2.617   6.746
 5290WAT     H221881   5.205   2.697   6.769
 5290WAT    EPW21882   5.153   2.644   6.793
 5291WAT      O21883   5.152   2.260   6.795
 5291WAT     H121884   5.078   2.290   6.830
 5291WAT     H221885   5.191   2.217   6.861
 5291WAT    EPW21886   5.147   2.258   6.810
 5292WAT      O21887   4.481   1.147   6.008
 5292WAT     H121888   4.484   1.147   6.095
 5292WAT     H221889   4.434   1.218   5.990
 5292WAT    EPW21890   4.474   1.158   6.018
 5293WAT      O21891   4.742   2.717   6.008
 5293WAT     H121892   4.788   2.722   6.083
 5293WAT     H221893   4.746   2.798   5.976
 5293WAT    EPW21894   4.749   2.730   6.015
 5294WAT      O21895   5.404   2.120   7.283
 5294WAT     H121896   5.374   2.143   7.205
 5294WAT     H221897   5.491   2.127   7.275
 5294WAT    EPW21898   5.413   2.125   7.270
 5295WAT      O21899   5.635   1.059   7.531
 5295WAT     H121900   5.572   1.068   7.471
 5295WAT     H221901   5.591   1.060   7.606
 5295WAT    EPW21902   5.619   1.060   7.533
 5296WAT      O21903   4.230   2.006   6.121
 5296WAT     H121904   4.253   1.922   6.111
 5296WAT     H221905   4.298   2.041   6.163
 5296WAT    EPW21906   4.243   1.999   6.126
 5297WAT      O21907   5.051   2.096   7.139
 5297WAT     H121908   4.995   2.140   7.190
 5297WAT     H221909   5.075   2.029   7.188
 5297WAT    EPW21910   5.046   2.093   7.154
 5298WAT      O21911   3.915   1.133   6.221
 5298WAT     H121912   3.919   1.074   6.157
 5298WAT     H221913   3.884   1.089   6.289
 5298WAT    EPW21914   3.911   1.118   6.221
 5299WAT      O21915   4.900   1.923   6.273
 5299WAT     H121916   4.913   1.990   6.328
 5299WAT     H221917   4.890   1.854   6.326
 5299WAT    EPW21918   4.901   1.923   6.289
 5300WAT      O21919   5.389   2.415   6.781
 5300WAT     H121920   5.403   2.426   6.696
 5300WAT     H221921   5.312   2.373   6.784
 5300WAT    EPW21922   5.380   2.410   6.769
 5301WAT      O21923   4.349   1.383   5.933
 5301WAT     H121924   4.291   1.387   5.868
 5301WAT     H221925   4.421   1.416   5.898
 5301WAT    EPW21926   4.351   1.389   5.919
 5302WAT      O21927   4.808   2.153   6.681
 5302WAT     H121928   4.725   2.133   6.695
 5302WAT     H221929   4.849   2.120   6.750
 5302WAT    EPW21930   4.802   2.145   6.693
 5303WAT      O21931   4.452   2.773   5.794
 5303WAT     H121932   4.478   2.701   5.835
 5303WAT     H221933   4.466   2.836   5.852
 5303WAT    EPW21934   4.458   2.772   5.809
 5304WAT      O21935   4.172   2.075   6.965
 5304WAT     H121936   4.226   2.140   6.944
 5304WAT     H221937   4.129   2.059   6.891
 5304WAT    EPW21938   4.174   2.082   6.951
 5305WAT      O21939   4.503   1.596   6.614
 5305WAT     H121940   4.580   1.557   6.603
 5305WAT     H221941   4.446   1.532   6.600
 5305WAT    EPW21942   4.506   1.581   6.610
 5306WAT      O21943   5.769   2.797   6.024
 5306WAT     H121944   5.836   2.748   5.998
 5306WAT     H221945   5.718   2.740   6.066
 5306WAT    EPW21946   5.771   2.781   6.027
 5307WAT      O21947   3.971   1.708   6.278
 5307WAT     H121948   4.008   1.675   6.350
 5307WAT     H221949   3.981   1.644   6.219
 5307WAT    EPW21950   3.978   1.693   6.280
 5308WAT      O21951   5.526   2.071   6.969
 5308WAT     H121952   5.531   2.001   7.021
 5308WAT     H221953   5.445   2.101   6.982
 5308WAT    EPW21954   5.515   2.065   6.979
 5309WAT      O21955   4.492   1.967   5.830
 5309WAT     H121956   4.498   1.903   5.889
 5309WAT     H221957   4.448   1.929   5.764
 5309WAT    EPW21958   4.486   1.952   5.829
 5310WAT      O21959   4.139   2.171   7.403
 5310WAT     H121960   4.107   2.125   7.336
 5310WAT     H221961   4.111   2.252   7.389
 5310WAT    EPW21962   4.130   2.176   7.391
 5311WAT      O21963   5.619   2.042   6.706
 5311WAT     H121964   5.593   2.058   6.788
 5311WAT     H221965   5.706   2.037   6.713
 5311WAT    EPW21966   5.628   2.043   6.720
 5312WAT      O21967   4.560   1.755   6.020
 5312WAT     H121968   4.589   1.818   6.073
 5312WAT     H221969   4.477   1.745   6.044
 5312WAT    EPW21970   4.552   1.763   6.031
 5313WAT      O21971   5.382   1.475   7.510
 5313WAT     H121972   5.338   1.491   7.584
 5313WAT     H221973   5.347   1.401   7.480
 5313WAT    EPW21974   5.371   1.467   7.516
 5314WAT      O21975   3.962   1.356   6.741
 5314WAT     H121976   3.940   1.390   6.664
 5314WAT     H221977   4.030   1.405   6.766
 5314WAT    EPW21978   3.969   1.369   6.733
 5315WAT      O21979   5.770   2.547   6.797
 5315WAT     H121980   5.798   2.599   6.733
 5315WAT     H221981   5.836   2.546   6.854
 5315WAT    EPW21982   5.784   2.554   6.796
 5316WAT      O21983   5.276   1.882   7.546
 5316WAT     H121984   5.323   1.943   7.586
 5316WAT     H221985   5.195   1.895   7.578
 5316WAT    EPW21986   5.271   1.893   7.557
 5317WAT      O21987   5.531   1.824   7.427
 5317WAT     H121988   5.571   1.896   7.456
 5317WAT     H221989   5.452   1.828   7.463
 5317WAT    EPW21990   5.525   1.836   7.437
 5318WAT      O21991   5.448   2.467   5.996
 5318WAT     H121992   5.485   2.389   6.007
 5318WAT     H221993   5.370   2.460   6.034
 5318WAT    EPW21994   5.442   2.455   6.003
 5319WAT      O21995   5.499   1.614   6.523
 5319WAT     H121996   5.432   1.566   6.551
 5319WAT     H221997   5.491   1.689   6.566
 5319WAT    EPW21998   5.488   1.618   6.533
 5320WAT      O21999   5.680   2.174   7.270
 5320WAT     H122000   5.749   2.127   7.244
 5320WAT     H222001   5.673   2.235   7.208
 5320WAT    EPW22002   5.689   2.176   7.257
 5321WAT      O22003   5.118   2.258   5.931
 5321WAT     H122004   5.195   2.218   5.924
 5321WAT     H222005   5.093   2.268   5.848
 5321WAT    EPW22006   5.126   2.254   5.918
 5322WAT      O22007   4.582   2.379   7.014
 5322WAT     H122008   4.583   2.423   7.089
 5322WAT     H222009   4.594   2.440   6.953
 5322WAT    EPW22010   4.584   2.394   7.016
 5323WAT      O22011   4.411   2.234   7.380
 5323WAT     H122012   4.332   2.201   7.399
 5323WAT     H222013   4.394   2.318   7.364
 5323WAT    EPW22014   4.397   2.242   7.380
 5324WAT      O22015   5.347   1.312   7.196
 5324WAT     H122016   5.400   1.381   7.198
 5324WAT     H222017   5.269   1.346   7.179
 5324WAT    EPW22018   5.344   1.327   7.194
 5325WAT      O22019   4.896   2.023   6.918
 5325WAT     H122020   4.951   2.053   6.979
 5325WAT     H222021   4.817   2.040   6.952
 5325WAT    EPW22022   4.892   2.030   6.932
 5326WAT      O22023   4.534   1.587   7.312
 5326WAT     H122024   4.557   1.509   7.344
 5326WAT     H222025   4.562   1.585   7.230
 5326WAT    EPW22026   4.541   1.575   7.305
 5327WAT      O22027   4.813   2.796   6.491
 5327WAT     H122028   4.870   2.858   6.470
 5327WAT     H222029   4.759   2.795   6.422
 5327WAT    EPW22030   4.813   2.805   6.477
 5328WAT      O22031   5.431   1.109   7.016
 5328WAT     H122032   5.398   1.180   7.055
 5328WAT     H222033   5.515   1.111   7.039
 5328WAT    EPW22034   5.439   1.120   7.025
 5329WAT      O22035   4.686   1.173   7.175
 5329WAT     H122036   4.768   1.203   7.183
 5329WAT     H222037   4.696   1.098   7.132
 5329WAT    EPW22038   4.700   1.167   7.170
 5330WAT      O22039   4.641   2.592   6.845
 5330WAT     H122040   4.590   2.642   6.794
 5330WAT     H222041   4.684   2.542   6.788
 5330WAT    EPW22042   4.640   2.592   6.829
 5331WAT      O22043   5.044   2.237   7.536
 5331WAT     H122044   5.129   2.243   7.517
 5331WAT     H222045   5.005   2.241   7.458
 5331WAT    EPW22046   5.051   2.238   7.522
 5332WAT      O22047   5.354   2.553   7.418
 5332WAT     H122048   5.356   2.621   7.472
 5332WAT     H222049   5.411   2.574   7.356
 5332WAT    EPW22050   5.363   2.566   7.417
 5333WAT      O22051   5.644   1.773   5.912
 5333WAT     H122052   5.691   1.830   5.866
 5333WAT     H222053   5.564   1.807   5.911
 5333WAT    EPW22054   5.639   1.787   5.905
 5334WAT      O22055   4.758   2.043   5.890
 5334WAT     H122056   4.680   2.039   5.852
 5334WAT     H222057   4.769   2.128   5.906
 5334WAT    EPW22058   4.748   2.055   5.886
 5335WAT      O22059   4.405   1.667   6.865
 5335WAT     H122060   4.441   1.641   6.790
 5335WAT     H222061   4.463   1.641   6.925
 5335WAT    EPW22062   4.419   1.659   6.863
 5336WAT      O22063   5.106   1.554   7.427
 5336WAT     H122064   5.050   1.620   7.438
 5336WAT     H222065   5.184   1.590   7.437
 5336WAT    EPW22066   5.109   1.569   7.430
 5337WAT      O22067   5.171   1.715   7.050
 5337WAT     H122068   5.170   1.765   7.121
 5337WAT     H222069   5.152   1.635   7.081
 5337WAT    EPW22070   5.168   1.710   7.065
 5338WAT      O22071   4.878   2.816   7.439
 5338WAT     H122072   4.901   2.805   7.356
 5338WAT     H222073   4.844   2.739   7.462
 5338WAT    EPW22074   4.877   2.803   7.430
 5339WAT      O22075   5.386   1.655   6.273
 5339WAT     H122076   5.413   1.639   6.354
 5339WAT     H222077   5.458   1.683   6.233
 5339WAT    EPW22078   5.401   1.657   6.279
 5340WAT      O22079   4.710   1.162   6.808
 5340WAT     H122080   4.628   1.145   6.830
 5340WAT     H222081   4.707   1.170   6.721
 5340WAT    EPW22082   4.698   1.161   6.798
 5341WAT      O22083   5.526   1.246   6.440
 5341WAT     H122084   5.448   1.211   6.456
 5341WAT     H222085   5.524   1.262   6.354
 5341WAT    EPW22086   5.514   1.243   6.429
 5342WAT      O22087   5.531   2.055   6.252
 5342WAT     H122088   5.573   1.979   6.240
 5342WAT     H222089   5.447   2.034   6.243
 5342WAT    EPW22090   5.525   2.041   6.249
 5343WAT      O22091   4.890   2.262   7.304
 5343WAT     H122092   4.815   2.265   7.348
 5343WAT     H222093   4.895   2.341   7.268
 5343WAT    EPW22094   4.880   2.274   7.305
 5344WAT      O22095   3.956   1.251   7.485
 5344WAT     H122096   3.927   1.304   7.422
 5344WAT     H222097   3.885   1.210   7.513
 5344WAT    EPW22098   3.941   1.253   7.480
 5345WAT      O22099   4.464   2.902   6.890
 5345WAT     H122100   4.465   2.868   6.970
 5345WAT     H222101   4.433   2.837   6.840
 5345WAT    EPW22102   4.460   2.887   6.894
 5346WAT      O22103   4.270   1.476   6.189
 5346WAT     H122104   4.279   1.442   6.109
 5346WAT     H222105   4.189   1.452   6.212
 5346WAT    EPW22106   4.259   1.468   6.181
 5347WAT      O22107   5.180   2.230   6.519
 5347WAT     H122108   5.166   2.240   6.605
 5347WAT     H222109   5.209   2.148   6.512
 5347WAT    EPW22110   5.182   2.219   6.531
 5348WAT      O22111   4.927   2.150   6.430
 5348WAT     H122112   4.886   2.147   6.506
 5348WAT     H222113   5.006   2.181   6.450
 5348WAT    EPW22114   4.933   2.154   6.444
 5349WAT      O22115   4.892   2.542   7.243
 5349WAT     H122116   4.943   2.535   7.314
 5349WAT     H222117   4.920   2.615   7.204
 5349WAT    EPW22118   4.904   2.552   7.248
 5350WAT      O22119   5.732   1.631   7.476
 5350WAT     H122120   5.676   1.695   7.459
 5350WAT     H222121   5.810   1.671   7.476
 5350WAT    EPW22122   5.735   1.646   7.473
 5351WAT      O22123   5.151   1.878   7.278
 5351WAT     H122124   5.085   1.848   7.328
 5351WAT     H222125   5.212   1.898   7.337
 5351WAT    EPW22126   5.150   1.877   7.294
 5352WAT      O22127   4.101   2.870   7.407
 5352WAT     H122128   4.043   2.805   7.400
 5352WAT     H222129   4.054   2.937   7.438
 5352WAT    EPW22130   4.085   2.870   7.411
 5353WAT      O22131   5.022   1.977   7.637
 5353WAT     H122132   5.027   2.060   7.608
 5353WAT     H222133   5.003   1.986   7.721
 5353WAT    EPW22134   5.020   1.991   7.645
 5354WAT      O22135   5.303   2.873   6.753
 5354WAT     H122136   5.247   2.933   6.783
 5354WAT     H222137   5.372   2.882   6.806
 5354WAT    EPW22138   5.305   2.883   6.766
 5355WAT      O22139   4.948   2.364   6.957
 5355WAT     H122140   4.871   2.392   6.987
 5355WAT     H222141   5.006   2.409   7.005
 5355WAT    EPW22142   4.945   2.375   6.968
 5356WAT      O22143   4.271   1.681   7.261
 5356WAT     H122144   4.290   1.749   7.210
 5356WAT     H222145   4.349   1.650   7.284
 5356WAT    EPW22146   4.286   1.686   7.256
 5357WAT      O22147   4.081   1.525   7.131
 5357WAT     H122148   4.098   1.534   7.046
 5357WAT     H222149   4.138   1.578   7.169
 5357WAT    EPW22150   4.092   1.534   7.124
 5358WAT      O22151   5.613   1.794   6.189
 5358WAT     H122152   5.631   1.792   6.104
 5358WAT     H222153   5.687   1.767   6.226
 5358WAT    EPW22154   5.627   1.790   6.182
 5359WAT      O22155   4.317   1.255   7.417
 5359WAT     H122156   4.275   1.180   7.430
 5359WAT     H222157   4.296   1.276   7.334
 5359WAT    EPW22158   4.308   1.247   7.406
 5360WAT      O22159   5.018   2.506   6.323
 5360WAT     H122160   4.994   2.582   6.290
 5360WAT     H222161   4.949   2.454   6.309
 5360WAT    EPW22162   5.004   2.509   6.316
 5361WAT      O22163   5.535   1.836   7.145
 5361WAT     H122164   5.507   1.755   7.129
 5361WAT     H222165   5.527   1.843   7.231
 5361WAT    EPW22166   5.530   1.825   7.155
 5362WAT      O22167   4.018   2.039   7.194
 5362WAT     H122168   4.061   2.054   7.120
 5362WAT     H222169   3.996   1.954   7.188
 5362WAT    EPW22170   4.021   2.028   7.182
 5363WAT      O22171   4.146   1.661   5.842
 5363WAT     H122172   4.084   1.633   5.897
 5363WAT     H222173   4.166   1.589   5.797
 5363WAT    EPW22174   4.140   1.646   5.843
 5364WAT      O22175   5.062   1.284   7.492
 5364WAT     H122176   5.069   1.370   7.482
 5364WAT     H222177   4.984   1.274   7.530
 5364WAT    EPW22178   5.051   1.295   7.496
 5365WAT      O22179   5.029   1.348   6.594
 5365WAT     H122180   4.951   1.388   6.592
 5365WAT     H222181   5.022   1.288   6.531
 5365WAT    EPW22182   5.016   1.345   6.584
 5366WAT      O22183   4.517   2.539   5.939
 5366WAT     H122184   4.579   2.580   5.985
 5366WAT     H222185   4.456   2.521   5.999
 5366WAT    EPW22186   4.517   2.542   5.955
 5367WAT      O22187   5.359   1.415   6.856
 5367WAT     H122188   5.439   1.382   6.864
 5367WAT     H222189   5.368   1.498   6.881
 5367WAT    EPW22190   5.372   1.423   6.861
 5368WAT      O22191   4.525   2.010   7.248
 5368WAT     H122192   4.484   2.076   7.287
 5368WAT     H222193   4.461   1.971   7.202
 5368WAT    EPW22194   4.509   2.014   7.247
 5369WAT      O22195   5.431   1.845   6.662
 5369WAT     H122196   5.494   1.904   6.674
 5369WAT     H222197   5.374   1.887   6.610
 5369WAT    EPW22198   5.432   1.860   6.656
 5370WAT      O22199   5.442   2.677   6.387
 5370WAT     H122200   5.425   2.600   6.423
 5370WAT     H222201   5.481   2.658   6.312
 5370WAT    EPW22202   5.445   2.663   6.381
 5371WAT      O22203   4.260   2.450   6.042
 5371WAT     H122204   4.256   2.432   6.127
 5371WAT     H222205   4.247   2.373   6.004
 5371WAT    EPW22206   4.257   2.436   6.049
 5372WAT      O22207   4.495   2.295   5.787
 5372WAT     H122208   4.465   2.237   5.845
 5372WAT     H222209   4.502   2.368   5.833
 5372WAT    EPW22210   4.491   2.297   5.802
 5373WAT      O22211   4.503   1.332   7.034
 5373WAT     H122212   4.424   1.315   7.067
 5373WAT     H222213   4.555   1.275   7.075
 5373WAT    EPW22214   4.499   1.321   7.045
 5374WAT      O22215   5.690   1.198   7.125
 5374WAT     H122216   5.701   1.263   7.183
 5374WAT     H222217   5.768   1.159   7.122
 5374WAT    EPW22218   5.703   1.202   7.133
 5375WAT      O22219   4.893   1.335   6.933
 5375WAT     H122220   4.835   1.281   6.898
 5375WAT     H222221   4.970   1.299   6.911
 5375WAT    EPW22222   4.896   1.322   6.924
 5376WAT      O22223   5.201   2.472   7.037
 5376WAT     H122224   5.223   2.541   7.085
 5376WAT     H222225   5.199   2.503   6.956
 5376WAT    EPW22226   5.204   2.487   7.032
 5377WAT      O22227   5.169   2.874   7.471
 5377WAT     H122228   5.094   2.830   7.476
 5377WAT     H222229   5.146   2.957   7.487
 5377WAT    EPW22230   5.155   2.880   7.474
 5378WAT      O22231   4.686   1.815   7.377
 5378WAT     H122232   4.637   1.743   7.366
 5378WAT     H222233   4.639   1.878   7.339
 5378WAT    EPW22234   4.672   1.814   7.369
 5379WAT      O22235   4.754   1.157   5.947
 5379WAT     H122236   4.765   1.166   5.861
 5379WAT     H222237   4.668   1.165   5.958
 5379WAT    EPW22238   4.743   1.160   5.936
 5380WAT      O22239   5.654   2.323   7.037
 5380WAT     H122240   5.619   2.254   6.997
 5380WAT     H222241   5.606   2.390   7.010
 5380WAT    EPW22242   5.642   2.323   7.027
 5381WAT      O22243   4.543   2.810   7.410
 5381WAT     H122244   4.598   2.877   7.402
 5381WAT     H222245   4.594   2.746   7.439
 5381WAT    EPW22246   4.559   2.810   7.413
 5382WAT      O22247   5.540   2.568   6.959
 5382WAT     H122248   5.609   2.577   6.908
 5382WAT     H222249   5.480   2.530   6.907
 5382WAT    EPW22250   5.541   2.564   6.944
 5383WAT      O22251   4.249   1.302   7.154
 5383WAT     H122252   4.195   1.237   7.133
 5383WAT     H222253   4.201   1.374   7.143
 5383WAT    EPW22254   4.234   1.303   7.150
 5384WAT      O22255   5.136   1.243   6.829
 5384WAT     H122256   5.201   1.298   6.848
 5384WAT     H222257   5.104   1.275   6.754
 5384WAT    EPW22258   5.141   1.256   6.820
 5385WAT      O22259   4.306   2.713   7.522
 5385WAT     H122260   4.378   2.758   7.501
 5385WAT     H222261   4.241   2.764   7.493
 5385WAT    EPW22262   4.307   2.727   7.514
 5386WAT      O22263   5.104   1.739   6.584
 5386WAT     H122264   5.158   1.672   6.596
 5386WAT     H222265   5.072   1.755   6.663
 5386WAT    EPW22266   5.107   1.731   6.597
 5387WAT      O22267   4.104   1.635   6.515
 5387WAT     H122268   4.062   1.661   6.587
 5387WAT     H222269   4.144   1.561   6.540
 5387WAT    EPW22270   4.104   1.628   6.529
 5388WAT      O22271   4.082   2.438   7.311
 5388WAT     H122272   4.034   2.504   7.342
 5388WAT     H222273   4.164   2.467   7.317
 5388WAT    EPW22274   4.087   2.452   7.317
 5389WAT      O22275   5.286   1.905   6.211
 5389WAT     H122276   5.306   1.823   6.230
 5389WAT     H222277   5.211   1.898   6.166
 5389WAT    EPW22278   5.278   1.892   6.207
 5390WAT      O22279   4.194   2.797   6.170
 5390WAT     H122280   4.192   2.768   6.087
 5390WAT     H222281   4.279   2.801   6.188
 5390WAT    EPW22282   4.206   2.793   6.160
 5391WAT      O22283   4.665   1.977   6.142
 5391WAT     H122284   4.698   2.004   6.067
 5391WAT     H222285   4.735   1.960   6.191
 5391WAT    EPW22286   4.680   1.978   6.138
 5392WAT      O22287   5.560   2.857   5.847
 5392WAT     H122288   5.630   2.843   5.898
 5392WAT     H222289   5.542   2.778   5.815
 5392WAT    EPW22290   5.568   2.843   5.850
 5393WAT      O22291   5.658   2.051   7.523
 5393WAT     H122292   5.739   2.029   7.548
 5393WAT     H222293   5.672   2.102   7.453
 5393WAT    EPW22294   5.672   2.055   7.516
 5394WAT      O22295   5.200   2.461   6.113
 5394WAT     H122296   5.151   2.461   6.185
 5394WAT     H222297   5.160   2.401   6.062
 5394WAT    EPW22298   5.187   2.452   6.116
 5395WAT      O22299   5.619   1.454   7.666
 5395WAT     H122300   5.672   1.511   7.627
 5395WAT     H222301   5.548   1.453   7.616
 5395WAT    EPW22302   5.617   1.462   7.653
 5396WAT      O22303   5.677   1.638   6.919
 5396WAT     H122304   5.594   1.665   6.914
 5396WAT     H222305   5.671   1.551   6.918
 5396WAT    EPW22306   5.664   1.629   6.918
 5397WAT      O22307   4.590   1.315   7.397
 5397WAT     H122308   4.611   1.272   7.324
 5397WAT     H222309   4.507   1.293   7.411
 5397WAT    EPW22310   4.581   1.306   7.388
 5398WAT      O22311   5.418   2.087   7.662
 5398WAT     H122312   5.500   2.081   7.633
 5398WAT     H222313   5.387   2.157   7.620
 5398WAT    EPW22314   5.425   2.096   7.651
 5399WAT      O22315   4.295   2.691   6.790
 5399WAT     H122316   4.288   2.613   6.753
 5399WAT     H222317   4.257   2.745   6.733
 5399WAT    EPW22318   4.288   2.687   6.776
 5400WAT      O22319   4.849   2.287   5.991
 5400WAT     H122320   4.934   2.268   5.983
 5400WAT     H222321   4.841   2.362   5.948
 5400WAT    EPW22322   4.860   2.295   5.983
 5401WAT      O22323   4.061   2.922   7.137
 5401WAT     H122324   4.076   2.906   7.221
 5401WAT     H222325   4.095   2.853   7.096
 5401WAT    EPW22326   4.069   2.910   7.143
 5402WAT      O22327   5.040   1.151   4.502
 5402WAT     H122328   5.038   1.195   4.427
 5402WAT     H222329   5.125   1.138   4.516
 5402WAT    EPW22330   5.053   1.156   4.493
 5403WAT      O22331   4.983   1.776   4.948
 5403WAT     H122332   4.949   1.853   4.970
 5403WAT     H222333   5.041   1.759   5.011
 5403WAT    EPW22334   4.987   1.785   4.960
 5404WAT      O22335   3.902   2.260   4.521
 5404WAT     H122336   3.835   2.301   4.484
 5404WAT     H222337   3.924   2.200   4.461
 5404WAT    EPW22338   3.895   2.257   4.507
 5405WAT      O22339   5.576   2.617   4.242
 5405WAT     H122340   5.639   2.559   4.261
 5405WAT     H222341   5.518   2.569   4.198
 5405WAT    EPW22342   5.577   2.601   4.238
 5406WAT      O22343   5.249   1.961   4.634
 5406WAT     H122344   5.256   1.951   4.547
 5406WAT     H222345   5.191   1.900   4.657
 5406WAT    EPW22346   5.241   1.950   4.624
 5407WAT      O22347   4.695   1.282   4.367
 5407WAT     H122348   4.689   1.356   4.321
 5407WAT     H222349   4.773   1.250   4.344
 5407WAT    EPW22350   4.706   1.288   4.357
 5408WAT      O22351   3.916   2.649   5.051
 5408WAT     H122352   3.866   2.622   5.118
 5408WAT     H222353   3.865   2.705   5.009
 5408WAT    EPW22354   3.901   2.653   5.055
 5409WAT      O22355   4.666   2.324   5.561
 5409WAT     H122356   4.634   2.310   5.641
 5409WAT     H222357   4.596   2.312   5.509
 5409WAT    EPW22358   4.651   2.320   5.565
 5410WAT      O22359   4.171   2.076   4.591
 5410WAT     H122360   4.125   2.072   4.516
 5410WAT     H222361   4.213   2.000   4.593
 5410WAT    EPW22362   4.170   2.065   4.580
 5411WAT      O22363   4.584   1.597   5.146
 5411WAT     H122364   4.653   1.598   5.093
 5411WAT     H222365   4.561   1.513   5.148
 5411WAT    EPW22366   4.590   1.585   5.139
 5412WAT      O22367   4.617   2.569   5.337
 5412WAT     H122368   4.598   2.628   5.275
 5412WAT     H222369   4.704   2.567   5.337
 5412WAT    EPW22370   4.627   2.578   5.328
 5413WAT      O22371   4.310   1.831   4.615
 5413WAT     H122372   4.384   1.784   4.618
 5413WAT     H222373   4.247   1.771   4.613
 5413WAT    EPW22374   4.312   1.815   4.615
 5414WAT      O22375   4.799   2.433   4.843
 5414WAT     H122376   4.799   2.352   4.810
 5414WAT     H222377   4.849   2.478   4.788
 5414WAT    EPW22378   4.806   2.428   4.830
 5415WAT      O22379   4.796   2.333   4.380
 5415WAT     H122380   4.837   2.275   4.431
 5415WAT     H222381   4.827   2.315   4.300
 5415WAT    EPW22382   4.807   2.322   4.376
 5416WAT      O22383   4.925   1.811   5.550
 5416WAT     H122384   4.838   1.816   5.542
 5416WAT     H222385   4.942   1.866   5.616
 5416WAT    EPW22386   4.914   1.820   5.559
 5417WAT      O22387   4.424   1.292   4.460
 5417WAT     H122388   4.384   1.348   4.406
 5417WAT     H222389   4.508   1.296   4.436
 5417WAT    EPW22390   4.430   1.301   4.449
 5418WAT      O22391   5.409   1.063   5.443
 5418WAT     H122392   5.381   1.130   5.394
 5418WAT     H222393   5.338   1.039   5.486
 5418WAT    EPW22394   5.395   1.070   5.442
 5419WAT      O22395   4.727   1.226   4.644
 5419WAT     H122396   4.734   1.309   4.669
 5419WAT     H222397   4.710   1.231   4.559
 5419WAT    EPW22398   4.725   1.239   4.635
 5420WAT      O22399   5.121   1.445   3.882
 5420WAT     H122400   5.087   1.519   3.913
 5420WAT     H222401   5.143   1.401   3.955
 5420WAT    EPW22402   5.119   1.450   3.898
 5421WAT      O22403   3.944   1.732   4.830
 5421WAT     H122404   3.914   1.814   4.825
 5421WAT     H222405   3.890   1.694   4.888
 5421WAT    EPW22406   3.931   1.739   4.838
 5422WAT      O22407   5.132   2.754   4.086
 5422WAT     H122408   5.197   2.805   4.113
 5422WAT     H222409   5.148   2.678   4.126
 5422WAT    EPW22410   5.144   2.750   4.096
 5423WAT      O22411   4.929   2.776   4.284
 5423WAT     H122412   4.892   2.855   4.281
 5423WAT     H222413   4.981   2.775   4.215
 5423WAT    EPW22414   4.931   2.788   4.274
 5424WAT      O22415   4.302   1.264   4.885
 5424WAT     H122416   4.247   1.201   4.861
 5424WAT     H222417   4.359   1.223   4.937
 5424WAT    EPW22418   4.302   1.248   4.889
 5425WAT      O22419   4.593   1.454   5.810
 5425WAT     H122420   4.594   1.415   5.732
 5425WAT     H222421   4.637   1.528   5.796
 5425WAT    EPW22422   4.600   1.459   5.796
 5426WAT      O22423   5.726   1.432   4.608
 5426WAT     H122424   5.676   1.503   4.613
 5426WAT     H222425   5.669   1.367   4.597
 5426WAT    EPW22426   5.710   1.433   4.607
 5427WAT      O22427   5.202   2.771   5.160
 5427WAT     H122428   5.274   2.818   5.148
 5427WAT     H222429   5.180   2.745   5.080
 5427WAT    EPW22430   5.209   2.774   5.147
 5428WAT      O22431   4.189   1.425   5.701
 5428WAT     H122432   4.117   1.444   5.656
 5428WAT     H222433   4.229   1.366   5.651
 5428WAT    EPW22434   4.185   1.419   5.687
 5429WAT      O22435   4.331   2.504   4.672
 5429WAT     H122436   4.339   2.553   4.600
 5429WAT     H222437   4.373   2.431   4.652
 5429WAT    EPW22438   4.338   2.501   4.658
 5430WAT      O22439   4.785   1.179   5.675
 5430WAT     H122440   4.802   1.108   5.629
 5430WAT     H222441   4.720   1.217   5.632
 5430WAT    EPW22442   4.778   1.174   5.662
 5431WAT      O22443   4.894   1.687   4.512
 5431WAT     H122444   4.925   1.651   4.439
 5431WAT     H222445   4.966   1.700   4.560
 5431WAT    EPW22446   4.909   1.684   4.508
 5432WAT      O22447   4.954   1.722   3.994
 5432WAT     H122448   5.012   1.743   3.933
 5432WAT     H222449   4.879   1.716   3.950
 5432WAT    EPW22450   4.952   1.725   3.979
 5433WAT      O22451   5.336   2.927   4.160
 5433WAT     H122452   5.399   2.915   4.100
 5433WAT     H222453   5.377   2.913   4.236
 5433WAT    EPW22454   5.351   2.923   4.162
 5434WAT      O22455   4.420   2.790   5.245
 5434WAT     H122456   4.424   2.783   5.332
 5434WAT     H222457   4.342   2.759   5.225
 5434WAT    EPW22458   4.409   2.785   5.255
 5435WAT      O22459   5.636   1.357   5.025
 5435WAT     H122460   5.701   1.345   4.968
 5435WAT     H222461   5.653   1.299   5.088
 5435WAT    EPW22462   5.648   1.347   5.026
 5436WAT      O22463   3.957   1.497   5.565
 5436WAT     H122464   3.889   1.521   5.614
 5436WAT     H222465   3.933   1.518   5.484
 5436WAT    EPW22466   3.944   1.504   5.561
 5437WAT      O22467   5.110   2.543   5.523
 5437WAT     H122468   5.102   2.566   5.607
 5437WAT     H222469   5.196   2.535   5.513
 5437WAT    EPW22470   5.122   2.545   5.534
 5438WAT      O22471   4.870   2.557   4.023
 5438WAT     H122472   4.807   2.616   4.036
 5438WAT     H222473   4.912   2.587   3.953
 5438WAT    EPW22474   4.867   2.570   4.015
 5439WAT      O22475   5.185   1.299   4.112
 5439WAT     H122476   5.242   1.233   4.118
 5439WAT     H222477   5.205   1.349   4.180
 5439WAT    EPW22478   5.197   1.297   4.123
 5440WAT      O22479   4.003   1.406   4.367
 5440WAT     H122480   3.982   1.322   4.353
 5440WAT     H222481   3.968   1.422   4.445
 5440WAT    EPW22482   3.995   1.396   4.376
 5441WAT      O22483   4.193   2.710   5.088
 5441WAT     H122484   4.107   2.695   5.091
 5441WAT     H222485   4.210   2.717   5.003
 5441WAT    EPW22486   4.183   2.709   5.076
 5442WAT      O22487   4.959   1.592   4.250
 5442WAT     H122488   4.883   1.551   4.237
 5442WAT     H222489   4.969   1.639   4.177
 5442WAT    EPW22490   4.949   1.593   4.237
 5443WAT      O22491   4.968   2.856   5.278
 5443WAT     H122492   5.047   2.839   5.245
 5443WAT     H222493   4.914   2.846   5.210
 5443WAT    EPW22494   4.972   2.852   5.263
 5444WAT      O22495   4.950   1.225   4.241
 5444WAT     H122496   4.895   1.205   4.177
 5444WAT     H222497   5.022   1.251   4.199
 5444WAT    EPW22498   4.953   1.226   4.225
 5445WAT      O22499   5.663   2.844   4.531
 5445WAT     H122500   5.624   2.922   4.542
 5445WAT     H222501   5.597   2.789   4.524
 5445WAT    EPW22502   5.648   2.848   4.532
 5446WAT      O22503   4.770   1.503   4.688
 5446WAT     H122504   4.800   1.566   4.637
 5446WAT     H222505   4.776   1.536   4.768
 5446WAT    EPW22506   4.775   1.517   4.692
 5447WAT      O22507   5.408   2.415   4.612
 5447WAT     H122508   5.471   2.356   4.604
 5447WAT     H222509   5.334   2.369   4.607
 5447WAT    EPW22510   5.406   2.400   4.610
 5448WAT      O22511   4.353   2.531   5.478
 5448WAT     H122512   4.429   2.566   5.452
 5448WAT     H222513   4.324   2.588   5.537
 5448WAT    EPW22514   4.360   2.545   5.483
 5449WAT      O22515   4.352   1.036   4.544
 5449WAT     H122516   4.377   1.117   4.523
 5449WAT     H222517   4.323   1.003   4.469
 5449WAT    EPW22518   4.352   1.043   4.530
 5450WAT      O22519   4.547   2.103   4.889
 5450WAT     H122520   4.569   2.092   4.972
 5450WAT     H222521   4.486   2.042   4.875
 5450WAT    EPW22522   4.541   2.092   4.899
 5451WAT      O22523   5.133   1.470   5.284
 5451WAT     H122524   5.136   1.513   5.359
 5451WAT     H222525   5.067   1.414   5.294
 5451WAT    EPW22526   5.124   1.468   5.296
 5452WAT      O22527   4.637   2.100   5.155
 5452WAT     H122528   4.627   2.187   5.156
 5452WAT     H222529   4.620   2.076   5.237
 5452WAT    EPW22530   4.633   2.109   5.167
 5453WAT      O22531   5.274   2.210   5.160
 5453WAT     H122532   5.197   2.177   5.185
 5453WAT     H222533   5.261   2.296   5.164
 5453WAT    EPW22534   5.261   2.218   5.164
 5454WAT      O22535   5.302   1.081   4.575
 5454WAT     H122536   5.304   1.063   4.661
 5454WAT     H222537   5.338   1.011   4.538
 5454WAT    EPW22538   5.308   1.068   4.583
 5455WAT      O22539   3.897   2.522   5.787
 5455WAT     H122540   3.961   2.573   5.818
 5455WAT     H222541   3.905   2.448   5.833
 5455WAT    EPW22542   3.908   2.519   5.799
 5456WAT      O22543   5.513   1.512   5.377
 5456WAT     H122544   5.597   1.501   5.396
 5456WAT     H222545   5.474   1.508   5.454
 5456WAT    EPW22546   5.520   1.510   5.391
 5457WAT      O22547   4.292   1.435   4.668
 5457WAT     H122548   4.327   1.382   4.609
 5457WAT     H222549   4.290   1.387   4.741
 5457WAT    EPW22550   4.297   1.420   4.670
 5458WAT      O22551   5.538   2.223   4.143
 5458WAT     H122552   5.539   2.175   4.216
 5458WAT     H222553   5.622   2.231   4.122
 5458WAT    EPW22554   5.551   2.217   4.150
 5459WAT      O22555   4.388   2.247   4.582
 5459WAT     H122556   4.432   2.240   4.508
 5459WAT     H222557   4.329   2.184   4.577
 5459WAT    EPW22558   4.386   2.237   4.571
 5460WAT      O22559   4.132   1.578   4.983
 5460WAT     H122560   4.215   1.597   4.966
 5460WAT     H222561   4.088   1.642   4.945
 5460WAT    EPW22562   4.138   1.590   4.975
 5461WAT      O22563   5.806   2.653   5.508
 5461WAT     H122564   5.732   2.654   5.462
 5461WAT     H222565   5.785   2.608   5.580
 5461WAT    EPW22566   5.792   2.647   5.512
 5462WAT      O22567   5.194   1.940   4.084
 5462WAT     H122568   5.246   2.001   4.049
 5462WAT     H222569   5.224   1.932   4.165
 5462WAT    EPW22570   5.206   1.948   4.091
 5463WAT      O22571   4.531   2.237   4.336
 5463WAT     H122572   4.604   2.282   4.354
 5463WAT     H222573   4.484   2.292   4.288
 5463WAT    EPW22574   4.535   2.252   4.332
 5464WAT      O22575   5.684   1.378   4.025
 5464WAT     H122576   5.693   1.302   3.983
 5464WAT     H222577   5.660   1.434   3.963
 5464WAT    EPW22578   5.682   1.375   4.010
 5465WAT      O22579   3.895   2.446   4.859
 5465WAT     H122580   3.827   2.478   4.814
 5465WAT     H222581   3.916   2.511   4.914
 5465WAT    EPW22582   3.888   2.461   4.861
 5466WAT      O22583   4.732   1.696   5.803
 5466WAT     H122584   4.682   1.729   5.866
 5466WAT     H222585   4.709   1.741   5.732
 5466WAT    EPW22586   4.721   1.707   5.802
 5467WAT      O22587   5.790   1.794   5.269
 5467WAT     H122588   5.806   1.727   5.216
 5467WAT     H222589   5.705   1.809   5.258
 5467WAT    EPW22590   5.780   1.786   5.260
 5468WAT      O22591   4.026   2.056   4.355
 5468WAT     H122592   4.028   1.969   4.347
 5468WAT     H222593   4.071   2.084   4.285
 5468WAT    EPW22594   4.033   2.047   4.343
 5469WAT      O22595   5.566   1.261   4.258
 5469WAT     H122596   5.642   1.221   4.275
 5469WAT     H222597   5.586   1.316   4.194
 5469WAT    EPW22598   5.580   1.263   4.251
 5470WAT      O22599   4.956   2.610   4.700
 5470WAT     H122600   4.894   2.670   4.690
 5470WAT     H222601   4.977   2.588   4.618
 5470WAT    EPW22602   4.950   2.616   4.686
 5471WAT      O22603   4.350   2.286   4.983
 5471WAT     H122604   4.400   2.327   5.041
 5471WAT     H222605   4.408   2.245   4.931
 5471WAT    EPW22606   4.366   2.286   4.984
 5472WAT      O22607   5.260   1.508   4.720
 5472WAT     H122608   5.292   1.473   4.793
 5472WAT     H222609   5.195   1.455   4.698
 5472WAT    EPW22610   5.255   1.495   4.728
 5473WAT      O22611   4.695   1.501   4.198
 5473WAT     H122612   4.674   1.482   4.115
 5473WAT     H222613   4.662   1.581   4.209
 5473WAT    EPW22614   4.687   1.510   4.187
 5474WAT      O22615   5.557   2.671   5.356
 5474WAT     H122616   5.514   2.746   5.364
 5474WAT     H222617   5.553   2.654   5.270
 5474WAT    EPW22618   5.550   2.679   5.344
 5475WAT      O22619   4.300   1.835   5.660
 5475WAT     H122620   4.259   1.777   5.712
 5475WAT     H222621   4.297   1.797   5.582
 5475WAT    EPW22622   4.294   1.821   5.656
 5476WAT      O22623   4.302   1.715   4.193
 5476WAT     H122624   4.306   1.638   4.234
 5476WAT     H222625   4.252   1.699   4.123
 5476WAT    EPW22626   4.295   1.701   4.188
 5477WAT      O22627   4.335   1.919   4.876
 5477WAT     H122628   4.320   1.906   4.791
 5477WAT     H222629   4.355   1.840   4.905
 5477WAT    EPW22630   4.336   1.906   4.867
 5478WAT      O22631   4.367   1.904   5.217
 5478WAT     H122632   4.418   1.869   5.156
 5478WAT     H222633   4.315   1.958   5.172
 5478WAT    EPW22634   4.367   1.907   5.202
 5479WAT      O22635   5.410   1.683   5.010
 5479WAT     H122636   5.334   1.702   5.049
 5479WAT     H222637   5.411   1.735   4.940
 5479WAT    EPW22638   5.399   1.694   5.006
 5480WAT      O22639   4.794   2.808   5.076
 5480WAT     H122640   4.752   2.736   5.053
 5480WAT     H222641   4.765   2.868   5.020
 5480WAT    EPW22642   4.783   2.806   5.065
 5481WAT      O22643   4.964   1.257   5.357
 5481WAT     H122644   4.982   1.179   5.324
 5481WAT     H222645   4.995   1.254   5.438
 5481WAT    EPW22646   4.971   1.245   5.364
 5482WAT      O22647   5.192   1.459   4.334
 5482WAT     H122648   5.250   1.522   4.350
 5482WAT     H222649   5.119   1.503   4.312
 5482WAT    EPW22650   5.190   1.475   4.333
 5483WAT      O22651   4.135   2.057   5.690
 5483WAT     H122652   4.065   2.009   5.711
 5483WAT     H222653   4.198   1.998   5.677
 5483WAT    EPW22654   4.134   2.041   5.691
 5484WAT      O22655   5.324   2.256   5.606
 5484WAT     H122656   5.349   2.335   5.579
 5484WAT     H222657   5.351   2.203   5.542
 5484WAT    EPW22658   5.332   2.260   5.593
 5485WAT      O22659   4.737   2.593   5.618
 5485WAT     H122660   4.772   2.573   5.695
 5485WAT     H222661   4.715   2.515   5.585
 5485WAT    EPW22662   4.739   2.579   5.624
 5486WAT      O22663   4.787   1.581   4.954
 5486WAT     H122664   4.849   1.641   4.959
 5486WAT     H222665   4.825   1.509   4.985
 5486WAT    EPW22666   4.801   1.579   4.959
 5487WAT      O22667   5.594   2.208   4.590
 5487WAT     H122668   5.597   2.158   4.662
 5487WAT     H222669   5.563   2.153   4.529
 5487WAT    EPW22670   5.590   2.192   4.591
 5488WAT      O22671   5.147   2.641   4.911
 5488WAT     H122672   5.086   2.631   4.848
 5488WAT     H222673   5.205   2.695   4.874
 5488WAT    EPW22674   5.146   2.648   4.896
 5489WAT      O22675   5.158   2.270   4.912
 5489WAT     H122676   5.084   2.296   4.950
 5489WAT     H222677   5.201   2.229   4.976
 5489WAT    EPW22678   5.153   2.268   4.927
 5490WAT      O22679   4.487   1.134   4.111
 5490WAT     H122680   4.492   1.131   4.198
 5490WAT     H222681   4.441   1.207   4.096
 5490WAT    EPW22682   4.481   1.144   4.122
 5491WAT      O22683   4.621   2.752   3.996
 5491WAT     H122684   4.626   2.789   3.917
 5491WAT     H222685   4.560   2.692   3.987
 5491WAT    EPW22686   4.613   2.749   3.983
 5492WAT      O22687   5.392   2.101   5.387
 5492WAT     H122688   5.358   2.142   5.318
 5492WAT     H222689   5.478   2.117   5.380
 5492WAT    EPW22690   5.400   2.109   5.376
 5493WAT      O22691   5.106   2.668   5.780
 5493WAT     H122692   5.130   2.689   5.862
 5493WAT     H222693   5.131   2.737   5.733
 5493WAT    EPW22694   5.113   2.681   5.785
 5494WAT      O22695   5.539   1.198   5.647
 5494WAT     H122696   5.501   1.153   5.583
 5494WAT     H222697   5.538   1.142   5.715
 5494WAT    EPW22698   5.533   1.183   5.648
 5495WAT      O22699   4.187   2.134   4.137
 5495WAT     H122700   4.178   2.136   4.051
 5495WAT     H222701   4.216   2.213   4.158
 5495WAT    EPW22702   4.190   2.146   4.128
 5496WAT      O22703   5.042   2.093   5.249
 5496WAT     H122704   4.996   2.140   5.306
 5496WAT     H222705   5.072   2.026   5.297
 5496WAT    EPW22706   5.040   2.090   5.265
 5497WAT      O22707   3.920   1.139   4.312
 5497WAT     H122708   3.924   1.079   4.248
 5497WAT     H222709   3.894   1.093   4.381
 5497WAT    EPW22710   3.917   1.123   4.313
 5498WAT      O22711   4.968   1.931   4.368
 5498WAT     H122712   4.953   1.999   4.421
 5498WAT     H222713   4.925   1.865   4.406
 5498WAT    EPW22714   4.959   1.931   4.381
 5499WAT      O22715   5.397   2.422   4.896
 5499WAT     H122716   5.413   2.432   4.811
 5499WAT     H222717   5.318   2.387   4.898
 5499WAT    EPW22718   5.388   2.419   4.883
 5500WAT      O22719   4.349   1.368   4.048
 5500WAT     H122720   4.289   1.376   3.985
 5500WAT     H222721   4.419   1.408   4.015
 5500WAT    EPW22722   4.351   1.375   4.034
 5501WAT      O22723   4.805   2.156   4.787
 5501WAT     H122724   4.720   2.139   4.799
 5501WAT     H222725   4.843   2.121   4.857
 5501WAT    EPW22726   4.798   2.148   4.800
 5502WAT      O22727   4.200   2.070   5.066
 5502WAT     H122728   4.237   2.147   5.048
 5502WAT     H222729   4.220   2.022   4.996
 5502WAT    EPW22730   4.209   2.075   5.053
 5503WAT      O22731   4.496   1.619   4.698
 5503WAT     H122732   4.574   1.581   4.685
 5503WAT     H222733   4.439   1.555   4.684
 5503WAT    EPW22734   4.499   1.604   4.694
 5504WAT      O22735   5.755   2.788   4.113
 5504WAT     H122736   5.820   2.738   4.083
 5504WAT     H222737   5.702   2.731   4.153
 5504WAT    EPW22738   5.757   2.772   4.114
 5505WAT      O22739   4.074   1.772   4.350
 5505WAT     H122740   4.086   1.736   4.429
 5505WAT     H222741   4.154   1.772   4.315
 5505WAT    EPW22742   4.088   1.767   4.357
 5506WAT      O22743   5.513   2.069   5.081
 5506WAT     H122744   5.514   2.000   5.133
 5506WAT     H222745   5.434   2.104   5.095
 5506WAT    EPW22746   5.501   2.064   5.091
 5507WAT      O22747   4.455   1.863   3.945
 5507WAT     H122748   4.405   1.869   4.017
 5507WAT     H222749   4.397   1.866   3.880
 5507WAT    EPW22750   4.439   1.864   3.946
 5508WAT      O22751   5.622   2.045   4.821
 5508WAT     H122752   5.593   2.061   4.901
 5508WAT     H222753   5.709   2.044   4.830
 5508WAT    EPW22754   5.631   2.047   4.834
 5509WAT      O22755   4.584   1.754   4.222
 5509WAT     H122756   4.606   1.838   4.217
 5509WAT     H222757   4.497   1.755   4.217
 5509WAT    EPW22758   4.575   1.766   4.221
 5510WAT      O22759   5.407   1.450   5.634
 5510WAT     H122760   5.331   1.451   5.676
 5510WAT     H222761   5.434   1.368   5.641
 5510WAT    EPW22762   5.400   1.438   5.641
 5511WAT      O22763   3.975   1.365   4.848
 5511WAT     H122764   3.947   1.403   4.774
 5511WAT     H222765   4.034   1.422   4.879
 5511WAT    EPW22766   3.980   1.379   4.842
 5512WAT      O22767   5.764   2.555   4.895
 5512WAT     H122768   5.793   2.605   4.829
 5512WAT     H222769   5.829   2.557   4.953
 5512WAT    EPW22770   5.778   2.563   4.894
 5513WAT      O22771   5.246   1.809   5.713
 5513WAT     H122772   5.286   1.816   5.790
 5513WAT     H222773   5.173   1.857   5.724
 5513WAT    EPW22774   5.241   1.817   5.726
 5514WAT      O22775   5.480   1.841   5.550
 5514WAT     H122776   5.503   1.921   5.574
 5514WAT     H222777   5.408   1.825   5.596
 5514WAT    EPW22778   5.473   1.850   5.560
 5515WAT      O22779   5.395   2.462   4.103
 5515WAT     H122780   5.424   2.381   4.119
 5515WAT     H222781   5.312   2.460   4.131
 5515WAT    EPW22782   5.387   2.450   4.110
 5516WAT      O22783   5.502   1.610   4.625
 5516WAT     H122784   5.435   1.563   4.655
 5516WAT     H222785   5.498   1.684   4.673
 5516WAT    EPW22786   5.491   1.614   4.637
 5517WAT      O22787   5.797   1.930   5.745
 5517WAT     H122788   5.802   1.873   5.679
 5517WAT     H222789   5.876   1.968   5.744
 5517WAT    EPW22790   5.809   1.927   5.735
 5518WAT      O22791   5.662   2.182   5.379
 5518WAT     H122792   5.733   2.139   5.352
 5518WAT     H222793   5.651   2.243   5.317
 5518WAT    EPW22794   5.671   2.185   5.366
 5519WAT      O22795   5.096   2.227   3.957
 5519WAT     H122796   5.181   2.207   3.957
 5519WAT     H222797   5.077   2.236   3.872
 5519WAT    EPW22798   5.105   2.225   3.945
 5520WAT      O22799   4.563   2.370   5.152
 5520WAT     H122800   4.571   2.418   5.225
 5520WAT     H222801   4.591   2.425   5.089
 5520WAT    EPW22802   4.569   2.385   5.153
 5521WAT      O22803   4.375   2.260   5.528
 5521WAT     H122804   4.399   2.261   5.612
 5521WAT     H222805   4.368   2.344   5.508
 5521WAT    EPW22806   4.378   2.272   5.538
 5522WAT      O22807   5.356   1.299   5.290
 5522WAT     H122808   5.414   1.362   5.306
 5522WAT     H222809   5.281   1.342   5.281
 5522WAT    EPW22810   5.353   1.314   5.291
 5523WAT      O22811   4.879   2.024   5.030
 5523WAT     H122812   4.937   2.056   5.087
 5523WAT     H222813   4.802   2.040   5.068
 5523WAT    EPW22814   4.877   2.031   5.044
 5524WAT      O22815   4.543   1.596   5.426
 5524WAT     H122816   4.554   1.515   5.456
 5524WAT     H222817   4.569   1.592   5.343
 5524WAT    EPW22818   4.549   1.583   5.418
 5525WAT      O22819   4.737   2.781   4.663
 5525WAT     H122820   4.735   2.868   4.658
 5525WAT     H222821   4.671   2.756   4.611
 5525WAT    EPW22822   4.727   2.790   4.655
 5526WAT      O22823   5.428   1.098   5.104
 5526WAT     H122824   5.400   1.170   5.146
 5526WAT     H222825   5.512   1.093   5.127
 5526WAT    EPW22826   5.436   1.108   5.114
 5527WAT      O22827   4.690   1.202   5.340
 5527WAT     H122828   4.774   1.225   5.335
 5527WAT     H222829   4.692   1.115   5.331
 5527WAT    EPW22830   4.702   1.192   5.338
 5528WAT      O22831   4.639   2.592   5.002
 5528WAT     H122832   4.585   2.649   4.963
 5528WAT     H222833   4.680   2.554   4.934
 5528WAT    EPW22834   4.637   2.595   4.986
 5529WAT      O22835   5.057   2.223   5.658
 5529WAT     H122836   5.140   2.237   5.635
 5529WAT     H222837   5.011   2.248   5.588
 5529WAT    EPW22838   5.062   2.229   5.645
 5530WAT      O22839   5.392   2.517   5.526
 5530WAT     H122840   5.426   2.547   5.600
 5530WAT     H222841   5.441   2.555   5.464
 5530WAT    EPW22842   5.404   2.527   5.528
 5531WAT      O22843   5.682   1.792   4.037
 5531WAT     H122844   5.729   1.853   3.996
 5531WAT     H222845   5.650   1.744   3.971
 5531WAT    EPW22846   5.684   1.794   4.021
 5532WAT      O22847   4.622   2.085   3.906
 5532WAT     H122848   4.564   2.020   3.904
 5532WAT     H222849   4.577   2.153   3.874
 5532WAT    EPW22850   4.607   2.086   3.901
 5533WAT      O22851   4.398   1.666   4.955
 5533WAT     H122852   4.437   1.646   4.879
 5533WAT     H222853   4.456   1.640   5.015
 5533WAT    EPW22854   4.413   1.659   4.952
 5534WAT      O22855   5.140   1.648   5.501
 5534WAT     H122856   5.063   1.687   5.513
 5534WAT     H222857   5.182   1.663   5.576
 5534WAT    EPW22858   5.135   1.656   5.514
 5535WAT      O22859   5.169   1.711   5.141
 5535WAT     H122860   5.177   1.767   5.207
 5535WAT     H222861   5.154   1.635   5.181
 5535WAT    EPW22862   5.168   1.708   5.157
 5536WAT      O22863   4.897   2.808   5.542
 5536WAT     H122864   4.906   2.808   5.455
 5536WAT     H222865   4.853   2.734   5.558
 5536WAT    EPW22866   4.892   2.797   5.532
 5537WAT      O22867   5.370   1.672   4.389
 5537WAT     H122868   5.404   1.649   4.466
 5537WAT     H222869   5.438   1.703   4.345
 5537WAT    EPW22870   5.385   1.673   4.394
 5538WAT      O22871   4.721   1.140   4.920
 5538WAT     H122872   4.638   1.129   4.945
 5538WAT     H222873   4.714   1.157   4.835
 5538WAT    EPW22874   4.708   1.141   4.911
 5539WAT      O22875   5.527   1.247   4.538
 5539WAT     H122876   5.449   1.212   4.554
 5539WAT     H222877   5.523   1.267   4.453
 5539WAT    EPW22878   5.515   1.245   4.528
 5540WAT      O22879   5.502   2.056   4.369
 5540WAT     H122880   5.543   1.981   4.351
 5540WAT     H222881   5.418   2.035   4.366
 5540WAT    EPW22882   5.496   2.042   4.366
 5541WAT      O22883   4.906   2.272   5.425
 5541WAT     H122884   4.829   2.280   5.465
 5541WAT     H222885   4.913   2.347   5.380
 5541WAT    EPW22886   4.896   2.284   5.424
 5542WAT      O22887   3.913   1.225   5.523
 5542WAT     H122888   3.925   1.311   5.531
 5542WAT     H222889   3.846   1.209   5.577
 5542WAT    EPW22890   3.905   1.235   5.532
 5543WAT      O22891   4.480   2.823   4.963
 5543WAT     H122892   4.447   2.813   5.043
 5543WAT     H222893   4.412   2.808   4.911
 5543WAT    EPW22894   4.465   2.819   4.967
 5544WAT      O22895   4.274   1.459   4.299
 5544WAT     H122896   4.284   1.424   4.220
 5544WAT     H222897   4.192   1.438   4.321
 5544WAT    EPW22898   4.263   1.451   4.291
 5545WAT      O22899   5.187   2.233   4.639
 5545WAT     H122900   5.171   2.250   4.723
 5545WAT     H222901   5.214   2.149   4.641
 5545WAT    EPW22902   5.189   2.223   4.652
 5546WAT      O22903   4.937   2.151   4.540
 5546WAT     H122904   4.892   2.145   4.614
 5546WAT     H222905   5.014   2.186   4.564
 5546WAT    EPW22906   4.942   2.155   4.554
 5547WAT      O22907   4.909   2.559   5.332
 5547WAT     H122908   4.969   2.554   5.395
 5547WAT     H222909   4.933   2.628   5.285
 5547WAT    EPW22910   4.921   2.568   5.334
 5548WAT      O22911   5.751   1.748   5.539
 5548WAT     H122912   5.664   1.761   5.542
 5548WAT     H222913   5.771   1.765   5.456
 5548WAT    EPW22914   5.741   1.753   5.528
 5549WAT      O22915   5.199   1.886   5.356
 5549WAT     H122916   5.192   1.824   5.417
 5549WAT     H222917   5.270   1.931   5.382
 5549WAT    EPW22918   5.209   1.884   5.369
 5550WAT      O22919   4.087   2.901   5.489
 5550WAT     H122920   4.041   2.841   5.446
 5550WAT     H222921   4.030   2.965   5.502
 5550WAT    EPW22922   4.072   2.901   5.484
 5551WAT      O22923   4.999   1.974   5.767
 5551WAT     H122924   5.021   2.050   5.731
 5551WAT     H222925   4.919   1.988   5.799
 5551WAT    EPW22926   4.991   1.987   5.767
 5552WAT      O22927   5.310   2.864   4.852
 5552WAT     H122928   5.250   2.926   4.865
 5552WAT     H222929   5.368   2.877   4.915
 5552WAT    EPW22930   5.310   2.875   4.863
 5553WAT      O22931   4.942   2.350   5.067
 5553WAT     H122932   4.891   2.389   5.007
 5553WAT     H222933   4.976   2.418   5.111
 5553WAT    EPW22934   4.940   2.366   5.064
 5554WAT      O22935   5.519   2.597   5.762
 5554WAT     H122936   5.602   2.570   5.760
 5554WAT     H222937   5.485   2.555   5.830
 5554WAT    EPW22938   5.526   2.587   5.771
 5555WAT      O22939   4.293   1.713   5.404
 5555WAT     H122940   4.310   1.775   5.345
 5555WAT     H222941   4.368   1.670   5.411
 5555WAT    EPW22942   4.306   1.716   5.396
 5556WAT      O22943   4.116   1.543   5.263
 5556WAT     H122944   4.127   1.554   5.177
 5556WAT     H222945   4.176   1.596   5.298
 5556WAT    EPW22946   4.127   1.552   5.256
 5557WAT      O22947   5.596   1.805   4.298
 5557WAT     H122948   5.616   1.806   4.213
 5557WAT     H222949   5.668   1.775   4.336
 5557WAT    EPW22950   5.610   1.801   4.291
 5558WAT      O22951   4.308   1.228   5.545
 5558WAT     H122952   4.261   1.155   5.554
 5558WAT     H222953   4.290   1.253   5.464
 5558WAT    EPW22954   4.298   1.221   5.535
 5559WAT      O22955   4.980   2.543   4.428
 5559WAT     H122956   4.954   2.618   4.391
 5559WAT     H222957   4.912   2.489   4.415
 5559WAT    EPW22958   4.966   2.546   4.420
 5560WAT      O22959   5.518   1.832   5.266
 5560WAT     H122960   5.490   1.752   5.243
 5560WAT     H222961   5.496   1.838   5.350
 5560WAT    EPW22962   5.511   1.821   5.275
 5561WAT      O22963   4.034   2.016   5.281
 5561WAT     H122964   4.074   2.035   5.206
 5561WAT     H222965   4.007   1.933   5.269
 5561WAT    EPW22966   4.036   2.007   5.268
 5562WAT      O22967   4.109   1.640   4.000
 5562WAT     H122968   4.080   1.708   3.954
 5562WAT     H222969   4.129   1.581   3.940
 5562WAT    EPW22970   4.108   1.641   3.985
 5563WAT      O22971   5.052   1.245   5.621
 5563WAT     H122972   5.084   1.313   5.666
 5563WAT     H222973   4.971   1.236   5.653
 5563WAT    EPW22974   5.045   1.254   5.632
 5564WAT      O22975   5.027   1.354   4.696
 5564WAT     H122976   4.950   1.394   4.692
 5564WAT     H222977   5.020   1.291   4.635
 5564WAT    EPW22978   5.015   1.350   4.686
 5565WAT      O22979   5.364   1.411   4.959
 5565WAT     H122980   5.443   1.376   4.971
 5565WAT     H222981   5.373   1.493   4.987
 5565WAT    EPW22982   5.377   1.418   4.965
 5566WAT      O22983   4.520   2.031   5.411
 5566WAT     H122984   4.474   2.096   5.445
 5566WAT     H222985   4.465   1.993   5.355
 5566WAT    EPW22986   4.505   2.035   5.408
 5567WAT      O22987   5.448   1.836   4.779
 5567WAT     H122988   5.509   1.897   4.791
 5567WAT     H222989   5.385   1.878   4.735
 5567WAT    EPW22990   5.448   1.851   4.774
 5568WAT      O22991   5.451   2.666   4.485
 5568WAT     H122992   5.434   2.591   4.525
 5568WAT     H222993   5.482   2.642   4.408
 5568WAT    EPW22994   5.453   2.652   4.480
 5569WAT      O22995   4.505   1.341   5.180
 5569WAT     H122996   4.426   1.318   5.209
 5569WAT     H222997   4.559   1.286   5.223
 5569WAT    EPW22998   4.502   1.329   5.191
 5570WAT      O22999   5.683   1.165   5.225
 5570WAT     H123000   5.665   1.195   5.305
 5570WAT     H223001   5.766   1.140   5.230
 5570WAT    EPW23002   5.693   1.166   5.238
 5571WAT      O23003   4.886   1.336   5.033
 5571WAT     H123004   4.832   1.274   5.003
 5571WAT     H223005   4.965   1.304   5.017
 5571WAT    EPW23006   4.890   1.322   5.026
 5572WAT      O23007   5.203   2.483   5.145
 5572WAT     H123008   5.219   2.557   5.189
 5572WAT     H223009   5.195   2.510   5.062
 5572WAT    EPW23010   5.204   2.498   5.139
 5573WAT      O23011   5.167   2.874   5.593
 5573WAT     H123012   5.093   2.840   5.563
 5573WAT     H223013   5.146   2.957   5.608
 5573WAT    EPW23014   5.153   2.881   5.591
 5574WAT      O23015   4.646   1.819   5.561
 5574WAT     H123016   4.613   1.751   5.517
 5574WAT     H223017   4.610   1.888   5.521
 5574WAT    EPW23018   4.636   1.820   5.548
 5575WAT      O23019   4.762   1.149   4.055
 5575WAT     H123020   4.772   1.157   3.969
 5575WAT     H223021   4.676   1.158   4.067
 5575WAT    EPW23022   4.750   1.151   4.044
 5576WAT      O23023   5.639   2.329   5.143
 5576WAT     H123024   5.605   2.261   5.100
 5576WAT     H223025   5.594   2.397   5.113
 5576WAT    EPW23026   5.628   2.329   5.132
 5577WAT      O23027   4.523   2.785   5.524
 5577WAT     H123028   4.507   2.790   5.609
 5577WAT     H223029   4.591   2.731   5.519
 5577WAT    EPW23030   4.531   2.778   5.536
 5578WAT      O23031   5.542   2.586   5.071
 5578WAT     H123032   5.609   2.594   5.017
 5578WAT     H223033   5.480   2.550   5.021
 5578WAT    EPW23034   5.542   2.582   5.056
 5579WAT      O23035   4.250   1.301   5.289
 5579WAT     H123036   4.197   1.237   5.262
 5579WAT     H223037   4.201   1.373   5.279
 5579WAT    EPW23038   4.235   1.302   5.283
 5580WAT      O23039   5.133   1.247   4.932
 5580WAT     H123040   5.200   1.300   4.951
 5580WAT     H223041   5.101   1.281   4.858
 5580WAT    EPW23042   5.138   1.260   4.924
 5581WAT      O23043   4.220   2.709   5.660
 5581WAT     H123044   4.291   2.745   5.696
 5581WAT     H223045   4.184   2.776   5.616
 5581WAT    EPW23046   4.225   2.724   5.659
 5582WAT      O23047   5.098   1.737   4.696
 5582WAT     H123048   5.153   1.670   4.709
 5582WAT     H223049   5.061   1.749   4.774
 5582WAT    EPW23050   5.101   1.728   4.710
 5583WAT      O23051   4.107   1.646   4.604
 5583WAT     H123052   4.051   1.659   4.669
 5583WAT     H223053   4.149   1.573   4.627
 5583WAT    EPW23054   4.105   1.637   4.617
 5584WAT      O23055   4.090   2.463   5.396
 5584WAT     H123056   4.034   2.529   5.399
 5584WAT     H223057   4.168   2.502   5.401
 5584WAT    EPW23058   4.093   2.479   5.397
 5585WAT      O23059   5.247   1.919   4.360
 5585WAT     H123060   5.272   1.836   4.368
 5585WAT     H223061   5.159   1.914   4.363
 5585WAT    EPW23062   5.237   1.906   4.361
 5586WAT      O23063   4.656   2.028   4.181
 5586WAT     H123064   4.633   2.058   4.102
 5586WAT     H223065   4.618   2.084   4.236
 5586WAT    EPW23066   4.647   2.041   4.178
 5587WAT      O23067   5.528   2.863   3.963
 5587WAT     H123068   5.606   2.856   4.002
 5587WAT     H223069   5.511   2.782   3.936
 5587WAT    EPW23070   5.537   2.850   3.964
 5588WAT      O23071   5.591   2.081   5.636
 5588WAT     H123072   5.662   2.048   5.674
 5588WAT     H223073   5.622   2.126   5.569
 5588WAT    EPW23074   5.606   2.083   5.632
 5589WAT      O23075   5.127   2.498   4.192
 5589WAT     H123076   5.097   2.505   4.273
 5589WAT     H223077   5.055   2.489   4.144
 5589WAT    EPW23078   5.112   2.498   4.197
 5590WAT      O23079   5.638   1.535   5.758
 5590WAT     H123080   5.629   1.616   5.790
 5590WAT     H223081   5.562   1.520   5.719
 5590WAT    EPW23082   5.626   1.545   5.757
 5591WAT      O23083   5.686   1.635   5.036
 5591WAT     H123084   5.602   1.659   5.031
 5591WAT     H223085   5.682   1.548   5.039
 5591WAT    EPW23086   5.673   1.626   5.036
 5592WAT      O23087   4.570   1.329   5.551
 5592WAT     H123088   4.606   1.292   5.480
 5592WAT     H223089   4.491   1.292   5.555
 5592WAT    EPW23090   4.564   1.318   5.541
 5593WAT      O23091   5.362   2.141   5.864
 5593WAT     H123092   5.434   2.170   5.902
 5593WAT     H223093   5.370   2.168   5.781
 5593WAT    EPW23094   5.373   2.149   5.857
 5594WAT      O23095   4.262   2.737   4.809
 5594WAT     H123096   4.291   2.662   4.774
 5594WAT     H223097   4.223   2.777   4.742
 5594WAT    EPW23098   4.261   2.732   4.793
 5595WAT      O23099   4.887   2.292   4.120
 5595WAT     H123100   4.960   2.280   4.074
 5595WAT     H223101   4.854   2.366   4.087
 5595WAT    EPW23102   4.893   2.301   4.108
 5596WAT      O23103   5.047   1.149   2.599
 5596WAT     H123104   5.044   1.191   2.523
 5596WAT     H223105   5.131   1.127   2.608
 5596WAT    EPW23106   5.059   1.152   2.589
 5597WAT      O23107   3.944   2.272   2.541
 5597WAT     H123108   3.869   2.266   2.586
 5597WAT     H223109   3.947   2.198   2.496
 5597WAT    EPW23110   3.933   2.260   2.541
 5598WAT      O23111   5.605   2.621   2.340
 5598WAT     H123112   5.667   2.563   2.357
 5598WAT     H223113   5.547   2.576   2.293
 5598WAT    EPW23114   5.605   2.606   2.335
 5599WAT      O23115   3.973   1.627   2.238
 5599WAT     H123116   3.899   1.664   2.210
 5599WAT     H223117   3.960   1.542   2.226
 5599WAT    EPW23118   3.960   1.620   2.232
 5600WAT      O23119   4.318   2.162   2.132
 5600WAT     H123120   4.272   2.131   2.065
 5600WAT     H223121   4.304   2.102   2.195
 5600WAT    EPW23122   4.309   2.148   2.131
 5601WAT      O23123   5.217   1.970   2.692
 5601WAT     H123124   5.221   1.951   2.607
 5601WAT     H223125   5.165   1.908   2.724
 5601WAT    EPW23126   5.210   1.958   2.684
 5602WAT      O23127   4.215   2.340   2.513
 5602WAT     H123128   4.266   2.305   2.575
 5602WAT     H223129   4.134   2.323   2.541
 5602WAT    EPW23130   4.211   2.332   2.526
 5603WAT      O23131   4.695   1.268   2.478
 5603WAT     H123132   4.688   1.334   2.422
 5603WAT     H223133   4.774   1.235   2.462
 5603WAT    EPW23134   4.705   1.273   2.467
 5604WAT      O23135   4.096   2.522   2.037
 5604WAT     H123136   4.144   2.554   1.971
 5604WAT     H223137   4.154   2.511   2.101
 5604WAT    EPW23138   4.112   2.525   2.036
 5605WAT      O23139   4.180   1.967   2.590
 5605WAT     H123140   4.119   1.910   2.563
 5605WAT     H223141   4.240   1.916   2.628
 5605WAT    EPW23142   4.180   1.951   2.591
 5606WAT      O23143   4.581   1.610   3.124
 5606WAT     H123144   4.563   1.577   3.045
 5606WAT     H223145   4.560   1.546   3.179
 5606WAT    EPW23146   4.575   1.596   3.120
 5607WAT      O23147   4.361   1.819   2.727
 5607WAT     H123148   4.361   1.858   2.805
 5607WAT     H223149   4.303   1.754   2.737
 5607WAT    EPW23150   4.352   1.815   2.740
 5608WAT      O23151   4.760   2.365   2.512
 5608WAT     H123152   4.801   2.307   2.563
 5608WAT     H223153   4.787   2.345   2.432
 5608WAT    EPW23154   4.770   2.354   2.508
 5609WAT      O23155   4.921   1.787   3.669
 5609WAT     H123156   4.840   1.791   3.637
 5609WAT     H223157   4.927   1.860   3.716
 5609WAT    EPW23158   4.910   1.799   3.671
 5610WAT      O23159   4.421   1.292   2.562
 5610WAT     H123160   4.382   1.353   2.512
 5610WAT     H223161   4.504   1.295   2.536
 5610WAT    EPW23162   4.427   1.302   2.550
 5611WAT      O23163   5.404   1.077   3.589
 5611WAT     H123164   5.375   1.140   3.536
 5611WAT     H223165   5.333   1.052   3.632
 5611WAT    EPW23166   5.389   1.083   3.587
 5612WAT      O23167   4.729   1.200   2.756
 5612WAT     H123168   4.761   1.278   2.778
 5612WAT     H223169   4.700   1.211   2.675
 5612WAT    EPW23170   4.729   1.213   2.747
 5613WAT      O23171   5.160   1.452   1.981
 5613WAT     H123172   5.111   1.521   2.003
 5613WAT     H223173   5.171   1.409   2.056
 5613WAT    EPW23174   5.154   1.456   1.995
 5614WAT      O23175   3.939   1.697   2.900
 5614WAT     H123176   3.933   1.780   2.928
 5614WAT     H223177   3.871   1.688   2.846
 5614WAT    EPW23178   3.928   1.708   2.896
 5615WAT      O23179   4.564   2.602   2.449
 5615WAT     H123180   4.502   2.641   2.495
 5615WAT     H223181   4.596   2.542   2.504
 5615WAT    EPW23182   4.560   2.599   2.464
 5616WAT      O23183   5.184   2.736   2.246
 5616WAT     H123184   5.252   2.788   2.265
 5616WAT     H223185   5.207   2.660   2.282
 5616WAT    EPW23186   5.197   2.733   2.254
 5617WAT      O23187   4.978   2.795   2.423
 5617WAT     H123188   4.983   2.881   2.436
 5617WAT     H223189   5.042   2.780   2.365
 5617WAT    EPW23190   4.988   2.805   2.416
 5618WAT      O23191   4.221   1.256   2.988
 5618WAT     H123192   4.201   1.181   2.949
 5618WAT     H223193   4.283   1.234   3.045
 5618WAT    EPW23194   4.227   1.242   2.990
 5619WAT      O23195   4.588   1.460   3.931
 5619WAT     H123196   4.599   1.418   3.855
 5619WAT     H223197   4.617   1.541   3.914
 5619WAT    EPW23198   4.594   1.466   3.917
 5620WAT      O23199   5.712   1.432   2.700
 5620WAT     H123200   5.662   1.503   2.713
 5620WAT     H223201   5.654   1.368   2.689
 5620WAT    EPW23202   5.696   1.433   2.700
 5621WAT      O23203   4.167   1.407   3.839
 5621WAT     H123204   4.088   1.375   3.817
 5621WAT     H223205   4.219   1.379   3.775
 5621WAT    EPW23206   4.163   1.398   3.826
 5622WAT      O23207   4.779   1.167   3.782
 5622WAT     H123208   4.792   1.098   3.731
 5622WAT     H223209   4.712   1.208   3.744
 5622WAT    EPW23210   4.771   1.163   3.769
 5623WAT      O23211   4.981   1.601   2.618
 5623WAT     H123212   4.954   1.606   2.535
 5623WAT     H223213   5.046   1.543   2.614
 5623WAT    EPW23214   4.986   1.593   2.605
 5624WAT      O23215   4.990   1.667   2.085
 5624WAT     H123216   5.010   1.747   2.113
 5624WAT     H223217   4.911   1.677   2.048
 5624WAT    EPW23218   4.981   1.680   2.083
 5625WAT      O23219   5.380   2.949   2.254
 5625WAT     H123220   5.431   2.924   2.188
 5625WAT     H223221   5.435   2.993   2.307
 5625WAT    EPW23222   5.396   2.952   2.252
 5626WAT      O23223   5.615   1.380   3.133
 5626WAT     H123224   5.677   1.374   3.072
 5626WAT     H223225   5.640   1.322   3.193
 5626WAT    EPW23226   5.628   1.371   3.133
 5627WAT      O23227   3.890   1.531   3.572
 5627WAT     H123228   3.892   1.612   3.603
 5627WAT     H223229   3.952   1.531   3.510
 5627WAT    EPW23230   3.899   1.543   3.567
 5628WAT      O23231   5.111   2.496   3.612
 5628WAT     H123232   5.084   2.548   3.677
 5628WAT     H223233   5.198   2.495   3.622
 5628WAT    EPW23234   5.120   2.504   3.623
 5629WAT      O23235   4.851   2.538   2.094
 5629WAT     H123236   4.818   2.600   2.146
 5629WAT     H223237   4.925   2.573   2.065
 5629WAT    EPW23238   4.857   2.552   2.098
 5630WAT      O23239   5.194   1.305   2.218
 5630WAT     H123240   5.249   1.237   2.221
 5630WAT     H223241   5.211   1.348   2.292
 5630WAT    EPW23242   5.204   1.301   2.229
 5631WAT      O23243   4.022   1.390   2.482
 5631WAT     H123244   3.981   1.321   2.448
 5631WAT     H223245   3.974   1.408   2.553
 5631WAT    EPW23246   4.009   1.382   2.488
 5632WAT      O23247   4.949   1.569   2.341
 5632WAT     H123248   4.876   1.524   2.327
 5632WAT     H223249   4.966   1.605   2.263
 5632WAT    EPW23250   4.941   1.568   2.327
 5633WAT      O23251   4.955   1.225   2.341
 5633WAT     H123252   4.897   1.208   2.279
 5633WAT     H223253   5.026   1.252   2.296
 5633WAT    EPW23254   4.957   1.227   2.325
 5634WAT      O23255   5.641   2.841   2.627
 5634WAT     H123256   5.588   2.896   2.670
 5634WAT     H223257   5.586   2.780   2.595
 5634WAT    EPW23258   5.625   2.840   2.629
 5635WAT      O23259   4.820   1.461   2.800
 5635WAT     H123260   4.856   1.513   2.740
 5635WAT     H223261   4.824   1.507   2.873
 5635WAT    EPW23262   4.826   1.475   2.802
 5636WAT      O23263   5.381   2.424   2.666
 5636WAT     H123264   5.444   2.365   2.658
 5636WAT     H223265   5.308   2.377   2.673
 5636WAT    EPW23266   5.379   2.409   2.666
 5637WAT      O23267   4.352   1.034   2.637
 5637WAT     H123268   4.374   1.116   2.615
 5637WAT     H223269   4.325   1.000   2.561
 5637WAT    EPW23270   4.352   1.041   2.622
 5638WAT      O23271   4.584   2.140   3.126
 5638WAT     H123272   4.547   2.190   3.188
 5638WAT     H223273   4.516   2.112   3.079
 5638WAT    EPW23274   4.569   2.143   3.129
 5639WAT      O23275   5.127   1.483   3.318
 5639WAT     H123276   5.123   1.528   3.392
 5639WAT     H223277   5.060   1.427   3.323
 5639WAT    EPW23278   5.117   1.481   3.329
 5640WAT      O23279   5.184   2.307   3.204
 5640WAT     H123280   5.156   2.250   3.264
 5640WAT     H223281   5.171   2.384   3.242
 5640WAT    EPW23282   5.178   2.310   3.218
 5641WAT      O23283   5.304   1.064   2.664
 5641WAT     H123284   5.307   1.039   2.747
 5641WAT     H223285   5.340   0.998   2.621
 5641WAT    EPW23286   5.309   1.051   2.670
 5642WAT      O23287   5.473   1.510   3.445
 5642WAT     H123288   5.554   1.483   3.463
 5642WAT     H223289   5.436   1.516   3.524
 5642WAT    EPW23290   5.480   1.507   3.459
 5643WAT      O23291   4.298   1.423   2.781
 5643WAT     H123292   4.328   1.370   2.719
 5643WAT     H223293   4.277   1.369   2.846
 5643WAT    EPW23294   4.299   1.407   2.781
 5644WAT      O23295   5.567   2.219   2.219
 5644WAT     H123296   5.568   2.167   2.289
 5644WAT     H223297   5.650   2.223   2.195
 5644WAT    EPW23298   5.579   2.212   2.226
 5645WAT      O23299   4.343   2.166   2.700
 5645WAT     H123300   4.414   2.168   2.649
 5645WAT     H223301   4.290   2.109   2.659
 5645WAT    EPW23302   4.346   2.158   2.686
 5646WAT      O23303   4.131   1.613   3.115
 5646WAT     H123304   4.199   1.666   3.100
 5646WAT     H223305   4.086   1.617   3.040
 5646WAT    EPW23306   4.135   1.621   3.101
 5647WAT      O23307   5.813   2.616   3.616
 5647WAT     H123308   5.737   2.623   3.573
 5647WAT     H223309   5.791   2.578   3.691
 5647WAT    EPW23310   5.799   2.612   3.621
 5648WAT      O23311   5.380   1.874   2.146
 5648WAT     H123312   5.373   1.956   2.117
 5648WAT     H223313   5.348   1.877   2.227
 5648WAT    EPW23314   5.375   1.887   2.153
 5649WAT      O23315   4.544   2.180   2.511
 5649WAT     H123316   4.605   2.242   2.508
 5649WAT     H223317   4.575   2.119   2.457
 5649WAT    EPW23318   4.558   2.180   2.502
 5650WAT      O23319   5.717   1.355   2.143
 5650WAT     H123320   5.755   1.290   2.099
 5650WAT     H223321   5.685   1.406   2.080
 5650WAT    EPW23322   5.717   1.353   2.127
 5651WAT      O23323   3.886   2.325   2.997
 5651WAT     H123324   3.813   2.329   3.045
 5651WAT     H223325   3.893   2.404   2.962
 5651WAT    EPW23326   3.876   2.337   2.999
 5652WAT      O23327   4.687   1.715   3.887
 5652WAT     H123328   4.621   1.759   3.924
 5652WAT     H223329   4.686   1.742   3.804
 5652WAT    EPW23330   4.677   1.726   3.880
 5653WAT      O23331   5.820   1.814   3.356
 5653WAT     H123332   5.835   1.758   3.291
 5653WAT     H223333   5.734   1.803   3.372
 5653WAT    EPW23334   5.809   1.804   3.349
 5654WAT      O23335   3.969   2.080   2.328
 5654WAT     H123336   3.912   2.014   2.336
 5654WAT     H223337   4.046   2.041   2.321
 5654WAT    EPW23338   3.972   2.064   2.328
 5655WAT      O23339   5.572   1.248   2.361
 5655WAT     H123340   5.646   1.206   2.384
 5655WAT     H223341   5.597   1.299   2.295
 5655WAT    EPW23342   5.587   1.249   2.355
 5656WAT      O23343   4.973   2.531   2.829
 5656WAT     H123344   4.946   2.613   2.841
 5656WAT     H223345   4.991   2.528   2.743
 5656WAT    EPW23346   4.972   2.543   2.818
 5657WAT      O23347   3.900   2.516   2.399
 5657WAT     H123348   3.943   2.585   2.430
 5657WAT     H223349   3.905   2.458   2.464
 5657WAT    EPW23350   3.907   2.517   2.413
 5658WAT      O23351   5.252   1.547   2.875
 5658WAT     H123352   5.281   1.518   2.952
 5658WAT     H223353   5.204   1.480   2.845
 5658WAT    EPW23354   5.249   1.533   2.882
 5659WAT      O23355   4.065   2.116   2.942
 5659WAT     H123356   4.073   2.118   2.855
 5659WAT     H223357   4.015   2.185   2.960
 5659WAT    EPW23358   4.059   2.127   2.932
 5660WAT      O23359   4.695   1.465   2.287
 5660WAT     H123360   4.679   1.445   2.204
 5660WAT     H223361   4.661   1.545   2.296
 5660WAT    EPW23362   4.687   1.474   2.276
 5661WAT      O23363   5.567   2.612   3.480
 5661WAT     H123364   5.516   2.683   3.482
 5661WAT     H223365   5.571   2.592   3.395
 5661WAT    EPW23366   5.560   2.620   3.468
 5662WAT      O23367   4.285   1.888   3.730
 5662WAT     H123368   4.328   1.953   3.690
 5662WAT     H223369   4.274   1.829   3.667
 5662WAT    EPW23370   4.290   1.889   3.715
 5663WAT      O23371   4.315   1.717   2.265
 5663WAT     H123372   4.297   1.654   2.322
 5663WAT     H223373   4.272   1.692   2.193
 5663WAT    EPW23374   4.306   1.704   2.263
 5664WAT      O23375   4.354   2.022   2.945
 5664WAT     H123376   4.368   2.073   2.875
 5664WAT     H223377   4.277   2.049   2.974
 5664WAT    EPW23378   4.345   2.034   2.939
 5665WAT      O23379   4.349   1.919   3.340
 5665WAT     H123380   4.359   1.875   3.265
 5665WAT     H223381   4.307   1.991   3.316
 5665WAT    EPW23382   4.344   1.923   3.325
 5666WAT      O23383   5.411   1.768   3.084
 5666WAT     H123384   5.329   1.755   3.110
 5666WAT     H223385   5.403   1.793   3.001
 5666WAT    EPW23386   5.398   1.770   3.076
 5667WAT      O23387   4.972   1.262   3.427
 5667WAT     H123388   4.984   1.178   3.405
 5667WAT     H223389   4.995   1.264   3.511
 5667WAT    EPW23390   4.977   1.250   3.436
 5668WAT      O23391   5.180   1.454   2.452
 5668WAT     H123392   5.241   1.515   2.456
 5668WAT     H223393   5.114   1.494   2.411
 5668WAT    EPW23394   5.179   1.469   2.446
 5669WAT      O23395   5.321   2.214   3.681
 5669WAT     H123396   5.346   2.298   3.677
 5669WAT     H223397   5.360   2.178   3.612
 5669WAT    EPW23398   5.331   2.221   3.671
 5670WAT      O23399   4.847   1.598   3.043
 5670WAT     H123400   4.766   1.602   3.077
 5670WAT     H223401   4.878   1.523   3.074
 5670WAT    EPW23402   4.839   1.588   3.053
 5671WAT      O23403   5.052   1.901   2.245
 5671WAT     H123404   5.040   1.962   2.184
 5671WAT     H223405   4.995   1.923   2.307
 5671WAT    EPW23406   5.042   1.913   2.245
 5672WAT      O23407   5.577   2.223   2.648
 5672WAT     H123408   5.570   2.183   2.725
 5672WAT     H223409   5.551   2.161   2.591
 5672WAT    EPW23410   5.572   2.208   2.651
 5673WAT      O23411   5.037   2.289   2.964
 5673WAT     H123412   5.013   2.370   2.939
 5673WAT     H223413   5.075   2.302   3.041
 5673WAT    EPW23414   5.039   2.303   2.971
 5674WAT      O23415   4.493   1.127   2.216
 5674WAT     H123416   4.498   1.120   2.303
 5674WAT     H223417   4.449   1.202   2.205
 5674WAT    EPW23418   4.487   1.137   2.227
 5675WAT      O23419   4.752   2.722   2.278
 5675WAT     H123420   4.819   2.750   2.327
 5675WAT     H223421   4.694   2.694   2.337
 5675WAT    EPW23422   4.753   2.722   2.294
 5676WAT      O23423   5.460   2.116   3.466
 5676WAT     H123424   5.464   2.087   3.384
 5676WAT     H223425   5.539   2.148   3.481
 5676WAT    EPW23426   5.472   2.116   3.456
 5677WAT      O23427   5.055   2.667   3.832
 5677WAT     H123428   5.085   2.701   3.907
 5677WAT     H223429   5.060   2.733   3.776
 5677WAT    EPW23430   5.060   2.682   3.835
 5678WAT      O23431   5.608   1.149   3.768
 5678WAT     H123432   5.545   1.136   3.709
 5678WAT     H223433   5.586   1.097   3.834
 5678WAT    EPW23434   5.596   1.139   3.769
 5679WAT      O23435   4.229   1.977   2.318
 5679WAT     H123436   4.250   1.893   2.304
 5679WAT     H223437   4.233   1.984   2.405
 5679WAT    EPW23438   4.233   1.965   2.329
 5680WAT      O23439   5.073   2.126   3.401
 5680WAT     H123440   5.057   2.157   3.481
 5680WAT     H223441   5.118   2.053   3.416
 5680WAT    EPW23442   5.077   2.120   3.415
 5681WAT      O23443   3.871   1.170   2.378
 5681WAT     H123444   3.888   1.107   2.319
 5681WAT     H223445   3.853   1.126   2.450
 5681WAT    EPW23446   3.871   1.154   2.380
 5682WAT      O23447   4.906   1.950   2.484
 5682WAT     H123448   4.908   2.021   2.536
 5682WAT     H223449   4.887   1.886   2.540
 5682WAT    EPW23450   4.904   1.951   2.500
 5683WAT      O23451   5.429   2.329   3.059
 5683WAT     H123452   5.399   2.376   2.992
 5683WAT     H223453   5.357   2.316   3.107
 5683WAT    EPW23454   5.414   2.334   3.056
 5684WAT      O23455   4.369   1.368   2.165
 5684WAT     H123456   4.306   1.369   2.104
 5684WAT     H223457   4.437   1.406   2.125
 5684WAT    EPW23458   4.370   1.374   2.150
 5685WAT      O23459   4.834   2.098   2.939
 5685WAT     H123460   4.763   2.117   2.986
 5685WAT     H223461   4.891   2.160   2.960
 5685WAT    EPW23462   4.832   2.110   2.949
 5686WAT      O23463   4.464   2.736   2.024
 5686WAT     H123464   4.493   2.664   2.063
 5686WAT     H223465   4.454   2.792   2.090
 5686WAT    EPW23466   4.467   2.734   2.040
 5687WAT      O23467   4.211   2.148   3.261
 5687WAT     H123468   4.278   2.198   3.284
 5687WAT     H223469   4.167   2.197   3.204
 5687WAT    EPW23470   4.214   2.163   3.256
 5688WAT      O23471   4.541   1.519   2.873
 5688WAT     H123472   4.601   1.494   2.815
 5688WAT     H223473   4.466   1.495   2.836
 5688WAT    EPW23474   4.539   1.512   2.859
 5689WAT      O23475   5.779   2.806   2.225
 5689WAT     H123476   5.848   2.759   2.200
 5689WAT     H223477   5.727   2.747   2.263
 5689WAT    EPW23478   5.781   2.790   2.227
 5690WAT      O23479   4.025   1.754   2.487
 5690WAT     H123480   4.058   1.701   2.548
 5690WAT     H223481   4.019   1.703   2.417
 5690WAT    EPW23482   4.029   1.738   2.486
 5691WAT      O23483   5.520   1.980   3.231
 5691WAT     H123484   5.537   1.921   3.293
 5691WAT     H223485   5.478   1.934   3.170
 5691WAT    EPW23486   5.516   1.964   3.231
 5692WAT      O23487   4.505   1.867   2.041
 5692WAT     H123488   4.458   1.839   2.110
 5692WAT     H223489   4.450   1.857   1.974
 5692WAT    EPW23490   4.490   1.861   2.041
 5693WAT      O23491   5.562   2.114   2.906
 5693WAT     H123492   5.533   2.173   2.963
 5693WAT     H223493   5.646   2.102   2.929
 5693WAT    EPW23494   5.570   2.121   2.917
 5694WAT      O23495   4.591   1.718   2.304
 5694WAT     H123496   4.612   1.801   2.325
 5694WAT     H223497   4.504   1.719   2.304
 5694WAT    EPW23498   4.581   1.730   2.307
 5695WAT      O23499   5.317   1.509   3.692
 5695WAT     H123500   5.262   1.486   3.755
 5695WAT     H223501   5.391   1.525   3.735
 5695WAT    EPW23502   5.320   1.508   3.708
 5696WAT      O23503   3.955   1.373   2.975
 5696WAT     H123504   3.939   1.382   2.889
 5696WAT     H223505   4.037   1.344   2.977
 5696WAT    EPW23506   3.965   1.370   2.962
 5697WAT      O23507   5.800   2.563   3.008
 5697WAT     H123508   5.788   2.599   2.930
 5697WAT     H223509   5.877   2.595   3.034
 5697WAT    EPW23510   5.809   2.573   3.000
 5698WAT      O23511   5.193   1.782   3.850
 5698WAT     H123512   5.209   1.831   3.921
 5698WAT     H223513   5.254   1.809   3.794
 5698WAT    EPW23514   5.205   1.793   3.853
 5699WAT      O23515   5.421   1.847   3.669
 5699WAT     H123516   5.462   1.919   3.697
 5699WAT     H223517   5.467   1.782   3.704
 5699WAT    EPW23518   5.434   1.848   3.678
 5700WAT      O23519   5.429   2.460   2.206
 5700WAT     H123520   5.465   2.381   2.216
 5700WAT     H223521   5.352   2.452   2.246
 5700WAT    EPW23522   5.423   2.447   2.213
 5701WAT      O23523   5.488   1.618   2.738
 5701WAT     H123524   5.423   1.582   2.784
 5701WAT     H223525   5.489   1.701   2.765
 5701WAT    EPW23526   5.478   1.625   2.749
 5702WAT      O23527   5.821   1.961   3.865
 5702WAT     H123528   5.832   1.909   3.795
 5702WAT     H223529   5.891   2.013   3.863
 5702WAT    EPW23530   5.833   1.961   3.854
 5703WAT      O23531   5.697   2.230   3.575
 5703WAT     H123532   5.784   2.220   3.571
 5703WAT     H223533   5.687   2.316   3.585
 5703WAT    EPW23534   5.709   2.241   3.576
 5704WAT      O23535   5.100   2.238   2.147
 5704WAT     H123536   5.180   2.205   2.136
 5704WAT     H223537   5.072   2.250   2.065
 5704WAT    EPW23538   5.108   2.235   2.133
 5705WAT      O23539   5.321   1.281   3.407
 5705WAT     H123540   5.373   1.351   3.418
 5705WAT     H223541   5.243   1.317   3.394
 5705WAT    EPW23542   5.318   1.297   3.406
 5706WAT      O23543   4.858   2.023   3.247
 5706WAT     H123544   4.911   2.065   3.302
 5706WAT     H223545   4.784   2.070   3.250
 5706WAT    EPW23546   4.855   2.036   3.255
 5707WAT      O23547   4.514   1.572   3.529
 5707WAT     H123548   4.535   1.510   3.587
 5707WAT     H223549   4.520   1.531   3.452
 5707WAT    EPW23550   4.518   1.557   3.526
 5708WAT      O23551   5.444   1.080   3.259
 5708WAT     H123552   5.400   1.146   3.297
 5708WAT     H223553   5.528   1.103   3.270
 5708WAT    EPW23554   5.450   1.093   3.266
 5709WAT      O23555   4.692   1.231   3.435
 5709WAT     H123556   4.778   1.246   3.428
 5709WAT     H223557   4.686   1.144   3.428
 5709WAT    EPW23558   4.704   1.221   3.433
 5710WAT      O23559   5.050   2.226   3.673
 5710WAT     H123560   5.136   2.211   3.675
 5710WAT     H223561   5.044   2.311   3.653
 5710WAT    EPW23562   5.061   2.236   3.670
 5711WAT      O23563   5.390   2.483   3.655
 5711WAT     H123564   5.415   2.524   3.727
 5711WAT     H223565   5.439   2.519   3.592
 5711WAT    EPW23566   5.401   2.494   3.656
 5712WAT      O23567   5.637   1.773   2.116
 5712WAT     H123568   5.684   1.831   2.070
 5712WAT     H223569   5.556   1.806   2.114
 5712WAT    EPW23570   5.632   1.786   2.109
 5713WAT      O23571   4.729   2.032   2.083
 5713WAT     H123572   4.661   1.984   2.057
 5713WAT     H223573   4.700   2.114   2.078
 5713WAT    EPW23574   4.715   2.037   2.078
 5714WAT      O23575   4.360   1.780   3.100
 5714WAT     H123576   4.379   1.849   3.050
 5714WAT     H223577   4.435   1.736   3.103
 5714WAT    EPW23578   4.374   1.784   3.093
 5715WAT      O23579   5.122   1.645   3.542
 5715WAT     H123580   5.059   1.680   3.591
 5715WAT     H223581   5.178   1.614   3.601
 5715WAT    EPW23582   5.121   1.646   3.558
 5716WAT      O23583   5.153   1.747   3.194
 5716WAT     H123584   5.173   1.791   3.267
 5716WAT     H223585   5.139   1.666   3.223
 5716WAT    EPW23586   5.154   1.741   3.209
 5717WAT      O23587   5.374   1.654   2.486
 5717WAT     H123588   5.401   1.637   2.567
 5717WAT     H223589   5.446   1.681   2.446
 5717WAT    EPW23590   5.389   1.656   2.492
 5718WAT      O23591   4.703   1.153   3.042
 5718WAT     H123592   4.619   1.155   3.066
 5718WAT     H223593   4.700   1.156   2.955
 5718WAT    EPW23594   4.690   1.154   3.033
 5719WAT      O23595   5.521   1.239   2.637
 5719WAT     H123596   5.444   1.200   2.652
 5719WAT     H223597   5.519   1.256   2.551
 5719WAT    EPW23598   5.509   1.236   2.627
 5720WAT      O23599   5.518   2.044   2.439
 5720WAT     H123600   5.559   1.968   2.432
 5720WAT     H223601   5.433   2.022   2.435
 5720WAT    EPW23602   5.511   2.030   2.438
 5721WAT      O23603   3.937   1.294   3.721
 5721WAT     H123604   3.919   1.368   3.679
 5721WAT     H223605   3.861   1.250   3.718
 5721WAT    EPW23606   3.923   1.298   3.714
 5722WAT      O23607   4.278   1.475   2.406
 5722WAT     H123608   4.293   1.437   2.329
 5722WAT     H223609   4.197   1.451   2.425
 5722WAT    EPW23610   4.269   1.465   2.398
 5723WAT      O23611   5.164   2.243   2.720
 5723WAT     H123612   5.137   2.256   2.802
 5723WAT     H223613   5.187   2.159   2.719
 5723WAT    EPW23614   5.163   2.233   2.732
 5724WAT      O23615   4.899   2.167   2.660
 5724WAT     H123616   4.868   2.151   2.740
 5724WAT     H223617   4.978   2.200   2.675
 5724WAT    EPW23618   4.906   2.170   2.674
 5725WAT      O23619   5.858   1.810   3.636
 5725WAT     H123620   5.804   1.746   3.661
 5725WAT     H223621   5.853   1.808   3.549
 5725WAT    EPW23622   5.849   1.800   3.627
 5726WAT      O23623   5.216   1.884   3.438
 5726WAT     H123624   5.182   1.815   3.480
 5726WAT     H223625   5.287   1.903   3.484
 5726WAT    EPW23626   5.221   1.877   3.451
 5727WAT      O23627   4.886   2.026   3.817
 5727WAT     H123628   4.922   2.090   3.769
 5727WAT     H223629   4.803   2.050   3.823
 5727WAT    EPW23630   4.879   2.039   3.811
 5728WAT      O23631   5.339   2.906   2.963
 5728WAT     H123632   5.288   2.976   2.977
 5728WAT     H223633   5.368   2.885   3.043
 5728WAT    EPW23634   5.336   2.913   2.977
 5729WAT      O23635   5.499   2.597   3.884
 5729WAT     H123636   5.580   2.564   3.882
 5729WAT     H223637   5.460   2.554   3.949
 5729WAT    EPW23638   5.505   2.586   3.894
 5730WAT      O23639   4.276   1.714   3.509
 5730WAT     H123640   4.297   1.781   3.458
 5730WAT     H223641   4.352   1.672   3.519
 5730WAT    EPW23642   4.291   1.718   3.503
 5731WAT      O23643   4.096   1.555   3.380
 5731WAT     H123644   4.110   1.568   3.295
 5731WAT     H223645   4.156   1.605   3.418
 5731WAT    EPW23646   4.107   1.564   3.373
 5732WAT      O23647   5.604   1.782   2.393
 5732WAT     H123648   5.621   1.780   2.308
 5732WAT     H223649   5.679   1.756   2.430
 5732WAT    EPW23650   5.618   1.778   2.386
 5733WAT      O23651   4.307   1.259   3.642
 5733WAT     H123652   4.264   1.184   3.649
 5733WAT     H223653   4.294   1.283   3.559
 5733WAT    EPW23654   4.299   1.252   3.631
 5734WAT      O23655   4.992   2.532   2.540
 5734WAT     H123656   4.981   2.615   2.515
 5734WAT     H223657   4.914   2.496   2.528
 5734WAT    EPW23658   4.979   2.539   2.535
 5735WAT      O23659   5.552   1.785   3.426
 5735WAT     H123660   5.523   1.704   3.416
 5735WAT     H223661   5.517   1.811   3.501
 5735WAT    EPW23662   5.543   1.777   3.435
 5736WAT      O23663   4.020   2.019   3.430
 5736WAT     H123664   4.084   2.063   3.390
 5736WAT     H223665   4.003   1.953   3.375
 5736WAT    EPW23666   4.027   2.015   3.416
 5737WAT      O23667   4.166   1.654   2.039
 5737WAT     H123668   4.096   1.654   2.091
 5737WAT     H223669   4.170   1.572   2.010
 5737WAT    EPW23670   4.156   1.642   2.043
 5738WAT      O23671   5.029   1.253   3.700
 5738WAT     H123672   5.060   1.316   3.752
 5738WAT     H223673   4.951   1.234   3.734
 5738WAT    EPW23674   5.022   1.259   3.713
 5739WAT      O23675   5.076   1.341   2.798
 5739WAT     H123676   4.995   1.367   2.816
 5739WAT     H223677   5.065   1.282   2.734
 5739WAT    EPW23678   5.063   1.336   2.791
 5740WAT      O23679   4.495   2.506   2.192
 5740WAT     H123680   4.526   2.535   2.269
 5740WAT     H223681   4.413   2.482   2.210
 5740WAT    EPW23682   4.488   2.507   2.206
 5741WAT      O23683   5.334   1.418   3.108
 5741WAT     H123684   5.420   1.406   3.121
 5741WAT     H223685   5.305   1.441   3.187
 5741WAT    EPW23686   5.343   1.420   3.122
 5742WAT      O23687   4.479   2.033   3.574
 5742WAT     H123688   4.484   2.120   3.579
 5742WAT     H223689   4.451   2.018   3.493
 5742WAT    EPW23690   4.476   2.044   3.563
 5743WAT      O23691   5.437   1.878   2.831
 5743WAT     H123692   5.481   1.949   2.855
 5743WAT     H223693   5.370   1.910   2.785
 5743WAT    EPW23694   5.433   1.893   2.828
 5744WAT      O23695   5.427   2.678   2.549
 5744WAT     H123696   5.407   2.602   2.588
 5744WAT     H223697   5.473   2.652   2.479
 5744WAT    EPW23698   5.431   2.663   2.545
 5745WAT      O23699   4.240   2.399   2.245
 5745WAT     H123700   4.243   2.389   2.332
 5745WAT     H223701   4.271   2.323   2.215
 5745WAT    EPW23702   4.245   2.386   2.254
 5746WAT      O23703   4.571   2.263   2.061
 5746WAT     H123704   4.494   2.226   2.081
 5746WAT     H223705   4.568   2.340   2.102
 5746WAT    EPW23706   4.559   2.269   2.070
 5747WAT      O23707   4.515   1.407   3.305
 5747WAT     H123708   4.436   1.370   3.314
 5747WAT     H223709   4.570   1.345   3.331
 5747WAT    EPW23710   4.511   1.392   3.310
 5748WAT      O23711   5.696   1.199   3.332
 5748WAT     H123712   5.704   1.260   3.394
 5748WAT     H223713   5.773   1.159   3.332
 5748WAT    EPW23714   5.708   1.202   3.341
 5749WAT      O23715   4.920   1.333   3.094
 5749WAT     H123716   4.856   1.275   3.088
 5749WAT     H223717   4.992   1.283   3.089
 5749WAT    EPW23718   4.921   1.317   3.092
 5750WAT      O23719   5.137   2.550   3.328
 5750WAT     H123720   5.121   2.547   3.413
 5750WAT     H223721   5.082   2.611   3.298
 5750WAT    EPW23722   5.126   2.559   3.336
 5751WAT      O23723   5.103   2.846   3.617
 5751WAT     H123724   5.021   2.835   3.591
 5751WAT     H223725   5.103   2.925   3.652
 5751WAT    EPW23726   5.091   2.856   3.618
 5752WAT      O23727   4.647   1.806   3.623
 5752WAT     H123728   4.602   1.744   3.580
 5752WAT     H223729   4.601   1.878   3.607
 5752WAT    EPW23730   4.633   1.807   3.614
 5753WAT      O23731   4.764   1.155   2.155
 5753WAT     H123732   4.772   1.166   2.069
 5753WAT     H223733   4.677   1.158   2.168
 5753WAT    EPW23734   4.752   1.157   2.144
 5754WAT      O23735   5.696   2.192   3.188
 5754WAT     H123736   5.634   2.131   3.195
 5754WAT     H223737   5.653   2.267   3.198
 5754WAT    EPW23738   5.681   2.194   3.191
 5755WAT      O23739   5.622   2.477   3.211
 5755WAT     H123740   5.667   2.520   3.150
 5755WAT     H223741   5.550   2.452   3.168
 5755WAT    EPW23742   5.618   2.480   3.195
 5756WAT      O23743   4.253   1.324   3.378
 5756WAT     H123744   4.199   1.258   3.361
 5756WAT     H223745   4.201   1.394   3.375
 5756WAT    EPW23746   4.237   1.324   3.375
 5757WAT      O23747   5.171   1.207   3.026
 5757WAT     H123748   5.227   1.267   3.058
 5757WAT     H223749   5.146   1.241   2.950
 5757WAT    EPW23750   5.176   1.221   3.020
 5758WAT      O23751   5.078   1.764   2.824
 5758WAT     H123752   5.137   1.707   2.853
 5758WAT     H223753   5.037   1.721   2.760
 5758WAT    EPW23754   5.080   1.749   2.819
 5759WAT      O23755   4.142   1.643   2.716
 5759WAT     H123756   4.081   1.650   2.778
 5759WAT     H223757   4.181   1.567   2.734
 5759WAT    EPW23758   4.139   1.633   2.728
 5760WAT      O23759   5.269   1.903   2.418
 5760WAT     H123760   5.287   1.820   2.438
 5760WAT     H223761   5.197   1.898   2.370
 5760WAT    EPW23762   5.261   1.890   2.414
 5761WAT      O23763   4.666   1.983   2.349
 5761WAT     H123764   4.688   2.008   2.268
 5761WAT     H223765   4.743   1.978   2.390
 5761WAT    EPW23766   4.680   1.986   2.343
 5762WAT      O23767   5.561   2.867   2.058
 5762WAT     H123768   5.634   2.857   2.106
 5762WAT     H223769   5.542   2.785   2.034
 5762WAT    EPW23770   5.569   2.853   2.062
 5763WAT      O23771   5.579   2.056   3.767
 5763WAT     H123772   5.651   2.029   3.807
 5763WAT     H223773   5.609   2.113   3.708
 5763WAT    EPW23774   5.594   2.061   3.764
 5764WAT      O23775   5.178   2.460   2.327
 5764WAT     H123776   5.129   2.467   2.399
 5764WAT     H223777   5.135   2.401   2.279
 5764WAT    EPW23778   5.164   2.452   2.330
 5765WAT      O23779   5.667   1.656   3.133
 5765WAT     H123780   5.586   1.689   3.124
 5765WAT     H223781   5.653   1.571   3.139
 5765WAT    EPW23782   5.653   1.649   3.132
 5766WAT      O23783   4.577   1.328   3.669
 5766WAT     H123784   4.612   1.302   3.593
 5766WAT     H223785   4.495   1.296   3.666
 5766WAT    EPW23786   4.570   1.319   3.657
 5767WAT      O23787   5.355   2.125   3.960
 5767WAT     H123788   5.422   2.152   4.009
 5767WAT     H223789   5.386   2.129   3.879
 5767WAT    EPW23790   5.369   2.130   3.955
 5768WAT      O23791   4.856   2.312   2.260
 5768WAT     H123792   4.929   2.274   2.232
 5768WAT     H223793   4.846   2.380   2.207
 5768WAT    EPW23794   4.865   2.317   2.248
 5769WAT      O23795   5.072   1.153   0.688
 5769WAT     H123796   5.093   1.185   0.610
 5769WAT     H223797   5.148   1.128   0.722
 5769WAT    EPW23798   5.086   1.154   0.682
 5770WAT      O23799   4.983   1.786   1.151
 5770WAT     H123800   4.951   1.863   1.177
 5770WAT     H223801   5.042   1.766   1.212
 5770WAT    EPW23802   4.987   1.795   1.164
 5771WAT      O23803   3.970   2.258   0.684
 5771WAT     H123804   3.963   2.262   0.771
 5771WAT     H223805   3.965   2.173   0.667
 5771WAT    EPW23806   3.968   2.246   0.695
 5772WAT      O23807   5.597   2.604   0.431
 5772WAT     H123808   5.660   2.548   0.452
 5772WAT     H223809   5.543   2.557   0.381
 5772WAT    EPW23810   5.599   2.589   0.427
 5773WAT      O23811   3.980   1.618   0.323
 5773WAT     H123812   3.925   1.675   0.287
 5773WAT     H223813   3.938   1.542   0.317
 5773WAT    EPW23814   3.966   1.615   0.317
 5774WAT      O23815   4.229   2.160   0.259
 5774WAT     H123816   4.215   2.120   0.183
 5774WAT     H223817   4.236   2.095   0.316
 5774WAT    EPW23818   4.228   2.145   0.256
 5775WAT      O23819   5.239   1.974   0.819
 5775WAT     H123820   5.251   1.961   0.734
 5775WAT     H223821   5.183   1.910   0.841
 5775WAT    EPW23822   5.232   1.962   0.810
 5776WAT      O23823   4.219   2.369   0.631
 5776WAT     H123824   4.272   2.336   0.692
 5776WAT     H223825   4.143   2.328   0.646
 5776WAT    EPW23826   4.215   2.358   0.643
 5777WAT      O23827   4.695   1.270   0.613
 5777WAT     H123828   4.695   1.352   0.583
 5777WAT     H223829   4.740   1.226   0.552
 5777WAT    EPW23830   4.702   1.276   0.599
 5778WAT      O23831   4.135   2.672   0.284
 5778WAT     H123832   4.168   2.680   0.203
 5778WAT     H223833   4.158   2.591   0.307
 5778WAT    EPW23834   4.143   2.661   0.275
 5779WAT      O23835   3.910   2.516   1.375
 5779WAT     H123836   3.957   2.485   1.442
 5779WAT     H223837   3.861   2.448   1.351
 5779WAT    EPW23838   3.910   2.501   1.381
 5780WAT      O23839   4.643   2.287   1.792
 5780WAT     H123840   4.621   2.274   1.876
 5780WAT     H223841   4.569   2.269   1.750
 5780WAT    EPW23842   4.629   2.283   1.798
 5781WAT      O23843   4.173   2.007   0.817
 5781WAT     H123844   4.123   2.005   0.746
 5781WAT     H223845   4.228   1.941   0.806
 5781WAT    EPW23846   4.174   1.997   0.805
 5782WAT      O23847   4.593   1.570   1.355
 5782WAT     H123848   4.662   1.575   1.303
 5782WAT     H223849   4.574   1.485   1.355
 5782WAT    EPW23850   4.600   1.558   1.348
 5783WAT      O23851   4.656   2.754   1.544
 5783WAT     H123852   4.578   2.780   1.513
 5783WAT     H223853   4.662   2.671   1.518
 5783WAT    EPW23854   4.645   2.746   1.535
 5784WAT      O23855   4.340   1.789   0.799
 5784WAT     H123856   4.407   1.737   0.819
 5784WAT     H223857   4.271   1.734   0.802
 5784WAT    EPW23858   4.340   1.773   0.802
 5785WAT      O23859   4.717   2.436   0.967
 5785WAT     H123860   4.741   2.354   0.985
 5785WAT     H223861   4.793   2.478   0.956
 5785WAT    EPW23862   4.732   2.430   0.968
 5786WAT      O23863   4.778   2.343   0.593
 5786WAT     H123864   4.820   2.286   0.644
 5786WAT     H223865   4.819   2.337   0.516
 5786WAT    EPW23866   4.790   2.334   0.589
 5787WAT      O23867   4.925   1.814   1.741
 5787WAT     H123868   4.839   1.814   1.724
 5787WAT     H223869   4.933   1.868   1.809
 5787WAT    EPW23870   4.913   1.822   1.748
 5788WAT      O23871   4.420   1.283   0.686
 5788WAT     H123872   4.379   1.330   0.625
 5788WAT     H223873   4.503   1.279   0.657
 5788WAT    EPW23874   4.426   1.290   0.673
 5789WAT      O23875   5.412   1.067   1.642
 5789WAT     H123876   5.383   1.133   1.593
 5789WAT     H223877   5.341   1.042   1.687
 5789WAT    EPW23878   5.397   1.073   1.641
 5790WAT      O23879   4.746   1.216   0.880
 5790WAT     H123880   4.754   1.299   0.906
 5790WAT     H223881   4.725   1.224   0.795
 5790WAT    EPW23882   4.744   1.230   0.871
 5791WAT      O23883   3.986   1.747   1.063
 5791WAT     H123884   3.987   1.833   1.072
 5791WAT     H223885   3.917   1.722   1.110
 5791WAT    EPW23886   3.976   1.756   1.071
 5792WAT      O23887   3.970   2.721   0.887
 5792WAT     H123888   3.903   2.758   0.846
 5792WAT     H223889   4.015   2.683   0.823
 5792WAT    EPW23890   3.967   2.721   0.872
 5793WAT      O23891   4.583   2.548   0.582
 5793WAT     H123892   4.539   2.535   0.656
 5793WAT     H223893   4.652   2.496   0.590
 5793WAT    EPW23894   4.587   2.539   0.594
 5794WAT      O23895   5.179   2.715   0.383
 5794WAT     H123896   5.241   2.775   0.372
 5794WAT     H223897   5.222   2.645   0.411
 5794WAT    EPW23898   5.194   2.714   0.386
 5795WAT      O23899   4.960   2.752   0.550
 5795WAT     H123900   4.973   2.819   0.603
 5795WAT     H223901   5.031   2.750   0.499
 5795WAT    EPW23902   4.972   2.761   0.550
 5796WAT      O23903   4.279   1.251   1.106
 5796WAT     H123904   4.231   1.186   1.072
 5796WAT     H223905   4.342   1.210   1.149
 5796WAT    EPW23906   4.281   1.235   1.107
 5797WAT      O23907   4.596   1.449   2.019
 5797WAT     H123908   4.585   1.414   1.940
 5797WAT     H223909   4.635   1.525   2.002
 5797WAT    EPW23910   4.600   1.455   2.005
 5798WAT      O23911   4.110   2.622   0.665
 5798WAT     H123912   4.158   2.550   0.671
 5798WAT     H223913   4.160   2.676   0.619
 5798WAT    EPW23914   4.124   2.619   0.659
 5799WAT      O23915   5.717   1.437   0.808
 5799WAT     H123916   5.667   1.508   0.816
 5799WAT     H223917   5.659   1.373   0.793
 5799WAT    EPW23918   5.701   1.438   0.807
 5800WAT      O23919   5.244   2.783   1.340
 5800WAT     H123920   5.263   2.707   1.378
 5800WAT     H223921   5.204   2.760   1.266
 5800WAT    EPW23922   5.241   2.769   1.335
 5801WAT      O23923   4.176   1.385   1.971
 5801WAT     H123924   4.097   1.359   1.997
 5801WAT     H223925   4.190   1.339   1.899
 5801WAT    EPW23926   4.166   1.375   1.965
 5802WAT      O23927   4.248   2.469   1.010
 5802WAT     H123928   4.307   2.465   0.947
 5802WAT     H223929   4.279   2.414   1.071
 5802WAT    EPW23930   4.262   2.460   1.010
 5803WAT      O23931   4.557   2.774   0.891
 5803WAT     H123932   4.549   2.759   0.977
 5803WAT     H223933   4.483   2.816   0.871
 5803WAT    EPW23934   4.545   2.778   0.901
 5804WAT      O23935   4.784   1.183   1.884
 5804WAT     H123936   4.796   1.111   1.835
 5804WAT     H223937   4.716   1.222   1.846
 5804WAT    EPW23938   4.776   1.178   1.871
 5805WAT      O23939   4.877   1.709   0.725
 5805WAT     H123940   4.907   1.665   0.656
 5805WAT     H223941   4.948   1.723   0.773
 5805WAT    EPW23942   4.892   1.704   0.722
 5806WAT      O23943   4.977   1.723   0.261
 5806WAT     H123944   5.000   1.799   0.296
 5806WAT     H223945   4.900   1.741   0.223
 5806WAT    EPW23946   4.969   1.737   0.260
 5807WAT      O23947   5.371   2.921   0.340
 5807WAT     H123948   5.416   2.886   0.274
 5807WAT     H223949   5.428   2.976   0.376
 5807WAT    EPW23950   5.386   2.924   0.335
 5808WAT      O23951   4.397   2.830   1.466
 5808WAT     H123952   4.377   2.897   1.519
 5808WAT     H223953   4.321   2.790   1.454
 5808WAT    EPW23954   4.383   2.834   1.472
 5809WAT      O23955   5.632   1.363   1.229
 5809WAT     H123956   5.696   1.350   1.171
 5809WAT     H223957   5.650   1.304   1.292
 5809WAT    EPW23958   5.644   1.352   1.230
 5810WAT      O23959   3.886   1.479   1.651
 5810WAT     H123960   3.884   1.550   1.701
 5810WAT     H223961   3.947   1.497   1.591
 5810WAT    EPW23962   3.895   1.492   1.649
 5811WAT      O23963   5.134   2.509   1.753
 5811WAT     H123964   5.114   2.538   1.832
 5811WAT     H223965   5.222   2.509   1.752
 5811WAT    EPW23966   5.144   2.513   1.764
 5812WAT      O23967   4.963   2.601   0.232
 5812WAT     H123968   4.899   2.659   0.246
 5812WAT     H223969   5.034   2.642   0.260
 5812WAT    EPW23970   4.964   2.616   0.238
 5813WAT      O23971   5.131   1.219   0.425
 5813WAT     H123972   5.198   1.176   0.388
 5813WAT     H223973   5.165   1.297   0.443
 5813WAT    EPW23974   5.146   1.224   0.422
 5814WAT      O23975   3.995   1.398   0.582
 5814WAT     H123976   3.968   1.318   0.560
 5814WAT     H223977   3.950   1.415   0.655
 5814WAT    EPW23978   3.984   1.389   0.589
 5815WAT      O23979   4.136   2.738   1.377
 5815WAT     H123980   4.083   2.669   1.380
 5815WAT     H223981   4.178   2.728   1.301
 5815WAT    EPW23982   4.135   2.727   1.366
 5816WAT      O23983   4.947   1.574   0.491
 5816WAT     H123984   4.870   1.535   0.476
 5816WAT     H223985   4.962   1.619   0.417
 5816WAT    EPW23986   4.938   1.575   0.478
 5817WAT      O23987   4.991   2.802   1.453
 5817WAT     H123988   5.071   2.799   1.417
 5817WAT     H223989   4.938   2.801   1.384
 5817WAT    EPW23990   4.995   2.802   1.438
 5818WAT      O23991   4.857   1.213   0.381
 5818WAT     H123992   4.836   1.282   0.333
 5818WAT     H223993   4.944   1.218   0.388
 5818WAT    EPW23994   4.866   1.224   0.375
 5819WAT      O23995   5.652   2.840   0.728
 5819WAT     H123996   5.608   2.915   0.738
 5819WAT     H223997   5.590   2.782   0.709
 5819WAT    EPW23998   5.636   2.843   0.727
 5820WAT      O23999   4.781   1.502   0.897
 5820WAT     H124000   4.803   1.570   0.847
 5820WAT     H224001   4.788   1.534   0.978
 5820WAT    EPW24002   4.785   1.517   0.902
 5821WAT      O24003   5.384   2.416   0.778
 5821WAT     H124004   5.448   2.357   0.781
 5821WAT     H224005   5.312   2.369   0.796
 5821WAT    EPW24006   5.383   2.400   0.781
 5822WAT      O24007   4.325   2.505   1.608
 5822WAT     H124008   4.397   2.522   1.562
 5822WAT     H224009   4.334   2.555   1.679
 5822WAT    EPW24010   4.337   2.515   1.612
 5823WAT      O24011   4.353   1.024   0.753
 5823WAT     H124012   4.375   1.106   0.734
 5823WAT     H224013   4.320   0.994   0.678
 5823WAT    EPW24014   4.351   1.032   0.739
 5824WAT      O24015   4.538   2.118   1.104
 5824WAT     H124016   4.564   2.101   1.186
 5824WAT     H224017   4.485   2.051   1.086
 5824WAT    EPW24018   4.534   2.106   1.113
 5825WAT      O24019   5.132   1.472   1.480
 5825WAT     H124020   5.134   1.516   1.555
 5825WAT     H224021   5.064   1.418   1.490
 5825WAT    EPW24022   5.122   1.470   1.492
 5826WAT      O24023   4.646   2.103   1.358
 5826WAT     H124024   4.643   2.187   1.379
 5826WAT     H224025   4.614   2.063   1.429
 5826WAT    EPW24026   4.641   2.109   1.372
 5827WAT      O24027   5.275   2.220   1.362
 5827WAT     H124028   5.198   2.193   1.392
 5827WAT     H224029   5.272   2.306   1.373
 5827WAT    EPW24030   5.263   2.229   1.368
 5828WAT      O24031   5.316   1.074   0.790
 5828WAT     H124032   5.317   1.056   0.875
 5828WAT     H224033   5.351   1.003   0.754
 5828WAT    EPW24034   5.321   1.061   0.797
 5829WAT      O24035   3.865   2.676   1.995
 5829WAT     H124036   3.860   2.742   2.052
 5829WAT     H224037   3.937   2.633   2.019
 5829WAT    EPW24038   3.875   2.679   2.007
 5830WAT      O24039   5.511   1.520   1.573
 5830WAT     H124040   5.595   1.504   1.594
 5830WAT     H224041   5.470   1.515   1.650
 5830WAT    EPW24042   5.517   1.517   1.588
 5831WAT      O24043   4.295   1.425   0.894
 5831WAT     H124044   4.327   1.373   0.832
 5831WAT     H224045   4.289   1.373   0.964
 5831WAT    EPW24046   4.299   1.410   0.896
 5832WAT      O24047   5.561   2.221   0.341
 5832WAT     H124048   5.558   2.175   0.415
 5832WAT     H224049   5.646   2.222   0.321
 5832WAT    EPW24050   5.573   2.215   0.349
 5833WAT      O24051   4.343   2.229   0.833
 5833WAT     H124052   4.414   2.206   0.789
 5833WAT     H224053   4.295   2.156   0.833
 5833WAT    EPW24054   4.346   2.215   0.827
 5834WAT      O24055   4.156   2.907   0.973
 5834WAT     H124056   4.089   2.857   0.947
 5834WAT     H224057   4.208   2.908   0.903
 5834WAT    EPW24058   4.154   2.900   0.958
 5835WAT      O24059   4.147   1.565   1.198
 5835WAT     H124060   4.231   1.585   1.184
 5835WAT     H224061   4.104   1.629   1.157
 5835WAT    EPW24062   4.153   1.577   1.190
 5836WAT      O24063   5.821   2.642   1.731
 5836WAT     H124064   5.743   2.647   1.693
 5836WAT     H224065   5.805   2.600   1.806
 5836WAT    EPW24066   5.807   2.637   1.737
 5837WAT      O24067   5.390   1.840   0.276
 5837WAT     H124068   5.314   1.806   0.250
 5837WAT     H224069   5.368   1.886   0.347
 5837WAT    EPW24070   5.375   1.842   0.282
 5838WAT      O24071   4.549   2.174   0.656
 5838WAT     H124072   4.609   2.232   0.629
 5838WAT     H224073   4.560   2.107   0.602
 5838WAT    EPW24074   4.560   2.173   0.644
 5839WAT      O24075   5.686   1.402   0.233
 5839WAT     H124076   5.710   1.325   0.199
 5839WAT     H224077   5.649   1.443   0.165
 5839WAT    EPW24078   5.684   1.396   0.218
 5840WAT      O24079   4.003   2.328   0.966
 5840WAT     H124080   3.948   2.388   0.998
 5840WAT     H224081   4.081   2.367   0.971
 5840WAT    EPW24082   4.006   2.343   0.971
 5841WAT      O24083   4.723   1.694   1.984
 5841WAT     H124084   4.664   1.741   2.028
 5841WAT     H224085   4.714   1.722   1.902
 5841WAT    EPW24086   4.713   1.705   1.978
 5842WAT      O24087   5.798   1.795   1.478
 5842WAT     H124088   5.827   1.722   1.438
 5842WAT     H224089   5.713   1.798   1.455
 5842WAT    EPW24090   5.789   1.784   1.468
 5843WAT      O24091   4.023   1.991   0.590
 5843WAT     H124092   4.000   1.907   0.593
 5843WAT     H224093   4.093   1.991   0.538
 5843WAT    EPW24094   4.030   1.978   0.583
 5844WAT      O24095   5.543   1.250   0.442
 5844WAT     H124096   5.620   1.214   0.461
 5844WAT     H224097   5.564   1.317   0.390
 5844WAT    EPW24098   5.557   1.255   0.437
 5845WAT      O24099   4.949   2.583   0.932
 5845WAT     H124100   4.916   2.662   0.914
 5845WAT     H224101   4.977   2.554   0.855
 5845WAT    EPW24102   4.948   2.590   0.918
 5846WAT      O24103   3.937   2.466   0.507
 5846WAT     H124104   3.990   2.522   0.549
 5846WAT     H224105   3.930   2.399   0.563
 5846WAT    EPW24106   3.944   2.465   0.522
 5847WAT      O24107   4.351   2.297   1.205
 5847WAT     H124108   4.402   2.339   1.262
 5847WAT     H224109   4.408   2.249   1.159
 5847WAT    EPW24110   4.367   2.296   1.206
 5848WAT      O24111   5.258   1.525   0.916
 5848WAT     H124112   5.291   1.488   0.988
 5848WAT     H224113   5.196   1.469   0.891
 5848WAT    EPW24114   5.254   1.511   0.923
 5849WAT      O24115   3.956   2.266   0.304
 5849WAT     H124116   4.037   2.236   0.294
 5849WAT     H224117   3.966   2.335   0.357
 5849WAT    EPW24118   3.969   2.272   0.311
 5850WAT      O24119   4.018   2.059   1.041
 5850WAT     H124120   4.071   2.033   0.976
 5850WAT     H224121   4.012   2.145   1.030
 5850WAT    EPW24122   4.025   2.068   1.030
 5851WAT      O24123   4.687   1.482   0.427
 5851WAT     H124124   4.637   1.419   0.394
 5851WAT     H224125   4.642   1.554   0.412
 5851WAT    EPW24126   4.673   1.483   0.420
 5852WAT      O24127   5.573   2.660   1.597
 5852WAT     H124128   5.521   2.729   1.609
 5852WAT     H224129   5.576   2.651   1.510
 5852WAT    EPW24130   5.566   2.669   1.586
 5853WAT      O24131   4.475   2.517   0.835
 5853WAT     H124132   4.499   2.599   0.852
 5853WAT     H224133   4.538   2.469   0.871
 5853WAT    EPW24134   4.488   2.522   0.843
 5854WAT      O24135   4.290   1.823   1.858
 5854WAT     H124136   4.246   1.765   1.906
 5854WAT     H224137   4.285   1.790   1.777
 5854WAT    EPW24138   4.283   1.810   1.853
 5855WAT      O24139   4.249   1.683   0.388
 5855WAT     H124140   4.259   1.620   0.447
 5855WAT     H224141   4.169   1.670   0.358
 5855WAT    EPW24142   4.239   1.672   0.392
 5856WAT      O24143   4.365   1.909   1.054
 5856WAT     H124144   4.358   1.885   0.970
 5856WAT     H224145   4.383   1.834   1.095
 5856WAT    EPW24146   4.367   1.894   1.048
 5857WAT      O24147   4.330   1.877   1.385
 5857WAT     H124148   4.357   1.829   1.318
 5857WAT     H224149   4.284   1.941   1.347
 5857WAT    EPW24150   4.327   1.880   1.369
 5858WAT      O24151   5.407   1.689   1.193
 5858WAT     H124152   5.335   1.710   1.238
 5858WAT     H224153   5.404   1.744   1.125
 5858WAT    EPW24154   5.396   1.700   1.190
 5859WAT      O24155   4.826   2.797   1.234
 5859WAT     H124156   4.771   2.736   1.206
 5859WAT     H224157   4.789   2.872   1.207
 5859WAT    EPW24158   4.812   2.799   1.226
 5860WAT      O24159   4.958   1.262   1.561
 5860WAT     H124160   4.977   1.185   1.526
 5860WAT     H224161   4.992   1.258   1.641
 5860WAT    EPW24162   4.966   1.250   1.567
 5861WAT      O24163   5.206   1.465   0.517
 5861WAT     H124164   5.264   1.529   0.532
 5861WAT     H224165   5.130   1.506   0.517
 5861WAT    EPW24166   5.204   1.480   0.519
 5862WAT      O24167   4.159   2.055   1.931
 5862WAT     H124168   4.148   2.104   1.860
 5862WAT     H224169   4.207   1.987   1.902
 5862WAT    EPW24170   4.164   2.052   1.916
 5863WAT      O24171   5.313   2.236   1.812
 5863WAT     H124172   5.349   2.314   1.795
 5863WAT     H224173   5.341   2.186   1.746
 5863WAT    EPW24174   5.323   2.240   1.800
 5864WAT      O24175   4.720   2.554   1.849
 5864WAT     H124176   4.753   2.541   1.929
 5864WAT     H224177   4.696   2.474   1.824
 5864WAT    EPW24178   4.721   2.540   1.857
 5865WAT      O24179   4.795   1.581   1.161
 5865WAT     H124180   4.854   1.645   1.166
 5865WAT     H224181   4.838   1.510   1.190
 5865WAT    EPW24182   4.810   1.580   1.166
 5866WAT      O24183   5.057   1.948   0.398
 5866WAT     H124184   5.075   2.027   0.366
 5866WAT     H224185   4.990   1.963   0.453
 5866WAT    EPW24186   5.050   1.962   0.402
 5867WAT      O24187   5.585   2.222   0.795
 5867WAT     H124188   5.591   2.173   0.867
 5867WAT     H224189   5.564   2.166   0.733
 5867WAT    EPW24190   5.583   2.207   0.797
 5868WAT      O24191   5.150   2.625   1.127
 5868WAT     H124192   5.077   2.605   1.084
 5868WAT     H224193   5.199   2.666   1.067
 5868WAT    EPW24194   5.147   2.628   1.112
 5869WAT      O24195   5.164   2.306   1.118
 5869WAT     H124196   5.089   2.338   1.148
 5869WAT     H224197   5.195   2.259   1.185
 5869WAT    EPW24198   5.158   2.304   1.132
 5870WAT      O24199   4.540   2.800   0.456
 5870WAT     H124200   4.554   2.731   0.508
 5870WAT     H224201   4.610   2.800   0.404
 5870WAT    EPW24202   4.553   2.790   0.456
 5871WAT      O24203   4.526   1.270   0.343
 5871WAT     H124204   4.511   1.190   0.375
 5871WAT     H224205   4.451   1.291   0.305
 5871WAT    EPW24206   4.513   1.261   0.342
 5872WAT      O24207   4.789   2.796   0.336
 5872WAT     H124208   4.831   2.775   0.410
 5872WAT     H224209   4.808   2.880   0.324
 5872WAT    EPW24210   4.798   2.805   0.345
 5873WAT      O24211   5.392   2.098   1.584
 5873WAT     H124212   5.358   2.143   1.518
 5873WAT     H224213   5.477   2.119   1.581
 5873WAT    EPW24214   5.400   2.108   1.574
 5874WAT      O24215   5.091   2.654   1.995
 5874WAT     H124216   5.125   2.682   2.071
 5874WAT     H224217   5.109   2.720   1.940
 5874WAT    EPW24218   5.099   2.668   1.998
 5875WAT      O24219   5.537   1.201   1.848
 5875WAT     H124220   5.501   1.156   1.783
 5875WAT     H224221   5.535   1.145   1.915
 5875WAT    EPW24222   5.532   1.186   1.848
 5876WAT      O24223   4.265   1.958   0.447
 5876WAT     H124224   4.260   1.873   0.432
 5876WAT     H224225   4.342   1.968   0.487
 5876WAT    EPW24226   4.276   1.947   0.451
 5877WAT      O24227   5.042   2.116   1.464
 5877WAT     H124228   4.990   2.155   1.522
 5877WAT     H224229   5.068   2.044   1.505
 5877WAT    EPW24230   5.038   2.111   1.478
 5878WAT      O24231   3.900   1.139   0.510
 5878WAT     H124232   3.904   1.079   0.447
 5878WAT     H224233   3.876   1.093   0.581
 5878WAT    EPW24234   3.897   1.123   0.511
 5879WAT      O24235   4.847   1.956   0.583
 5879WAT     H124236   4.864   2.018   0.641
 5879WAT     H224237   4.847   1.882   0.630
 5879WAT    EPW24238   4.849   1.954   0.599
 5880WAT      O24239   5.424   2.445   1.122
 5880WAT     H124240   5.452   2.444   1.040
 5880WAT     H224241   5.341   2.418   1.116
 5880WAT    EPW24242   5.416   2.441   1.109
 5881WAT      O24243   4.288   1.384   0.242
 5881WAT     H124244   4.233   1.356   0.180
 5881WAT     H224245   4.306   1.466   0.218
 5881WAT    EPW24246   4.282   1.392   0.229
 5882WAT      O24247   4.792   2.168   1.008
 5882WAT     H124248   4.710   2.146   1.025
 5882WAT     H224249   4.837   2.136   1.076
 5882WAT    EPW24250   4.787   2.160   1.020
 5883WAT      O24251   4.176   2.087   1.277
 5883WAT     H124252   4.228   2.156   1.261
 5883WAT     H224253   4.137   2.073   1.200
 5883WAT    EPW24254   4.178   2.095   1.263
 5884WAT      O24255   4.508   1.598   0.923
 5884WAT     H124256   4.585   1.560   0.910
 5884WAT     H224257   4.451   1.533   0.911
 5884WAT    EPW24258   4.511   1.583   0.919
 5885WAT      O24259   5.770   2.786   0.316
 5885WAT     H124260   5.844   2.742   0.301
 5885WAT     H224261   5.720   2.728   0.357
 5885WAT    EPW24262   5.774   2.771   0.320
 5886WAT      O24263   3.975   1.715   0.601
 5886WAT     H124264   4.012   1.679   0.672
 5886WAT     H224265   3.986   1.654   0.540
 5886WAT    EPW24266   3.982   1.700   0.603
 5887WAT      O24267   5.511   2.063   1.286
 5887WAT     H124268   5.513   1.991   1.336
 5887WAT     H224269   5.432   2.096   1.300
 5887WAT    EPW24270   5.500   2.057   1.296
 5888WAT      O24271   4.121   2.198   1.697
 5888WAT     H124272   4.087   2.148   1.634
 5888WAT     H224273   4.093   2.278   1.677
 5888WAT    EPW24274   4.112   2.202   1.685
 5889WAT      O24275   5.615   2.057   1.023
 5889WAT     H124276   5.588   2.064   1.106
 5889WAT     H224277   5.702   2.049   1.031
 5889WAT    EPW24278   5.624   2.057   1.037
 5890WAT      O24279   4.535   1.708   0.370
 5890WAT     H124280   4.552   1.787   0.402
 5890WAT     H224281   4.448   1.705   0.367
 5890WAT    EPW24282   4.525   1.719   0.374
 5891WAT      O24283   5.403   1.453   1.829
 5891WAT     H124284   5.326   1.454   1.871
 5891WAT     H224285   5.430   1.370   1.838
 5891WAT    EPW24286   5.395   1.441   1.837
 5892WAT      O24287   3.952   1.361   1.063
 5892WAT     H124288   3.933   1.391   0.983
 5892WAT     H224289   4.028   1.399   1.082
 5892WAT    EPW24290   3.960   1.371   1.054
 5893WAT      O24291   5.741   2.575   1.091
 5893WAT     H124292   5.785   2.617   1.027
 5893WAT     H224293   5.799   2.571   1.156
 5893WAT    EPW24294   5.756   2.581   1.091
 5894WAT      O24295   5.241   1.814   1.909
 5894WAT     H124296   5.277   1.818   1.988
 5894WAT     H224297   5.166   1.858   1.919
 5894WAT    EPW24298   5.235   1.821   1.922
 5895WAT      O24299   5.479   1.842   1.752
 5895WAT     H124300   5.502   1.923   1.776
 5895WAT     H224301   5.405   1.829   1.796
 5895WAT    EPW24302   5.471   1.852   1.762
 5896WAT      O24303   5.419   2.453   0.290
 5896WAT     H124304   5.462   2.378   0.297
 5896WAT     H224305   5.349   2.442   0.340
 5896WAT    EPW24306   5.415   2.440   0.298
 5897WAT      O24307   5.501   1.622   0.823
 5897WAT     H124308   5.431   1.577   0.851
 5897WAT     H224309   5.496   1.697   0.867
 5897WAT    EPW24310   5.490   1.626   0.833
 5898WAT      O24311   5.793   1.928   1.949
 5898WAT     H124312   5.796   1.871   1.884
 5898WAT     H224313   5.871   1.967   1.946
 5898WAT    EPW24314   5.805   1.926   1.939
 5899WAT      O24315   5.656   2.197   1.575
 5899WAT     H124316   5.725   2.153   1.544
 5899WAT     H224317   5.643   2.259   1.515
 5899WAT    EPW24318   5.664   2.199   1.561
 5900WAT      O24319   5.155   2.189   0.294
 5900WAT     H124320   5.187   2.247   0.351
 5900WAT     H224321   5.214   2.190   0.229
 5900WAT    EPW24322   5.169   2.198   0.293
 5901WAT      O24323   4.398   2.227   1.657
 5901WAT     H124324   4.314   2.215   1.678
 5901WAT     H224325   4.399   2.305   1.619
 5901WAT    EPW24326   4.386   2.237   1.655
 5902WAT      O24327   5.356   1.302   1.489
 5902WAT     H124328   5.413   1.366   1.503
 5902WAT     H224329   5.280   1.344   1.479
 5902WAT    EPW24330   5.353   1.318   1.489
 5903WAT      O24331   4.890   2.036   1.242
 5903WAT     H124332   4.945   2.068   1.302
 5903WAT     H224333   4.811   2.046   1.278
 5903WAT    EPW24334   4.886   2.042   1.256
 5904WAT      O24335   4.517   1.577   1.625
 5904WAT     H124336   4.528   1.497   1.660
 5904WAT     H224337   4.549   1.568   1.544
 5904WAT    EPW24338   4.523   1.564   1.618
 5905WAT      O24339   4.830   2.822   0.854
 5905WAT     H124340   4.838   2.907   0.874
 5905WAT     H224341   4.744   2.808   0.858
 5905WAT    EPW24342   4.819   2.833   0.858
 5906WAT      O24343   5.430   1.098   1.309
 5906WAT     H124344   5.401   1.170   1.349
 5906WAT     H224345   5.514   1.095   1.331
 5906WAT    EPW24346   5.438   1.108   1.318
 5907WAT      O24347   4.689   1.186   1.577
 5907WAT     H124348   4.769   1.219   1.564
 5907WAT     H224349   4.705   1.104   1.603
 5907WAT    EPW24350   4.703   1.179   1.578
 5908WAT      O24351   4.617   2.636   1.135
 5908WAT     H124352   4.594   2.597   1.210
 5908WAT     H224353   4.647   2.571   1.086
 5908WAT    EPW24354   4.618   2.621   1.139
 5909WAT      O24355   5.042   2.224   1.871
 5909WAT     H124356   5.123   2.238   1.844
 5909WAT     H224357   4.993   2.251   1.804
 5909WAT    EPW24358   5.047   2.230   1.857
 5910WAT      O24359   5.414   2.493   1.759
 5910WAT     H124360   5.443   2.528   1.833
 5910WAT     H224361   5.462   2.532   1.697
 5910WAT    EPW24362   5.425   2.504   1.761
 5911WAT      O24363   5.664   1.806   0.228
 5911WAT     H124364   5.687   1.873   0.177
 5911WAT     H224365   5.577   1.809   0.228
 5911WAT    EPW24366   5.655   1.816   0.220
 5912WAT      O24367   4.411   1.667   1.176
 5912WAT     H124368   4.446   1.641   1.101
 5912WAT     H224369   4.466   1.636   1.236
 5912WAT    EPW24370   4.424   1.658   1.174
 5913WAT      O24371   5.141   1.653   1.694
 5913WAT     H124372   5.063   1.690   1.706
 5913WAT     H224373   5.183   1.669   1.769
 5913WAT    EPW24374   5.135   1.661   1.707
 5914WAT      O24375   5.172   1.713   1.338
 5914WAT     H124376   5.179   1.769   1.404
 5914WAT     H224377   5.157   1.637   1.377
 5914WAT    EPW24378   5.171   1.710   1.353
 5915WAT      O24379   4.878   2.749   1.735
 5915WAT     H124380   4.834   2.760   1.660
 5915WAT     H224381   4.835   2.684   1.774
 5915WAT    EPW24382   4.865   2.741   1.730
 5916WAT      O24383   5.389   1.672   0.575
 5916WAT     H124384   5.418   1.652   0.655
 5916WAT     H224385   5.460   1.702   0.535
 5916WAT    EPW24386   5.404   1.674   0.581
 5917WAT      O24387   4.724   1.135   1.154
 5917WAT     H124388   4.639   1.127   1.172
 5917WAT     H224389   4.725   1.147   1.067
 5917WAT    EPW24390   4.712   1.136   1.144
 5918WAT      O24391   5.523   1.251   0.727
 5918WAT     H124392   5.450   1.211   0.751
 5918WAT     H224393   5.512   1.265   0.641
 5918WAT    EPW24394   5.511   1.247   0.718
 5919WAT      O24395   5.531   2.063   0.574
 5919WAT     H124396   5.575   1.990   0.558
 5919WAT     H224397   5.447   2.038   0.569
 5919WAT    EPW24398   5.525   2.049   0.571
 5920WAT      O24399   4.883   2.273   1.642
 5920WAT     H124400   4.804   2.271   1.679
 5920WAT     H224401   4.884   2.350   1.600
 5920WAT    EPW24402   4.871   2.284   1.641
 5921WAT      O24403   3.888   1.220   1.748
 5921WAT     H124404   3.894   1.305   1.726
 5921WAT     H224405   3.810   1.215   1.787
 5921WAT    EPW24406   3.877   1.232   1.751
 5922WAT      O24407   4.424   2.975   1.183
 5922WAT     H124408   4.445   3.008   1.261
 5922WAT     H224409   4.409   2.891   1.200
 5922WAT    EPW24410   4.425   2.967   1.197
 5923WAT      O24411   4.261   1.436   0.518
 5923WAT     H124412   4.261   1.407   0.436
 5923WAT     H224413   4.179   1.424   0.544
 5923WAT    EPW24414   4.249   1.430   0.510
 5924WAT      O24415   5.170   2.242   0.845
 5924WAT     H124416   5.162   2.261   0.930
 5924WAT     H224417   5.197   2.159   0.845
 5924WAT    EPW24418   5.173   2.233   0.858
 5925WAT      O24419   4.913   2.166   0.757
 5925WAT     H124420   4.871   2.162   0.833
 5925WAT     H224421   4.992   2.196   0.778
 5925WAT    EPW24422   4.919   2.170   0.771
 5926WAT      O24423   4.996   2.522   1.517
 5926WAT     H124424   5.032   2.518   1.596
 5926WAT     H224425   4.976   2.607   1.508
 5926WAT    EPW24426   4.998   2.534   1.527
 5927WAT      O24427   5.747   1.747   1.744
 5927WAT     H124428   5.661   1.761   1.746
 5927WAT     H224429   5.769   1.767   1.662
 5927WAT    EPW24430   5.737   1.752   1.732
 5928WAT      O24431   5.194   1.893   1.549
 5928WAT     H124432   5.184   1.831   1.609
 5928WAT     H224433   5.265   1.935   1.574
 5928WAT    EPW24434   5.203   1.890   1.562
 5929WAT      O24435   4.104   2.877   1.774
 5929WAT     H124436   4.040   2.820   1.759
 5929WAT     H224437   4.073   2.927   1.839
 5929WAT    EPW24438   4.090   2.876   1.782
 5930WAT      O24439   4.978   1.973   1.966
 5930WAT     H124440   5.001   2.051   1.933
 5930WAT     H224441   4.899   1.987   1.999
 5930WAT    EPW24442   4.970   1.987   1.966
 5931WAT      O24443   5.318   2.809   1.002
 5931WAT     H124444   5.278   2.874   1.045
 5931WAT     H224445   5.386   2.790   1.053
 5931WAT    EPW24446   5.322   2.816   1.016
 5932WAT      O24447   4.935   2.395   1.266
 5932WAT     H124448   4.848   2.392   1.258
 5932WAT     H224449   4.947   2.430   1.345
 5932WAT    EPW24450   4.924   2.400   1.276
 5933WAT      O24451   5.524   2.601   1.988
 5933WAT     H124452   5.606   2.571   1.989
 5933WAT     H224453   5.485   2.557   2.052
 5933WAT    EPW24454   5.530   2.590   1.998
 5934WAT      O24455   4.274   1.708   1.599
 5934WAT     H124456   4.291   1.767   1.537
 5934WAT     H224457   4.350   1.664   1.606
 5934WAT    EPW24458   4.288   1.710   1.591
 5935WAT      O24459   4.087   1.552   1.466
 5935WAT     H124460   4.107   1.555   1.381
 5935WAT     H224461   4.150   1.600   1.503
 5935WAT    EPW24462   4.099   1.560   1.459
 5936WAT      O24463   5.621   1.810   0.504
 5936WAT     H124464   5.643   1.812   0.419
 5936WAT     H224465   5.691   1.774   0.542
 5936WAT    EPW24466   5.635   1.805   0.497
 5937WAT      O24467   4.278   1.236   1.754
 5937WAT     H124468   4.235   1.159   1.752
 5937WAT     H224469   4.266   1.267   1.674
 5937WAT    EPW24470   4.270   1.229   1.742
 5938WAT      O24471   4.997   2.507   0.669
 5938WAT     H124472   4.982   2.586   0.635
 5938WAT     H224473   4.925   2.462   0.650
 5938WAT    EPW24474   4.984   2.512   0.661
 5939WAT      O24475   5.519   1.818   1.470
 5939WAT     H124476   5.499   1.733   1.460
 5939WAT     H224477   5.498   1.834   1.553
 5939WAT    EPW24478   5.513   1.808   1.481
 5940WAT      O24479   4.002   2.051   1.492
 5940WAT     H124480   4.054   2.067   1.423
 5940WAT     H224481   3.983   1.966   1.484
 5940WAT    EPW24482   4.007   2.041   1.480
 5941WAT      O24483   5.050   1.243   1.823
 5941WAT     H124484   5.083   1.311   1.866
 5941WAT     H224485   4.969   1.235   1.855
 5941WAT    EPW24486   5.043   1.252   1.834
 5942WAT      O24487   5.040   1.359   0.877
 5942WAT     H124488   4.960   1.394   0.875
 5942WAT     H224489   5.037   1.298   0.814
 5942WAT    EPW24490   5.027   1.355   0.867
 5943WAT      O24491   4.517   2.439   0.333
 5943WAT     H124492   4.544   2.477   0.406
 5943WAT     H224493   4.430   2.446   0.336
 5943WAT    EPW24494   4.508   2.446   0.344
 5944WAT      O24495   5.364   1.417   1.151
 5944WAT     H124496   5.442   1.382   1.167
 5944WAT     H224497   5.373   1.500   1.177
 5944WAT    EPW24498   5.377   1.424   1.157
 5945WAT      O24499   4.511   1.986   1.571
 5945WAT     H124500   4.476   2.060   1.600
 5945WAT     H224501   4.452   1.956   1.515
 5945WAT    EPW24502   4.497   1.993   1.567
 5946WAT      O24503   5.440   1.852   0.966
 5946WAT     H124504   5.499   1.914   0.982
 5946WAT     H224505   5.377   1.894   0.923
 5946WAT    EPW24506   5.439   1.867   0.962
 5947WAT      O24507   5.447   2.661   0.653
 5947WAT     H124508   5.427   2.585   0.692
 5947WAT     H224509   5.490   2.636   0.582
 5947WAT    EPW24510   5.450   2.646   0.648
 5948WAT      O24511   4.241   2.424   0.359
 5948WAT     H124512   4.239   2.408   0.445
 5948WAT     H224513   4.239   2.345   0.323
 5948WAT    EPW24514   4.240   2.410   0.367
 5949WAT      O24515   4.526   2.165   0.285
 5949WAT     H124516   4.441   2.163   0.264
 5949WAT     H224517   4.542   2.249   0.298
 5949WAT    EPW24518   4.516   2.177   0.284
 5950WAT      O24519   4.508   1.315   1.398
 5950WAT     H124520   4.426   1.303   1.424
 5950WAT     H224521   4.553   1.257   1.445
 5950WAT    EPW24522   4.503   1.305   1.409
 5951WAT      O24523   5.682   1.168   1.427
 5951WAT     H124524   5.664   1.193   1.509
 5951WAT     H224525   5.766   1.144   1.432
 5951WAT    EPW24526   5.692   1.168   1.440
 5952WAT      O24527   4.901   1.338   1.232
 5952WAT     H124528   4.845   1.273   1.218
 5952WAT     H224529   4.978   1.304   1.209
 5952WAT    EPW24530   4.904   1.324   1.227
 5953WAT      O24531   5.231   2.500   1.373
 5953WAT     H124532   5.159   2.503   1.422
 5953WAT     H224533   5.202   2.518   1.293
 5953WAT    EPW24534   5.216   2.503   1.369
 5954WAT      O24535   5.147   2.834   1.780
 5954WAT     H124536   5.073   2.799   1.749
 5954WAT     H224537   5.125   2.917   1.796
 5954WAT    EPW24538   5.133   2.841   1.778
 5955WAT      O24539   4.648   1.797   1.729
 5955WAT     H124540   4.609   1.727   1.695
 5955WAT     H224541   4.610   1.864   1.688
 5955WAT    EPW24542   4.637   1.796   1.718
 5956WAT      O24543   5.611   2.331   1.320
 5956WAT     H124544   5.596   2.247   1.304
 5956WAT     H224545   5.558   2.372   1.264
 5956WAT    EPW24546   5.601   2.325   1.309
 5957WAT      O24547   4.556   2.880   1.792
 5957WAT     H124548   4.540   2.830   1.861
 5957WAT     H224549   4.592   2.826   1.735
 5957WAT    EPW24550   4.559   2.865   1.794
 5958WAT      O24551   5.512   2.715   1.184
 5958WAT     H124552   5.589   2.689   1.153
 5958WAT     H224553   5.466   2.641   1.187
 5958WAT    EPW24554   5.517   2.700   1.180
 5959WAT      O24555   4.240   1.315   1.493
 5959WAT     H124556   4.189   1.249   1.467
 5959WAT     H224557   4.192   1.386   1.479
 5959WAT    EPW24558   4.226   1.315   1.487
 5960WAT      O24559   5.139   1.249   1.116
 5960WAT     H124560   5.205   1.303   1.136
 5960WAT     H224561   5.109   1.282   1.041
 5960WAT    EPW24562   5.145   1.262   1.108
 5961WAT      O24563   4.264   2.654   1.848
 5961WAT     H124564   4.329   2.680   1.900
 5961WAT     H224565   4.226   2.729   1.823
 5961WAT    EPW24566   4.268   2.669   1.852
 5962WAT      O24567   5.092   1.751   0.896
 5962WAT     H124568   5.147   1.684   0.907
 5962WAT     H224569   5.058   1.764   0.976
 5962WAT    EPW24570   5.095   1.743   0.910
 5963WAT      O24571   4.113   1.633   0.831
 5963WAT     H124572   4.070   1.658   0.903
 5963WAT     H224573   4.153   1.560   0.855
 5963WAT    EPW24574   4.113   1.626   0.845
 5964WAT      O24575   4.054   2.456   1.604
 5964WAT     H124576   4.022   2.521   1.653
 5964WAT     H224577   4.139   2.475   1.599
 5964WAT    EPW24578   4.062   2.468   1.610
 5965WAT      O24579   5.287   1.926   0.547
 5965WAT     H124580   5.306   1.842   0.557
 5965WAT     H224581   5.210   1.925   0.506
 5965WAT    EPW24582   5.278   1.914   0.542
 5966WAT      O24583   4.267   2.788   0.504
 5966WAT     H124584   4.226   2.764   0.431
 5966WAT     H224585   4.351   2.790   0.481
 5966WAT    EPW24586   4.273   2.785   0.490
 5967WAT      O24587   4.585   1.967   0.470
 5967WAT     H124588   4.584   2.026   0.406
 5967WAT     H224589   4.669   1.965   0.494
 5967WAT    EPW24590   4.597   1.975   0.464
 5968WAT      O24591   5.536   2.794   0.155
 5968WAT     H124592   5.615   2.795   0.193
 5968WAT     H224593   5.517   2.709   0.149
 5968WAT    EPW24594   5.545   2.782   0.159
 5969WAT      O24595   5.592   2.082   1.833
 5969WAT     H124596   5.663   2.050   1.873
 5969WAT     H224597   5.625   2.131   1.769
 5969WAT    EPW24598   5.607   2.085   1.829
 5970WAT      O24599   5.195   2.423   0.459
 5970WAT     H124600   5.194   2.429   0.546
 5970WAT     H224601   5.110   2.425   0.438
 5970WAT    EPW24602   5.182   2.424   0.469
 5971WAT      O24603   5.631   1.536   1.959
 5971WAT     H124604   5.621   1.616   1.992
 5971WAT     H224605   5.556   1.521   1.918
 5971WAT    EPW24606   5.619   1.546   1.958
 5972WAT      O24607   5.679   1.642   1.235
 5972WAT     H124608   5.596   1.666   1.225
 5972WAT     H224609   5.675   1.555   1.239
 5972WAT    EPW24610   5.666   1.633   1.234
 5973WAT      O24611   4.548   1.324   1.766
 5973WAT     H124612   4.585   1.282   1.699
 5973WAT     H224613   4.467   1.291   1.769
 5973WAT    EPW24614   4.542   1.313   1.756
 5974WAT      O24615   5.349   2.134   2.070
 5974WAT     H124616   5.423   2.166   2.103
 5974WAT     H224617   5.351   2.160   1.987
 5974WAT    EPW24618   5.360   2.143   2.063
 5975WAT      O24619   4.273   2.719   1.138
 5975WAT     H124620   4.272   2.642   1.097
 5975WAT     H224621   4.236   2.773   1.080
 5975WAT    EPW24622   4.267   2.716   1.123
 5976WAT      O24623   4.934   2.360   0.363
 5976WAT     H124624   4.976   2.303   0.312
 5976WAT     H224625   4.929   2.432   0.314
 5976WAT    EPW24626   4.939   2.362   0.348
 5977WAT      O24627   4.073   2.975   1.515
 5977WAT     H124628   4.096   2.952   1.596
 5977WAT     H224629   4.088   2.904   1.467
 5977WAT    EPW24630   4.079   2.961   1.520
 5978WAT      O24631   3.987   0.387   6.400
 5978WAT     H124632   3.981   0.431   6.475
 5978WAT     H224633   4.018   0.309   6.425
 5978WAT    EPW24634   3.991   0.382   6.415
 5979WAT      O24635   5.605   0.775   6.156
 5979WAT     H124636   5.665   0.718   6.184
 5979WAT     H224637   5.557   0.729   6.100
 5979WAT    EPW24638   5.607   0.760   6.152
 5980WAT      O24639   4.247   0.353   5.873
 5980WAT     H124640   4.216   0.346   5.791
 5980WAT     H224641   4.258   0.269   5.897
 5980WAT    EPW24642   4.244   0.339   5.864
 5981WAT      O24643   4.228   0.489   6.304
 5981WAT     H124644   4.291   0.439   6.338
 5981WAT     H224645   4.154   0.450   6.330
 5981WAT    EPW24646   4.226   0.476   6.313
 5982WAT      O24647   4.085   0.765   5.916
 5982WAT     H124648   4.133   0.785   5.846
 5982WAT     H224649   4.135   0.708   5.960
 5982WAT    EPW24650   4.100   0.760   5.912
 5983WAT      O24651   3.990   0.690   7.062
 5983WAT     H124652   4.015   0.669   7.143
 5983WAT     H224653   3.927   0.633   7.045
 5983WAT    EPW24654   3.984   0.679   7.072
 5984WAT      O24655   4.642   0.461   7.455
 5984WAT     H124656   4.639   0.413   7.528
 5984WAT     H224657   4.569   0.437   7.413
 5984WAT    EPW24658   4.630   0.450   7.460
 5985WAT      O24659   4.602   0.720   7.232
 5985WAT     H124660   4.580   0.799   7.203
 5985WAT     H224661   4.688   0.727   7.247
 5985WAT    EPW24662   4.612   0.732   7.230
 5986WAT      O24663   4.758   0.571   6.649
 5986WAT     H124664   4.778   0.493   6.683
 5986WAT     H224665   4.835   0.612   6.644
 5986WAT    EPW24666   4.772   0.565   6.653
 5987WAT      O24667   4.845   0.531   6.289
 5987WAT     H124668   4.850   0.459   6.337
 5987WAT     H224669   4.860   0.503   6.208
 5987WAT    EPW24670   4.848   0.516   6.284
 5988WAT      O24671   3.974   0.866   6.564
 5988WAT     H124672   3.912   0.913   6.525
 5988WAT     H224673   4.013   0.825   6.498
 5988WAT    EPW24674   3.971   0.867   6.549
 5989WAT      O24675   4.593   0.642   6.258
 5989WAT     H124676   4.557   0.619   6.334
 5989WAT     H224677   4.674   0.610   6.263
 5989WAT    EPW24678   4.600   0.634   6.270
 5990WAT      O24679   5.171   0.896   6.068
 5990WAT     H124680   5.241   0.949   6.070
 5990WAT     H224681   5.205   0.817   6.085
 5990WAT    EPW24682   5.187   0.892   6.071
 5991WAT      O24683   4.977   0.923   6.259
 5991WAT     H124684   4.996   0.997   6.301
 5991WAT     H224685   5.037   0.919   6.196
 5991WAT    EPW24686   4.988   0.933   6.256
 5992WAT      O24687   4.116   0.746   6.346
 5992WAT     H124688   4.167   0.675   6.352
 5992WAT     H224689   4.162   0.801   6.297
 5992WAT    EPW24690   4.130   0.743   6.340
 5993WAT      O24691   5.223   0.922   7.060
 5993WAT     H124692   5.292   0.974   7.055
 5993WAT     H224693   5.212   0.894   6.979
 5993WAT    EPW24694   5.231   0.926   7.048
 5994WAT      O24695   4.279   0.599   6.677
 5994WAT     H124696   4.348   0.593   6.625
 5994WAT     H224697   4.298   0.546   6.744
 5994WAT    EPW24698   4.292   0.590   6.679
 5995WAT      O24699   4.538   0.868   6.567
 5995WAT     H124700   4.617   0.895   6.542
 5995WAT     H224701   4.484   0.926   6.531
 5995WAT    EPW24702   4.542   0.881   6.558
 5996WAT      O24703   5.377   1.085   6.047
 5996WAT     H124704   5.426   1.061   5.978
 5996WAT     H224705   5.433   1.131   6.096
 5996WAT    EPW24706   5.393   1.088   6.044
 5997WAT      O24707   4.461   0.950   7.163
 5997WAT     H124708   4.467   0.971   7.247
 5997WAT     H224709   4.379   0.922   7.154
 5997WAT    EPW24710   4.450   0.949   7.174
 5998WAT      O24711   5.090   0.744   7.452
 5998WAT     H124712   5.072   0.672   7.497
 5998WAT     H224713   5.174   0.734   7.431
 5998WAT    EPW24714   5.100   0.732   7.456
 5999WAT      O24715   4.854   0.702   5.869
 5999WAT     H124716   4.825   0.764   5.924
 5999WAT     H224717   4.932   0.732   5.845
 5999WAT    EPW24718   4.861   0.716   5.874
 6000WAT      O24719   4.206   0.868   7.064
 6000WAT     H124720   4.141   0.810   7.065
 6000WAT     H224721   4.239   0.860   6.984
 6000WAT    EPW24722   4.201   0.858   7.053
 6001WAT      O24723   4.974   0.967   7.168
 6001WAT     H124724   5.054   0.957   7.135
 6001WAT     H224725   4.922   0.967   7.097
 6001WAT    EPW24726   4.978   0.966   7.153
 6002WAT      O24727   5.666   1.005   6.435
 6002WAT     H124728   5.629   1.082   6.454
 6002WAT     H224729   5.598   0.953   6.418
 6002WAT    EPW24730   5.650   1.009   6.436
 6003WAT      O24731   5.343   0.622   6.468
 6003WAT     H124732   5.377   0.541   6.468
 6003WAT     H224733   5.258   0.609   6.454
 6003WAT    EPW24734   5.335   0.608   6.466
 6004WAT      O24735   4.356   0.661   7.360
 6004WAT     H124736   4.431   0.686   7.324
 6004WAT     H224737   4.344   0.718   7.425
 6004WAT    EPW24738   4.365   0.673   7.364
 6005WAT      O24739   4.525   0.230   6.837
 6005WAT     H124740   4.548   0.239   6.921
 6005WAT     H224741   4.497   0.148   6.832
 6005WAT    EPW24742   4.524   0.219   6.849
 6006WAT      O24743   4.590   0.314   7.098
 6006WAT     H124744   4.587   0.397   7.070
 6006WAT     H224745   4.535   0.314   7.165
 6006WAT    EPW24746   4.582   0.327   7.103
 6007WAT      O24747   5.259   0.381   7.036
 6007WAT     H124748   5.200   0.333   7.079
 6007WAT     H224749   5.233   0.463   7.051
 6007WAT    EPW24750   5.246   0.386   7.044
 6008WAT      O24751   5.570   0.363   5.983
 6008WAT     H124752   5.566   0.324   6.061
 6008WAT     H224753   5.654   0.383   5.974
 6008WAT    EPW24754   5.582   0.360   5.993
 6009WAT      O24755   4.175   0.174   6.493
 6009WAT     H124756   4.255   0.204   6.477
 6009WAT     H224757   4.178   0.091   6.466
 6009WAT    EPW24758   4.187   0.166   6.486
 6010WAT      O24759   4.179   1.028   6.656
 6010WAT     H124760   4.106   0.989   6.627
 6010WAT     H224761   4.227   1.035   6.583
 6010WAT    EPW24762   4.175   1.023   6.641
 6011WAT      O24763   5.781   0.851   7.398
 6011WAT     H124764   5.722   0.834   7.336
 6011WAT     H224765   5.737   0.902   7.454
 6011WAT    EPW24766   5.765   0.856   7.397
 6012WAT      O24767   4.418   0.333   6.431
 6012WAT     H124768   4.454   0.401   6.471
 6012WAT     H224769   4.483   0.297   6.387
 6012WAT    EPW24770   4.433   0.337   6.430
 6013WAT      O24771   4.013   0.525   6.643
 6013WAT     H124772   3.963   0.583   6.686
 6013WAT     H224773   4.093   0.558   6.649
 6013WAT    EPW24774   4.017   0.539   6.650
 6014WAT      O24775   4.976   0.746   6.616
 6014WAT     H124776   4.925   0.812   6.592
 6014WAT     H224777   5.013   0.720   6.541
 6014WAT    EPW24778   4.974   0.752   6.601
 6015WAT      O24779   3.934   0.586   6.207
 6015WAT     H124780   3.990   0.642   6.244
 6015WAT     H224781   3.932   0.520   6.265
 6015WAT    EPW24782   3.942   0.584   6.221
 6016WAT      O24783   4.341   0.436   6.888
 6016WAT     H124784   4.396   0.486   6.934
 6016WAT     H224785   4.391   0.369   6.862
 6016WAT    EPW24786   4.356   0.434   6.891
 6017WAT      O24787   3.958   0.438   5.970
 6017WAT     H124788   4.042   0.419   5.954
 6017WAT     H224789   3.962   0.492   6.039
 6017WAT    EPW24790   3.971   0.443   5.977
 6018WAT      O24791   4.020   0.258   6.713
 6018WAT     H124792   4.075   0.223   6.655
 6018WAT     H224793   4.023   0.344   6.695
 6018WAT    EPW24794   4.029   0.266   6.702
 6019WAT      O24795   5.540   0.827   7.242
 6019WAT     H124796   5.505   0.907   7.250
 6019WAT     H224797   5.540   0.813   7.156
 6019WAT    EPW24798   5.535   0.837   7.230
 6020WAT      O24799   4.513   0.597   6.523
 6020WAT     H124800   4.510   0.684   6.531
 6020WAT     H224801   4.590   0.576   6.559
 6020WAT    EPW24802   4.524   0.607   6.529
 6021WAT      O24803   4.769   0.956   6.984
 6021WAT     H124804   4.734   0.887   6.944
 6021WAT     H224805   4.762   1.020   6.925
 6021WAT    EPW24806   4.763   0.955   6.969
 6022WAT      O24807   5.284   0.412   7.439
 6022WAT     H124808   5.315   0.492   7.425
 6022WAT     H224809   5.327   0.363   7.382
 6022WAT    EPW24810   5.295   0.417   7.429
 6023WAT      O24811   4.704   0.744   7.525
 6023WAT     H124812   4.727   0.728   7.608
 6023WAT     H224813   4.684   0.664   7.495
 6023WAT    EPW24814   4.705   0.730   7.533
 6024WAT      O24815   5.444   0.357   6.464
 6024WAT     H124816   5.511   0.334   6.516
 6024WAT     H224817   5.469   0.327   6.386
 6024WAT    EPW24818   5.458   0.349   6.461
 6025WAT      O24819   5.177   0.790   6.811
 6025WAT     H124820   5.113   0.774   6.754
 6025WAT     H224821   5.223   0.853   6.773
 6025WAT    EPW24822   5.174   0.797   6.797
 6026WAT      O24823   5.144   0.420   6.778
 6026WAT     H124824   5.074   0.464   6.805
 6026WAT     H224825   5.178   0.388   6.851
 6026WAT    EPW24826   5.139   0.422   6.792
 6027WAT      O24827   4.555   0.911   6.202
 6027WAT     H124828   4.566   0.832   6.237
 6027WAT     H224829   4.623   0.919   6.148
 6027WAT    EPW24830   4.567   0.900   6.199
 6028WAT      O24831   4.785   0.904   6.050
 6028WAT     H124832   4.844   0.913   6.113
 6028WAT     H224833   4.786   0.981   6.010
 6028WAT    EPW24834   4.794   0.917   6.053
 6029WAT      O24835   5.422   0.271   7.247
 6029WAT     H124836   5.398   0.305   7.170
 6029WAT     H224837   5.509   0.276   7.245
 6029WAT    EPW24838   5.431   0.277   7.235
 6030WAT      O24839   5.058   0.258   7.189
 6030WAT     H124840   5.009   0.315   7.234
 6030WAT     H224841   5.099   0.212   7.251
 6030WAT    EPW24842   5.057   0.260   7.205
 6031WAT      O24843   5.458   0.505   6.872
 6031WAT     H124844   5.414   0.524   6.799
 6031WAT     H224845   5.401   0.458   6.919
 6031WAT    EPW24846   5.443   0.501   6.868
 6032WAT      O24847   4.777   0.297   6.718
 6032WAT     H124848   4.695   0.275   6.738
 6032WAT     H224849   4.820   0.284   6.792
 6032WAT    EPW24850   4.771   0.292   6.732
 6033WAT      O24851   4.460   0.922   5.841
 6033WAT     H124852   4.488   0.854   5.888
 6033WAT     H224853   4.470   0.990   5.896
 6033WAT    EPW24854   4.466   0.922   5.856
 6034WAT      O24855   4.087   0.351   6.971
 6034WAT     H124856   4.164   0.386   6.951
 6034WAT     H224857   4.069   0.300   6.903
 6034WAT    EPW24858   4.095   0.349   6.958
 6035WAT      O24859   5.774   0.941   6.016
 6035WAT     H124860   5.834   0.888   5.981
 6035WAT     H224861   5.721   0.887   6.060
 6035WAT    EPW24862   5.775   0.926   6.017
 6036WAT      O24863   4.107   0.353   7.254
 6036WAT     H124864   4.103   0.350   7.167
 6036WAT     H224865   4.094   0.437   7.273
 6036WAT    EPW24866   4.105   0.365   7.244
 6037WAT      O24867   5.673   0.228   6.587
 6037WAT     H124868   5.634   0.159   6.622
 6037WAT     H224869   5.746   0.237   6.633
 6037WAT    EPW24870   5.678   0.219   6.599
 6038WAT      O24871   5.769   0.729   6.797
 6038WAT     H124872   5.795   0.784   6.734
 6038WAT     H224873   5.824   0.745   6.862
 6038WAT    EPW24874   5.781   0.740   6.797
 6039WAT      O24875   5.460   0.618   5.987
 6039WAT     H124876   5.490   0.536   5.987
 6039WAT     H224877   5.384   0.612   6.029
 6039WAT    EPW24878   5.453   0.605   5.993
 6040WAT      O24879   5.707   0.328   7.256
 6040WAT     H124880   5.793   0.316   7.263
 6040WAT     H224881   5.700   0.379   7.185
 6040WAT    EPW24882   5.719   0.334   7.246
 6041WAT      O24883   5.142   0.438   5.924
 6041WAT     H124884   5.203   0.377   5.906
 6041WAT     H224885   5.119   0.467   5.845
 6041WAT    EPW24886   5.148   0.433   5.910
 6042WAT      O24887   4.551   0.573   7.007
 6042WAT     H124888   4.564   0.617   7.082
 6042WAT     H224889   4.581   0.628   6.946
 6042WAT    EPW24890   4.558   0.588   7.009
 6043WAT      O24891   4.400   0.390   7.310
 6043WAT     H124892   4.322   0.351   7.302
 6043WAT     H224893   4.380   0.474   7.323
 6043WAT    EPW24894   4.385   0.396   7.311
 6044WAT      O24895   4.853   0.279   6.994
 6044WAT     H124896   4.915   0.254   7.051
 6044WAT     H224897   4.781   0.280   7.042
 6044WAT    EPW24898   4.852   0.275   7.010
 6045WAT      O24899   4.802   0.941   6.501
 6045WAT     H124900   4.802   1.027   6.515
 6045WAT     H224901   4.830   0.933   6.418
 6045WAT    EPW24902   4.806   0.952   6.490
 6046WAT      O24903   4.644   0.758   6.822
 6046WAT     H124904   4.597   0.801   6.762
 6046WAT     H224905   4.691   0.702   6.775
 6046WAT    EPW24906   4.644   0.756   6.806
 6047WAT      O24907   5.031   0.487   7.538
 6047WAT     H124908   5.109   0.452   7.520
 6047WAT     H224909   4.982   0.464   7.470
 6047WAT    EPW24910   5.036   0.479   7.525
 6048WAT      O24911   5.366   0.682   7.410
 6048WAT     H124912   5.408   0.699   7.485
 6048WAT     H224913   5.416   0.719   7.349
 6048WAT    EPW24914   5.379   0.690   7.412
 6049WAT      O24915   4.680   0.289   6.021
 6049WAT     H124916   4.628   0.324   5.961
 6049WAT     H224917   4.751   0.339   6.018
 6049WAT    EPW24918   4.683   0.301   6.012
 6050WAT      O24919   4.846   0.982   7.430
 6050WAT     H124920   4.887   0.973   7.354
 6050WAT     H224921   4.827   0.900   7.454
 6050WAT    EPW24922   4.849   0.969   7.422
 6051WAT      O24923   5.524   0.223   6.227
 6051WAT     H124924   5.585   0.165   6.252
 6051WAT     H224925   5.454   0.173   6.211
 6051WAT    EPW24926   5.523   0.207   6.228
 6052WAT      O24927   4.881   0.440   7.307
 6052WAT     H124928   4.802   0.436   7.345
 6052WAT     H224929   4.884   0.522   7.276
 6052WAT    EPW24930   4.870   0.451   7.308
 6053WAT      O24931   4.468   1.052   6.897
 6053WAT     H124932   4.474   1.030   6.982
 6053WAT     H224933   4.430   0.982   6.861
 6053WAT    EPW24934   4.463   1.038   6.905
 6054WAT      O24935   5.156   0.358   6.507
 6054WAT     H124936   5.152   0.377   6.591
 6054WAT     H224937   5.241   0.343   6.493
 6054WAT    EPW24938   5.168   0.359   6.517
 6055WAT      O24939   4.882   0.304   6.448
 6055WAT     H124940   4.851   0.296   6.529
 6055WAT     H224941   4.969   0.309   6.459
 6055WAT    EPW24942   4.891   0.303   6.461
 6056WAT      O24943   4.892   0.715   7.259
 6056WAT     H124944   4.949   0.721   7.324
 6056WAT     H224945   4.914   0.781   7.206
 6056WAT    EPW24946   4.904   0.726   7.261
 6057WAT      O24947   4.107   1.034   7.415
 6057WAT     H124948   4.047   0.971   7.407
 6057WAT     H224949   4.062   1.102   7.445
 6057WAT    EPW24950   4.092   1.034   7.418
 6058WAT      O24951   5.305   1.035   6.756
 6058WAT     H124952   5.246   1.094   6.780
 6058WAT     H224953   5.369   1.045   6.815
 6058WAT    EPW24954   5.306   1.045   6.768
 6059WAT      O24955   4.929   0.536   6.914
 6059WAT     H124956   4.901   0.462   6.951
 6059WAT     H224957   4.979   0.572   6.976
 6059WAT    EPW24958   4.932   0.530   6.929
 6060WAT      O24959   5.067   0.676   6.360
 6060WAT     H124960   5.044   0.754   6.330
 6060WAT     H224961   4.997   0.626   6.342
 6060WAT    EPW24962   5.053   0.680   6.353
 6061WAT      O24963   4.499   0.678   5.987
 6061WAT     H124964   4.542   0.670   6.062
 6061WAT     H224965   4.417   0.656   6.008
 6061WAT    EPW24966   4.493   0.673   6.001
 6062WAT      O24967   5.438   0.860   6.364
 6062WAT     H124968   5.411   0.786   6.401
 6062WAT     H224969   5.480   0.833   6.292
 6062WAT    EPW24970   5.440   0.845   6.359
 6063WAT      O24971   4.247   0.577   6.041
 6063WAT     H124972   4.243   0.550   6.124
 6063WAT     H224973   4.253   0.502   5.996
 6063WAT    EPW24974   4.247   0.562   6.047
 6064WAT      O24975   4.524   0.440   5.837
 6064WAT     H124976   4.440   0.418   5.843
 6064WAT     H224977   4.528   0.517   5.878
 6064WAT    EPW24978   4.512   0.448   5.844
 6065WAT      O24979   5.163   0.639   7.045
 6065WAT     H124980   5.187   0.703   7.098
 6065WAT     H224981   5.172   0.673   6.965
 6065WAT    EPW24982   5.168   0.653   7.041
 6066WAT      O24983   5.190   1.026   7.467
 6066WAT     H124984   5.133   0.960   7.477
 6066WAT     H224985   5.142   1.096   7.486
 6066WAT    EPW24986   5.174   1.026   7.471
 6067WAT      O24987   5.709   0.468   7.015
 6067WAT     H124988   5.774   0.428   6.973
 6067WAT     H224989   5.647   0.476   6.954
 6067WAT    EPW24990   5.709   0.464   7.000
 6068WAT      O24991   4.541   0.963   7.437
 6068WAT     H124992   4.598   1.029   7.441
 6068WAT     H224993   4.589   0.894   7.460
 6068WAT    EPW24994   4.557   0.963   7.441
 6069WAT      O24995   5.539   0.762   6.966
 6069WAT     H124996   5.606   0.768   6.911
 6069WAT     H224997   5.501   0.686   6.945
 6069WAT    EPW24998   5.543   0.752   6.955
 6070WAT      O24999   4.300   0.866   7.537
 6070WAT     H125000   4.374   0.910   7.523
 6070WAT     H225001   4.238   0.921   7.509
 6070WAT    EPW25002   4.302   0.881   7.531
 6071WAT      O25003   4.078   0.628   7.315
 6071WAT     H125004   4.032   0.685   7.363
 6071WAT     H225005   4.161   0.650   7.331
 6071WAT    EPW25006   4.083   0.640   7.324
 6072WAT      O25007   4.279   0.914   6.192
 6072WAT     H125008   4.249   0.942   6.115
 6072WAT     H225009   4.365   0.910   6.181
 6072WAT    EPW25010   4.287   0.918   6.179
 6073WAT      O25011   4.641   0.238   6.296
 6073WAT     H125012   4.654   0.248   6.210
 6073WAT     H225013   4.721   0.244   6.330
 6073WAT    EPW25014   4.655   0.241   6.288
 6074WAT      O25015   5.558   1.011   5.850
 6074WAT     H125016   5.630   0.994   5.896
 6074WAT     H225017   5.537   0.933   5.816
 6074WAT    EPW25018   5.565   0.997   5.852
 6075WAT      O25019   5.656   0.282   7.531
 6075WAT     H125020   5.731   0.240   7.547
 6075WAT     H225021   5.663   0.304   7.447
 6075WAT    EPW25022   5.668   0.279   7.521
 6076WAT      O25023   5.220   0.626   6.121
 6076WAT     H125024   5.177   0.619   6.197
 6076WAT     H225025   5.179   0.568   6.069
 6076WAT    EPW25026   5.208   0.616   6.124
 6077WAT      O25027   5.400   0.257   7.648
 6077WAT     H125028   5.483   0.262   7.619
 6077WAT     H225029   5.356   0.307   7.591
 6077WAT    EPW25030   5.406   0.265   7.635
 6078WAT      O25031   4.305   0.842   6.809
 6078WAT     H125032   4.299   0.767   6.766
 6078WAT     H225033   4.262   0.898   6.758
 6078WAT    EPW25034   4.297   0.839   6.795
 6079WAT      O25035   4.888   0.471   6.022
 6079WAT     H125036   4.966   0.445   5.994
 6079WAT     H225037   4.871   0.541   5.973
 6079WAT    EPW25038   4.897   0.478   6.011
 6080WAT      O25039   4.066   1.094   7.146
 6080WAT     H125040   4.078   1.076   7.230
 6080WAT     H225041   4.104   1.027   7.105
 6080WAT    EPW25042   4.073   1.081   7.152
 6081WAT      O25043   4.002   0.384   4.498
 6081WAT     H125044   3.996   0.427   4.574
 6081WAT     H225045   4.038   0.308   4.521
 6081WAT    EPW25046   4.006   0.379   4.513
 6082WAT      O25047   5.606   0.768   4.262
 6082WAT     H125048   5.665   0.710   4.290
 6082WAT     H225049   5.557   0.723   4.205
 6082WAT    EPW25050   5.607   0.753   4.258
 6083WAT      O25051   4.244   0.350   3.976
 6083WAT     H125052   4.208   0.339   3.897
 6083WAT     H225053   4.255   0.269   4.006
 6083WAT    EPW25054   4.240   0.337   3.969
 6084WAT      O25055   4.235   0.494   4.396
 6084WAT     H125056   4.298   0.443   4.430
 6084WAT     H225057   4.161   0.455   4.423
 6084WAT    EPW25058   4.233   0.481   4.405
 6085WAT      O25059   4.083   0.770   4.000
 6085WAT     H125060   4.133   0.788   3.931
 6085WAT     H225061   4.131   0.713   4.046
 6085WAT    EPW25062   4.097   0.764   3.997
 6086WAT      O25063   3.997   0.687   5.145
 6086WAT     H125064   4.028   0.664   5.223
 6086WAT     H225065   3.930   0.633   5.132
 6086WAT    EPW25066   3.991   0.676   5.154
 6087WAT      O25067   4.635   0.459   5.578
 6087WAT     H125068   4.608   0.447   5.659
 6087WAT     H225069   4.567   0.434   5.529
 6087WAT    EPW25070   4.621   0.454   5.583
 6088WAT      O25071   4.597   0.720   5.337
 6088WAT     H125072   4.579   0.802   5.311
 6088WAT     H225073   4.684   0.721   5.346
 6088WAT    EPW25074   4.607   0.732   5.335
 6089WAT      O25075   4.760   0.563   4.746
 6089WAT     H125076   4.781   0.486   4.781
 6089WAT     H225077   4.835   0.607   4.743
 6089WAT    EPW25078   4.774   0.558   4.751
 6090WAT      O25079   4.845   0.527   4.389
 6090WAT     H125080   4.850   0.455   4.437
 6090WAT     H225081   4.860   0.499   4.308
 6090WAT    EPW25082   4.848   0.513   4.384
 6091WAT      O25083   3.988   0.871   4.664
 6091WAT     H125084   3.926   0.917   4.624
 6091WAT     H225085   4.028   0.829   4.599
 6091WAT    EPW25086   3.985   0.871   4.649
 6092WAT      O25087   4.590   0.633   4.355
 6092WAT     H125088   4.554   0.610   4.432
 6092WAT     H225089   4.672   0.602   4.361
 6092WAT    EPW25090   4.597   0.625   4.367
 6093WAT      O25091   5.170   0.892   4.173
 6093WAT     H125092   5.238   0.947   4.177
 6093WAT     H225093   5.206   0.814   4.189
 6093WAT    EPW25094   5.185   0.888   4.176
 6094WAT      O25095   4.979   0.919   4.366
 6094WAT     H125096   4.998   0.992   4.408
 6094WAT     H225097   5.038   0.916   4.302
 6094WAT    EPW25098   4.990   0.929   4.363
 6095WAT      O25099   4.122   0.748   4.445
 6095WAT     H125100   4.174   0.678   4.449
 6095WAT     H225101   4.167   0.805   4.396
 6095WAT    EPW25102   4.136   0.746   4.439
 6096WAT      O25103   5.219   0.920   5.165
 6096WAT     H125104   5.290   0.969   5.156
 6096WAT     H225105   5.204   0.892   5.084
 6096WAT    EPW25106   5.227   0.923   5.152
 6097WAT      O25107   4.284   0.604   4.785
 6097WAT     H125108   4.353   0.594   4.732
 6097WAT     H225109   4.300   0.549   4.851
 6097WAT    EPW25110   4.297   0.595   4.787
 6098WAT      O25111   4.540   0.860   4.665
 6098WAT     H125112   4.620   0.890   4.643
 6098WAT     H225113   4.487   0.920   4.631
 6098WAT    EPW25114   4.544   0.873   4.657
 6099WAT      O25115   5.369   1.090   4.157
 6099WAT     H125116   5.418   1.058   4.093
 6099WAT     H225117   5.424   1.140   4.202
 6099WAT    EPW25118   5.384   1.093   4.155
 6100WAT      O25119   4.467   0.964   5.290
 6100WAT     H125120   4.470   0.970   5.377
 6100WAT     H225121   4.389   0.928   5.274
 6100WAT    EPW25122   4.456   0.960   5.301
 6101WAT      O25123   5.107   0.730   5.497
 6101WAT     H125124   5.088   0.680   5.566
 6101WAT     H225125   5.194   0.726   5.492
 6101WAT    EPW25126   5.117   0.722   5.507
 6102WAT      O25127   4.849   0.700   3.969
 6102WAT     H125128   4.821   0.759   4.027
 6102WAT     H225129   4.928   0.729   3.946
 6102WAT    EPW25130   4.857   0.713   3.974
 6103WAT      O25131   4.226   0.854   5.172
 6103WAT     H125132   4.156   0.802   5.166
 6103WAT     H225133   4.259   0.853   5.092
 6103WAT    EPW25134   4.220   0.846   5.159
 6104WAT      O25135   4.976   0.991   5.270
 6104WAT     H125136   5.055   0.972   5.239
 6104WAT     H225137   4.923   0.974   5.203
 6104WAT    EPW25138   4.980   0.986   5.256
 6105WAT      O25139   5.667   1.007   4.533
 6105WAT     H125140   5.629   1.083   4.551
 6105WAT     H225141   5.599   0.954   4.517
 6105WAT    EPW25142   5.651   1.010   4.533
 6106WAT      O25143   5.343   0.620   4.566
 6106WAT     H125144   5.375   0.539   4.567
 6106WAT     H225145   5.257   0.608   4.553
 6106WAT    EPW25146   5.335   0.606   4.564
 6107WAT      O25147   4.356   0.666   5.484
 6107WAT     H125148   4.432   0.697   5.452
 6107WAT     H225149   4.340   0.718   5.552
 6107WAT    EPW25150   4.365   0.679   5.489
 6108WAT      O25151   4.525   0.232   4.940
 6108WAT     H125152   4.547   0.240   5.024
 6108WAT     H225153   4.498   0.149   4.933
 6108WAT    EPW25154   4.525   0.221   4.951
 6109WAT      O25155   4.587   0.313   5.203
 6109WAT     H125156   4.581   0.396   5.177
 6109WAT     H225157   4.536   0.310   5.273
 6109WAT    EPW25158   4.579   0.324   5.210
 6110WAT      O25159   5.259   0.380   5.162
 6110WAT     H125160   5.197   0.335   5.204
 6110WAT     H225161   5.232   0.463   5.170
 6110WAT    EPW25162   5.246   0.386   5.169
 6111WAT      O25163   3.884   0.662   5.738
 6111WAT     H125164   3.942   0.669   5.803
 6111WAT     H225165   3.877   0.575   5.727
 6111WAT    EPW25166   3.892   0.650   5.746
 6112WAT      O25167   5.572   0.355   4.084
 6112WAT     H125168   5.568   0.315   4.162
 6112WAT     H225169   5.656   0.376   4.076
 6112WAT    EPW25170   5.583   0.352   4.095
 6113WAT      O25171   4.171   0.171   4.587
 6113WAT     H125172   4.252   0.200   4.572
 6113WAT     H225173   4.174   0.087   4.561
 6113WAT    EPW25174   4.184   0.163   4.581
 6114WAT      O25175   4.188   1.033   4.766
 6114WAT     H125176   4.115   0.993   4.738
 6114WAT     H225177   4.237   1.039   4.694
 6114WAT    EPW25178   4.184   1.028   4.751
 6115WAT      O25179   5.812   0.818   5.500
 6115WAT     H125180   5.738   0.822   5.453
 6115WAT     H225181   5.789   0.773   5.570
 6115WAT    EPW25182   5.798   0.812   5.503
 6116WAT      O25183   4.415   0.330   4.528
 6116WAT     H125184   4.451   0.397   4.570
 6116WAT     H225185   4.482   0.295   4.484
 6116WAT    EPW25186   4.430   0.335   4.528
 6117WAT      O25187   4.022   0.523   4.740
 6117WAT     H125188   3.970   0.580   4.781
 6117WAT     H225189   4.101   0.557   4.750
 6117WAT    EPW25190   4.026   0.536   4.748
 6118WAT      O25191   4.975   0.741   4.719
 6118WAT     H125192   4.925   0.809   4.696
 6118WAT     H225193   5.013   0.716   4.644
 6118WAT    EPW25194   4.973   0.747   4.704
 6119WAT      O25195   3.934   0.589   4.315
 6119WAT     H125196   3.990   0.645   4.352
 6119WAT     H225197   3.933   0.522   4.371
 6119WAT    EPW25198   3.942   0.587   4.329
 6120WAT      O25199   4.335   0.433   4.993
 6120WAT     H125200   4.388   0.482   5.041
 6120WAT     H225201   4.386   0.367   4.965
 6120WAT    EPW25202   4.350   0.430   4.996
 6121WAT      O25203   3.956   0.449   4.073
 6121WAT     H125204   4.040   0.428   4.059
 6121WAT     H225205   3.960   0.500   4.144
 6121WAT    EPW25206   3.969   0.453   4.082
 6122WAT      O25207   4.020   0.256   4.814
 6122WAT     H125208   4.072   0.219   4.755
 6122WAT     H225209   4.025   0.341   4.795
 6122WAT    EPW25210   4.028   0.263   4.802
 6123WAT      O25211   5.564   0.833   5.360
 6123WAT     H125212   5.520   0.908   5.369
 6123WAT     H225213   5.561   0.818   5.274
 6123WAT    EPW25214   5.557   0.842   5.349
 6124WAT      O25215   4.514   0.590   4.622
 6124WAT     H125216   4.512   0.677   4.629
 6124WAT     H225217   4.591   0.568   4.657
 6124WAT    EPW25218   4.525   0.600   4.628
 6125WAT      O25219   4.791   0.918   5.077
 6125WAT     H125220   4.749   0.855   5.034
 6125WAT     H225221   4.779   0.989   5.028
 6125WAT    EPW25222   4.783   0.919   5.064
 6126WAT      O25223   5.334   0.416   5.587
 6126WAT     H125224   5.359   0.496   5.564
 6126WAT     H225225   5.362   0.367   5.520
 6126WAT    EPW25226   5.342   0.420   5.574
 6127WAT      O25227   4.732   0.728   5.620
 6127WAT     H125228   4.765   0.717   5.700
 6127WAT     H225229   4.701   0.649   5.600
 6127WAT    EPW25230   4.732   0.714   5.629
 6128WAT      O25231   5.444   0.354   4.563
 6128WAT     H125232   5.510   0.332   4.616
 6128WAT     H225233   5.468   0.324   4.485
 6128WAT    EPW25234   5.457   0.346   4.560
 6129WAT      O25235   5.174   0.789   4.915
 6129WAT     H125236   5.110   0.772   4.858
 6129WAT     H225237   5.218   0.854   4.877
 6129WAT    EPW25238   5.171   0.796   4.901
 6130WAT      O25239   5.160   0.415   4.890
 6130WAT     H125240   5.088   0.459   4.913
 6130WAT     H225241   5.187   0.379   4.965
 6130WAT    EPW25242   5.153   0.416   4.905
 6131WAT      O25243   4.557   0.904   4.307
 6131WAT     H125244   4.565   0.823   4.340
 6131WAT     H225245   4.625   0.911   4.253
 6131WAT    EPW25246   4.568   0.893   4.304
 6132WAT      O25247   4.788   0.896   4.157
 6132WAT     H125248   4.847   0.904   4.221
 6132WAT     H225249   4.789   0.973   4.118
 6132WAT    EPW25250   4.797   0.908   4.161
 6133WAT      O25251   5.433   0.275   5.372
 6133WAT     H125252   5.402   0.308   5.297
 6133WAT     H225253   5.519   0.287   5.365
 6133WAT    EPW25254   5.441   0.282   5.360
 6134WAT      O25255   5.097   0.822   5.810
 6134WAT     H125256   5.123   0.855   5.887
 6134WAT     H225257   5.131   0.877   5.752
 6134WAT    EPW25258   5.106   0.835   5.813
 6135WAT      O25259   5.045   0.262   5.305
 6135WAT     H125260   5.000   0.317   5.356
 6135WAT     H225261   5.071   0.200   5.361
 6135WAT    EPW25262   5.042   0.261   5.321
 6136WAT      O25263   5.456   0.505   4.994
 6136WAT     H125264   5.410   0.521   4.921
 6136WAT     H225265   5.402   0.458   5.043
 6136WAT    EPW25266   5.441   0.501   4.990
 6137WAT      O25267   4.780   0.292   4.821
 6137WAT     H125268   4.697   0.273   4.841
 6137WAT     H225269   4.823   0.281   4.896
 6137WAT    EPW25270   4.774   0.288   4.835
 6138WAT      O25271   4.459   0.917   3.935
 6138WAT     H125272   4.487   0.847   3.980
 6138WAT     H225273   4.472   0.983   3.991
 6138WAT    EPW25274   4.465   0.917   3.950
 6139WAT      O25275   4.080   0.343   5.075
 6139WAT     H125276   4.156   0.381   5.056
 6139WAT     H225277   4.063   0.294   5.005
 6139WAT    EPW25278   4.089   0.342   5.062
 6140WAT      O25279   5.780   0.930   4.124
 6140WAT     H125280   5.838   0.877   4.086
 6140WAT     H225281   5.730   0.876   4.170
 6140WAT    EPW25282   5.781   0.914   4.125
 6141WAT      O25283   4.108   0.347   5.357
 6141WAT     H125284   4.102   0.338   5.271
 6141WAT     H225285   4.100   0.433   5.370
 6141WAT    EPW25286   4.106   0.359   5.346
 6142WAT      O25287   5.680   0.224   4.675
 6142WAT     H125288   5.648   0.146   4.698
 6142WAT     H225289   5.749   0.234   4.727
 6142WAT    EPW25290   5.686   0.214   4.686
 6143WAT      O25291   5.767   0.728   4.894
 6143WAT     H125292   5.792   0.784   4.832
 6143WAT     H225293   5.825   0.742   4.958
 6143WAT    EPW25294   5.779   0.738   4.895
 6144WAT      O25295   5.461   0.609   4.093
 6144WAT     H125296   5.490   0.527   4.093
 6144WAT     H225297   5.385   0.604   4.135
 6144WAT    EPW25298   5.454   0.596   4.099
 6145WAT      O25299   5.713   0.346   5.378
 6145WAT     H125300   5.797   0.322   5.381
 6145WAT     H225301   5.708   0.392   5.305
 6145WAT    EPW25302   5.725   0.349   5.368
 6146WAT      O25303   5.141   0.429   4.029
 6146WAT     H125304   5.202   0.370   4.012
 6146WAT     H225305   5.118   0.459   3.950
 6146WAT    EPW25306   5.146   0.425   4.015
 6147WAT      O25307   4.542   0.570   5.115
 6147WAT     H125308   4.554   0.617   5.188
 6147WAT     H225309   4.572   0.623   5.053
 6147WAT    EPW25310   4.548   0.585   5.117
 6148WAT      O25311   4.396   0.394   5.420
 6148WAT     H125312   4.317   0.360   5.405
 6148WAT     H225313   4.379   0.479   5.436
 6148WAT    EPW25314   4.382   0.402   5.421
 6149WAT      O25315   4.851   0.282   5.102
 6149WAT     H125316   4.910   0.260   5.162
 6149WAT     H225317   4.776   0.283   5.147
 6149WAT    EPW25318   4.849   0.279   5.118
 6150WAT      O25319   4.804   0.940   4.607
 6150WAT     H125320   4.807   1.026   4.625
 6150WAT     H225321   4.833   0.935   4.525
 6150WAT    EPW25322   4.808   0.952   4.598
 6151WAT      O25323   4.636   0.742   4.919
 6151WAT     H125324   4.591   0.789   4.861
 6151WAT     H225325   4.683   0.688   4.870
 6151WAT    EPW25326   4.637   0.741   4.904
 6152WAT      O25327   5.075   0.497   5.659
 6152WAT     H125328   5.150   0.465   5.627
 6152WAT     H225329   5.015   0.471   5.601
 6152WAT    EPW25330   5.077   0.488   5.645
 6153WAT      O25331   5.385   0.683   5.516
 6153WAT     H125332   5.413   0.713   5.593
 6153WAT     H225333   5.440   0.720   5.459
 6153WAT    EPW25334   5.397   0.693   5.519
 6154WAT      O25335   4.676   0.288   4.118
 6154WAT     H125336   4.624   0.322   4.056
 6154WAT     H225337   4.747   0.338   4.115
 6154WAT    EPW25338   4.679   0.300   4.108
 6155WAT      O25339   4.872   0.961   5.529
 6155WAT     H125340   4.903   0.955   5.447
 6155WAT     H225341   4.844   0.880   5.546
 6155WAT    EPW25342   4.872   0.948   5.519
 6156WAT      O25343   5.528   0.216   4.329
 6156WAT     H125344   5.591   0.163   4.356
 6156WAT     H225345   5.460   0.163   4.315
 6156WAT    EPW25346   5.527   0.201   4.331
 6157WAT      O25347   4.889   0.441   5.453
 6157WAT     H125348   4.811   0.435   5.492
 6157WAT     H225349   4.884   0.517   5.409
 6157WAT    EPW25350   4.877   0.452   5.452
 6158WAT      O25351   4.472   1.065   5.017
 6158WAT     H125352   4.477   1.047   5.102
 6158WAT     H225353   4.437   0.993   4.983
 6158WAT    EPW25354   4.467   1.052   5.024
 6159WAT      O25355   5.158   0.354   4.616
 6159WAT     H125356   5.158   0.372   4.701
 6159WAT     H225357   5.242   0.340   4.598
 6159WAT    EPW25358   5.170   0.355   4.626
 6160WAT      O25359   4.885   0.301   4.549
 6160WAT     H125360   4.852   0.292   4.629
 6160WAT     H225361   4.971   0.307   4.562
 6160WAT    EPW25362   4.893   0.300   4.562
 6161WAT      O25363   4.884   0.697   5.329
 6161WAT     H125364   4.954   0.716   5.378
 6161WAT     H225365   4.897   0.743   5.256
 6161WAT    EPW25366   4.896   0.707   5.325
 6162WAT      O25367   4.096   1.021   5.538
 6162WAT     H125368   4.042   0.953   5.528
 6162WAT     H225369   4.042   1.089   5.545
 6162WAT    EPW25370   4.080   1.021   5.538
 6163WAT      O25371   5.296   1.036   4.855
 6163WAT     H125372   5.236   1.095   4.878
 6163WAT     H225373   5.359   1.045   4.914
 6163WAT    EPW25374   5.297   1.046   4.867
 6164WAT      O25375   4.937   0.531   5.012
 6164WAT     H125376   4.904   0.460   5.050
 6164WAT     H225377   4.986   0.567   5.074
 6164WAT    EPW25378   4.939   0.526   5.027
 6165WAT      O25379   5.504   0.758   5.755
 6165WAT     H125380   5.585   0.729   5.742
 6165WAT     H225381   5.476   0.714   5.825
 6165WAT    EPW25382   5.512   0.748   5.763
 6166WAT      O25383   5.066   0.670   4.463
 6166WAT     H125384   5.045   0.750   4.434
 6166WAT     H225385   4.996   0.622   4.444
 6166WAT    EPW25386   5.053   0.675   4.456
 6167WAT      O25387   4.499   0.674   4.082
 6167WAT     H125388   4.541   0.666   4.158
 6167WAT     H225389   4.416   0.656   4.103
 6167WAT    EPW25390   4.493   0.670   4.097
 6168WAT      O25391   5.439   0.860   4.466
 6168WAT     H125392   5.411   0.786   4.503
 6168WAT     H225393   5.481   0.832   4.395
 6168WAT    EPW25394   5.441   0.845   4.461
 6169WAT      O25395   4.244   0.582   4.133
 6169WAT     H125396   4.242   0.557   4.216
 6169WAT     H225397   4.250   0.507   4.089
 6169WAT    EPW25398   4.244   0.567   4.139
 6170WAT      O25399   4.521   0.437   3.932
 6170WAT     H125400   4.437   0.414   3.939
 6170WAT     H225401   4.525   0.514   3.973
 6170WAT    EPW25402   4.509   0.445   3.939
 6171WAT      O25403   5.162   0.638   5.150
 6171WAT     H125404   5.185   0.703   5.203
 6171WAT     H225405   5.174   0.671   5.070
 6171WAT    EPW25406   5.167   0.652   5.146
 6172WAT      O25407   5.182   0.997   5.598
 6172WAT     H125408   5.125   0.945   5.557
 6172WAT     H225409   5.137   1.071   5.609
 6172WAT    EPW25410   5.167   1.000   5.594
 6173WAT      O25411   5.709   0.468   5.129
 6173WAT     H125412   5.774   0.427   5.087
 6173WAT     H225413   5.646   0.475   5.069
 6173WAT    EPW25414   5.710   0.463   5.114
 6174WAT      O25415   4.535   0.928   5.566
 6174WAT     H125416   4.516   0.944   5.650
 6174WAT     H225417   4.598   0.868   5.571
 6174WAT    EPW25418   4.541   0.921   5.579
 6175WAT      O25419   5.550   0.760   5.085
 6175WAT     H125420   5.611   0.768   5.023
 6175WAT     H225421   5.509   0.686   5.065
 6175WAT    EPW25422   5.553   0.750   5.073
 6176WAT      O25423   4.244   0.829   5.695
 6176WAT     H125424   4.311   0.865   5.737
 6176WAT     H225425   4.207   0.896   5.653
 6176WAT    EPW25426   4.248   0.845   5.695
 6177WAT      O25427   4.096   0.622   5.392
 6177WAT     H125428   4.043   0.677   5.434
 6177WAT     H225429   4.175   0.648   5.417
 6177WAT    EPW25430   4.100   0.634   5.402
 6178WAT      O25431   4.282   0.920   4.293
 6178WAT     H125432   4.258   0.948   4.214
 6178WAT     H225433   4.369   0.911   4.286
 6178WAT    EPW25434   4.291   0.923   4.280
 6179WAT      O25435   4.640   0.238   4.394
 6179WAT     H125436   4.652   0.247   4.308
 6179WAT     H225437   4.721   0.243   4.426
 6179WAT    EPW25438   4.654   0.240   4.386
 6180WAT      O25439   5.549   0.984   3.977
 6180WAT     H125440   5.624   0.968   4.018
 6180WAT     H225441   5.530   0.909   3.937
 6180WAT    EPW25442   5.557   0.971   3.977
 6181WAT      O25443   5.705   0.405   5.653
 6181WAT     H125444   5.645   0.350   5.684
 6181WAT     H225445   5.703   0.392   5.566
 6181WAT    EPW25446   5.696   0.395   5.644
 6182WAT      O25447   5.220   0.620   4.224
 6182WAT     H125448   5.177   0.614   4.300
 6182WAT     H225449   5.179   0.561   4.173
 6182WAT    EPW25450   5.207   0.610   4.227
 6183WAT      O25451   5.350   0.276   5.833
 6183WAT     H125452   5.424   0.303   5.872
 6183WAT     H225453   5.352   0.317   5.755
 6183WAT    EPW25454   5.361   0.286   5.827
 6184WAT      O25455   4.322   0.849   4.915
 6184WAT     H125456   4.313   0.774   4.873
 6184WAT     H225457   4.277   0.906   4.867
 6184WAT    EPW25458   4.314   0.847   4.902
 6185WAT      O25459   4.885   0.469   4.122
 6185WAT     H125460   4.963   0.442   4.095
 6185WAT     H225461   4.869   0.538   4.072
 6185WAT    EPW25462   4.894   0.475   4.110
 6186WAT      O25463   4.087   1.078   5.260
 6186WAT     H125464   4.088   1.056   5.344
 6186WAT     H225465   4.128   1.011   5.221
 6186WAT    EPW25466   4.093   1.065   5.267
 6187WAT      O25467   3.969   0.408   2.606
 6187WAT     H125468   3.979   0.452   2.680
 6187WAT     H225469   3.943   0.329   2.632
 6187WAT    EPW25470   3.967   0.403   2.620
 6188WAT      O25471   5.612   0.771   2.344
 6188WAT     H125472   5.670   0.713   2.373
 6188WAT     H225473   5.562   0.725   2.289
 6188WAT    EPW25474   5.613   0.756   2.340
 6189WAT      O25475   4.239   0.355   2.067
 6189WAT     H125476   4.205   0.349   1.988
 6189WAT     H225477   4.246   0.272   2.093
 6189WAT    EPW25478   4.235   0.342   2.059
 6190WAT      O25479   4.220   0.483   2.497
 6190WAT     H125480   4.283   0.433   2.531
 6190WAT     H225481   4.146   0.445   2.526
 6190WAT    EPW25482   4.218   0.470   2.507
 6191WAT      O25483   4.079   0.769   2.101
 6191WAT     H125484   4.130   0.785   2.032
 6191WAT     H225485   4.126   0.712   2.148
 6191WAT    EPW25486   4.094   0.763   2.097
 6192WAT      O25487   3.994   0.702   3.242
 6192WAT     H125488   4.029   0.679   3.319
 6192WAT     H225489   3.928   0.646   3.232
 6192WAT    EPW25490   3.989   0.690   3.252
 6193WAT      O25491   4.632   0.462   3.674
 6193WAT     H125492   4.604   0.447   3.755
 6193WAT     H225493   4.563   0.441   3.624
 6193WAT    EPW25494   4.618   0.457   3.678
 6194WAT      O25495   4.620   0.755   3.421
 6194WAT     H125496   4.627   0.829   3.375
 6194WAT     H225497   4.703   0.734   3.439
 6194WAT    EPW25498   4.633   0.763   3.417
 6195WAT      O25499   4.751   0.558   2.846
 6195WAT     H125500   4.772   0.480   2.880
 6195WAT     H225501   4.827   0.599   2.839
 6195WAT    EPW25502   4.765   0.552   2.850
 6196WAT      O25503   4.843   0.527   2.487
 6196WAT     H125504   4.849   0.454   2.536
 6196WAT     H225505   4.858   0.498   2.406
 6196WAT    EPW25506   4.846   0.512   2.482
 6197WAT      O25507   3.973   0.870   2.751
 6197WAT     H125508   3.916   0.920   2.707
 6197WAT     H225509   4.015   0.826   2.689
 6197WAT    EPW25510   3.970   0.871   2.735
 6198WAT      O25511   4.588   0.631   2.455
 6198WAT     H125512   4.551   0.607   2.530
 6198WAT     H225513   4.669   0.600   2.462
 6198WAT    EPW25514   4.595   0.623   2.467
 6199WAT      O25515   5.171   0.899   2.269
 6199WAT     H125516   5.240   0.952   2.270
 6199WAT     H225517   5.205   0.820   2.284
 6199WAT    EPW25518   5.186   0.895   2.271
 6200WAT      O25519   4.978   0.918   2.462
 6200WAT     H125520   4.997   0.991   2.507
 6200WAT     H225521   5.038   0.917   2.399
 6200WAT    EPW25522   4.990   0.929   2.460
 6201WAT      O25523   4.124   0.747   2.544
 6201WAT     H125524   4.171   0.673   2.547
 6201WAT     H225525   4.172   0.799   2.494
 6201WAT    EPW25526   4.138   0.743   2.537
 6202WAT      O25527   5.218   0.914   3.257
 6202WAT     H125528   5.292   0.960   3.257
 6202WAT     H225529   5.209   0.889   3.174
 6202WAT    EPW25530   5.227   0.917   3.245
 6203WAT      O25531   4.286   0.619   2.898
 6203WAT     H125532   4.351   0.604   2.841
 6203WAT     H225533   4.301   0.562   2.962
 6203WAT    EPW25534   4.298   0.608   2.899
 6204WAT      O25535   4.537   0.859   2.763
 6204WAT     H125536   4.617   0.884   2.739
 6204WAT     H225537   4.484   0.919   2.726
 6204WAT    EPW25538   4.541   0.872   2.754
 6205WAT      O25539   5.374   1.091   2.245
 6205WAT     H125540   5.421   1.065   2.177
 6205WAT     H225541   5.432   1.135   2.294
 6205WAT    EPW25542   5.390   1.094   2.242
 6206WAT      O25543   4.441   1.006   3.397
 6206WAT     H125544   4.461   0.988   3.480
 6206WAT     H225545   4.369   0.958   3.383
 6206WAT    EPW25546   4.433   0.996   3.407
 6207WAT      O25547   5.106   0.736   3.613
 6207WAT     H125548   5.088   0.689   3.684
 6207WAT     H225549   5.192   0.730   3.605
 6207WAT    EPW25550   5.116   0.728   3.622
 6208WAT      O25551   4.854   0.701   2.067
 6208WAT     H125552   4.826   0.762   2.124
 6208WAT     H225553   4.932   0.731   2.043
 6208WAT    EPW25554   4.861   0.715   2.072
 6209WAT      O25555   4.201   0.892   3.271
 6209WAT     H125556   4.135   0.835   3.264
 6209WAT     H225557   4.241   0.885   3.194
 6209WAT    EPW25558   4.197   0.883   3.259
 6210WAT      O25559   4.973   0.989   3.363
 6210WAT     H125560   5.050   0.968   3.328
 6210WAT     H225561   4.916   0.966   3.302
 6210WAT    EPW25562   4.976   0.983   3.349
 6211WAT      O25563   5.665   1.000   2.631
 6211WAT     H125564   5.626   1.076   2.651
 6211WAT     H225565   5.598   0.947   2.611
 6211WAT    EPW25566   5.649   1.003   2.631
 6212WAT      O25567   5.344   0.617   2.652
 6212WAT     H125568   5.376   0.536   2.659
 6212WAT     H225569   5.258   0.605   2.643
 6212WAT    EPW25570   5.336   0.604   2.652
 6213WAT      O25571   4.367   0.694   3.555
 6213WAT     H125572   4.442   0.727   3.525
 6213WAT     H225573   4.352   0.740   3.628
 6213WAT    EPW25574   4.376   0.706   3.562
 6214WAT      O25575   4.521   0.241   3.040
 6214WAT     H125576   4.544   0.247   3.124
 6214WAT     H225577   4.487   0.160   3.034
 6214WAT    EPW25578   4.519   0.230   3.052
 6215WAT      O25579   4.588   0.323   3.302
 6215WAT     H125580   4.584   0.406   3.277
 6215WAT     H225581   4.536   0.320   3.372
 6215WAT    EPW25582   4.580   0.335   3.308
 6216WAT      O25583   5.256   0.385   3.267
 6216WAT     H125584   5.196   0.336   3.308
 6216WAT     H225585   5.225   0.466   3.276
 6216WAT    EPW25586   5.242   0.390   3.274
 6217WAT      O25587   3.883   0.671   3.819
 6217WAT     H125588   3.940   0.677   3.885
 6217WAT     H225589   3.875   0.586   3.806
 6217WAT    EPW25590   3.890   0.660   3.827
 6218WAT      O25591   5.571   0.361   2.179
 6218WAT     H125592   5.569   0.322   2.257
 6218WAT     H225593   5.655   0.383   2.170
 6218WAT    EPW25594   5.583   0.359   2.189
 6219WAT      O25595   4.197   0.155   2.719
 6219WAT     H125596   4.269   0.192   2.686
 6219WAT     H225597   4.194   0.077   2.680
 6219WAT    EPW25598   4.207   0.149   2.709
 6220WAT      O25599   4.178   1.024   2.848
 6220WAT     H125600   4.107   0.981   2.819
 6220WAT     H225601   4.229   1.028   2.778
 6220WAT    EPW25602   4.175   1.018   2.833
 6221WAT      O25603   5.808   0.814   3.596
 6221WAT     H125604   5.731   0.829   3.558
 6221WAT     H225605   5.787   0.770   3.668
 6221WAT    EPW25606   5.794   0.809   3.601
 6222WAT      O25607   4.413   0.330   2.624
 6222WAT     H125608   4.447   0.399   2.666
 6222WAT     H225609   4.481   0.296   2.582
 6222WAT    EPW25610   4.428   0.335   2.624
 6223WAT      O25611   4.025   0.535   2.846
 6223WAT     H125612   3.972   0.591   2.887
 6223WAT     H225613   4.104   0.570   2.858
 6223WAT    EPW25614   4.029   0.548   2.854
 6224WAT      O25615   4.970   0.728   2.812
 6224WAT     H125616   4.921   0.796   2.789
 6224WAT     H225617   5.009   0.705   2.738
 6224WAT    EPW25618   4.968   0.735   2.798
 6225WAT      O25619   3.931   0.601   2.408
 6225WAT     H125620   3.990   0.655   2.443
 6225WAT     H225621   3.924   0.537   2.467
 6225WAT    EPW25622   3.939   0.600   2.422
 6226WAT      O25623   4.335   0.443   3.101
 6226WAT     H125624   4.389   0.490   3.150
 6226WAT     H225625   4.385   0.378   3.072
 6226WAT    EPW25626   4.351   0.440   3.104
 6227WAT      O25627   3.951   0.446   2.175
 6227WAT     H125628   4.034   0.430   2.156
 6227WAT     H225629   3.956   0.501   2.243
 6227WAT    EPW25630   3.964   0.452   2.182
 6228WAT      O25631   4.028   0.265   2.913
 6228WAT     H125632   4.084   0.226   2.859
 6228WAT     H225633   4.037   0.350   2.894
 6228WAT    EPW25634   4.037   0.272   2.902
 6229WAT      O25635   5.550   0.864   3.474
 6229WAT     H125636   5.510   0.933   3.508
 6229WAT     H225637   5.542   0.876   3.388
 6229WAT    EPW25638   5.543   0.876   3.466
 6230WAT      O25639   4.506   0.589   2.722
 6230WAT     H125640   4.506   0.676   2.727
 6230WAT     H225641   4.582   0.566   2.757
 6230WAT    EPW25642   4.517   0.599   2.728
 6231WAT      O25643   4.754   0.925   3.199
 6231WAT     H125644   4.727   0.862   3.145
 6231WAT     H225645   4.743   0.998   3.153
 6231WAT    EPW25646   4.749   0.927   3.184
 6232WAT      O25647   5.336   0.417   3.688
 6232WAT     H125648   5.359   0.497   3.665
 6232WAT     H225649   5.363   0.367   3.622
 6232WAT    EPW25650   5.343   0.421   3.675
 6233WAT      O25651   4.728   0.728   3.718
 6233WAT     H125652   4.761   0.719   3.798
 6233WAT     H225653   4.697   0.649   3.699
 6233WAT    EPW25654   4.728   0.715   3.727
 6234WAT      O25655   5.444   0.352   2.661
 6234WAT     H125656   5.511   0.330   2.713
 6234WAT     H225657   5.469   0.323   2.583
 6234WAT    EPW25658   5.458   0.344   2.657
 6235WAT      O25659   5.165   0.768   3.011
 6235WAT     H125660   5.100   0.753   2.953
 6235WAT     H225661   5.217   0.823   2.968
 6235WAT    EPW25662   5.163   0.774   2.996
 6236WAT      O25663   5.165   0.411   2.989
 6236WAT     H125664   5.091   0.452   3.009
 6236WAT     H225665   5.189   0.375   3.065
 6236WAT    EPW25666   5.158   0.412   3.003
 6237WAT      O25667   4.562   0.903   2.409
 6237WAT     H125668   4.570   0.822   2.440
 6237WAT     H225669   4.629   0.909   2.353
 6237WAT    EPW25670   4.573   0.892   2.406
 6238WAT      O25671   4.789   0.899   2.253
 6238WAT     H125672   4.847   0.906   2.317
 6238WAT     H225673   4.790   0.977   2.214
 6238WAT    EPW25674   4.798   0.911   2.256
 6239WAT      O25675   5.435   0.278   3.472
 6239WAT     H125676   5.401   0.312   3.398
 6239WAT     H225677   5.520   0.292   3.463
 6239WAT    EPW25678   5.442   0.285   3.460
 6240WAT      O25679   5.093   0.820   3.916
 6240WAT     H125680   5.119   0.849   3.993
 6240WAT     H225681   5.121   0.881   3.860
 6240WAT    EPW25682   5.101   0.833   3.919
 6241WAT      O25683   5.044   0.256   3.403
 6241WAT     H125684   4.999   0.308   3.458
 6241WAT     H225685   5.068   0.189   3.454
 6241WAT    EPW25686   5.041   0.254   3.419
 6242WAT      O25687   5.440   0.511   3.083
 6242WAT     H125688   5.387   0.508   3.013
 6242WAT     H225689   5.395   0.469   3.145
 6242WAT    EPW25690   5.425   0.505   3.082
 6243WAT      O25691   4.776   0.287   2.919
 6243WAT     H125692   4.693   0.270   2.940
 6243WAT     H225693   4.819   0.274   2.994
 6243WAT    EPW25694   4.770   0.283   2.933
 6244WAT      O25695   4.461   0.916   2.035
 6244WAT     H125696   4.487   0.846   2.079
 6244WAT     H225697   4.474   0.982   2.091
 6244WAT    EPW25698   4.467   0.916   2.050
 6245WAT      O25699   4.078   0.357   3.174
 6245WAT     H125700   4.156   0.392   3.156
 6245WAT     H225701   4.063   0.305   3.105
 6245WAT    EPW25702   4.087   0.354   3.161
 6246WAT      O25703   5.775   0.948   2.211
 6246WAT     H125704   5.839   0.898   2.178
 6246WAT     H225705   5.724   0.891   2.253
 6246WAT    EPW25706   5.777   0.932   2.212
 6247WAT      O25707   4.113   0.366   3.455
 6247WAT     H125708   4.105   0.357   3.369
 6247WAT     H225709   4.102   0.452   3.467
 6247WAT    EPW25710   4.110   0.378   3.444
 6248WAT      O25711   5.679   0.225   2.776
 6248WAT     H125712   5.646   0.148   2.801
 6248WAT     H225713   5.750   0.234   2.826
 6248WAT    EPW25714   5.684   0.215   2.787
 6249WAT      O25715   5.761   0.723   2.977
 6249WAT     H125716   5.793   0.777   2.917
 6249WAT     H225717   5.811   0.739   3.048
 6249WAT    EPW25718   5.773   0.733   2.979
 6250WAT      O25719   5.459   0.615   2.182
 6250WAT     H125720   5.488   0.533   2.182
 6250WAT     H225721   5.383   0.611   2.225
 6250WAT    EPW25722   5.452   0.602   2.188
 6251WAT      O25723   5.712   0.355   3.469
 6251WAT     H125724   5.796   0.333   3.471
 6251WAT     H225725   5.705   0.402   3.395
 6251WAT    EPW25726   5.724   0.359   3.458
 6252WAT      O25727   5.141   0.438   2.123
 6252WAT     H125728   5.202   0.378   2.106
 6252WAT     H225729   5.119   0.469   2.045
 6252WAT    EPW25730   5.147   0.434   2.109
 6253WAT      O25731   4.544   0.583   3.220
 6253WAT     H125732   4.560   0.634   3.289
 6253WAT     H225733   4.573   0.631   3.153
 6253WAT    EPW25734   4.551   0.598   3.220
 6254WAT      O25735   4.398   0.415   3.512
 6254WAT     H125736   4.317   0.383   3.500
 6254WAT     H225737   4.384   0.501   3.521
 6254WAT    EPW25738   4.384   0.423   3.511
 6255WAT      O25739   4.849   0.276   3.201
 6255WAT     H125740   4.908   0.255   3.262
 6255WAT     H225741   4.774   0.282   3.246
 6255WAT    EPW25742   4.846   0.274   3.217
 6256WAT      O25743   4.802   0.928   2.704
 6256WAT     H125744   4.801   1.013   2.724
 6256WAT     H225745   4.830   0.927   2.621
 6256WAT    EPW25746   4.806   0.940   2.694
 6257WAT      O25747   4.636   0.746   3.015
 6257WAT     H125748   4.591   0.792   2.955
 6257WAT     H225749   4.681   0.689   2.968
 6257WAT    EPW25750   4.636   0.745   2.999
 6258WAT      O25751   5.076   0.492   3.766
 6258WAT     H125752   5.151   0.463   3.733
 6258WAT     H225753   5.016   0.465   3.708
 6258WAT    EPW25754   5.078   0.484   3.752
 6259WAT      O25755   5.383   0.686   3.615
 6259WAT     H125756   5.412   0.709   3.694
 6259WAT     H225757   5.434   0.730   3.560
 6259WAT    EPW25758   5.394   0.696   3.618
 6260WAT      O25759   4.678   0.287   2.220
 6260WAT     H125760   4.625   0.320   2.160
 6260WAT     H225761   4.749   0.337   2.215
 6260WAT    EPW25762   4.681   0.299   2.210
 6261WAT      O25763   4.858   0.961   3.617
 6261WAT     H125764   4.895   0.953   3.538
 6261WAT     H225765   4.835   0.879   3.636
 6261WAT    EPW25766   4.860   0.947   3.608
 6262WAT      O25767   5.528   0.220   2.423
 6262WAT     H125768   5.589   0.164   2.449
 6262WAT     H225769   5.459   0.169   2.407
 6262WAT    EPW25770   5.527   0.204   2.424
 6263WAT      O25771   4.891   0.430   3.561
 6263WAT     H125772   4.812   0.426   3.597
 6263WAT     H225773   4.890   0.507   3.519
 6263WAT    EPW25774   4.879   0.441   3.560
 6264WAT      O25775   4.439   1.107   3.129
 6264WAT     H125776   4.443   1.089   3.214
 6264WAT     H225777   4.417   1.030   3.093
 6264WAT    EPW25778   4.436   1.093   3.136
 6265WAT      O25779   5.159   0.353   2.715
 6265WAT     H125780   5.159   0.370   2.800
 6265WAT     H225781   5.242   0.339   2.696
 6265WAT    EPW25782   5.171   0.354   2.725
 6266WAT      O25783   4.885   0.301   2.648
 6266WAT     H125784   4.852   0.291   2.729
 6266WAT     H225785   4.971   0.307   2.662
 6266WAT    EPW25786   4.893   0.300   2.662
 6267WAT      O25787   4.896   0.683   3.440
 6267WAT     H125788   4.959   0.706   3.496
 6267WAT     H225789   4.932   0.699   3.362
 6267WAT    EPW25790   4.911   0.688   3.437
 6268WAT      O25791   4.087   1.055   3.652
 6268WAT     H125792   4.028   0.991   3.640
 6268WAT     H225793   4.039   1.122   3.680
 6268WAT    EPW25794   4.071   1.055   3.655
 6269WAT      O25795   5.324   0.983   2.932
 6269WAT     H125796   5.293   1.049   2.979
 6269WAT     H225797   5.390   0.952   2.980
 6269WAT    EPW25798   5.329   0.988   2.946
 6270WAT      O25799   4.936   0.521   3.105
 6270WAT     H125800   4.903   0.449   3.143
 6270WAT     H225801   4.985   0.556   3.168
 6270WAT    EPW25802   4.938   0.516   3.120
 6271WAT      O25803   5.502   0.742   3.857
 6271WAT     H125804   5.584   0.716   3.845
 6271WAT     H225805   5.477   0.697   3.927
 6271WAT    EPW25806   5.510   0.731   3.865
 6272WAT      O25807   5.067   0.668   2.556
 6272WAT     H125808   5.044   0.748   2.529
 6272WAT     H225809   4.996   0.620   2.538
 6272WAT    EPW25810   5.053   0.673   2.549
 6273WAT      O25811   4.494   0.674   2.185
 6273WAT     H125812   4.536   0.663   2.261
 6273WAT     H225813   4.411   0.655   2.205
 6273WAT    EPW25814   4.488   0.669   2.199
 6274WAT      O25815   5.443   0.853   2.548
 6274WAT     H125816   5.415   0.779   2.584
 6274WAT     H225817   5.487   0.826   2.478
 6274WAT    EPW25818   5.446   0.838   2.543
 6275WAT      O25819   4.238   0.579   2.235
 6275WAT     H125820   4.234   0.550   2.318
 6275WAT     H225821   4.245   0.506   2.188
 6275WAT    EPW25822   4.239   0.564   2.241
 6276WAT      O25823   4.520   0.436   2.036
 6276WAT     H125824   4.435   0.413   2.039
 6276WAT     H225825   4.522   0.513   2.077
 6276WAT    EPW25826   4.507   0.444   2.042
 6277WAT      O25827   5.143   0.639   3.255
 6277WAT     H125828   5.175   0.703   3.305
 6277WAT     H225829   5.156   0.668   3.174
 6277WAT    EPW25830   5.150   0.653   3.251
 6278WAT      O25831   5.164   1.006   3.715
 6278WAT     H125832   5.116   0.952   3.667
 6278WAT     H225833   5.119   1.081   3.713
 6278WAT    EPW25834   5.150   1.009   3.708
 6279WAT      O25835   5.697   0.476   3.216
 6279WAT     H125836   5.757   0.429   3.172
 6279WAT     H225837   5.632   0.484   3.158
 6279WAT    EPW25838   5.696   0.470   3.201
 6280WAT      O25839   4.531   0.938   3.661
 6280WAT     H125840   4.516   0.945   3.747
 6280WAT     H225841   4.597   0.881   3.656
 6280WAT    EPW25842   4.539   0.931   3.673
 6281WAT      O25843   5.501   0.793   3.067
 6281WAT     H125844   5.581   0.780   3.035
 6281WAT     H225845   5.470   0.712   3.079
 6281WAT    EPW25846   5.508   0.779   3.064
 6282WAT      O25847   4.241   0.840   3.780
 6282WAT     H125848   4.309   0.871   3.825
 6282WAT     H225849   4.205   0.911   3.745
 6282WAT    EPW25850   4.246   0.855   3.782
 6283WAT      O25851   4.099   0.643   3.488
 6283WAT     H125852   4.048   0.701   3.530
 6283WAT     H225853   4.180   0.670   3.506
 6283WAT    EPW25854   4.103   0.656   3.497
 6284WAT      O25855   4.287   0.914   2.389
 6284WAT     H125856   4.261   0.945   2.312
 6284WAT     H225857   4.373   0.906   2.381
 6284WAT    EPW25858   4.296   0.918   2.377
 6285WAT      O25859   4.642   0.240   2.496
 6285WAT     H125860   4.654   0.248   2.410
 6285WAT     H225861   4.723   0.244   2.528
 6285WAT    EPW25862   4.656   0.242   2.488
 6286WAT      O25863   5.555   1.013   2.050
 6286WAT     H125864   5.628   0.997   2.095
 6286WAT     H225865   5.535   0.935   2.015
 6286WAT    EPW25866   5.563   0.999   2.051
 6287WAT      O25867   5.709   0.402   3.747
 6287WAT     H125868   5.648   0.348   3.778
 6287WAT     H225869   5.704   0.392   3.661
 6287WAT    EPW25870   5.699   0.393   3.739
 6288WAT      O25871   5.220   0.628   2.316
 6288WAT     H125872   5.179   0.620   2.393
 6288WAT     H225873   5.179   0.570   2.265
 6288WAT    EPW25874   5.208   0.618   2.320
 6289WAT      O25875   5.351   0.273   3.933
 6289WAT     H125876   5.425   0.298   3.973
 6289WAT     H225877   5.353   0.316   3.857
 6289WAT    EPW25878   5.362   0.283   3.928
 6290WAT      O25879   4.320   0.870   3.023
 6290WAT     H125880   4.319   0.790   2.989
 6290WAT     H225881   4.274   0.917   2.966
 6290WAT    EPW25882   4.313   0.865   3.009
 6291WAT      O25883   4.886   0.470   2.220
 6291WAT     H125884   4.964   0.444   2.192
 6291WAT     H225885   4.869   0.540   2.170
 6291WAT    EPW25886   4.895   0.476   2.208
 6292WAT      O25887   4.069   1.113   3.377
 6292WAT     H125888   4.077   1.091   3.461
 6292WAT     H225889   4.106   1.046   3.335
 6292WAT    EPW25890   4.076   1.100   3.383
 6293WAT      O25891   3.955   0.402   0.720
 6293WAT     H125892   3.969   0.450   0.792
 6293WAT     H225893   3.908   0.334   0.750
 6293WAT    EPW25894   3.950   0.399   0.735
 6294WAT      O25895   5.610   0.769   0.470
 6294WAT     H125896   5.666   0.706   0.493
 6294WAT     H225897   5.560   0.730   0.410
 6294WAT    EPW25898   5.611   0.754   0.464
 6295WAT      O25899   4.203   0.322   0.237
 6295WAT     H125900   4.187   0.291   0.158
 6295WAT     H225901   4.212   0.251   0.286
 6295WAT    EPW25902   4.202   0.307   0.233
 6296WAT      O25903   4.213   0.482   0.621
 6296WAT     H125904   4.284   0.435   0.642
 6296WAT     H225905   4.147   0.435   0.651
 6296WAT    EPW25906   4.214   0.468   0.629
 6297WAT      O25907   4.131   0.826   0.275
 6297WAT     H125908   4.168   0.834   0.197
 6297WAT     H225909   4.151   0.745   0.300
 6297WAT    EPW25910   4.139   0.815   0.267
 6298WAT      O25911   3.998   0.685   1.350
 6298WAT     H125912   4.036   0.657   1.423
 6298WAT     H225913   3.929   0.632   1.341
 6298WAT    EPW25914   3.993   0.673   1.359
 6299WAT      O25915   4.634   0.459   1.778
 6299WAT     H125916   4.606   0.446   1.860
 6299WAT     H225917   4.567   0.436   1.729
 6299WAT    EPW25918   4.620   0.454   1.783
 6300WAT      O25919   4.609   0.744   1.530
 6300WAT     H125920   4.603   0.823   1.492
 6300WAT     H225921   4.695   0.733   1.539
 6300WAT    EPW25922   4.621   0.754   1.525
 6301WAT      O25923   4.759   0.560   0.956
 6301WAT     H125924   4.780   0.482   0.988
 6301WAT     H225925   4.836   0.601   0.950
 6301WAT    EPW25926   4.774   0.554   0.960
 6302WAT      O25927   4.845   0.535   0.617
 6302WAT     H125928   4.853   0.467   0.671
 6302WAT     H225929   4.858   0.501   0.538
 6302WAT    EPW25930   4.848   0.520   0.613
 6303WAT      O25931   3.974   0.871   0.874
 6303WAT     H125932   3.914   0.919   0.833
 6303WAT     H225933   4.013   0.827   0.810
 6303WAT    EPW25934   3.971   0.872   0.859
 6304WAT      O25935   4.605   0.672   0.572
 6304WAT     H125936   4.565   0.647   0.645
 6304WAT     H225937   4.684   0.637   0.579
 6304WAT    EPW25938   4.610   0.663   0.584
 6305WAT      O25939   5.145   0.872   0.364
 6305WAT     H125940   5.209   0.930   0.353
 6305WAT     H225941   5.187   0.799   0.387
 6305WAT    EPW25942   5.160   0.870   0.366
 6306WAT      O25943   4.975   0.923   0.574
 6306WAT     H125944   5.005   0.996   0.612
 6306WAT     H225945   5.027   0.913   0.505
 6306WAT    EPW25946   4.987   0.933   0.570
 6307WAT      O25947   4.112   0.744   0.663
 6307WAT     H125948   4.161   0.672   0.669
 6307WAT     H225949   4.163   0.799   0.617
 6307WAT    EPW25950   4.127   0.741   0.657
 6308WAT      O25951   5.222   0.918   1.369
 6308WAT     H125952   5.293   0.968   1.360
 6308WAT     H225953   5.206   0.889   1.288
 6308WAT    EPW25954   5.230   0.921   1.356
 6309WAT      O25955   4.286   0.606   0.986
 6309WAT     H125956   4.353   0.593   0.932
 6309WAT     H225957   4.302   0.551   1.052
 6309WAT    EPW25958   4.298   0.596   0.988
 6310WAT      O25959   4.546   0.863   0.882
 6310WAT     H125960   4.624   0.892   0.856
 6310WAT     H225961   4.491   0.920   0.845
 6310WAT    EPW25962   4.549   0.876   0.872
 6311WAT      O25963   5.353   1.067   0.337
 6311WAT     H125964   5.400   1.025   0.276
 6311WAT     H225965   5.411   1.121   0.374
 6311WAT    EPW25966   5.369   1.069   0.333
 6312WAT      O25967   4.443   0.984   1.490
 6312WAT     H125968   4.457   0.979   1.576
 6312WAT     H225969   4.368   0.942   1.479
 6312WAT    EPW25970   4.434   0.977   1.501
 6313WAT      O25971   5.109   0.739   1.698
 6313WAT     H125972   5.088   0.689   1.766
 6313WAT     H225973   5.195   0.729   1.692
 6313WAT    EPW25974   5.118   0.730   1.708
 6314WAT      O25975   4.924   0.712   0.266
 6314WAT     H125976   4.862   0.772   0.271
 6314WAT     H225977   4.998   0.758   0.278
 6314WAT    EPW25978   4.926   0.728   0.268
 6315WAT      O25979   4.204   0.872   1.375
 6315WAT     H125980   4.136   0.817   1.370
 6315WAT     H225981   4.242   0.865   1.297
 6315WAT    EPW25982   4.200   0.863   1.363
 6316WAT      O25983   4.982   0.994   1.479
 6316WAT     H125984   5.059   0.974   1.444
 6316WAT     H225985   4.925   0.971   1.417
 6316WAT    EPW25986   4.985   0.988   1.465
 6317WAT      O25987   5.671   1.015   0.732
 6317WAT     H125988   5.631   1.090   0.748
 6317WAT     H225989   5.605   0.959   0.719
 6317WAT    EPW25990   5.655   1.018   0.733
 6318WAT      O25991   5.356   0.617   0.785
 6318WAT     H125992   5.396   0.540   0.783
 6318WAT     H225993   5.272   0.597   0.779
 6318WAT    EPW25994   5.350   0.603   0.784
 6319WAT      O25995   4.368   0.677   1.667
 6319WAT     H125996   4.441   0.711   1.634
 6319WAT     H225997   4.351   0.727   1.736
 6319WAT    EPW25998   4.376   0.689   1.672
 6320WAT      O25999   4.523   0.236   1.147
 6320WAT     H126000   4.544   0.243   1.232
 6320WAT     H226001   4.488   0.156   1.141
 6320WAT    EPW26002   4.521   0.225   1.159
 6321WAT      O26003   4.587   0.319   1.409
 6321WAT     H126004   4.582   0.401   1.382
 6321WAT     H226005   4.534   0.317   1.478
 6321WAT    EPW26006   4.579   0.331   1.415
 6322WAT      O26007   5.262   0.377   1.372
 6322WAT     H126008   5.200   0.332   1.414
 6322WAT     H226009   5.237   0.460   1.382
 6322WAT    EPW26010   5.249   0.383   1.380
 6323WAT      O26011   3.873   0.670   1.926
 6323WAT     H126012   3.932   0.678   1.990
 6323WAT     H226013   3.865   0.584   1.915
 6323WAT    EPW26014   3.881   0.659   1.934
 6324WAT      O26015   5.539   0.392   0.306
 6324WAT     H126016   5.526   0.346   0.379
 6324WAT     H226017   5.625   0.388   0.295
 6324WAT    EPW26018   5.550   0.384   0.315
 6325WAT      O26019   4.231   0.168   0.809
 6325WAT     H126020   4.303   0.200   0.771
 6325WAT     H226021   4.220   0.091   0.769
 6325WAT    EPW26022   4.240   0.162   0.797
 6326WAT      O26023   4.180   1.029   0.968
 6326WAT     H126024   4.107   0.989   0.940
 6326WAT     H226025   4.230   1.031   0.896
 6326WAT    EPW26026   4.177   1.023   0.953
 6327WAT      O26027   5.813   0.817   1.701
 6327WAT     H126028   5.738   0.820   1.655
 6327WAT     H226029   5.791   0.772   1.773
 6327WAT    EPW26030   5.798   0.811   1.705
 6328WAT      O26031   4.444   0.342   0.684
 6328WAT     H126032   4.481   0.406   0.731
 6328WAT     H226033   4.501   0.329   0.620
 6328WAT    EPW26034   4.458   0.350   0.682
 6329WAT      O26035   4.020   0.530   0.955
 6329WAT     H126036   3.969   0.587   0.998
 6329WAT     H226037   4.099   0.566   0.961
 6329WAT    EPW26038   4.024   0.544   0.962
 6330WAT      O26039   4.978   0.736   0.927
 6330WAT     H126040   4.927   0.803   0.904
 6330WAT     H226041   5.016   0.714   0.851
 6330WAT    EPW26042   4.976   0.743   0.912
 6331WAT      O26043   3.926   0.591   0.522
 6331WAT     H126044   3.984   0.646   0.557
 6331WAT     H226045   3.919   0.528   0.582
 6331WAT    EPW26046   3.933   0.590   0.536
 6332WAT      O26047   4.336   0.440   1.198
 6332WAT     H126048   4.389   0.489   1.247
 6332WAT     H226049   4.387   0.374   1.171
 6332WAT    EPW26050   4.351   0.437   1.201
 6333WAT      O26051   3.934   0.402   0.314
 6333WAT     H126052   4.017   0.386   0.291
 6333WAT     H226053   3.941   0.467   0.371
 6333WAT    EPW26054   3.948   0.409   0.319
 6334WAT      O26055   4.050   0.257   1.007
 6334WAT     H126056   4.109   0.227   0.951
 6334WAT     H226057   4.050   0.343   0.993
 6334WAT    EPW26058   4.059   0.266   0.997
 6335WAT      O26059   5.565   0.834   1.561
 6335WAT     H126060   5.521   0.909   1.569
 6335WAT     H226061   5.561   0.818   1.475
 6335WAT    EPW26062   5.558   0.843   1.549
 6336WAT      O26063   4.517   0.596   0.826
 6336WAT     H126064   4.516   0.682   0.840
 6336WAT     H226065   4.593   0.571   0.861
 6336WAT    EPW26066   4.528   0.605   0.833
 6337WAT      O26067   4.784   0.906   1.304
 6337WAT     H126068   4.747   0.846   1.252
 6337WAT     H226069   4.769   0.981   1.262
 6337WAT    EPW26070   4.776   0.908   1.290
 6338WAT      O26071   5.335   0.417   1.788
 6338WAT     H126072   5.360   0.497   1.764
 6338WAT     H226073   5.363   0.367   1.722
 6338WAT    EPW26074   5.343   0.421   1.775
 6339WAT      O26075   4.729   0.728   1.819
 6339WAT     H126076   4.763   0.717   1.899
 6339WAT     H226077   4.698   0.649   1.799
 6339WAT    EPW26078   4.729   0.715   1.828
 6340WAT      O26079   5.462   0.354   0.778
 6340WAT     H126080   5.530   0.325   0.825
 6340WAT     H226081   5.477   0.321   0.698
 6340WAT    EPW26082   5.474   0.345   0.773
 6341WAT      O26083   5.177   0.782   1.122
 6341WAT     H126084   5.112   0.765   1.065
 6341WAT     H226085   5.221   0.847   1.084
 6341WAT    EPW26086   5.174   0.789   1.108
 6342WAT      O26087   5.163   0.418   1.105
 6342WAT     H126088   5.090   0.461   1.126
 6342WAT     H226089   5.188   0.381   1.180
 6342WAT    EPW26090   5.156   0.419   1.119
 6343WAT      O26091   4.539   0.927   0.470
 6343WAT     H126092   4.556   0.852   0.512
 6343WAT     H226093   4.609   0.939   0.420
 6343WAT    EPW26094   4.552   0.917   0.469
 6344WAT      O26095   4.789   0.945   0.359
 6344WAT     H126096   4.834   0.928   0.432
 6344WAT     H226097   4.807   1.029   0.342
 6344WAT    EPW26098   4.798   0.955   0.367
 6345WAT      O26099   5.437   0.272   1.578
 6345WAT     H126100   5.404   0.303   1.503
 6345WAT     H226101   5.522   0.284   1.569
 6345WAT    EPW26102   5.444   0.278   1.565
 6346WAT      O26103   5.095   0.827   2.010
 6346WAT     H126104   5.120   0.859   2.088
 6346WAT     H226105   5.133   0.882   1.953
 6346WAT    EPW26106   5.104   0.840   2.013
 6347WAT      O26107   5.049   0.259   1.515
 6347WAT     H126108   5.003   0.313   1.566
 6347WAT     H226109   5.072   0.194   1.569
 6347WAT    EPW26110   5.046   0.257   1.530
 6348WAT      O26111   5.456   0.504   1.198
 6348WAT     H126112   5.409   0.519   1.126
 6348WAT     H226113   5.402   0.456   1.247
 6348WAT    EPW26114   5.441   0.499   1.194
 6349WAT      O26115   4.784   0.292   1.039
 6349WAT     H126116   4.700   0.272   1.054
 6349WAT     H226117   4.822   0.282   1.116
 6349WAT    EPW26118   4.777   0.288   1.052
 6350WAT      O26119   4.083   0.342   1.274
 6350WAT     H126120   4.158   0.384   1.257
 6350WAT     H226121   4.071   0.292   1.204
 6350WAT    EPW26122   4.093   0.341   1.261
 6351WAT      O26123   5.762   0.940   0.318
 6351WAT     H126124   5.837   0.899   0.301
 6351WAT     H226125   5.719   0.884   0.371
 6351WAT    EPW26126   5.766   0.925   0.323
 6352WAT      O26127   4.119   0.341   1.556
 6352WAT     H126128   4.111   0.332   1.469
 6352WAT     H226129   4.109   0.427   1.568
 6352WAT    EPW26130   4.116   0.353   1.545
 6353WAT      O26131   5.694   0.217   0.882
 6353WAT     H126132   5.666   0.136   0.899
 6353WAT     H226133   5.765   0.226   0.931
 6353WAT    EPW26134   5.700   0.207   0.892
 6354WAT      O26135   5.763   0.728   1.097
 6354WAT     H126136   5.788   0.785   1.035
 6354WAT     H226137   5.820   0.742   1.162
 6354WAT    EPW26138   5.775   0.739   1.098
 6355WAT      O26139   5.455   0.654   0.276
 6355WAT     H126140   5.485   0.572   0.271
 6355WAT     H226141   5.383   0.647   0.325
 6355WAT    EPW26142   5.448   0.641   0.283
 6356WAT      O26143   5.715   0.345   1.578
 6356WAT     H126144   5.799   0.322   1.581
 6356WAT     H226145   5.709   0.391   1.504
 6356WAT    EPW26146   5.727   0.348   1.567
 6357WAT      O26147   5.141   0.428   0.252
 6357WAT     H126148   5.211   0.382   0.228
 6357WAT     H226149   5.120   0.472   0.180
 6357WAT    EPW26150   5.148   0.428   0.238
 6358WAT      O26151   4.541   0.577   1.323
 6358WAT     H126152   4.556   0.627   1.394
 6358WAT     H226153   4.572   0.626   1.258
 6358WAT    EPW26154   4.548   0.592   1.324
 6359WAT      O26155   4.400   0.400   1.619
 6359WAT     H126156   4.321   0.366   1.604
 6359WAT     H226157   4.384   0.485   1.629
 6359WAT    EPW26158   4.386   0.408   1.618
 6360WAT      O26159   4.852   0.286   1.315
 6360WAT     H126160   4.911   0.262   1.375
 6360WAT     H226161   4.777   0.287   1.359
 6360WAT    EPW26162   4.850   0.283   1.331
 6361WAT      O26163   4.810   0.940   0.820
 6361WAT     H126164   4.812   1.024   0.842
 6361WAT     H226165   4.841   0.939   0.738
 6361WAT    EPW26166   4.815   0.952   0.811
 6362WAT      O26167   4.641   0.742   1.126
 6362WAT     H126168   4.599   0.790   1.067
 6362WAT     H226169   4.687   0.685   1.078
 6362WAT    EPW26170   4.641   0.741   1.110
 6363WAT      O26171   5.077   0.504   1.859
 6363WAT     H126172   5.152   0.471   1.827
 6363WAT     H226173   5.017   0.475   1.804
 6363WAT    EPW26174   5.079   0.495   1.846
 6364WAT      O26175   5.385   0.684   1.715
 6364WAT     H126176   5.414   0.713   1.792
 6364WAT     H226177   5.440   0.720   1.657
 6364WAT    EPW26178   5.398   0.694   1.718
 6365WAT      O26179   4.844   0.968   1.719
 6365WAT     H126180   4.894   0.960   1.647
 6365WAT     H226181   4.827   0.885   1.741
 6365WAT    EPW26182   4.849   0.954   1.711
 6366WAT      O26183   5.516   0.221   0.534
 6366WAT     H126184   5.592   0.178   0.533
 6366WAT     H226185   5.456   0.158   0.522
 6366WAT    EPW26186   5.518   0.205   0.532
 6367WAT      O26187   4.890   0.438   1.659
 6367WAT     H126188   4.812   0.431   1.697
 6367WAT     H226189   4.886   0.512   1.614
 6367WAT    EPW26190   4.878   0.448   1.658
 6368WAT      O26191   4.464   1.063   1.217
 6368WAT     H126192   4.463   1.052   1.303
 6368WAT     H226193   4.431   0.989   1.185
 6368WAT    EPW26194   4.459   1.051   1.225
 6369WAT      O26195   5.180   0.368   0.833
 6369WAT     H126196   5.178   0.383   0.919
 6369WAT     H226197   5.264   0.349   0.817
 6369WAT    EPW26198   5.193   0.368   0.843
 6370WAT      O26199   4.909   0.320   0.779
 6370WAT     H126200   4.875   0.299   0.857
 6370WAT     H226201   4.994   0.326   0.794
 6370WAT    EPW26202   4.916   0.318   0.793
 6371WAT      O26203   4.890   0.688   1.528
 6371WAT     H126204   4.960   0.713   1.574
 6371WAT     H226205   4.901   0.726   1.451
 6371WAT    EPW26206   4.902   0.698   1.524
 6372WAT      O26207   4.082   1.023   1.741
 6372WAT     H126208   4.034   0.952   1.724
 6372WAT     H226209   4.023   1.085   1.757
 6372WAT    EPW26210   4.066   1.022   1.741
 6373WAT      O26211   5.300   1.029   1.065
 6373WAT     H126212   5.240   1.091   1.081
 6373WAT     H226213   5.360   1.041   1.127
 6373WAT    EPW26214   5.300   1.040   1.076
 6374WAT      O26215   4.940   0.535   1.228
 6374WAT     H126216   4.906   0.464   1.264
 6374WAT     H226217   4.994   0.566   1.289
 6374WAT    EPW26218   4.943   0.529   1.242
 6375WAT      O26219   5.507   0.759   1.953
 6375WAT     H126220   5.589   0.731   1.942
 6375WAT     H226221   5.478   0.714   2.021
 6375WAT    EPW26222   5.515   0.748   1.961
 6376WAT      O26223   5.073   0.677   0.670
 6376WAT     H126224   5.048   0.756   0.643
 6376WAT     H226225   5.003   0.627   0.655
 6376WAT    EPW26226   5.059   0.681   0.664
 6377WAT      O26227   4.497   0.620   0.314
 6377WAT     H126228   4.537   0.634   0.390
 6377WAT     H226229   4.412   0.623   0.335
 6377WAT    EPW26230   4.490   0.623   0.328
 6378WAT      O26231   5.449   0.855   0.679
 6378WAT     H126232   5.421   0.781   0.717
 6378WAT     H226233   5.489   0.827   0.607
 6378WAT    EPW26234   5.451   0.840   0.674
 6379WAT      O26235   4.224   0.578   0.360
 6379WAT     H126236   4.218   0.552   0.443
 6379WAT     H226237   4.219   0.503   0.315
 6379WAT    EPW26238   4.222   0.563   0.366
 6380WAT      O26239   4.488   0.361   0.218
 6380WAT     H126240   4.401   0.356   0.219
 6380WAT     H226241   4.504   0.445   0.235
 6380WAT    EPW26242   4.478   0.372   0.221
 6381WAT      O26243   5.170   0.636   1.360
 6381WAT     H126244   5.192   0.704   1.410
 6381WAT     H226245   5.180   0.666   1.279
 6381WAT    EPW26246   5.175   0.650   1.355
 6382WAT      O26247   5.189   0.998   1.799
 6382WAT     H126248   5.138   0.942   1.755
 6382WAT     H226249   5.139   1.069   1.806
 6382WAT    EPW26250   5.174   1.000   1.794
 6383WAT      O26251   5.709   0.466   1.329
 6383WAT     H126252   5.773   0.425   1.285
 6383WAT     H226253   5.645   0.473   1.270
 6383WAT    EPW26254   5.709   0.461   1.313
 6384WAT      O26255   4.531   0.937   1.760
 6384WAT     H126256   4.515   0.946   1.845
 6384WAT     H226257   4.594   0.876   1.757
 6384WAT    EPW26258   4.538   0.929   1.772
 6385WAT      O26259   5.547   0.760   1.287
 6385WAT     H126260   5.607   0.767   1.225
 6385WAT     H226261   5.506   0.685   1.267
 6385WAT    EPW26262   5.550   0.750   1.275
 6386WAT      O26263   4.244   0.829   1.883
 6386WAT     H126264   4.311   0.865   1.926
 6386WAT     H226265   4.206   0.897   1.844
 6386WAT    EPW26266   4.248   0.844   1.884
 6387WAT      O26267   4.108   0.615   1.590
 6387WAT     H126268   4.053   0.671   1.628
 6387WAT     H226269   4.187   0.646   1.610
 6387WAT    EPW26270   4.111   0.628   1.598
 6388WAT      O26271   4.266   0.916   0.506
 6388WAT     H126272   4.225   0.904   0.430
 6388WAT     H226273   4.350   0.919   0.483
 6388WAT    EPW26274   4.273   0.914   0.491
 6389WAT      O26275   4.620   0.319   0.461
 6389WAT     H126276   4.578   0.320   0.384
 6389WAT     H226277   4.700   0.347   0.441
 6389WAT    EPW26278   4.625   0.323   0.446
 6390WAT      O26279   5.518   0.915   0.171
 6390WAT     H126280   5.599   0.924   0.203
 6390WAT     H226281   5.499   0.832   0.186
 6390WAT    EPW26282   5.527   0.904   0.178
 6391WAT      O26283   5.701   0.411   1.850
 6391WAT     H126284   5.642   0.355   1.881
 6391WAT     H226285   5.701   0.395   1.765
 6391WAT    EPW26286   5.692   0.400   1.842
 6392WAT      O26287   5.231   0.622   0.438
 6392WAT     H126288   5.195   0.621   0.517
 6392WAT     H226289   5.192   0.556   0.396
 6392WAT    EPW26290   5.220   0.612   0.444
 6393WAT      O26291   5.349   0.276   2.033
 6393WAT     H126292   5.423   0.301   2.071
 6393WAT     H226293   5.351   0.317   1.955
 6393WAT    EPW26294   5.360   0.286   2.027
 6394WAT      O26295   4.312   0.848   1.123
 6394WAT     H126296   4.308   0.772   1.080
 6394WAT     H226297   4.267   0.903   1.072
 6394WAT    EPW26298   4.305   0.845   1.109
 6395WAT      O26299   4.874   0.450   0.359
 6395WAT     H126300   4.950   0.415   0.334
 6395WAT     H226301   4.874   0.529   0.323
 6395WAT    EPW26302   4.885   0.456   0.350
 6396WAT      O26303   4.071   1.096   1.467
 6396WAT     H126304   4.072   1.071   1.551
 6396WAT     H226305   4.111   1.030   1.426
 6396WAT    EPW26306   4.077   1.083   1.473
 6397WAT      O26307   3.149   6.684   6.393
 6397WAT     H126308   3.151   6.730   6.319
 6397WAT     H226309   3.234   6.669   6.410
 6397WAT    EPW26310   3.162   6.689   6.385
 6398WAT      O26311   3.097   7.319   6.813
 6398WAT     H126312   3.074   7.398   6.841
 6398WAT     H226313   3.151   7.290   6.874
 6398WAT    EPW26314   3.101   7.326   6.826
 6399WAT      O26315   2.087   7.153   6.060
 6399WAT     H126316   2.006   7.165   6.029
 6399WAT     H226317   2.079   7.082   6.110
 6399WAT    EPW26318   2.074   7.144   6.063
 6400WAT      O26319   3.383   7.481   6.481
 6400WAT     H126320   3.384   7.481   6.394
 6400WAT     H226321   3.321   7.422   6.501
 6400WAT    EPW26322   3.374   7.472   6.471
 6401WAT      O26323   2.794   6.791   6.260
 6401WAT     H126324   2.792   6.859   6.205
 6401WAT     H226325   2.872   6.754   6.245
 6401WAT    EPW26326   2.805   6.795   6.250
 6402WAT      O26327   2.281   7.580   6.400
 6402WAT     H126328   2.227   7.530   6.352
 6402WAT     H226329   2.335   7.522   6.436
 6402WAT    EPW26330   2.281   7.564   6.398
 6403WAT      O26331   2.696   7.123   7.023
 6403WAT     H126332   2.765   7.126   6.969
 6403WAT     H226333   2.673   7.038   7.022
 6403WAT    EPW26334   2.703   7.111   7.015
 6404WAT      O26335   2.418   7.368   6.529
 6404WAT     H126336   2.491   7.320   6.537
 6404WAT     H226337   2.357   7.309   6.512
 6404WAT    EPW26338   2.420   7.352   6.528
 6405WAT      O26339   3.094   7.328   7.480
 6405WAT     H126340   3.008   7.319   7.486
 6405WAT     H226341   3.104   7.379   7.409
 6405WAT    EPW26342   3.083   7.334   7.470
 6406WAT      O26343   2.528   6.835   6.360
 6406WAT     H126344   2.488   6.890   6.304
 6406WAT     H226345   2.609   6.830   6.328
 6406WAT    EPW26346   2.534   6.843   6.347
 6407WAT      O26347   3.527   6.593   7.336
 6407WAT     H126348   3.510   6.660   7.283
 6407WAT     H226349   3.451   6.578   7.376
 6407WAT    EPW26350   3.513   6.601   7.334
 6408WAT      O26351   2.833   6.757   6.536
 6408WAT     H126352   2.839   6.841   6.558
 6408WAT     H226353   2.807   6.759   6.453
 6408WAT    EPW26354   2.830   6.770   6.527
 6409WAT      O26355   3.253   7.002   5.805
 6409WAT     H126356   3.208   7.068   5.840
 6409WAT     H226357   3.268   6.948   5.872
 6409WAT    EPW26358   3.249   7.004   5.820
 6410WAT      O26359   2.086   7.238   6.740
 6410WAT     H126360   2.133   7.307   6.766
 6410WAT     H226361   2.022   7.233   6.799
 6410WAT    EPW26362   2.083   7.248   6.753
 6411WAT      O26363   2.404   6.789   6.776
 6411WAT     H126364   2.354   6.722   6.749
 6411WAT     H226365   2.463   6.751   6.829
 6411WAT    EPW26366   2.405   6.773   6.780
 6412WAT      O26367   3.833   6.974   6.494
 6412WAT     H126368   3.782   7.044   6.509
 6412WAT     H226369   3.776   6.908   6.487
 6412WAT    EPW26370   3.817   6.975   6.495
 6413WAT      O26371   2.296   6.948   7.570
 6413WAT     H126372   2.221   6.903   7.573
 6413WAT     H226373   2.349   6.896   7.525
 6413WAT    EPW26374   2.292   6.934   7.563
 6414WAT      O26375   2.973   6.770   7.497
 6414WAT     H126376   2.972   6.683   7.498
 6414WAT     H226377   2.890   6.792   7.484
 6414WAT    EPW26378   2.961   6.761   7.495
 6415WAT      O26379   2.992   7.212   6.411
 6415WAT     H126380   3.020   7.169   6.341
 6415WAT     H226381   3.065   7.233   6.453
 6415WAT    EPW26382   3.007   7.209   6.407
 6416WAT      O26383   3.095   7.203   5.932
 6416WAT     H126384   3.103   7.282   5.967
 6416WAT     H226385   3.015   7.204   5.896
 6416WAT    EPW26386   3.084   7.215   5.931
 6417WAT      O26387   3.745   6.901   6.918
 6417WAT     H126388   3.807   6.888   6.857
 6417WAT     H226389   3.765   6.842   6.979
 6417WAT    EPW26390   3.757   6.890   6.918
 6418WAT      O26391   2.002   6.967   7.316
 6418WAT     H126392   1.992   7.034   7.370
 6418WAT     H226393   2.068   6.991   7.264
 6418WAT    EPW26394   2.010   6.980   7.316
 6419WAT      O26395   3.306   6.827   6.013
 6419WAT     H126396   3.357   6.757   6.017
 6419WAT     H226397   3.329   6.873   6.084
 6419WAT    EPW26398   3.317   6.824   6.024
 6420WAT      O26399   2.110   6.946   6.256
 6420WAT     H126400   2.092   6.862   6.246
 6420WAT     H226401   2.069   6.967   6.330
 6420WAT    EPW26402   2.101   6.937   6.266
 6421WAT      O26403   3.075   7.079   6.180
 6421WAT     H126404   3.015   7.019   6.163
 6421WAT     H226405   3.083   7.123   6.105
 6421WAT    EPW26406   3.067   7.077   6.167
 6422WAT      O26407   3.063   6.768   6.132
 6422WAT     H126408   3.006   6.754   6.067
 6422WAT     H226409   3.137   6.787   6.091
 6422WAT    EPW26410   3.066   6.769   6.117
 6423WAT      O26411   2.874   7.028   6.583
 6423WAT     H126412   2.906   7.090   6.530
 6423WAT     H226413   2.882   7.063   6.662
 6423WAT    EPW26414   2.880   7.043   6.587
 6424WAT      O26415   2.462   6.578   6.442
 6424WAT     H126416   2.481   6.661   6.421
 6424WAT     H226417   2.434   6.544   6.367
 6424WAT    EPW26418   2.460   6.585   6.428
 6425WAT      O26419   3.228   6.975   7.148
 6425WAT     H126420   3.231   7.012   7.227
 6425WAT     H226421   3.164   6.916   7.156
 6425WAT    EPW26422   3.219   6.972   7.161
 6426WAT      O26423   3.409   6.616   6.479
 6426WAT     H126424   3.410   6.601   6.565
 6426WAT     H226425   3.446   6.545   6.445
 6426WAT    EPW26426   3.414   6.603   6.486
 6427WAT      O26427   3.605   7.026   7.277
 6427WAT     H126428   3.691   7.014   7.281
 6427WAT     H226429   3.579   7.022   7.361
 6427WAT    EPW26430   3.614   7.024   7.290
 6428WAT      O26431   2.403   6.973   6.571
 6428WAT     H126432   2.436   6.923   6.507
 6428WAT     H226433   2.401   6.920   6.640
 6428WAT    EPW26434   2.408   6.958   6.571
 6429WAT      O26435   2.247   7.064   6.880
 6429WAT     H126436   2.329   7.085   6.859
 6429WAT     H226437   2.199   7.120   6.834
 6429WAT    EPW26438   2.252   7.075   6.870
 6430WAT      O26439   3.502   7.449   5.952
 6430WAT     H126440   3.522   7.533   5.946
 6430WAT     H226441   3.465   7.443   6.031
 6430WAT    EPW26442   3.499   7.460   5.963
 6431WAT      O26443   3.918   6.839   5.860
 6431WAT     H126444   3.884   6.764   5.890
 6431WAT     H226445   3.848   6.891   5.852
 6431WAT    EPW26446   3.902   6.836   5.863
 6432WAT      O26447   3.916   7.251   7.190
 6432WAT     H126448   3.987   7.202   7.174
 6432WAT     H226449   3.867   7.239   7.119
 6432WAT    EPW26450   3.919   7.242   7.177
 6433WAT      O26451   3.646   6.796   6.164
 6433WAT     H126452   3.728   6.767   6.173
 6433WAT     H226453   3.656   6.874   6.126
 6433WAT    EPW26454   3.660   6.803   6.159
 6434WAT      O26455   3.365   7.044   6.614
 6434WAT     H126456   3.397   7.009   6.687
 6434WAT     H226457   3.301   6.988   6.591
 6434WAT    EPW26458   3.360   7.030   6.621
 6435WAT      O26459   2.815   6.990   6.076
 6435WAT     H126460   2.791   6.972   5.994
 6435WAT     H226461   2.791   7.073   6.087
 6435WAT    EPW26462   2.808   7.000   6.065
 6436WAT      O26463   2.405   7.211   7.543
 6436WAT     H126464   2.367   7.134   7.560
 6436WAT     H226465   2.402   7.217   7.456
 6436WAT    EPW26466   2.399   7.200   7.533
 6437WAT      O26467   2.454   7.238   6.049
 6437WAT     H126468   2.433   7.183   6.113
 6437WAT     H226469   2.399   7.217   5.985
 6437WAT    EPW26470   2.443   7.226   6.049
 6438WAT      O26471   2.310   7.399   6.793
 6438WAT     H126472   2.335   7.422   6.712
 6438WAT     H226473   2.365   7.335   6.815
 6438WAT    EPW26474   2.322   7.393   6.784
 6439WAT      O26475   2.451   7.397   7.061
 6439WAT     H126476   2.492   7.349   7.000
 6439WAT     H226477   2.389   7.438   7.016
 6439WAT    EPW26478   2.448   7.396   7.045
 6440WAT      O26479   3.513   7.221   6.889
 6440WAT     H126480   3.438   7.239   6.931
 6440WAT     H226481   3.515   7.280   6.825
 6440WAT    EPW26482   3.502   7.232   6.886
 6441WAT      O26483   3.061   6.766   7.231
 6441WAT     H126484   3.086   6.683   7.220
 6441WAT     H226485   3.041   6.770   7.316
 6441WAT    EPW26486   3.062   6.754   7.242
 6442WAT      O26487   3.330   6.978   6.240
 6442WAT     H126488   3.385   7.045   6.253
 6442WAT     H226489   3.252   7.016   6.231
 6442WAT    EPW26490   3.327   6.994   6.241
 6443WAT      O26491   2.903   7.120   6.839
 6443WAT     H126492   2.966   7.180   6.838
 6443WAT     H226493   2.942   7.050   6.873
 6443WAT    EPW26494   2.918   7.118   6.844
 6444WAT      O26495   3.110   7.436   6.088
 6444WAT     H126496   3.101   7.513   6.048
 6444WAT     H226497   3.042   7.432   6.142
 6444WAT    EPW26498   3.099   7.447   6.090
 6445WAT      O26499   2.611   6.676   6.002
 6445WAT     H126500   2.614   6.662   6.088
 6445WAT     H226501   2.558   6.745   5.995
 6445WAT    EPW26502   2.603   6.684   6.014
 6446WAT      O26503   3.715   6.645   7.540
 6446WAT     H126504   3.657   6.630   7.476
 6446WAT     H226505   3.667   6.641   7.612
 6446WAT    EPW26506   3.699   6.642   7.541
 6447WAT      O26507   2.034   6.671   6.235
 6447WAT     H126508   2.031   6.616   6.167
 6447WAT     H226509   2.006   6.623   6.302
 6447WAT    EPW26510   2.029   6.656   6.234
 6448WAT      O26511   2.892   7.425   6.263
 6448WAT     H126512   2.862   7.489   6.315
 6448WAT     H226513   2.915   7.363   6.319
 6448WAT    EPW26514   2.891   7.425   6.279
 6449WAT      O26515   2.457   6.899   5.953
 6449WAT     H126516   2.394   6.896   5.892
 6449WAT     H226517   2.522   6.941   5.912
 6449WAT    EPW26518   2.457   6.905   5.938
 6450WAT      O26519   2.608   7.157   6.593
 6450WAT     H126520   2.684   7.115   6.583
 6450WAT     H226521   2.548   7.094   6.581
 6450WAT    EPW26522   2.610   7.142   6.590
 6451WAT      O26523   2.119   7.335   6.280
 6451WAT     H126524   2.145   7.283   6.345
 6451WAT     H226525   2.130   7.286   6.208
 6451WAT    EPW26526   2.125   7.320   6.279
 6452WAT      O26527   2.593   7.356   5.822
 6452WAT     H126528   2.556   7.336   5.899
 6452WAT     H226529   2.525   7.366   5.768
 6452WAT    EPW26530   2.577   7.355   5.826
 6453WAT      O26531   2.733   7.249   6.105
 6453WAT     H126532   2.764   7.316   6.153
 6453WAT     H226533   2.647   7.263   6.104
 6453WAT    EPW26534   2.725   7.261   6.112
 6454WAT      O26535   3.490   7.001   7.541
 6454WAT     H126536   3.476   7.049   7.612
 6454WAT     H226537   3.432   6.936   7.549
 6454WAT    EPW26538   3.479   6.998   7.553
 6455WAT      O26539   2.063   6.877   6.740
 6455WAT     H126540   2.045   6.914   6.664
 6455WAT     H226541   2.137   6.915   6.766
 6455WAT    EPW26542   2.071   6.888   6.733
 6456WAT      O26543   3.352   7.312   7.600
 6456WAT     H126544   3.346   7.335   7.684
 6456WAT     H226545   3.274   7.332   7.568
 6456WAT    EPW26546   3.340   7.319   7.608
 6457WAT      O26547   3.599   7.395   7.485
 6457WAT     H126548   3.605   7.481   7.496
 6457WAT     H226549   3.522   7.374   7.521
 6457WAT    EPW26550   3.589   7.404   7.492
 6458WAT      O26551   3.610   7.149   6.535
 6458WAT     H126552   3.540   7.105   6.562
 6458WAT     H226553   3.606   7.225   6.578
 6458WAT    EPW26554   3.599   7.154   6.545
 6459WAT      O26555   3.458   6.817   7.174
 6459WAT     H126556   3.510   6.883   7.197
 6459WAT     H226557   3.382   6.856   7.157
 6459WAT    EPW26558   3.454   6.832   7.175
 6460WAT      O26559   2.691   7.102   7.303
 6460WAT     H126560   2.699   7.017   7.323
 6460WAT     H226561   2.707   7.105   7.217
 6460WAT    EPW26562   2.695   7.090   7.294
 6461WAT      O26563   3.554   6.622   7.002
 6461WAT     H126564   3.516   6.690   7.042
 6461WAT     H226565   3.637   6.627   7.026
 6461WAT    EPW26566   3.561   6.633   7.011
 6462WAT      O26567   2.800   6.693   7.156
 6462WAT     H126568   2.880   6.727   7.160
 6462WAT     H226569   2.811   6.619   7.112
 6462WAT    EPW26570   2.813   6.687   7.150
 6463WAT      O26571   3.729   7.281   5.934
 6463WAT     H126572   3.784   7.324   5.882
 6463WAT     H226573   3.656   7.328   5.931
 6463WAT    EPW26574   3.726   7.294   5.926
 6464WAT      O26575   2.501   7.200   6.847
 6464WAT     H126576   2.540   7.191   6.770
 6464WAT     H226577   2.560   7.170   6.904
 6464WAT    EPW26578   2.515   7.194   6.844
 6465WAT      O26579   3.244   7.106   7.399
 6465WAT     H126580   3.182   7.155   7.436
 6465WAT     H226581   3.315   7.123   7.446
 6465WAT    EPW26582   3.245   7.116   7.411
 6466WAT      O26583   3.258   7.215   7.006
 6466WAT     H126584   3.260   7.264   7.079
 6466WAT     H226585   3.246   7.134   7.035
 6466WAT    EPW26586   3.256   7.211   7.021
 6467WAT      O26587   3.506   7.198   6.283
 6467WAT     H126588   3.529   7.180   6.365
 6467WAT     H226589   3.575   7.241   6.251
 6467WAT    EPW26590   3.519   7.202   6.290
 6468WAT      O26591   2.819   6.689   6.812
 6468WAT     H126592   2.737   6.668   6.834
 6468WAT     H226593   2.814   6.699   6.725
 6468WAT    EPW26594   2.806   6.687   6.802
 6469WAT      O26595   3.633   6.782   6.443
 6469WAT     H126596   3.556   6.746   6.464
 6469WAT     H226597   3.624   6.797   6.357
 6469WAT    EPW26598   3.620   6.779   6.433
 6470WAT      O26599   2.074   6.773   7.503
 6470WAT     H126600   2.051   6.834   7.444
 6470WAT     H226601   1.997   6.741   7.530
 6470WAT    EPW26602   2.059   6.778   7.498
 6471WAT      O26603   2.383   7.006   6.199
 6471WAT     H126604   2.393   6.971   6.120
 6471WAT     H226605   2.299   6.991   6.217
 6471WAT    EPW26606   2.372   6.999   6.190
 6472WAT      O26607   3.810   7.208   7.444
 6472WAT     H126608   3.752   7.270   7.465
 6472WAT     H226609   3.848   7.240   7.371
 6472WAT    EPW26610   3.807   7.222   7.436
 6473WAT      O26611   3.277   7.341   7.247
 6473WAT     H126612   3.266   7.267   7.291
 6473WAT     H226613   3.364   7.346   7.237
 6473WAT    EPW26614   3.288   7.331   7.252
 6474WAT      O26615   2.428   7.199   7.259
 6474WAT     H126616   2.439   7.270   7.209
 6474WAT     H226617   2.510   7.172   7.274
 6474WAT    EPW26618   2.442   7.206   7.254
 6475WAT      O26619   2.217   7.055   7.153
 6475WAT     H126620   2.227   7.061   7.067
 6475WAT     H226621   2.285   7.100   7.184
 6475WAT    EPW26622   2.229   7.063   7.145
 6476WAT      O26623   3.728   7.346   6.208
 6476WAT     H126624   3.744   7.337   6.123
 6476WAT     H226625   3.808   7.353   6.243
 6476WAT    EPW26626   3.742   7.345   6.201
 6477WAT      O26627   2.433   6.759   7.410
 6477WAT     H126628   2.384   6.689   7.426
 6477WAT     H226629   2.411   6.782   7.329
 6477WAT    EPW26630   2.423   6.752   7.400
 6478WAT      O26631   3.547   7.299   7.225
 6478WAT     H126632   3.572   7.215   7.228
 6478WAT     H226633   3.580   7.333   7.298
 6478WAT    EPW26634   3.556   7.291   7.236
 6479WAT      O26635   2.271   7.158   5.850
 6479WAT     H126636   2.206   7.161   5.907
 6479WAT     H226637   2.264   7.079   5.814
 6479WAT    EPW26638   2.261   7.147   5.853
 6480WAT      O26639   3.240   6.853   7.524
 6480WAT     H126640   3.233   6.924   7.473
 6480WAT     H226641   3.157   6.833   7.542
 6480WAT    EPW26642   3.227   6.861   7.519
 6481WAT      O26643   3.135   6.883   6.590
 6481WAT     H126644   3.056   6.920   6.588
 6481WAT     H226645   3.130   6.820   6.530
 6481WAT    EPW26646   3.123   6.880   6.581
 6482WAT      O26647   3.472   6.949   6.852
 6482WAT     H126648   3.551   6.915   6.865
 6482WAT     H226649   3.481   7.033   6.875
 6482WAT    EPW26650   3.485   6.957   6.858
 6483WAT      O26651   3.562   7.391   6.670
 6483WAT     H126652   3.628   7.449   6.675
 6483WAT     H226653   3.507   7.426   6.612
 6483WAT    EPW26654   3.564   7.404   6.662
 6484WAT      O26655   2.614   6.868   7.042
 6484WAT     H126656   2.535   6.842   7.069
 6484WAT     H226657   2.666   6.803   7.068
 6484WAT    EPW26658   2.610   6.854   7.050
 6485WAT      O26659   3.808   6.714   7.118
 6485WAT     H126660   3.814   6.765   7.189
 6485WAT     H226661   3.884   6.673   7.116
 6485WAT    EPW26662   3.820   6.715   7.129
 6486WAT      O26663   2.993   6.877   6.927
 6486WAT     H126664   2.937   6.818   6.896
 6486WAT     H226665   3.071   6.841   6.911
 6486WAT    EPW26666   2.996   6.863   6.920
 6487WAT      O26667   2.817   7.287   7.474
 6487WAT     H126668   2.781   7.230   7.418
 6487WAT     H226669   2.750   7.312   7.524
 6487WAT    EPW26670   2.802   7.282   7.473
 6488WAT      O26671   2.879   6.699   5.937
 6488WAT     H126672   2.885   6.708   5.850
 6488WAT     H226673   2.793   6.707   5.952
 6488WAT    EPW26674   2.867   6.702   5.926
 6489WAT      O26675   2.362   6.816   7.152
 6489WAT     H126676   2.305   6.753   7.130
 6489WAT     H226677   2.315   6.889   7.148
 6489WAT    EPW26678   2.347   6.817   7.148
 6490WAT      O26679   3.241   6.786   6.831
 6490WAT     H126680   3.307   6.841   6.849
 6490WAT     H226681   3.209   6.817   6.755
 6490WAT    EPW26682   3.246   6.799   6.822
 6491WAT      O26683   3.214   7.274   6.564
 6491WAT     H126684   3.265   7.205   6.580
 6491WAT     H226685   3.179   7.292   6.641
 6491WAT    EPW26686   3.216   7.266   6.578
 6492WAT      O26687   2.218   7.179   6.496
 6492WAT     H126688   2.165   7.187   6.565
 6492WAT     H226689   2.262   7.106   6.513
 6492WAT    EPW26690   2.217   7.169   6.509
 6493WAT      O26691   3.372   7.431   6.199
 6493WAT     H126692   3.397   7.352   6.225
 6493WAT     H226693   3.289   7.420   6.175
 6493WAT    EPW26694   3.363   7.418   6.200
 6494WAT      O26695   3.758   7.015   7.648
 6494WAT     H126696   3.788   7.080   7.598
 6494WAT     H226697   3.684   6.992   7.607
 6494WAT    EPW26698   3.751   7.021   7.634
 6495WAT      O26699   3.782   7.177   6.954
 6495WAT     H126700   3.699   7.204   6.945
 6495WAT     H226701   3.776   7.091   6.947
 6495WAT    EPW26702   3.769   7.169   6.951
 6496WAT      O26703   2.710   6.803   7.395
 6496WAT     H126704   2.724   6.769   7.316
 6496WAT     H226705   2.623   6.796   7.405
 6496WAT    EPW26706   2.699   6.797   7.385
 6497WAT      O26707   3.161   6.677   4.503
 6497WAT     H126708   3.165   6.725   4.430
 6497WAT     H226709   3.244   6.654   4.518
 6497WAT    EPW26710   3.174   6.681   4.495
 6498WAT      O26711   3.097   7.318   4.923
 6498WAT     H126712   3.065   7.396   4.947
 6498WAT     H226713   3.151   7.297   4.989
 6498WAT    EPW26714   3.100   7.327   4.937
 6499WAT      O26715   2.086   7.151   4.161
 6499WAT     H126716   2.005   7.160   4.131
 6499WAT     H226717   2.082   7.080   4.212
 6499WAT    EPW26718   2.074   7.142   4.164
 6500WAT      O26719   3.404   7.472   4.592
 6500WAT     H126720   3.406   7.475   4.504
 6500WAT     H226721   3.332   7.426   4.609
 6500WAT    EPW26722   3.394   7.465   4.581
 6501WAT      O26723   2.808   6.788   4.376
 6501WAT     H126724   2.800   6.855   4.320
 6501WAT     H226725   2.887   6.756   4.360
 6501WAT    EPW26726   2.818   6.793   4.365
 6502WAT      O26727   2.280   7.578   4.500
 6502WAT     H126728   2.227   7.527   4.452
 6502WAT     H226729   2.336   7.521   4.536
 6502WAT    EPW26730   2.280   7.562   4.498
 6503WAT      O26731   2.703   7.117   5.141
 6503WAT     H126732   2.774   7.116   5.091
 6503WAT     H226733   2.679   7.034   5.144
 6503WAT    EPW26734   2.710   7.105   5.134
 6504WAT      O26735   2.420   7.367   4.628
 6504WAT     H126736   2.492   7.320   4.641
 6504WAT     H226737   2.359   7.307   4.610
 6504WAT    EPW26738   2.421   7.351   4.627
 6505WAT      O26739   3.128   7.351   5.601
 6505WAT     H126740   3.042   7.345   5.587
 6505WAT     H226741   3.158   7.384   5.526
 6505WAT    EPW26742   3.119   7.355   5.588
 6506WAT      O26743   2.532   6.830   4.462
 6506WAT     H126744   2.495   6.886   4.406
 6506WAT     H226745   2.616   6.829   4.437
 6506WAT    EPW26746   2.539   6.838   4.450
 6507WAT      O26747   3.494   6.572   5.457
 6507WAT     H126748   3.478   6.643   5.409
 6507WAT     H226749   3.419   6.558   5.499
 6507WAT    EPW26750   3.480   6.580   5.456
 6508WAT      O26751   2.848   6.760   4.655
 6508WAT     H126752   2.846   6.844   4.677
 6508WAT     H226753   2.825   6.760   4.571
 6508WAT    EPW26754   2.845   6.772   4.646
 6509WAT      O26755   3.262   6.998   3.904
 6509WAT     H126756   3.218   7.065   3.939
 6509WAT     H226757   3.275   6.944   3.971
 6509WAT    EPW26758   3.257   7.000   3.919
 6510WAT      O26759   2.095   7.225   4.841
 6510WAT     H126760   2.138   7.297   4.866
 6510WAT     H226761   2.028   7.221   4.895
 6510WAT    EPW26762   2.092   7.235   4.852
 6511WAT      O26763   2.408   6.788   4.882
 6511WAT     H126764   2.359   6.721   4.854
 6511WAT     H226765   2.467   6.750   4.934
 6511WAT    EPW26766   2.409   6.772   4.885
 6512WAT      O26767   2.693   6.979   5.814
 6512WAT     H126768   2.692   6.949   5.733
 6512WAT     H226769   2.734   7.056   5.808
 6512WAT    EPW26770   2.699   6.986   5.801
 6513WAT      O26771   3.835   6.951   4.594
 6513WAT     H126772   3.784   7.021   4.607
 6513WAT     H226773   3.777   6.886   4.587
 6513WAT    EPW26774   3.819   6.952   4.595
 6514WAT      O26775   2.266   6.898   5.745
 6514WAT     H126776   2.186   6.871   5.725
 6514WAT     H226777   2.315   6.870   5.679
 6514WAT    EPW26778   2.261   6.890   5.732
 6515WAT      O26779   2.893   6.719   5.663
 6515WAT     H126780   2.907   6.647   5.615
 6515WAT     H226781   2.824   6.756   5.625
 6515WAT    EPW26782   2.885   6.714   5.650
 6516WAT      O26783   2.983   7.204   4.519
 6516WAT     H126784   3.014   7.161   4.449
 6516WAT     H226785   3.054   7.233   4.559
 6516WAT    EPW26786   2.998   7.202   4.514
 6517WAT      O26787   3.100   7.198   4.034
 6517WAT     H126788   3.110   7.276   4.070
 6517WAT     H226789   3.021   7.201   3.997
 6517WAT    EPW26790   3.090   7.210   4.034
 6518WAT      O26791   3.777   6.927   5.058
 6518WAT     H126792   3.830   6.907   4.992
 6518WAT     H226793   3.794   6.866   5.118
 6518WAT    EPW26794   3.787   6.915   5.057
 6519WAT      O26795   2.012   7.011   5.463
 6519WAT     H126796   2.001   7.088   5.503
 6519WAT     H226797   2.073   7.027   5.402
 6519WAT    EPW26798   2.020   7.025   5.460
 6520WAT      O26799   3.309   6.823   4.113
 6520WAT     H126800   3.365   6.756   4.114
 6520WAT     H226801   3.332   6.870   4.183
 6520WAT    EPW26802   3.321   6.820   4.123
 6521WAT      O26803   2.114   6.946   4.357
 6521WAT     H126804   2.095   6.861   4.347
 6521WAT     H226805   2.074   6.967   4.431
 6521WAT    EPW26806   2.105   6.936   4.367
 6522WAT      O26807   3.075   7.078   4.285
 6522WAT     H126808   3.016   7.016   4.268
 6522WAT     H226809   3.084   7.119   4.209
 6522WAT    EPW26810   3.067   7.075   4.272
 6523WAT      O26811   3.069   6.764   4.241
 6523WAT     H126812   3.012   6.746   4.178
 6523WAT     H226813   3.143   6.782   4.198
 6523WAT    EPW26814   3.071   6.764   4.226
 6524WAT      O26815   2.854   7.034   4.702
 6524WAT     H126816   2.897   7.087   4.648
 6524WAT     H226817   2.876   7.063   4.781
 6524WAT    EPW26818   2.864   7.046   4.706
 6525WAT      O26819   2.461   6.574   4.544
 6525WAT     H126820   2.482   6.656   4.524
 6525WAT     H226821   2.432   6.540   4.469
 6525WAT    EPW26822   2.460   6.581   4.530
 6526WAT      O26823   3.243   6.990   5.264
 6526WAT     H126824   3.246   7.027   5.343
 6526WAT     H226825   3.178   6.932   5.271
 6526WAT    EPW26826   3.234   6.987   5.277
 6527WAT      O26827   3.412   6.578   4.587
 6527WAT     H126828   3.405   6.540   4.665
 6527WAT     H226829   3.451   6.517   4.538
 6527WAT    EPW26830   3.417   6.563   4.591
 6528WAT      O26831   3.661   7.027   5.422
 6528WAT     H126832   3.746   7.023   5.441
 6528WAT     H226833   3.623   7.033   5.501
 6528WAT    EPW26834   3.668   7.027   5.437
 6529WAT      O26835   2.408   6.969   4.673
 6529WAT     H126836   2.443   6.920   4.610
 6529WAT     H226837   2.406   6.916   4.742
 6529WAT    EPW26838   2.413   6.954   4.673
 6530WAT      O26839   2.257   7.070   5.003
 6530WAT     H126840   2.339   7.090   4.979
 6530WAT     H226841   2.208   7.118   4.950
 6530WAT    EPW26842   2.262   7.080   4.991
 6531WAT      O26843   3.509   7.452   4.048
 6531WAT     H126844   3.515   7.539   4.039
 6531WAT     H226845   3.477   7.443   4.129
 6531WAT    EPW26846   3.505   7.464   4.059
 6532WAT      O26847   3.787   6.865   4.028
 6532WAT     H126848   3.859   6.827   3.996
 6532WAT     H226849   3.773   6.931   3.973
 6532WAT    EPW26850   3.796   6.869   4.015
 6533WAT      O26851   2.841   7.214   5.809
 6533WAT     H126852   2.776   7.262   5.842
 6533WAT     H226853   2.848   7.243   5.727
 6533WAT    EPW26854   2.833   7.225   5.802
 6534WAT      O26855   3.930   7.295   5.268
 6534WAT     H126856   3.994   7.236   5.266
 6534WAT     H226857   3.882   7.275   5.198
 6534WAT    EPW26858   3.932   7.284   5.257
 6535WAT      O26859   3.672   6.770   4.264
 6535WAT     H126860   3.748   6.732   4.285
 6535WAT     H226861   3.692   6.818   4.195
 6535WAT    EPW26862   3.686   6.771   4.257
 6536WAT      O26863   3.351   7.068   4.703
 6536WAT     H126864   3.369   7.081   4.787
 6536WAT     H226865   3.298   6.999   4.704
 6536WAT    EPW26866   3.346   7.060   4.716
 6537WAT      O26867   2.811   6.984   4.185
 6537WAT     H126868   2.789   6.966   4.103
 6537WAT     H226869   2.788   7.067   4.195
 6537WAT    EPW26870   2.804   6.993   4.175
 6538WAT      O26871   2.354   7.351   5.667
 6538WAT     H126872   2.325   7.284   5.714
 6538WAT     H226873   2.361   7.319   5.587
 6538WAT    EPW26874   2.351   7.336   5.662
 6539WAT      O26875   2.454   7.236   4.148
 6539WAT     H126876   2.434   7.179   4.212
 6539WAT     H226877   2.397   7.216   4.085
 6539WAT    EPW26878   2.442   7.224   4.148
 6540WAT      O26879   2.315   7.396   4.891
 6540WAT     H126880   2.339   7.416   4.810
 6540WAT     H226881   2.372   7.336   4.916
 6540WAT    EPW26882   2.327   7.390   4.883
 6541WAT      O26883   2.427   7.389   5.172
 6541WAT     H126884   2.471   7.342   5.114
 6541WAT     H226885   2.368   7.431   5.125
 6541WAT    EPW26886   2.425   7.388   5.157
 6542WAT      O26887   3.441   7.152   4.950
 6542WAT     H126888   3.394   7.190   5.014
 6542WAT     H226889   3.486   7.218   4.917
 6542WAT    EPW26890   3.440   7.167   4.955
 6543WAT      O26891   3.068   6.786   5.348
 6543WAT     H126892   3.094   6.707   5.321
 6543WAT     H226893   3.102   6.792   5.428
 6543WAT    EPW26894   3.077   6.776   5.356
 6544WAT      O26895   3.332   6.974   4.340
 6544WAT     H126896   3.388   7.040   4.352
 6544WAT     H226897   3.254   7.014   4.334
 6544WAT    EPW26898   3.329   6.990   4.341
 6545WAT      O26899   2.918   7.107   4.962
 6545WAT     H126900   2.978   7.170   4.955
 6545WAT     H226901   2.965   7.036   4.981
 6545WAT    EPW26902   2.934   7.105   4.964
 6546WAT      O26903   3.118   7.431   4.192
 6546WAT     H126904   3.108   7.508   4.153
 6546WAT     H226905   3.049   7.426   4.245
 6546WAT    EPW26906   3.106   7.442   4.194
 6547WAT      O26907   2.609   6.668   4.115
 6547WAT     H126908   2.605   6.654   4.201
 6547WAT     H226909   2.557   6.738   4.103
 6547WAT    EPW26910   2.601   6.676   4.126
 6548WAT      O26911   3.639   6.731   5.631
 6548WAT     H126912   3.594   6.681   5.575
 6548WAT     H226913   3.643   6.681   5.703
 6548WAT    EPW26914   3.633   6.716   5.633
 6549WAT      O26915   2.034   6.672   4.336
 6549WAT     H126916   2.033   6.616   4.269
 6549WAT     H226917   2.007   6.623   4.403
 6549WAT    EPW26918   2.030   6.656   4.336
 6550WAT      O26919   2.896   7.418   4.364
 6550WAT     H126920   2.867   7.482   4.416
 6550WAT     H226921   2.916   7.354   4.420
 6550WAT    EPW26922   2.894   7.418   4.380
 6551WAT      O26923   2.459   6.893   4.054
 6551WAT     H126924   2.396   6.892   3.993
 6551WAT     H226925   2.524   6.935   4.015
 6551WAT    EPW26926   2.459   6.899   4.039
 6552WAT      O26927   2.603   7.161   4.707
 6552WAT     H126928   2.681   7.122   4.699
 6552WAT     H226929   2.546   7.097   4.692
 6552WAT    EPW26930   2.606   7.146   4.703
 6553WAT      O26931   2.120   7.333   4.382
 6553WAT     H126932   2.147   7.280   4.446
 6553WAT     H226933   2.130   7.285   4.309
 6553WAT    EPW26934   2.126   7.318   4.380
 6554WAT      O26935   2.596   7.352   3.922
 6554WAT     H126936   2.559   7.330   3.998
 6554WAT     H226937   2.528   7.361   3.868
 6554WAT    EPW26938   2.581   7.350   3.925
 6555WAT      O26939   2.734   7.246   4.206
 6555WAT     H126940   2.767   7.311   4.253
 6555WAT     H226941   2.648   7.262   4.205
 6555WAT    EPW26942   2.726   7.258   4.213
 6556WAT      O26943   3.489   6.997   5.653
 6556WAT     H126944   3.423   6.999   5.710
 6556WAT     H226945   3.494   6.913   5.630
 6556WAT    EPW26946   3.480   6.985   5.658
 6557WAT      O26947   2.067   6.878   4.842
 6557WAT     H126948   2.050   6.915   4.765
 6557WAT     H226949   2.144   6.911   4.865
 6557WAT    EPW26950   2.076   6.888   4.834
 6558WAT      O26951   3.400   7.362   5.702
 6558WAT     H126952   3.417   7.383   5.785
 6558WAT     H226953   3.313   7.364   5.697
 6558WAT    EPW26954   3.389   7.365   5.714
 6559WAT      O26955   3.570   7.408   5.489
 6559WAT     H126956   3.590   7.492   5.501
 6559WAT     H226957   3.521   7.389   5.559
 6559WAT    EPW26958   3.565   7.418   5.501
 6560WAT      O26959   3.614   7.130   4.632
 6560WAT     H126960   3.541   7.089   4.654
 6560WAT     H226961   3.613   7.202   4.681
 6560WAT    EPW26962   3.603   7.135   4.642
 6561WAT      O26963   3.915   7.396   5.769
 6561WAT     H126964   3.897   7.372   5.687
 6561WAT     H226965   3.997   7.369   5.782
 6561WAT    EPW26966   3.924   7.388   5.759
 6562WAT      O26967   3.455   6.838   5.375
 6562WAT     H126968   3.524   6.891   5.370
 6562WAT     H226969   3.394   6.880   5.327
 6562WAT    EPW26970   3.456   6.852   5.367
 6563WAT      O26971   2.674   7.141   5.422
 6563WAT     H126972   2.675   7.059   5.451
 6563WAT     H226973   2.690   7.133   5.336
 6563WAT    EPW26974   2.676   7.128   5.413
 6564WAT      O26975   3.554   6.634   5.154
 6564WAT     H126976   3.524   6.712   5.129
 6564WAT     H226977   3.635   6.652   5.182
 6564WAT    EPW26978   3.561   6.648   5.155
 6565WAT      O26979   2.795   6.729   5.345
 6565WAT     H126980   2.879   6.750   5.339
 6565WAT     H226981   2.796   6.641   5.346
 6565WAT    EPW26982   2.808   6.719   5.345
 6566WAT      O26983   3.755   7.303   4.017
 6566WAT     H126984   3.812   7.347   3.969
 6566WAT     H226985   3.682   7.352   4.012
 6566WAT    EPW26986   3.752   7.317   4.009
 6567WAT      O26987   2.511   7.204   4.964
 6567WAT     H126988   2.546   7.194   4.885
 6567WAT     H226989   2.571   7.174   5.019
 6567WAT    EPW26990   2.525   7.198   4.961
 6568WAT      O26991   3.281   7.126   5.501
 6568WAT     H126992   3.229   7.164   5.560
 6568WAT     H226993   3.346   7.094   5.549
 6568WAT    EPW26994   3.283   7.127   5.517
 6569WAT      O26995   3.252   7.238   5.135
 6569WAT     H126996   3.273   7.288   5.203
 6569WAT     H226997   3.244   7.158   5.169
 6569WAT    EPW26998   3.254   7.233   5.150
 6570WAT      O26999   3.508   7.196   4.383
 6570WAT     H127000   3.533   7.175   4.464
 6570WAT     H227001   3.580   7.231   4.347
 6570WAT    EPW27002   3.522   7.198   4.389
 6571WAT      O27003   2.833   6.675   4.929
 6571WAT     H127004   2.750   6.663   4.954
 6571WAT     H227005   2.826   6.691   4.844
 6571WAT    EPW27006   2.820   6.676   4.920
 6572WAT      O27007   3.631   6.760   4.544
 6572WAT     H127008   3.555   6.723   4.565
 6572WAT     H227009   3.623   6.779   4.460
 6572WAT    EPW27010   3.619   6.757   4.535
 6573WAT      O27011   2.026   6.789   5.629
 6573WAT     H127012   2.025   6.860   5.579
 6573WAT     H227013   1.941   6.770   5.639
 6573WAT    EPW27014   2.013   6.797   5.623
 6574WAT      O27015   2.388   7.003   4.300
 6574WAT     H127016   2.398   6.967   4.221
 6574WAT     H227017   2.304   6.988   4.319
 6574WAT    EPW27018   2.377   6.995   4.291
 6575WAT      O27019   3.831   7.293   5.524
 6575WAT     H127020   3.747   7.318   5.517
 6575WAT     H227021   3.863   7.307   5.444
 6575WAT    EPW27022   3.823   7.299   5.511
 6576WAT      O27023   3.304   7.371   5.375
 6576WAT     H127024   3.306   7.291   5.410
 6576WAT     H227025   3.383   7.402   5.391
 6576WAT    EPW27026   3.316   7.363   5.383
 6577WAT      O27027   2.408   7.238   5.405
 6577WAT     H127028   2.414   7.297   5.341
 6577WAT     H227029   2.490   7.209   5.414
 6577WAT    EPW27030   2.421   7.242   5.397
 6578WAT      O27031   2.218   7.075   5.275
 6578WAT     H127032   2.233   7.078   5.189
 6578WAT     H227033   2.281   7.125   5.309
 6578WAT    EPW27034   2.230   7.083   5.267
 6579WAT      O27035   3.735   7.330   4.297
 6579WAT     H127036   3.751   7.330   4.212
 6579WAT     H227037   3.815   7.335   4.333
 6579WAT    EPW27038   3.749   7.331   4.290
 6580WAT      O27039   2.410   6.771   5.543
 6580WAT     H127040   2.366   6.696   5.550
 6580WAT     H227041   2.395   6.796   5.461
 6580WAT    EPW27042   2.401   6.763   5.532
 6581WAT      O27043   3.590   7.241   5.255
 6581WAT     H127044   3.609   7.167   5.297
 6581WAT     H227045   3.588   7.301   5.319
 6581WAT    EPW27046   3.592   7.239   5.271
 6582WAT      O27047   2.269   7.160   3.950
 6582WAT     H127048   2.204   7.161   4.008
 6582WAT     H227049   2.263   7.080   3.915
 6582WAT    EPW27050   2.258   7.148   3.953
 6583WAT      O27051   3.150   6.816   5.618
 6583WAT     H127052   3.176   6.880   5.671
 6583WAT     H227053   3.069   6.799   5.645
 6583WAT    EPW27054   3.142   6.823   5.630
 6584WAT      O27055   3.169   6.858   4.715
 6584WAT     H127056   3.089   6.869   4.748
 6584WAT     H227057   3.156   6.805   4.647
 6584WAT    EPW27058   3.156   6.852   4.710
 6585WAT      O27059   3.503   6.889   5.024
 6585WAT     H127060   3.591   6.895   5.024
 6585WAT     H227061   3.478   6.971   5.011
 6585WAT    EPW27062   3.512   6.902   5.022
 6586WAT      O27063   3.562   7.356   4.790
 6586WAT     H127064   3.629   7.409   4.807
 6586WAT     H227065   3.516   7.399   4.730
 6586WAT    EPW27066   3.565   7.370   4.784
 6587WAT      O27067   2.616   6.864   5.176
 6587WAT     H127068   2.535   6.844   5.203
 6587WAT     H227069   2.666   6.809   5.221
 6587WAT    EPW27070   2.611   6.853   5.187
 6588WAT      O27071   3.811   6.718   5.244
 6588WAT     H127072   3.821   6.735   5.329
 6588WAT     H227073   3.885   6.678   5.222
 6588WAT    EPW27074   3.823   6.715   5.254
 6589WAT      O27075   3.038   6.858   4.991
 6589WAT     H127076   2.976   6.797   4.986
 6589WAT     H227077   3.112   6.811   4.997
 6589WAT    EPW27078   3.040   6.842   4.991
 6590WAT      O27079   2.845   7.322   5.554
 6590WAT     H127080   2.798   7.266   5.507
 6590WAT     H227081   2.789   7.387   5.570
 6590WAT    EPW27082   2.830   7.323   5.550
 6591WAT      O27083   2.879   6.689   4.052
 6591WAT     H127084   2.885   6.703   3.966
 6591WAT     H227085   2.794   6.697   4.068
 6591WAT    EPW27086   2.868   6.693   4.042
 6592WAT      O27087   2.357   6.831   5.282
 6592WAT     H127088   2.301   6.769   5.258
 6592WAT     H227089   2.310   6.905   5.274
 6592WAT    EPW27090   2.342   6.833   5.277
 6593WAT      O27091   3.296   6.727   4.928
 6593WAT     H127092   3.359   6.781   4.955
 6593WAT     H227093   3.266   6.766   4.855
 6593WAT    EPW27094   3.300   6.741   4.921
 6594WAT      O27095   3.199   7.294   4.662
 6594WAT     H127096   3.250   7.224   4.669
 6594WAT     H227097   3.170   7.306   4.744
 6594WAT    EPW27098   3.203   7.286   4.675
 6595WAT      O27099   2.223   7.174   4.594
 6595WAT     H127100   2.171   7.181   4.664
 6595WAT     H227101   2.269   7.102   4.610
 6595WAT    EPW27102   2.222   7.165   4.607
 6596WAT      O27103   3.383   7.432   4.302
 6596WAT     H127104   3.409   7.353   4.327
 6596WAT     H227105   3.300   7.420   4.279
 6596WAT    EPW27106   3.375   7.419   4.302
 6597WAT      O27107   3.706   7.018   5.832
 6597WAT     H127108   3.705   7.102   5.856
 6597WAT     H227109   3.639   7.011   5.777
 6597WAT    EPW27110   3.696   7.029   5.828
 6598WAT      O27111   3.778   7.207   5.050
 6598WAT     H127112   3.707   7.227   5.097
 6598WAT     H227113   3.778   7.120   5.049
 6598WAT    EPW27114   3.767   7.197   5.056
 6599WAT      O27115   2.674   6.872   5.546
 6599WAT     H127116   2.708   6.832   5.477
 6599WAT     H227117   2.593   6.839   5.551
 6599WAT    EPW27118   2.667   6.861   5.537
 6600WAT      O27119   3.153   6.685   2.598
 6600WAT     H127120   3.155   6.730   2.523
 6600WAT     H227121   3.237   6.668   2.613
 6600WAT    EPW27122   3.166   6.689   2.589
 6601WAT      O27123   3.091   7.305   3.025
 6601WAT     H127124   3.067   7.385   3.049
 6601WAT     H227125   3.148   7.281   3.087
 6601WAT    EPW27126   3.096   7.313   3.038
 6602WAT      O27127   2.086   7.151   2.260
 6602WAT     H127128   2.006   7.162   2.228
 6602WAT     H227129   2.079   7.080   2.310
 6602WAT    EPW27130   2.074   7.142   2.262
 6603WAT      O27131   3.378   7.483   2.682
 6603WAT     H127132   3.381   7.479   2.594
 6603WAT     H227133   3.318   7.423   2.703
 6603WAT    EPW27134   3.370   7.473   2.672
 6604WAT      O27135   2.806   6.789   2.473
 6604WAT     H127136   2.801   6.856   2.417
 6604WAT     H227137   2.883   6.753   2.455
 6604WAT    EPW27138   2.816   6.794   2.462
 6605WAT      O27139   2.279   7.575   2.602
 6605WAT     H127140   2.228   7.524   2.553
 6605WAT     H227141   2.335   7.519   2.638
 6605WAT    EPW27142   2.280   7.559   2.600
 6606WAT      O27143   2.685   7.070   3.242
 6606WAT     H127144   2.756   7.080   3.192
 6606WAT     H227145   2.666   6.986   3.233
 6606WAT    EPW27146   2.693   7.059   3.234
 6607WAT      O27147   2.424   7.366   2.732
 6607WAT     H127148   2.496   7.319   2.742
 6607WAT     H227149   2.363   7.306   2.711
 6607WAT    EPW27150   2.425   7.350   2.730
 6608WAT      O27151   3.131   7.328   3.698
 6608WAT     H127152   3.045   7.324   3.683
 6608WAT     H227153   3.163   7.367   3.627
 6608WAT    EPW27154   3.123   7.333   3.685
 6609WAT      O27155   2.533   6.830   2.558
 6609WAT     H127156   2.493   6.883   2.501
 6609WAT     H227157   2.615   6.825   2.527
 6609WAT    EPW27158   2.539   6.837   2.545
 6610WAT      O27159   3.507   6.589   3.541
 6610WAT     H127160   3.485   6.655   3.489
 6610WAT     H227161   3.434   6.571   3.585
 6610WAT    EPW27162   3.493   6.596   3.540
 6611WAT      O27163   2.832   6.755   2.751
 6611WAT     H127164   2.838   6.838   2.775
 6611WAT     H227165   2.811   6.759   2.666
 6611WAT    EPW27166   2.830   6.768   2.742
 6612WAT      O27167   3.259   6.994   2.007
 6612WAT     H127168   3.214   7.060   2.042
 6612WAT     H227169   3.273   6.941   2.075
 6612WAT    EPW27170   3.255   6.996   2.022
 6613WAT      O27171   2.097   7.226   2.936
 6613WAT     H127172   2.139   7.297   2.965
 6613WAT     H227173   2.030   7.218   2.991
 6613WAT    EPW27174   2.094   7.236   2.949
 6614WAT      O27175   2.455   6.813   2.983
 6614WAT     H127176   2.407   6.742   2.969
 6614WAT     H227177   2.499   6.794   3.056
 6614WAT    EPW27178   2.454   6.800   2.992
 6615WAT      O27179   2.694   6.979   3.920
 6615WAT     H127180   2.695   6.949   3.838
 6615WAT     H227181   2.737   7.055   3.915
 6615WAT    EPW27182   2.701   6.985   3.907
 6616WAT      O27183   3.834   6.971   2.696
 6616WAT     H127184   3.786   7.043   2.710
 6616WAT     H227185   3.774   6.909   2.684
 6616WAT    EPW27186   3.818   6.972   2.696
 6617WAT      O27187   2.268   6.899   3.846
 6617WAT     H127188   2.187   6.872   3.825
 6617WAT     H227189   2.316   6.871   3.779
 6617WAT    EPW27190   2.263   6.891   3.833
 6618WAT      O27191   2.894   6.724   3.779
 6618WAT     H127192   2.910   6.652   3.732
 6618WAT     H227193   2.824   6.759   3.739
 6618WAT    EPW27194   2.886   6.719   3.766
 6619WAT      O27195   2.994   7.210   2.620
 6619WAT     H127196   3.021   7.167   2.549
 6619WAT     H227197   3.067   7.232   2.661
 6619WAT    EPW27198   3.009   7.207   2.616
 6620WAT      O27199   3.096   7.195   2.133
 6620WAT     H127200   3.107   7.275   2.166
 6620WAT     H227201   3.016   7.199   2.098
 6620WAT    EPW27202   3.086   7.207   2.132
 6621WAT      O27203   3.744   6.891   3.117
 6621WAT     H127204   3.807   6.878   3.058
 6621WAT     H227205   3.764   6.835   3.181
 6621WAT    EPW27206   3.756   6.881   3.118
 6622WAT      O27207   2.014   7.016   3.564
 6622WAT     H127208   2.004   7.093   3.604
 6622WAT     H227209   2.071   7.034   3.500
 6622WAT    EPW27210   2.021   7.030   3.560
 6623WAT      O27211   3.310   6.822   2.219
 6623WAT     H127212   3.364   6.753   2.222
 6623WAT     H227213   3.331   6.868   2.290
 6623WAT    EPW27214   3.321   6.818   2.230
 6624WAT      O27215   2.111   6.943   2.455
 6624WAT     H127216   2.092   6.859   2.445
 6624WAT     H227217   2.070   6.964   2.530
 6624WAT    EPW27218   2.102   6.934   2.465
 6625WAT      O27219   3.074   7.079   2.385
 6625WAT     H127220   3.009   7.023   2.368
 6625WAT     H227221   3.085   7.121   2.309
 6625WAT    EPW27222   3.066   7.077   2.372
 6626WAT      O27223   3.065   6.761   2.336
 6626WAT     H127224   3.007   6.753   2.271
 6626WAT     H227225   3.140   6.779   2.294
 6626WAT    EPW27226   3.068   6.762   2.320
 6627WAT      O27227   2.877   7.028   2.797
 6627WAT     H127228   2.910   7.090   2.745
 6627WAT     H227229   2.885   7.061   2.877
 6627WAT    EPW27230   2.883   7.042   2.801
 6628WAT      O27231   2.462   6.576   2.641
 6628WAT     H127232   2.484   6.657   2.617
 6628WAT     H227233   2.428   6.542   2.568
 6628WAT    EPW27234   2.460   6.583   2.626
 6629WAT      O27235   3.227   6.974   3.353
 6629WAT     H127236   3.238   7.009   3.432
 6629WAT     H227237   3.158   6.922   3.362
 6629WAT    EPW27238   3.219   6.972   3.366
 6630WAT      O27239   3.411   6.605   2.679
 6630WAT     H127240   3.412   6.588   2.765
 6630WAT     H227241   3.445   6.534   2.643
 6630WAT    EPW27242   3.416   6.592   2.687
 6631WAT      O27243   3.622   7.008   3.490
 6631WAT     H127244   3.709   7.009   3.504
 6631WAT     H227245   3.589   7.008   3.570
 6631WAT    EPW27246   3.630   7.008   3.503
 6632WAT      O27247   2.414   6.977   2.765
 6632WAT     H127248   2.446   6.927   2.701
 6632WAT     H227249   2.420   6.927   2.836
 6632WAT    EPW27250   2.420   6.962   2.766
 6633WAT      O27251   2.252   7.059   3.091
 6633WAT     H127252   2.335   7.078   3.069
 6633WAT     H227253   2.205   7.114   3.042
 6633WAT    EPW27254   2.257   7.070   3.081
 6634WAT      O27255   3.507   7.461   2.149
 6634WAT     H127256   3.510   7.547   2.140
 6634WAT     H227257   3.475   7.449   2.230
 6634WAT    EPW27258   3.503   7.472   2.160
 6635WAT      O27259   3.798   6.880   2.130
 6635WAT     H127260   3.856   6.831   2.086
 6635WAT     H227261   3.779   6.944   2.073
 6635WAT    EPW27262   3.804   6.882   2.115
 6636WAT      O27263   2.846   7.212   3.909
 6636WAT     H127264   2.781   7.261   3.941
 6636WAT     H227265   2.851   7.237   3.826
 6636WAT    EPW27266   2.837   7.223   3.902
 6637WAT      O27267   3.915   7.282   3.349
 6637WAT     H127268   3.978   7.222   3.350
 6637WAT     H227269   3.863   7.256   3.284
 6637WAT    EPW27270   3.916   7.270   3.340
 6638WAT      O27271   3.671   6.783   2.359
 6638WAT     H127272   3.746   6.747   2.384
 6638WAT     H227273   3.693   6.829   2.288
 6638WAT    EPW27274   3.685   6.785   2.352
 6639WAT      O27275   3.367   7.043   2.815
 6639WAT     H127276   3.399   7.007   2.887
 6639WAT     H227277   3.302   6.988   2.792
 6639WAT    EPW27278   3.362   7.029   2.822
 6640WAT      O27279   2.817   6.986   2.286
 6640WAT     H127280   2.793   6.968   2.204
 6640WAT     H227281   2.788   7.067   2.298
 6640WAT    EPW27282   2.809   6.995   2.275
 6641WAT      O27283   2.359   7.347   3.763
 6641WAT     H127284   2.327   7.281   3.811
 6641WAT     H227285   2.364   7.314   3.683
 6641WAT    EPW27286   2.355   7.332   3.759
 6642WAT      O27287   2.451   7.234   2.252
 6642WAT     H127288   2.432   7.176   2.315
 6642WAT     H227289   2.396   7.213   2.187
 6642WAT    EPW27290   2.440   7.223   2.252
 6643WAT      O27291   2.320   7.391   2.995
 6643WAT     H127292   2.345   7.410   2.913
 6643WAT     H227293   2.375   7.327   3.018
 6643WAT    EPW27294   2.332   7.384   2.986
 6644WAT      O27295   2.438   7.385   3.270
 6644WAT     H127296   2.479   7.334   3.212
 6644WAT     H227297   2.380   7.429   3.221
 6644WAT    EPW27298   2.435   7.384   3.254
 6645WAT      O27299   3.506   7.212   3.078
 6645WAT     H127300   3.443   7.237   3.133
 6645WAT     H227301   3.508   7.276   3.019
 6645WAT    EPW27302   3.497   7.225   3.078
 6646WAT      O27303   3.049   6.778   3.454
 6646WAT     H127304   3.078   6.700   3.427
 6646WAT     H227305   3.087   6.788   3.532
 6646WAT    EPW27306   3.059   6.768   3.461
 6647WAT      O27307   3.327   6.971   2.448
 6647WAT     H127308   3.383   7.037   2.457
 6647WAT     H227309   3.250   7.011   2.437
 6647WAT    EPW27310   3.324   6.987   2.448
 6648WAT      O27311   2.898   7.104   3.061
 6648WAT     H127312   2.961   7.164   3.060
 6648WAT     H227313   2.940   7.032   3.087
 6648WAT    EPW27314   2.914   7.102   3.065
 6649WAT      O27315   3.117   7.431   2.286
 6649WAT     H127316   3.105   7.506   2.243
 6649WAT     H227317   3.049   7.426   2.340
 6649WAT    EPW27318   3.105   7.441   2.288
 6650WAT      O27319   2.607   6.666   2.193
 6650WAT     H127320   2.602   6.644   2.277
 6650WAT     H227321   2.554   6.735   2.187
 6650WAT    EPW27322   2.598   6.673   2.204
 6651WAT      O27323   3.634   6.731   3.746
 6651WAT     H127324   3.599   6.684   3.682
 6651WAT     H227325   3.640   6.675   3.812
 6651WAT    EPW27326   3.630   6.716   3.746
 6652WAT      O27327   2.034   6.668   2.434
 6652WAT     H127328   2.034   6.612   2.367
 6652WAT     H227329   2.006   6.619   2.501
 6652WAT    EPW27330   2.030   6.653   2.434
 6653WAT      O27331   2.899   7.422   2.464
 6653WAT     H127332   2.871   7.487   2.515
 6653WAT     H227333   2.921   7.359   2.520
 6653WAT    EPW27334   2.898   7.422   2.480
 6654WAT      O27335   2.457   6.894   2.152
 6654WAT     H127336   2.395   6.892   2.091
 6654WAT     H227337   2.523   6.936   2.114
 6654WAT    EPW27338   2.458   6.900   2.137
 6655WAT      O27339   2.614   7.159   2.808
 6655WAT     H127340   2.690   7.119   2.796
 6655WAT     H227341   2.555   7.098   2.789
 6655WAT    EPW27342   2.617   7.144   2.804
 6656WAT      O27343   2.121   7.334   2.478
 6656WAT     H127344   2.148   7.281   2.542
 6656WAT     H227345   2.131   7.286   2.406
 6656WAT    EPW27346   2.126   7.319   2.477
 6657WAT      O27347   2.592   7.356   2.032
 6657WAT     H127348   2.553   7.330   2.106
 6657WAT     H227349   2.526   7.366   1.976
 6657WAT    EPW27350   2.576   7.354   2.035
 6658WAT      O27351   2.727   7.240   2.325
 6658WAT     H127352   2.761   7.311   2.362
 6658WAT     H227353   2.643   7.260   2.315
 6658WAT    EPW27354   2.720   7.254   2.329
 6659WAT      O27355   3.497   6.981   3.747
 6659WAT     H127356   3.436   6.986   3.808
 6659WAT     H227357   3.529   6.900   3.757
 6659WAT    EPW27358   3.493   6.970   3.758
 6660WAT      O27359   2.073   6.871   2.936
 6660WAT     H127360   2.051   6.910   2.862
 6660WAT     H227361   2.141   6.918   2.965
 6660WAT    EPW27362   2.080   6.883   2.930
 6661WAT      O27363   3.401   7.335   3.810
 6661WAT     H127364   3.417   7.364   3.891
 6661WAT     H227365   3.314   7.339   3.804
 6661WAT    EPW27366   3.390   7.340   3.821
 6662WAT      O27367   3.598   7.407   3.630
 6662WAT     H127368   3.594   7.494   3.633
 6662WAT     H227369   3.535   7.382   3.684
 6662WAT    EPW27370   3.588   7.416   3.638
 6663WAT      O27371   3.611   7.151   2.734
 6663WAT     H127372   3.542   7.105   2.761
 6663WAT     H227373   3.605   7.226   2.778
 6663WAT    EPW27374   3.600   7.155   2.744
 6664WAT      O27375   3.947   7.405   3.841
 6664WAT     H127376   3.921   7.366   3.768
 6664WAT     H227377   4.033   7.412   3.832
 6664WAT    EPW27378   3.956   7.400   3.829
 6665WAT      O27379   3.455   6.813   3.378
 6665WAT     H127380   3.511   6.875   3.402
 6665WAT     H227381   3.382   6.857   3.360
 6665WAT    EPW27382   3.452   6.829   3.379
 6666WAT      O27383   2.669   7.128   3.518
 6666WAT     H127384   2.670   7.050   3.557
 6666WAT     H227385   2.681   7.110   3.434
 6666WAT    EPW27386   2.671   7.114   3.512
 6667WAT      O27387   3.547   6.615   3.204
 6667WAT     H127388   3.512   6.685   3.242
 6667WAT     H227389   3.632   6.620   3.225
 6667WAT    EPW27390   3.554   6.626   3.213
 6668WAT      O27391   2.776   6.718   3.449
 6668WAT     H127392   2.860   6.739   3.442
 6668WAT     H227393   2.777   6.640   3.489
 6668WAT    EPW27394   2.789   6.710   3.454
 6669WAT      O27395   3.753   7.311   2.119
 6669WAT     H127396   3.814   7.353   2.073
 6669WAT     H227397   3.683   7.362   2.112
 6669WAT    EPW27398   3.752   7.325   2.111
 6670WAT      O27399   2.510   7.191   3.065
 6670WAT     H127400   2.550   7.185   2.988
 6670WAT     H227401   2.563   7.150   3.121
 6670WAT    EPW27402   2.524   7.184   3.062
 6671WAT      O27403   3.279   7.101   3.596
 6671WAT     H127404   3.228   7.141   3.654
 6671WAT     H227405   3.346   7.072   3.643
 6671WAT    EPW27406   3.281   7.103   3.611
 6672WAT      O27407   3.259   7.221   3.223
 6672WAT     H127408   3.267   7.267   3.296
 6672WAT     H227409   3.249   7.139   3.251
 6672WAT    EPW27410   3.259   7.216   3.238
 6673WAT      O27411   3.503   7.195   2.481
 6673WAT     H127412   3.528   7.179   2.563
 6673WAT     H227413   3.574   7.228   2.444
 6673WAT    EPW27414   3.517   7.197   2.488
 6674WAT      O27415   2.837   6.648   3.017
 6674WAT     H127416   2.761   6.615   3.043
 6674WAT     H227417   2.821   6.675   2.936
 6674WAT    EPW27418   2.824   6.647   3.009
 6675WAT      O27419   3.622   6.792   2.636
 6675WAT     H127420   3.545   6.754   2.653
 6675WAT     H227421   3.618   6.808   2.550
 6675WAT    EPW27422   3.610   6.789   2.626
 6676WAT      O27423   2.029   6.792   3.728
 6676WAT     H127424   2.028   6.864   3.678
 6676WAT     H227425   1.944   6.774   3.739
 6676WAT    EPW27426   2.016   6.800   3.722
 6677WAT      O27427   2.384   7.000   2.398
 6677WAT     H127428   2.395   6.965   2.319
 6677WAT     H227429   2.300   6.985   2.416
 6677WAT    EPW27430   2.373   6.993   2.389
 6678WAT      O27431   3.845   7.280   3.615
 6678WAT     H127432   3.767   7.317   3.623
 6678WAT     H227433   3.867   7.295   3.532
 6678WAT    EPW27434   3.837   7.288   3.604
 6679WAT      O27435   3.301   7.343   3.465
 6679WAT     H127436   3.297   7.267   3.507
 6679WAT     H227437   3.385   7.348   3.440
 6679WAT    EPW27438   3.313   7.333   3.467
 6680WAT      O27439   2.405   7.231   3.499
 6680WAT     H127440   2.413   7.292   3.437
 6680WAT     H227441   2.486   7.200   3.509
 6680WAT    EPW27442   2.418   7.236   3.491
 6681WAT      O27443   2.210   7.074   3.365
 6681WAT     H127444   2.224   7.075   3.279
 6681WAT     H227445   2.272   7.126   3.397
 6681WAT    EPW27446   2.221   7.082   3.357
 6682WAT      O27447   3.732   7.329   2.397
 6682WAT     H127448   3.748   7.330   2.312
 6682WAT     H227449   3.811   7.335   2.434
 6682WAT    EPW27450   3.746   7.330   2.390
 6683WAT      O27451   2.409   6.771   3.642
 6683WAT     H127452   2.361   6.698   3.649
 6683WAT     H227453   2.394   6.797   3.560
 6683WAT    EPW27454   2.399   6.764   3.631
 6684WAT      O27455   3.559   7.269   3.390
 6684WAT     H127456   3.580   7.186   3.407
 6684WAT     H227457   3.590   7.312   3.460
 6684WAT    EPW27458   3.567   7.263   3.403
 6685WAT      O27459   2.271   7.156   2.051
 6685WAT     H127460   2.206   7.158   2.108
 6685WAT     H227461   2.264   7.077   2.014
 6685WAT    EPW27462   2.260   7.144   2.054
 6686WAT      O27463   3.148   6.818   3.717
 6686WAT     H127464   3.180   6.881   3.768
 6686WAT     H227465   3.070   6.801   3.751
 6686WAT    EPW27466   3.141   6.825   3.729
 6687WAT      O27467   3.137   6.883   2.794
 6687WAT     H127468   3.057   6.919   2.793
 6687WAT     H227469   3.132   6.822   2.732
 6687WAT    EPW27470   3.124   6.879   2.784
 6688WAT      O27471   3.472   6.940   3.053
 6688WAT     H127472   3.552   6.909   3.065
 6688WAT     H227473   3.479   7.024   3.073
 6688WAT    EPW27474   3.485   6.948   3.058
 6689WAT      O27475   3.559   7.392   2.869
 6689WAT     H127476   3.626   7.449   2.870
 6689WAT     H227477   3.504   7.428   2.811
 6689WAT    EPW27478   3.561   7.406   2.860
 6690WAT      O27479   2.597   6.807   3.240
 6690WAT     H127480   2.523   6.812   3.286
 6690WAT     H227481   2.652   6.767   3.295
 6690WAT    EPW27482   2.594   6.802   3.255
 6691WAT      O27483   3.798   6.702   3.319
 6691WAT     H127484   3.785   6.741   3.396
 6691WAT     H227485   3.880   6.673   3.324
 6691WAT    EPW27486   3.808   6.704   3.331
 6692WAT      O27487   2.995   6.855   3.128
 6692WAT     H127488   2.943   6.790   3.101
 6692WAT     H227489   3.075   6.826   3.110
 6692WAT    EPW27490   2.999   6.842   3.121
 6693WAT      O27491   2.847   7.307   3.648
 6693WAT     H127492   2.798   7.252   3.602
 6693WAT     H227493   2.793   7.375   3.661
 6693WAT    EPW27494   2.832   7.309   3.643
 6694WAT      O27495   2.876   6.705   2.140
 6694WAT     H127496   2.886   6.710   2.054
 6694WAT     H227497   2.790   6.708   2.152
 6694WAT    EPW27498   2.865   6.706   2.129
 6695WAT      O27499   2.357   6.834   3.380
 6695WAT     H127500   2.300   6.770   3.361
 6695WAT     H227501   2.309   6.907   3.371
 6695WAT    EPW27502   2.341   6.835   3.376
 6696WAT      O27503   3.244   6.777   3.028
 6696WAT     H127504   3.310   6.831   3.047
 6696WAT     H227505   3.212   6.810   2.954
 6696WAT    EPW27506   3.249   6.790   3.020
 6697WAT      O27507   3.214   7.274   2.775
 6697WAT     H127508   3.267   7.206   2.788
 6697WAT     H227509   3.178   7.287   2.853
 6697WAT    EPW27510   3.217   7.266   2.788
 6698WAT      O27511   2.225   7.177   2.690
 6698WAT     H127512   2.173   7.183   2.760
 6698WAT     H227513   2.271   7.104   2.705
 6698WAT    EPW27514   2.224   7.167   2.703
 6699WAT      O27515   3.378   7.432   2.400
 6699WAT     H127516   3.405   7.352   2.424
 6699WAT     H227517   3.296   7.419   2.373
 6699WAT    EPW27518   3.370   7.418   2.399
 6700WAT      O27519   3.741   7.073   3.855
 6700WAT     H127520   3.739   7.148   3.898
 6700WAT     H227521   3.660   7.064   3.824
 6700WAT    EPW27522   3.729   7.082   3.857
 6701WAT      O27523   3.778   7.171   3.130
 6701WAT     H127524   3.695   7.195   3.124
 6701WAT     H227525   3.774   7.084   3.131
 6701WAT    EPW27526   3.765   7.161   3.130
 6702WAT      O27527   2.673   6.870   3.652
 6702WAT     H127528   2.705   6.829   3.581
 6702WAT     H227529   2.592   6.838   3.658
 6702WAT    EPW27530   2.666   6.859   3.642
 6703WAT      O27531   3.198   6.681   0.669
 6703WAT     H127532   3.219   6.715   0.591
 6703WAT     H227533   3.274   6.651   0.700
 6703WAT    EPW27534   3.212   6.682   0.662
 6704WAT      O27535   3.101   7.317   1.127
 6704WAT     H127536   3.076   7.397   1.154
 6704WAT     H227537   3.155   7.290   1.190
 6704WAT    EPW27538   3.105   7.325   1.140
 6705WAT      O27539   2.134   7.166   0.387
 6705WAT     H127540   2.064   7.175   0.336
 6705WAT     H227541   2.117   7.095   0.434
 6705WAT    EPW27542   2.121   7.157   0.386
 6706WAT      O27543   3.386   7.493   0.803
 6706WAT     H127544   3.393   7.494   0.716
 6706WAT     H227545   3.327   7.431   0.818
 6706WAT    EPW27546   3.378   7.484   0.792
 6707WAT      O27547   2.821   6.781   0.620
 6707WAT     H127548   2.831   6.857   0.579
 6707WAT     H227549   2.836   6.722   0.557
 6707WAT    EPW27550   2.825   6.784   0.604
 6708WAT      O27551   2.295   7.596   0.698
 6708WAT     H127552   2.237   7.546   0.655
 6708WAT     H227553   2.345   7.539   0.740
 6708WAT    EPW27554   2.294   7.580   0.698
 6709WAT      O27555   2.698   7.115   1.345
 6709WAT     H127556   2.770   7.115   1.296
 6709WAT     H227557   2.680   7.030   1.355
 6709WAT    EPW27558   2.706   7.102   1.339
 6710WAT      O27559   2.414   7.380   0.836
 6710WAT     H127560   2.485   7.333   0.851
 6710WAT     H227561   2.353   7.320   0.818
 6710WAT    EPW27562   2.415   7.364   0.836
 6711WAT      O27563   3.139   7.341   1.805
 6711WAT     H127564   3.053   7.337   1.788
 6711WAT     H227565   3.173   7.370   1.730
 6711WAT    EPW27566   3.131   7.345   1.791
 6712WAT      O27567   2.548   6.818   0.694
 6712WAT     H127568   2.503   6.849   0.627
 6712WAT     H227569   2.629   6.810   0.663
 6712WAT    EPW27570   2.553   6.821   0.680
 6713WAT      O27571   3.510   6.595   1.663
 6713WAT     H127572   3.484   6.658   1.608
 6713WAT     H227573   3.436   6.572   1.704
 6713WAT    EPW27574   3.495   6.601   1.661
 6714WAT      O27575   2.886   6.779   0.889
 6714WAT     H127576   2.865   6.861   0.910
 6714WAT     H227577   2.865   6.773   0.805
 6714WAT    EPW27578   2.880   6.790   0.880
 6715WAT      O27579   2.092   7.229   1.049
 6715WAT     H127580   2.135   7.299   1.077
 6715WAT     H227581   2.025   7.221   1.105
 6715WAT    EPW27582   2.088   7.238   1.061
 6716WAT      O27583   2.377   6.790   1.085
 6716WAT     H127584   2.340   6.719   1.050
 6716WAT     H227585   2.437   6.757   1.140
 6716WAT    EPW27586   2.381   6.775   1.088
 6717WAT      O27587   2.695   6.982   2.023
 6717WAT     H127588   2.689   6.955   1.941
 6717WAT     H227589   2.735   7.059   2.017
 6717WAT    EPW27590   2.700   6.989   2.010
 6718WAT      O27591   3.827   6.973   0.799
 6718WAT     H127592   3.775   7.041   0.817
 6718WAT     H227593   3.771   6.908   0.783
 6718WAT    EPW27594   3.811   6.974   0.799
 6719WAT      O27595   2.263   6.896   1.947
 6719WAT     H127596   2.183   6.868   1.927
 6719WAT     H227597   2.311   6.869   1.879
 6719WAT    EPW27598   2.258   6.888   1.934
 6720WAT      O27599   2.907   6.704   1.867
 6720WAT     H127600   2.934   6.628   1.834
 6720WAT     H227601   2.850   6.733   1.808
 6720WAT    EPW27602   2.903   6.697   1.853
 6721WAT      O27603   2.998   7.208   0.736
 6721WAT     H127604   3.028   7.167   0.665
 6721WAT     H227605   3.071   7.230   0.779
 6721WAT    EPW27606   3.013   7.205   0.732
 6722WAT      O27607   3.080   7.264   0.275
 6722WAT     H127608   3.095   7.339   0.317
 6722WAT     H227609   2.997   7.271   0.249
 6722WAT    EPW27610   3.070   7.276   0.277
 6723WAT      O27611   3.751   6.898   1.232
 6723WAT     H127612   3.811   6.884   1.171
 6723WAT     H227613   3.769   6.838   1.293
 6723WAT    EPW27614   3.762   6.887   1.232
 6724WAT      O27615   2.009   7.009   1.664
 6724WAT     H127616   2.000   7.085   1.706
 6724WAT     H227617   2.071   7.025   1.605
 6724WAT    EPW27618   2.017   7.023   1.662
 6725WAT      O27619   3.258   6.760   0.409
 6725WAT     H127620   3.323   6.712   0.376
 6725WAT     H227621   3.296   6.834   0.432
 6725WAT    EPW27622   3.273   6.764   0.407
 6726WAT      O27623   2.096   6.943   0.559
 6726WAT     H127624   2.069   6.862   0.540
 6726WAT     H227625   2.055   6.961   0.634
 6726WAT    EPW27626   2.086   6.934   0.567
 6727WAT      O27627   3.075   7.095   0.494
 6727WAT     H127628   3.004   7.049   0.476
 6727WAT     H227629   3.085   7.147   0.424
 6727WAT    EPW27630   3.066   7.096   0.481
 6728WAT      O27631   2.986   6.751   0.347
 6728WAT     H127632   2.957   6.833   0.343
 6728WAT     H227633   3.072   6.760   0.359
 6728WAT    EPW27634   2.995   6.765   0.348
 6729WAT      O27635   2.842   7.053   0.912
 6729WAT     H127636   2.893   7.101   0.860
 6729WAT     H227637   2.868   7.076   0.992
 6729WAT    EPW27638   2.854   7.063   0.916
 6730WAT      O27639   2.474   6.560   0.753
 6730WAT     H127640   2.496   6.643   0.738
 6730WAT     H227641   2.441   6.533   0.676
 6730WAT    EPW27642   2.472   6.568   0.739
 6731WAT      O27643   3.228   6.976   1.455
 6731WAT     H127644   3.229   7.006   1.536
 6731WAT     H227645   3.160   6.921   1.454
 6731WAT    EPW27646   3.218   6.972   1.467
 6732WAT      O27647   3.433   6.596   0.781
 6732WAT     H127648   3.433   6.577   0.866
 6732WAT     H227649   3.466   6.524   0.744
 6732WAT    EPW27650   3.438   6.583   0.788
 6733WAT      O27651   3.622   7.028   1.596
 6733WAT     H127652   3.708   7.022   1.608
 6733WAT     H227653   3.589   7.026   1.676
 6733WAT    EPW27654   3.630   7.027   1.609
 6734WAT      O27655   2.407   6.973   0.880
 6734WAT     H127656   2.448   6.923   0.822
 6734WAT     H227657   2.398   6.921   0.949
 6734WAT    EPW27658   2.412   6.958   0.881
 6735WAT      O27659   2.260   7.082   1.217
 6735WAT     H127660   2.340   7.107   1.190
 6735WAT     H227661   2.207   7.119   1.158
 6735WAT    EPW27662   2.264   7.091   1.204
 6736WAT      O27663   3.518   7.357   0.276
 6736WAT     H127664   3.444   7.313   0.261
 6736WAT     H227665   3.501   7.404   0.347
 6736WAT    EPW27666   3.504   7.357   0.284
 6737WAT      O27667   3.734   6.968   0.243
 6737WAT     H127668   3.756   6.944   0.162
 6737WAT     H227669   3.740   7.055   0.241
 6737WAT    EPW27670   3.738   6.977   0.230
 6738WAT      O27671   2.839   7.220   2.012
 6738WAT     H127672   2.771   7.267   2.038
 6738WAT     H227673   2.851   7.245   1.929
 6738WAT    EPW27674   2.831   7.231   2.003
 6739WAT      O27675   3.921   7.293   1.456
 6739WAT     H127676   3.982   7.230   1.458
 6739WAT     H227677   3.867   7.266   1.393
 6739WAT    EPW27678   3.922   7.279   1.447
 6740WAT      O27679   3.650   6.782   0.439
 6740WAT     H127680   3.729   6.749   0.455
 6740WAT     H227681   3.665   6.847   0.383
 6740WAT    EPW27682   3.664   6.787   0.433
 6741WAT      O27683   3.360   7.037   0.929
 6741WAT     H127684   3.396   7.004   1.001
 6741WAT     H227685   3.300   6.977   0.906
 6741WAT    EPW27686   3.356   7.023   0.936
 6742WAT      O27687   2.827   6.983   0.419
 6742WAT     H127688   2.765   6.927   0.394
 6742WAT     H227689   2.790   7.061   0.406
 6742WAT    EPW27690   2.812   6.986   0.414
 6743WAT      O27691   2.353   7.354   1.874
 6743WAT     H127692   2.325   7.285   1.919
 6743WAT     H227693   2.360   7.325   1.793
 6743WAT    EPW27694   2.350   7.340   1.869
 6744WAT      O27695   2.428   7.161   0.369
 6744WAT     H127696   2.422   7.102   0.434
 6744WAT     H227697   2.346   7.188   0.358
 6744WAT    EPW27698   2.415   7.156   0.377
 6745WAT      O27699   2.309   7.403   1.099
 6745WAT     H127700   2.334   7.422   1.018
 6745WAT     H227701   2.367   7.343   1.125
 6745WAT    EPW27702   2.321   7.397   1.091
 6746WAT      O27703   2.426   7.401   1.377
 6746WAT     H127704   2.469   7.352   1.320
 6746WAT     H227705   2.364   7.439   1.329
 6746WAT    EPW27706   2.423   7.400   1.362
 6747WAT      O27707   3.508   7.211   1.190
 6747WAT     H127708   3.439   7.234   1.239
 6747WAT     H227709   3.511   7.275   1.130
 6747WAT    EPW27710   3.498   7.224   1.189
 6748WAT      O27711   3.061   6.760   1.555
 6748WAT     H127712   3.089   6.682   1.528
 6748WAT     H227713   3.104   6.772   1.630
 6748WAT    EPW27714   3.072   6.750   1.562
 6749WAT      O27715   3.339   6.996   0.521
 6749WAT     H127716   3.395   7.060   0.541
 6749WAT     H227717   3.261   7.035   0.522
 6749WAT    EPW27718   3.336   7.011   0.524
 6750WAT      O27719   2.916   7.111   1.171
 6750WAT     H127720   2.977   7.172   1.163
 6750WAT     H227721   2.961   7.039   1.192
 6750WAT    EPW27722   2.932   7.109   1.173
 6751WAT      O27723   3.127   7.482   0.441
 6751WAT     H127724   3.119   7.566   0.420
 6751WAT     H227725   3.056   7.466   0.490
 6751WAT    EPW27726   3.115   7.492   0.446
 6752WAT      O27727   2.638   6.786   0.364
 6752WAT     H127728   2.624   6.702   0.382
 6752WAT     H227729   2.571   6.808   0.313
 6752WAT    EPW27730   2.626   6.777   0.359
 6753WAT      O27731   3.636   6.746   1.856
 6753WAT     H127732   3.600   6.697   1.794
 6753WAT     H227733   3.641   6.692   1.925
 6753WAT    EPW27734   3.631   6.731   1.857
 6754WAT      O27735   2.010   6.675   0.509
 6754WAT     H127736   2.013   6.617   0.444
 6754WAT     H227737   1.986   6.628   0.578
 6754WAT    EPW27738   2.007   6.660   0.509
 6755WAT      O27739   2.897   7.419   0.586
 6755WAT     H127740   2.861   7.477   0.641
 6755WAT     H227741   2.922   7.354   0.637
 6755WAT    EPW27742   2.895   7.418   0.601
 6756WAT      O27743   2.421   6.910   0.232
 6756WAT     H127744   2.387   6.909   0.151
 6756WAT     H227745   2.430   6.995   0.249
 6756WAT    EPW27746   2.417   6.923   0.222
 6757WAT      O27747   2.593   7.174   0.912
 6757WAT     H127748   2.672   7.137   0.906
 6757WAT     H227749   2.538   7.108   0.898
 6757WAT    EPW27750   2.596   7.159   0.909
 6758WAT      O27751   2.134   7.351   0.600
 6758WAT     H127752   2.153   7.297   0.666
 6758WAT     H227753   2.147   7.301   0.529
 6758WAT    EPW27754   2.139   7.336   0.599
 6759WAT      O27755   2.713   7.232   0.383
 6759WAT     H127756   2.726   7.298   0.439
 6759WAT     H227757   2.626   7.228   0.376
 6759WAT    EPW27758   2.702   7.241   0.390
 6760WAT      O27759   3.494   6.990   1.850
 6760WAT     H127760   3.432   6.994   1.912
 6760WAT     H227761   3.528   6.910   1.859
 6760WAT    EPW27762   3.490   6.979   1.860
 6761WAT      O27763   2.059   6.876   1.045
 6761WAT     H127764   2.043   6.908   0.966
 6761WAT     H227765   2.146   6.886   1.054
 6761WAT    EPW27766   2.070   6.882   1.035
 6762WAT      O27767   3.404   7.331   1.917
 6762WAT     H127768   3.417   7.364   1.997
 6762WAT     H227769   3.318   7.339   1.905
 6762WAT    EPW27770   3.393   7.337   1.927
 6763WAT      O27771   3.612   7.406   1.752
 6763WAT     H127772   3.607   7.493   1.757
 6763WAT     H227773   3.546   7.378   1.801
 6763WAT    EPW27774   3.602   7.415   1.760
 6764WAT      O27775   3.604   7.148   0.845
 6764WAT     H127776   3.535   7.103   0.872
 6764WAT     H227777   3.600   7.222   0.891
 6764WAT    EPW27778   3.593   7.152   0.856
 6765WAT      O27779   3.954   7.411   1.951
 6765WAT     H127780   3.931   7.371   1.877
 6765WAT     H227781   4.041   7.419   1.944
 6765WAT    EPW27782   3.964   7.407   1.939
 6766WAT      O27783   3.456   6.823   1.501
 6766WAT     H127784   3.512   6.887   1.520
 6766WAT     H227785   3.384   6.865   1.477
 6766WAT    EPW27786   3.454   6.839   1.501
 6767WAT      O27787   2.671   7.159   1.622
 6767WAT     H127788   2.666   7.079   1.656
 6767WAT     H227789   2.685   7.144   1.537
 6767WAT    EPW27790   2.673   7.145   1.614
 6768WAT      O27791   3.539   6.623   1.327
 6768WAT     H127792   3.509   6.694   1.368
 6768WAT     H227793   3.626   6.628   1.339
 6768WAT    EPW27794   3.548   6.634   1.335
 6769WAT      O27795   2.788   6.724   1.600
 6769WAT     H127796   2.872   6.728   1.577
 6769WAT     H227797   2.775   6.638   1.614
 6769WAT    EPW27798   2.798   6.712   1.599
 6770WAT      O27799   3.772   7.250   0.239
 6770WAT     H127800   3.803   7.289   0.168
 6770WAT     H227801   3.691   7.281   0.246
 6770WAT    EPW27802   3.765   7.260   0.230
 6771WAT      O27803   2.508   7.214   1.172
 6771WAT     H127804   2.543   7.203   1.093
 6771WAT     H227805   2.567   7.179   1.225
 6771WAT    EPW27806   2.522   7.207   1.168
 6772WAT      O27807   3.269   7.098   1.702
 6772WAT     H127808   3.223   7.139   1.764
 6772WAT     H227809   3.339   7.068   1.745
 6772WAT    EPW27810   3.273   7.100   1.718
 6773WAT      O27811   3.261   7.222   1.325
 6773WAT     H127812   3.268   7.266   1.399
 6773WAT     H227813   3.249   7.140   1.351
 6773WAT    EPW27814   3.260   7.216   1.340
 6774WAT      O27815   3.509   7.210   0.593
 6774WAT     H127816   3.531   7.187   0.674
 6774WAT     H227817   3.584   7.240   0.559
 6774WAT    EPW27818   3.523   7.211   0.600
 6775WAT      O27819   2.825   6.680   1.161
 6775WAT     H127820   2.740   6.675   1.177
 6775WAT     H227821   2.829   6.695   1.075
 6775WAT    EPW27822   2.813   6.682   1.151
 6776WAT      O27823   3.634   6.783   0.722
 6776WAT     H127824   3.561   6.742   0.746
 6776WAT     H227825   3.623   6.798   0.637
 6776WAT    EPW27826   3.622   6.779   0.713
 6777WAT      O27827   2.025   6.787   1.829
 6777WAT     H127828   2.025   6.858   1.779
 6777WAT     H227829   1.941   6.770   1.841
 6777WAT    EPW27830   2.013   6.795   1.824
 6778WAT      O27831   2.370   6.928   0.514
 6778WAT     H127832   2.367   6.895   0.433
 6778WAT     H227833   2.287   6.931   0.538
 6778WAT    EPW27834   2.357   6.924   0.506
 6779WAT      O27835   3.860   7.283   1.724
 6779WAT     H127836   3.780   7.317   1.734
 6779WAT     H227837   3.879   7.301   1.641
 6779WAT    EPW27838   3.851   7.291   1.713
 6780WAT      O27839   3.302   7.338   1.570
 6780WAT     H127840   3.295   7.260   1.609
 6780WAT     H227841   3.386   7.342   1.547
 6780WAT    EPW27842   3.313   7.327   1.572
 6781WAT      O27843   2.404   7.248   1.609
 6781WAT     H127844   2.408   7.308   1.545
 6781WAT     H227845   2.487   7.221   1.617
 6781WAT    EPW27846   2.417   7.253   1.601
 6782WAT      O27847   2.217   7.079   1.485
 6782WAT     H127848   2.232   7.083   1.399
 6782WAT     H227849   2.280   7.129   1.519
 6782WAT    EPW27850   2.229   7.087   1.477
 6783WAT      O27851   3.748   7.328   0.514
 6783WAT     H127852   3.771   7.310   0.431
 6783WAT     H227853   3.824   7.340   0.554
 6783WAT    EPW27854   3.763   7.327   0.508
 6784WAT      O27855   2.406   6.779   1.740
 6784WAT     H127856   2.372   6.699   1.746
 6784WAT     H227857   2.393   6.801   1.657
 6784WAT    EPW27858   2.399   6.771   1.729
 6785WAT      O27859   3.564   7.291   1.503
 6785WAT     H127860   3.585   7.207   1.515
 6785WAT     H227861   3.595   7.330   1.574
 6785WAT    EPW27862   3.572   7.284   1.515
 6786WAT      O27863   3.161   6.804   1.818
 6786WAT     H127864   3.188   6.870   1.869
 6786WAT     H227865   3.081   6.788   1.847
 6786WAT    EPW27866   3.153   6.812   1.830
 6787WAT      O27867   3.166   6.837   0.893
 6787WAT     H127868   3.079   6.831   0.904
 6787WAT     H227869   3.180   6.794   0.818
 6787WAT    EPW27870   3.155   6.830   0.884
 6788WAT      O27871   3.480   6.939   1.161
 6788WAT     H127872   3.561   6.908   1.175
 6788WAT     H227873   3.487   7.023   1.182
 6788WAT    EPW27874   3.493   6.947   1.166
 6789WAT      O27875   3.566   7.390   0.983
 6789WAT     H127876   3.633   7.446   0.989
 6789WAT     H227877   3.511   7.430   0.928
 6789WAT    EPW27878   3.568   7.404   0.975
 6790WAT      O27879   2.629   6.859   1.406
 6790WAT     H127880   2.545   6.841   1.422
 6790WAT     H227881   2.673   6.802   1.457
 6790WAT    EPW27882   2.623   6.848   1.416
 6791WAT      O27883   3.798   6.704   1.429
 6791WAT     H127884   3.787   6.738   1.509
 6791WAT     H227885   3.881   6.675   1.431
 6791WAT    EPW27886   3.809   6.705   1.441
 6792WAT      O27887   3.032   6.866   1.225
 6792WAT     H127888   2.970   6.804   1.217
 6792WAT     H227889   3.106   6.823   1.208
 6792WAT    EPW27890   3.034   6.850   1.221
 6793WAT      O27891   2.857   7.323   1.754
 6793WAT     H127892   2.807   7.269   1.707
 6793WAT     H227893   2.807   7.393   1.765
 6793WAT    EPW27894   2.842   7.325   1.749
 6794WAT      O27895   2.358   6.835   1.478
 6794WAT     H127896   2.304   6.771   1.455
 6794WAT     H227897   2.309   6.907   1.470
 6794WAT    EPW27898   2.343   6.836   1.473
 6795WAT      O27899   3.275   6.749   1.138
 6795WAT     H127900   3.337   6.807   1.155
 6795WAT     H227901   3.248   6.771   1.058
 6795WAT    EPW27902   3.280   6.761   1.129
 6796WAT      O27903   3.223   7.277   0.881
 6796WAT     H127904   3.270   7.204   0.895
 6796WAT     H227905   3.187   7.293   0.958
 6796WAT    EPW27906   3.225   7.268   0.894
 6797WAT      O27907   2.223   7.180   0.806
 6797WAT     H127908   2.171   7.185   0.876
 6797WAT     H227909   2.269   7.107   0.820
 6797WAT    EPW27910   2.222   7.170   0.818
 6798WAT      O27911   3.399   7.454   0.522
 6798WAT     H127912   3.419   7.373   0.547
 6798WAT     H227913   3.314   7.449   0.503
 6798WAT    EPW27914   3.389   7.441   0.523
 6799WAT      O27915   3.737   7.082   1.957
 6799WAT     H127916   3.735   7.158   1.999
 6799WAT     H227917   3.655   7.073   1.927
 6799WAT    EPW27918   3.725   7.092   1.959
 6800WAT      O27919   3.780   7.177   1.242
 6800WAT     H127920   3.696   7.199   1.236
 6800WAT     H227921   3.778   7.090   1.245
 6800WAT    EPW27922   3.768   7.167   1.242
 6801WAT      O27923   2.654   6.908   1.753
 6801WAT     H127924   2.698   6.858   1.697
 6801WAT     H227925   2.575   6.871   1.756
 6801WAT    EPW27926   2.649   6.895   1.745
 6802WAT      O27927   3.143   4.850   6.363
 6802WAT     H127928   3.143   4.882   6.281
 6802WAT     H227929   3.226   4.824   6.374
 6802WAT    EPW27930   3.155   4.851   6.352
 6803WAT      O27931   3.036   5.483   6.934
 6803WAT     H127932   3.027   5.567   6.912
 6803WAT     H227933   3.122   5.473   6.944
 6803WAT    EPW27934   3.047   5.494   6.933
 6804WAT      O27935   2.074   5.946   6.354
 6804WAT     H127936   2.024   5.945   6.425
 6804WAT     H227937   2.077   5.863   6.329
 6804WAT    EPW27938   2.067   5.934   6.361
 6805WAT      O27939   3.700   6.342   6.147
 6805WAT     H127940   3.759   6.285   6.176
 6805WAT     H227941   3.648   6.294   6.097
 6805WAT    EPW27942   3.701   6.327   6.144
 6806WAT      O27943   2.079   5.290   6.015
 6806WAT     H127944   2.013   5.338   5.983
 6806WAT     H227945   2.046   5.210   6.017
 6806WAT    EPW27946   2.064   5.285   6.011
 6807WAT      O27947   2.355   5.885   5.945
 6807WAT     H127948   2.331   5.839   5.875
 6807WAT     H227949   2.370   5.824   6.006
 6807WAT    EPW27950   2.354   5.869   5.944
 6808WAT      O27951   3.425   5.743   6.413
 6808WAT     H127952   3.423   5.707   6.334
 6808WAT     H227953   3.383   5.686   6.463
 6808WAT    EPW27954   3.418   5.729   6.409
 6809WAT      O27955   2.323   6.067   6.325
 6809WAT     H127956   2.378   6.028   6.380
 6809WAT     H227957   2.248   6.025   6.339
 6809WAT    EPW27958   2.320   6.055   6.335
 6810WAT      O27959   2.802   4.957   6.249
 6810WAT     H127960   2.817   5.029   6.203
 6810WAT     H227961   2.857   4.898   6.214
 6810WAT    EPW27962   2.813   4.959   6.237
 6811WAT      O27963   2.206   6.343   5.922
 6811WAT     H127964   2.256   6.350   5.851
 6811WAT     H227965   2.243   6.278   5.967
 6811WAT    EPW27966   2.219   6.335   5.918
 6812WAT      O27967   2.122   6.158   7.044
 6812WAT     H127968   2.149   6.133   7.123
 6812WAT     H227969   2.051   6.109   7.031
 6812WAT    EPW27970   2.115   6.147   7.054
 6813WAT      O27971   2.780   6.007   7.485
 6813WAT     H127972   2.788   5.964   7.560
 6813WAT     H227973   2.704   5.979   7.452
 6813WAT    EPW27974   2.770   5.997   7.491
 6814WAT      O27975   2.283   5.696   6.499
 6814WAT     H127976   2.234   5.695   6.426
 6814WAT     H227977   2.336   5.628   6.487
 6814WAT    EPW27978   2.283   5.686   6.486
 6815WAT      O27979   2.706   5.268   7.041
 6815WAT     H127980   2.776   5.266   6.990
 6815WAT     H227981   2.674   5.187   7.035
 6815WAT    EPW27982   2.712   5.256   7.033
 6816WAT      O27983   2.722   6.247   7.240
 6816WAT     H127984   2.701   6.323   7.202
 6816WAT     H227985   2.809   6.250   7.246
 6816WAT    EPW27986   2.732   6.259   7.235
 6817WAT      O27987   2.455   5.478   6.482
 6817WAT     H127988   2.522   5.427   6.504
 6817WAT     H227989   2.387   5.424   6.485
 6817WAT    EPW27990   2.455   5.463   6.486
 6818WAT      O27991   2.860   6.126   6.651
 6818WAT     H127992   2.881   6.042   6.666
 6818WAT     H227993   2.937   6.166   6.645
 6818WAT    EPW27994   2.874   6.119   6.653
 6819WAT      O27995   2.886   6.025   6.281
 6819WAT     H127996   2.930   5.965   6.327
 6819WAT     H227997   2.911   6.009   6.199
 6819WAT    EPW27998   2.896   6.014   6.276
 6820WAT      O27999   3.090   5.472   7.437
 6820WAT     H128000   3.006   5.477   7.414
 6820WAT     H228001   3.096   5.528   7.503
 6820WAT    EPW28002   3.078   5.481   7.443
 6821WAT      O28003   2.534   4.997   6.351
 6821WAT     H128004   2.494   5.052   6.296
 6821WAT     H228005   2.614   4.989   6.316
 6821WAT    EPW28006   2.540   5.004   6.338
 6822WAT      O28007   3.536   4.699   7.355
 6822WAT     H128008   3.527   4.732   7.275
 6822WAT     H228009   3.454   4.696   7.385
 6822WAT    EPW28010   3.522   4.703   7.348
 6823WAT      O28011   2.849   4.929   6.525
 6823WAT     H128012   2.862   5.011   6.551
 6823WAT     H228013   2.829   4.938   6.441
 6823WAT    EPW28014   2.848   4.943   6.516
 6824WAT      O28015   3.254   5.239   5.922
 6824WAT     H128016   3.313   5.271   5.867
 6824WAT     H228017   3.279   5.156   5.933
 6824WAT    EPW28018   3.266   5.231   5.916
 6825WAT      O28019   2.098   5.438   6.743
 6825WAT     H128020   2.097   5.525   6.753
 6825WAT     H228021   2.031   5.411   6.792
 6825WAT    EPW28022   2.088   5.447   6.752
 6826WAT      O28023   2.082   6.402   6.579
 6826WAT     H128024   2.018   6.451   6.545
 6826WAT     H228025   2.121   6.368   6.508
 6826WAT    EPW28026   2.078   6.404   6.563
 6827WAT      O28027   2.678   6.204   6.274
 6827WAT     H128028   2.642   6.196   6.353
 6827WAT     H228029   2.748   6.153   6.278
 6827WAT    EPW28030   2.683   6.196   6.287
 6828WAT      O28031   3.268   6.414   6.058
 6828WAT     H128032   3.338   6.465   6.065
 6828WAT     H228033   3.296   6.336   6.085
 6828WAT    EPW28034   3.282   6.410   6.063
 6829WAT      O28035   3.072   6.460   6.248
 6829WAT     H128036   3.097   6.529   6.296
 6829WAT     H228037   3.136   6.452   6.189
 6829WAT    EPW28038   3.085   6.469   6.246
 6830WAT      O28039   2.403   4.941   6.778
 6830WAT     H128040   2.360   4.870   6.750
 6830WAT     H228041   2.466   4.908   6.829
 6830WAT    EPW28042   2.406   4.926   6.781
 6831WAT      O28043   2.212   6.319   6.343
 6831WAT     H128044   2.259   6.246   6.355
 6831WAT     H228045   2.265   6.370   6.296
 6831WAT    EPW28046   2.227   6.315   6.338
 6832WAT      O28047   3.820   5.109   6.485
 6832WAT     H128048   3.769   5.178   6.497
 6832WAT     H228049   3.764   5.045   6.465
 6832WAT    EPW28050   3.804   5.109   6.484
 6833WAT      O28051   3.338   6.444   7.061
 6833WAT     H128052   3.409   6.493   7.051
 6833WAT     H228053   3.317   6.419   6.980
 6833WAT    EPW28054   3.345   6.447   7.048
 6834WAT      O28055   2.271   5.133   7.555
 6834WAT     H128056   2.204   5.078   7.551
 6834WAT     H228057   2.336   5.088   7.517
 6834WAT    EPW28058   2.271   5.118   7.549
 6835WAT      O28059   2.355   6.123   6.693
 6835WAT     H128060   2.413   6.106   6.630
 6835WAT     H228061   2.379   6.070   6.758
 6835WAT    EPW28062   2.367   6.113   6.693
 6836WAT      O28063   2.654   6.450   6.611
 6836WAT     H128064   2.732   6.463   6.576
 6836WAT     H228065   2.600   6.497   6.560
 6836WAT    EPW28066   2.657   6.459   6.598
 6837WAT      O28067   2.950   4.910   7.520
 6837WAT     H128068   2.958   4.828   7.490
 6837WAT     H228069   2.877   4.938   7.481
 6837WAT    EPW28070   2.940   4.902   7.510
 6838WAT      O28071   3.028   5.373   6.410
 6838WAT     H128072   3.069   5.329   6.347
 6838WAT     H228073   3.093   5.405   6.459
 6838WAT    EPW28074   3.044   5.371   6.408
 6839WAT      O28075   3.474   6.607   6.048
 6839WAT     H128076   3.524   6.588   5.979
 6839WAT     H228077   3.525   6.656   6.098
 6839WAT    EPW28078   3.489   6.611   6.045
 6840WAT      O28079   2.565   6.467   7.158
 6840WAT     H128080   2.571   6.491   7.242
 6840WAT     H228081   2.484   6.434   7.153
 6840WAT    EPW28082   2.554   6.466   7.170
 6841WAT      O28083   3.756   5.050   6.940
 6841WAT     H128084   3.814   5.037   6.877
 6841WAT     H228085   3.787   5.002   7.007
 6841WAT    EPW28086   3.769   5.041   6.941
 6842WAT      O28087   1.983   5.125   7.287
 6842WAT     H128088   1.979   5.187   7.348
 6842WAT     H228089   2.047   5.152   7.234
 6842WAT    EPW28090   1.992   5.138   7.288
 6843WAT      O28091   3.187   6.201   7.469
 6843WAT     H128092   3.181   6.131   7.521
 6843WAT     H228093   3.273   6.210   7.458
 6843WAT    EPW28094   3.199   6.192   7.475
 6844WAT      O28095   2.967   6.240   5.868
 6844WAT     H128096   2.937   6.302   5.922
 6844WAT     H228097   3.046   6.270   5.844
 6844WAT    EPW28098   2.974   6.253   5.872
 6845WAT      O28099   3.330   4.987   6.035
 6845WAT     H128100   3.391   4.926   6.026
 6845WAT     H228101   3.355   5.030   6.107
 6845WAT    EPW28102   3.343   4.984   6.044
 6846WAT      O28103   2.137   5.082   6.277
 6846WAT     H128104   2.113   4.999   6.263
 6846WAT     H228105   2.088   5.107   6.345
 6846WAT    EPW28106   2.126   5.073   6.285
 6847WAT      O28107   2.304   6.377   7.061
 6847WAT     H128108   2.248   6.310   7.060
 6847WAT     H228109   2.342   6.374   6.982
 6847WAT    EPW28110   2.302   6.367   7.049
 6848WAT      O28111   3.126   5.227   6.182
 6848WAT     H128112   3.048   5.197   6.155
 6848WAT     H228113   3.168   5.244   6.107
 6848WAT    EPW28114   3.120   5.225   6.167
 6849WAT      O28115   3.090   6.489   7.175
 6849WAT     H128116   3.170   6.480   7.141
 6849WAT     H228117   3.038   6.488   7.105
 6849WAT    EPW28118   3.094   6.488   7.160
 6850WAT      O28119   3.076   4.884   6.076
 6850WAT     H128120   3.027   4.898   6.005
 6850WAT     H228121   3.153   4.920   6.055
 6850WAT    EPW28122   3.080   4.892   6.063
 6851WAT      O28123   3.781   6.547   6.435
 6851WAT     H128124   3.743   6.623   6.455
 6851WAT     H228125   3.714   6.494   6.418
 6851WAT    EPW28126   3.766   6.550   6.435
 6852WAT      O28127   2.907   5.193   6.592
 6852WAT     H128128   2.938   5.259   6.544
 6852WAT     H228129   2.915   5.221   6.674
 6852WAT    EPW28130   2.913   5.207   6.597
 6853WAT      O28131   3.500   6.148   6.503
 6853WAT     H128132   3.557   6.083   6.493
 6853WAT     H228133   3.423   6.109   6.492
 6853WAT    EPW28134   3.497   6.133   6.500
 6854WAT      O28135   2.471   6.192   7.352
 6854WAT     H128136   2.548   6.217   7.319
 6854WAT     H228137   2.458   6.249   7.417
 6854WAT    EPW28138   2.481   6.204   7.357
 6855WAT      O28139   2.456   4.739   6.417
 6855WAT     H128140   2.477   4.822   6.398
 6855WAT     H228141   2.420   4.710   6.343
 6855WAT    EPW28142   2.454   4.747   6.403
 6856WAT      O28143   2.661   5.809   6.773
 6856WAT     H128144   2.686   5.796   6.855
 6856WAT     H228145   2.608   5.742   6.756
 6856WAT    EPW28146   2.656   5.797   6.782
 6857WAT      O28147   3.216   5.184   7.143
 6857WAT     H128148   3.219   5.204   7.227
 6857WAT     H228149   3.160   5.117   7.139
 6857WAT    EPW28150   3.208   5.177   7.155
 6858WAT      O28151   2.763   5.823   7.030
 6858WAT     H128152   2.735   5.906   7.038
 6858WAT     H228153   2.731   5.784   7.101
 6858WAT    EPW28154   2.754   5.829   7.042
 6859WAT      O28155   3.417   5.904   7.077
 6859WAT     H128156   3.340   5.868   7.095
 6859WAT     H228157   3.397   5.987   7.060
 6859WAT    EPW28158   3.403   5.911   7.077
 6860WAT      O28159   3.395   4.744   6.429
 6860WAT     H128160   3.393   4.722   6.513
 6860WAT     H228161   3.435   4.676   6.391
 6860WAT    EPW28162   3.401   4.731   6.435
 6861WAT      O28163   3.589   5.130   7.310
 6861WAT     H128164   3.675   5.147   7.304
 6861WAT     H228165   3.568   5.159   7.390
 6861WAT    EPW28166   3.599   5.137   7.321
 6862WAT      O28167   2.414   5.124   6.574
 6862WAT     H128168   2.444   5.074   6.509
 6862WAT     H228169   2.408   5.069   6.641
 6862WAT    EPW28170   2.418   5.109   6.575
 6863WAT      O28171   3.687   5.934   5.990
 6863WAT     H128172   3.686   5.883   6.061
 6863WAT     H228173   3.773   5.948   5.977
 6863WAT    EPW28174   3.700   5.928   5.999
 6864WAT      O28175   2.460   5.911   6.505
 6864WAT     H128176   2.523   5.881   6.453
 6864WAT     H228177   2.405   5.843   6.512
 6864WAT    EPW28178   2.461   5.897   6.499
 6865WAT      O28179   2.294   6.559   6.662
 6865WAT     H128180   2.219   6.521   6.637
 6865WAT     H228181   2.339   6.565   6.587
 6865WAT    EPW28182   2.289   6.554   6.647
 6866WAT      O28183   2.261   5.251   6.865
 6866WAT     H128184   2.345   5.275   6.860
 6866WAT     H228185   2.218   5.318   6.830
 6866WAT    EPW28186   2.267   5.265   6.859
 6867WAT      O28187   3.911   6.321   7.376
 6867WAT     H128188   3.835   6.334   7.334
 6867WAT     H228189   3.886   6.291   7.454
 6867WAT    EPW28190   3.896   6.319   7.381
 6868WAT      O28191   3.525   5.572   5.905
 6868WAT     H128192   3.514   5.653   5.875
 6868WAT     H228193   3.504   5.579   5.990
 6868WAT    EPW28194   3.520   5.585   5.913
 6869WAT      O28195   2.637   5.846   6.298
 6869WAT     H128196   2.693   5.912   6.296
 6869WAT     H228197   2.682   5.779   6.264
 6869WAT    EPW28198   2.652   5.846   6.293
 6870WAT      O28199   2.099   6.007   6.666
 6870WAT     H128200   2.048   6.069   6.701
 6870WAT     H228201   2.178   6.044   6.664
 6870WAT    EPW28202   2.103   6.022   6.671
 6871WAT      O28203   3.928   5.476   7.160
 6871WAT     H128204   3.944   5.401   7.118
 6871WAT     H228205   3.845   5.493   7.139
 6871WAT    EPW28206   3.918   5.467   7.151
 6872WAT      O28207   2.143   5.689   6.261
 6872WAT     H128208   2.124   5.604   6.261
 6872WAT     H228209   2.217   5.692   6.214
 6872WAT    EPW28210   2.151   5.677   6.254
 6873WAT      O28211   3.088   6.283   6.605
 6873WAT     H128212   3.038   6.350   6.583
 6873WAT     H228213   3.110   6.247   6.528
 6873WAT    EPW28214   3.084   6.287   6.590
 6874WAT      O28215   2.042   6.162   6.187
 6874WAT     H128216   2.095   6.217   6.229
 6874WAT     H228217   2.037   6.093   6.241
 6874WAT    EPW28218   2.049   6.160   6.201
 6875WAT      O28219   2.455   5.957   6.888
 6875WAT     H128220   2.506   6.002   6.943
 6875WAT     H228221   2.512   5.915   6.838
 6875WAT    EPW28222   2.471   5.957   6.889
 6876WAT      O28223   3.391   5.196   6.627
 6876WAT     H128224   3.355   5.275   6.631
 6876WAT     H228225   3.325   5.145   6.601
 6876WAT    EPW28226   3.376   5.200   6.624
 6877WAT      O28227   2.066   5.997   5.957
 6877WAT     H128228   2.142   5.953   5.958
 6877WAT     H228229   2.073   6.050   6.025
 6877WAT    EPW28230   2.079   5.998   5.967
 6878WAT      O28231   2.127   5.737   6.725
 6878WAT     H128232   2.180   5.717   6.659
 6878WAT     H228233   2.117   5.824   6.718
 6878WAT    EPW28234   2.134   5.747   6.714
 6879WAT      O28235   2.864   5.166   6.076
 6879WAT     H128236   2.836   5.137   5.998
 6879WAT     H228237   2.820   5.241   6.086
 6879WAT    EPW28238   2.853   5.173   6.066
 6880WAT      O28239   3.652   6.349   7.258
 6880WAT     H128240   3.616   6.429   7.266
 6880WAT     H228241   3.643   6.330   7.174
 6880WAT    EPW28242   3.645   6.358   7.247
 6881WAT      O28243   2.604   6.189   6.538
 6881WAT     H128244   2.610   6.272   6.565
 6881WAT     H228245   2.675   6.152   6.572
 6881WAT    EPW28246   2.615   6.196   6.547
 6882WAT      O28247   2.229   5.406   7.488
 6882WAT     H128248   2.247   5.329   7.524
 6882WAT     H228249   2.276   5.406   7.414
 6882WAT    EPW28250   2.239   5.394   7.482
 6883WAT      O28251   2.432   5.412   6.049
 6883WAT     H128252   2.417   5.352   6.110
 6883WAT     H228253   2.389   5.383   5.979
 6883WAT    EPW28254   2.424   5.399   6.048
 6884WAT      O28255   2.484   5.604   6.732
 6884WAT     H128256   2.475   5.575   6.651
 6884WAT     H228257   2.495   5.531   6.779
 6884WAT    EPW28258   2.485   5.589   6.727
 6885WAT      O28259   2.460   5.569   7.078
 6885WAT     H128260   2.486   5.518   7.011
 6885WAT     H228261   2.403   5.623   7.042
 6885WAT    EPW28262   2.456   5.569   7.063
 6886WAT      O28263   3.548   5.414   6.911
 6886WAT     H128264   3.463   5.415   6.931
 6886WAT     H228265   3.550   5.449   6.831
 6886WAT    EPW28266   3.536   5.419   6.902
 6887WAT      O28267   2.890   6.483   6.984
 6887WAT     H128268   2.849   6.413   6.950
 6887WAT     H228269   2.882   6.543   6.922
 6887WAT    EPW28270   2.882   6.481   6.970
 6888WAT      O28271   3.230   4.898   7.221
 6888WAT     H128272   3.187   4.823   7.203
 6888WAT     H228273   3.218   4.908   7.307
 6888WAT    EPW28274   3.222   4.888   7.231
 6889WAT      O28275   3.390   5.130   6.264
 6889WAT     H128276   3.434   5.204   6.250
 6889WAT     H228277   3.307   5.157   6.272
 6889WAT    EPW28278   3.384   5.145   6.263
 6890WAT      O28279   2.145   5.667   7.577
 6890WAT     H128280   2.192   5.724   7.532
 6890WAT     H228281   2.178   5.590   7.554
 6890WAT    EPW28282   2.157   5.664   7.567
 6891WAT      O28283   3.435   5.959   7.511
 6891WAT     H128284   3.458   6.042   7.498
 6891WAT     H228285   3.472   5.917   7.444
 6891WAT    EPW28286   3.444   5.965   7.499
 6892WAT      O28287   2.822   6.303   7.536
 6892WAT     H128288   2.821   6.289   7.622
 6892WAT     H228289   2.808   6.224   7.501
 6892WAT    EPW28290   2.820   6.289   7.543
 6893WAT      O28291   2.920   5.244   6.864
 6893WAT     H128292   2.962   5.318   6.886
 6893WAT     H228293   2.966   5.182   6.904
 6893WAT    EPW28294   2.933   5.246   6.873
 6894WAT      O28295   3.183   5.602   6.041
 6894WAT     H128296   3.162   5.674   5.997
 6894WAT     H228297   3.131   5.605   6.111
 6894WAT    EPW28298   3.172   5.613   6.045
 6895WAT      O28299   3.663   5.923   6.479
 6895WAT     H128300   3.673   5.878   6.553
 6895WAT     H228301   3.619   5.868   6.427
 6895WAT    EPW28302   3.658   5.908   6.482
 6896WAT      O28303   3.279   6.335   6.808
 6896WAT     H128304   3.216   6.313   6.751
 6896WAT     H228305   3.320   6.401   6.770
 6896WAT    EPW28306   3.276   6.341   6.794
 6897WAT      O28307   3.297   5.936   6.765
 6897WAT     H128308   3.228   5.975   6.801
 6897WAT     H228309   3.286   5.852   6.786
 6897WAT    EPW28310   3.285   5.929   6.774
 6898WAT      O28311   2.670   6.469   6.202
 6898WAT     H128312   2.673   6.392   6.242
 6898WAT     H228313   2.735   6.465   6.144
 6898WAT    EPW28314   2.680   6.457   6.200
 6899WAT      O28315   2.663   4.822   5.948
 6899WAT     H128316   2.653   4.770   6.018
 6899WAT     H228317   2.605   4.885   5.961
 6899WAT    EPW28318   2.653   4.823   5.961
 6900WAT      O28319   2.890   6.445   6.038
 6900WAT     H128320   2.948   6.453   6.103
 6900WAT     H228321   2.894   6.522   5.998
 6900WAT    EPW28322   2.899   6.457   6.042
 6901WAT      O28323   3.550   5.820   7.306
 6901WAT     H128324   3.512   5.846   7.232
 6901WAT     H228325   3.635   5.837   7.293
 6901WAT    EPW28326   3.557   5.826   7.293
 6902WAT      O28327   3.653   4.861   7.554
 6902WAT     H128328   3.613   4.816   7.490
 6902WAT     H228329   3.629   4.819   7.627
 6902WAT    EPW28330   3.644   4.848   7.555
 6903WAT      O28331   2.397   5.689   6.141
 6903WAT     H128332   2.412   5.605   6.125
 6903WAT     H228333   2.462   5.712   6.194
 6903WAT    EPW28334   2.409   5.680   6.146
 6904WAT      O28335   3.170   5.802   7.150
 6904WAT     H128336   3.118   5.841   7.208
 6904WAT     H228337   3.195   5.729   7.190
 6904WAT    EPW28338   3.166   5.797   7.165
 6905WAT      O28339   2.034   4.817   6.240
 6905WAT     H128340   2.032   4.762   6.173
 6905WAT     H228341   2.004   4.769   6.307
 6905WAT    EPW28342   2.029   4.802   6.240
 6906WAT      O28343   3.021   5.615   6.266
 6906WAT     H128344   3.035   5.681   6.323
 6906WAT     H228345   3.018   5.545   6.318
 6906WAT    EPW28346   3.023   5.615   6.282
 6907WAT      O28347   3.525   6.109   6.786
 6907WAT     H128348   3.519   6.137   6.703
 6907WAT     H228349   3.460   6.050   6.792
 6907WAT    EPW28350   3.514   6.105   6.774
 6908WAT      O28351   2.487   5.041   5.946
 6908WAT     H128352   2.427   5.034   5.883
 6908WAT     H228353   2.552   5.085   5.908
 6908WAT    EPW28354   2.488   5.047   5.931
 6909WAT      O28355   2.914   5.850   6.671
 6909WAT     H128356   2.831   5.831   6.689
 6909WAT     H228357   2.958   5.819   6.740
 6909WAT    EPW28358   2.908   5.843   6.684
 6910WAT      O28359   2.576   6.460   5.832
 6910WAT     H128360   2.597   6.391   5.881
 6910WAT     H228361   2.588   6.528   5.885
 6910WAT    EPW28362   2.581   6.460   5.847
 6911WAT      O28363   2.282   5.753   6.963
 6911WAT     H128364   2.332   5.821   6.946
 6911WAT     H228365   2.238   5.740   6.889
 6911WAT    EPW28366   2.283   5.761   6.950
 6912WAT      O28367   2.628   5.294   6.613
 6912WAT     H128368   2.706   5.257   6.602
 6912WAT     H228369   2.571   5.229   6.599
 6912WAT    EPW28370   2.631   5.279   6.609
 6913WAT      O28371   3.870   6.512   6.004
 6913WAT     H128372   3.939   6.465   5.978
 6913WAT     H228373   3.824   6.455   6.052
 6913WAT    EPW28374   3.874   6.496   6.007
 6914WAT      O28375   2.101   5.413   6.273
 6914WAT     H128376   2.135   5.374   6.342
 6914WAT     H228377   2.112   5.356   6.208
 6914WAT    EPW28378   2.107   5.399   6.273
 6915WAT      O28379   3.655   5.804   6.967
 6915WAT     H128380   3.664   5.731   7.014
 6915WAT     H228381   3.574   5.832   6.988
 6915WAT    EPW28382   3.644   5.798   6.977
 6916WAT      O28383   2.577   5.571   5.839
 6916WAT     H128384   2.534   5.534   5.905
 6916WAT     H228385   2.527   5.551   5.769
 6916WAT    EPW28386   2.563   5.562   5.838
 6917WAT      O28387   2.258   5.858   7.401
 6917WAT     H128388   2.224   5.812   7.335
 6917WAT     H228389   2.230   5.939   7.386
 6917WAT    EPW28390   2.249   5.863   7.389
 6918WAT      O28391   3.729   5.767   6.701
 6918WAT     H128392   3.703   5.784   6.783
 6918WAT     H228393   3.814   5.753   6.709
 6918WAT    EPW28394   3.738   5.768   6.714
 6919WAT      O28395   2.713   5.398   6.064
 6919WAT     H128396   2.729   5.474   6.104
 6919WAT     H228397   2.626   5.392   6.066
 6919WAT    EPW28398   2.703   5.409   6.070
 6920WAT      O28399   3.497   5.220   7.566
 6920WAT     H128400   3.487   5.297   7.605
 6920WAT     H228401   3.459   5.164   7.621
 6920WAT    EPW28402   3.490   5.223   7.580
 6921WAT      O28403   2.073   5.053   6.743
 6921WAT     H128404   2.053   5.084   6.664
 6921WAT     H228405   2.145   5.096   6.765
 6921WAT    EPW28406   2.081   5.064   6.735
 6922WAT      O28407   3.908   6.341   6.857
 6922WAT     H128408   3.915   6.346   6.771
 6922WAT     H228409   3.931   6.421   6.884
 6922WAT    EPW28410   3.912   6.354   6.849
 6923WAT      O28411   3.408   5.501   7.615
 6923WAT     H128412   3.456   5.567   7.643
 6923WAT     H228413   3.326   5.530   7.621
 6923WAT    EPW28414   3.403   5.515   7.620
 6924WAT      O28415   3.530   5.548   7.364
 6924WAT     H128416   3.541   5.634   7.365
 6924WAT     H228417   3.503   5.530   7.444
 6924WAT    EPW28418   3.528   5.558   7.376
 6925WAT      O28419   3.546   6.171   5.999
 6925WAT     H128420   3.587   6.094   6.002
 6925WAT     H228421   3.473   6.157   6.045
 6925WAT    EPW28422   3.541   6.157   6.006
 6926WAT      O28423   3.619   5.302   6.496
 6926WAT     H128424   3.550   5.259   6.530
 6926WAT     H228425   3.625   5.373   6.546
 6926WAT    EPW28426   3.609   5.306   6.509
 6927WAT      O28427   3.820   5.882   7.282
 6927WAT     H128428   3.882   5.828   7.254
 6927WAT     H228429   3.816   5.943   7.221
 6927WAT    EPW28430   3.828   5.883   7.269
 6928WAT      O28431   3.234   5.938   5.959
 6928WAT     H128432   3.311   5.899   5.945
 6928WAT     H228433   3.206   5.957   5.878
 6928WAT    EPW28434   3.241   5.935   5.945
 6929WAT      O28435   2.663   6.084   7.026
 6929WAT     H128436   2.677   6.127   7.101
 6929WAT     H228437   2.686   6.142   6.965
 6929WAT    EPW28438   2.668   6.099   7.028
 6930WAT      O28439   2.529   5.921   7.380
 6930WAT     H128440   2.451   5.887   7.398
 6930WAT     H228441   2.512   6.005   7.364
 6930WAT    EPW28442   2.515   5.929   7.380
 6931WAT      O28443   3.012   5.773   6.929
 6931WAT     H128444   3.065   5.771   6.998
 6931WAT     H228445   2.933   5.780   6.964
 6931WAT    EPW28446   3.008   5.774   6.944
 6932WAT      O28447   2.659   5.272   7.315
 6932WAT     H128448   2.680   5.193   7.343
 6932WAT     H228449   2.682   5.271   7.231
 6932WAT    EPW28450   2.665   5.261   7.307
 6933WAT      O28451   2.913   6.482   6.505
 6933WAT     H128452   2.917   6.568   6.520
 6933WAT     H228453   2.927   6.475   6.419
 6933WAT    EPW28454   2.916   6.494   6.495
 6934WAT      O28455   3.572   4.790   7.092
 6934WAT     H128456   3.576   4.734   7.025
 6934WAT     H228457   3.656   4.811   7.106
 6934WAT    EPW28458   3.585   4.785   7.084
 6935WAT      O28459   2.809   4.867   7.139
 6935WAT     H128460   2.878   4.909   7.106
 6935WAT     H228461   2.818   4.786   7.109
 6935WAT    EPW28462   2.821   4.861   7.130
 6936WAT      O28463   2.744   6.284   6.848
 6936WAT     H128464   2.691   6.332   6.798
 6936WAT     H228465   2.787   6.234   6.791
 6936WAT    EPW28466   2.742   6.284   6.832
 6937WAT      O28467   3.164   5.917   7.550
 6937WAT     H128468   3.249   5.926   7.531
 6937WAT     H228469   3.125   5.926   7.472
 6937WAT    EPW28470   3.171   5.920   7.535
 6938WAT      O28471   3.472   6.235   7.451
 6938WAT     H128472   3.476   6.302   7.507
 6938WAT     H228473   3.524   6.260   7.385
 6938WAT    EPW28474   3.480   6.249   7.449
 6939WAT      O28475   2.780   5.749   5.902
 6939WAT     H128476   2.717   5.697   5.872
 6939WAT     H228477   2.743   5.829   5.900
 6939WAT    EPW28478   2.765   5.753   5.897
 6940WAT      O28479   2.524   5.364   6.863
 6940WAT     H128480   2.560   5.339   6.788
 6940WAT     H228481   2.579   5.334   6.924
 6940WAT    EPW28482   2.538   5.356   6.861
 6941WAT      O28483   3.247   5.240   7.414
 6941WAT     H128484   3.195   5.308   7.433
 6941WAT     H228485   3.323   5.262   7.451
 6941WAT    EPW28486   3.250   5.254   7.422
 6942WAT      O28487   3.294   5.421   7.021
 6942WAT     H128488   3.288   5.473   7.092
 6942WAT     H228489   3.265   5.344   7.050
 6942WAT    EPW28490   3.289   5.417   7.036
 6943WAT      O28491   3.013   6.500   7.450
 6943WAT     H128492   3.027   6.483   7.366
 6943WAT     H228493   2.969   6.429   7.478
 6943WAT    EPW28494   3.008   6.487   7.442
 6944WAT      O28495   3.542   5.360   6.236
 6944WAT     H128496   3.572   5.351   6.317
 6944WAT     H228497   3.615   5.362   6.187
 6944WAT    EPW28498   3.557   5.359   6.241
 6945WAT      O28499   2.835   4.845   6.800
 6945WAT     H128500   2.753   4.826   6.823
 6945WAT     H228501   2.830   4.861   6.714
 6945WAT    EPW28502   2.822   4.845   6.791
 6946WAT      O28503   3.579   4.950   6.399
 6946WAT     H128504   3.518   4.889   6.417
 6946WAT     H228505   3.533   5.014   6.361
 6946WAT    EPW28506   3.563   4.950   6.396
 6947WAT      O28507   3.678   5.768   6.210
 6947WAT     H128508   3.750   5.718   6.215
 6947WAT     H228509   3.614   5.710   6.199
 6947WAT    EPW28510   3.679   5.752   6.209
 6948WAT      O28511   3.008   5.957   7.319
 6948WAT     H128512   2.932   5.957   7.363
 6948WAT     H228513   3.012   6.038   7.286
 6948WAT    EPW28514   2.997   5.969   7.321
 6949WAT      O28515   2.072   4.942   7.480
 6949WAT     H128516   2.045   4.996   7.418
 6949WAT     H228517   1.998   4.906   7.510
 6949WAT    EPW28518   2.057   4.944   7.475
 6950WAT      O28519   2.575   6.587   6.904
 6950WAT     H128520   2.575   6.558   6.986
 6950WAT     H228521   2.540   6.521   6.858
 6950WAT    EPW28522   2.570   6.573   6.909
 6951WAT      O28523   2.391   5.166   6.183
 6951WAT     H128524   2.405   5.122   6.109
 6951WAT     H228525   2.310   5.141   6.207
 6951WAT    EPW28526   2.381   5.156   6.175
 6952WAT      O28527   3.284   5.966   6.491
 6952WAT     H128528   3.284   5.957   6.578
 6952WAT     H228529   3.332   5.898   6.464
 6952WAT    EPW28530   3.291   5.954   6.500
 6953WAT      O28531   3.040   5.847   6.424
 6953WAT     H128532   3.001   5.838   6.501
 6953WAT     H228533   3.116   5.886   6.442
 6953WAT    EPW28534   3.045   5.851   6.438
 6954WAT      O28535   3.007   6.235   7.264
 6954WAT     H128536   3.060   6.231   7.333
 6954WAT     H228537   3.039   6.302   7.218
 6954WAT    EPW28538   3.020   6.245   7.267
 6955WAT      O28539   3.822   5.404   7.463
 6955WAT     H128540   3.774   5.475   7.445
 6955WAT     H228541   3.904   5.434   7.459
 6955WAT    EPW28542   3.827   5.419   7.460
 6956WAT      O28543   3.274   5.570   7.254
 6956WAT     H128544   3.217   5.535   7.311
 6956WAT     H228545   3.351   5.559   7.293
 6956WAT    EPW28546   3.277   5.563   7.269
 6957WAT      O28547   2.212   6.551   7.416
 6957WAT     H128548   2.153   6.487   7.409
 6957WAT     H228549   2.165   6.617   7.451
 6957WAT    EPW28550   2.196   6.551   7.420
 6958WAT      O28551   3.157   5.651   7.640
 6958WAT     H128552   3.160   5.734   7.613
 6958WAT     H228553   3.113   5.655   7.715
 6958WAT    EPW28554   3.151   5.664   7.647
 6959WAT      O28555   3.409   6.579   6.757
 6959WAT     H128556   3.349   6.638   6.781
 6959WAT     H228557   3.471   6.587   6.817
 6959WAT    EPW28558   3.409   6.589   6.769
 6960WAT      O28559   3.083   6.049   6.897
 6960WAT     H128560   3.048   5.974   6.925
 6960WAT     H228561   3.127   6.078   6.967
 6960WAT    EPW28562   3.085   6.042   6.912
 6961WAT      O28563   2.392   5.367   7.260
 6961WAT     H128564   2.412   5.435   7.209
 6961WAT     H228565   2.470   5.336   7.284
 6961WAT    EPW28566   2.407   5.372   7.256
 6962WAT      O28567   2.194   5.219   7.130
 6962WAT     H128568   2.212   5.229   7.045
 6962WAT     H228569   2.254   5.267   7.169
 6962WAT    EPW28570   2.205   5.228   7.123
 6963WAT      O28571   2.435   4.945   7.408
 6963WAT     H128572   2.393   4.871   7.429
 6963WAT     H228573   2.406   4.962   7.327
 6963WAT    EPW28574   2.425   4.936   7.399
 6964WAT      O28575   3.108   6.198   6.335
 6964WAT     H128576   3.087   6.278   6.307
 6964WAT     H228577   3.035   6.151   6.322
 6964WAT    EPW28578   3.094   6.203   6.329
 6965WAT      O28579   3.665   5.563   7.111
 6965WAT     H128580   3.625   5.512   7.053
 6965WAT     H228581   3.623   5.547   7.186
 6965WAT    EPW28582   3.653   5.553   7.114
 6966WAT      O28583   2.131   5.727   7.195
 6966WAT     H128584   2.173   5.739   7.119
 6966WAT     H228585   2.107   5.643   7.191
 6966WAT    EPW28586   2.134   5.717   7.183
 6967WAT      O28587   2.287   5.304   5.832
 6967WAT     H128588   2.216   5.301   5.882
 6967WAT     H228589   2.291   5.224   5.797
 6967WAT    EPW28590   2.277   5.292   5.834
 6968WAT      O28591   3.215   4.973   7.492
 6968WAT     H128592   3.221   5.059   7.475
 6968WAT     H228593   3.131   4.962   7.513
 6968WAT    EPW28594   3.203   4.984   7.493
 6969WAT      O28595   3.157   5.035   6.581
 6969WAT     H128596   3.084   5.082   6.585
 6969WAT     H228597   3.142   4.979   6.516
 6969WAT    EPW28598   3.144   5.034   6.572
 6970WAT      O28599   2.597   6.228   6.000
 6970WAT     H128600   2.635   6.224   6.079
 6970WAT     H228601   2.514   6.208   6.017
 6970WAT    EPW28602   2.591   6.225   6.014
 6971WAT      O28603   3.488   5.056   6.852
 6971WAT     H128604   3.574   5.056   6.860
 6971WAT     H228605   3.474   5.112   6.786
 6971WAT    EPW28606   3.498   5.064   6.843
 6972WAT      O28607   2.647   5.698   7.248
 6972WAT     H128608   2.605   5.763   7.289
 6972WAT     H228609   2.584   5.659   7.202
 6972WAT    EPW28610   2.632   5.702   7.247
 6973WAT      O28611   3.598   5.525   6.660
 6973WAT     H128612   3.634   5.604   6.665
 6973WAT     H228613   3.515   5.541   6.639
 6973WAT    EPW28614   3.591   5.539   6.658
 6974WAT      O28615   3.552   6.395   6.379
 6974WAT     H128616   3.535   6.318   6.416
 6974WAT     H228617   3.586   6.374   6.302
 6974WAT    EPW28618   3.555   6.381   6.373
 6975WAT      O28619   2.344   6.139   6.055
 6975WAT     H128620   2.341   6.121   6.140
 6975WAT     H228621   2.346   6.060   6.018
 6975WAT    EPW28622   2.344   6.125   6.062
 6976WAT      O28623   2.622   5.979   5.871
 6976WAT     H128624   2.542   5.950   5.888
 6976WAT     H228625   2.625   6.056   5.912
 6976WAT    EPW28626   2.610   5.986   5.879
 6977WAT      O28627   2.594   5.023   7.033
 6977WAT     H128628   2.515   5.003   7.064
 6977WAT     H228629   2.643   4.955   7.055
 6977WAT    EPW28630   2.590   5.010   7.041
 6978WAT      O28631   3.830   4.871   7.147
 6978WAT     H128632   3.843   4.893   7.230
 6978WAT     H228633   3.904   4.831   7.124
 6978WAT    EPW28634   3.843   4.868   7.156
 6979WAT      O28635   3.013   4.989   6.961
 6979WAT     H128636   2.955   4.952   6.907
 6979WAT     H228637   3.089   4.957   6.934
 6979WAT    EPW28638   3.015   4.979   6.949
 6980WAT      O28639   3.317   6.159   7.030
 6980WAT     H128640   3.332   6.230   7.080
 6980WAT     H228641   3.317   6.191   6.949
 6980WAT    EPW28642   3.319   6.174   7.026
 6981WAT      O28643   3.292   6.575   7.479
 6981WAT     H128644   3.213   6.539   7.483
 6981WAT     H228645   3.277   6.659   7.496
 6981WAT    EPW28646   3.278   6.582   7.482
 6982WAT      O28647   2.818   5.502   7.374
 6982WAT     H128648   2.768   5.431   7.365
 6982WAT     H228649   2.770   5.565   7.336
 6982WAT    EPW28650   2.804   5.501   7.367
 6983WAT      O28651   2.921   4.832   5.847
 6983WAT     H128652   2.916   4.833   5.760
 6983WAT     H228653   2.838   4.834   5.872
 6983WAT    EPW28654   2.908   4.832   5.838
 6984WAT      O28655   3.799   6.030   7.046
 6984WAT     H128656   3.756   5.961   7.013
 6984WAT     H228657   3.745   6.096   7.031
 6984WAT    EPW28658   3.784   6.029   7.039
 6985WAT      O28659   2.648   6.506   7.430
 6985WAT     H128660   2.686   6.583   7.444
 6985WAT     H228661   2.707   6.449   7.458
 6985WAT    EPW28662   2.662   6.509   7.436
 6986WAT      O28663   3.660   6.261   6.982
 6986WAT     H128664   3.724   6.294   6.933
 6986WAT     H228665   3.607   6.223   6.924
 6986WAT    EPW28666   3.661   6.260   6.967
 6987WAT      O28667   2.344   4.984   7.152
 6987WAT     H128668   2.290   4.918   7.130
 6987WAT     H228669   2.295   5.055   7.139
 6987WAT    EPW28670   2.329   4.985   7.147
 6988WAT      O28671   3.254   4.911   6.816
 6988WAT     H128672   3.326   4.958   6.826
 6988WAT     H228673   3.217   4.944   6.744
 6988WAT    EPW28674   3.259   4.923   6.807
 6989WAT      O28675   2.415   6.393   7.533
 6989WAT     H128676   2.487   6.440   7.513
 6989WAT     H228677   2.350   6.443   7.505
 6989WAT    EPW28678   2.416   6.407   7.526
 6990WAT      O28679   2.226   5.327   6.510
 6990WAT     H128680   2.181   5.351   6.581
 6990WAT     H228681   2.266   5.254   6.535
 6990WAT    EPW28682   2.225   5.320   6.524
 6991WAT      O28683   2.203   6.123   7.308
 6991WAT     H128684   2.154   6.189   7.335
 6991WAT     H228685   2.284   6.153   7.315
 6991WAT    EPW28686   2.208   6.137   7.313
 6992WAT      O28687   3.437   5.607   6.168
 6992WAT     H128688   3.454   5.526   6.194
 6992WAT     H228689   3.357   5.602   6.134
 6992WAT    EPW28690   3.428   5.594   6.167
 6993WAT      O28691   2.391   6.467   6.187
 6993WAT     H128692   2.361   6.480   6.106
 6993WAT     H228693   2.478   6.462   6.177
 6993WAT    EPW28694   2.400   6.468   6.174
 6994WAT      O28695   2.770   5.649   6.160
 6994WAT     H128696   2.783   5.688   6.083
 6994WAT     H228697   2.850   5.642   6.193
 6994WAT    EPW28698   2.783   5.654   6.154
 6995WAT      O28699   3.651   6.550   5.842
 6995WAT     H128700   3.724   6.539   5.888
 6995WAT     H228701   3.635   6.471   5.809
 6995WAT    EPW28702   3.659   6.537   5.844
 6996WAT      O28703   3.787   5.736   7.526
 6996WAT     H128704   3.868   5.722   7.557
 6996WAT     H228705   3.800   5.792   7.460
 6996WAT    EPW28706   3.801   5.742   7.521
 6997WAT      O28707   3.305   6.146   6.136
 6997WAT     H128708   3.256   6.146   6.208
 6997WAT     H228709   3.273   6.081   6.089
 6997WAT    EPW28710   3.293   6.137   6.140
 6998WAT      O28711   3.816   5.172   7.624
 6998WAT     H128712   3.817   5.251   7.587
 6998WAT     H228713   3.734   5.145   7.612
 6998WAT    EPW28714   3.804   5.180   7.617
 6999WAT      O28715   3.813   5.325   6.912
 6999WAT     H128716   3.730   5.351   6.911
 6999WAT     H228717   3.807   5.239   6.925
 6999WAT    EPW28718   3.800   5.317   6.914
 7000WAT      O28719   2.713   4.981   7.379
 7000WAT     H128720   2.731   4.948   7.301
 7000WAT     H228721   2.627   4.968   7.387
 7000WAT    EPW28722   2.703   4.974   7.369
 7001WAT      O28723   3.543   5.737   7.659
 7001WAT     H128724   3.624   5.738   7.627
 7001WAT     H228725   3.509   5.812   7.632
 7001WAT    EPW28726   3.550   5.748   7.650
 7002WAT      O28727   2.418   6.367   6.810
 7002WAT     H128728   2.403   6.290   6.772
 7002WAT     H228729   2.375   6.424   6.760
 7002WAT    EPW28730   2.410   6.364   6.797
 7003WAT      O28731   2.967   6.003   6.021
 7003WAT     H128732   3.048   5.974   6.009
 7003WAT     H228733   2.963   6.073   5.970
 7003WAT    EPW28734   2.978   6.009   6.012
 7004WAT      O28735   2.174   6.610   7.146
 7004WAT     H128736   2.186   6.591   7.231
 7004WAT     H228737   2.207   6.540   7.105
 7004WAT    EPW28738   2.181   6.597   7.153
 7005WAT      O28739   3.109   5.653   4.886
 7005WAT     H128740   3.092   5.676   4.969
 7005WAT     H228741   3.131   5.569   4.893
 7005WAT    EPW28742   3.110   5.644   4.899
 7006WAT      O28743   2.059   5.934   4.437
 7006WAT     H128744   1.992   5.931   4.493
 7006WAT     H228745   2.082   5.851   4.428
 7006WAT    EPW28746   2.052   5.922   4.444
 7007WAT      O28747   3.735   6.300   4.245
 7007WAT     H128748   3.794   6.238   4.263
 7007WAT     H228749   3.676   6.258   4.195
 7007WAT    EPW28750   3.735   6.284   4.240
 7008WAT      O28751   2.061   5.280   4.106
 7008WAT     H128752   1.999   5.331   4.073
 7008WAT     H228753   2.030   5.199   4.094
 7008WAT    EPW28754   2.047   5.276   4.099
 7009WAT      O28755   2.348   5.898   4.019
 7009WAT     H128756   2.325   5.853   3.948
 7009WAT     H228757   2.358   5.837   4.080
 7009WAT    EPW28758   2.346   5.883   4.017
 7010WAT      O28759   2.316   6.047   4.432
 7010WAT     H128760   2.367   6.001   4.485
 7010WAT     H228761   2.237   6.010   4.441
 7010WAT    EPW28762   2.312   6.035   4.441
 7011WAT      O28763   2.834   4.883   4.252
 7011WAT     H128764   2.844   4.965   4.226
 7011WAT     H228765   2.915   4.853   4.260
 7011WAT    EPW28766   2.847   4.890   4.249
 7012WAT      O28767   2.215   6.344   4.027
 7012WAT     H128768   2.265   6.350   3.955
 7012WAT     H228769   2.251   6.278   4.071
 7012WAT    EPW28770   2.228   6.335   4.023
 7013WAT      O28771   2.126   6.168   5.152
 7013WAT     H128772   2.151   6.149   5.234
 7013WAT     H228773   2.058   6.115   5.139
 7013WAT    EPW28774   2.119   6.157   5.162
 7014WAT      O28775   2.730   6.008   5.612
 7014WAT     H128776   2.702   5.997   5.694
 7014WAT     H228777   2.662   5.981   5.564
 7014WAT    EPW28778   2.716   6.003   5.617
 7015WAT      O28779   2.301   5.618   4.644
 7015WAT     H128780   2.264   5.649   4.572
 7015WAT     H228781   2.285   5.532   4.640
 7015WAT    EPW28782   2.293   5.610   4.633
 7016WAT      O28783   2.683   5.174   5.123
 7016WAT     H128784   2.765   5.147   5.107
 7016WAT     H228785   2.635   5.103   5.107
 7016WAT    EPW28786   2.688   5.159   5.119
 7017WAT      O28787   2.719   6.256   5.335
 7017WAT     H128788   2.695   6.331   5.298
 7017WAT     H228789   2.806   6.262   5.339
 7017WAT    EPW28790   2.728   6.268   5.330
 7018WAT      O28791   2.841   6.090   4.749
 7018WAT     H128792   2.868   6.008   4.757
 7018WAT     H228793   2.914   6.134   4.731
 7018WAT    EPW28794   2.856   6.084   4.747
 7019WAT      O28795   2.920   6.035   4.373
 7019WAT     H128796   2.948   5.963   4.413
 7019WAT     H228797   2.936   6.018   4.288
 7019WAT    EPW28798   2.927   6.022   4.366
 7020WAT      O28799   3.022   5.560   5.570
 7020WAT     H128800   2.939   5.539   5.551
 7020WAT     H228801   3.014   5.625   5.628
 7020WAT    EPW28802   3.008   5.567   5.576
 7021WAT      O28803   2.601   4.941   4.410
 7021WAT     H128804   2.571   4.909   4.334
 7021WAT     H228805   2.682   4.909   4.415
 7021WAT    EPW28806   2.609   4.932   4.399
 7022WAT      O28807   2.821   4.919   4.671
 7022WAT     H128808   2.808   4.862   4.736
 7022WAT     H228809   2.895   4.891   4.634
 7022WAT    EPW28810   2.830   4.907   4.675
 7023WAT      O28811   2.100   5.424   4.865
 7023WAT     H128812   2.089   5.510   4.876
 7023WAT     H228813   2.036   5.389   4.912
 7023WAT    EPW28814   2.089   5.432   4.874
 7024WAT      O28815   2.084   6.402   4.684
 7024WAT     H128816   2.021   6.451   4.649
 7024WAT     H228817   2.123   6.365   4.615
 7024WAT    EPW28818   2.081   6.403   4.669
 7025WAT      O28819   2.671   6.147   4.354
 7025WAT     H128820   2.638   6.146   4.435
 7025WAT     H228821   2.752   6.116   4.364
 7025WAT    EPW28822   2.678   6.142   4.368
 7026WAT      O28823   3.271   6.438   4.161
 7026WAT     H128824   3.344   6.485   4.163
 7026WAT     H228825   3.297   6.357   4.181
 7026WAT    EPW28826   3.285   6.433   4.165
 7027WAT      O28827   3.082   6.456   4.360
 7027WAT     H128828   3.105   6.525   4.408
 7027WAT     H228829   3.141   6.454   4.296
 7027WAT    EPW28830   3.094   6.465   4.358
 7028WAT      O28831   2.322   4.958   4.852
 7028WAT     H128832   2.319   4.872   4.835
 7028WAT     H228833   2.380   4.963   4.917
 7028WAT    EPW28834   2.330   4.946   4.859
 7029WAT      O28835   2.722   5.146   5.824
 7029WAT     H128836   2.729   5.110   5.745
 7029WAT     H228837   2.753   5.227   5.812
 7029WAT    EPW28838   2.728   5.153   5.810
 7030WAT      O28839   2.213   6.305   4.452
 7030WAT     H128840   2.259   6.232   4.464
 7030WAT     H228841   2.267   6.356   4.406
 7030WAT    EPW28842   2.228   6.302   4.447
 7031WAT      O28843   3.344   6.446   5.151
 7031WAT     H128844   3.410   6.499   5.170
 7031WAT     H228845   3.344   6.443   5.063
 7031WAT    EPW28846   3.354   6.453   5.141
 7032WAT      O28847   2.298   5.038   5.731
 7032WAT     H128848   2.220   5.007   5.708
 7032WAT     H228849   2.350   5.015   5.665
 7032WAT    EPW28850   2.294   5.030   5.718
 7033WAT      O28851   2.379   6.127   4.799
 7033WAT     H128852   2.437   6.122   4.734
 7033WAT     H228853   2.407   6.067   4.856
 7033WAT    EPW28854   2.392   6.117   4.798
 7034WAT      O28855   2.650   6.420   4.694
 7034WAT     H128856   2.729   6.442   4.666
 7034WAT     H228857   2.597   6.474   4.650
 7034WAT    EPW28858   2.654   6.431   4.683
 7035WAT      O28859   2.905   4.825   5.569
 7035WAT     H128860   2.990   4.817   5.549
 7035WAT     H228861   2.869   4.755   5.530
 7035WAT    EPW28862   2.912   4.813   5.560
 7036WAT      O28863   3.149   5.364   4.489
 7036WAT     H128864   3.198   5.311   4.440
 7036WAT     H228865   3.188   5.361   4.568
 7036WAT    EPW28866   3.162   5.356   4.494
 7037WAT      O28867   3.490   6.609   4.133
 7037WAT     H128868   3.540   6.583   4.067
 7037WAT     H228869   3.545   6.653   4.184
 7037WAT    EPW28870   3.505   6.612   4.131
 7038WAT      O28871   2.564   6.488   5.284
 7038WAT     H128872   2.570   6.496   5.370
 7038WAT     H228873   2.486   6.452   5.272
 7038WAT    EPW28874   2.554   6.484   5.295
 7039WAT      O28875   2.007   5.169   5.461
 7039WAT     H128876   2.002   5.242   5.509
 7039WAT     H228877   2.067   5.188   5.401
 7039WAT    EPW28878   2.015   5.182   5.460
 7040WAT      O28879   3.218   6.227   5.530
 7040WAT     H128880   3.209   6.250   5.614
 7040WAT     H228881   3.304   6.231   5.516
 7040WAT    EPW28882   3.229   6.231   5.540
 7041WAT      O28883   2.978   6.248   3.966
 7041WAT     H128884   2.948   6.303   4.027
 7041WAT     H228885   3.057   6.281   3.946
 7041WAT    EPW28886   2.986   6.261   3.972
 7042WAT      O28887   2.175   5.073   4.424
 7042WAT     H128888   2.150   4.995   4.395
 7042WAT     H228889   2.108   5.100   4.472
 7042WAT    EPW28890   2.162   5.066   4.427
 7043WAT      O28891   2.310   6.388   5.178
 7043WAT     H128892   2.253   6.322   5.177
 7043WAT     H228893   2.346   6.385   5.098
 7043WAT    EPW28894   2.307   6.378   5.166
 7044WAT      O28895   3.099   6.522   5.258
 7044WAT     H128896   3.177   6.502   5.224
 7044WAT     H228897   3.043   6.501   5.195
 7044WAT    EPW28898   3.102   6.516   5.244
 7045WAT      O28899   3.783   6.527   4.528
 7045WAT     H128900   3.744   6.602   4.549
 7045WAT     H228901   3.717   6.475   4.506
 7045WAT    EPW28902   3.768   6.531   4.528
 7046WAT      O28903   3.466   6.136   4.537
 7046WAT     H128904   3.529   6.077   4.548
 7046WAT     H228905   3.397   6.087   4.514
 7046WAT    EPW28906   3.465   6.120   4.535
 7047WAT      O28907   2.468   6.218   5.471
 7047WAT     H128908   2.546   6.246   5.443
 7047WAT     H228909   2.453   6.267   5.542
 7047WAT    EPW28910   2.477   6.230   5.478
 7048WAT      O28911   2.406   4.788   4.527
 7048WAT     H128912   2.468   4.846   4.508
 7048WAT     H228913   2.420   4.723   4.470
 7048WAT    EPW28914   2.417   4.787   4.516
 7049WAT      O28915   2.681   5.773   4.897
 7049WAT     H128916   2.708   5.770   4.980
 7049WAT     H228917   2.628   5.704   4.889
 7049WAT    EPW28918   2.677   5.762   4.908
 7050WAT      O28919   2.769   5.807   5.160
 7050WAT     H128920   2.744   5.891   5.159
 7050WAT     H228921   2.725   5.774   5.227
 7050WAT    EPW28922   2.759   5.814   5.170
 7051WAT      O28923   3.404   5.921   5.166
 7051WAT     H128924   3.450   5.888   5.233
 7051WAT     H228925   3.397   6.006   5.186
 7051WAT    EPW28926   3.410   5.929   5.179
 7052WAT      O28927   2.012   6.208   5.769
 7052WAT     H128928   2.069   6.255   5.816
 7052WAT     H228929   2.019   6.128   5.803
 7052WAT    EPW28930   2.022   6.203   5.781
 7053WAT      O28931   2.370   5.111   4.628
 7053WAT     H128932   2.320   5.077   4.565
 7053WAT     H228933   2.351   5.061   4.698
 7053WAT    EPW28934   2.360   5.098   4.629
 7054WAT      O28935   3.704   5.941   4.169
 7054WAT     H128936   3.705   5.872   4.222
 7054WAT     H228937   3.771   5.925   4.115
 7054WAT    EPW28938   3.714   5.928   4.169
 7055WAT      O28939   2.456   5.860   4.586
 7055WAT     H128940   2.513   5.841   4.523
 7055WAT     H228941   2.428   5.782   4.612
 7055WAT    EPW28942   2.461   5.846   4.581
 7056WAT      O28943   2.298   6.558   4.767
 7056WAT     H128944   2.223   6.520   4.743
 7056WAT     H228945   2.342   6.563   4.692
 7056WAT    EPW28946   2.293   6.553   4.753
 7057WAT      O28947   2.294   5.294   5.023
 7057WAT     H128948   2.369   5.289   4.978
 7057WAT     H228949   2.239   5.334   4.968
 7057WAT    EPW28950   2.297   5.299   5.008
 7058WAT      O28951   3.928   6.329   5.500
 7058WAT     H128952   3.852   6.339   5.459
 7058WAT     H228953   3.906   6.290   5.575
 7058WAT    EPW28954   3.914   6.325   5.505
 7059WAT      O28955   2.604   5.835   4.348
 7059WAT     H128956   2.632   5.916   4.333
 7059WAT     H228957   2.672   5.786   4.324
 7059WAT    EPW28958   2.618   5.840   4.342
 7060WAT      O28959   2.123   6.005   4.792
 7060WAT     H128960   2.069   6.068   4.820
 7060WAT     H228961   2.200   6.045   4.785
 7060WAT    EPW28962   2.126   6.020   4.795
 7061WAT      O28963   2.829   5.406   5.796
 7061WAT     H128964   2.778   5.431   5.862
 7061WAT     H228965   2.790   5.440   5.726
 7061WAT    EPW28966   2.816   5.415   5.795
 7062WAT      O28967   2.177   5.684   4.405
 7062WAT     H128968   2.148   5.603   4.386
 7062WAT     H228969   2.238   5.699   4.345
 7062WAT    EPW28970   2.181   5.674   4.393
 7063WAT      O28971   3.063   6.250   4.706
 7063WAT     H128972   3.024   6.326   4.691
 7063WAT     H228973   3.096   6.228   4.627
 7063WAT    EPW28974   3.062   6.258   4.692
 7064WAT      O28975   2.048   6.160   4.281
 7064WAT     H128976   2.100   6.211   4.328
 7064WAT     H228977   2.039   6.088   4.330
 7064WAT    EPW28978   2.054   6.157   4.295
 7065WAT      O28979   2.475   5.943   4.983
 7065WAT     H128980   2.523   5.988   5.040
 7065WAT     H228981   2.534   5.893   4.941
 7065WAT    EPW28982   2.491   5.942   4.985
 7066WAT      O28983   2.069   6.000   4.048
 7066WAT     H128984   2.147   5.962   4.041
 7066WAT     H228985   2.078   6.052   4.117
 7066WAT    EPW28986   2.082   6.002   4.057
 7067WAT      O28987   2.125   5.732   4.834
 7067WAT     H128988   2.178   5.702   4.772
 7067WAT     H228989   2.124   5.818   4.820
 7067WAT    EPW28990   2.132   5.740   4.822
 7068WAT      O28991   2.780   5.150   4.168
 7068WAT     H128992   2.770   5.131   4.084
 7068WAT     H228993   2.782   5.237   4.170
 7068WAT    EPW28994   2.779   5.160   4.156
 7069WAT      O28995   3.671   6.372   5.365
 7069WAT     H128996   3.621   6.439   5.388
 7069WAT     H228997   3.669   6.373   5.278
 7069WAT    EPW28998   3.664   6.382   5.356
 7070WAT      O28999   2.598   6.160   4.621
 7070WAT     H129000   2.609   6.244   4.642
 7070WAT     H229001   2.667   6.121   4.658
 7070WAT    EPW29002   2.610   6.167   4.630
 7071WAT      O29003   2.381   5.498   5.651
 7071WAT     H129004   2.343   5.433   5.695
 7071WAT     H229005   2.386   5.466   5.570
 7071WAT    EPW29006   2.376   5.484   5.645
 7072WAT      O29007   2.417   5.443   4.131
 7072WAT     H129008   2.400   5.385   4.194
 7072WAT     H229009   2.375   5.411   4.062
 7072WAT    EPW29010   2.408   5.429   4.130
 7073WAT      O29011   2.493   5.570   4.879
 7073WAT     H129012   2.437   5.581   4.813
 7073WAT     H229013   2.514   5.486   4.875
 7073WAT    EPW29014   2.488   5.559   4.869
 7074WAT      O29015   2.445   5.583   5.180
 7074WAT     H129016   2.472   5.551   5.104
 7074WAT     H229017   2.384   5.640   5.157
 7074WAT    EPW29018   2.440   5.587   5.165
 7075WAT      O29019   2.903   6.447   5.077
 7075WAT     H129020   2.856   6.384   5.038
 7075WAT     H229021   2.886   6.518   5.028
 7075WAT    EPW29022   2.893   6.448   5.064
 7076WAT      O29023   2.267   5.738   5.730
 7076WAT     H129024   2.258   5.786   5.658
 7076WAT     H229025   2.308   5.666   5.701
 7076WAT    EPW29026   2.272   5.734   5.715
 7077WAT      O29027   3.414   5.948   5.585
 7077WAT     H129028   3.445   6.027   5.565
 7077WAT     H229029   3.454   5.896   5.529
 7077WAT    EPW29030   3.425   5.952   5.574
 7078WAT      O29031   2.842   6.270   5.622
 7078WAT     H129032   2.877   6.262   5.702
 7078WAT     H229033   2.802   6.194   5.609
 7078WAT    EPW29034   2.841   6.258   5.632
 7079WAT      O29035   3.251   5.672   4.219
 7079WAT     H129036   3.220   5.706   4.144
 7079WAT     H229037   3.180   5.639   4.257
 7079WAT    EPW29038   3.236   5.672   4.214
 7080WAT      O29039   3.651   5.927   4.575
 7080WAT     H129040   3.617   5.877   4.637
 7080WAT     H229041   3.661   5.872   4.508
 7080WAT    EPW29042   3.647   5.912   4.574
 7081WAT      O29043   3.276   6.204   4.882
 7081WAT     H129044   3.205   6.219   4.833
 7081WAT     H229045   3.326   6.275   4.867
 7081WAT    EPW29046   3.273   6.217   4.872
 7082WAT      O29047   3.375   5.948   4.798
 7082WAT     H129048   3.345   6.029   4.810
 7082WAT     H229049   3.326   5.900   4.851
 7082WAT    EPW29050   3.363   5.953   4.807
 7083WAT      O29051   2.661   6.425   4.307
 7083WAT     H129052   2.667   6.343   4.336
 7083WAT     H229053   2.731   6.433   4.255
 7083WAT    EPW29054   2.672   6.414   4.304
 7084WAT      O29055   2.578   4.812   4.156
 7084WAT     H129056   2.663   4.829   4.169
 7084WAT     H229057   2.548   4.885   4.119
 7084WAT    EPW29058   2.586   4.825   4.152
 7085WAT      O29059   2.892   6.434   4.155
 7085WAT     H129060   2.951   6.443   4.219
 7085WAT     H229061   2.894   6.512   4.115
 7085WAT    EPW29062   2.901   6.447   4.159
 7086WAT      O29063   3.519   5.789   5.384
 7086WAT     H129064   3.500   5.708   5.409
 7086WAT     H229065   3.604   5.784   5.364
 7086WAT    EPW29066   3.529   5.776   5.385
 7087WAT      O29067   3.212   6.351   5.791
 7087WAT     H129068   3.235   6.373   5.872
 7087WAT     H229069   3.231   6.423   5.744
 7087WAT    EPW29070   3.218   6.365   5.796
 7088WAT      O29071   2.383   5.715   4.222
 7088WAT     H129072   2.402   5.633   4.201
 7088WAT     H229073   2.455   5.744   4.261
 7088WAT    EPW29074   2.396   5.707   4.225
 7089WAT      O29075   3.180   5.613   5.346
 7089WAT     H129076   3.138   5.587   5.417
 7089WAT     H229077   3.228   5.544   5.323
 7089WAT    EPW29078   3.181   5.599   5.353
 7090WAT      O29079   2.044   4.828   4.347
 7090WAT     H129080   2.051   4.768   4.284
 7090WAT     H229081   2.012   4.783   4.415
 7090WAT    EPW29082   2.040   4.813   4.348
 7091WAT      O29083   3.029   5.585   4.363
 7091WAT     H129084   3.034   5.651   4.420
 7091WAT     H229085   3.062   5.517   4.408
 7091WAT    EPW29086   3.035   5.585   4.378
 7092WAT      O29087   3.587   6.004   4.977
 7092WAT     H129088   3.545   5.993   4.901
 7092WAT     H229089   3.534   5.968   5.036
 7092WAT    EPW29090   3.573   5.997   4.974
 7093WAT      O29091   2.472   5.051   4.057
 7093WAT     H129092   2.409   5.043   3.998
 7093WAT     H229093   2.541   5.079   4.011
 7093WAT    EPW29094   2.473   5.054   4.042
 7094WAT      O29095   2.923   5.822   4.766
 7094WAT     H129096   2.846   5.797   4.798
 7094WAT     H229097   2.980   5.767   4.803
 7094WAT    EPW29098   2.920   5.810   4.776
 7095WAT      O29099   2.583   6.467   3.924
 7095WAT     H129100   2.605   6.394   3.967
 7095WAT     H229101   2.592   6.529   3.984
 7095WAT    EPW29102   2.588   6.465   3.939
 7096WAT      O29103   2.270   5.774   5.072
 7096WAT     H129104   2.328   5.834   5.048
 7096WAT     H229105   2.225   5.758   4.999
 7096WAT    EPW29106   2.272   5.780   5.058
 7097WAT      O29107   2.645   5.150   4.680
 7097WAT     H129108   2.697   5.081   4.686
 7097WAT     H229109   2.565   5.115   4.672
 7097WAT    EPW29110   2.641   5.135   4.680
 7098WAT      O29111   3.889   6.478   4.104
 7098WAT     H129112   3.954   6.430   4.072
 7098WAT     H229113   3.841   6.421   4.149
 7098WAT    EPW29114   3.891   6.463   4.106
 7099WAT      O29115   2.106   5.416   4.361
 7099WAT     H129116   2.136   5.375   4.432
 7099WAT     H229117   2.112   5.355   4.299
 7099WAT    EPW29118   2.111   5.401   4.363
 7100WAT      O29119   2.571   5.580   3.928
 7100WAT     H129120   2.523   5.549   3.993
 7100WAT     H229121   2.522   5.565   3.857
 7100WAT    EPW29122   2.556   5.573   3.927
 7101WAT      O29123   2.241   5.883   5.499
 7101WAT     H129124   2.203   5.834   5.437
 7101WAT     H229125   2.215   5.964   5.479
 7101WAT    EPW29126   2.231   5.887   5.487
 7102WAT      O29127   2.677   5.407   4.240
 7102WAT     H129128   2.718   5.484   4.242
 7102WAT     H229129   2.607   5.421   4.190
 7102WAT    EPW29130   2.673   5.420   4.233
 7103WAT      O29131   2.046   5.031   4.847
 7103WAT     H129132   2.031   5.061   4.767
 7103WAT     H229133   2.132   5.014   4.847
 7103WAT    EPW29134   2.057   5.033   4.836
 7104WAT      O29135   3.881   6.209   4.867
 7104WAT     H129136   3.913   6.263   4.806
 7104WAT     H229137   3.934   6.219   4.935
 7104WAT    EPW29138   3.893   6.218   4.868
 7105WAT      O29139   3.364   5.432   5.734
 7105WAT     H129140   3.420   5.472   5.787
 7105WAT     H229141   3.396   5.449   5.654
 7105WAT    EPW29142   3.377   5.441   5.730
 7106WAT      O29143   3.500   5.526   5.491
 7106WAT     H129144   3.584   5.531   5.514
 7106WAT     H229145   3.498   5.462   5.433
 7106WAT    EPW29146   3.512   5.517   5.486
 7107WAT      O29147   3.555   6.164   4.094
 7107WAT     H129148   3.587   6.084   4.107
 7107WAT     H229149   3.478   6.162   4.135
 7107WAT    EPW29150   3.548   6.152   4.102
 7108WAT      O29151   3.789   5.764   5.311
 7108WAT     H129152   3.825   5.689   5.286
 7108WAT     H229153   3.812   5.819   5.247
 7108WAT    EPW29154   3.798   5.761   5.298
 7109WAT      O29155   3.274   6.024   3.989
 7109WAT     H129156   3.353   5.990   3.973
 7109WAT     H229157   3.226   5.995   3.922
 7109WAT    EPW29158   3.279   6.015   3.976
 7110WAT      O29159   2.675   6.072   5.132
 7110WAT     H129160   2.680   6.121   5.204
 7110WAT     H229161   2.693   6.128   5.068
 7110WAT    EPW29162   2.678   6.087   5.134
 7111WAT      O29163   2.507   5.940   5.455
 7111WAT     H129164   2.427   5.912   5.473
 7111WAT     H229165   2.498   6.027   5.446
 7111WAT    EPW29166   2.494   5.949   5.456
 7112WAT      O29167   3.036   5.739   5.138
 7112WAT     H129168   3.054   5.675   5.195
 7112WAT     H229169   2.950   5.750   5.147
 7112WAT    EPW29170   3.026   5.731   5.148
 7113WAT      O29171   2.660   5.270   5.391
 7113WAT     H129172   2.686   5.202   5.440
 7113WAT     H229173   2.671   5.242   5.310
 7113WAT    EPW29174   2.666   5.256   5.386
 7114WAT      O29175   2.914   6.476   4.613
 7114WAT     H129176   2.922   6.561   4.632
 7114WAT     H229177   2.937   6.472   4.529
 7114WAT    EPW29178   2.919   6.488   4.603
 7115WAT      O29179   2.737   6.264   4.938
 7115WAT     H129180   2.686   6.315   4.890
 7115WAT     H229181   2.773   6.210   4.879
 7115WAT    EPW29182   2.735   6.264   4.922
 7116WAT      O29183   3.153   5.950   5.694
 7116WAT     H129184   3.232   5.954   5.657
 7116WAT     H229185   3.100   5.982   5.632
 7116WAT    EPW29186   3.157   5.956   5.679
 7117WAT      O29187   3.499   6.209   5.520
 7117WAT     H129188   3.529   6.238   5.596
 7117WAT     H229189   3.549   6.248   5.461
 7117WAT    EPW29190   3.511   6.219   5.522
 7118WAT      O29191   2.796   5.744   3.983
 7118WAT     H129192   2.734   5.692   3.951
 7118WAT     H229193   2.761   5.823   3.979
 7118WAT    EPW29194   2.782   5.748   3.978
 7119WAT      O29195   2.555   5.301   4.905
 7119WAT     H129196   2.590   5.257   4.838
 7119WAT     H229197   2.599   5.270   4.974
 7119WAT    EPW29198   2.567   5.290   4.905
 7120WAT      O29199   2.989   6.494   5.516
 7120WAT     H129200   3.014   6.483   5.433
 7120WAT     H229201   2.954   6.417   5.537
 7120WAT    EPW29202   2.987   6.481   5.507
 7121WAT      O29203   3.717   5.739   4.372
 7121WAT     H129204   3.769   5.672   4.351
 7121WAT     H229205   3.637   5.705   4.371
 7121WAT    EPW29206   3.713   5.724   4.368
 7122WAT      O29207   2.978   5.992   5.478
 7122WAT     H129208   2.900   5.982   5.517
 7122WAT     H229209   2.973   6.072   5.443
 7122WAT    EPW29210   2.965   6.002   5.478
 7123WAT      O29211   2.043   4.940   5.619
 7123WAT     H129212   2.038   5.013   5.570
 7123WAT     H229213   1.959   4.922   5.636
 7123WAT    EPW29214   2.030   4.948   5.614
 7124WAT      O29215   2.580   6.589   5.015
 7124WAT     H129216   2.581   6.570   5.100
 7124WAT     H229217   2.543   6.520   4.978
 7124WAT    EPW29218   2.575   6.576   5.022
 7125WAT      O29219   2.393   5.204   4.284
 7125WAT     H129220   2.408   5.155   4.213
 7125WAT     H229221   2.323   5.166   4.320
 7125WAT    EPW29222   2.385   5.191   4.279
 7126WAT      O29223   3.302   5.885   4.534
 7126WAT     H129224   3.331   5.896   4.615
 7126WAT     H229225   3.351   5.820   4.503
 7126WAT    EPW29226   3.313   5.877   4.541
 7127WAT      O29227   3.032   5.822   4.509
 7127WAT     H129228   3.000   5.821   4.591
 7127WAT     H229229   3.115   5.845   4.520
 7127WAT    EPW29230   3.039   5.825   4.523
 7128WAT      O29231   3.010   6.236   5.345
 7128WAT     H129232   3.077   6.245   5.400
 7128WAT     H229233   3.043   6.261   5.269
 7128WAT    EPW29234   3.024   6.241   5.342
 7129WAT      O29235   2.191   6.569   5.552
 7129WAT     H129236   2.137   6.501   5.542
 7129WAT     H229237   2.138   6.632   5.580
 7129WAT    EPW29238   2.175   6.568   5.555
 7130WAT      O29239   3.036   5.718   5.800
 7130WAT     H129240   3.068   5.794   5.772
 7130WAT     H229241   2.957   5.740   5.831
 7130WAT    EPW29242   3.029   5.733   5.800
 7131WAT      O29243   3.399   6.471   4.868
 7131WAT     H129244   3.379   6.553   4.890
 7131WAT     H229245   3.481   6.460   4.897
 7131WAT    EPW29246   3.408   6.481   4.876
 7132WAT      O29247   3.615   6.289   5.758
 7132WAT     H129248   3.699   6.263   5.757
 7132WAT     H229249   3.583   6.250   5.830
 7132WAT    EPW29250   3.623   6.279   5.769
 7133WAT      O29251   2.406   5.393   5.390
 7133WAT     H129252   2.414   5.450   5.324
 7133WAT     H229253   2.483   5.352   5.391
 7133WAT    EPW29254   2.419   5.395   5.381
 7134WAT      O29255   2.214   5.225   5.277
 7134WAT     H129256   2.232   5.241   5.193
 7134WAT     H229257   2.270   5.277   5.320
 7134WAT    EPW29258   2.225   5.235   5.271
 7135WAT      O29259   2.468   4.957   5.524
 7135WAT     H129260   2.495   4.874   5.522
 7135WAT     H229261   2.431   4.969   5.446
 7135WAT    EPW29262   2.466   4.946   5.512
 7136WAT      O29263   3.134   6.193   4.444
 7136WAT     H129264   3.115   6.273   4.415
 7136WAT     H229265   3.065   6.145   4.420
 7136WAT    EPW29266   3.121   6.197   4.436
 7137WAT      O29267   2.121   5.734   5.301
 7137WAT     H129268   2.161   5.754   5.226
 7137WAT     H229269   2.098   5.651   5.290
 7137WAT    EPW29270   2.123   5.725   5.288
 7138WAT      O29271   2.274   5.317   3.927
 7138WAT     H129272   2.202   5.307   3.976
 7138WAT     H229273   2.286   5.238   3.893
 7138WAT    EPW29274   2.265   5.304   3.929
 7139WAT      O29275   3.249   5.004   5.513
 7139WAT     H129276   3.306   5.018   5.448
 7139WAT     H229277   3.198   5.075   5.512
 7139WAT    EPW29278   3.250   5.016   5.503
 7140WAT      O29279   2.601   6.221   4.075
 7140WAT     H129280   2.649   6.212   4.147
 7140WAT     H229281   2.520   6.202   4.102
 7140WAT    EPW29282   2.596   6.217   4.090
 7141WAT      O29283   2.622   5.697   5.368
 7141WAT     H129284   2.583   5.770   5.396
 7141WAT     H229285   2.563   5.662   5.314
 7141WAT    EPW29286   2.608   5.703   5.364
 7142WAT      O29287   3.559   6.381   4.448
 7142WAT     H129288   3.527   6.305   4.478
 7142WAT     H229289   3.604   6.356   4.377
 7142WAT    EPW29290   3.561   6.366   4.442
 7143WAT      O29291   2.351   6.137   4.160
 7143WAT     H129292   2.347   6.112   4.244
 7143WAT     H229293   2.351   6.062   4.117
 7143WAT    EPW29294   2.350   6.122   4.166
 7144WAT      O29295   2.632   5.973   3.947
 7144WAT     H129296   2.549   5.946   3.958
 7144WAT     H229297   2.633   6.051   3.986
 7144WAT    EPW29298   2.620   5.980   3.954
 7145WAT      O29299   2.519   4.957   5.060
 7145WAT     H129300   2.467   4.958   5.130
 7145WAT     H229301   2.558   4.879   5.063
 7145WAT    EPW29302   2.517   4.946   5.071
 7146WAT      O29303   3.275   6.172   5.167
 7146WAT     H129304   3.305   6.252   5.184
 7146WAT     H229305   3.266   6.171   5.080
 7146WAT    EPW29306   3.278   6.184   5.156
 7147WAT      O29307   3.250   6.556   5.604
 7147WAT     H129308   3.176   6.527   5.569
 7147WAT     H229309   3.235   6.641   5.619
 7147WAT    EPW29310   3.237   6.565   5.601
 7148WAT      O29311   2.751   5.499   5.531
 7148WAT     H129312   2.728   5.428   5.486
 7148WAT     H229313   2.709   5.564   5.490
 7148WAT    EPW29314   2.741   5.498   5.518
 7149WAT      O29315   3.838   5.930   5.083
 7149WAT     H129316   3.882   5.887   5.022
 7149WAT     H229317   3.766   5.956   5.042
 7149WAT    EPW29318   3.834   5.928   5.068
 7150WAT      O29319   2.652   6.471   5.558
 7150WAT     H129320   2.631   6.486   5.641
 7150WAT     H229321   2.712   6.409   5.563
 7150WAT    EPW29322   2.658   6.464   5.571
 7151WAT      O29323   3.626   6.290   4.972
 7151WAT     H129324   3.704   6.283   4.935
 7151WAT     H229325   3.600   6.207   4.981
 7151WAT    EPW29326   3.633   6.277   4.968
 7152WAT      O29327   2.345   4.977   5.276
 7152WAT     H129328   2.285   4.914   5.262
 7152WAT     H229329   2.298   5.050   5.273
 7152WAT    EPW29330   2.329   4.978   5.273
 7153WAT      O29331   2.356   6.375   5.688
 7153WAT     H129332   2.425   6.411   5.729
 7153WAT     H229333   2.317   6.444   5.651
 7153WAT    EPW29334   2.361   6.391   5.689
 7154WAT      O29335   2.222   5.352   4.620
 7154WAT     H129336   2.172   5.355   4.691
 7154WAT     H229337   2.268   5.278   4.630
 7154WAT    EPW29338   2.222   5.341   4.632
 7155WAT      O29339   2.203   6.146   5.416
 7155WAT     H129340   2.151   6.208   5.449
 7155WAT     H229341   2.283   6.178   5.428
 7155WAT    EPW29342   2.207   6.160   5.422
 7156WAT      O29343   3.449   5.657   4.417
 7156WAT     H129344   3.441   5.575   4.445
 7156WAT     H229345   3.396   5.661   4.349
 7156WAT    EPW29346   3.440   5.646   4.411
 7157WAT      O29347   2.386   6.458   4.294
 7157WAT     H129348   2.358   6.465   4.212
 7157WAT     H229349   2.472   6.443   4.285
 7157WAT    EPW29350   2.395   6.456   4.281
 7158WAT      O29351   2.790   5.657   4.246
 7158WAT     H129352   2.805   5.685   4.164
 7158WAT     H229353   2.869   5.638   4.276
 7158WAT    EPW29354   2.804   5.658   4.238
 7159WAT      O29355   3.669   6.528   3.935
 7159WAT     H129356   3.741   6.519   3.983
 7159WAT     H229357   3.654   6.447   3.906
 7159WAT    EPW29358   3.677   6.515   3.938
 7160WAT      O29359   3.772   5.601   5.553
 7160WAT     H129360   3.841   5.550   5.537
 7160WAT     H229361   3.786   5.671   5.503
 7160WAT    EPW29362   3.784   5.604   5.543
 7161WAT      O29363   3.308   6.173   4.219
 7161WAT     H129364   3.262   6.153   4.290
 7161WAT     H229365   3.277   6.119   4.158
 7161WAT    EPW29366   3.296   6.162   4.221
 7162WAT      O29367   2.728   5.051   5.560
 7162WAT     H129368   2.783   4.985   5.550
 7162WAT     H229369   2.650   5.015   5.548
 7162WAT    EPW29370   2.725   5.036   5.557
 7163WAT      O29371   3.470   5.839   5.845
 7163WAT     H129372   3.545   5.871   5.876
 7163WAT     H229373   3.466   5.870   5.764
 7163WAT    EPW29374   3.480   5.848   5.837
 7164WAT      O29375   2.421   6.372   4.926
 7164WAT     H129376   2.410   6.295   4.888
 7164WAT     H229377   2.379   6.428   4.872
 7164WAT    EPW29378   2.413   6.369   4.912
 7165WAT      O29379   2.964   6.002   4.107
 7165WAT     H129380   3.013   5.938   4.074
 7165WAT     H229381   2.979   6.069   4.053
 7165WAT    EPW29382   2.974   6.002   4.094
 7166WAT      O29383   2.178   6.616   5.272
 7166WAT     H129384   2.183   6.597   5.357
 7166WAT     H229385   2.214   6.547   5.233
 7166WAT    EPW29386   2.184   6.603   5.279
 7167WAT      O29387   3.191   4.771   2.619
 7167WAT     H129388   3.165   4.835   2.566
 7167WAT     H229389   3.275   4.790   2.633
 7167WAT    EPW29390   3.200   4.783   2.614
 7168WAT      O29391   3.095   5.465   3.109
 7168WAT     H129392   3.064   5.546   3.115
 7168WAT     H229393   3.110   5.442   3.192
 7168WAT    EPW29394   3.092   5.473   3.122
 7169WAT      O29395   2.057   5.944   2.533
 7169WAT     H129396   1.994   5.939   2.592
 7169WAT     H229397   2.073   5.860   2.512
 7169WAT    EPW29398   2.050   5.931   2.538
 7170WAT      O29399   3.715   6.316   2.362
 7170WAT     H129400   3.778   6.257   2.375
 7170WAT     H229401   3.660   6.276   2.308
 7170WAT    EPW29402   3.716   6.302   2.356
 7171WAT      O29403   2.073   5.295   2.217
 7171WAT     H129404   2.007   5.341   2.183
 7171WAT     H229405   2.043   5.214   2.220
 7171WAT    EPW29406   2.059   5.290   2.212
 7172WAT      O29407   2.407   5.872   2.137
 7172WAT     H129408   2.369   5.831   2.070
 7172WAT     H229409   2.411   5.811   2.199
 7172WAT    EPW29410   2.402   5.857   2.136
 7173WAT      O29411   3.330   5.645   2.714
 7173WAT     H129412   3.338   5.617   2.631
 7173WAT     H229413   3.280   5.585   2.751
 7173WAT    EPW29414   3.324   5.632   2.707
 7174WAT      O29415   2.311   6.060   2.515
 7174WAT     H129416   2.366   6.014   2.564
 7174WAT     H229417   2.235   6.021   2.527
 7174WAT    EPW29418   2.308   6.048   2.524
 7175WAT      O29419   2.805   4.958   2.468
 7175WAT     H129420   2.804   5.025   2.412
 7175WAT     H229421   2.882   4.920   2.453
 7175WAT    EPW29422   2.816   4.962   2.457
 7176WAT      O29423   2.219   6.338   2.117
 7176WAT     H129424   2.267   6.346   2.044
 7176WAT     H229425   2.253   6.268   2.156
 7176WAT    EPW29426   2.231   6.329   2.112
 7177WAT      O29427   2.082   6.177   3.239
 7177WAT     H129428   2.116   6.149   3.314
 7177WAT     H229429   2.011   6.127   3.228
 7177WAT    EPW29430   2.076   6.166   3.248
 7178WAT      O29431   2.746   6.015   3.691
 7178WAT     H129432   2.723   5.996   3.773
 7178WAT     H229433   2.677   5.989   3.644
 7178WAT    EPW29434   2.732   6.008   3.696
 7179WAT      O29435   2.289   5.676   2.714
 7179WAT     H129436   2.236   5.691   2.647
 7179WAT     H229437   2.339   5.610   2.688
 7179WAT    EPW29438   2.288   5.669   2.700
 7180WAT      O29439   2.707   5.144   3.212
 7180WAT     H129440   2.779   5.168   3.168
 7180WAT     H229441   2.643   5.185   3.169
 7180WAT    EPW29442   2.708   5.154   3.199
 7181WAT      O29443   2.728   6.250   3.443
 7181WAT     H129444   2.703   6.328   3.412
 7181WAT     H229445   2.811   6.263   3.464
 7181WAT    EPW29446   2.736   6.264   3.442
 7182WAT      O29447   2.440   5.474   2.615
 7182WAT     H129448   2.499   5.445   2.671
 7182WAT     H229449   2.372   5.420   2.627
 7182WAT    EPW29450   2.438   5.462   2.625
 7183WAT      O29451   2.839   6.121   2.865
 7183WAT     H129452   2.867   6.040   2.883
 7183WAT     H229453   2.913   6.165   2.850
 7183WAT    EPW29454   2.854   6.115   2.865
 7184WAT      O29455   2.892   6.027   2.485
 7184WAT     H129456   2.934   5.966   2.532
 7184WAT     H229457   2.918   6.011   2.404
 7184WAT    EPW29458   2.902   6.015   2.480
 7185WAT      O29459   2.529   4.995   2.549
 7185WAT     H129460   2.496   5.053   2.493
 7185WAT     H229461   2.612   4.988   2.525
 7185WAT    EPW29462   2.536   5.003   2.537
 7186WAT      O29463   3.563   4.723   3.516
 7186WAT     H129464   3.631   4.771   3.542
 7186WAT     H229465   3.562   4.657   3.573
 7186WAT    EPW29466   3.573   4.721   3.529
 7187WAT      O29467   2.868   4.969   2.741
 7187WAT     H129468   2.858   5.054   2.756
 7187WAT     H229469   2.841   4.960   2.659
 7187WAT    EPW29470   2.862   4.980   2.731
 7188WAT      O29471   3.257   5.131   2.009
 7188WAT     H129472   3.210   5.197   2.040
 7188WAT     H229473   3.270   5.080   2.079
 7188WAT    EPW29474   3.252   5.133   2.024
 7189WAT      O29475   2.101   5.439   2.956
 7189WAT     H129476   2.104   5.525   2.972
 7189WAT     H229477   2.035   5.411   3.004
 7189WAT    EPW29478   2.092   5.447   2.965
 7190WAT      O29479   2.101   6.426   2.791
 7190WAT     H129480   2.034   6.468   2.755
 7190WAT     H229481   2.138   6.385   2.723
 7190WAT    EPW29482   2.097   6.426   2.775
 7191WAT      O29483   2.674   6.195   2.457
 7191WAT     H129484   2.633   6.180   2.532
 7191WAT     H229485   2.747   6.147   2.464
 7191WAT    EPW29486   2.679   6.186   2.469
 7192WAT      O29487   3.274   6.420   2.270
 7192WAT     H129488   3.347   6.469   2.273
 7192WAT     H229489   3.302   6.340   2.290
 7192WAT    EPW29490   3.289   6.416   2.273
 7193WAT      O29491   3.079   6.457   2.459
 7193WAT     H129492   3.104   6.528   2.504
 7193WAT     H229493   3.141   6.449   2.398
 7193WAT    EPW29494   3.092   6.467   2.457
 7194WAT      O29495   2.411   4.940   2.960
 7194WAT     H129496   2.351   4.882   2.936
 7194WAT     H229497   2.486   4.895   2.957
 7194WAT    EPW29498   2.413   4.925   2.956
 7195WAT      O29499   2.695   5.114   3.899
 7195WAT     H129500   2.707   5.071   3.824
 7195WAT     H229501   2.712   5.197   3.879
 7195WAT    EPW29502   2.699   5.120   3.885
 7196WAT      O29503   2.212   6.316   2.552
 7196WAT     H129504   2.256   6.241   2.559
 7196WAT     H229505   2.264   6.365   2.502
 7196WAT    EPW29506   2.226   6.312   2.546
 7197WAT      O29507   3.784   5.145   2.614
 7197WAT     H129508   3.748   5.214   2.653
 7197WAT     H229509   3.719   5.086   2.611
 7197WAT    EPW29510   3.769   5.146   2.619
 7198WAT      O29511   3.337   6.441   3.273
 7198WAT     H129512   3.407   6.491   3.261
 7198WAT     H229513   3.310   6.423   3.193
 7198WAT    EPW29514   3.343   6.445   3.260
 7199WAT      O29515   2.299   5.051   3.835
 7199WAT     H129516   2.220   5.024   3.811
 7199WAT     H229517   2.351   5.022   3.770
 7199WAT    EPW29518   2.295   5.043   3.822
 7200WAT      O29519   2.341   6.132   2.856
 7200WAT     H129520   2.399   6.117   2.792
 7200WAT     H229521   2.372   6.084   2.922
 7200WAT    EPW29522   2.354   6.122   2.856
 7201WAT      O29523   2.652   6.432   2.794
 7201WAT     H129524   2.732   6.453   2.765
 7201WAT     H229525   2.599   6.483   2.748
 7201WAT    EPW29526   2.656   6.442   2.783
 7202WAT      O29527   3.021   5.391   2.617
 7202WAT     H129528   3.053   5.342   2.552
 7202WAT     H229529   3.089   5.399   2.671
 7202WAT    EPW29530   3.036   5.385   2.615
 7203WAT      O29531   3.097   5.335   2.119
 7203WAT     H129532   3.121   5.414   2.146
 7203WAT     H229533   3.021   5.349   2.079
 7203WAT    EPW29534   3.090   5.348   2.117
 7204WAT      O29535   3.486   6.606   2.251
 7204WAT     H129536   3.534   6.585   2.182
 7204WAT     H229537   3.539   6.655   2.299
 7204WAT    EPW29538   3.501   6.610   2.248
 7205WAT      O29539   2.554   6.470   3.387
 7205WAT     H129540   2.564   6.489   3.472
 7205WAT     H229541   2.476   6.431   3.384
 7205WAT    EPW29542   2.544   6.467   3.399
 7206WAT      O29543   3.760   5.091   3.286
 7206WAT     H129544   3.831   5.051   3.256
 7206WAT     H229545   3.772   5.091   3.373
 7206WAT    EPW29546   3.772   5.085   3.295
 7207WAT      O29547   2.005   5.177   3.552
 7207WAT     H129548   2.001   5.250   3.599
 7207WAT     H229549   2.063   5.196   3.490
 7207WAT    EPW29550   2.013   5.191   3.550
 7208WAT      O29551   3.222   6.252   3.642
 7208WAT     H129552   3.218   6.272   3.727
 7208WAT     H229553   3.306   6.234   3.629
 7208WAT    EPW29554   3.234   6.252   3.652
 7209WAT      O29555   2.962   6.248   2.073
 7209WAT     H129556   2.934   6.310   2.128
 7209WAT     H229557   3.042   6.276   2.050
 7209WAT    EPW29558   2.970   6.261   2.078
 7210WAT      O29559   3.306   4.960   2.228
 7210WAT     H129560   3.358   4.891   2.232
 7210WAT     H229561   3.331   5.010   2.295
 7210WAT    EPW29562   3.317   4.957   2.239
 7211WAT      O29563   2.129   5.084   2.477
 7211WAT     H129564   2.109   5.000   2.464
 7211WAT     H229565   2.082   5.106   2.547
 7211WAT    EPW29566   2.119   5.075   2.485
 7212WAT      O29567   2.286   6.382   3.266
 7212WAT     H129568   2.223   6.322   3.269
 7212WAT     H229569   2.317   6.375   3.185
 7212WAT    EPW29570   2.281   6.372   3.254
 7213WAT      O29571   3.087   5.233   2.385
 7213WAT     H129572   3.013   5.188   2.372
 7213WAT     H229573   3.100   5.273   2.308
 7213WAT    EPW29574   3.078   5.233   2.371
 7214WAT      O29575   3.087   6.508   3.369
 7214WAT     H129576   3.171   6.494   3.348
 7214WAT     H229577   3.045   6.496   3.293
 7214WAT    EPW29578   3.093   6.505   3.354
 7215WAT      O29579   3.068   4.886   2.361
 7215WAT     H129580   3.014   4.875   2.294
 7215WAT     H229581   3.142   4.912   2.324
 7215WAT    EPW29582   3.071   4.888   2.346
 7216WAT      O29583   3.761   6.553   2.631
 7216WAT     H129584   3.720   6.629   2.646
 7216WAT     H229585   3.696   6.497   2.617
 7216WAT    EPW29586   3.746   6.556   2.631
 7217WAT      O29587   2.844   5.242   2.784
 7217WAT     H129588   2.897   5.292   2.736
 7217WAT     H229589   2.877   5.249   2.865
 7217WAT    EPW29590   2.857   5.251   2.789
 7218WAT      O29591   3.492   6.125   2.703
 7218WAT     H129592   3.559   6.071   2.690
 7218WAT     H229593   3.422   6.075   2.692
 7218WAT    EPW29594   3.492   6.110   2.699
 7219WAT      O29595   2.463   6.226   3.561
 7219WAT     H129596   2.546   6.243   3.542
 7219WAT     H229597   2.450   6.265   3.638
 7219WAT    EPW29598   2.473   6.234   3.569
 7220WAT      O29599   2.406   4.751   2.605
 7220WAT     H129600   2.446   4.827   2.587
 7220WAT     H229601   2.386   4.720   2.526
 7220WAT    EPW29602   2.409   4.758   2.590
 7221WAT      O29603   2.666   5.845   2.991
 7221WAT     H129604   2.686   5.818   3.071
 7221WAT     H229605   2.615   5.782   2.960
 7221WAT    EPW29606   2.661   5.832   2.998
 7222WAT      O29607   2.774   5.819   3.245
 7222WAT     H129608   2.760   5.905   3.252
 7222WAT     H229609   2.734   5.786   3.315
 7222WAT    EPW29610   2.766   5.827   3.257
 7223WAT      O29611   3.370   5.893   3.250
 7223WAT     H129612   3.308   5.859   3.301
 7223WAT     H229613   3.358   5.979   3.257
 7223WAT    EPW29614   3.359   5.900   3.258
 7224WAT      O29615   3.443   4.788   2.752
 7224WAT     H129616   3.447   4.833   2.826
 7224WAT     H229617   3.507   4.729   2.761
 7224WAT    EPW29618   3.453   4.786   2.764
 7225WAT      O29619   2.017   6.216   3.868
 7225WAT     H129620   2.074   6.262   3.915
 7225WAT     H229621   2.024   6.135   3.900
 7225WAT    EPW29622   2.026   6.211   3.880
 7226WAT      O29623   2.400   5.129   2.762
 7226WAT     H129624   2.434   5.082   2.697
 7226WAT     H229625   2.398   5.074   2.829
 7226WAT    EPW29626   2.405   5.114   2.762
 7227WAT      O29627   3.691   5.939   2.172
 7227WAT     H129628   3.694   5.883   2.239
 7227WAT     H229629   3.774   5.948   2.149
 7227WAT    EPW29630   3.704   5.932   2.179
 7228WAT      O29631   2.457   5.900   2.681
 7228WAT     H129632   2.526   5.876   2.633
 7228WAT     H229633   2.416   5.826   2.698
 7228WAT    EPW29634   2.461   5.886   2.677
 7229WAT      O29635   2.318   6.588   2.877
 7229WAT     H129636   2.237   6.562   2.857
 7229WAT     H229637   2.359   6.588   2.800
 7229WAT    EPW29638   2.312   6.584   2.863
 7230WAT      O29639   2.242   5.233   3.083
 7230WAT     H129640   2.329   5.238   3.072
 7230WAT     H229641   2.213   5.306   3.046
 7230WAT    EPW29642   2.251   5.245   3.076
 7231WAT      O29643   3.896   6.318   3.590
 7231WAT     H129644   3.821   6.330   3.548
 7231WAT     H229645   3.873   6.275   3.662
 7231WAT    EPW29646   3.882   6.313   3.594
 7232WAT      O29647   3.514   5.582   2.157
 7232WAT     H129648   3.497   5.659   2.120
 7232WAT     H229649   3.543   5.603   2.236
 7232WAT    EPW29650   3.516   5.596   2.163
 7233WAT      O29651   2.660   5.848   2.498
 7233WAT     H129652   2.722   5.909   2.494
 7233WAT     H229653   2.691   5.784   2.448
 7233WAT    EPW29654   2.674   5.848   2.490
 7234WAT      O29655   2.085   6.019   2.862
 7234WAT     H129656   2.035   6.083   2.894
 7234WAT     H229657   2.162   6.058   2.849
 7234WAT    EPW29658   2.089   6.034   2.865
 7235WAT      O29659   2.747   5.379   3.850
 7235WAT     H129660   2.697   5.444   3.881
 7235WAT     H229661   2.767   5.406   3.769
 7235WAT    EPW29662   2.742   5.393   3.842
 7236WAT      O29663   3.934   5.467   3.415
 7236WAT     H129664   3.933   5.417   3.487
 7236WAT     H229665   3.888   5.421   3.357
 7236WAT    EPW29666   3.927   5.453   3.417
 7237WAT      O29667   2.154   5.690   2.472
 7237WAT     H129668   2.129   5.607   2.470
 7237WAT     H229669   2.227   5.691   2.425
 7237WAT    EPW29670   2.161   5.678   2.465
 7238WAT      O29671   3.682   4.914   2.347
 7238WAT     H129672   3.758   4.878   2.370
 7238WAT     H229673   3.648   4.941   2.422
 7238WAT    EPW29674   3.688   4.913   2.361
 7239WAT      O29675   3.068   6.270   2.809
 7239WAT     H129676   3.025   6.341   2.783
 7239WAT     H229677   3.097   6.236   2.734
 7239WAT    EPW29678   3.066   6.275   2.794
 7240WAT      O29679   2.047   6.171   2.380
 7240WAT     H129680   2.097   6.223   2.428
 7240WAT     H229681   2.038   6.099   2.429
 7240WAT    EPW29682   2.053   6.168   2.394
 7241WAT      O29683   2.468   6.021   3.071
 7241WAT     H129684   2.405   5.974   3.110
 7241WAT     H229685   2.526   5.961   3.045
 7241WAT    EPW29686   2.467   6.005   3.073
 7242WAT      O29687   3.383   5.217   2.893
 7242WAT     H129688   3.423   5.246   2.965
 7242WAT     H229689   3.368   5.133   2.910
 7242WAT    EPW29690   3.387   5.209   2.906
 7243WAT      O29691   2.058   6.001   2.150
 7243WAT     H129692   2.131   5.954   2.147
 7243WAT     H229693   2.071   6.055   2.217
 7243WAT    EPW29694   2.071   6.002   2.160
 7244WAT      O29695   2.121   5.755   2.926
 7244WAT     H129696   2.170   5.727   2.860
 7244WAT     H229697   2.106   5.839   2.907
 7244WAT    EPW29698   2.126   5.763   2.913
 7245WAT      O29699   2.824   5.155   2.279
 7245WAT     H129700   2.807   5.126   2.198
 7245WAT     H229701   2.787   5.234   2.280
 7245WAT    EPW29702   2.816   5.163   2.267
 7246WAT      O29703   3.654   6.359   3.449
 7246WAT     H129704   3.610   6.433   3.463
 7246WAT     H229705   3.644   6.346   3.363
 7246WAT    EPW29706   3.646   6.368   3.438
 7247WAT      O29707   2.600   6.175   2.724
 7247WAT     H129708   2.614   6.260   2.738
 7247WAT     H229709   2.674   6.138   2.751
 7247WAT    EPW29710   2.613   6.182   2.730
 7248WAT      O29711   2.376   5.501   3.741
 7248WAT     H129712   2.335   5.440   3.789
 7248WAT     H229713   2.388   5.462   3.664
 7248WAT    EPW29714   2.372   5.486   3.737
 7249WAT      O29715   2.422   5.413   2.252
 7249WAT     H129716   2.406   5.352   2.312
 7249WAT     H229717   2.380   5.385   2.182
 7249WAT    EPW29718   2.414   5.400   2.251
 7250WAT      O29719   2.489   5.652   2.921
 7250WAT     H129720   2.414   5.650   2.875
 7250WAT     H229721   2.466   5.618   2.997
 7250WAT    EPW29722   2.474   5.647   2.925
 7251WAT      O29723   3.498   5.396   3.082
 7251WAT     H129724   3.429   5.427   3.125
 7251WAT     H229725   3.509   5.453   3.017
 7251WAT    EPW29726   3.490   5.409   3.079
 7252WAT      O29727   2.971   6.430   3.134
 7252WAT     H129728   3.040   6.408   3.084
 7252WAT     H229729   2.934   6.495   3.088
 7252WAT    EPW29730   2.976   6.437   3.120
 7253WAT      O29731   3.342   5.123   2.448
 7253WAT     H129732   3.397   5.191   2.443
 7253WAT     H229733   3.263   5.159   2.441
 7253WAT    EPW29734   3.339   5.139   2.446
 7254WAT      O29735   2.262   5.745   3.806
 7254WAT     H129736   2.253   5.792   3.733
 7254WAT     H229737   2.303   5.673   3.779
 7254WAT    EPW29738   2.267   5.742   3.791
 7255WAT      O29739   3.394   5.933   3.639
 7255WAT     H129740   3.430   6.010   3.619
 7255WAT     H229741   3.436   5.877   3.586
 7255WAT    EPW29742   3.406   5.936   3.628
 7256WAT      O29743   2.845   6.279   3.726
 7256WAT     H129744   2.882   6.269   3.804
 7256WAT     H229745   2.813   6.200   3.708
 7256WAT    EPW29746   2.846   6.266   3.735
 7257WAT      O29747   2.934   5.231   3.053
 7257WAT     H129748   2.982   5.301   3.071
 7257WAT     H229749   2.989   5.164   3.066
 7257WAT    EPW29750   2.949   5.231   3.057
 7258WAT      O29751   3.166   5.576   2.238
 7258WAT     H129752   3.147   5.630   2.173
 7258WAT     H229753   3.113   5.603   2.303
 7258WAT    EPW29754   3.155   5.588   2.238
 7259WAT      O29755   3.693   5.935   2.678
 7259WAT     H129756   3.697   5.884   2.749
 7259WAT     H229757   3.679   5.878   2.613
 7259WAT    EPW29758   3.692   5.919   2.679
 7260WAT      O29759   3.228   6.348   3.024
 7260WAT     H129760   3.187   6.312   2.955
 7260WAT     H229761   3.284   6.403   2.987
 7260WAT    EPW29762   3.230   6.351   3.008
 7261WAT      O29763   3.253   5.965   2.997
 7261WAT     H129764   3.177   5.996   3.026
 7261WAT     H229765   3.283   5.917   3.063
 7261WAT    EPW29766   3.246   5.963   3.011
 7262WAT      O29767   2.661   6.462   2.395
 7262WAT     H129768   2.665   6.382   2.429
 7262WAT     H229769   2.732   6.465   2.343
 7262WAT    EPW29770   2.672   6.450   2.392
 7263WAT      O29771   2.617   4.823   2.196
 7263WAT     H129772   2.608   4.796   2.279
 7263WAT     H229773   2.564   4.892   2.191
 7263WAT    EPW29774   2.608   4.829   2.208
 7264WAT      O29775   2.894   6.453   2.248
 7264WAT     H129776   2.953   6.461   2.312
 7264WAT     H229777   2.898   6.530   2.207
 7264WAT    EPW29778   2.904   6.466   2.252
 7265WAT      O29779   3.516   5.763   3.460
 7265WAT     H129780   3.500   5.814   3.391
 7265WAT     H229781   3.601   5.777   3.476
 7265WAT    EPW29782   3.526   5.773   3.452
 7266WAT      O29783   3.214   6.383   3.895
 7266WAT     H129784   3.237   6.403   3.977
 7266WAT     H229785   3.242   6.450   3.848
 7266WAT    EPW29786   3.221   6.396   3.900
 7267WAT      O29787   2.401   5.679   2.342
 7267WAT     H129788   2.404   5.595   2.321
 7267WAT     H229789   2.463   5.686   2.404
 7267WAT    EPW29790   2.411   5.668   2.348
 7268WAT      O29791   3.161   5.794   3.412
 7268WAT     H129792   3.104   5.845   3.454
 7268WAT     H229793   3.191   5.742   3.475
 7268WAT    EPW29794   3.157   5.794   3.427
 7269WAT      O29795   2.036   4.815   2.437
 7269WAT     H129796   2.039   4.761   2.369
 7269WAT     H229797   2.006   4.765   2.502
 7269WAT    EPW29798   2.032   4.800   2.436
 7270WAT      O29799   3.007   5.629   2.466
 7270WAT     H129800   3.021   5.694   2.523
 7270WAT     H229801   3.011   5.557   2.515
 7270WAT    EPW29802   3.010   5.628   2.482
 7271WAT      O29803   3.483   6.131   2.986
 7271WAT     H129804   3.497   6.141   2.900
 7271WAT     H229805   3.411   6.082   2.989
 7271WAT    EPW29806   3.474   6.125   2.974
 7272WAT      O29807   2.468   5.053   2.146
 7272WAT     H129808   2.407   5.047   2.084
 7272WAT     H229809   2.536   5.088   2.105
 7272WAT    EPW29810   2.469   5.057   2.131
 7273WAT      O29811   2.928   5.853   2.904
 7273WAT     H129812   2.844   5.838   2.922
 7273WAT     H229813   2.970   5.819   2.972
 7273WAT    EPW29814   2.921   5.846   2.917
 7274WAT      O29815   2.589   6.454   2.013
 7274WAT     H129816   2.607   6.384   2.062
 7274WAT     H229817   2.596   6.520   2.069
 7274WAT    EPW29818   2.592   6.453   2.028
 7275WAT      O29819   2.264   5.844   3.154
 7275WAT     H129820   2.312   5.774   3.176
 7275WAT     H229821   2.219   5.817   3.084
 7275WAT    EPW29822   2.264   5.829   3.147
 7276WAT      O29823   2.582   5.330   2.810
 7276WAT     H129824   2.663   5.302   2.796
 7276WAT     H229825   2.532   5.261   2.791
 7276WAT    EPW29826   2.587   5.316   2.805
 7277WAT      O29827   3.883   6.489   2.222
 7277WAT     H129828   3.953   6.443   2.198
 7277WAT     H229829   3.834   6.432   2.265
 7277WAT    EPW29830   3.886   6.474   2.225
 7278WAT      O29831   2.090   5.419   2.472
 7278WAT     H129832   2.122   5.379   2.543
 7278WAT     H229833   2.103   5.362   2.408
 7278WAT    EPW29834   2.097   5.405   2.473
 7279WAT      O29835   3.631   5.812   3.168
 7279WAT     H129836   3.633   5.732   3.202
 7279WAT     H229837   3.547   5.834   3.172
 7279WAT    EPW29838   3.619   5.803   3.173
 7280WAT      O29839   2.594   5.587   2.025
 7280WAT     H129840   2.562   5.545   2.094
 7280WAT     H229841   2.542   5.563   1.959
 7280WAT    EPW29842   2.582   5.578   2.025
 7281WAT      O29843   2.240   5.888   3.572
 7281WAT     H129844   2.202   5.842   3.509
 7281WAT     H229845   2.217   5.971   3.555
 7281WAT    EPW29846   2.231   5.894   3.560
 7282WAT      O29847   3.728   5.775   2.906
 7282WAT     H129848   3.700   5.799   2.985
 7282WAT     H229849   3.815   5.777   2.912
 7282WAT    EPW29850   3.736   5.779   2.918
 7283WAT      O29851   2.699   5.402   2.251
 7283WAT     H129852   2.720   5.478   2.288
 7283WAT     H229853   2.613   5.397   2.262
 7283WAT    EPW29854   2.689   5.413   2.258
 7284WAT      O29855   2.061   5.050   2.953
 7284WAT     H129856   2.043   5.080   2.873
 7284WAT     H229857   2.128   5.099   2.979
 7284WAT    EPW29858   2.068   5.061   2.945
 7285WAT      O29859   3.886   6.310   3.007
 7285WAT     H129860   3.893   6.332   2.923
 7285WAT     H229861   3.928   6.374   3.049
 7285WAT    EPW29862   3.893   6.323   3.001
 7286WAT      O29863   3.550   6.173   2.199
 7286WAT     H129864   3.588   6.095   2.195
 7286WAT     H229865   3.475   6.157   2.241
 7286WAT    EPW29866   3.544   6.159   2.205
 7287WAT      O29867   3.588   5.324   2.729
 7287WAT     H129868   3.527   5.280   2.773
 7287WAT     H229869   3.587   5.403   2.766
 7287WAT    EPW29870   3.579   5.329   2.741
 7288WAT      O29871   3.781   5.837   3.513
 7288WAT     H129872   3.844   5.789   3.476
 7288WAT     H229873   3.774   5.906   3.461
 7288WAT    EPW29874   3.789   5.840   3.500
 7289WAT      O29875   3.231   5.957   2.134
 7289WAT     H129876   3.305   5.912   2.127
 7289WAT     H229877   3.201   5.963   2.052
 7289WAT    EPW29878   3.237   5.951   2.121
 7290WAT      O29879   2.771   6.098   3.217
 7290WAT     H129880   2.762   6.140   3.293
 7290WAT     H229881   2.857   6.097   3.204
 7290WAT    EPW29882   2.782   6.104   3.226
 7291WAT      O29883   2.512   5.947   3.549
 7291WAT     H129884   2.431   5.915   3.557
 7291WAT     H229885   2.499   6.033   3.540
 7291WAT    EPW29886   2.498   5.955   3.549
 7292WAT      O29887   3.026   5.743   3.173
 7292WAT     H129888   3.069   5.743   3.249
 7292WAT     H229889   2.943   5.753   3.196
 7292WAT    EPW29890   3.020   5.744   3.187
 7293WAT      O29891   2.658   5.235   3.476
 7293WAT     H129892   2.677   5.166   3.525
 7293WAT     H229893   2.678   5.209   3.395
 7293WAT    EPW29894   2.664   5.221   3.471
 7294WAT      O29895   2.915   6.482   2.708
 7294WAT     H129896   2.917   6.567   2.725
 7294WAT     H229897   2.937   6.477   2.624
 7294WAT    EPW29898   2.918   6.494   2.698
 7295WAT      O29899   3.541   4.671   3.238
 7295WAT     H129900   3.545   4.680   3.324
 7295WAT     H229901   3.610   4.622   3.219
 7295WAT    EPW29902   3.552   4.665   3.248
 7296WAT      O29903   2.846   4.761   3.476
 7296WAT     H129904   2.910   4.757   3.417
 7296WAT     H229905   2.869   4.703   3.537
 7296WAT    EPW29906   2.859   4.752   3.476
 7297WAT      O29907   3.149   5.907   3.762
 7297WAT     H129908   3.226   5.913   3.721
 7297WAT     H229909   3.092   5.934   3.702
 7297WAT    EPW29910   3.152   5.912   3.747
 7298WAT      O29911   3.497   6.193   3.612
 7298WAT     H129912   3.533   6.212   3.689
 7298WAT     H229913   3.543   6.241   3.556
 7298WAT    EPW29914   3.509   6.203   3.615
 7299WAT      O29915   3.736   5.441   2.062
 7299WAT     H129916   3.790   5.504   2.036
 7299WAT     H229917   3.668   5.483   2.095
 7299WAT    EPW29918   3.734   5.456   2.063
 7300WAT      O29919   2.825   5.736   2.075
 7300WAT     H129920   2.757   5.691   2.045
 7300WAT     H229921   2.796   5.819   2.074
 7300WAT    EPW29922   2.811   5.742   2.070
 7301WAT      O29923   2.516   5.290   3.076
 7301WAT     H129924   2.540   5.313   2.996
 7301WAT     H229925   2.503   5.367   3.116
 7301WAT    EPW29926   2.518   5.305   3.070
 7302WAT      O29927   2.993   6.504   3.631
 7302WAT     H129928   3.015   6.492   3.548
 7302WAT     H229929   2.963   6.426   3.656
 7302WAT    EPW29930   2.992   6.491   3.623
 7303WAT      O29931   3.533   5.325   2.457
 7303WAT     H129932   3.549   5.327   2.543
 7303WAT     H229933   3.612   5.340   2.422
 7303WAT    EPW29934   3.547   5.327   2.465
 7304WAT      O29935   2.927   4.808   2.956
 7304WAT     H129936   2.848   4.786   2.987
 7304WAT     H229937   2.909   4.856   2.886
 7304WAT    EPW29938   2.913   4.812   2.950
 7305WAT      O29939   3.554   4.982   2.580
 7305WAT     H129940   3.526   4.919   2.634
 7305WAT     H229941   3.480   5.024   2.558
 7305WAT    EPW29942   3.539   4.979   2.585
 7306WAT      O29943   2.983   5.971   3.541
 7306WAT     H129944   2.907   5.970   3.583
 7306WAT     H229945   2.990   6.053   3.512
 7306WAT    EPW29946   2.973   5.983   3.543
 7307WAT      O29947   2.067   4.951   3.707
 7307WAT     H129948   2.049   5.022   3.659
 7307WAT     H229949   1.989   4.918   3.727
 7307WAT    EPW29950   2.053   4.957   3.703
 7308WAT      O29951   2.620   6.497   3.116
 7308WAT     H129952   2.600   6.505   3.200
 7308WAT     H229953   2.543   6.490   3.077
 7308WAT    EPW29954   2.606   6.497   3.123
 7309WAT      O29955   2.383   5.170   2.388
 7309WAT     H129956   2.395   5.129   2.311
 7309WAT     H229957   2.304   5.144   2.413
 7309WAT    EPW29958   2.373   5.160   2.380
 7310WAT      O29959   3.288   5.923   2.722
 7310WAT     H129960   3.274   5.932   2.808
 7310WAT     H229961   3.313   5.840   2.715
 7310WAT    EPW29962   3.289   5.912   2.734
 7311WAT      O29963   3.031   5.849   2.642
 7311WAT     H129964   2.995   5.841   2.721
 7311WAT     H229965   3.112   5.876   2.659
 7311WAT    EPW29966   3.038   5.852   2.656
 7312WAT      O29967   3.017   6.240   3.457
 7312WAT     H129968   3.079   6.243   3.519
 7312WAT     H229969   3.041   6.302   3.401
 7312WAT    EPW29970   3.030   6.250   3.458
 7313WAT      O29971   2.192   6.570   3.652
 7313WAT     H129972   2.139   6.502   3.642
 7313WAT     H229973   2.139   6.633   3.680
 7313WAT    EPW29974   2.176   6.570   3.655
 7314WAT      O29975   3.078   5.767   3.997
 7314WAT     H129976   3.105   5.794   3.919
 7314WAT     H229977   2.995   5.744   3.984
 7314WAT    EPW29978   3.070   5.767   3.984
 7315WAT      O29979   3.399   6.560   2.960
 7315WAT     H129980   3.346   6.626   2.981
 7315WAT     H229981   3.466   6.568   3.016
 7315WAT    EPW29982   3.401   6.571   2.971
 7316WAT      O29983   3.041   6.038   3.170
 7316WAT     H129984   3.039   5.954   3.194
 7316WAT     H229985   3.102   6.073   3.222
 7316WAT    EPW29986   3.049   6.031   3.181
 7317WAT      O29987   3.632   6.264   3.848
 7317WAT     H129988   3.711   6.227   3.847
 7317WAT     H229989   3.593   6.228   3.917
 7317WAT    EPW29990   3.638   6.253   3.858
 7318WAT      O29991   2.409   5.362   3.498
 7318WAT     H129992   2.418   5.423   3.436
 7318WAT     H229993   2.485   5.319   3.495
 7318WAT    EPW29994   2.422   5.365   3.489
 7319WAT      O29995   2.200   5.240   3.358
 7319WAT     H129996   2.215   5.243   3.272
 7319WAT     H229997   2.269   5.280   3.392
 7319WAT    EPW29998   2.212   5.247   3.350
 7320WAT      O29999   3.792   5.398   2.379
 7320WAT     H130000   3.769   5.482   2.384
 7320WAT     H230001   3.866   5.394   2.425
 7320WAT    EPW30002   3.799   5.410   2.386
 7321WAT      O30003   2.428   4.913   3.622
 7321WAT     H130004   2.379   4.842   3.633
 7321WAT     H230005   2.400   4.945   3.545
 7321WAT    EPW30006   2.416   4.908   3.612
 7322WAT      O30007   3.115   6.191   2.544
 7322WAT     H130008   3.099   6.272   2.514
 7322WAT     H230009   3.043   6.147   2.523
 7322WAT    EPW30010   3.102   6.197   2.536
 7323WAT      O30011   2.100   5.766   3.369
 7323WAT     H130012   2.145   5.790   3.299
 7323WAT     H230013   2.095   5.679   3.361
 7323WAT    EPW30014   2.106   5.757   3.358
 7324WAT      O30015   2.278   5.317   2.031
 7324WAT     H130016   2.208   5.313   2.083
 7324WAT     H230017   2.280   5.238   1.995
 7324WAT    EPW30018   2.268   5.305   2.033
 7325WAT      O30019   2.601   6.218   2.181
 7325WAT     H130020   2.637   6.214   2.261
 7325WAT     H230021   2.519   6.193   2.195
 7325WAT    EPW30022   2.594   6.214   2.195
 7326WAT      O30023   3.533   4.943   3.157
 7326WAT     H130024   3.543   4.860   3.181
 7326WAT     H230025   3.599   4.984   3.197
 7326WAT    EPW30026   3.544   4.937   3.166
 7327WAT      O30027   2.642   5.709   3.462
 7327WAT     H130028   2.601   5.779   3.494
 7327WAT     H230029   2.582   5.673   3.409
 7327WAT    EPW30030   2.627   5.714   3.459
 7328WAT      O30031   3.546   5.566   2.868
 7328WAT     H130032   3.606   5.630   2.869
 7328WAT     H230033   3.484   5.597   2.815
 7328WAT    EPW30034   3.546   5.580   2.860
 7329WAT      O30035   3.548   6.377   2.580
 7329WAT     H130036   3.528   6.301   2.618
 7329WAT     H230037   3.591   6.354   2.508
 7329WAT    EPW30038   3.552   6.362   2.575
 7330WAT      O30039   2.347   6.121   2.241
 7330WAT     H130040   2.341   6.105   2.327
 7330WAT     H230041   2.365   6.042   2.207
 7330WAT    EPW30042   2.349   6.107   2.249
 7331WAT      O30043   2.663   5.971   2.052
 7331WAT     H130044   2.588   5.933   2.073
 7331WAT     H230045   2.659   6.048   2.091
 7331WAT    EPW30046   2.651   5.976   2.061
 7332WAT      O30047   2.578   4.894   3.257
 7332WAT     H130048   2.498   4.925   3.273
 7332WAT     H230049   2.626   4.965   3.247
 7332WAT    EPW30050   2.573   4.909   3.258
 7333WAT      O30051   3.079   4.990   3.101
 7333WAT     H130052   3.026   4.934   3.061
 7333WAT     H230053   3.084   4.959   3.182
 7333WAT    EPW30054   3.072   4.977   3.107
 7334WAT      O30055   3.289   6.159   3.247
 7334WAT     H130056   3.314   6.226   3.298
 7334WAT     H230057   3.287   6.194   3.167
 7334WAT    EPW30058   3.292   6.174   3.243
 7335WAT      O30059   3.268   6.570   3.691
 7335WAT     H130060   3.195   6.531   3.665
 7335WAT     H230061   3.243   6.652   3.708
 7335WAT    EPW30062   3.254   6.576   3.690
 7336WAT      O30063   2.762   5.478   3.588
 7336WAT     H130064   2.731   5.411   3.542
 7336WAT     H230065   2.727   5.548   3.550
 7336WAT    EPW30066   2.752   5.478   3.576
 7337WAT      O30067   2.891   4.832   2.155
 7337WAT     H130068   2.899   4.840   2.068
 7337WAT     H230069   2.805   4.840   2.167
 7337WAT    EPW30070   2.879   4.835   2.144
 7338WAT      O30071   3.756   6.023   3.303
 7338WAT     H130072   3.726   5.960   3.251
 7338WAT     H230073   3.719   6.096   3.271
 7338WAT    EPW30074   3.746   6.025   3.291
 7339WAT      O30075   2.671   6.491   3.651
 7339WAT     H130076   2.641   6.507   3.731
 7339WAT     H230077   2.726   6.424   3.663
 7339WAT    EPW30078   2.675   6.483   3.665
 7340WAT      O30079   3.659   6.250   3.172
 7340WAT     H130080   3.723   6.272   3.118
 7340WAT     H230081   3.597   6.219   3.119
 7340WAT    EPW30082   3.659   6.249   3.157
 7341WAT      O30083   2.332   4.987   3.371
 7341WAT     H130084   2.271   4.927   3.358
 7341WAT     H230085   2.289   5.062   3.360
 7341WAT    EPW30086   2.317   4.989   3.368
 7342WAT      O30087   3.326   4.947   2.972
 7342WAT     H130088   3.387   4.944   3.034
 7342WAT     H230089   3.253   4.966   3.016
 7342WAT    EPW30090   3.324   4.949   2.988
 7343WAT      O30091   2.361   6.377   3.789
 7343WAT     H130092   2.430   6.414   3.827
 7343WAT     H230093   2.320   6.445   3.752
 7343WAT    EPW30094   2.365   6.392   3.789
 7344WAT      O30095   3.200   5.426   2.838
 7344WAT     H130096   3.254   5.358   2.849
 7344WAT     H230097   3.165   5.437   2.917
 7344WAT    EPW30098   3.203   5.417   2.851
 7345WAT      O30099   2.214   5.333   2.707
 7345WAT     H130100   2.177   5.358   2.782
 7345WAT     H230101   2.257   5.260   2.729
 7345WAT    EPW30102   2.215   5.326   2.722
 7346WAT      O30103   2.198   6.153   3.492
 7346WAT     H130104   2.148   6.213   3.531
 7346WAT     H230105   2.279   6.183   3.504
 7346WAT    EPW30106   2.203   6.166   3.500
 7347WAT      O30107   3.333   5.523   2.465
 7347WAT     H130108   3.401   5.471   2.449
 7347WAT     H230109   3.302   5.540   2.386
 7347WAT    EPW30110   3.339   5.518   2.451
 7348WAT      O30111   2.383   6.459   2.384
 7348WAT     H130112   2.351   6.459   2.302
 7348WAT     H230113   2.469   6.454   2.373
 7348WAT    EPW30114   2.391   6.458   2.370
 7349WAT      O30115   2.768   5.655   2.334
 7349WAT     H130116   2.791   5.687   2.257
 7349WAT     H230117   2.844   5.645   2.376
 7349WAT    EPW30118   2.783   5.659   2.329
 7350WAT      O30119   3.668   6.550   2.050
 7350WAT     H130120   3.739   6.539   2.099
 7350WAT     H230121   3.653   6.471   2.016
 7350WAT    EPW30122   3.676   6.537   2.052
 7351WAT      O30123   3.720   5.742   3.789
 7351WAT     H130124   3.710   5.656   3.793
 7351WAT     H230125   3.737   5.757   3.704
 7351WAT    EPW30126   3.721   5.732   3.777
 7352WAT      O30127   3.304   6.149   2.328
 7352WAT     H130128   3.258   6.140   2.401
 7352WAT     H230129   3.270   6.090   2.274
 7352WAT    EPW30130   3.292   6.139   2.331
 7353WAT      O30131   3.761   5.349   3.174
 7353WAT     H130132   3.678   5.359   3.152
 7353WAT     H230133   3.764   5.268   3.208
 7353WAT    EPW30134   3.750   5.338   3.176
 7354WAT      O30135   2.698   4.995   3.630
 7354WAT     H130136   2.747   4.934   3.590
 7354WAT     H230137   2.618   4.961   3.628
 7354WAT    EPW30138   2.693   4.981   3.624
 7355WAT      O30139   3.516   5.917   3.886
 7355WAT     H130140   3.581   5.859   3.879
 7355WAT     H230141   3.479   5.916   3.808
 7355WAT    EPW30142   3.520   5.908   3.874
 7356WAT      O30143   2.389   6.360   3.006
 7356WAT     H130144   2.362   6.292   2.959
 7356WAT     H230145   2.362   6.429   2.961
 7356WAT    EPW30146   2.381   6.360   2.993
 7357WAT      O30147   2.972   6.011   2.225
 7357WAT     H130148   3.049   5.978   2.202
 7357WAT     H230149   2.962   6.080   2.174
 7357WAT    EPW30150   2.982   6.016   2.214
 7358WAT      O30151   2.181   6.618   3.372
 7358WAT     H130152   2.184   6.596   3.456
 7358WAT     H230153   2.210   6.547   3.331
 7358WAT    EPW30154   2.185   6.604   3.378
 7359WAT      O30155   3.187   4.850   0.700
 7359WAT     H130156   3.210   4.879   0.621
 7359WAT     H230157   3.261   4.816   0.731
 7359WAT    EPW30158   3.202   4.850   0.693
 7360WAT      O30159   3.105   5.479   1.148
 7360WAT     H130160   3.069   5.554   1.175
 7360WAT     H230161   3.166   5.462   1.208
 7360WAT    EPW30162   3.109   5.488   1.161
 7361WAT      O30163   2.083   5.950   0.679
 7361WAT     H130164   2.075   5.952   0.766
 7361WAT     H230165   2.079   5.864   0.661
 7361WAT    EPW30166   2.081   5.937   0.689
 7362WAT      O30167   3.708   6.304   0.461
 7362WAT     H130168   3.772   6.248   0.478
 7362WAT     H230169   3.658   6.261   0.403
 7362WAT    EPW30170   3.710   6.289   0.455
 7363WAT      O30171   2.091   5.310   0.321
 7363WAT     H130172   2.035   5.367   0.286
 7363WAT     H230173   2.049   5.234   0.314
 7363WAT    EPW30174   2.076   5.307   0.315
 7364WAT      O30175   2.342   5.854   0.258
 7364WAT     H130176   2.327   5.815   0.181
 7364WAT     H230177   2.350   5.788   0.314
 7364WAT    EPW30178   2.341   5.839   0.255
 7365WAT      O30179   3.359   5.670   0.799
 7365WAT     H130180   3.373   5.654   0.714
 7365WAT     H230181   3.301   5.610   0.822
 7365WAT    EPW30182   3.352   5.659   0.790
 7366WAT      O30183   2.332   6.059   0.627
 7366WAT     H130184   2.385   6.025   0.687
 7366WAT     H230185   2.255   6.019   0.641
 7366WAT    EPW30186   2.328   6.048   0.638
 7367WAT      O30187   2.812   4.965   0.620
 7367WAT     H130188   2.810   5.046   0.589
 7367WAT     H230189   2.854   4.920   0.558
 7367WAT    EPW30190   2.818   4.970   0.606
 7368WAT      O30191   2.241   6.362   0.281
 7368WAT     H130192   2.267   6.370   0.198
 7368WAT     H230193   2.267   6.282   0.303
 7368WAT    EPW30194   2.248   6.352   0.272
 7369WAT      O30195   2.094   6.169   1.341
 7369WAT     H130196   2.128   6.146   1.418
 7369WAT     H230197   2.024   6.118   1.334
 7369WAT    EPW30198   2.089   6.158   1.352
 7370WAT      O30199   2.751   6.001   1.787
 7370WAT     H130200   2.730   5.985   1.870
 7370WAT     H230201   2.679   5.979   1.743
 7370WAT    EPW30202   2.737   5.995   1.792
 7371WAT      O30203   2.285   5.696   0.813
 7371WAT     H130204   2.236   5.694   0.741
 7371WAT     H230205   2.340   5.629   0.801
 7371WAT    EPW30206   2.286   5.686   0.800
 7372WAT      O30207   2.714   5.281   1.363
 7372WAT     H130208   2.782   5.283   1.309
 7372WAT     H230209   2.687   5.198   1.358
 7372WAT    EPW30210   2.720   5.269   1.354
 7373WAT      O30211   2.749   6.280   1.525
 7373WAT     H130212   2.762   6.342   1.465
 7373WAT     H230213   2.829   6.256   1.549
 7373WAT    EPW30214   2.763   6.285   1.520
 7374WAT      O30215   2.451   5.476   0.797
 7374WAT     H130216   2.519   5.424   0.818
 7374WAT     H230217   2.383   5.422   0.800
 7374WAT    EPW30218   2.451   5.460   0.801
 7375WAT      O30219   2.855   6.112   0.944
 7375WAT     H130220   2.877   6.031   0.966
 7375WAT     H230221   2.931   6.153   0.936
 7375WAT    EPW30222   2.869   6.106   0.946
 7376WAT      O30223   2.887   6.040   0.589
 7376WAT     H130224   2.926   5.980   0.639
 7376WAT     H230225   2.918   6.023   0.509
 7376WAT    EPW30226   2.897   6.028   0.584
 7377WAT      O30227   3.043   5.511   1.763
 7377WAT     H130228   2.957   5.508   1.749
 7377WAT     H230229   3.051   5.563   1.832
 7377WAT    EPW30230   3.032   5.518   1.771
 7378WAT      O30231   2.535   4.981   0.689
 7378WAT     H130232   2.493   5.025   0.627
 7378WAT     H230233   2.616   4.974   0.658
 7378WAT    EPW30234   2.541   4.987   0.675
 7379WAT      O30235   3.512   4.754   1.723
 7379WAT     H130236   3.510   4.825   1.672
 7379WAT     H230237   3.429   4.747   1.751
 7379WAT    EPW30238   3.499   4.764   1.720
 7380WAT      O30239   2.861   4.915   0.888
 7380WAT     H130240   2.871   4.998   0.913
 7380WAT     H230241   2.841   4.922   0.803
 7380WAT    EPW30242   2.859   4.929   0.879
 7381WAT      O30243   2.100   5.434   1.062
 7381WAT     H130244   2.098   5.521   1.070
 7381WAT     H230245   2.033   5.407   1.110
 7381WAT    EPW30246   2.090   5.443   1.070
 7382WAT      O30247   2.079   6.404   0.878
 7382WAT     H130248   2.017   6.452   0.839
 7382WAT     H230249   2.121   6.367   0.811
 7382WAT    EPW30250   2.076   6.405   0.862
 7383WAT      O30251   2.705   6.253   0.586
 7383WAT     H130252   2.658   6.237   0.658
 7383WAT     H230253   2.769   6.194   0.589
 7383WAT    EPW30254   2.707   6.242   0.597
 7384WAT      O30255   3.279   6.394   0.391
 7384WAT     H130256   3.340   6.453   0.377
 7384WAT     H230257   3.323   6.326   0.425
 7384WAT    EPW30258   3.294   6.393   0.394
 7385WAT      O30259   3.073   6.465   0.559
 7385WAT     H130260   3.105   6.536   0.598
 7385WAT     H230261   3.134   6.444   0.501
 7385WAT    EPW30262   3.087   6.473   0.556
 7386WAT      O30263   2.373   4.939   1.101
 7386WAT     H130264   2.334   4.870   1.064
 7386WAT     H230265   2.433   4.904   1.153
 7386WAT    EPW30266   2.376   4.924   1.103
 7387WAT      O30267   2.705   5.130   2.009
 7387WAT     H130268   2.710   5.094   1.930
 7387WAT     H230269   2.745   5.208   1.998
 7387WAT    EPW30270   2.712   5.136   1.996
 7388WAT      O30271   2.221   6.312   0.655
 7388WAT     H130272   2.270   6.240   0.662
 7388WAT     H230273   2.271   6.367   0.610
 7388WAT    EPW30274   2.236   6.309   0.649
 7389WAT      O30275   3.823   5.115   0.801
 7389WAT     H130276   3.775   5.188   0.810
 7389WAT     H230277   3.764   5.053   0.788
 7389WAT    EPW30278   3.808   5.117   0.801
 7390WAT      O30279   3.330   6.440   1.357
 7390WAT     H130280   3.399   6.493   1.349
 7390WAT     H230281   3.317   6.410   1.276
 7390WAT    EPW30282   3.338   6.443   1.344
 7391WAT      O30283   2.280   5.052   1.934
 7391WAT     H130284   2.200   5.024   1.914
 7391WAT     H230285   2.330   5.020   1.869
 7391WAT    EPW30286   2.276   5.043   1.922
 7392WAT      O30287   2.360   6.134   1.011
 7392WAT     H130288   2.414   6.116   0.945
 7392WAT     H230289   2.386   6.081   1.074
 7392WAT    EPW30290   2.372   6.123   1.010
 7393WAT      O30291   2.667   6.443   0.924
 7393WAT     H130292   2.745   6.459   0.888
 7393WAT     H230293   2.611   6.487   0.873
 7393WAT    EPW30294   2.670   6.452   0.911
 7394WAT      O30295   2.900   4.851   1.876
 7394WAT     H130296   2.913   4.777   1.832
 7394WAT     H230297   2.831   4.887   1.837
 7394WAT    EPW30298   2.892   4.846   1.864
 7395WAT      O30299   2.984   5.400   0.723
 7395WAT     H130300   3.015   5.356   0.654
 7395WAT     H230301   3.056   5.420   0.769
 7395WAT    EPW30302   2.999   5.396   0.720
 7396WAT      O30303   3.073   5.427   0.264
 7396WAT     H130304   3.105   5.502   0.296
 7396WAT     H230305   2.994   5.448   0.236
 7396WAT    EPW30306   3.066   5.441   0.265
 7397WAT      O30307   3.473   6.591   0.339
 7397WAT     H130308   3.517   6.551   0.275
 7397WAT     H230309   3.531   6.647   0.373
 7397WAT    EPW30310   3.488   6.593   0.334
 7398WAT      O30311   2.521   6.525   1.493
 7398WAT     H130312   2.557   6.506   1.570
 7398WAT     H230313   2.458   6.466   1.484
 7398WAT    EPW30314   2.517   6.514   1.503
 7399WAT      O30315   3.734   5.061   1.255
 7399WAT     H130316   3.791   5.050   1.190
 7399WAT     H230317   3.758   5.000   1.313
 7399WAT    EPW30318   3.746   5.050   1.254
 7400WAT      O30319   2.002   5.170   1.660
 7400WAT     H130320   1.998   5.243   1.709
 7400WAT     H230321   2.061   5.190   1.600
 7400WAT    EPW30322   2.010   5.184   1.659
 7401WAT      O30323   3.226   6.231   1.748
 7401WAT     H130324   3.219   6.251   1.833
 7401WAT     H230325   3.312   6.225   1.736
 7401WAT    EPW30326   3.237   6.233   1.759
 7402WAT      O30327   3.066   6.274   0.245
 7402WAT     H130328   3.006   6.336   0.252
 7402WAT     H230329   3.139   6.312   0.272
 7402WAT    EPW30330   3.068   6.289   0.250
 7403WAT      O30331   3.250   4.907   0.434
 7403WAT     H130332   3.315   4.863   0.396
 7403WAT     H230333   3.284   4.986   0.447
 7403WAT    EPW30334   3.265   4.912   0.430
 7404WAT      O30335   2.108   5.082   0.582
 7404WAT     H130336   2.084   5.000   0.562
 7404WAT     H230337   2.061   5.101   0.653
 7404WAT    EPW30338   2.097   5.073   0.589
 7405WAT      O30339   2.286   6.384   1.374
 7405WAT     H130340   2.225   6.323   1.366
 7405WAT     H230341   2.328   6.383   1.298
 7405WAT    EPW30342   2.283   6.375   1.362
 7406WAT      O30343   3.057   5.267   0.489
 7406WAT     H130344   2.981   5.227   0.475
 7406WAT     H230345   3.069   5.315   0.417
 7406WAT    EPW30346   3.048   5.268   0.476
 7407WAT      O30347   3.086   6.488   1.472
 7407WAT     H130348   3.163   6.478   1.431
 7407WAT     H230349   3.028   6.483   1.407
 7407WAT    EPW30350   3.089   6.486   1.456
 7408WAT      O30351   2.976   4.918   0.384
 7408WAT     H130352   2.957   4.995   0.348
 7408WAT     H230353   3.063   4.919   0.392
 7408WAT    EPW30354   2.986   4.930   0.380
 7409WAT      O30355   3.777   6.544   0.727
 7409WAT     H130356   3.736   6.620   0.742
 7409WAT     H230357   3.712   6.487   0.719
 7409WAT    EPW30358   3.761   6.547   0.728
 7410WAT      O30359   2.898   5.197   0.905
 7410WAT     H130360   2.918   5.264   0.852
 7410WAT     H230361   2.904   5.232   0.985
 7410WAT    EPW30362   2.902   5.212   0.909
 7411WAT      O30363   3.469   6.105   0.727
 7411WAT     H130364   3.536   6.053   0.748
 7411WAT     H230365   3.400   6.063   0.760
 7411WAT    EPW30366   3.469   6.091   0.735
 7412WAT      O30367   2.480   6.228   1.643
 7412WAT     H130368   2.558   6.260   1.618
 7412WAT     H230369   2.464   6.269   1.718
 7412WAT    EPW30370   2.489   6.239   1.650
 7413WAT      O30371   2.471   4.720   0.751
 7413WAT     H130372   2.490   4.803   0.734
 7413WAT     H230373   2.440   4.690   0.676
 7413WAT    EPW30374   2.469   4.728   0.738
 7414WAT      O30375   2.658   5.806   1.091
 7414WAT     H130376   2.680   5.789   1.173
 7414WAT     H230377   2.603   5.742   1.071
 7414WAT    EPW30378   2.653   5.794   1.100
 7415WAT      O30379   3.268   5.162   1.475
 7415WAT     H130380   3.257   5.213   1.545
 7415WAT     H230381   3.200   5.107   1.479
 7415WAT    EPW30382   3.257   5.161   1.486
 7416WAT      O30383   2.756   5.805   1.350
 7416WAT     H130384   2.736   5.890   1.359
 7416WAT     H230385   2.726   5.769   1.424
 7416WAT    EPW30386   2.749   5.812   1.363
 7417WAT      O30387   3.380   5.882   1.346
 7417WAT     H130388   3.305   5.854   1.381
 7417WAT     H230389   3.374   5.969   1.354
 7417WAT    EPW30390   3.368   5.891   1.353
 7418WAT      O30391   3.425   4.746   0.797
 7418WAT     H130392   3.430   4.727   0.882
 7418WAT     H230393   3.456   4.674   0.758
 7418WAT    EPW30394   3.430   4.732   0.804
 7419WAT      O30395   2.014   6.214   1.965
 7419WAT     H130396   2.074   6.259   2.009
 7419WAT     H230397   2.019   6.134   2.000
 7419WAT    EPW30398   2.024   6.209   1.977
 7420WAT      O30399   3.618   5.246   1.564
 7420WAT     H130400   3.698   5.222   1.585
 7420WAT     H230401   3.588   5.285   1.636
 7420WAT    EPW30402   3.625   5.248   1.578
 7421WAT      O30403   2.408   5.119   0.897
 7421WAT     H130404   2.440   5.068   0.834
 7421WAT     H230405   2.399   5.065   0.965
 7421WAT    EPW30406   2.411   5.104   0.898
 7422WAT      O30407   3.676   5.937   0.338
 7422WAT     H130408   3.671   5.887   0.409
 7422WAT     H230409   3.761   5.935   0.317
 7422WAT    EPW30410   3.688   5.929   0.345
 7423WAT      O30411   2.453   5.918   0.831
 7423WAT     H130412   2.526   5.895   0.788
 7423WAT     H230413   2.405   5.845   0.830
 7423WAT    EPW30414   2.456   5.904   0.824
 7424WAT      O30415   2.292   6.558   0.962
 7424WAT     H130416   2.218   6.518   0.937
 7424WAT     H230417   2.342   6.556   0.890
 7424WAT    EPW30418   2.288   6.552   0.947
 7425WAT      O30419   2.270   5.269   1.209
 7425WAT     H130420   2.352   5.293   1.193
 7425WAT     H230421   2.222   5.324   1.161
 7425WAT    EPW30422   2.275   5.281   1.200
 7426WAT      O30423   3.921   6.346   1.710
 7426WAT     H130424   3.844   6.352   1.670
 7426WAT     H230425   3.904   6.305   1.784
 7426WAT    EPW30426   3.907   6.341   1.715
 7427WAT      O30427   3.521   5.559   0.264
 7427WAT     H130428   3.450   5.565   0.214
 7427WAT     H230429   3.495   5.590   0.341
 7427WAT    EPW30430   3.507   5.565   0.268
 7428WAT      O30431   2.666   5.864   0.661
 7428WAT     H130432   2.721   5.924   0.629
 7428WAT     H230433   2.671   5.799   0.604
 7428WAT    EPW30434   2.675   5.863   0.648
 7429WAT      O30435   3.817   5.086   0.253
 7429WAT     H130436   3.843   5.005   0.231
 7429WAT     H230437   3.784   5.118   0.179
 7429WAT    EPW30438   3.816   5.079   0.239
 7430WAT      O30439   2.111   6.009   0.960
 7430WAT     H130440   2.057   6.068   0.992
 7430WAT     H230441   2.190   6.046   0.968
 7430WAT    EPW30442   2.115   6.023   0.966
 7431WAT      O30443   2.835   5.378   2.003
 7431WAT     H130444   2.787   5.406   2.070
 7431WAT     H230445   2.809   5.428   1.936
 7431WAT    EPW30446   2.824   5.390   2.003
 7432WAT      O30447   3.909   5.493   1.475
 7432WAT     H130448   3.948   5.418   1.453
 7432WAT     H230449   3.832   5.487   1.434
 7432WAT    EPW30450   3.903   5.481   1.466
 7433WAT      O30451   2.140   5.683   0.583
 7433WAT     H130452   2.116   5.600   0.587
 7433WAT     H230453   2.211   5.682   0.532
 7433WAT    EPW30454   2.147   5.671   0.576
 7434WAT      O30455   3.659   4.935   0.450
 7434WAT     H130456   3.735   4.897   0.469
 7434WAT     H230457   3.682   5.005   0.404
 7434WAT    EPW30458   3.673   4.939   0.446
 7435WAT      O30459   3.085   6.266   0.909
 7435WAT     H130460   3.041   6.339   0.893
 7435WAT     H230461   3.109   6.238   0.830
 7435WAT    EPW30462   3.082   6.273   0.895
 7436WAT      O30463   2.045   6.157   0.502
 7436WAT     H130464   2.098   6.214   0.542
 7436WAT     H230465   2.040   6.091   0.559
 7436WAT    EPW30466   2.052   6.156   0.517
 7437WAT      O30467   2.463   5.967   1.205
 7437WAT     H130468   2.515   6.008   1.261
 7437WAT     H230469   2.517   5.922   1.155
 7437WAT    EPW30470   2.478   5.966   1.206
 7438WAT      O30471   3.368   5.244   0.928
 7438WAT     H130472   3.395   5.246   1.011
 7438WAT     H230473   3.314   5.175   0.926
 7438WAT    EPW30474   3.364   5.234   0.940
 7439WAT      O30475   2.068   5.959   0.298
 7439WAT     H130476   2.150   5.929   0.293
 7439WAT     H230477   2.075   6.028   0.352
 7439WAT    EPW30478   2.081   5.965   0.306
 7440WAT      O30479   2.129   5.741   1.039
 7440WAT     H130480   2.182   5.717   0.973
 7440WAT     H230481   2.122   5.827   1.028
 7440WAT    EPW30482   2.136   5.750   1.027
 7441WAT      O30483   2.800   5.168   0.423
 7441WAT     H130484   2.747   5.104   0.397
 7441WAT     H230485   2.753   5.241   0.407
 7441WAT    EPW30486   2.785   5.170   0.417
 7442WAT      O30487   3.667   6.377   1.575
 7442WAT     H130488   3.621   6.447   1.597
 7442WAT     H230489   3.666   6.378   1.488
 7442WAT    EPW30490   3.660   6.387   1.566
 7443WAT      O30491   2.598   6.192   0.833
 7443WAT     H130492   2.611   6.272   0.867
 7443WAT     H230493   2.666   6.146   0.863
 7443WAT    EPW30494   2.610   6.197   0.842
 7444WAT      O30495   2.382   5.507   1.854
 7444WAT     H130496   2.344   5.445   1.902
 7444WAT     H230497   2.383   5.473   1.774
 7444WAT    EPW30498   2.377   5.493   1.849
 7445WAT      O30499   2.361   5.374   0.384
 7445WAT     H130500   2.370   5.310   0.443
 7445WAT     H230501   2.281   5.361   0.353
 7445WAT    EPW30502   2.351   5.362   0.388
 7446WAT      O30503   2.479   5.605   1.046
 7446WAT     H130504   2.470   5.575   0.964
 7446WAT     H230505   2.495   5.533   1.093
 7446WAT    EPW30506   2.480   5.590   1.041
 7447WAT      O30507   2.452   5.571   1.392
 7447WAT     H130508   2.478   5.520   1.325
 7447WAT     H230509   2.398   5.628   1.354
 7447WAT    EPW30510   2.448   5.572   1.376
 7448WAT      O30511   3.505   5.360   1.152
 7448WAT     H130512   3.446   5.387   1.210
 7448WAT     H230513   3.512   5.427   1.097
 7448WAT    EPW30514   3.497   5.374   1.153
 7449WAT      O30515   2.865   6.446   1.312
 7449WAT     H130516   2.838   6.385   1.256
 7449WAT     H230517   2.851   6.521   1.268
 7449WAT    EPW30518   2.859   6.448   1.297
 7450WAT      O30519   3.091   4.951   1.545
 7450WAT     H130520   3.103   4.867   1.523
 7450WAT     H230521   3.110   4.953   1.630
 7450WAT    EPW30522   3.096   4.939   1.554
 7451WAT      O30523   3.320   5.160   0.509
 7451WAT     H130524   3.378   5.223   0.524
 7451WAT     H230525   3.243   5.201   0.510
 7451WAT    EPW30526   3.318   5.175   0.511
 7452WAT      O30527   2.270   5.748   1.930
 7452WAT     H130528   2.263   5.797   1.858
 7452WAT     H230529   2.311   5.677   1.902
 7452WAT    EPW30530   2.275   5.745   1.915
 7453WAT      O30531   3.421   5.940   1.790
 7453WAT     H130532   3.452   6.018   1.769
 7453WAT     H230533   3.453   5.888   1.727
 7453WAT    EPW30534   3.430   5.944   1.777
 7454WAT      O30535   2.845   6.264   1.822
 7454WAT     H130536   2.874   6.257   1.904
 7454WAT     H230537   2.815   6.184   1.805
 7454WAT    EPW30538   2.845   6.251   1.832
 7455WAT      O30539   2.914   5.278   1.168
 7455WAT     H130540   2.977   5.338   1.170
 7455WAT     H230541   2.956   5.205   1.192
 7455WAT    EPW30542   2.930   5.276   1.172
 7456WAT      O30543   3.169   5.651   0.396
 7456WAT     H130544   3.187   5.734   0.373
 7456WAT     H230545   3.101   5.659   0.450
 7456WAT    EPW30546   3.162   5.665   0.400
 7457WAT      O30547   3.656   5.919   0.810
 7457WAT     H130548   3.682   5.865   0.873
 7457WAT     H230549   3.664   5.871   0.737
 7457WAT    EPW30550   3.661   5.904   0.809
 7458WAT      O30551   3.282   6.299   1.111
 7458WAT     H130552   3.218   6.284   1.055
 7458WAT     H230553   3.329   6.362   1.073
 7458WAT    EPW30554   3.280   6.306   1.097
 7459WAT      O30555   3.271   5.965   1.098
 7459WAT     H130556   3.198   5.999   1.130
 7459WAT     H230557   3.302   5.917   1.164
 7459WAT    EPW30558   3.265   5.963   1.113
 7460WAT      O30559   2.657   6.496   0.448
 7460WAT     H130560   2.668   6.427   0.501
 7460WAT     H230561   2.726   6.493   0.394
 7460WAT    EPW30562   2.669   6.485   0.448
 7461WAT      O30563   2.634   4.950   0.363
 7461WAT     H130564   2.626   4.867   0.390
 7461WAT     H230565   2.559   4.965   0.321
 7461WAT    EPW30566   2.622   4.940   0.361
 7462WAT      O30567   2.907   6.488   0.334
 7462WAT     H130568   2.947   6.475   0.410
 7462WAT     H230569   2.927   6.571   0.315
 7462WAT    EPW30570   2.916   6.499   0.342
 7463WAT      O30571   3.510   5.789   1.574
 7463WAT     H130572   3.476   5.825   1.503
 7463WAT     H230573   3.593   5.814   1.572
 7463WAT    EPW30574   3.517   5.798   1.563
 7464WAT      O30575   3.211   6.358   2.006
 7464WAT     H130576   3.236   6.380   2.087
 7464WAT     H230577   3.239   6.425   1.957
 7464WAT    EPW30578   3.219   6.371   2.010
 7465WAT      O30579   3.693   4.839   1.929
 7465WAT     H130580   3.636   4.820   1.866
 7465WAT     H230581   3.694   4.768   1.979
 7465WAT    EPW30582   3.685   4.826   1.927
 7466WAT      O30583   2.382   5.648   0.441
 7466WAT     H130584   2.375   5.563   0.426
 7466WAT     H230585   2.461   5.656   0.477
 7466WAT    EPW30586   2.393   5.637   0.444
 7467WAT      O30587   3.147   5.794   1.465
 7467WAT     H130588   3.098   5.832   1.526
 7467WAT     H230589   3.180   5.724   1.506
 7467WAT    EPW30590   3.144   5.789   1.480
 7468WAT      O30591   2.013   4.820   0.518
 7468WAT     H130592   2.017   4.762   0.453
 7468WAT     H230593   1.988   4.773   0.586
 7468WAT    EPW30594   2.010   4.805   0.518
 7469WAT      O30595   2.952   5.641   0.573
 7469WAT     H130596   2.969   5.704   0.630
 7469WAT     H230597   2.953   5.568   0.622
 7469WAT    EPW30598   2.955   5.639   0.588
 7470WAT      O30599   3.542   6.071   1.098
 7470WAT     H130600   3.575   6.052   1.020
 7470WAT     H230601   3.457   6.053   1.089
 7470WAT    EPW30602   3.534   6.066   1.085
 7471WAT      O30603   2.398   5.061   0.247
 7471WAT     H130604   2.337   5.031   0.193
 7471WAT     H230605   2.418   5.139   0.213
 7471WAT    EPW30606   2.392   5.068   0.234
 7472WAT      O30607   2.914   5.845   0.998
 7472WAT     H130608   2.831   5.826   1.015
 7472WAT     H230609   2.956   5.814   1.068
 7472WAT    EPW30610   2.908   5.837   1.011
 7473WAT      O30611   2.283   5.764   1.277
 7473WAT     H130612   2.335   5.832   1.259
 7473WAT     H230613   2.243   5.750   1.201
 7473WAT    EPW30614   2.285   5.772   1.263
 7474WAT      O30615   2.621   5.291   0.929
 7474WAT     H130616   2.698   5.252   0.914
 7474WAT     H230617   2.563   5.226   0.918
 7474WAT    EPW30618   2.624   5.275   0.925
 7475WAT      O30619   3.869   6.474   0.316
 7475WAT     H130620   3.945   6.433   0.305
 7475WAT     H230621   3.824   6.421   0.368
 7475WAT    EPW30622   3.873   6.460   0.322
 7476WAT      O30623   2.089   5.408   0.598
 7476WAT     H130624   2.124   5.371   0.668
 7476WAT     H230625   2.099   5.348   0.535
 7476WAT    EPW30626   2.095   5.394   0.599
 7477WAT      O30627   3.628   5.750   1.277
 7477WAT     H130628   3.629   5.678   1.326
 7477WAT     H230629   3.547   5.781   1.286
 7477WAT    EPW30630   3.617   5.744   1.285
 7478WAT      O30631   2.247   5.889   1.693
 7478WAT     H130632   2.208   5.839   1.633
 7478WAT     H230633   2.224   5.970   1.671
 7478WAT    EPW30634   2.238   5.894   1.681
 7479WAT      O30635   3.734   5.749   1.018
 7479WAT     H130636   3.706   5.754   1.101
 7479WAT     H230637   3.821   5.742   1.026
 7479WAT    EPW30638   3.743   5.748   1.031
 7480WAT      O30639   2.648   5.397   0.369
 7480WAT     H130640   2.663   5.477   0.401
 7480WAT     H230641   2.561   5.392   0.364
 7480WAT    EPW30642   2.638   5.408   0.373
 7481WAT      O30643   3.461   5.188   1.828
 7481WAT     H130644   3.400   5.174   1.888
 7481WAT     H230645   3.449   5.123   1.771
 7481WAT    EPW30646   3.450   5.177   1.828
 7482WAT      O30647   2.060   5.050   1.055
 7482WAT     H130648   2.043   5.076   0.973
 7482WAT     H230649   2.146   5.064   1.063
 7482WAT    EPW30650   2.070   5.056   1.044
 7483WAT      O30651   3.870   6.236   1.073
 7483WAT     H130652   3.906   6.293   1.018
 7483WAT     H230653   3.922   6.239   1.143
 7483WAT    EPW30654   3.883   6.245   1.075
 7484WAT      O30655   3.365   5.495   1.926
 7484WAT     H130656   3.404   5.503   2.003
 7484WAT     H230657   3.289   5.538   1.937
 7484WAT    EPW30658   3.359   5.503   1.939
 7485WAT      O30659   3.578   5.526   1.739
 7485WAT     H130660   3.605   5.606   1.761
 7485WAT     H230661   3.515   5.509   1.796
 7485WAT    EPW30662   3.573   5.535   1.751
 7486WAT      O30663   3.546   6.174   0.281
 7486WAT     H130664   3.587   6.098   0.286
 7486WAT     H230665   3.474   6.162   0.328
 7486WAT    EPW30666   3.542   6.161   0.289
 7487WAT      O30667   3.616   5.310   0.819
 7487WAT     H130668   3.545   5.270   0.852
 7487WAT     H230669   3.616   5.388   0.858
 7487WAT    EPW30670   3.606   5.315   0.829
 7488WAT      O30671   3.906   5.624   1.937
 7488WAT     H130672   3.913   5.565   1.873
 7488WAT     H230673   3.985   5.663   1.938
 7488WAT    EPW30674   3.919   5.621   1.928
 7489WAT      O30675   3.770   5.893   1.573
 7489WAT     H130676   3.841   5.849   1.546
 7489WAT     H230677   3.759   5.954   1.510
 7489WAT    EPW30678   3.779   5.896   1.559
 7490WAT      O30679   3.267   5.906   0.321
 7490WAT     H130680   3.297   5.966   0.377
 7490WAT     H230681   3.318   5.916   0.251
 7490WAT    EPW30682   3.279   5.916   0.319
 7491WAT      O30683   2.687   6.079   1.341
 7491WAT     H130684   2.696   6.132   1.409
 7491WAT     H230685   2.700   6.130   1.272
 7491WAT    EPW30686   2.690   6.094   1.341
 7492WAT      O30687   2.515   5.947   1.644
 7492WAT     H130688   2.434   5.920   1.663
 7492WAT     H230689   2.506   6.033   1.632
 7492WAT    EPW30690   2.502   5.956   1.645
 7493WAT      O30691   3.472   5.012   1.606
 7493WAT     H130692   3.528   5.075   1.583
 7493WAT     H230693   3.398   5.035   1.566
 7493WAT    EPW30694   3.469   5.025   1.597
 7494WAT      O30695   2.999   5.721   1.242
 7494WAT     H130696   3.052   5.746   1.306
 7494WAT     H230697   2.919   5.735   1.275
 7494WAT    EPW30698   2.995   5.727   1.256
 7495WAT      O30699   2.648   5.276   1.634
 7495WAT     H130700   2.664   5.196   1.663
 7495WAT     H230701   2.678   5.275   1.552
 7495WAT    EPW30702   2.655   5.264   1.626
 7496WAT      O30703   2.929   6.489   0.826
 7496WAT     H130704   2.942   6.572   0.850
 7496WAT     H230705   2.948   6.490   0.741
 7496WAT    EPW30706   2.934   6.501   0.817
 7497WAT      O30707   3.529   4.779   1.340
 7497WAT     H130708   3.497   4.859   1.325
 7497WAT     H230709   3.610   4.794   1.368
 7497WAT    EPW30710   3.536   4.793   1.342
 7498WAT      O30711   2.813   4.890   1.523
 7498WAT     H130712   2.895   4.918   1.516
 7498WAT     H230713   2.818   4.807   1.497
 7498WAT    EPW30714   2.826   4.882   1.518
 7499WAT      O30715   2.740   6.265   1.141
 7499WAT     H130716   2.694   6.322   1.093
 7499WAT     H230717   2.781   6.217   1.082
 7499WAT    EPW30718   2.740   6.267   1.125
 7500WAT      O30719   3.157   5.919   1.867
 7500WAT     H130720   3.237   5.929   1.836
 7500WAT     H230721   3.105   5.936   1.799
 7500WAT    EPW30722   3.161   5.923   1.853
 7501WAT      O30723   3.505   6.204   1.732
 7501WAT     H130724   3.540   6.231   1.807
 7501WAT     H230725   3.552   6.246   1.671
 7501WAT    EPW30726   3.517   6.214   1.734
 7502WAT      O30727   3.791   5.498   0.229
 7502WAT     H130728   3.821   5.564   0.180
 7502WAT     H230729   3.704   5.509   0.226
 7502WAT    EPW30730   3.783   5.510   0.221
 7503WAT      O30731   2.532   5.372   1.181
 7503WAT     H130732   2.565   5.342   1.106
 7503WAT     H230733   2.588   5.343   1.241
 7503WAT    EPW30734   2.545   5.363   1.179
 7504WAT      O30735   3.250   5.346   1.685
 7504WAT     H130736   3.178   5.386   1.713
 7504WAT     H230737   3.300   5.340   1.756
 7504WAT    EPW30738   3.247   5.351   1.700
 7505WAT      O30739   3.299   5.408   1.333
 7505WAT     H130740   3.308   5.466   1.397
 7505WAT     H230741   3.283   5.333   1.374
 7505WAT    EPW30742   3.298   5.406   1.348
 7506WAT      O30743   3.008   6.479   1.739
 7506WAT     H130744   3.026   6.471   1.654
 7506WAT     H230745   2.969   6.403   1.759
 7506WAT    EPW30746   3.005   6.467   1.730
 7507WAT      O30747   3.506   5.364   0.571
 7507WAT     H130748   3.532   5.341   0.651
 7507WAT     H230749   3.578   5.397   0.534
 7507WAT    EPW30750   3.520   5.366   0.577
 7508WAT      O30751   2.812   4.837   1.160
 7508WAT     H130752   2.726   4.827   1.176
 7508WAT     H230753   2.815   4.845   1.073
 7508WAT    EPW30754   2.800   4.837   1.149
 7509WAT      O30755   3.628   4.928   0.731
 7509WAT     H130756   3.554   4.887   0.754
 7509WAT     H230757   3.618   4.942   0.646
 7509WAT    EPW30758   3.616   4.924   0.722
 7510WAT      O30759   3.647   5.770   0.566
 7510WAT     H130760   3.696   5.699   0.554
 7510WAT     H230761   3.566   5.740   0.559
 7510WAT    EPW30762   3.642   5.755   0.563
 7511WAT      O30763   2.991   5.953   1.643
 7511WAT     H130764   2.914   5.955   1.685
 7511WAT     H230765   3.000   6.034   1.612
 7511WAT    EPW30766   2.981   5.965   1.645
 7512WAT      O30767   2.038   4.944   1.819
 7512WAT     H130768   2.033   5.016   1.769
 7512WAT     H230769   1.955   4.924   1.836
 7512WAT    EPW30770   2.025   4.952   1.814
 7513WAT      O30771   2.560   6.607   1.223
 7513WAT     H130772   2.553   6.593   1.309
 7513WAT     H230773   2.531   6.533   1.187
 7513WAT    EPW30774   2.555   6.594   1.230
 7514WAT      O30775   2.373   5.130   0.519
 7514WAT     H130776   2.375   5.097   0.438
 7514WAT     H230777   2.291   5.115   0.545
 7514WAT    EPW30778   2.361   5.123   0.511
 7515WAT      O30779   3.272   5.932   0.824
 7515WAT     H130780   3.266   5.945   0.910
 7515WAT     H230781   3.307   5.852   0.818
 7515WAT    EPW30782   3.276   5.922   0.836
 7516WAT      O30783   3.019   5.852   0.742
 7516WAT     H130784   2.980   5.843   0.820
 7516WAT     H230785   3.099   5.880   0.762
 7516WAT    EPW30786   3.025   5.855   0.756
 7517WAT      O30787   3.030   6.218   1.554
 7517WAT     H130788   3.090   6.220   1.618
 7517WAT     H230789   3.052   6.287   1.504
 7517WAT    EPW30790   3.042   6.229   1.556
 7518WAT      O30791   3.848   5.434   1.738
 7518WAT     H130792   3.764   5.456   1.744
 7518WAT     H230793   3.869   5.458   1.657
 7518WAT    EPW30794   3.839   5.441   1.727
 7519WAT      O30795   3.310   5.584   1.549
 7519WAT     H130796   3.297   5.521   1.607
 7519WAT     H230797   3.381   5.625   1.579
 7519WAT    EPW30798   3.319   5.581   1.562
 7520WAT      O30799   2.193   6.566   1.751
 7520WAT     H130800   2.139   6.499   1.738
 7520WAT     H230801   2.140   6.629   1.780
 7520WAT    EPW30802   2.177   6.566   1.753
 7521WAT      O30803   3.084   5.677   1.984
 7521WAT     H130804   3.110   5.752   1.948
 7521WAT     H230805   3.002   5.694   2.009
 7521WAT    EPW30806   3.075   5.691   1.983
 7522WAT      O30807   3.432   6.524   1.049
 7522WAT     H130808   3.399   6.590   1.096
 7522WAT     H230809   3.501   6.498   1.095
 7522WAT    EPW30810   3.437   6.530   1.063
 7523WAT      O30811   3.058   6.065   1.253
 7523WAT     H130812   2.990   6.037   1.298
 7523WAT     H230813   3.112   6.097   1.314
 7523WAT    EPW30814   3.056   6.066   1.268
 7524WAT      O30815   3.632   6.291   1.963
 7524WAT     H130816   3.715   6.265   1.965
 7524WAT     H230817   3.597   6.252   2.033
 7524WAT    EPW30818   3.639   6.281   1.974
 7525WAT      O30819   2.395   5.391   1.598
 7525WAT     H130820   2.411   5.451   1.537
 7525WAT     H230821   2.472   5.351   1.608
 7525WAT    EPW30822   2.409   5.394   1.590
 7526WAT      O30823   2.199   5.240   1.471
 7526WAT     H130824   2.218   5.246   1.386
 7526WAT     H230825   2.263   5.286   1.510
 7526WAT    EPW30826   2.211   5.248   1.464
 7527WAT      O30827   3.735   5.508   0.504
 7527WAT     H130828   3.759   5.509   0.420
 7527WAT     H230829   3.803   5.471   0.544
 7527WAT    EPW30830   3.749   5.503   0.497
 7528WAT      O30831   2.427   4.927   1.734
 7528WAT     H130832   2.399   4.845   1.735
 7528WAT     H230833   2.406   4.955   1.654
 7528WAT    EPW30834   2.420   4.919   1.722
 7529WAT      O30835   3.113   6.200   0.635
 7529WAT     H130836   3.092   6.282   0.613
 7529WAT     H230837   3.040   6.155   0.620
 7529WAT    EPW30838   3.099   6.205   0.630
 7530WAT      O30839   3.624   5.517   1.448
 7530WAT     H130840   3.615   5.430   1.448
 7530WAT     H230841   3.602   5.540   1.529
 7530WAT    EPW30842   3.619   5.508   1.460
 7531WAT      O30843   2.116   5.743   1.497
 7531WAT     H130844   2.163   5.758   1.425
 7531WAT     H230845   2.095   5.659   1.491
 7531WAT    EPW30846   2.119   5.733   1.485
 7532WAT      O30847   3.150   4.957   1.820
 7532WAT     H130848   3.177   5.018   1.876
 7532WAT     H230849   3.070   4.938   1.847
 7532WAT    EPW30850   3.142   4.963   1.832
 7533WAT      O30851   3.167   5.050   0.900
 7533WAT     H130852   3.087   5.085   0.898
 7533WAT     H230853   3.166   4.994   0.834
 7533WAT    EPW30854   3.155   5.047   0.890
 7534WAT      O30855   2.632   6.136   0.340
 7534WAT     H130856   2.656   6.176   0.413
 7534WAT     H230857   2.545   6.142   0.341
 7534WAT    EPW30858   2.622   6.143   0.351
 7535WAT      O30859   3.449   5.041   1.266
 7535WAT     H130860   3.531   5.066   1.253
 7535WAT     H230861   3.418   5.098   1.325
 7535WAT    EPW30862   3.456   5.053   1.273
 7536WAT      O30863   2.630   5.695   1.573
 7536WAT     H130864   2.592   5.769   1.598
 7536WAT     H230865   2.572   5.658   1.521
 7536WAT    EPW30866   2.616   5.701   1.569
 7537WAT      O30867   3.557   5.549   0.952
 7537WAT     H130868   3.617   5.610   0.970
 7537WAT     H230869   3.497   5.593   0.906
 7537WAT    EPW30870   3.557   5.564   0.948
 7538WAT      O30871   3.556   6.370   0.679
 7538WAT     H130872   3.529   6.293   0.708
 7538WAT     H230873   3.599   6.350   0.606
 7538WAT    EPW30874   3.558   6.356   0.672
 7539WAT      O30875   2.355   6.118   0.357
 7539WAT     H130876   2.351   6.101   0.442
 7539WAT     H230877   2.352   6.040   0.319
 7539WAT    EPW30878   2.354   6.104   0.364
 7540WAT      O30879   2.636   5.861   0.285
 7540WAT     H130880   2.551   5.863   0.265
 7540WAT     H230881   2.656   5.945   0.298
 7540WAT    EPW30882   2.626   5.873   0.284
 7541WAT      O30883   2.613   5.031   1.377
 7541WAT     H130884   2.533   5.010   1.404
 7541WAT     H230885   2.664   4.973   1.418
 7541WAT    EPW30886   2.609   5.019   1.387
 7542WAT      O30887   3.781   4.869   1.459
 7542WAT     H130888   3.789   4.926   1.524
 7542WAT     H230889   3.861   4.835   1.452
 7542WAT    EPW30890   3.794   4.872   1.467
 7543WAT      O30891   3.011   5.025   1.222
 7543WAT     H130892   2.946   4.968   1.212
 7543WAT     H230893   3.082   4.979   1.203
 7543WAT    EPW30894   3.012   5.010   1.218
 7544WAT      O30895   3.318   6.153   1.351
 7544WAT     H130896   3.337   6.225   1.396
 7544WAT     H230897   3.312   6.182   1.269
 7544WAT    EPW30898   3.320   6.168   1.345
 7545WAT      O30899   3.273   6.551   1.811
 7545WAT     H130900   3.202   6.513   1.777
 7545WAT     H230901   3.249   6.634   1.823
 7545WAT    EPW30902   3.259   6.558   1.807
 7546WAT      O30903   2.763   5.504   1.748
 7546WAT     H130904   2.727   5.432   1.713
 7546WAT     H230905   2.726   5.569   1.704
 7546WAT    EPW30906   2.752   5.503   1.737
 7547WAT      O30907   3.736   6.011   1.313
 7547WAT     H130908   3.720   5.926   1.301
 7547WAT     H230909   3.683   6.051   1.256
 7547WAT    EPW30910   3.726   6.005   1.303
 7548WAT      O30911   2.669   6.480   1.739
 7548WAT     H130912   2.649   6.489   1.823
 7548WAT     H230913   2.723   6.411   1.737
 7548WAT    EPW30914   2.674   6.471   1.751
 7549WAT      O30915   3.620   6.334   1.168
 7549WAT     H130916   3.701   6.319   1.138
 7549WAT     H230917   3.578   6.260   1.149
 7549WAT    EPW30918   3.626   6.321   1.160
 7550WAT      O30919   2.351   4.999   1.480
 7550WAT     H130920   2.300   4.932   1.457
 7550WAT     H230921   2.300   5.069   1.469
 7550WAT    EPW30922   2.336   4.999   1.475
 7551WAT      O30923   3.248   4.907   1.126
 7551WAT     H130924   3.308   4.958   1.164
 7551WAT     H230925   3.226   4.950   1.054
 7551WAT    EPW30926   3.253   4.921   1.121
 7552WAT      O30927   2.364   6.370   1.876
 7552WAT     H130928   2.434   6.405   1.914
 7552WAT     H230929   2.323   6.439   1.841
 7552WAT    EPW30930   2.368   6.386   1.877
 7553WAT      O30931   3.200   5.460   0.885
 7553WAT     H130932   3.255   5.393   0.894
 7553WAT     H230933   3.169   5.472   0.965
 7553WAT    EPW30934   3.204   5.452   0.898
 7554WAT      O30935   2.223   5.323   0.829
 7554WAT     H130936   2.180   5.348   0.901
 7554WAT     H230937   2.265   5.250   0.854
 7554WAT    EPW30938   2.223   5.316   0.844
 7555WAT      O30939   2.208   6.149   1.596
 7555WAT     H130940   2.158   6.211   1.632
 7555WAT     H230941   2.288   6.184   1.598
 7555WAT    EPW30942   2.212   6.163   1.601
 7556WAT      O30943   3.409   5.619   0.529
 7556WAT     H130944   3.425   5.534   0.541
 7556WAT     H230945   3.330   5.619   0.491
 7556WAT    EPW30946   3.400   5.607   0.525
 7557WAT      O30947   2.383   6.476   0.496
 7557WAT     H130948   2.338   6.455   0.424
 7557WAT     H230949   2.465   6.481   0.468
 7557WAT    EPW30950   2.388   6.474   0.481
 7558WAT      O30951   2.690   5.660   0.468
 7558WAT     H130952   2.689   5.719   0.404
 7558WAT     H230953   2.774   5.655   0.491
 7558WAT    EPW30954   2.702   5.668   0.462
 7559WAT      O30955   3.626   6.438   0.164
 7559WAT     H130956   3.707   6.449   0.196
 7559WAT     H230957   3.608   6.355   0.181
 7559WAT    EPW30958   3.635   6.427   0.171
 7560WAT      O30959   3.697   5.765   1.821
 7560WAT     H130960   3.766   5.735   1.865
 7560WAT     H230961   3.733   5.818   1.761
 7560WAT    EPW30962   3.713   5.768   1.818
 7561WAT      O30963   3.340   6.128   0.482
 7561WAT     H130964   3.393   6.116   0.550
 7561WAT     H230965   3.262   6.142   0.520
 7561WAT    EPW30966   3.336   6.128   0.498
 7562WAT      O30967   3.719   5.205   1.918
 7562WAT     H130968   3.728   5.283   1.955
 7562WAT     H230969   3.636   5.205   1.891
 7562WAT    EPW30970   3.708   5.217   1.920
 7563WAT      O30971   3.774   5.341   1.231
 7563WAT     H130972   3.691   5.354   1.207
 7563WAT     H230973   3.777   5.254   1.244
 7563WAT    EPW30974   3.762   5.330   1.229
 7564WAT      O30975   2.694   5.007   1.745
 7564WAT     H130976   2.729   4.973   1.673
 7564WAT     H230977   2.613   4.976   1.745
 7564WAT    EPW30978   2.688   4.998   1.734
 7565WAT      O30979   3.467   5.833   2.049
 7565WAT     H130980   3.543   5.865   2.077
 7565WAT     H230981   3.466   5.854   1.964
 7565WAT    EPW30982   3.478   5.841   2.040
 7566WAT      O30983   2.415   6.380   1.130
 7566WAT     H130984   2.404   6.302   1.092
 7566WAT     H230985   2.373   6.435   1.076
 7566WAT    EPW30986   2.407   6.376   1.116
 7567WAT      O30987   3.012   6.020   0.346
 7567WAT     H130988   3.087   5.980   0.326
 7567WAT     H230989   3.018   6.097   0.307
 7567WAT    EPW30990   3.024   6.025   0.337
 7568WAT      O30991   2.177   6.621   1.473
 7568WAT     H130992   2.186   6.602   1.557
 7568WAT     H230993   2.208   6.551   1.432
 7568WAT    EPW30994   2.182   6.608   1.479
 7569WAT      O30995   3.148   2.985   6.395
 7569WAT     H130996   3.147   3.034   6.323
 7569WAT     H230997   3.233   2.973   6.410
 7569WAT    EPW30998   3.160   2.990   6.387
 7570WAT      O30999   3.108   3.628   6.842
 7570WAT     H131000   3.076   3.707   6.864
 7570WAT     H231001   3.164   3.610   6.907
 7570WAT    EPW31002   3.112   3.637   6.855
 7571WAT      O31003   2.081   4.101   6.365
 7571WAT     H131004   2.047   4.104   6.445
 7571WAT     H231005   2.074   4.017   6.343
 7571WAT    EPW31006   2.075   4.089   6.374
 7572WAT      O31007   3.752   4.474   6.130
 7572WAT     H131008   3.818   4.422   6.151
 7572WAT     H231009   3.710   4.431   6.067
 7572WAT    EPW31010   3.755   4.460   6.124
 7573WAT      O31011   2.065   3.439   6.008
 7573WAT     H131012   2.000   3.488   5.977
 7573WAT     H231013   2.033   3.358   6.004
 7573WAT    EPW31014   2.051   3.434   6.003
 7574WAT      O31015   2.337   4.042   5.950
 7574WAT     H131016   2.318   4.002   5.874
 7574WAT     H231017   2.347   3.976   6.006
 7574WAT    EPW31018   2.336   4.026   5.947
 7575WAT      O31019   3.347   3.810   6.488
 7575WAT     H131020   3.357   3.796   6.402
 7575WAT     H231021   3.295   3.745   6.513
 7575WAT    EPW31022   3.341   3.799   6.479
 7576WAT      O31023   2.326   4.223   6.329
 7576WAT     H131024   2.383   4.186   6.383
 7576WAT     H231025   2.252   4.179   6.344
 7576WAT    EPW31026   2.324   4.211   6.339
 7577WAT      O31027   2.799   3.098   6.264
 7577WAT     H131028   2.794   3.167   6.210
 7577WAT     H231029   2.876   3.062   6.245
 7577WAT    EPW31030   2.809   3.103   6.253
 7578WAT      O31031   2.214   4.503   5.928
 7578WAT     H131032   2.258   4.511   5.853
 7578WAT     H231033   2.252   4.435   5.967
 7578WAT    EPW31034   2.226   4.494   5.922
 7579WAT      O31035   2.122   4.316   7.046
 7579WAT     H131036   2.148   4.295   7.126
 7579WAT     H231037   2.052   4.266   7.032
 7579WAT    EPW31038   2.116   4.306   7.056
 7580WAT      O31039   2.775   4.155   7.481
 7580WAT     H131040   2.779   4.118   7.559
 7580WAT     H231041   2.698   4.129   7.450
 7580WAT    EPW31042   2.764   4.146   7.488
 7581WAT      O31043   2.287   3.854   6.497
 7581WAT     H131044   2.234   3.851   6.428
 7581WAT     H231045   2.339   3.785   6.487
 7581WAT    EPW31046   2.287   3.844   6.486
 7582WAT      O31047   2.710   3.429   7.048
 7582WAT     H131048   2.779   3.435   6.995
 7582WAT     H231049   2.685   3.346   7.040
 7582WAT    EPW31050   2.716   3.418   7.039
 7583WAT      O31051   2.712   4.404   7.232
 7583WAT     H131052   2.693   4.477   7.188
 7583WAT     H231053   2.798   4.397   7.225
 7583WAT    EPW31054   2.722   4.413   7.224
 7584WAT      O31055   2.450   3.631   6.483
 7584WAT     H131056   2.517   3.579   6.503
 7584WAT     H231057   2.381   3.577   6.484
 7584WAT    EPW31058   2.450   3.615   6.486
 7585WAT      O31059   2.819   4.271   6.666
 7585WAT     H131060   2.849   4.190   6.677
 7585WAT     H231061   2.891   4.317   6.650
 7585WAT    EPW31062   2.834   4.266   6.665
 7586WAT      O31063   2.893   4.172   6.270
 7586WAT     H131064   2.932   4.115   6.325
 7586WAT     H231065   2.927   4.152   6.193
 7586WAT    EPW31066   2.904   4.160   6.267
 7587WAT      O31067   3.075   3.644   7.453
 7587WAT     H131068   2.992   3.648   7.427
 7587WAT     H231069   3.079   3.703   7.517
 7587WAT    EPW31070   3.063   3.653   7.458
 7588WAT      O31071   2.525   3.149   6.356
 7588WAT     H131072   2.489   3.206   6.300
 7588WAT     H231073   2.607   3.140   6.325
 7588WAT    EPW31074   2.532   3.156   6.343
 7589WAT      O31075   3.526   2.905   7.345
 7589WAT     H131076   3.508   2.974   7.294
 7589WAT     H231077   3.449   2.886   7.382
 7589WAT    EPW31078   3.512   2.913   7.343
 7590WAT      O31079   2.841   3.069   6.540
 7590WAT     H131080   2.850   3.152   6.564
 7590WAT     H231081   2.816   3.074   6.456
 7590WAT    EPW31082   2.839   3.082   6.531
 7591WAT      O31083   3.258   3.292   5.840
 7591WAT     H131084   3.209   3.360   5.866
 7591WAT     H231085   3.282   3.255   5.915
 7591WAT    EPW31086   3.254   3.297   5.855
 7592WAT      O31087   2.097   3.592   6.743
 7592WAT     H131088   2.097   3.679   6.754
 7592WAT     H231089   2.030   3.566   6.793
 7592WAT    EPW31090   2.087   3.601   6.752
 7593WAT      O31091   2.088   4.560   6.585
 7593WAT     H131092   2.023   4.608   6.552
 7593WAT     H231093   2.125   4.525   6.514
 7593WAT    EPW31094   2.084   4.562   6.570
 7594WAT      O31095   2.714   4.387   6.296
 7594WAT     H131096   2.668   4.375   6.369
 7594WAT     H231097   2.776   4.326   6.300
 7594WAT    EPW31098   2.716   4.376   6.307
 7595WAT      O31099   3.318   4.605   6.074
 7595WAT     H131100   3.390   4.652   6.056
 7595WAT     H231101   3.346   4.523   6.074
 7595WAT    EPW31102   3.333   4.600   6.071
 7596WAT      O31103   3.096   4.605   6.242
 7596WAT     H131104   3.105   4.680   6.284
 7596WAT     H231105   3.173   4.596   6.201
 7596WAT    EPW31106   3.109   4.615   6.242
 7597WAT      O31107   2.398   3.091   6.782
 7597WAT     H131108   2.352   3.024   6.751
 7597WAT     H231109   2.460   3.053   6.831
 7597WAT    EPW31110   2.401   3.075   6.785
 7598WAT      O31111   2.211   4.474   6.347
 7598WAT     H131112   2.261   4.403   6.359
 7598WAT     H231113   2.260   4.525   6.296
 7598WAT    EPW31114   2.226   4.471   6.342
 7599WAT      O31115   3.816   3.288   6.459
 7599WAT     H131116   3.768   3.358   6.479
 7599WAT     H231117   3.757   3.224   6.451
 7599WAT    EPW31118   3.800   3.289   6.461
 7600WAT      O31119   3.328   4.529   7.037
 7600WAT     H131120   3.402   4.567   7.013
 7600WAT     H231121   3.290   4.507   6.962
 7600WAT    EPW31122   3.333   4.531   7.023
 7601WAT      O31123   2.265   3.287   7.560
 7601WAT     H131124   2.197   3.234   7.556
 7601WAT     H231125   2.329   3.242   7.521
 7601WAT    EPW31126   2.265   3.273   7.554
 7602WAT      O31127   2.351   4.275   6.694
 7602WAT     H131128   2.409   4.267   6.630
 7602WAT     H231129   2.380   4.218   6.754
 7602WAT    EPW31130   2.364   4.265   6.694
 7603WAT      O31131   2.641   4.619   6.594
 7603WAT     H131132   2.722   4.631   6.562
 7603WAT     H231133   2.590   4.662   6.538
 7603WAT    EPW31134   2.646   4.627   6.581
 7604WAT      O31135   2.928   3.061   7.556
 7604WAT     H131136   2.940   2.982   7.522
 7604WAT     H231137   2.859   3.092   7.514
 7604WAT    EPW31138   2.920   3.054   7.545
 7605WAT      O31139   2.997   3.525   6.427
 7605WAT     H131140   3.024   3.483   6.355
 7605WAT     H231141   3.071   3.540   6.471
 7605WAT    EPW31142   3.012   3.521   6.423
 7606WAT      O31143   3.090   3.514   5.935
 7606WAT     H131144   3.112   3.595   5.959
 7606WAT     H231145   3.013   3.525   5.895
 7606WAT    EPW31146   3.082   3.528   5.933
 7607WAT      O31147   3.535   4.794   6.052
 7607WAT     H131148   3.597   4.815   5.995
 7607WAT     H231149   3.579   4.780   6.126
 7607WAT    EPW31150   3.550   4.795   6.055
 7608WAT      O31151   2.565   4.634   7.149
 7608WAT     H131152   2.576   4.654   7.233
 7608WAT     H231153   2.484   4.602   7.146
 7608WAT    EPW31154   2.554   4.632   7.161
 7609WAT      O31155   3.737   3.203   6.906
 7609WAT     H131156   3.798   3.195   6.844
 7609WAT     H231157   3.763   3.149   6.969
 7609WAT    EPW31158   3.750   3.194   6.906
 7610WAT      O31159   1.985   3.276   7.285
 7610WAT     H131160   1.981   3.338   7.346
 7610WAT     H231161   2.051   3.302   7.233
 7610WAT    EPW31162   1.994   3.289   7.286
 7611WAT      O31163   3.181   4.355   7.410
 7611WAT     H131164   3.168   4.293   7.471
 7611WAT     H231165   3.268   4.361   7.405
 7611WAT    EPW31166   3.192   4.346   7.418
 7612WAT      O31167   3.014   4.372   5.894
 7612WAT     H131168   2.999   4.300   5.941
 7612WAT     H231169   3.068   4.345   5.831
 7612WAT    EPW31170   3.020   4.357   5.891
 7613WAT      O31171   3.321   3.131   6.064
 7613WAT     H131172   3.376   3.064   6.076
 7613WAT     H231173   3.334   3.180   6.135
 7613WAT    EPW31174   3.331   3.128   6.076
 7614WAT      O31175   2.130   3.237   6.276
 7614WAT     H131176   2.107   3.154   6.262
 7614WAT     H231177   2.082   3.261   6.345
 7614WAT    EPW31178   2.120   3.228   6.284
 7615WAT      O31179   2.305   4.538   7.052
 7615WAT     H131180   2.250   4.470   7.053
 7615WAT     H231181   2.346   4.530   6.975
 7615WAT    EPW31182   2.303   4.527   7.041
 7616WAT      O31183   3.066   3.396   6.187
 7616WAT     H131184   2.997   3.345   6.168
 7616WAT     H231185   3.080   3.439   6.112
 7616WAT    EPW31186   3.058   3.395   6.173
 7617WAT      O31187   3.106   4.654   7.161
 7617WAT     H131188   3.173   4.608   7.129
 7617WAT     H231189   3.042   4.639   7.104
 7617WAT    EPW31190   3.107   4.645   7.148
 7618WAT      O31191   3.062   3.065   6.136
 7618WAT     H131192   3.010   3.054   6.066
 7618WAT     H231193   3.138   3.090   6.101
 7618WAT    EPW31194   3.065   3.067   6.120
 7619WAT      O31195   3.754   4.723   6.430
 7619WAT     H131196   3.707   4.796   6.428
 7619WAT     H231197   3.699   4.661   6.403
 7619WAT    EPW31198   3.739   4.724   6.426
 7620WAT      O31199   2.886   3.337   6.599
 7620WAT     H131200   2.913   3.402   6.547
 7620WAT     H231201   2.895   3.371   6.679
 7620WAT    EPW31202   2.891   3.352   6.603
 7621WAT      O31203   3.445   4.281   6.356
 7621WAT     H131204   3.519   4.239   6.377
 7621WAT     H231205   3.383   4.235   6.396
 7621WAT    EPW31206   3.447   4.268   6.365
 7622WAT      O31207   2.466   4.350   7.353
 7622WAT     H131208   2.542   4.373   7.317
 7622WAT     H231209   2.454   4.408   7.416
 7622WAT    EPW31210   2.475   4.362   7.357
 7623WAT      O31211   2.456   2.888   6.423
 7623WAT     H131212   2.475   2.971   6.405
 7623WAT     H231213   2.426   2.857   6.348
 7623WAT    EPW31214   2.454   2.896   6.409
 7624WAT      O31215   2.659   3.947   6.776
 7624WAT     H131216   2.685   3.933   6.858
 7624WAT     H231217   2.604   3.881   6.760
 7624WAT    EPW31218   2.655   3.935   6.785
 7625WAT      O31219   3.222   3.303   7.162
 7625WAT     H131220   3.212   3.335   7.243
 7625WAT     H231221   3.157   3.246   7.155
 7625WAT    EPW31222   3.211   3.299   7.173
 7626WAT      O31223   2.769   3.958   7.029
 7626WAT     H131224   2.749   4.042   7.037
 7626WAT     H231225   2.737   3.922   7.102
 7626WAT    EPW31226   2.761   3.965   7.041
 7627WAT      O31227   3.432   3.991   7.082
 7627WAT     H131228   3.349   3.968   7.094
 7627WAT     H231229   3.428   4.078   7.074
 7627WAT    EPW31230   3.420   4.000   7.083
 7628WAT      O31231   3.412   2.921   6.465
 7628WAT     H131232   3.419   2.908   6.551
 7628WAT     H231233   3.445   2.848   6.431
 7628WAT    EPW31234   3.418   2.908   6.473
 7629WAT      O31235   3.608   3.361   7.243
 7629WAT     H131236   3.691   3.338   7.253
 7629WAT     H231237   3.580   3.373   7.325
 7629WAT    EPW31238   3.616   3.359   7.257
 7630WAT      O31239   2.402   3.274   6.577
 7630WAT     H131240   2.432   3.225   6.512
 7630WAT     H231241   2.397   3.219   6.645
 7630WAT    EPW31242   2.405   3.259   6.578
 7631WAT      O31243   3.675   4.068   6.013
 7631WAT     H131244   3.662   4.029   6.089
 7631WAT     H231245   3.755   4.041   5.989
 7631WAT    EPW31246   3.685   4.059   6.020
 7632WAT      O31247   2.470   4.066   6.503
 7632WAT     H131248   2.531   4.040   6.446
 7632WAT     H231249   2.416   3.998   6.508
 7632WAT    EPW31250   2.471   4.052   6.495
 7633WAT      O31251   2.314   4.704   6.657
 7633WAT     H131252   2.236   4.669   6.638
 7633WAT     H231253   2.350   4.716   6.578
 7633WAT    EPW31254   2.308   4.700   6.642
 7634WAT      O31255   2.258   3.402   6.865
 7634WAT     H131256   2.342   3.426   6.861
 7634WAT     H231257   2.216   3.471   6.830
 7634WAT    EPW31258   2.264   3.416   6.859
 7635WAT      O31259   3.943   4.477   7.420
 7635WAT     H131260   3.867   4.476   7.377
 7635WAT     H231261   3.922   4.444   7.498
 7635WAT    EPW31262   3.928   4.472   7.425
 7636WAT      O31263   3.523   3.684   5.959
 7636WAT     H131264   3.471   3.693   5.890
 7636WAT     H231265   3.483   3.730   6.021
 7636WAT    EPW31266   3.509   3.692   5.958
 7637WAT      O31267   2.644   4.016   6.288
 7637WAT     H131268   2.710   4.072   6.285
 7637WAT     H231269   2.677   3.944   6.251
 7637WAT    EPW31270   2.658   4.013   6.282
 7638WAT      O31271   3.702   3.228   5.827
 7638WAT     H131272   3.723   3.156   5.783
 7638WAT     H231273   3.654   3.274   5.769
 7638WAT    EPW31274   3.698   3.224   5.812
 7639WAT      O31275   2.096   4.162   6.659
 7639WAT     H131276   2.045   4.222   6.697
 7639WAT     H231277   2.176   4.197   6.662
 7639WAT    EPW31278   2.100   4.176   6.665
 7640WAT      O31279   3.936   3.617   7.183
 7640WAT     H131280   3.963   3.540   7.154
 7640WAT     H231281   3.850   3.617   7.166
 7640WAT    EPW31282   3.927   3.606   7.176
 7641WAT      O31283   2.131   3.837   6.271
 7641WAT     H131284   2.113   3.752   6.270
 7641WAT     H231285   2.203   3.843   6.221
 7641WAT    EPW31286   2.139   3.825   6.264
 7642WAT      O31287   3.703   3.148   6.114
 7642WAT     H131288   3.749   3.074   6.107
 7642WAT     H231289   3.687   3.170   6.031
 7642WAT    EPW31290   3.708   3.141   6.100
 7643WAT      O31291   3.030   4.439   6.618
 7643WAT     H131292   2.989   4.512   6.593
 7643WAT     H231293   3.060   4.405   6.544
 7643WAT    EPW31294   3.028   4.445   6.604
 7644WAT      O31295   2.041   4.314   6.196
 7644WAT     H131296   2.094   4.370   6.237
 7644WAT     H231297   2.036   4.246   6.251
 7644WAT    EPW31298   2.048   4.312   6.210
 7645WAT      O31299   2.459   4.106   6.883
 7645WAT     H131300   2.511   4.146   6.942
 7645WAT     H231301   2.516   4.060   6.835
 7645WAT    EPW31302   2.475   4.105   6.885
 7646WAT      O31303   3.378   3.358   6.603
 7646WAT     H131304   3.406   3.324   6.678
 7646WAT     H231305   3.316   3.303   6.577
 7646WAT    EPW31306   3.373   3.345   6.610
 7647WAT      O31307   2.064   4.153   5.964
 7647WAT     H131308   2.141   4.112   5.963
 7647WAT     H231309   2.070   4.205   6.034
 7647WAT    EPW31310   2.076   4.155   5.974
 7648WAT      O31311   2.129   3.892   6.724
 7648WAT     H131312   2.184   3.873   6.659
 7648WAT     H231313   2.117   3.978   6.716
 7648WAT    EPW31314   2.135   3.902   6.713
 7649WAT      O31315   2.816   3.301   6.084
 7649WAT     H131316   2.799   3.287   5.999
 7649WAT     H231317   2.776   3.377   6.100
 7649WAT    EPW31318   2.808   3.310   6.074
 7650WAT      O31319   3.692   4.477   7.294
 7650WAT     H131320   3.650   4.552   7.308
 7650WAT     H231321   3.693   4.469   7.207
 7650WAT    EPW31322   3.686   4.487   7.283
 7651WAT      O31323   2.585   4.355   6.537
 7651WAT     H131324   2.596   4.438   6.563
 7651WAT     H231325   2.650   4.313   6.577
 7651WAT    EPW31326   2.596   4.361   6.547
 7652WAT      O31327   2.226   3.560   7.490
 7652WAT     H131328   2.244   3.483   7.527
 7652WAT     H231329   2.272   3.559   7.416
 7652WAT    EPW31330   2.235   3.548   7.485
 7653WAT      O31331   2.410   3.572   6.058
 7653WAT     H131332   2.392   3.507   6.114
 7653WAT     H231333   2.370   3.547   5.985
 7653WAT    EPW31334   2.402   3.559   6.056
 7654WAT      O31335   2.474   3.749   6.736
 7654WAT     H131336   2.467   3.721   6.654
 7654WAT     H231337   2.488   3.676   6.782
 7654WAT    EPW31338   2.475   3.734   6.731
 7655WAT      O31339   2.456   3.722   7.078
 7655WAT     H131340   2.481   3.670   7.013
 7655WAT     H231341   2.399   3.777   7.041
 7655WAT    EPW31342   2.451   3.722   7.063
 7656WAT      O31343   3.510   3.536   6.880
 7656WAT     H131344   3.444   3.559   6.932
 7656WAT     H231345   3.510   3.596   6.817
 7656WAT    EPW31346   3.501   3.548   6.879
 7657WAT      O31347   2.886   4.635   6.985
 7657WAT     H131348   2.839   4.567   6.957
 7657WAT     H231349   2.884   4.691   6.918
 7657WAT    EPW31350   2.879   4.634   6.971
 7658WAT      O31351   3.067   3.073   7.240
 7658WAT     H131352   3.092   2.992   7.220
 7658WAT     H231353   3.101   3.086   7.320
 7658WAT    EPW31354   3.076   3.063   7.249
 7659WAT      O31355   3.309   3.294   6.282
 7659WAT     H131356   3.364   3.362   6.279
 7659WAT     H231357   3.232   3.329   6.258
 7659WAT    EPW31358   3.306   3.309   6.278
 7660WAT      O31359   2.144   3.821   7.580
 7660WAT     H131360   2.191   3.879   7.534
 7660WAT     H231361   2.177   3.744   7.556
 7660WAT    EPW31362   2.156   3.819   7.570
 7661WAT      O31363   3.425   4.104   7.504
 7661WAT     H131364   3.448   4.186   7.487
 7661WAT     H231365   3.466   4.058   7.442
 7661WAT    EPW31366   3.435   4.109   7.492
 7662WAT      O31367   2.827   4.456   7.515
 7662WAT     H131368   2.836   4.440   7.600
 7662WAT     H231369   2.810   4.377   7.481
 7662WAT    EPW31370   2.826   4.442   7.522
 7663WAT      O31371   2.915   3.428   6.858
 7663WAT     H131372   2.977   3.490   6.860
 7663WAT     H231373   2.955   3.358   6.889
 7663WAT    EPW31374   2.930   3.427   6.863
 7664WAT      O31375   3.153   3.761   6.061
 7664WAT     H131376   3.129   3.832   6.016
 7664WAT     H231377   3.099   3.761   6.129
 7664WAT    EPW31378   3.142   3.772   6.065
 7665WAT      O31379   3.674   4.138   6.422
 7665WAT     H131380   3.674   4.110   6.505
 7665WAT     H231381   3.663   4.065   6.376
 7665WAT    EPW31382   3.672   4.123   6.427
 7666WAT      O31383   3.250   4.465   6.781
 7666WAT     H131384   3.174   4.461   6.739
 7666WAT     H231385   3.293   4.529   6.741
 7666WAT    EPW31386   3.245   4.474   6.769
 7667WAT      O31387   3.299   4.191   6.742
 7667WAT     H131388   3.281   4.276   6.751
 7667WAT     H231389   3.386   4.188   6.748
 7667WAT    EPW31390   3.309   4.203   6.744
 7668WAT      O31391   2.640   4.597   6.115
 7668WAT     H131392   2.672   4.562   6.189
 7668WAT     H231393   2.640   4.530   6.059
 7668WAT    EPW31394   2.645   4.582   6.118
 7669WAT      O31395   2.611   2.960   5.966
 7669WAT     H131396   2.605   2.933   6.048
 7669WAT     H231397   2.562   3.032   5.964
 7669WAT    EPW31398   2.603   2.967   5.978
 7670WAT      O31399   3.558   3.946   7.323
 7670WAT     H131400   3.521   3.957   7.244
 7670WAT     H231401   3.641   3.969   7.309
 7670WAT    EPW31402   3.565   3.951   7.309
 7671WAT      O31403   3.728   2.926   7.539
 7671WAT     H131404   3.668   2.921   7.476
 7671WAT     H231405   3.681   2.938   7.612
 7671WAT    EPW31406   3.713   2.927   7.541
 7672WAT      O31407   2.378   3.842   6.139
 7672WAT     H131408   2.390   3.758   6.120
 7672WAT     H231409   2.448   3.863   6.187
 7672WAT    EPW31410   2.390   3.833   6.144
 7673WAT      O31411   3.171   3.926   7.149
 7673WAT     H131412   3.116   3.969   7.201
 7673WAT     H231413   3.194   3.857   7.197
 7673WAT    EPW31414   3.166   3.922   7.164
 7674WAT      O31415   2.028   2.974   6.238
 7674WAT     H131416   2.031   2.917   6.171
 7674WAT     H231417   1.998   2.927   6.304
 7674WAT    EPW31418   2.024   2.959   6.238
 7675WAT      O31419   2.991   3.765   6.285
 7675WAT     H131420   3.004   3.832   6.340
 7675WAT     H231421   2.985   3.696   6.337
 7675WAT    EPW31422   2.992   3.765   6.301
 7676WAT      O31423   2.474   3.204   5.946
 7676WAT     H131424   2.417   3.203   5.880
 7676WAT     H231425   2.543   3.246   5.912
 7676WAT    EPW31426   2.476   3.210   5.931
 7677WAT      O31427   2.913   4.007   6.689
 7677WAT     H131428   2.832   3.980   6.705
 7677WAT     H231429   2.959   3.973   6.755
 7677WAT    EPW31430   2.908   3.998   6.701
 7678WAT      O31431   2.574   4.623   5.777
 7678WAT     H131432   2.641   4.568   5.776
 7678WAT     H231433   2.603   4.688   5.828
 7678WAT    EPW31434   2.588   4.625   5.785
 7679WAT      O31435   2.281   3.908   6.963
 7679WAT     H131436   2.333   3.975   6.945
 7679WAT     H231437   2.238   3.895   6.888
 7679WAT    EPW31438   2.282   3.916   6.949
 7680WAT      O31439   2.616   3.443   6.617
 7680WAT     H131440   2.692   3.403   6.606
 7680WAT     H231441   2.557   3.379   6.603
 7680WAT    EPW31442   2.618   3.427   6.614
 7681WAT      O31443   3.951   4.652   6.044
 7681WAT     H131444   4.002   4.606   5.991
 7681WAT     H231445   3.883   4.599   6.059
 7681WAT    EPW31446   3.948   4.638   6.038
 7682WAT      O31447   2.093   3.560   6.270
 7682WAT     H131448   2.128   3.523   6.341
 7682WAT     H231449   2.104   3.499   6.208
 7682WAT    EPW31450   2.100   3.545   6.272
 7683WAT      O31451   3.678   3.875   7.004
 7683WAT     H131452   3.677   3.797   7.043
 7683WAT     H231453   3.596   3.904   7.013
 7683WAT    EPW31454   3.666   3.867   7.011
 7684WAT      O31455   2.600   3.711   5.870
 7684WAT     H131456   2.547   3.676   5.930
 7684WAT     H231457   2.553   3.706   5.797
 7684WAT    EPW31458   2.585   3.705   5.868
 7685WAT      O31459   2.251   4.014   7.402
 7685WAT     H131460   2.219   3.969   7.335
 7685WAT     H231461   2.223   4.096   7.387
 7685WAT    EPW31462   2.242   4.020   7.390
 7686WAT      O31463   3.711   3.930   6.663
 7686WAT     H131464   3.689   3.987   6.725
 7686WAT     H231465   3.795   3.914   6.679
 7686WAT    EPW31466   3.720   3.936   6.675
 7687WAT      O31467   2.681   3.534   6.127
 7687WAT     H131468   2.704   3.617   6.141
 7687WAT     H231469   2.595   3.538   6.113
 7687WAT    EPW31470   2.672   3.546   6.127
 7688WAT      O31471   3.483   3.306   7.510
 7688WAT     H131472   3.447   3.320   7.588
 7688WAT     H231473   3.445   3.233   7.482
 7688WAT    EPW31474   3.472   3.297   7.517
 7689WAT      O31475   2.072   3.205   6.741
 7689WAT     H131476   2.053   3.237   6.662
 7689WAT     H231477   2.144   3.250   6.764
 7689WAT    EPW31478   2.080   3.216   6.733
 7690WAT      O31479   3.864   4.574   6.903
 7690WAT     H131480   3.890   4.579   6.820
 7690WAT     H231481   3.904   4.503   6.934
 7690WAT    EPW31482   3.874   4.565   6.896
 7691WAT      O31483   3.377   3.698   7.636
 7691WAT     H131484   3.430   3.761   7.666
 7691WAT     H231485   3.298   3.734   7.642
 7691WAT    EPW31486   3.373   3.713   7.642
 7692WAT      O31487   3.534   3.684   7.409
 7692WAT     H131488   3.549   3.769   7.399
 7692WAT     H231489   3.495   3.679   7.487
 7692WAT    EPW31490   3.531   3.696   7.419
 7693WAT      O31491   3.605   4.333   5.944
 7693WAT     H131492   3.634   4.251   5.953
 7693WAT     H231493   3.530   4.333   5.989
 7693WAT    EPW31494   3.598   4.321   5.952
 7694WAT      O31495   3.609   3.480   6.502
 7694WAT     H131496   3.542   3.432   6.533
 7694WAT     H231497   3.606   3.552   6.550
 7694WAT    EPW31498   3.599   3.483   6.514
 7695WAT      O31499   3.822   4.030   7.294
 7695WAT     H131500   3.884   3.975   7.268
 7695WAT     H231501   3.814   4.085   7.227
 7695WAT    EPW31502   3.830   4.030   7.280
 7696WAT      O31503   3.276   4.121   5.927
 7696WAT     H131504   3.351   4.079   5.911
 7696WAT     H231505   3.265   4.171   5.856
 7696WAT    EPW31506   3.286   4.122   5.914
 7697WAT      O31507   2.667   4.219   7.032
 7697WAT     H131508   2.674   4.262   7.108
 7697WAT     H231509   2.688   4.279   6.973
 7697WAT    EPW31510   2.671   4.234   7.035
 7698WAT      O31511   2.522   4.078   7.378
 7698WAT     H131512   2.443   4.044   7.396
 7698WAT     H231513   2.505   4.162   7.364
 7698WAT    EPW31514   2.508   4.085   7.379
 7699WAT      O31515   3.450   3.139   7.196
 7699WAT     H131516   3.506   3.206   7.200
 7699WAT     H231517   3.373   3.178   7.179
 7699WAT    EPW31518   3.447   3.155   7.194
 7700WAT      O31519   3.015   3.883   6.923
 7700WAT     H131520   3.072   3.901   6.986
 7700WAT     H231521   2.938   3.899   6.960
 7700WAT    EPW31522   3.012   3.888   6.938
 7701WAT      O31523   2.652   3.428   7.320
 7701WAT     H131524   2.674   3.349   7.350
 7701WAT     H231525   2.679   3.426   7.237
 7701WAT    EPW31526   2.659   3.416   7.312
 7702WAT      O31527   2.901   4.651   6.491
 7702WAT     H131528   2.910   4.737   6.500
 7702WAT     H231529   2.932   4.636   6.411
 7702WAT    EPW31530   2.907   4.661   6.480
 7703WAT      O31531   3.540   2.942   7.015
 7703WAT     H131532   3.506   3.010   7.056
 7703WAT     H231533   3.625   2.947   7.035
 7703WAT    EPW31534   3.548   2.953   7.024
 7704WAT      O31535   2.799   3.010   7.171
 7704WAT     H131536   2.880   3.040   7.181
 7704WAT     H231537   2.810   2.936   7.126
 7704WAT    EPW31538   2.813   3.003   7.166
 7705WAT      O31539   2.720   4.435   6.867
 7705WAT     H131540   2.643   4.462   6.836
 7705WAT     H231541   2.754   4.389   6.801
 7705WAT    EPW31542   2.714   4.432   6.853
 7706WAT      O31543   3.152   4.095   7.544
 7706WAT     H131544   3.238   4.093   7.526
 7706WAT     H231545   3.115   4.087   7.466
 7706WAT    EPW31546   3.159   4.093   7.530
 7707WAT      O31547   3.465   4.375   7.437
 7707WAT     H131548   3.458   4.447   7.487
 7707WAT     H231549   3.534   4.392   7.386
 7707WAT    EPW31550   3.475   4.388   7.437
 7708WAT      O31551   3.794   3.647   5.932
 7708WAT     H131552   3.826   3.702   5.872
 7708WAT     H231553   3.708   3.660   5.928
 7708WAT    EPW31554   3.786   3.657   5.923
 7709WAT      O31555   2.839   3.914   5.919
 7709WAT     H131556   2.825   3.851   5.860
 7709WAT     H231557   2.769   3.966   5.910
 7709WAT    EPW31558   2.827   3.913   5.909
 7710WAT      O31559   2.521   3.513   6.869
 7710WAT     H131560   2.556   3.486   6.794
 7710WAT     H231561   2.578   3.485   6.930
 7710WAT    EPW31562   2.534   3.505   6.867
 7711WAT      O31563   3.215   3.404   7.424
 7711WAT     H131564   3.164   3.473   7.441
 7711WAT     H231565   3.295   3.432   7.445
 7711WAT    EPW31566   3.219   3.419   7.430
 7712WAT      O31567   3.283   3.552   7.043
 7712WAT     H131568   3.284   3.601   7.115
 7712WAT     H231569   3.265   3.472   7.073
 7712WAT    EPW31570   3.280   3.547   7.058
 7713WAT      O31571   3.014   4.654   7.425
 7713WAT     H131572   3.035   4.642   7.341
 7713WAT     H231573   2.972   4.580   7.446
 7713WAT    EPW31574   3.011   4.641   7.416
 7714WAT      O31575   3.487   3.513   6.256
 7714WAT     H131576   3.531   3.508   6.330
 7714WAT     H231577   3.548   3.506   6.194
 7714WAT    EPW31578   3.502   3.511   6.258
 7715WAT      O31579   2.821   3.005   6.815
 7715WAT     H131580   2.739   2.988   6.836
 7715WAT     H231581   2.819   3.014   6.728
 7715WAT    EPW31582   2.809   3.004   6.805
 7716WAT      O31583   3.625   3.097   6.389
 7716WAT     H131584   3.546   3.067   6.408
 7716WAT     H231585   3.621   3.115   6.303
 7716WAT    EPW31586   3.613   3.095   6.379
 7717WAT      O31587   3.627   3.921   6.250
 7717WAT     H131588   3.680   3.851   6.248
 7717WAT     H231589   3.547   3.886   6.244
 7717WAT    EPW31590   3.623   3.905   6.249
 7718WAT      O31591   2.997   4.084   7.314
 7718WAT     H131592   2.923   4.087   7.360
 7718WAT     H231593   2.998   4.160   7.271
 7718WAT    EPW31594   2.986   4.096   7.315
 7719WAT      O31595   2.069   3.094   7.481
 7719WAT     H131596   2.041   3.148   7.419
 7719WAT     H231597   1.996   3.056   7.510
 7719WAT    EPW31598   2.054   3.096   7.476
 7720WAT      O31599   2.590   4.750   6.892
 7720WAT     H131600   2.585   4.715   6.972
 7720WAT     H231601   2.566   4.685   6.840
 7720WAT    EPW31602   2.586   4.735   6.896
 7721WAT      O31603   2.383   3.322   6.187
 7721WAT     H131604   2.398   3.279   6.112
 7721WAT     H231605   2.303   3.294   6.210
 7721WAT    EPW31606   2.373   3.311   6.179
 7722WAT      O31607   3.280   4.084   6.488
 7722WAT     H131608   3.281   4.115   6.569
 7722WAT     H231609   3.312   4.003   6.497
 7722WAT    EPW31610   3.285   4.077   6.501
 7723WAT      O31611   3.023   3.996   6.436
 7723WAT     H131612   2.988   3.995   6.516
 7723WAT     H231613   3.104   4.027   6.449
 7723WAT    EPW31614   3.030   4.000   6.450
 7724WAT      O31615   2.986   4.345   7.211
 7724WAT     H131616   3.050   4.362   7.267
 7724WAT     H231617   3.029   4.320   7.139
 7724WAT    EPW31618   3.002   4.344   7.208
 7725WAT      O31619   3.819   3.512   7.466
 7725WAT     H131620   3.766   3.580   7.453
 7725WAT     H231621   3.899   3.548   7.464
 7725WAT    EPW31622   3.823   3.528   7.464
 7726WAT      O31623   3.281   3.704   7.277
 7726WAT     H131624   3.220   3.683   7.336
 7726WAT     H231625   3.356   3.700   7.322
 7726WAT    EPW31626   3.283   3.700   7.292
 7727WAT      O31627   2.213   4.714   7.410
 7727WAT     H131628   2.153   4.650   7.405
 7727WAT     H231629   2.167   4.782   7.440
 7727WAT    EPW31630   2.197   4.715   7.414
 7728WAT      O31631   3.128   3.837   7.649
 7728WAT     H131632   3.136   3.919   7.619
 7728WAT     H231633   3.087   3.847   7.725
 7728WAT    EPW31634   3.123   3.851   7.656
 7729WAT      O31635   3.392   4.691   6.703
 7729WAT     H131636   3.350   4.755   6.746
 7729WAT     H231637   3.463   4.678   6.753
 7729WAT    EPW31638   3.396   4.699   6.717
 7730WAT      O31639   3.135   4.229   7.006
 7730WAT     H131640   3.127   4.187   6.930
 7730WAT     H231641   3.221   4.231   7.019
 7730WAT    EPW31642   3.146   4.223   6.996
 7731WAT      O31643   2.388   3.522   7.262
 7731WAT     H131644   2.407   3.590   7.211
 7731WAT     H231645   2.466   3.492   7.287
 7731WAT    EPW31646   2.402   3.527   7.258
 7732WAT      O31647   2.199   3.362   7.130
 7732WAT     H131648   2.215   3.375   7.045
 7732WAT     H231649   2.256   3.416   7.169
 7732WAT    EPW31650   2.210   3.372   7.123
 7733WAT      O31651   3.797   3.703   6.204
 7733WAT     H131652   3.797   3.688   6.118
 7733WAT     H231653   3.852   3.643   6.235
 7733WAT    EPW31654   3.805   3.692   6.196
 7734WAT      O31655   2.425   3.096   7.413
 7734WAT     H131656   2.379   3.024   7.432
 7734WAT     H231657   2.404   3.113   7.330
 7734WAT    EPW31658   2.415   3.088   7.404
 7735WAT      O31659   3.092   4.353   6.366
 7735WAT     H131660   3.092   4.426   6.318
 7735WAT     H231661   3.033   4.302   6.326
 7735WAT    EPW31662   3.083   4.356   6.353
 7736WAT      O31663   3.656   3.635   7.161
 7736WAT     H131664   3.637   3.551   7.147
 7736WAT     H231665   3.618   3.652   7.238
 7736WAT    EPW31666   3.647   3.626   7.170
 7737WAT      O31667   2.131   3.879   7.194
 7737WAT     H131668   2.173   3.893   7.119
 7737WAT     H231669   2.108   3.795   7.190
 7737WAT    EPW31670   2.134   3.868   7.183
 7738WAT      O31671   2.273   3.480   5.831
 7738WAT     H131672   2.203   3.471   5.881
 7738WAT     H231673   2.288   3.400   5.800
 7738WAT    EPW31674   2.265   3.467   5.834
 7739WAT      O31675   3.185   3.137   7.492
 7739WAT     H131676   3.186   3.223   7.478
 7739WAT     H231677   3.107   3.123   7.530
 7739WAT    EPW31678   3.173   3.148   7.496
 7740WAT      O31679   3.144   3.193   6.587
 7740WAT     H131680   3.067   3.232   6.591
 7740WAT     H231681   3.133   3.129   6.529
 7740WAT    EPW31682   3.131   3.189   6.579
 7741WAT      O31683   2.616   4.326   6.042
 7741WAT     H131684   2.644   4.331   6.125
 7741WAT     H231685   2.529   4.323   6.050
 7741WAT    EPW31686   2.607   4.326   6.055
 7742WAT      O31687   3.468   3.262   6.850
 7742WAT     H131688   3.547   3.229   6.863
 7742WAT     H231689   3.476   3.346   6.872
 7742WAT    EPW31690   3.481   3.269   6.855
 7743WAT      O31691   2.640   3.851   7.249
 7743WAT     H131692   2.600   3.918   7.287
 7743WAT     H231693   2.577   3.813   7.202
 7743WAT    EPW31694   2.625   3.856   7.248
 7744WAT      O31695   3.546   3.707   6.656
 7744WAT     H131696   3.603   3.773   6.666
 7744WAT     H231697   3.483   3.742   6.607
 7744WAT    EPW31698   3.545   3.722   6.651
 7745WAT      O31699   3.564   4.540   6.326
 7745WAT     H131700   3.526   4.464   6.348
 7745WAT     H231701   3.619   4.517   6.262
 7745WAT    EPW31702   3.567   4.525   6.320
 7746WAT      O31703   2.344   4.295   6.061
 7746WAT     H131704   2.338   4.275   6.145
 7746WAT     H231705   2.343   4.217   6.021
 7746WAT    EPW31706   2.343   4.281   6.067
 7747WAT      O31707   2.622   4.086   5.905
 7747WAT     H131708   2.538   4.063   5.914
 7747WAT     H231709   2.628   4.161   5.949
 7747WAT    EPW31710   2.610   4.094   5.913
 7748WAT      O31711   2.615   3.177   7.040
 7748WAT     H131712   2.535   3.155   7.068
 7748WAT     H231713   2.666   3.115   7.074
 7748WAT    EPW31714   2.610   3.164   7.049
 7749WAT      O31715   3.803   3.037   7.122
 7749WAT     H131716   3.814   3.095   7.186
 7749WAT     H231717   3.880   2.996   7.117
 7749WAT    EPW31718   3.816   3.040   7.130
 7750WAT      O31719   3.009   3.181   6.934
 7750WAT     H131720   2.948   3.126   6.902
 7750WAT     H231721   3.084   3.144   6.910
 7750WAT    EPW31722   3.011   3.167   6.925
 7751WAT      O31723   3.414   4.266   7.049
 7751WAT     H131724   3.390   4.349   7.061
 7751WAT     H231725   3.464   4.269   6.978
 7751WAT    EPW31726   3.418   4.278   7.041
 7752WAT      O31727   3.293   4.699   7.486
 7752WAT     H131728   3.213   4.664   7.476
 7752WAT     H231729   3.276   4.782   7.507
 7752WAT    EPW31730   3.279   4.706   7.488
 7753WAT      O31731   2.807   3.659   7.378
 7753WAT     H131732   2.758   3.588   7.370
 7753WAT     H231733   2.759   3.722   7.341
 7753WAT    EPW31734   2.793   3.658   7.372
 7754WAT      O31735   2.886   2.996   5.930
 7754WAT     H131736   2.903   3.011   5.846
 7754WAT     H231737   2.799   3.002   5.934
 7754WAT    EPW31738   2.876   2.999   5.918
 7755WAT      O31739   3.812   4.119   7.025
 7755WAT     H131740   3.785   4.037   7.019
 7755WAT     H231741   3.761   4.162   6.969
 7755WAT    EPW31742   3.801   4.113   7.016
 7756WAT      O31743   2.652   4.667   7.420
 7756WAT     H131744   2.695   4.741   7.438
 7756WAT     H231745   2.709   4.604   7.442
 7756WAT    EPW31746   2.667   4.669   7.426
 7757WAT      O31747   3.587   4.584   6.893
 7757WAT     H131748   3.673   4.593   6.896
 7757WAT     H231749   3.576   4.505   6.858
 7757WAT    EPW31750   3.598   4.574   6.888
 7758WAT      O31751   2.359   3.134   7.149
 7758WAT     H131752   2.305   3.069   7.127
 7758WAT     H231753   2.310   3.205   7.138
 7758WAT    EPW31754   2.344   3.135   7.144
 7759WAT      O31755   3.249   3.088   6.823
 7759WAT     H131756   3.313   3.143   6.843
 7759WAT     H231757   3.217   3.120   6.748
 7759WAT    EPW31758   3.254   3.101   6.815
 7760WAT      O31759   2.418   4.559   7.527
 7760WAT     H131760   2.490   4.603   7.506
 7760WAT     H231761   2.354   4.610   7.497
 7760WAT    EPW31762   2.419   4.573   7.519
 7761WAT      O31763   3.214   3.586   6.586
 7761WAT     H131764   3.269   3.519   6.598
 7761WAT     H231765   3.183   3.601   6.666
 7761WAT    EPW31766   3.218   3.578   6.600
 7762WAT      O31767   2.220   3.481   6.509
 7762WAT     H131768   2.176   3.506   6.581
 7762WAT     H231769   2.259   3.407   6.535
 7762WAT    EPW31770   2.219   3.474   6.524
 7763WAT      O31771   2.197   4.282   7.311
 7763WAT     H131772   2.148   4.348   7.340
 7763WAT     H231773   2.278   4.311   7.320
 7763WAT    EPW31774   2.201   4.296   7.317
 7764WAT      O31775   3.391   3.767   6.209
 7764WAT     H131776   3.412   3.683   6.222
 7764WAT     H231777   3.315   3.763   6.167
 7764WAT    EPW31778   3.383   3.754   6.205
 7765WAT      O31779   2.368   4.623   6.169
 7765WAT     H131780   2.327   4.616   6.093
 7765WAT     H231781   2.452   4.612   6.148
 7765WAT    EPW31782   2.374   4.620   6.155
 7766WAT      O31783   2.750   3.799   6.158
 7766WAT     H131784   2.773   3.830   6.080
 7766WAT     H231785   2.826   3.788   6.199
 7766WAT    EPW31786   2.765   3.802   6.152
 7767WAT      O31787   3.790   3.914   7.556
 7767WAT     H131788   3.869   3.884   7.576
 7767WAT     H231789   3.804   3.961   7.484
 7767WAT    EPW31790   3.803   3.917   7.548
 7768WAT      O31791   3.370   4.333   6.091
 7768WAT     H131792   3.388   4.309   6.173
 7768WAT     H231793   3.332   4.263   6.057
 7768WAT    EPW31794   3.367   4.319   6.098
 7769WAT      O31795   3.732   3.314   7.649
 7769WAT     H131796   3.772   3.382   7.611
 7769WAT     H231797   3.660   3.303   7.601
 7769WAT    EPW31798   3.728   3.323   7.636
 7770WAT      O31799   3.782   3.480   6.921
 7770WAT     H131800   3.699   3.507   6.913
 7770WAT     H231801   3.776   3.393   6.919
 7770WAT    EPW31802   3.769   3.471   6.920
 7771WAT      O31803   2.702   3.137   7.401
 7771WAT     H131804   2.720   3.102   7.323
 7771WAT     H231805   2.616   3.125   7.409
 7771WAT    EPW31806   2.692   3.130   7.391
 7772WAT      O31807   3.540   3.916   7.683
 7772WAT     H131808   3.622   3.914   7.653
 7772WAT     H231809   3.505   3.984   7.642
 7772WAT    EPW31810   3.547   3.926   7.673
 7773WAT      O31811   2.438   4.510   6.808
 7773WAT     H131812   2.411   4.434   6.774
 7773WAT     H231813   2.401   4.570   6.758
 7773WAT    EPW31814   2.429   4.508   6.796
 7774WAT      O31815   3.008   4.118   6.021
 7774WAT     H131816   3.090   4.107   5.995
 7774WAT     H231817   2.964   4.057   5.977
 7774WAT    EPW31818   3.013   4.108   6.010
 7775WAT      O31819   2.170   4.767   7.140
 7775WAT     H131820   2.184   4.749   7.225
 7775WAT     H231821   2.205   4.699   7.099
 7775WAT    EPW31822   2.177   4.755   7.147
 7776WAT      O31823   2.086   4.094   4.461
 7776WAT     H131824   2.006   4.099   4.495
 7776WAT     H231825   2.083   4.023   4.411
 7776WAT    EPW31826   2.074   4.084   4.458
 7777WAT      O31827   2.097   3.470   4.140
 7777WAT     H131828   2.162   3.462   4.082
 7777WAT     H231829   2.098   3.395   4.183
 7777WAT    EPW31830   2.107   3.458   4.138
 7778WAT      O31831   2.289   3.954   4.097
 7778WAT     H131832   2.291   3.931   4.013
 7778WAT     H231833   2.355   3.911   4.132
 7778WAT    EPW31834   2.299   3.945   4.090
 7779WAT      O31835   2.358   4.201   4.446
 7779WAT     H131836   2.419   4.175   4.502
 7779WAT     H231837   2.288   4.154   4.469
 7779WAT    EPW31838   2.357   4.190   4.457
 7780WAT      O31839   2.862   3.314   4.453
 7780WAT     H131840   2.864   3.400   4.440
 7780WAT     H231841   2.940   3.287   4.426
 7780WAT    EPW31842   2.874   3.323   4.447
 7781WAT      O31843   2.685   4.210   5.662
 7781WAT     H131844   2.664   4.163   5.733
 7781WAT     H231845   2.640   4.171   5.598
 7781WAT    EPW31846   2.675   4.197   5.663
 7782WAT      O31847   2.483   3.846   4.501
 7782WAT     H131848   2.460   3.847   4.417
 7782WAT     H231849   2.550   3.790   4.503
 7782WAT    EPW31850   2.490   3.838   4.489
 7783WAT      O31851   2.706   3.375   5.149
 7783WAT     H131852   2.793   3.379   5.139
 7783WAT     H231853   2.690   3.290   5.154
 7783WAT    EPW31854   2.716   3.363   5.148
 7784WAT      O31855   2.814   4.600   5.428
 7784WAT     H131856   2.864   4.625   5.361
 7784WAT     H231857   2.839   4.517   5.443
 7784WAT    EPW31858   2.825   4.591   5.420
 7785WAT      O31859   2.596   3.202   4.468
 7785WAT     H131860   2.546   3.228   4.402
 7785WAT     H231861   2.673   3.240   4.452
 7785WAT    EPW31862   2.600   3.211   4.456
 7786WAT      O31863   2.782   3.186   4.727
 7786WAT     H131864   2.732   3.255   4.743
 7786WAT     H231865   2.825   3.208   4.654
 7786WAT    EPW31866   2.781   3.200   4.719
 7787WAT      O31867   2.128   3.612   4.827
 7787WAT     H131868   2.146   3.698   4.824
 7787WAT     H231869   2.041   3.609   4.831
 7787WAT    EPW31870   2.118   3.624   4.827
 7788WAT      O31871   2.103   4.549   4.665
 7788WAT     H131872   2.040   4.598   4.630
 7788WAT     H231873   2.146   4.517   4.596
 7788WAT    EPW31874   2.100   4.552   4.650
 7789WAT      O31875   2.772   4.185   4.448
 7789WAT     H131876   2.787   4.167   4.532
 7789WAT     H231877   2.787   4.108   4.409
 7789WAT    EPW31878   2.777   4.171   4.455
 7790WAT      O31879   2.363   3.095   4.807
 7790WAT     H131880   2.283   3.120   4.831
 7790WAT     H231881   2.397   3.062   4.881
 7790WAT    EPW31882   2.356   3.093   4.822
 7791WAT      O31883   2.706   3.305   5.819
 7791WAT     H131884   2.705   3.273   5.738
 7791WAT     H231885   2.742   3.384   5.809
 7791WAT    EPW31886   2.711   3.312   5.805
 7792WAT      O31887   2.255   4.459   4.439
 7792WAT     H131888   2.296   4.384   4.455
 7792WAT     H231889   2.317   4.508   4.400
 7792WAT    EPW31890   2.270   4.455   4.435
 7793WAT      O31891   2.297   3.222   5.727
 7793WAT     H131892   2.219   3.183   5.723
 7793WAT     H231893   2.342   3.185   5.662
 7793WAT    EPW31894   2.292   3.211   5.717
 7794WAT      O31895   2.386   4.268   4.800
 7794WAT     H131896   2.442   4.213   4.762
 7794WAT     H231897   2.437   4.331   4.830
 7794WAT    EPW31898   2.402   4.269   4.799
 7795WAT      O31899   2.761   4.495   4.828
 7795WAT     H131900   2.812   4.541   4.881
 7795WAT     H231901   2.802   4.418   4.822
 7795WAT    EPW31902   2.775   4.490   4.835
 7796WAT      O31903   2.955   3.020   5.663
 7796WAT     H131904   2.967   2.943   5.625
 7796WAT     H231905   2.914   3.067   5.602
 7796WAT    EPW31906   2.950   3.016   5.649
 7797WAT      O31907   2.479   4.602   5.281
 7797WAT     H131908   2.501   4.645   5.353
 7797WAT     H231909   2.539   4.625   5.223
 7797WAT    EPW31910   2.491   4.612   5.283
 7798WAT      O31911   2.098   3.366   5.505
 7798WAT     H131912   2.061   3.441   5.532
 7798WAT     H231913   2.176   3.367   5.544
 7798WAT    EPW31914   2.104   3.378   5.515
 7799WAT      O31915   3.215   4.295   5.713
 7799WAT     H131916   3.241   4.378   5.707
 7799WAT     H231917   3.214   4.267   5.631
 7799WAT    EPW31918   3.218   4.303   5.700
 7800WAT      O31919   2.997   4.416   4.054
 7800WAT     H131920   3.042   4.486   4.079
 7800WAT     H231921   3.043   4.350   4.088
 7800WAT    EPW31922   3.011   4.417   4.063
 7801WAT      O31923   2.117   3.257   4.336
 7801WAT     H131924   2.087   3.176   4.335
 7801WAT     H231925   2.096   3.286   4.416
 7801WAT    EPW31926   2.109   3.250   4.348
 7802WAT      O31927   2.288   4.522   5.096
 7802WAT     H131928   2.343   4.535   5.163
 7802WAT     H231929   2.341   4.515   5.027
 7802WAT    EPW31930   2.304   4.523   5.096
 7803WAT      O31931   2.420   4.379   5.442
 7803WAT     H131932   2.453   4.442   5.392
 7803WAT     H231933   2.406   4.417   5.519
 7803WAT    EPW31934   2.423   4.394   5.446
 7804WAT      O31935   2.013   4.364   5.779
 7804WAT     H131936   2.073   4.412   5.819
 7804WAT     H231937   2.021   4.285   5.817
 7804WAT    EPW31938   2.023   4.359   5.790
 7805WAT      O31939   2.441   3.329   4.663
 7805WAT     H131940   2.489   3.292   4.600
 7805WAT     H231941   2.418   3.261   4.713
 7805WAT    EPW31942   2.445   3.314   4.661
 7806WAT      O31943   2.533   4.087   4.639
 7806WAT     H131944   2.617   4.094   4.663
 7806WAT     H231945   2.531   4.012   4.594
 7806WAT    EPW31946   2.545   4.077   4.636
 7807WAT      O31947   2.320   4.692   4.765
 7807WAT     H131948   2.248   4.649   4.741
 7807WAT     H231949   2.352   4.723   4.690
 7807WAT    EPW31950   2.314   4.690   4.750
 7808WAT      O31951   2.256   3.423   4.978
 7808WAT     H131952   2.341   3.444   4.977
 7808WAT     H231953   2.219   3.487   4.932
 7808WAT    EPW31954   2.263   3.436   4.971
 7809WAT      O31955   2.141   4.171   4.861
 7809WAT     H131956   2.091   4.192   4.792
 7809WAT     H231957   2.220   4.199   4.838
 7809WAT    EPW31958   2.145   4.178   4.847
 7810WAT      O31959   2.828   3.560   5.810
 7810WAT     H131960   2.762   3.600   5.850
 7810WAT     H231961   2.817   3.581   5.726
 7810WAT    EPW31962   2.817   3.569   5.803
 7811WAT      O31963   2.077   3.887   4.273
 7811WAT     H131964   2.096   3.811   4.312
 7811WAT     H231965   2.144   3.901   4.220
 7811WAT    EPW31966   2.089   3.878   4.271
 7812WAT      O31967   2.073   4.310   4.291
 7812WAT     H131968   2.133   4.363   4.327
 7812WAT     H231969   2.073   4.241   4.344
 7812WAT    EPW31970   2.082   4.308   4.304
 7813WAT      O31971   2.075   4.153   4.057
 7813WAT     H131972   2.144   4.101   4.064
 7813WAT     H231973   2.085   4.210   4.122
 7813WAT    EPW31974   2.087   4.154   4.067
 7814WAT      O31975   2.160   3.892   4.827
 7814WAT     H131976   2.243   3.876   4.807
 7814WAT     H231977   2.160   3.977   4.848
 7814WAT    EPW31978   2.172   3.903   4.827
 7815WAT      O31979   2.395   3.678   5.672
 7815WAT     H131980   2.351   3.612   5.710
 7815WAT     H231981   2.401   3.653   5.589
 7815WAT    EPW31982   2.389   3.665   5.665
 7816WAT      O31983   2.542   3.546   4.078
 7816WAT     H131984   2.600   3.545   4.144
 7816WAT     H231985   2.587   3.579   4.011
 7816WAT    EPW31986   2.557   3.551   4.078
 7817WAT      O31987   2.416   3.801   4.771
 7817WAT     H131988   2.429   3.829   4.689
 7817WAT     H231989   2.463   3.727   4.774
 7817WAT    EPW31990   2.425   3.794   4.759
 7818WAT      O31991   2.456   3.728   5.176
 7818WAT     H131992   2.479   3.663   5.122
 7818WAT     H231993   2.469   3.800   5.129
 7818WAT    EPW31994   2.461   3.729   5.161
 7819WAT      O31995   2.265   3.916   5.717
 7819WAT     H131996   2.258   3.960   5.642
 7819WAT     H231997   2.314   3.847   5.696
 7819WAT    EPW31998   2.271   3.913   5.703
 7820WAT      O31999   2.785   4.450   5.754
 7820WAT     H132000   2.854   4.423   5.800
 7820WAT     H232001   2.753   4.377   5.719
 7820WAT    EPW32002   2.790   4.435   5.756
 7821WAT      O32003   2.712   4.451   4.389
 7821WAT     H132004   2.722   4.367   4.410
 7821WAT     H232005   2.778   4.491   4.430
 7821WAT    EPW32006   2.723   4.445   4.398
 7822WAT      O32007   2.677   2.978   4.045
 7822WAT     H132008   2.756   3.012   4.030
 7822WAT     H232009   2.623   3.047   4.041
 7822WAT    EPW32010   2.681   2.993   4.042
 7823WAT      O32011   3.255   4.573   5.723
 7823WAT     H132012   3.341   4.579   5.735
 7823WAT     H232013   3.241   4.620   5.651
 7823WAT    EPW32014   3.266   4.581   5.714
 7824WAT      O32015   3.730   3.002   5.666
 7824WAT     H132016   3.798   3.030   5.619
 7824WAT     H232017   3.662   3.012   5.612
 7824WAT    EPW32018   3.730   3.008   5.651
 7825WAT      O32019   2.496   3.811   4.209
 7825WAT     H132020   2.500   3.734   4.167
 7825WAT     H232021   2.579   3.825   4.233
 7825WAT    EPW32022   2.509   3.801   4.206
 7826WAT      O32023   2.020   2.987   4.334
 7826WAT     H132024   2.020   2.931   4.268
 7826WAT     H232025   1.993   2.939   4.402
 7826WAT    EPW32026   2.016   2.972   4.334
 7827WAT      O32027   2.502   3.205   4.022
 7827WAT     H132028   2.450   3.200   3.952
 7827WAT     H232029   2.539   3.283   4.014
 7827WAT    EPW32030   2.500   3.215   4.010
 7828WAT      O32031   2.602   4.627   3.943
 7828WAT     H132032   2.648   4.569   3.989
 7828WAT     H232033   2.590   4.693   3.999
 7828WAT    EPW32034   2.607   4.628   3.958
 7829WAT      O32035   2.489   3.949   5.011
 7829WAT     H132036   2.566   3.988   5.003
 7829WAT     H232037   2.474   3.917   4.931
 7829WAT    EPW32038   2.498   3.950   4.998
 7830WAT      O32039   2.579   3.568   4.722
 7830WAT     H132040   2.618   3.599   4.650
 7830WAT     H232041   2.534   3.499   4.693
 7830WAT    EPW32042   2.578   3.563   4.707
 7831WAT      O32043   2.113   3.628   4.372
 7831WAT     H132044   2.147   3.587   4.441
 7831WAT     H232045   2.129   3.574   4.306
 7831WAT    EPW32046   2.121   3.614   4.372
 7832WAT      O32047   2.239   4.050   5.473
 7832WAT     H132048   2.234   4.007   5.398
 7832WAT     H232049   2.207   4.129   5.454
 7832WAT    EPW32050   2.233   4.056   5.459
 7833WAT      O32051   2.111   3.205   4.853
 7833WAT     H132052   2.069   3.229   4.781
 7833WAT     H232053   2.144   3.281   4.883
 7833WAT    EPW32054   2.109   3.220   4.847
 7834WAT      O32055   2.514   4.109   5.463
 7834WAT     H132056   2.431   4.083   5.475
 7834WAT     H232057   2.505   4.192   5.438
 7834WAT    EPW32058   2.500   4.118   5.461
 7835WAT      O32059   2.608   3.425   5.409
 7835WAT     H132060   2.631   3.353   5.452
 7835WAT     H232061   2.645   3.414   5.330
 7835WAT    EPW32062   2.617   3.413   5.404
 7836WAT      O32063   2.834   3.031   5.398
 7836WAT     H132064   2.907   3.003   5.359
 7836WAT     H232065   2.797   2.957   5.426
 7836WAT    EPW32066   2.839   3.016   5.396
 7837WAT      O32067   2.520   3.518   4.997
 7837WAT     H132068   2.554   3.538   4.919
 7837WAT     H232069   2.585   3.476   5.037
 7837WAT    EPW32070   2.534   3.515   4.991
 7838WAT      O32071   2.767   2.945   4.877
 7838WAT     H132072   2.688   2.951   4.914
 7838WAT     H232073   2.779   3.023   4.841
 7838WAT    EPW32074   2.757   2.957   4.877
 7839WAT      O32075   2.051   3.117   5.641
 7839WAT     H132076   2.044   3.192   5.598
 7839WAT     H232077   1.970   3.085   5.640
 7839WAT    EPW32078   2.038   3.123   5.634
 7840WAT      O32079   2.634   4.700   5.067
 7840WAT     H132080   2.720   4.687   5.058
 7840WAT     H232081   2.599   4.643   5.011
 7840WAT    EPW32082   2.642   4.690   5.058
 7841WAT      O32083   2.395   3.232   4.286
 7841WAT     H132084   2.405   3.224   4.200
 7841WAT     H232085   2.309   3.245   4.295
 7841WAT    EPW32086   2.384   3.233   4.275
 7842WAT      O32087   2.179   4.705   5.523
 7842WAT     H132088   2.120   4.641   5.525
 7842WAT     H232089   2.137   4.774   5.556
 7842WAT    EPW32090   2.164   4.706   5.528
 7843WAT      O32091   3.527   4.565   5.784
 7843WAT     H132092   3.591   4.604   5.739
 7843WAT     H232093   3.565   4.494   5.816
 7843WAT    EPW32094   3.542   4.560   5.782
 7844WAT      O32095   2.367   3.560   5.398
 7844WAT     H132096   2.388   3.627   5.346
 7844WAT     H232097   2.441   3.515   5.404
 7844WAT    EPW32098   2.381   3.563   5.391
 7845WAT      O32099   2.413   3.092   5.515
 7845WAT     H132100   2.372   3.015   5.515
 7845WAT     H232101   2.390   3.128   5.438
 7845WAT    EPW32102   2.404   3.086   5.503
 7846WAT      O32103   2.188   3.938   5.227
 7846WAT     H132104   2.255   3.939   5.172
 7846WAT     H232105   2.154   3.858   5.216
 7846WAT    EPW32106   2.193   3.926   5.217
 7847WAT      O32107   2.304   3.472   3.943
 7847WAT     H132108   2.377   3.486   3.989
 7847WAT     H232109   2.320   3.398   3.900
 7847WAT    EPW32110   2.317   3.463   3.944
 7848WAT      O32111   3.227   3.061   5.691
 7848WAT     H132112   3.244   3.134   5.734
 7848WAT     H232113   3.141   3.064   5.679
 7848WAT    EPW32114   3.217   3.072   5.696
 7849WAT      O32115   2.722   4.436   4.110
 7849WAT     H132116   2.714   4.437   4.197
 7849WAT     H232117   2.808   4.428   4.097
 7849WAT    EPW32118   2.733   4.435   4.121
 7850WAT      O32119   2.566   3.825   5.426
 7850WAT     H132120   2.572   3.912   5.428
 7850WAT     H232121   2.552   3.807   5.342
 7850WAT    EPW32122   2.565   3.836   5.414
 7851WAT      O32123   2.410   4.199   4.162
 7851WAT     H132124   2.406   4.206   4.249
 7851WAT     H232125   2.375   4.121   4.146
 7851WAT    EPW32126   2.404   4.189   4.172
 7852WAT      O32127   2.767   4.054   3.939
 7852WAT     H132128   2.783   4.019   4.018
 7852WAT     H232129   2.783   3.988   3.885
 7852WAT    EPW32130   2.772   4.039   3.943
 7853WAT      O32131   2.627   3.117   5.229
 7853WAT     H132132   2.585   3.040   5.233
 7853WAT     H232133   2.700   3.102   5.273
 7853WAT    EPW32134   2.631   3.103   5.236
 7854WAT      O32135   3.165   4.740   5.511
 7854WAT     H132136   3.150   4.717   5.428
 7854WAT     H232137   3.204   4.817   5.504
 7854WAT    EPW32138   3.169   4.748   5.498
 7855WAT      O32139   2.725   3.631   5.560
 7855WAT     H132140   2.697   3.566   5.509
 7855WAT     H232141   2.689   3.702   5.525
 7855WAT    EPW32142   2.715   3.632   5.547
 7856WAT      O32143   2.580   4.706   5.516
 7856WAT     H132144   2.580   4.680   5.599
 7856WAT     H232145   2.654   4.675   5.484
 7856WAT    EPW32146   2.591   4.698   5.524
 7857WAT      O32147   2.339   3.197   5.265
 7857WAT     H132148   2.300   3.123   5.239
 7857WAT     H232149   2.420   3.188   5.235
 7857WAT    EPW32150   2.345   3.184   5.257
 7858WAT      O32151   2.337   4.525   5.677
 7858WAT     H132152   2.412   4.559   5.707
 7858WAT     H232153   2.301   4.591   5.632
 7858WAT    EPW32154   2.343   4.540   5.675
 7859WAT      O32155   2.207   3.479   4.588
 7859WAT     H132156   2.186   3.521   4.662
 7859WAT     H232157   2.280   3.436   4.608
 7859WAT    EPW32158   2.214   3.479   4.602
 7860WAT      O32159   2.167   4.303   5.365
 7860WAT     H132160   2.117   4.356   5.412
 7860WAT     H232161   2.248   4.329   5.384
 7860WAT    EPW32162   2.172   4.315   5.375
 7861WAT      O32163   2.476   4.601   4.333
 7861WAT     H132164   2.505   4.652   4.268
 7861WAT     H232165   2.546   4.553   4.354
 7861WAT    EPW32166   2.491   4.601   4.326
 7862WAT      O32167   2.670   3.195   5.557
 7862WAT     H132168   2.723   3.148   5.506
 7862WAT     H232169   2.594   3.154   5.551
 7862WAT    EPW32170   2.667   3.182   5.548
 7863WAT      O32171   2.495   4.517   4.897
 7863WAT     H132172   2.575   4.505   4.864
 7863WAT     H232173   2.457   4.570   4.839
 7863WAT    EPW32174   2.502   4.523   4.883
 7864WAT      O32175   2.173   4.757   5.247
 7864WAT     H132176   2.184   4.732   5.330
 7864WAT     H232177   2.211   4.693   5.201
 7864WAT    EPW32178   2.180   4.744   5.253
 7865WAT      O32179   2.138   4.097   2.583
 7865WAT     H132180   2.120   4.120   2.665
 7865WAT     H232181   2.107   4.016   2.577
 7865WAT    EPW32182   2.131   4.088   2.594
 7866WAT      O32183   2.066   3.440   2.224
 7866WAT     H132184   2.003   3.489   2.189
 7866WAT     H232185   2.033   3.359   2.223
 7866WAT    EPW32186   2.052   3.435   2.219
 7867WAT      O32187   2.356   4.036   2.136
 7867WAT     H132188   2.334   3.993   2.064
 7867WAT     H232189   2.358   3.975   2.198
 7867WAT    EPW32190   2.353   4.021   2.135
 7868WAT      O32191   2.391   4.195   2.515
 7868WAT     H132192   2.457   4.140   2.530
 7868WAT     H232193   2.321   4.149   2.539
 7868WAT    EPW32194   2.391   4.180   2.521
 7869WAT      O32195   2.757   3.121   2.437
 7869WAT     H132196   2.751   3.196   2.394
 7869WAT     H232197   2.840   3.098   2.426
 7869WAT    EPW32198   2.768   3.129   2.429
 7870WAT      O32199   2.226   4.495   2.122
 7870WAT     H132200   2.272   4.500   2.048
 7870WAT     H232201   2.260   4.425   2.161
 7870WAT    EPW32202   2.238   4.485   2.117
 7871WAT      O32203   2.158   4.370   3.250
 7871WAT     H132204   2.179   4.338   3.328
 7871WAT     H232205   2.102   4.310   3.218
 7871WAT    EPW32206   2.153   4.356   3.257
 7872WAT      O32207   2.378   3.858   2.614
 7872WAT     H132208   2.291   3.857   2.607
 7872WAT     H232209   2.400   3.774   2.613
 7872WAT    EPW32210   2.368   3.846   2.613
 7873WAT      O32211   2.732   3.392   3.154
 7873WAT     H132212   2.808   3.373   3.116
 7873WAT     H232213   2.712   3.320   3.198
 7873WAT    EPW32214   2.740   3.379   3.155
 7874WAT      O32215   2.737   4.277   3.376
 7874WAT     H132216   2.782   4.340   3.336
 7874WAT     H232217   2.793   4.210   3.380
 7874WAT    EPW32218   2.752   4.276   3.371
 7875WAT      O32219   2.434   3.594   2.607
 7875WAT     H132220   2.500   3.554   2.647
 7875WAT     H232221   2.363   3.555   2.640
 7875WAT    EPW32222   2.433   3.582   2.618
 7876WAT      O32223   2.885   4.171   2.477
 7876WAT     H132224   2.962   4.191   2.513
 7876WAT     H232225   2.906   4.156   2.393
 7876WAT    EPW32226   2.900   4.171   2.470
 7877WAT      O32227   2.506   3.157   2.573
 7877WAT     H132228   2.460   3.208   2.519
 7877WAT     H232229   2.586   3.157   2.539
 7877WAT    EPW32230   2.511   3.164   2.560
 7878WAT      O32231   2.820   3.089   2.716
 7878WAT     H132232   2.848   3.170   2.731
 7878WAT     H232233   2.791   3.091   2.634
 7878WAT    EPW32234   2.820   3.101   2.706
 7879WAT      O32235   3.352   3.328   2.146
 7879WAT     H132236   3.424   3.332   2.098
 7879WAT     H232237   3.352   3.247   2.178
 7879WAT    EPW32238   3.362   3.317   2.144
 7880WAT      O32239   2.066   3.571   2.957
 7880WAT     H132240   2.049   3.656   2.969
 7880WAT     H232241   2.005   3.531   3.006
 7880WAT    EPW32242   2.055   3.578   2.966
 7881WAT      O32243   2.084   4.538   2.773
 7881WAT     H132244   2.020   4.581   2.734
 7881WAT     H232245   2.128   4.501   2.707
 7881WAT    EPW32246   2.081   4.538   2.758
 7882WAT      O32247   2.676   4.351   2.491
 7882WAT     H132248   2.642   4.329   2.568
 7882WAT     H232249   2.747   4.301   2.485
 7882WAT    EPW32250   2.682   4.340   2.501
 7883WAT      O32251   3.273   4.544   2.263
 7883WAT     H132252   3.341   4.597   2.274
 7883WAT     H232253   3.303   4.466   2.285
 7883WAT    EPW32254   3.287   4.540   2.268
 7884WAT      O32255   3.105   4.546   2.485
 7884WAT     H132256   3.129   4.619   2.525
 7884WAT     H232257   3.156   4.543   2.415
 7884WAT    EPW32258   3.116   4.556   2.481
 7885WAT      O32259   2.401   3.084   3.032
 7885WAT     H132260   2.344   3.034   2.989
 7885WAT     H232261   2.469   3.032   3.045
 7885WAT    EPW32262   2.402   3.069   3.028
 7886WAT      O32263   2.240   4.441   2.546
 7886WAT     H132264   2.298   4.377   2.556
 7886WAT     H232265   2.281   4.499   2.496
 7886WAT    EPW32266   2.254   4.440   2.540
 7887WAT      O32267   3.288   4.575   3.118
 7887WAT     H132268   3.366   4.591   3.153
 7887WAT     H232269   3.294   4.493   3.091
 7887WAT    EPW32270   3.300   4.566   3.119
 7888WAT      O32271   2.327   3.213   3.800
 7888WAT     H132272   2.246   3.182   3.788
 7888WAT     H232273   2.369   3.190   3.728
 7888WAT    EPW32274   2.321   3.205   3.788
 7889WAT      O32275   2.397   4.297   2.929
 7889WAT     H132276   2.463   4.301   2.872
 7889WAT     H232277   2.431   4.256   2.998
 7889WAT    EPW32278   2.412   4.291   2.931
 7890WAT      O32279   2.746   4.557   2.808
 7890WAT     H132280   2.829   4.567   2.784
 7890WAT     H232281   2.721   4.638   2.830
 7890WAT    EPW32282   2.754   4.570   2.808
 7891WAT      O32283   3.082   3.470   2.554
 7891WAT     H132284   3.066   3.436   2.475
 7891WAT     H232285   3.166   3.451   2.568
 7891WAT    EPW32286   3.092   3.462   2.544
 7892WAT      O32287   3.483   4.738   2.257
 7892WAT     H132288   3.537   4.696   2.203
 7892WAT     H232289   3.538   4.786   2.306
 7892WAT    EPW32290   3.499   4.739   2.256
 7893WAT      O32291   2.016   3.318   3.525
 7893WAT     H132292   2.011   3.395   3.565
 7893WAT     H232293   2.079   3.329   3.466
 7893WAT    EPW32294   2.024   3.331   3.522
 7894WAT      O32295   3.303   4.416   3.649
 7894WAT     H132296   3.307   4.358   3.714
 7894WAT     H232297   3.382   4.452   3.647
 7894WAT    EPW32298   3.315   4.413   3.658
 7895WAT      O32299   2.957   4.397   2.078
 7895WAT     H132300   2.934   4.453   2.141
 7895WAT     H232301   3.036   4.425   2.054
 7895WAT    EPW32302   2.965   4.409   2.084
 7896WAT      O32303   3.413   3.078   2.262
 7896WAT     H132304   3.498   3.095   2.253
 7896WAT     H232305   3.400   3.086   2.347
 7896WAT    EPW32306   3.424   3.082   2.273
 7897WAT      O32307   2.115   3.225   2.485
 7897WAT     H132308   2.092   3.142   2.470
 7897WAT     H232309   2.068   3.247   2.554
 7897WAT    EPW32310   2.105   3.216   2.493
 7898WAT      O32311   2.350   4.579   3.265
 7898WAT     H132312   2.295   4.511   3.268
 7898WAT     H232313   2.373   4.583   3.181
 7898WAT    EPW32314   2.345   4.570   3.253
 7899WAT      O32315   3.031   3.363   2.298
 7899WAT     H132316   3.051   3.280   2.317
 7899WAT     H232317   2.944   3.362   2.290
 7899WAT    EPW32318   3.021   3.351   2.300
 7900WAT      O32319   3.063   4.634   3.290
 7900WAT     H132320   3.130   4.625   3.234
 7900WAT     H232321   3.079   4.573   3.350
 7900WAT    EPW32322   3.075   4.624   3.290
 7901WAT      O32323   3.026   3.085   2.360
 7901WAT     H132324   2.999   3.055   2.283
 7901WAT     H232325   3.083   3.025   2.386
 7901WAT    EPW32326   3.031   3.072   2.352
 7902WAT      O32327   2.883   3.358   2.749
 7902WAT     H132328   2.946   3.396   2.702
 7902WAT     H232329   2.916   3.354   2.829
 7902WAT    EPW32330   2.897   3.363   2.754
 7903WAT      O32331   2.518   4.379   3.525
 7903WAT     H132332   2.589   4.346   3.486
 7903WAT     H232333   2.551   4.436   3.581
 7903WAT    EPW32334   2.533   4.382   3.527
 7904WAT      O32335   2.480   2.895   2.661
 7904WAT     H132336   2.487   2.979   2.637
 7904WAT     H232337   2.462   2.854   2.587
 7904WAT    EPW32338   2.478   2.902   2.647
 7905WAT      O32339   2.693   3.931   3.048
 7905WAT     H132340   2.750   3.924   3.114
 7905WAT     H232341   2.645   3.858   3.056
 7905WAT    EPW32342   2.694   3.919   3.059
 7906WAT      O32343   2.015   4.252   3.798
 7906WAT     H132344   2.045   4.190   3.744
 7906WAT     H232345   2.042   4.225   3.877
 7906WAT    EPW32346   2.023   4.239   3.802
 7907WAT      O32347   2.397   3.268   2.809
 7907WAT     H132348   2.418   3.214   2.743
 7907WAT     H232349   2.400   3.216   2.879
 7907WAT    EPW32350   2.400   3.252   2.809
 7908WAT      O32351   3.714   4.072   2.298
 7908WAT     H132352   3.739   4.065   2.381
 7908WAT     H232353   3.789   4.075   2.254
 7908WAT    EPW32354   3.729   4.071   2.304
 7909WAT      O32355   2.281   4.720   2.846
 7909WAT     H132356   2.209   4.674   2.829
 7909WAT     H232357   2.317   4.730   2.767
 7909WAT    EPW32358   2.276   4.715   2.832
 7910WAT      O32359   2.252   3.403   3.079
 7910WAT     H132360   2.333   3.425   3.056
 7910WAT     H232361   2.203   3.468   3.046
 7910WAT    EPW32362   2.256   3.416   3.070
 7911WAT      O32363   4.012   4.616   3.410
 7911WAT     H132364   3.934   4.614   3.371
 7911WAT     H232365   4.051   4.543   3.384
 7911WAT    EPW32366   4.006   4.605   3.400
 7912WAT      O32367   3.434   3.786   2.137
 7912WAT     H132368   3.493   3.777   2.201
 7912WAT     H232369   3.358   3.773   2.177
 7912WAT    EPW32370   3.432   3.783   2.152
 7913WAT      O32371   2.655   4.018   2.581
 7913WAT     H132372   2.723   4.072   2.566
 7913WAT     H232373   2.672   3.950   2.530
 7913WAT    EPW32374   2.668   4.016   2.571
 7914WAT      O32375   2.128   4.190   2.849
 7914WAT     H132376   2.067   4.199   2.911
 7914WAT     H232377   2.189   4.248   2.871
 7914WAT    EPW32378   2.128   4.200   2.861
 7915WAT      O32379   2.117   3.827   2.506
 7915WAT     H132380   2.100   3.742   2.510
 7915WAT     H232381   2.167   3.835   2.435
 7915WAT    EPW32382   2.122   3.815   2.496
 7916WAT      O32383   2.059   4.291   2.398
 7916WAT     H132384   2.115   4.347   2.434
 7916WAT     H232385   2.057   4.224   2.455
 7916WAT    EPW32386   2.067   4.289   2.412
 7917WAT      O32387   2.547   4.154   3.129
 7917WAT     H132388   2.593   4.200   3.187
 7917WAT     H232389   2.600   4.087   3.110
 7917WAT    EPW32390   2.562   4.151   3.135
 7918WAT      O32391   2.075   4.149   2.154
 7918WAT     H132392   2.151   4.106   2.150
 7918WAT     H232393   2.082   4.196   2.227
 7918WAT    EPW32394   2.087   4.150   2.164
 7919WAT      O32395   2.256   3.963   2.935
 7919WAT     H132396   2.193   3.903   2.939
 7919WAT     H232397   2.214   4.036   2.912
 7919WAT    EPW32398   2.241   3.965   2.932
 7920WAT      O32399   2.755   3.342   2.272
 7920WAT     H132400   2.739   3.325   2.188
 7920WAT     H232401   2.724   3.423   2.282
 7920WAT    EPW32402   2.748   3.352   2.261
 7921WAT      O32403   3.816   4.512   3.227
 7921WAT     H132404   3.799   4.505   3.142
 7921WAT     H232405   3.886   4.460   3.238
 7921WAT    EPW32406   3.824   4.503   3.216
 7922WAT      O32407   2.631   4.305   2.778
 7922WAT     H132408   2.651   4.390   2.778
 7922WAT     H232409   2.690   4.270   2.832
 7922WAT    EPW32410   2.642   4.313   2.786
 7923WAT      O32411   2.425   3.651   3.746
 7923WAT     H132412   2.384   3.598   3.802
 7923WAT     H232413   2.507   3.651   3.774
 7923WAT    EPW32414   2.431   3.643   3.759
 7924WAT      O32415   2.377   3.571   2.281
 7924WAT     H132416   2.368   3.504   2.336
 7924WAT     H232417   2.350   3.538   2.205
 7924WAT    EPW32418   2.371   3.556   2.278
 7925WAT      O32419   2.481   3.754   3.031
 7925WAT     H132420   2.476   3.764   3.117
 7925WAT     H232421   2.491   3.667   3.021
 7925WAT    EPW32422   2.482   3.742   3.042
 7926WAT      O32423   2.530   3.776   3.309
 7926WAT     H132424   2.612   3.804   3.317
 7926WAT     H232425   2.483   3.849   3.314
 7926WAT    EPW32426   2.535   3.791   3.311
 7927WAT      O32427   2.812   4.515   3.235
 7927WAT     H132428   2.818   4.469   3.161
 7927WAT     H232429   2.891   4.550   3.244
 7927WAT    EPW32430   2.825   4.513   3.225
 7928WAT      O32431   3.420   3.347   2.427
 7928WAT     H132432   3.504   3.323   2.436
 7928WAT     H232433   3.411   3.354   2.340
 7928WAT    EPW32434   3.431   3.344   2.415
 7929WAT      O32435   2.281   3.882   3.829
 7929WAT     H132436   2.271   3.941   3.766
 7929WAT     H232437   2.337   3.825   3.794
 7929WAT    EPW32438   2.288   3.882   3.814
 7930WAT      O32439   2.832   4.331   3.834
 7930WAT     H132440   2.890   4.356   3.895
 7930WAT     H232441   2.842   4.244   3.831
 7930WAT    EPW32442   2.842   4.322   3.843
 7931WAT      O32443   3.177   3.724   2.229
 7931WAT     H132444   3.130   3.767   2.169
 7931WAT     H232445   3.131   3.735   2.302
 7931WAT    EPW32446   3.163   3.732   2.231
 7932WAT      O32447   2.649   4.610   2.389
 7932WAT     H132448   2.651   4.543   2.446
 7932WAT     H232449   2.728   4.606   2.351
 7932WAT    EPW32450   2.661   4.599   2.392
 7933WAT      O32451   2.608   2.986   2.228
 7933WAT     H132452   2.644   3.015   2.302
 7933WAT     H232453   2.558   3.052   2.201
 7933WAT    EPW32454   2.606   3.000   2.235
 7934WAT      O32455   2.903   4.582   2.279
 7934WAT     H132456   2.960   4.582   2.345
 7934WAT     H232457   2.915   4.660   2.241
 7934WAT    EPW32458   2.913   4.594   2.283
 7935WAT      O32459   2.342   3.843   2.334
 7935WAT     H132460   2.351   3.758   2.317
 7935WAT     H232461   2.378   3.852   2.413
 7935WAT    EPW32462   2.348   3.832   2.343
 7936WAT      O32463   2.031   2.958   2.435
 7936WAT     H132464   2.032   2.903   2.367
 7936WAT     H232465   2.000   2.909   2.501
 7936WAT    EPW32466   2.026   2.943   2.435
 7937WAT      O32467   3.033   3.738   2.475
 7937WAT     H132468   3.073   3.790   2.532
 7937WAT     H232469   3.046   3.658   2.507
 7937WAT    EPW32470   3.041   3.734   2.488
 7938WAT      O32471   2.455   3.202   2.143
 7938WAT     H132472   2.392   3.195   2.084
 7938WAT     H232473   2.515   3.250   2.103
 7938WAT    EPW32474   2.455   3.208   2.129
 7939WAT      O32475   2.582   4.603   2.028
 7939WAT     H132476   2.605   4.535   2.077
 7939WAT     H232477   2.594   4.671   2.081
 7939WAT    EPW32478   2.587   4.603   2.043
 7940WAT      O32479   2.338   3.975   3.210
 7940WAT     H132480   2.393   4.042   3.202
 7940WAT     H232481   2.307   3.964   3.130
 7940WAT    EPW32482   2.342   3.983   3.197
 7941WAT      O32483   2.613   3.447   2.760
 7941WAT     H132484   2.696   3.420   2.756
 7941WAT     H232485   2.568   3.373   2.764
 7941WAT    EPW32486   2.619   3.432   2.760
 7942WAT      O32487   3.909   4.562   2.267
 7942WAT     H132488   3.976   4.529   2.222
 7942WAT     H232489   3.906   4.512   2.339
 7942WAT    EPW32490   3.918   4.549   2.271
 7943WAT      O32491   2.079   3.550   2.492
 7943WAT     H132492   2.115   3.510   2.561
 7943WAT     H232493   2.097   3.497   2.425
 7943WAT    EPW32494   2.087   3.537   2.492
 7944WAT      O32495   2.620   3.745   2.038
 7944WAT     H132496   2.606   3.699   2.111
 7944WAT     H232497   2.557   3.717   1.984
 7944WAT    EPW32498   2.609   3.734   2.040
 7945WAT      O32499   2.174   4.062   3.634
 7945WAT     H132500   2.167   4.007   3.567
 7945WAT     H232501   2.208   4.134   3.599
 7945WAT    EPW32502   2.178   4.064   3.619
 7946WAT      O32503   2.650   3.598   2.276
 7946WAT     H132504   2.680   3.662   2.328
 7946WAT     H232505   2.566   3.592   2.297
 7946WAT    EPW32506   2.642   3.607   2.287
 7947WAT      O32507   2.083   3.200   2.951
 7947WAT     H132508   2.055   3.229   2.874
 7947WAT     H232509   2.143   3.259   2.975
 7947WAT    EPW32510   2.088   3.213   2.943
 7948WAT      O32511   3.552   4.273   2.196
 7948WAT     H132512   3.601   4.208   2.227
 7948WAT     H232513   3.484   4.275   2.251
 7948WAT    EPW32514   3.549   4.264   2.209
 7949WAT      O32515   3.245   4.107   2.120
 7949WAT     H132516   3.330   4.086   2.113
 7949WAT     H232517   3.214   4.091   2.040
 7949WAT    EPW32518   3.253   4.102   2.107
 7950WAT      O32519   2.511   4.163   3.710
 7950WAT     H132520   2.556   4.099   3.672
 7950WAT     H232521   2.505   4.224   3.647
 7950WAT    EPW32522   2.517   4.163   3.695
 7951WAT      O32523   3.019   4.515   2.761
 7951WAT     H132524   3.033   4.435   2.792
 7951WAT     H232525   3.028   4.506   2.675
 7951WAT    EPW32526   3.022   4.502   2.753
 7952WAT      O32527   2.988   3.034   3.448
 7952WAT     H132528   3.066   3.065   3.473
 7952WAT     H232529   3.007   2.963   3.402
 7952WAT    EPW32530   3.002   3.028   3.445
 7953WAT      O32531   2.834   4.364   2.998
 7953WAT     H132532   2.818   4.427   2.940
 7953WAT     H232533   2.908   4.329   2.970
 7953WAT    EPW32534   2.842   4.368   2.985
 7954WAT      O32535   3.573   4.494   3.686
 7954WAT     H132536   3.574   4.465   3.768
 7954WAT     H232537   3.636   4.448   3.647
 7954WAT    EPW32538   3.582   4.483   3.692
 7955WAT      O32539   2.837   3.898   2.143
 7955WAT     H132540   2.762   3.884   2.100
 7955WAT     H232541   2.842   3.985   2.147
 7955WAT    EPW32542   2.826   3.908   2.137
 7956WAT      O32543   2.512   3.483   3.017
 7956WAT     H132544   2.543   3.474   2.936
 7956WAT     H232545   2.580   3.463   3.068
 7956WAT    EPW32546   2.526   3.479   3.013
 7957WAT      O32547   2.892   4.521   3.633
 7957WAT     H132548   2.954   4.488   3.582
 7957WAT     H232549   2.881   4.460   3.694
 7957WAT    EPW32550   2.899   4.507   3.635
 7958WAT      O32551   2.800   3.034   3.004
 7958WAT     H132552   2.741   2.974   3.028
 7958WAT     H232553   2.795   3.035   2.917
 7958WAT    EPW32554   2.791   3.025   2.995
 7959WAT      O32555   2.064   3.102   3.698
 7959WAT     H132556   2.053   3.168   3.642
 7959WAT     H232557   1.983   3.086   3.726
 7959WAT    EPW32558   2.050   3.110   3.694
 7960WAT      O32559   2.640   4.765   3.014
 7960WAT     H132560   2.620   4.807   3.088
 7960WAT     H232561   2.585   4.697   3.013
 7960WAT    EPW32562   2.629   4.761   3.025
 7961WAT      O32563   2.364   3.310   2.393
 7961WAT     H132564   2.377   3.274   2.314
 7961WAT     H232565   2.283   3.285   2.413
 7961WAT    EPW32566   2.354   3.301   2.384
 7962WAT      O32567   3.091   4.422   3.467
 7962WAT     H132568   3.162   4.423   3.519
 7962WAT     H232569   3.093   4.343   3.430
 7962WAT    EPW32570   3.102   4.411   3.470
 7963WAT      O32571   2.214   4.716   3.646
 7963WAT     H132572   2.161   4.647   3.649
 7963WAT     H232573   2.164   4.782   3.671
 7963WAT    EPW32574   2.199   4.715   3.650
 7964WAT      O32575   3.574   4.355   3.932
 7964WAT     H132576   3.623   4.286   3.952
 7964WAT     H232577   3.562   4.394   4.010
 7964WAT    EPW32578   3.579   4.350   3.947
 7965WAT      O32579   2.399   3.572   3.466
 7965WAT     H132580   2.447   3.627   3.420
 7965WAT     H232581   2.412   3.597   3.549
 7965WAT    EPW32582   2.408   3.583   3.471
 7966WAT      O32583   2.235   3.373   3.355
 7966WAT     H132584   2.233   3.394   3.270
 7966WAT     H232585   2.284   3.436   3.391
 7966WAT    EPW32586   2.242   3.385   3.348
 7967WAT      O32587   2.468   3.106   3.567
 7967WAT     H132588   2.466   3.022   3.544
 7967WAT     H232589   2.553   3.125   3.569
 7967WAT    EPW32590   2.480   3.096   3.564
 7968WAT      O32591   3.142   4.261   2.553
 7968WAT     H132592   3.138   4.348   2.557
 7968WAT     H232593   3.175   4.238   2.630
 7968WAT    EPW32594   3.146   4.270   2.565
 7969WAT      O32595   2.151   3.888   3.410
 7969WAT     H132596   2.204   3.915   3.346
 7969WAT     H232597   2.128   3.808   3.385
 7969WAT    EPW32598   2.156   3.880   3.397
 7970WAT      O32599   2.271   3.464   2.038
 7970WAT     H132600   2.200   3.460   2.089
 7970WAT     H232601   2.272   3.387   1.998
 7970WAT    EPW32602   2.261   3.452   2.040
 7971WAT      O32603   2.613   4.370   2.194
 7971WAT     H132604   2.649   4.378   2.273
 7971WAT     H232605   2.530   4.349   2.212
 7971WAT    EPW32606   2.606   4.368   2.208
 7972WAT      O32607   2.358   4.286   2.252
 7972WAT     H132608   2.366   4.265   2.336
 7972WAT     H232609   2.357   4.209   2.211
 7972WAT    EPW32610   2.359   4.272   2.258
 7973WAT      O32611   2.637   4.117   2.069
 7973WAT     H132612   2.558   4.086   2.087
 7973WAT     H232613   2.639   4.195   2.108
 7973WAT    EPW32614   2.626   4.124   2.077
 7974WAT      O32615   2.659   3.154   3.281
 7974WAT     H132616   2.697   3.156   3.359
 7974WAT     H232617   2.712   3.104   3.233
 7974WAT    EPW32618   2.672   3.147   3.285
 7975WAT      O32619   2.951   3.273   3.011
 7975WAT     H132620   2.916   3.193   3.016
 7975WAT     H232621   3.035   3.260   3.034
 7975WAT    EPW32622   2.958   3.259   3.015
 7976WAT      O32623   2.881   2.981   2.146
 7976WAT     H132624   2.894   2.998   2.061
 7976WAT     H232625   2.794   2.991   2.155
 7976WAT    EPW32626   2.870   2.985   2.135
 7977WAT      O32627   2.631   4.602   3.653
 7977WAT     H132628   2.616   4.622   3.737
 7977WAT     H232629   2.715   4.580   3.652
 7977WAT    EPW32630   2.641   4.602   3.665
 7978WAT      O32631   2.386   4.491   3.835
 7978WAT     H132632   2.444   4.543   3.873
 7978WAT     H232633   2.339   4.545   3.785
 7978WAT    EPW32634   2.388   4.506   3.833
 7979WAT      O32635   2.213   3.472   2.729
 7979WAT     H132636   2.167   3.500   2.797
 7979WAT     H232637   2.258   3.404   2.761
 7979WAT    EPW32638   2.213   3.466   2.744
 7980WAT      O32639   2.242   4.308   3.509
 7980WAT     H132640   2.194   4.368   3.549
 7980WAT     H232641   2.323   4.338   3.517
 7980WAT    EPW32642   2.247   4.321   3.516
 7981WAT      O32643   2.370   4.610   2.361
 7981WAT     H132644   2.342   4.595   2.279
 7981WAT     H232645   2.456   4.604   2.354
 7981WAT    EPW32646   2.378   4.607   2.348
 7982WAT      O32647   2.768   3.818   2.403
 7982WAT     H132648   2.788   3.850   2.324
 7982WAT     H232649   2.845   3.792   2.435
 7982WAT    EPW32650   2.782   3.819   2.396
 7983WAT      O32651   3.689   4.626   2.104
 7983WAT     H132652   3.754   4.604   2.157
 7983WAT     H232653   3.669   4.551   2.064
 7983WAT    EPW32654   3.695   4.612   2.106
 7984WAT      O32655   3.309   4.279   2.332
 7984WAT     H132656   3.263   4.259   2.403
 7984WAT     H232657   3.277   4.226   2.271
 7984WAT    EPW32658   3.297   4.268   2.334
 7985WAT      O32659   2.753   3.158   3.545
 7985WAT     H132660   2.828   3.117   3.527
 7985WAT     H232661   2.780   3.233   3.582
 7985WAT    EPW32662   2.768   3.163   3.548
 7986WAT      O32663   2.440   4.567   3.005
 7986WAT     H132664   2.425   4.484   2.983
 7986WAT     H232665   2.386   4.613   2.953
 7986WAT    EPW32666   2.430   4.562   2.994
 7987WAT      O32667   2.966   4.148   2.206
 7987WAT     H132668   3.050   4.127   2.192
 7987WAT     H232669   2.958   4.224   2.164
 7987WAT    EPW32670   2.977   4.156   2.198
 7988WAT      O32671   2.164   4.767   3.371
 7988WAT     H132672   2.179   4.743   3.453
 7988WAT     H232673   2.210   4.709   3.324
 7988WAT    EPW32674   2.173   4.755   3.376
 7989WAT      O32675   3.181   2.999   0.692
 7989WAT     H132676   3.200   3.033   0.614
 7989WAT     H232677   3.256   2.962   0.717
 7989WAT    EPW32678   3.195   2.998   0.684
 7990WAT      O32679   3.107   3.657   1.163
 7990WAT     H132680   3.073   3.734   1.188
 7990WAT     H232681   3.163   3.638   1.227
 7990WAT    EPW32682   3.110   3.666   1.176
 7991WAT      O32683   2.082   4.104   0.678
 7991WAT     H132684   2.072   4.106   0.764
 7991WAT     H232685   2.077   4.019   0.659
 7991WAT    EPW32686   2.080   4.092   0.688
 7992WAT      O32687   3.707   4.466   0.462
 7992WAT     H132688   3.770   4.408   0.480
 7992WAT     H232689   3.657   4.424   0.403
 7992WAT    EPW32690   3.709   4.451   0.456
 7993WAT      O32691   2.090   3.462   0.323
 7993WAT     H132692   2.035   3.519   0.287
 7993WAT     H232693   2.049   3.386   0.316
 7993WAT    EPW32694   2.076   3.459   0.316
 7994WAT      O32695   2.342   4.006   0.257
 7994WAT     H132696   2.326   3.967   0.181
 7994WAT     H232697   2.350   3.940   0.313
 7994WAT    EPW32698   2.341   3.991   0.254
 7995WAT      O32699   3.358   3.823   0.802
 7995WAT     H132700   3.371   3.806   0.717
 7995WAT     H232701   3.299   3.764   0.826
 7995WAT    EPW32702   3.351   3.811   0.793
 7996WAT      O32703   2.331   4.213   0.628
 7996WAT     H132704   2.385   4.179   0.688
 7996WAT     H232705   2.255   4.173   0.643
 7996WAT    EPW32706   2.328   4.202   0.639
 7997WAT      O32707   2.816   3.116   0.623
 7997WAT     H132708   2.814   3.199   0.594
 7997WAT     H232709   2.857   3.073   0.559
 7997WAT    EPW32710   2.822   3.122   0.609
 7998WAT      O32711   2.243   4.514   0.277
 7998WAT     H132712   2.272   4.520   0.195
 7998WAT     H232713   2.268   4.434   0.302
 7998WAT    EPW32714   2.251   4.503   0.269
 7999WAT      O32715   2.093   4.323   1.341
 7999WAT     H132716   2.127   4.300   1.419
 7999WAT     H232717   2.022   4.272   1.335
 7999WAT    EPW32718   2.087   4.312   1.352
 8000WAT      O32719   2.740   4.143   1.810
 8000WAT     H132720   2.713   4.130   1.892
 8000WAT     H232721   2.669   4.124   1.762
 8000WAT    EPW32722   2.725   4.138   1.815
 8001WAT      O32723   2.283   3.856   0.814
 8001WAT     H132724   2.234   3.854   0.741
 8001WAT     H232725   2.337   3.789   0.804
 8001WAT    EPW32726   2.284   3.846   0.802
 8002WAT      O32727   2.721   3.426   1.353
 8002WAT     H132728   2.792   3.429   1.302
 8002WAT     H232729   2.698   3.342   1.352
 8002WAT    EPW32730   2.728   3.414   1.345
 8003WAT      O32731   2.729   4.439   1.531
 8003WAT     H132732   2.741   4.506   1.476
 8003WAT     H232733   2.810   4.410   1.545
 8003WAT    EPW32734   2.743   4.445   1.525
 8004WAT      O32735   2.443   3.635   0.796
 8004WAT     H132736   2.508   3.582   0.820
 8004WAT     H232737   2.373   3.582   0.798
 8004WAT    EPW32738   2.442   3.619   0.800
 8005WAT      O32739   2.854   4.273   0.955
 8005WAT     H132740   2.876   4.191   0.974
 8005WAT     H232741   2.930   4.314   0.945
 8005WAT    EPW32742   2.868   4.267   0.956
 8006WAT      O32743   2.890   4.198   0.593
 8006WAT     H132744   2.927   4.137   0.643
 8006WAT     H232745   2.927   4.186   0.514
 8006WAT    EPW32746   2.901   4.187   0.588
 8007WAT      O32747   3.041   3.617   1.783
 8007WAT     H132748   2.968   3.634   1.739
 8007WAT     H232749   3.046   3.682   1.841
 8007WAT    EPW32750   3.031   3.629   1.785
 8008WAT      O32751   2.537   3.133   0.692
 8008WAT     H132752   2.497   3.178   0.628
 8008WAT     H232753   2.619   3.127   0.663
 8008WAT    EPW32754   2.544   3.139   0.678
 8009WAT      O32755   2.882   3.087   0.890
 8009WAT     H132756   2.878   3.171   0.913
 8009WAT     H232757   2.861   3.088   0.805
 8009WAT    EPW32758   2.878   3.100   0.881
 8010WAT      O32759   2.099   3.586   1.062
 8010WAT     H132760   2.094   3.673   1.070
 8010WAT     H232761   2.031   3.558   1.110
 8010WAT    EPW32762   2.088   3.595   1.070
 8011WAT      O32763   2.081   4.555   0.880
 8011WAT     H132764   2.018   4.602   0.842
 8011WAT     H232765   2.123   4.519   0.812
 8011WAT    EPW32766   2.078   4.557   0.864
 8012WAT      O32767   2.703   4.407   0.590
 8012WAT     H132768   2.657   4.391   0.662
 8012WAT     H232769   2.768   4.349   0.593
 8012WAT    EPW32770   2.706   4.396   0.601
 8013WAT      O32771   3.278   4.555   0.405
 8013WAT     H132772   3.342   4.612   0.389
 8013WAT     H232773   3.320   4.484   0.432
 8013WAT    EPW32774   3.293   4.553   0.407
 8014WAT      O32775   3.076   4.628   0.578
 8014WAT     H132776   3.106   4.699   0.619
 8014WAT     H232777   3.139   4.611   0.520
 8014WAT    EPW32778   3.090   4.636   0.576
 8015WAT      O32779   2.367   3.088   1.101
 8015WAT     H132780   2.331   3.019   1.063
 8015WAT     H232781   2.429   3.054   1.151
 8015WAT    EPW32782   2.371   3.073   1.103
 8016WAT      O32783   2.678   3.314   2.003
 8016WAT     H132784   2.687   3.274   1.926
 8016WAT     H232785   2.719   3.391   1.991
 8016WAT    EPW32786   2.686   3.320   1.990
 8017WAT      O32787   2.221   4.466   0.655
 8017WAT     H132788   2.270   4.394   0.662
 8017WAT     H232789   2.272   4.521   0.609
 8017WAT    EPW32790   2.236   4.464   0.649
 8018WAT      O32791   3.810   3.258   0.834
 8018WAT     H132792   3.763   3.332   0.835
 8018WAT     H232793   3.753   3.197   0.809
 8018WAT    EPW32794   3.795   3.260   0.830
 8019WAT      O32795   3.330   4.578   1.392
 8019WAT     H132796   3.394   4.636   1.382
 8019WAT     H232797   3.311   4.554   1.310
 8019WAT    EPW32798   3.337   4.583   1.379
 8020WAT      O32799   2.268   3.200   1.933
 8020WAT     H132800   2.189   3.173   1.910
 8020WAT     H232801   2.319   3.171   1.868
 8020WAT    EPW32802   2.264   3.192   1.920
 8021WAT      O32803   2.356   4.287   1.008
 8021WAT     H132804   2.412   4.272   0.943
 8021WAT     H232805   2.382   4.232   1.071
 8021WAT    EPW32806   2.368   4.277   1.008
 8022WAT      O32807   2.663   4.603   0.928
 8022WAT     H132808   2.742   4.617   0.894
 8022WAT     H232809   2.609   4.647   0.876
 8022WAT    EPW32810   2.667   4.611   0.915
 8023WAT      O32811   2.907   3.033   1.876
 8023WAT     H132812   2.922   2.961   1.830
 8023WAT     H232813   2.838   3.069   1.836
 8023WAT    EPW32814   2.899   3.027   1.864
 8024WAT      O32815   2.977   3.559   0.723
 8024WAT     H132816   3.011   3.513   0.658
 8024WAT     H232817   3.046   3.579   0.772
 8024WAT    EPW32818   2.992   3.555   0.720
 8025WAT      O32819   3.087   3.571   0.265
 8025WAT     H132820   3.113   3.648   0.295
 8025WAT     H232821   3.013   3.588   0.222
 8025WAT    EPW32822   3.080   3.585   0.263
 8026WAT      O32823   3.471   4.752   0.347
 8026WAT     H132824   3.515   4.711   0.283
 8026WAT     H232825   3.531   4.805   0.381
 8026WAT    EPW32826   3.487   4.754   0.342
 8027WAT      O32827   2.520   4.681   1.501
 8027WAT     H132828   2.555   4.664   1.579
 8027WAT     H232829   2.457   4.622   1.493
 8027WAT    EPW32830   2.516   4.670   1.511
 8028WAT      O32831   3.746   3.193   1.288
 8028WAT     H132832   3.807   3.178   1.227
 8028WAT     H232833   3.783   3.166   1.362
 8028WAT    EPW32834   3.760   3.187   1.290
 8029WAT      O32835   1.998   3.322   1.658
 8029WAT     H132836   1.993   3.395   1.707
 8029WAT     H232837   2.059   3.341   1.599
 8029WAT    EPW32838   2.006   3.336   1.657
 8030WAT      O32839   3.214   4.367   1.729
 8030WAT     H132840   3.188   4.391   1.808
 8030WAT     H232841   3.258   4.293   1.743
 8030WAT    EPW32842   3.217   4.360   1.743
 8031WAT      O32843   3.070   4.443   0.246
 8031WAT     H132844   3.008   4.504   0.256
 8031WAT     H232845   3.142   4.482   0.277
 8031WAT    EPW32846   3.072   4.458   0.252
 8032WAT      O32847   3.250   3.062   0.428
 8032WAT     H132848   3.317   3.018   0.395
 8032WAT     H232849   3.283   3.141   0.443
 8032WAT    EPW32850   3.265   3.067   0.425
 8033WAT      O32851   2.109   3.233   0.580
 8033WAT     H132852   2.084   3.152   0.561
 8033WAT     H232853   2.061   3.253   0.651
 8033WAT    EPW32854   2.098   3.224   0.588
 8034WAT      O32855   2.285   4.539   1.375
 8034WAT     H132856   2.224   4.477   1.368
 8034WAT     H232857   2.327   4.536   1.299
 8034WAT    EPW32858   2.282   4.529   1.363
 8035WAT      O32859   3.058   3.420   0.494
 8035WAT     H132860   2.981   3.381   0.478
 8035WAT     H232861   3.072   3.466   0.421
 8035WAT    EPW32862   3.049   3.421   0.481
 8036WAT      O32863   3.085   4.676   1.482
 8036WAT     H132864   3.160   4.644   1.452
 8036WAT     H232865   3.026   4.649   1.423
 8036WAT    EPW32866   3.087   4.667   1.469
 8037WAT      O32867   2.975   3.069   0.384
 8037WAT     H132868   2.953   3.147   0.350
 8037WAT     H232869   3.062   3.072   0.389
 8037WAT    EPW32870   2.984   3.081   0.380
 8038WAT      O32871   3.775   4.692   0.734
 8038WAT     H132872   3.733   4.767   0.749
 8038WAT     H232873   3.710   4.634   0.724
 8038WAT    EPW32874   3.759   4.694   0.735
 8039WAT      O32875   2.863   3.371   0.907
 8039WAT     H132876   2.896   3.430   0.852
 8039WAT     H232877   2.887   3.400   0.985
 8039WAT    EPW32878   2.871   3.384   0.910
 8040WAT      O32879   3.462   4.258   0.719
 8040WAT     H132880   3.530   4.208   0.742
 8040WAT     H232881   3.393   4.217   0.751
 8040WAT    EPW32882   3.462   4.245   0.727
 8041WAT      O32883   2.472   4.378   1.649
 8041WAT     H132884   2.548   4.411   1.622
 8041WAT     H232885   2.456   4.420   1.723
 8041WAT    EPW32886   2.481   4.389   1.656
 8042WAT      O32887   2.468   2.873   0.750
 8042WAT     H132888   2.488   2.956   0.733
 8042WAT     H232889   2.437   2.844   0.674
 8042WAT    EPW32890   2.466   2.881   0.736
 8043WAT      O32891   2.666   3.966   1.094
 8043WAT     H132892   2.687   3.950   1.177
 8043WAT     H232893   2.613   3.900   1.074
 8043WAT    EPW32894   2.662   3.954   1.103
 8044WAT      O32895   3.340   3.250   1.504
 8044WAT     H132896   3.330   3.335   1.488
 8044WAT     H232897   3.259   3.218   1.500
 8044WAT    EPW32898   3.326   3.258   1.501
 8045WAT      O32899   2.768   3.978   1.353
 8045WAT     H132900   2.742   4.061   1.360
 8045WAT     H232901   2.732   3.939   1.422
 8045WAT    EPW32902   2.759   3.985   1.364
 8046WAT      O32903   3.374   4.015   1.333
 8046WAT     H132904   3.311   3.986   1.386
 8046WAT     H232905   3.376   4.101   1.348
 8046WAT    EPW32906   3.365   4.023   1.343
 8047WAT      O32907   3.421   2.889   0.767
 8047WAT     H132908   3.423   2.865   0.851
 8047WAT     H232909   3.452   2.820   0.725
 8047WAT    EPW32910   3.426   2.875   0.773
 8048WAT      O32911   2.023   4.365   1.968
 8048WAT     H132912   2.081   4.412   2.013
 8048WAT     H232913   2.029   4.286   2.004
 8048WAT    EPW32914   2.032   4.360   1.980
 8049WAT      O32915   3.794   3.228   1.814
 8049WAT     H132916   3.873   3.248   1.845
 8049WAT     H232917   3.739   3.265   1.872
 8049WAT    EPW32918   3.797   3.237   1.828
 8050WAT      O32919   2.399   3.268   0.896
 8050WAT     H132920   2.437   3.219   0.834
 8050WAT     H232921   2.393   3.213   0.964
 8050WAT    EPW32922   2.404   3.252   0.897
 8051WAT      O32923   3.674   4.098   0.338
 8051WAT     H132924   3.668   4.048   0.409
 8051WAT     H232925   3.758   4.094   0.317
 8051WAT    EPW32926   3.685   4.090   0.345
 8052WAT      O32927   2.457   4.073   0.830
 8052WAT     H132928   2.529   4.050   0.786
 8052WAT     H232929   2.408   4.001   0.830
 8052WAT    EPW32930   2.461   4.059   0.823
 8053WAT      O32931   2.292   4.712   0.963
 8053WAT     H132932   2.219   4.671   0.938
 8053WAT     H232933   2.341   4.713   0.891
 8053WAT    EPW32934   2.288   4.706   0.949
 8054WAT      O32935   2.269   3.429   1.218
 8054WAT     H132936   2.351   3.455   1.202
 8054WAT     H232937   2.221   3.480   1.166
 8054WAT    EPW32938   2.274   3.441   1.208
 8055WAT      O32939   3.903   4.484   1.718
 8055WAT     H132940   3.830   4.478   1.670
 8055WAT     H232941   3.888   4.428   1.784
 8055WAT    EPW32942   3.890   4.475   1.721
 8056WAT      O32943   3.518   3.693   0.266
 8056WAT     H132944   3.444   3.671   0.225
 8056WAT     H232945   3.491   3.733   0.338
 8056WAT    EPW32946   3.503   3.695   0.270
 8057WAT      O32947   2.668   4.018   0.657
 8057WAT     H132948   2.723   4.078   0.625
 8057WAT     H232949   2.672   3.953   0.600
 8057WAT    EPW32950   2.676   4.017   0.644
 8058WAT      O32951   3.812   3.244   0.245
 8058WAT     H132952   3.836   3.172   0.203
 8058WAT     H232953   3.766   3.288   0.184
 8058WAT    EPW32954   3.809   3.240   0.230
 8059WAT      O32955   2.107   4.163   0.959
 8059WAT     H132956   2.052   4.223   0.993
 8059WAT     H232957   2.185   4.200   0.967
 8059WAT    EPW32958   2.110   4.178   0.966
 8060WAT      O32959   2.825   3.550   1.987
 8060WAT     H132960   2.772   3.613   2.018
 8060WAT     H232961   2.840   3.575   1.905
 8060WAT    EPW32962   2.819   3.563   1.980
 8061WAT      O32963   3.934   3.653   1.412
 8061WAT     H132964   3.974   3.585   1.450
 8061WAT     H232965   3.849   3.634   1.422
 8061WAT    EPW32966   3.927   3.640   1.419
 8062WAT      O32967   2.140   3.837   0.583
 8062WAT     H132968   2.116   3.754   0.587
 8062WAT     H232969   2.212   3.835   0.533
 8062WAT    EPW32970   2.147   3.825   0.576
 8063WAT      O32971   3.676   3.088   0.451
 8063WAT     H132972   3.752   3.052   0.475
 8063WAT     H232973   3.700   3.152   0.398
 8063WAT    EPW32974   3.691   3.092   0.447
 8064WAT      O32975   3.088   4.424   0.925
 8064WAT     H132976   3.043   4.497   0.909
 8064WAT     H232977   3.113   4.397   0.846
 8064WAT    EPW32978   3.085   4.430   0.911
 8065WAT      O32979   2.046   4.312   0.502
 8065WAT     H132980   2.099   4.368   0.543
 8065WAT     H232981   2.039   4.245   0.558
 8065WAT    EPW32982   2.053   4.310   0.516
 8066WAT      O32983   2.458   4.117   1.200
 8066WAT     H132984   2.508   4.161   1.257
 8066WAT     H232985   2.516   4.075   1.150
 8066WAT    EPW32986   2.474   4.117   1.201
 8067WAT      O32987   3.349   3.397   0.912
 8067WAT     H132988   3.380   3.408   0.993
 8067WAT     H232989   3.306   3.321   0.917
 8067WAT    EPW32990   3.347   3.388   0.925
 8068WAT      O32991   2.068   4.114   0.298
 8068WAT     H132992   2.149   4.082   0.293
 8068WAT     H232993   2.076   4.182   0.352
 8068WAT    EPW32994   2.081   4.119   0.305
 8069WAT      O32995   2.124   3.895   1.037
 8069WAT     H132996   2.177   3.873   0.972
 8069WAT     H232997   2.116   3.982   1.028
 8069WAT    EPW32998   2.131   3.905   1.026
 8070WAT      O32999   2.801   3.320   0.425
 8070WAT     H133000   2.748   3.255   0.400
 8070WAT     H233001   2.755   3.392   0.408
 8070WAT    EPW33002   2.786   3.321   0.419
 8071WAT      O33003   3.666   4.512   1.551
 8071WAT     H133004   3.667   4.598   1.541
 8071WAT     H233005   3.665   4.481   1.470
 8071WAT    EPW33006   3.666   4.520   1.538
 8072WAT      O33007   2.597   4.351   0.839
 8072WAT     H133008   2.609   4.431   0.872
 8072WAT     H233009   2.665   4.305   0.870
 8072WAT    EPW33010   2.609   4.356   0.848
 8073WAT      O33011   2.400   3.654   1.874
 8073WAT     H133012   2.356   3.594   1.920
 8073WAT     H233013   2.397   3.624   1.792
 8073WAT    EPW33014   2.393   3.641   1.869
 8074WAT      O33015   2.361   3.525   0.385
 8074WAT     H133016   2.370   3.461   0.445
 8074WAT     H233017   2.280   3.512   0.354
 8074WAT    EPW33018   2.350   3.513   0.389
 8075WAT      O33019   2.488   3.764   1.045
 8075WAT     H133020   2.475   3.732   0.965
 8075WAT     H233021   2.501   3.694   1.094
 8075WAT    EPW33022   2.488   3.749   1.040
 8076WAT      O33023   2.447   3.726   1.395
 8076WAT     H133024   2.472   3.673   1.330
 8076WAT     H233025   2.393   3.782   1.355
 8076WAT    EPW33026   2.443   3.727   1.379
 8077WAT      O33027   3.482   3.501   1.131
 8077WAT     H133028   3.442   3.526   1.205
 8077WAT     H233029   3.498   3.576   1.090
 8077WAT    EPW33030   3.478   3.516   1.136
 8078WAT      O33031   2.857   4.620   1.328
 8078WAT     H133032   2.834   4.553   1.277
 8078WAT     H233033   2.847   4.689   1.276
 8078WAT    EPW33034   2.852   4.620   1.313
 8079WAT      O33035   3.097   3.076   1.524
 8079WAT     H133036   3.114   2.992   1.508
 8079WAT     H233037   3.118   3.085   1.608
 8079WAT    EPW33038   3.102   3.065   1.534
 8080WAT      O33039   3.322   3.314   0.504
 8080WAT     H133040   3.379   3.377   0.521
 8080WAT     H233041   3.245   3.354   0.510
 8080WAT    EPW33042   3.319   3.329   0.508
 8081WAT      O33043   2.267   3.893   1.920
 8081WAT     H133044   2.262   3.938   1.846
 8081WAT     H233045   2.315   3.823   1.899
 8081WAT    EPW33046   2.273   3.889   1.906
 8082WAT      O33047   3.424   4.190   1.769
 8082WAT     H133048   3.439   4.144   1.842
 8082WAT     H233049   3.451   4.136   1.706
 8082WAT    EPW33050   3.430   4.175   1.771
 8083WAT      O33051   2.833   4.411   1.828
 8083WAT     H133052   2.861   4.408   1.911
 8083WAT     H233053   2.803   4.331   1.814
 8083WAT    EPW33054   2.833   4.399   1.838
 8084WAT      O33055   2.933   3.433   1.168
 8084WAT     H133056   2.991   3.498   1.175
 8084WAT     H233057   2.980   3.361   1.181
 8084WAT    EPW33058   2.948   3.432   1.171
 8085WAT      O33059   3.169   3.803   0.391
 8085WAT     H133060   3.188   3.885   0.366
 8085WAT     H233061   3.100   3.814   0.444
 8085WAT    EPW33062   3.161   3.817   0.395
 8086WAT      O33063   3.651   4.076   0.808
 8086WAT     H133064   3.681   4.023   0.871
 8086WAT     H233065   3.659   4.028   0.735
 8086WAT    EPW33066   3.656   4.061   0.806
 8087WAT      O33067   3.282   4.463   1.134
 8087WAT     H133068   3.220   4.448   1.075
 8087WAT     H233069   3.330   4.526   1.098
 8087WAT    EPW33070   3.280   4.470   1.120
 8088WAT      O33071   3.266   4.129   1.093
 8088WAT     H133072   3.193   4.163   1.126
 8088WAT     H233073   3.289   4.070   1.154
 8088WAT    EPW33074   3.259   4.125   1.107
 8089WAT      O33075   2.655   4.650   0.452
 8089WAT     H133076   2.667   4.581   0.504
 8089WAT     H233077   2.727   4.652   0.403
 8089WAT    EPW33078   2.667   4.640   0.452
 8090WAT      O33079   2.635   3.101   0.366
 8090WAT     H133080   2.627   3.018   0.392
 8090WAT     H233081   2.561   3.116   0.323
 8090WAT    EPW33082   2.623   3.091   0.364
 8091WAT      O33083   2.911   4.652   0.349
 8091WAT     H133084   2.950   4.636   0.426
 8091WAT     H233085   2.926   4.737   0.335
 8091WAT    EPW33086   2.919   4.662   0.358
 8092WAT      O33087   3.516   4.016   1.579
 8092WAT     H133088   3.489   3.999   1.497
 8092WAT     H233089   3.603   4.014   1.573
 8092WAT    EPW33090   3.525   4.013   1.566
 8093WAT      O33091   3.208   4.493   1.996
 8093WAT     H133092   3.233   4.508   2.078
 8093WAT     H233093   3.217   4.571   1.957
 8093WAT    EPW33094   3.213   4.507   2.002
 8094WAT      O33095   3.725   2.983   1.940
 8094WAT     H133096   3.749   2.969   2.023
 8094WAT     H233097   3.765   3.058   1.919
 8094WAT    EPW33098   3.734   2.992   1.949
 8095WAT      O33099   2.382   3.800   0.441
 8095WAT     H133100   2.374   3.714   0.426
 8095WAT     H233101   2.461   3.808   0.476
 8095WAT    EPW33102   2.393   3.789   0.444
 8096WAT      O33103   3.166   3.950   1.512
 8096WAT     H133104   3.104   3.986   1.563
 8096WAT     H233105   3.207   3.894   1.566
 8096WAT    EPW33106   3.163   3.947   1.528
 8097WAT      O33107   2.013   2.971   0.519
 8097WAT     H133108   2.017   2.913   0.454
 8097WAT     H233109   1.987   2.924   0.587
 8097WAT    EPW33110   2.010   2.956   0.519
 8098WAT      O33111   2.951   3.797   0.569
 8098WAT     H133112   2.967   3.860   0.627
 8098WAT     H233113   2.951   3.724   0.617
 8098WAT    EPW33114   2.954   3.796   0.585
 8099WAT      O33115   3.536   4.235   1.110
 8099WAT     H133116   3.580   4.222   1.036
 8099WAT     H233117   3.454   4.210   1.090
 8099WAT    EPW33118   3.530   4.229   1.096
 8100WAT      O33119   2.403   3.216   0.247
 8100WAT     H133120   2.343   3.189   0.189
 8100WAT     H233121   2.426   3.295   0.217
 8100WAT    EPW33122   2.397   3.224   0.234
 8101WAT      O33123   2.924   4.007   1.009
 8101WAT     H133124   2.841   3.987   1.026
 8101WAT     H233125   2.966   3.979   1.080
 8101WAT    EPW33126   2.918   4.000   1.022
 8102WAT      O33127   2.280   3.915   1.273
 8102WAT     H133128   2.332   3.983   1.255
 8102WAT     H233129   2.238   3.901   1.198
 8102WAT    EPW33130   2.281   3.923   1.259
 8103WAT      O33131   2.599   3.453   0.936
 8103WAT     H133132   2.679   3.420   0.921
 8103WAT     H233133   2.546   3.385   0.922
 8103WAT    EPW33134   2.603   3.438   0.932
 8104WAT      O33135   3.872   4.628   0.312
 8104WAT     H133136   3.947   4.584   0.298
 8104WAT     H233137   3.827   4.574   0.364
 8104WAT    EPW33138   3.877   4.613   0.318
 8105WAT      O33139   2.087   3.562   0.597
 8105WAT     H133140   2.122   3.524   0.667
 8105WAT     H233141   2.099   3.503   0.534
 8105WAT    EPW33142   2.094   3.548   0.598
 8106WAT      O33143   3.631   3.909   1.270
 8106WAT     H133144   3.643   3.841   1.324
 8106WAT     H233145   3.546   3.926   1.277
 8106WAT    EPW33146   3.620   3.901   1.279
 8107WAT      O33147   2.246   4.037   1.686
 8107WAT     H133148   2.205   3.989   1.625
 8107WAT     H233149   2.221   4.119   1.667
 8107WAT    EPW33150   2.236   4.042   1.674
 8108WAT      O33151   3.740   3.904   1.014
 8108WAT     H133152   3.709   3.909   1.095
 8108WAT     H233153   3.826   3.898   1.025
 8108WAT    EPW33154   3.748   3.904   1.027
 8109WAT      O33155   2.647   3.547   0.369
 8109WAT     H133156   2.662   3.628   0.400
 8109WAT     H233157   2.560   3.543   0.366
 8109WAT    EPW33158   2.636   3.559   0.373
 8110WAT      O33159   3.586   3.264   2.004
 8110WAT     H133160   3.621   3.232   2.077
 8110WAT     H233161   3.552   3.194   1.965
 8110WAT    EPW33162   3.586   3.249   2.009
 8111WAT      O33163   2.059   3.201   1.052
 8111WAT     H133164   2.041   3.226   0.970
 8111WAT     H233165   2.146   3.207   1.057
 8111WAT    EPW33166   2.069   3.206   1.040
 8112WAT      O33167   3.862   4.391   1.084
 8112WAT     H133168   3.897   4.447   1.027
 8112WAT     H233169   3.924   4.384   1.145
 8112WAT    EPW33170   3.877   4.399   1.085
 8113WAT      O33171   3.342   3.621   1.925
 8113WAT     H133172   3.384   3.671   1.983
 8113WAT     H233173   3.330   3.675   1.857
 8113WAT    EPW33174   3.346   3.636   1.924
 8114WAT      O33175   3.602   3.743   1.729
 8114WAT     H133176   3.647   3.808   1.766
 8114WAT     H233177   3.623   3.673   1.777
 8114WAT    EPW33178   3.612   3.742   1.742
 8115WAT      O33179   3.548   4.337   0.279
 8115WAT     H133180   3.589   4.261   0.283
 8115WAT     H233181   3.472   4.323   0.320
 8115WAT    EPW33182   3.543   4.324   0.286
 8116WAT      O33183   3.606   3.457   0.818
 8116WAT     H133184   3.532   3.422   0.846
 8116WAT     H233185   3.608   3.535   0.859
 8116WAT    EPW33186   3.595   3.463   0.828
 8117WAT      O33187   3.792   4.051   1.578
 8117WAT     H133188   3.860   4.000   1.559
 8117WAT     H233189   3.784   4.102   1.507
 8117WAT    EPW33190   3.801   4.051   1.565
 8118WAT      O33191   3.276   4.053   0.309
 8118WAT     H133192   3.307   4.114   0.363
 8118WAT     H233193   3.333   4.052   0.243
 8118WAT    EPW33194   3.289   4.062   0.307
 8119WAT      O33195   2.666   4.242   1.343
 8119WAT     H133196   2.673   4.293   1.413
 8119WAT     H233197   2.688   4.294   1.276
 8119WAT    EPW33198   2.670   4.257   1.343
 8120WAT      O33199   2.514   4.098   1.649
 8120WAT     H133200   2.432   4.071   1.665
 8120WAT     H233201   2.505   4.184   1.639
 8120WAT    EPW33202   2.501   4.107   1.650
 8121WAT      O33203   3.513   3.148   1.714
 8121WAT     H133204   3.584   3.198   1.711
 8121WAT     H233205   3.459   3.186   1.656
 8121WAT    EPW33206   3.515   3.161   1.705
 8122WAT      O33207   3.025   3.920   1.271
 8122WAT     H133208   3.071   3.904   1.344
 8122WAT     H233209   2.943   3.929   1.300
 8122WAT    EPW33210   3.020   3.919   1.286
 8123WAT      O33211   2.641   3.432   1.620
 8123WAT     H133212   2.657   3.354   1.654
 8123WAT     H233213   2.672   3.427   1.539
 8123WAT    EPW33214   2.648   3.420   1.613
 8124WAT      O33215   2.928   4.641   0.836
 8124WAT     H133216   2.931   4.726   0.857
 8124WAT     H233217   2.949   4.640   0.751
 8124WAT    EPW33218   2.932   4.654   0.827
 8125WAT      O33219   3.596   2.909   1.486
 8125WAT     H133220   3.550   2.961   1.434
 8125WAT     H233221   3.668   2.955   1.503
 8125WAT    EPW33222   3.600   2.923   1.481
 8126WAT      O33223   2.817   3.034   1.553
 8126WAT     H133224   2.900   3.052   1.534
 8126WAT     H233225   2.819   2.948   1.569
 8126WAT    EPW33226   2.830   3.024   1.553
 8127WAT      O33227   2.743   4.432   1.152
 8127WAT     H133228   2.696   4.487   1.104
 8127WAT     H233229   2.782   4.381   1.094
 8127WAT    EPW33230   2.742   4.433   1.137
 8128WAT      O33231   3.165   4.021   1.867
 8128WAT     H133232   3.229   3.986   1.820
 8128WAT     H233233   3.108   4.049   1.807
 8128WAT    EPW33234   3.166   4.020   1.851
 8129WAT      O33235   3.792   3.650   0.230
 8129WAT     H133236   3.818   3.713   0.175
 8129WAT     H233237   3.705   3.655   0.226
 8129WAT    EPW33238   3.783   3.660   0.221
 8130WAT      O33239   2.529   3.532   1.190
 8130WAT     H133240   2.554   3.502   1.112
 8130WAT     H233241   2.589   3.500   1.245
 8130WAT    EPW33242   2.542   3.523   1.187
 8131WAT      O33243   3.197   3.390   1.827
 8131WAT     H133244   3.146   3.451   1.791
 8131WAT     H233245   3.274   3.431   1.837
 8131WAT    EPW33246   3.201   3.405   1.824
 8132WAT      O33247   2.998   4.622   1.741
 8132WAT     H133248   3.011   4.623   1.655
 8132WAT     H233249   2.951   4.549   1.754
 8132WAT    EPW33250   2.993   4.611   1.730
 8133WAT      O33251   3.506   3.519   0.567
 8133WAT     H133252   3.532   3.495   0.647
 8133WAT     H233253   3.578   3.554   0.532
 8133WAT    EPW33254   3.521   3.521   0.574
 8134WAT      O33255   2.818   2.989   1.158
 8134WAT     H133256   2.733   2.982   1.175
 8134WAT     H233257   2.820   3.002   1.071
 8134WAT    EPW33258   2.806   2.990   1.148
 8135WAT      O33259   3.626   3.076   0.730
 8135WAT     H133260   3.550   3.035   0.744
 8135WAT     H233261   3.623   3.094   0.645
 8135WAT    EPW33262   3.614   3.072   0.719
 8136WAT      O33263   3.641   3.928   0.564
 8136WAT     H133264   3.690   3.857   0.552
 8136WAT     H233265   3.559   3.898   0.557
 8136WAT    EPW33266   3.636   3.913   0.561
 8137WAT      O33267   2.981   4.093   1.673
 8137WAT     H133268   2.905   4.091   1.716
 8137WAT     H233269   2.980   4.172   1.635
 8137WAT    EPW33270   2.969   4.105   1.674
 8138WAT      O33271   2.029   3.095   1.814
 8138WAT     H133272   2.024   3.167   1.766
 8138WAT     H233273   1.945   3.076   1.831
 8138WAT    EPW33274   2.016   3.103   1.810
 8139WAT      O33275   2.554   4.755   1.231
 8139WAT     H133276   2.546   4.739   1.316
 8139WAT     H233277   2.525   4.682   1.193
 8139WAT    EPW33278   2.549   4.742   1.238
 8140WAT      O33279   2.374   3.281   0.520
 8140WAT     H133280   2.377   3.248   0.439
 8140WAT     H233281   2.292   3.266   0.545
 8140WAT    EPW33282   2.363   3.274   0.511
 8141WAT      O33283   3.269   4.084   0.820
 8141WAT     H133284   3.264   4.100   0.906
 8141WAT     H233285   3.306   4.005   0.816
 8141WAT    EPW33286   3.274   4.075   0.832
 8142WAT      O33287   3.015   4.005   0.745
 8142WAT     H133288   2.979   3.997   0.824
 8142WAT     H233289   3.096   4.031   0.762
 8142WAT    EPW33290   3.021   4.008   0.759
 8143WAT      O33291   2.992   4.340   1.545
 8143WAT     H133292   3.067   4.359   1.585
 8143WAT     H233293   3.017   4.311   1.467
 8143WAT    EPW33294   3.007   4.338   1.539
 8144WAT      O33295   3.317   3.789   1.693
 8144WAT     H133296   3.305   3.723   1.637
 8144WAT     H233297   3.403   3.802   1.692
 8144WAT    EPW33298   3.328   3.781   1.685
 8145WAT      O33299   2.199   4.717   1.746
 8145WAT     H133300   2.143   4.652   1.735
 8145WAT     H233301   2.150   4.783   1.774
 8145WAT    EPW33302   2.184   4.717   1.748
 8146WAT      O33303   3.050   3.803   1.994
 8146WAT     H133304   3.084   3.874   1.957
 8146WAT     H233305   2.976   3.832   2.030
 8146WAT    EPW33306   3.044   3.818   1.994
 8147WAT      O33307   3.421   4.697   1.074
 8147WAT     H133308   3.361   4.758   1.092
 8147WAT     H233309   3.481   4.709   1.136
 8147WAT    EPW33310   3.421   4.708   1.086
 8148WAT      O33311   3.073   4.206   1.308
 8148WAT     H133312   3.062   4.120   1.312
 8148WAT     H233313   3.156   4.218   1.333
 8148WAT    EPW33314   3.084   4.195   1.312
 8149WAT      O33315   3.626   4.399   1.963
 8149WAT     H133316   3.708   4.370   1.958
 8149WAT     H233317   3.593   4.355   2.030
 8149WAT    EPW33318   3.633   4.388   1.972
 8150WAT      O33319   2.390   3.552   1.607
 8150WAT     H133320   2.403   3.613   1.546
 8150WAT     H233321   2.467   3.511   1.611
 8150WAT    EPW33322   2.404   3.555   1.599
 8151WAT      O33323   2.201   3.393   1.478
 8151WAT     H133324   2.220   3.401   1.393
 8151WAT     H233325   2.261   3.442   1.518
 8151WAT    EPW33326   2.213   3.401   1.471
 8152WAT      O33327   3.734   3.670   0.504
 8152WAT     H133328   3.757   3.669   0.420
 8152WAT     H233329   3.802   3.634   0.544
 8152WAT    EPW33330   3.747   3.664   0.497
 8153WAT      O33331   2.425   3.083   1.733
 8153WAT     H133332   2.405   2.999   1.730
 8153WAT     H233333   2.405   3.112   1.654
 8153WAT    EPW33334   2.419   3.075   1.721
 8154WAT      O33335   3.116   4.359   0.650
 8154WAT     H133336   3.096   4.441   0.627
 8154WAT     H233337   3.043   4.315   0.632
 8154WAT    EPW33338   3.102   4.365   0.644
 8155WAT      O33339   3.643   3.697   1.455
 8155WAT     H133340   3.568   3.655   1.438
 8155WAT     H233341   3.638   3.715   1.540
 8155WAT    EPW33342   3.631   3.693   1.465
 8156WAT      O33343   2.110   3.896   1.491
 8156WAT     H133344   2.158   3.909   1.419
 8156WAT     H233345   2.090   3.811   1.486
 8156WAT    EPW33346   2.114   3.885   1.480
 8157WAT      O33347   3.159   3.118   1.791
 8157WAT     H133348   3.177   3.202   1.802
 8157WAT     H233349   3.081   3.109   1.829
 8157WAT    EPW33350   3.150   3.129   1.798
 8158WAT      O33351   3.200   3.161   0.924
 8158WAT     H133352   3.121   3.166   0.961
 8158WAT     H233353   3.184   3.119   0.849
 8158WAT    EPW33354   3.186   3.155   0.919
 8159WAT      O33355   2.631   4.286   0.345
 8159WAT     H133356   2.655   4.328   0.418
 8159WAT     H233357   2.544   4.293   0.345
 8159WAT    EPW33358   2.622   4.293   0.356
 8160WAT      O33359   3.482   3.102   1.316
 8160WAT     H133360   3.559   3.139   1.298
 8160WAT     H233361   3.445   3.158   1.372
 8160WAT    EPW33362   3.488   3.116   1.322
 8161WAT      O33363   2.634   3.856   1.562
 8161WAT     H133364   2.594   3.927   1.592
 8161WAT     H233365   2.573   3.818   1.513
 8161WAT    EPW33366   2.619   3.861   1.559
 8162WAT      O33367   3.561   3.701   0.950
 8162WAT     H133368   3.623   3.760   0.967
 8162WAT     H233369   3.502   3.747   0.905
 8162WAT    EPW33370   3.562   3.717   0.946
 8163WAT      O33371   3.550   4.524   0.680
 8163WAT     H133372   3.522   4.446   0.705
 8163WAT     H233373   3.594   4.508   0.606
 8163WAT    EPW33374   3.552   4.510   0.673
 8164WAT      O33375   2.354   4.270   0.358
 8164WAT     H133376   2.350   4.253   0.443
 8164WAT     H233377   2.351   4.191   0.320
 8164WAT    EPW33378   2.353   4.256   0.365
 8165WAT      O33379   2.636   4.013   0.283
 8165WAT     H133380   2.551   4.014   0.262
 8165WAT     H233381   2.654   4.097   0.299
 8165WAT    EPW33382   2.626   4.026   0.282
 8166WAT      O33383   2.626   3.174   1.393
 8166WAT     H133384   2.544   3.155   1.413
 8166WAT     H233385   2.673   3.112   1.432
 8166WAT    EPW33386   2.621   3.162   1.401
 8167WAT      O33387   3.815   3.076   1.544
 8167WAT     H133388   3.821   3.129   1.614
 8167WAT     H233389   3.896   3.045   1.536
 8167WAT    EPW33390   3.828   3.079   1.553
 8168WAT      O33391   3.035   3.170   1.170
 8168WAT     H133392   2.966   3.117   1.179
 8168WAT     H233393   3.103   3.119   1.193
 8168WAT    EPW33394   3.035   3.155   1.175
 8169WAT      O33395   3.334   4.291   1.356
 8169WAT     H133396   3.345   4.362   1.405
 8169WAT     H233397   3.333   4.323   1.275
 8169WAT    EPW33398   3.335   4.306   1.351
 8170WAT      O33399   3.255   4.702   1.815
 8170WAT     H133400   3.183   4.668   1.779
 8170WAT     H233401   3.232   4.785   1.830
 8170WAT    EPW33402   3.241   4.709   1.812
 8171WAT      O33403   2.776   3.657   1.713
 8171WAT     H133404   2.732   3.587   1.684
 8171WAT     H233405   2.736   3.724   1.675
 8171WAT    EPW33406   2.764   3.656   1.703
 8172WAT      O33407   3.755   4.155   1.323
 8172WAT     H133408   3.724   4.077   1.298
 8172WAT     H233409   3.701   4.212   1.283
 8172WAT    EPW33410   3.742   4.152   1.313
 8173WAT      O33411   2.646   4.627   1.754
 8173WAT     H133412   2.635   4.631   1.841
 8173WAT     H233413   2.703   4.561   1.744
 8173WAT    EPW33414   2.653   4.618   1.765
 8174WAT      O33415   3.650   4.435   1.273
 8174WAT     H133416   3.719   4.442   1.220
 8174WAT     H233417   3.592   4.390   1.226
 8174WAT    EPW33418   3.652   4.430   1.258
 8175WAT      O33419   2.355   3.152   1.478
 8175WAT     H133420   2.303   3.086   1.454
 8175WAT     H233421   2.304   3.223   1.468
 8175WAT    EPW33422   2.340   3.153   1.473
 8176WAT      O33423   3.281   3.013   1.149
 8176WAT     H133424   3.343   3.053   1.195
 8176WAT     H233425   3.274   3.062   1.077
 8176WAT    EPW33426   3.289   3.026   1.145
 8177WAT      O33427   2.362   4.521   1.879
 8177WAT     H133428   2.432   4.556   1.918
 8177WAT     H233429   2.324   4.590   1.842
 8177WAT    EPW33430   2.367   4.536   1.880
 8178WAT      O33431   3.188   3.622   0.892
 8178WAT     H133432   3.238   3.550   0.897
 8178WAT     H233433   3.163   3.635   0.975
 8178WAT    EPW33434   3.192   3.613   0.905
 8179WAT      O33435   2.219   3.476   0.829
 8179WAT     H133436   2.177   3.500   0.901
 8179WAT     H233437   2.261   3.403   0.852
 8179WAT    EPW33438   2.219   3.468   0.843
 8180WAT      O33439   2.203   4.300   1.597
 8180WAT     H133440   2.153   4.362   1.633
 8180WAT     H233441   2.284   4.333   1.601
 8180WAT    EPW33442   2.208   4.314   1.603
 8181WAT      O33443   3.405   3.773   0.530
 8181WAT     H133444   3.422   3.688   0.542
 8181WAT     H233445   3.327   3.772   0.491
 8181WAT    EPW33446   3.396   3.760   0.526
 8182WAT      O33447   2.382   4.630   0.494
 8182WAT     H133448   2.339   4.607   0.422
 8182WAT     H233449   2.465   4.635   0.469
 8182WAT    EPW33450   2.388   4.627   0.480
 8183WAT      O33451   2.689   3.812   0.465
 8183WAT     H133452   2.688   3.871   0.401
 8183WAT     H233453   2.773   3.808   0.488
 8183WAT    EPW33454   2.701   3.820   0.459
 8184WAT      O33455   3.624   4.602   0.168
 8184WAT     H133456   3.706   4.608   0.197
 8184WAT     H233457   3.603   4.518   0.181
 8184WAT    EPW33458   3.633   4.590   0.174
 8185WAT      O33459   3.745   3.959   1.841
 8185WAT     H133460   3.824   3.941   1.872
 8185WAT     H233461   3.761   4.000   1.766
 8185WAT    EPW33462   3.759   3.962   1.834
 8186WAT      O33463   3.336   4.281   0.472
 8186WAT     H133464   3.387   4.270   0.542
 8186WAT     H233465   3.256   4.291   0.505
 8186WAT    EPW33466   3.332   4.281   0.487
 8187WAT      O33467   3.751   3.457   1.187
 8187WAT     H133468   3.667   3.470   1.169
 8187WAT     H233469   3.752   3.381   1.229
 8187WAT    EPW33470   3.739   3.448   1.190
 8188WAT      O33471   2.687   3.177   1.749
 8188WAT     H133472   2.726   3.140   1.680
 8188WAT     H233473   2.607   3.143   1.748
 8188WAT    EPW33474   2.681   3.166   1.739
 8189WAT      O33475   3.491   4.006   1.973
 8189WAT     H133476   3.573   3.996   1.944
 8189WAT     H233477   3.478   3.935   2.022
 8189WAT    EPW33478   3.501   3.994   1.975
 8190WAT      O33479   2.412   4.531   1.129
 8190WAT     H133480   2.400   4.453   1.092
 8190WAT     H233481   2.372   4.586   1.075
 8190WAT    EPW33482   2.404   4.528   1.116
 8191WAT      O33483   3.036   4.193   0.361
 8191WAT     H133484   3.101   4.146   0.327
 8191WAT     H233485   3.039   4.268   0.316
 8191WAT    EPW33486   3.046   4.197   0.349
 8192WAT      O33487   2.177   4.778   1.471
 8192WAT     H133488   2.187   4.758   1.555
 8192WAT     H233489   2.208   4.707   1.430
 8192WAT    EPW33490   2.183   4.764   1.477
 8193WAT      O33491   3.156   1.150   6.397
 8193WAT     H133492   3.154   1.195   6.322
 8193WAT     H233493   3.241   1.137   6.411
 8193WAT    EPW33494   3.168   1.155   6.388
 8194WAT      O33495   3.114   1.777   6.840
 8194WAT     H133496   3.078   1.854   6.862
 8194WAT     H233497   3.168   1.761   6.906
 8194WAT    EPW33498   3.116   1.786   6.853
 8195WAT      O33499   2.083   2.258   6.361
 8195WAT     H133500   2.045   2.259   6.439
 8195WAT     H233501   2.078   2.174   6.337
 8195WAT    EPW33502   2.077   2.246   6.369
 8196WAT      O33503   3.709   2.638   6.124
 8196WAT     H133504   3.771   2.582   6.151
 8196WAT     H233505   3.657   2.588   6.075
 8196WAT    EPW33506   3.711   2.622   6.121
 8197WAT      O33507   2.074   1.600   6.021
 8197WAT     H133508   2.007   1.646   5.987
 8197WAT     H233509   2.045   1.517   6.019
 8197WAT    EPW33510   2.060   1.594   6.015
 8198WAT      O33511   2.400   2.185   5.932
 8198WAT     H133512   2.363   2.143   5.865
 8198WAT     H233513   2.398   2.126   5.997
 8198WAT    EPW33514   2.394   2.170   5.932
 8199WAT      O33515   3.352   1.967   6.483
 8199WAT     H133516   3.360   1.952   6.397
 8199WAT     H233517   3.299   1.902   6.510
 8199WAT    EPW33518   3.345   1.955   6.474
 8200WAT      O33519   2.333   2.371   6.318
 8200WAT     H133520   2.386   2.333   6.376
 8200WAT     H233521   2.256   2.331   6.332
 8200WAT    EPW33522   2.329   2.360   6.329
 8201WAT      O33523   2.792   1.262   6.260
 8201WAT     H133524   2.789   1.332   6.209
 8201WAT     H233525   2.870   1.228   6.243
 8201WAT    EPW33526   2.803   1.267   6.250
 8202WAT      O33527   2.228   2.656   5.931
 8202WAT     H133528   2.273   2.665   5.857
 8202WAT     H233529   2.261   2.582   5.965
 8202WAT    EPW33530   2.240   2.646   5.925
 8203WAT      O33531   2.124   2.468   7.048
 8203WAT     H133532   2.149   2.447   7.129
 8203WAT     H233533   2.054   2.418   7.034
 8203WAT    EPW33534   2.118   2.458   7.058
 8204WAT      O33535   2.779   2.314   7.476
 8204WAT     H133536   2.791   2.268   7.550
 8204WAT     H233537   2.701   2.287   7.448
 8204WAT    EPW33538   2.770   2.303   7.483
 8205WAT      O33539   2.277   2.004   6.498
 8205WAT     H133540   2.227   2.004   6.426
 8205WAT     H233541   2.332   1.937   6.485
 8205WAT    EPW33542   2.278   1.994   6.485
 8206WAT      O33543   2.712   1.586   7.040
 8206WAT     H133544   2.781   1.591   6.988
 8206WAT     H233545   2.687   1.502   7.034
 8206WAT    EPW33546   2.718   1.574   7.032
 8207WAT      O33547   2.720   2.552   7.230
 8207WAT     H133548   2.696   2.628   7.194
 8207WAT     H233549   2.806   2.561   7.242
 8207WAT    EPW33550   2.729   2.564   7.226
 8208WAT      O33551   2.449   1.786   6.481
 8208WAT     H133552   2.516   1.735   6.504
 8208WAT     H233553   2.381   1.732   6.483
 8208WAT    EPW33554   2.449   1.771   6.485
 8209WAT      O33555   2.860   2.436   6.652
 8209WAT     H133556   2.881   2.354   6.671
 8209WAT     H233557   2.937   2.475   6.639
 8209WAT    EPW33558   2.875   2.430   6.653
 8210WAT      O33559   2.919   2.355   6.282
 8210WAT     H133560   2.941   2.289   6.336
 8210WAT     H233561   2.934   2.322   6.203
 8210WAT    EPW33562   2.924   2.340   6.278
 8211WAT      O33563   3.064   1.781   7.446
 8211WAT     H133564   2.980   1.787   7.421
 8211WAT     H233565   3.071   1.838   7.511
 8211WAT    EPW33566   3.053   1.790   7.452
 8212WAT      O33567   2.523   1.294   6.358
 8212WAT     H133568   2.485   1.353   6.306
 8212WAT     H233569   2.606   1.293   6.330
 8212WAT    EPW33570   2.530   1.302   6.346
 8213WAT      O33571   3.544   1.075   7.340
 8213WAT     H133572   3.524   1.145   7.290
 8213WAT     H233573   3.468   1.055   7.377
 8213WAT    EPW33574   3.530   1.083   7.338
 8214WAT      O33575   2.839   1.222   6.536
 8214WAT     H133576   2.850   1.306   6.558
 8214WAT     H233577   2.813   1.226   6.453
 8214WAT    EPW33578   2.837   1.235   6.527
 8215WAT      O33579   3.253   1.439   5.786
 8215WAT     H133580   3.208   1.507   5.818
 8215WAT     H233581   3.272   1.392   5.857
 8215WAT    EPW33582   3.249   1.442   5.801
 8216WAT      O33583   2.098   1.748   6.745
 8216WAT     H133584   2.099   1.834   6.757
 8216WAT     H233585   2.031   1.722   6.794
 8216WAT    EPW33586   2.088   1.757   6.754
 8217WAT      O33587   2.085   2.707   6.579
 8217WAT     H133588   2.021   2.755   6.546
 8217WAT     H233589   2.124   2.673   6.509
 8217WAT    EPW33590   2.082   2.709   6.564
 8218WAT      O33591   2.677   2.486   6.259
 8218WAT     H133592   2.643   2.485   6.339
 8218WAT     H233593   2.756   2.449   6.269
 8218WAT    EPW33594   2.684   2.480   6.272
 8219WAT      O33595   3.250   2.747   5.995
 8219WAT     H133596   3.317   2.794   6.026
 8219WAT     H233597   3.269   2.666   6.019
 8219WAT    EPW33598   3.263   2.742   6.003
 8220WAT      O33599   3.087   2.766   6.231
 8220WAT     H133600   3.107   2.834   6.282
 8220WAT     H233601   3.139   2.776   6.162
 8220WAT    EPW33602   3.097   2.778   6.229
 8221WAT      O33603   2.403   1.253   6.790
 8221WAT     H133604   2.352   1.188   6.761
 8221WAT     H233605   2.465   1.211   6.836
 8221WAT    EPW33606   2.405   1.237   6.792
 8222WAT      O33607   2.217   2.622   6.345
 8222WAT     H133608   2.267   2.551   6.354
 8222WAT     H233609   2.265   2.674   6.294
 8222WAT    EPW33610   2.232   2.619   6.339
 8223WAT      O33611   3.834   1.440   6.499
 8223WAT     H133612   3.783   1.511   6.508
 8223WAT     H233613   3.776   1.376   6.486
 8223WAT    EPW33614   3.818   1.441   6.498
 8224WAT      O33615   3.332   2.753   7.058
 8224WAT     H133616   3.401   2.806   7.050
 8224WAT     H233617   3.318   2.726   6.976
 8224WAT    EPW33618   3.340   2.757   7.045
 8225WAT      O33619   2.268   1.444   7.564
 8225WAT     H133620   2.199   1.391   7.559
 8225WAT     H233621   2.332   1.398   7.526
 8225WAT    EPW33622   2.267   1.429   7.558
 8226WAT      O33623   2.364   2.424   6.695
 8226WAT     H133624   2.420   2.405   6.630
 8226WAT     H233625   2.391   2.373   6.761
 8226WAT    EPW33626   2.376   2.413   6.695
 8227WAT      O33627   2.648   2.756   6.592
 8227WAT     H133628   2.728   2.773   6.563
 8227WAT     H233629   2.597   2.805   6.540
 8227WAT    EPW33630   2.652   2.766   6.580
 8228WAT      O33631   2.917   1.224   7.562
 8228WAT     H133632   2.925   1.146   7.524
 8228WAT     H233633   2.850   1.261   7.518
 8228WAT    EPW33634   2.908   1.218   7.550
 8229WAT      O33635   3.002   1.685   6.416
 8229WAT     H133636   3.031   1.643   6.345
 8229WAT     H233637   3.075   1.699   6.462
 8229WAT    EPW33638   3.017   1.681   6.412
 8230WAT      O33639   3.097   1.650   5.910
 8230WAT     H133640   3.123   1.729   5.935
 8230WAT     H233641   3.022   1.664   5.869
 8230WAT    EPW33642   3.090   1.664   5.908
 8231WAT      O33643   3.462   2.885   6.102
 8231WAT     H133644   3.517   2.874   6.036
 8231WAT     H233645   3.497   2.838   6.167
 8231WAT    EPW33646   3.475   2.876   6.102
 8232WAT      O33647   2.567   2.775   7.154
 8232WAT     H133648   2.574   2.802   7.237
 8232WAT     H233649   2.485   2.745   7.150
 8232WAT    EPW33650   2.556   2.775   7.166
 8233WAT      O33651   3.744   1.362   6.906
 8233WAT     H133652   3.810   1.351   6.850
 8233WAT     H233653   3.763   1.308   6.972
 8233WAT    EPW33654   3.757   1.353   6.908
 8234WAT      O33655   1.983   1.432   7.289
 8234WAT     H133656   1.980   1.495   7.350
 8234WAT     H233657   2.048   1.458   7.236
 8234WAT    EPW33658   1.992   1.445   7.290
 8235WAT      O33659   3.190   2.517   7.451
 8235WAT     H133660   3.186   2.448   7.503
 8235WAT     H233661   3.275   2.527   7.435
 8235WAT    EPW33662   3.202   2.508   7.457
 8236WAT      O33663   3.014   2.527   5.903
 8236WAT     H133664   2.968   2.592   5.939
 8236WAT     H233665   3.090   2.529   5.947
 8236WAT    EPW33666   3.019   2.537   5.915
 8237WAT      O33667   3.301   1.288   6.017
 8237WAT     H133668   3.358   1.222   6.020
 8237WAT     H233669   3.324   1.338   6.085
 8237WAT    EPW33670   3.313   1.286   6.027
 8238WAT      O33671   2.132   1.389   6.279
 8238WAT     H133672   2.109   1.306   6.263
 8238WAT     H233673   2.083   1.411   6.347
 8238WAT    EPW33674   2.122   1.380   6.286
 8239WAT      O33675   2.306   2.689   7.055
 8239WAT     H133676   2.251   2.621   7.056
 8239WAT     H233677   2.344   2.683   6.977
 8239WAT    EPW33678   2.304   2.678   7.044
 8240WAT      O33679   3.068   1.557   6.174
 8240WAT     H133680   2.998   1.506   6.160
 8240WAT     H233681   3.084   1.590   6.095
 8240WAT    EPW33682   3.060   1.554   6.160
 8241WAT      O33683   3.086   2.801   7.170
 8241WAT     H133684   3.165   2.790   7.135
 8241WAT     H233685   3.033   2.803   7.101
 8241WAT    EPW33686   3.090   2.799   7.155
 8242WAT      O33687   3.059   1.227   6.138
 8242WAT     H133688   3.003   1.211   6.073
 8242WAT     H233689   3.133   1.248   6.097
 8242WAT    EPW33690   3.062   1.227   6.122
 8243WAT      O33691   3.764   2.858   6.422
 8243WAT     H133692   3.722   2.935   6.428
 8243WAT     H233693   3.700   2.802   6.402
 8243WAT    EPW33694   3.748   2.861   6.420
 8244WAT      O33695   2.888   1.494   6.590
 8244WAT     H133696   2.915   1.559   6.538
 8244WAT     H233697   2.897   1.527   6.670
 8244WAT    EPW33698   2.893   1.509   6.594
 8245WAT      O33699   3.466   2.443   6.422
 8245WAT     H133700   3.527   2.385   6.445
 8245WAT     H233701   3.391   2.401   6.438
 8245WAT    EPW33702   3.464   2.428   6.428
 8246WAT      O33703   2.469   2.503   7.347
 8246WAT     H133704   2.546   2.526   7.313
 8246WAT     H233705   2.457   2.562   7.410
 8246WAT    EPW33706   2.479   2.515   7.352
 8247WAT      O33707   2.462   1.035   6.441
 8247WAT     H133708   2.481   1.117   6.418
 8247WAT     H233709   2.434   1.000   6.366
 8247WAT    EPW33710   2.461   1.042   6.426
 8248WAT      O33711   2.657   2.100   6.774
 8248WAT     H133712   2.683   2.082   6.855
 8248WAT     H233713   2.599   2.037   6.756
 8248WAT    EPW33714   2.652   2.088   6.783
 8249WAT      O33715   3.224   1.463   7.158
 8249WAT     H133716   3.215   1.489   7.241
 8249WAT     H233717   3.161   1.404   7.148
 8249WAT    EPW33718   3.213   1.458   7.169
 8250WAT      O33719   2.766   2.102   7.027
 8250WAT     H133720   2.753   2.188   7.033
 8250WAT     H233721   2.732   2.071   7.100
 8250WAT    EPW33722   2.759   2.110   7.039
 8251WAT      O33723   3.395   2.194   7.039
 8251WAT     H133724   3.320   2.163   7.070
 8251WAT     H233725   3.386   2.281   7.044
 8251WAT    EPW33726   3.383   2.203   7.044
 8252WAT      O33727   3.418   1.081   6.473
 8252WAT     H133728   3.422   1.064   6.558
 8252WAT     H233729   3.453   1.010   6.436
 8252WAT    EPW33730   3.424   1.068   6.480
 8253WAT      O33731   3.611   1.540   7.239
 8253WAT     H133732   3.694   1.513   7.242
 8253WAT     H233733   3.589   1.546   7.323
 8253WAT    EPW33734   3.620   1.537   7.252
 8254WAT      O33735   2.405   1.428   6.579
 8254WAT     H133736   2.433   1.375   6.515
 8254WAT     H233737   2.401   1.376   6.648
 8254WAT    EPW33738   2.408   1.412   6.580
 8255WAT      O33739   3.673   2.233   6.027
 8255WAT     H133740   3.673   2.187   6.102
 8255WAT     H233741   3.758   2.245   6.010
 8255WAT    EPW33742   3.685   2.228   6.036
 8256WAT      O33743   2.463   2.211   6.502
 8256WAT     H133744   2.520   2.177   6.446
 8256WAT     H233745   2.403   2.148   6.511
 8256WAT    EPW33746   2.462   2.197   6.495
 8257WAT      O33747   2.303   2.860   6.654
 8257WAT     H133748   2.227   2.823   6.633
 8257WAT     H233749   2.344   2.869   6.578
 8257WAT    EPW33750   2.298   2.856   6.640
 8258WAT      O33751   2.257   1.556   6.865
 8258WAT     H133752   2.341   1.578   6.861
 8258WAT     H233753   2.215   1.625   6.831
 8258WAT    EPW33754   2.263   1.569   6.859
 8259WAT      O33755   3.912   2.663   7.381
 8259WAT     H133756   3.847   2.664   7.322
 8259WAT     H233757   3.870   2.669   7.457
 8259WAT    EPW33758   3.896   2.664   7.383
 8260WAT      O33759   3.506   1.888   5.941
 8260WAT     H133760   3.499   1.968   5.907
 8260WAT     H233761   3.476   1.897   6.022
 8260WAT    EPW33762   3.500   1.901   5.948
 8261WAT      O33763   2.602   2.139   6.267
 8261WAT     H133764   2.628   2.218   6.242
 8261WAT     H233765   2.663   2.086   6.234
 8261WAT    EPW33766   2.615   2.143   6.259
 8262WAT      O33767   3.771   1.364   5.903
 8262WAT     H133768   3.756   1.298   5.848
 8262WAT     H233769   3.759   1.435   5.853
 8262WAT    EPW33770   3.767   1.365   5.887
 8263WAT      O33771   2.104   2.316   6.663
 8263WAT     H133772   2.054   2.378   6.700
 8263WAT     H233773   2.184   2.352   6.665
 8263WAT    EPW33774   2.108   2.331   6.669
 8264WAT      O33775   3.925   1.780   7.169
 8264WAT     H133776   3.946   1.706   7.128
 8264WAT     H233777   3.840   1.790   7.152
 8264WAT    EPW33778   3.916   1.771   7.160
 8265WAT      O33779   2.132   1.998   6.264
 8265WAT     H133780   2.115   1.912   6.264
 8265WAT     H233781   2.205   2.004   6.216
 8265WAT    EPW33782   2.141   1.986   6.257
 8266WAT      O33783   3.678   1.257   6.147
 8266WAT     H133784   3.755   1.220   6.166
 8266WAT     H233785   3.695   1.303   6.075
 8266WAT    EPW33786   3.692   1.259   6.139
 8267WAT      O33787   3.091   2.587   6.600
 8267WAT     H133788   3.042   2.656   6.577
 8267WAT     H233789   3.121   2.557   6.524
 8267WAT    EPW33790   3.088   2.593   6.585
 8268WAT      O33791   2.046   2.468   6.190
 8268WAT     H133792   2.100   2.524   6.232
 8268WAT     H233793   2.042   2.400   6.245
 8268WAT    EPW33794   2.054   2.466   6.204
 8269WAT      O33795   2.473   2.267   6.895
 8269WAT     H133796   2.529   2.309   6.948
 8269WAT     H233797   2.525   2.218   6.844
 8269WAT    EPW33798   2.489   2.266   6.895
 8270WAT      O33799   3.372   1.512   6.612
 8270WAT     H133800   3.403   1.479   6.687
 8270WAT     H233801   3.308   1.457   6.590
 8270WAT    EPW33802   3.367   1.499   6.620
 8271WAT      O33803   2.059   2.313   5.955
 8271WAT     H133804   2.133   2.267   5.953
 8271WAT     H233805   2.068   2.364   6.026
 8271WAT    EPW33806   2.071   2.314   5.965
 8272WAT      O33807   2.129   2.047   6.729
 8272WAT     H133808   2.180   2.026   6.661
 8272WAT     H233809   2.118   2.133   6.719
 8272WAT    EPW33810   2.135   2.057   6.717
 8273WAT      O33811   2.806   1.469   6.081
 8273WAT     H133812   2.795   1.441   5.999
 8273WAT     H233813   2.771   1.549   6.080
 8273WAT    EPW33814   2.799   1.477   6.069
 8274WAT      O33815   3.660   2.669   7.236
 8274WAT     H133816   3.623   2.747   7.243
 8274WAT     H233817   3.657   2.651   7.151
 8274WAT    EPW33818   3.654   2.678   7.224
 8275WAT      O33819   2.608   2.492   6.526
 8275WAT     H133820   2.611   2.576   6.549
 8275WAT     H233821   2.680   2.458   6.563
 8275WAT    EPW33822   2.619   2.500   6.535
 8276WAT      O33823   2.228   1.716   7.492
 8276WAT     H133824   2.247   1.639   7.529
 8276WAT     H233825   2.273   1.715   7.418
 8276WAT    EPW33826   2.237   1.704   7.487
 8277WAT      O33827   2.413   1.729   6.079
 8277WAT     H133828   2.398   1.663   6.134
 8277WAT     H233829   2.375   1.704   6.005
 8277WAT    EPW33830   2.405   1.716   6.076
 8278WAT      O33831   2.469   1.906   6.735
 8278WAT     H133832   2.461   1.878   6.652
 8278WAT     H233833   2.483   1.832   6.780
 8278WAT    EPW33834   2.470   1.891   6.729
 8279WAT      O33835   2.455   1.877   7.076
 8279WAT     H133836   2.479   1.826   7.010
 8279WAT     H233837   2.400   1.934   7.039
 8279WAT    EPW33838   2.450   1.878   7.061
 8280WAT      O33839   3.514   1.693   6.888
 8280WAT     H133840   3.447   1.716   6.938
 8280WAT     H233841   3.510   1.749   6.821
 8280WAT    EPW33842   3.503   1.704   6.885
 8281WAT      O33843   2.880   2.796   6.987
 8281WAT     H133844   2.838   2.729   6.951
 8281WAT     H233845   2.873   2.859   6.926
 8281WAT    EPW33846   2.873   2.796   6.973
 8282WAT      O33847   3.068   1.235   7.237
 8282WAT     H133848   3.092   1.154   7.214
 8282WAT     H233849   3.100   1.245   7.318
 8282WAT    EPW33850   3.076   1.225   7.245
 8283WAT      O33851   3.318   1.445   6.243
 8283WAT     H133852   3.374   1.511   6.251
 8283WAT     H233853   3.242   1.485   6.228
 8283WAT    EPW33854   3.315   1.461   6.242
 8284WAT      O33855   2.146   1.977   7.583
 8284WAT     H133856   2.192   2.034   7.536
 8284WAT     H233857   2.178   1.900   7.558
 8284WAT    EPW33858   2.157   1.974   7.572
 8285WAT      O33859   3.423   2.279   7.481
 8285WAT     H133860   3.453   2.359   7.462
 8285WAT     H233861   3.454   2.229   7.416
 8285WAT    EPW33862   3.432   2.283   7.469
 8286WAT      O33863   2.819   2.605   7.525
 8286WAT     H133864   2.824   2.596   7.612
 8286WAT     H233865   2.805   2.523   7.497
 8286WAT    EPW33866   2.817   2.591   7.534
 8287WAT      O33867   2.917   1.581   6.850
 8287WAT     H133868   2.980   1.642   6.853
 8287WAT     H233869   2.955   1.510   6.883
 8287WAT    EPW33870   2.932   1.580   6.855
 8288WAT      O33871   3.168   1.894   6.040
 8288WAT     H133872   3.145   1.951   5.978
 8288WAT     H233873   3.111   1.909   6.104
 8288WAT    EPW33874   3.156   1.905   6.040
 8289WAT      O33875   3.636   2.232   6.503
 8289WAT     H133876   3.666   2.178   6.566
 8289WAT     H233877   3.644   2.184   6.431
 8289WAT    EPW33878   3.642   2.217   6.502
 8290WAT      O33879   3.286   2.632   6.806
 8290WAT     H133880   3.224   2.613   6.748
 8290WAT     H233881   3.331   2.696   6.768
 8290WAT    EPW33882   3.284   2.638   6.792
 8291WAT      O33883   3.278   2.274   6.789
 8291WAT     H133884   3.203   2.303   6.821
 8291WAT     H233885   3.311   2.226   6.853
 8291WAT    EPW33886   3.272   2.271   6.803
 8292WAT      O33887   2.655   2.754   6.176
 8292WAT     H133888   2.659   2.679   6.221
 8292WAT     H233889   2.725   2.752   6.125
 8292WAT    EPW33890   2.666   2.743   6.175
 8293WAT      O33891   2.599   1.126   6.011
 8293WAT     H133892   2.607   1.120   6.097
 8293WAT     H233893   2.554   1.200   5.999
 8293WAT    EPW33894   2.593   1.136   6.022
 8294WAT      O33895   2.892   2.741   6.034
 8294WAT     H133896   2.947   2.753   6.101
 8294WAT     H233897   2.894   2.817   5.992
 8294WAT    EPW33898   2.900   2.754   6.038
 8295WAT      O33899   3.518   2.118   7.282
 8295WAT     H133900   3.487   2.140   7.203
 8295WAT     H233901   3.605   2.129   7.273
 8295WAT    EPW33902   3.526   2.123   7.269
 8296WAT      O33903   3.749   1.059   7.529
 8296WAT     H133904   3.686   1.068   7.469
 8296WAT     H233905   3.705   1.060   7.604
 8296WAT    EPW33906   3.733   1.061   7.531
 8297WAT      O33907   2.383   2.006   6.144
 8297WAT     H133908   2.400   1.921   6.133
 8297WAT     H233909   2.449   2.035   6.192
 8297WAT    EPW33910   2.395   1.998   6.149
 8298WAT      O33911   3.161   2.098   7.141
 8298WAT     H133912   3.107   2.142   7.194
 8298WAT     H233913   3.186   2.030   7.190
 8298WAT    EPW33914   3.157   2.094   7.156
 8299WAT      O33915   2.041   1.121   6.228
 8299WAT     H133916   2.040   1.065   6.161
 8299WAT     H233917   2.009   1.074   6.294
 8299WAT    EPW33918   2.036   1.106   6.228
 8300WAT      O33919   3.013   1.927   6.272
 8300WAT     H133920   3.019   1.993   6.329
 8300WAT     H233921   3.002   1.857   6.324
 8300WAT    EPW33922   3.012   1.927   6.288
 8301WAT      O33923   3.543   2.388   6.801
 8301WAT     H133924   3.581   2.375   6.723
 8301WAT     H233925   3.460   2.367   6.786
 8301WAT    EPW33926   3.536   2.383   6.787
 8302WAT      O33927   2.470   1.364   5.953
 8302WAT     H133928   2.408   1.359   5.892
 8302WAT     H233929   2.537   1.402   5.912
 8302WAT    EPW33930   2.471   1.369   5.938
 8303WAT      O33931   2.912   2.164   6.691
 8303WAT     H133932   2.830   2.140   6.707
 8303WAT     H233933   2.956   2.129   6.758
 8303WAT    EPW33934   2.906   2.155   6.704
 8304WAT      O33935   2.624   2.744   5.780
 8304WAT     H133936   2.638   2.677   5.833
 8304WAT     H233937   2.618   2.812   5.833
 8304WAT    EPW33938   2.625   2.744   5.796
 8305WAT      O33939   2.285   2.070   6.965
 8305WAT     H133940   2.338   2.137   6.949
 8305WAT     H233941   2.243   2.057   6.890
 8305WAT    EPW33942   2.287   2.078   6.952
 8306WAT      O33943   2.617   1.599   6.612
 8306WAT     H133944   2.694   1.560   6.601
 8306WAT     H233945   2.559   1.535   6.600
 8306WAT    EPW33946   2.620   1.584   6.609
 8307WAT      O33947   3.897   2.820   6.015
 8307WAT     H133948   3.962   2.771   5.984
 8307WAT     H233949   3.835   2.762   6.036
 8307WAT    EPW33950   3.898   2.804   6.014
 8308WAT      O33951   2.095   1.722   6.277
 8308WAT     H133952   2.130   1.682   6.346
 8308WAT     H233953   2.107   1.665   6.212
 8308WAT    EPW33954   2.102   1.708   6.278
 8309WAT      O33955   3.639   2.059   6.974
 8309WAT     H133956   3.642   1.988   7.025
 8309WAT     H233957   3.559   2.090   6.986
 8309WAT    EPW33958   3.628   2.053   6.983
 8310WAT      O33959   2.609   1.889   5.825
 8310WAT     H133960   2.586   1.840   5.894
 8310WAT     H233961   2.552   1.866   5.763
 8310WAT    EPW33962   2.597   1.879   5.826
 8311WAT      O33963   2.254   2.168   7.404
 8311WAT     H133964   2.222   2.123   7.337
 8311WAT     H233965   2.225   2.249   7.389
 8311WAT    EPW33966   2.245   2.174   7.392
 8312WAT      O33967   3.728   2.057   6.709
 8312WAT     H133968   3.704   2.063   6.792
 8312WAT     H233969   3.815   2.049   6.714
 8312WAT    EPW33970   3.738   2.057   6.722
 8313WAT      O33971   2.687   1.720   6.050
 8313WAT     H133972   2.715   1.792   6.090
 8313WAT     H233973   2.602   1.715   6.073
 8313WAT    EPW33974   2.678   1.730   6.060
 8314WAT      O33975   3.497   1.483   7.509
 8314WAT     H133976   3.463   1.512   7.584
 8314WAT     H233977   3.454   1.409   7.494
 8314WAT    EPW33978   3.486   1.477   7.518
 8315WAT      O33979   2.080   1.355   6.742
 8315WAT     H133980   2.058   1.389   6.664
 8315WAT     H233981   2.147   1.404   6.767
 8315WAT    EPW33982   2.086   1.367   6.734
 8316WAT      O33983   3.880   2.540   6.787
 8316WAT     H133984   3.904   2.599   6.728
 8316WAT     H233985   3.944   2.544   6.847
 8316WAT    EPW33986   3.893   2.549   6.787
 8317WAT      O33987   3.390   1.882   7.544
 8317WAT     H133988   3.437   1.945   7.583
 8317WAT     H233989   3.310   1.894   7.576
 8317WAT    EPW33990   3.385   1.893   7.555
 8318WAT      O33991   3.649   1.827   7.432
 8318WAT     H133992   3.688   1.901   7.460
 8318WAT     H233993   3.569   1.832   7.465
 8318WAT    EPW33994   3.643   1.839   7.441
 8319WAT      O33995   3.534   2.471   5.990
 8319WAT     H133996   3.571   2.394   6.009
 8319WAT     H233997   3.456   2.466   6.028
 8319WAT    EPW33998   3.528   2.459   5.998
 8320WAT      O33999   3.613   1.621   6.525
 8320WAT     H134000   3.545   1.573   6.554
 8320WAT     H234001   3.604   1.697   6.568
 8320WAT    EPW34002   3.601   1.625   6.535
 8321WAT      O34003   3.792   2.181   7.269
 8321WAT     H134004   3.861   2.134   7.243
 8321WAT     H234005   3.785   2.242   7.207
 8321WAT    EPW34006   3.801   2.183   7.256
 8322WAT      O34007   3.237   2.241   5.937
 8322WAT     H134008   3.315   2.202   5.928
 8322WAT     H234009   3.213   2.257   5.855
 8322WAT    EPW34010   3.245   2.237   5.923
 8323WAT      O34011   2.708   2.377   7.018
 8323WAT     H134012   2.707   2.422   7.093
 8323WAT     H234013   2.715   2.439   6.957
 8323WAT    EPW34014   2.709   2.393   7.020
 8324WAT      O34015   2.524   2.233   7.380
 8324WAT     H134016   2.446   2.200   7.399
 8324WAT     H234017   2.507   2.317   7.363
 8324WAT    EPW34018   2.510   2.240   7.380
 8325WAT      O34019   3.461   1.310   7.190
 8325WAT     H134020   3.513   1.380   7.195
 8325WAT     H234021   3.382   1.345   7.173
 8325WAT    EPW34022   3.457   1.326   7.188
 8326WAT      O34023   3.010   2.024   6.919
 8326WAT     H134024   3.065   2.053   6.981
 8326WAT     H234025   2.931   2.037   6.955
 8326WAT    EPW34026   3.006   2.030   6.934
 8327WAT      O34027   2.647   1.585   7.312
 8327WAT     H134028   2.670   1.507   7.343
 8327WAT     H234029   2.676   1.583   7.230
 8327WAT    EPW34030   2.654   1.573   7.304
 8328WAT      O34031   2.915   2.790   6.501
 8328WAT     H134032   2.923   2.874   6.520
 8328WAT     H234033   2.927   2.787   6.415
 8328WAT    EPW34034   2.918   2.802   6.491
 8329WAT      O34035   3.546   1.108   7.013
 8329WAT     H134036   3.513   1.178   7.052
 8329WAT     H234037   3.630   1.109   7.037
 8329WAT    EPW34038   3.554   1.118   7.022
 8330WAT      O34039   2.800   1.173   7.176
 8330WAT     H134040   2.882   1.202   7.185
 8330WAT     H234041   2.810   1.097   7.134
 8330WAT    EPW34042   2.813   1.166   7.171
 8331WAT      O34043   2.740   2.593   6.846
 8331WAT     H134044   2.676   2.634   6.804
 8331WAT     H234045   2.783   2.551   6.783
 8331WAT    EPW34046   2.737   2.593   6.831
 8332WAT      O34047   3.157   2.233   7.535
 8332WAT     H134048   3.241   2.241   7.514
 8332WAT     H234049   3.116   2.240   7.457
 8332WAT    EPW34050   3.163   2.235   7.520
 8333WAT      O34051   3.475   2.550   7.418
 8333WAT     H134052   3.482   2.615   7.476
 8333WAT     H234053   3.530   2.574   7.355
 8333WAT    EPW34054   3.484   2.563   7.417
 8334WAT      O34055   3.761   1.783   5.929
 8334WAT     H134056   3.812   1.830   5.877
 8334WAT     H234057   3.682   1.819   5.919
 8334WAT    EPW34058   3.757   1.795   5.920
 8335WAT      O34059   2.835   2.040   5.876
 8335WAT     H134060   2.767   1.995   5.845
 8335WAT     H234061   2.805   2.122   5.880
 8335WAT    EPW34062   2.821   2.045   5.872
 8336WAT      O34063   2.520   1.668   6.865
 8336WAT     H134064   2.555   1.642   6.789
 8336WAT     H234065   2.577   1.641   6.924
 8336WAT    EPW34066   2.534   1.660   6.862
 8337WAT      O34067   3.219   1.550   7.423
 8337WAT     H134068   3.163   1.617   7.435
 8337WAT     H234069   3.297   1.587   7.433
 8337WAT    EPW34070   3.222   1.565   7.426
 8338WAT      O34071   3.287   1.716   7.049
 8338WAT     H134072   3.285   1.766   7.120
 8338WAT     H234073   3.268   1.637   7.079
 8338WAT    EPW34074   3.284   1.712   7.064
 8339WAT      O34075   2.998   2.813   7.442
 8339WAT     H134076   3.016   2.803   7.358
 8339WAT     H234077   2.960   2.737   7.464
 8339WAT    EPW34078   2.995   2.800   7.433
 8340WAT      O34079   3.496   1.667   6.277
 8340WAT     H134080   3.522   1.648   6.359
 8340WAT     H234081   3.568   1.697   6.239
 8340WAT    EPW34082   3.511   1.668   6.284
 8341WAT      O34083   2.825   1.163   6.813
 8341WAT     H134084   2.743   1.147   6.835
 8341WAT     H234085   2.822   1.171   6.726
 8341WAT    EPW34086   2.813   1.162   6.803
 8342WAT      O34087   3.637   1.252   6.427
 8342WAT     H134088   3.560   1.217   6.445
 8342WAT     H234089   3.633   1.269   6.342
 8342WAT    EPW34090   3.625   1.249   6.417
 8343WAT      O34091   3.634   2.073   6.258
 8343WAT     H134092   3.683   2.001   6.252
 8343WAT     H234093   3.552   2.043   6.248
 8343WAT    EPW34094   3.629   2.058   6.256
 8344WAT      O34095   3.001   2.266   7.304
 8344WAT     H134096   2.926   2.268   7.349
 8344WAT     H234097   3.007   2.348   7.273
 8344WAT    EPW34098   2.991   2.279   7.306
 8345WAT      O34099   2.070   1.252   7.487
 8345WAT     H134100   2.040   1.305   7.424
 8345WAT     H234101   1.998   1.210   7.514
 8345WAT    EPW34102   2.055   1.254   7.482
 8346WAT      O34103   2.577   2.896   6.900
 8346WAT     H134104   2.578   2.866   6.982
 8346WAT     H234105   2.542   2.830   6.855
 8346WAT    EPW34106   2.572   2.882   6.906
 8347WAT      O34107   2.386   1.475   6.198
 8347WAT     H134108   2.398   1.439   6.120
 8347WAT     H234109   2.305   1.451   6.219
 8347WAT    EPW34110   2.376   1.466   6.190
 8348WAT      O34111   3.275   2.237   6.512
 8348WAT     H134112   3.274   2.252   6.598
 8348WAT     H234113   3.313   2.158   6.505
 8348WAT    EPW34114   3.281   2.228   6.524
 8349WAT      O34115   3.023   2.151   6.439
 8349WAT     H134116   2.984   2.147   6.517
 8349WAT     H234117   3.103   2.180   6.458
 8349WAT    EPW34118   3.029   2.155   6.453
 8350WAT      O34119   3.007   2.544   7.248
 8350WAT     H134120   3.061   2.539   7.317
 8350WAT     H234121   3.034   2.617   7.207
 8350WAT    EPW34122   3.019   2.554   7.252
 8351WAT      O34123   3.848   1.631   7.476
 8351WAT     H134124   3.792   1.696   7.461
 8351WAT     H234125   3.926   1.671   7.478
 8351WAT    EPW34126   3.851   1.646   7.474
 8352WAT      O34127   3.261   1.878   7.279
 8352WAT     H134128   3.196   1.847   7.327
 8352WAT     H234129   3.323   1.897   7.337
 8352WAT    EPW34130   3.261   1.876   7.294
 8353WAT      O34131   2.210   2.869   7.409
 8353WAT     H134132   2.152   2.804   7.402
 8353WAT     H234133   2.163   2.936   7.439
 8353WAT    EPW34134   2.195   2.869   7.413
 8354WAT      O34135   3.135   1.973   7.635
 8354WAT     H134136   3.140   2.056   7.606
 8354WAT     H234137   3.112   1.982   7.718
 8354WAT    EPW34138   3.133   1.987   7.643
 8355WAT      O34139   3.416   2.878   6.749
 8355WAT     H134140   3.357   2.938   6.774
 8355WAT     H234141   3.479   2.886   6.808
 8355WAT    EPW34142   3.416   2.888   6.761
 8356WAT      O34143   3.060   2.369   6.941
 8356WAT     H134144   2.981   2.374   6.978
 8356WAT     H234145   3.113   2.406   6.999
 8356WAT    EPW34146   3.056   2.375   6.955
 8357WAT      O34147   2.384   1.679   7.260
 8357WAT     H134148   2.404   1.747   7.209
 8357WAT     H234149   2.462   1.648   7.284
 8357WAT    EPW34150   2.399   1.685   7.256
 8358WAT      O34151   2.195   1.522   7.131
 8358WAT     H134152   2.211   1.532   7.046
 8358WAT     H234153   2.251   1.576   7.170
 8358WAT    EPW34154   2.205   1.531   7.124
 8359WAT      O34155   3.724   1.809   6.203
 8359WAT     H134156   3.742   1.807   6.117
 8359WAT     H234157   3.794   1.773   6.239
 8359WAT    EPW34158   3.737   1.803   6.195
 8360WAT      O34159   2.430   1.255   7.417
 8360WAT     H134160   2.387   1.180   7.431
 8360WAT     H234161   2.409   1.275   7.335
 8360WAT    EPW34162   2.420   1.247   7.407
 8361WAT      O34163   3.141   2.512   6.328
 8361WAT     H134164   3.119   2.592   6.301
 8361WAT     H234165   3.069   2.466   6.318
 8361WAT    EPW34166   3.127   2.517   6.323
 8362WAT      O34167   3.648   1.826   7.151
 8362WAT     H134168   3.623   1.743   7.142
 8362WAT     H234169   3.643   1.840   7.237
 8362WAT    EPW34170   3.643   1.816   7.162
 8363WAT      O34171   2.135   2.033   7.196
 8363WAT     H134172   2.176   2.048   7.120
 8363WAT     H234173   2.111   1.950   7.190
 8363WAT    EPW34174   2.137   2.023   7.184
 8364WAT      O34175   2.285   1.629   5.844
 8364WAT     H134176   2.213   1.626   5.893
 8364WAT     H234177   2.288   1.550   5.807
 8364WAT    EPW34178   2.275   1.617   5.846
 8365WAT      O34179   3.176   1.281   7.492
 8365WAT     H134180   3.183   1.368   7.480
 8365WAT     H234181   3.098   1.272   7.530
 8365WAT    EPW34182   3.165   1.293   7.496
 8366WAT      O34183   3.144   1.350   6.591
 8366WAT     H134184   3.066   1.390   6.590
 8366WAT     H234185   3.137   1.288   6.531
 8366WAT    EPW34186   3.131   1.347   6.582
 8367WAT      O34187   2.615   2.519   5.975
 8367WAT     H134188   2.648   2.519   6.055
 8367WAT     H234189   2.530   2.502   5.987
 8367WAT    EPW34190   2.607   2.516   5.988
 8368WAT      O34191   3.472   1.418   6.854
 8368WAT     H134192   3.552   1.385   6.864
 8368WAT     H234193   3.482   1.502   6.878
 8368WAT    EPW34194   3.485   1.426   6.859
 8369WAT      O34195   2.636   2.007   7.250
 8369WAT     H134196   2.596   2.073   7.289
 8369WAT     H234197   2.573   1.968   7.204
 8369WAT    EPW34198   2.621   2.011   7.249
 8370WAT      O34199   3.543   1.857   6.658
 8370WAT     H134200   3.606   1.917   6.671
 8370WAT     H234201   3.486   1.897   6.606
 8370WAT    EPW34202   3.544   1.872   6.652
 8371WAT      O34203   3.541   2.701   6.330
 8371WAT     H134204   3.512   2.626   6.365
 8371WAT     H234205   3.597   2.674   6.268
 8371WAT    EPW34206   3.545   2.686   6.326
 8372WAT      O34207   2.358   2.434   6.044
 8372WAT     H134208   2.355   2.416   6.129
 8372WAT     H234209   2.369   2.356   6.007
 8372WAT    EPW34210   2.359   2.420   6.051
 8373WAT      O34211   2.668   2.269   5.862
 8373WAT     H134212   2.589   2.234   5.875
 8373WAT     H234213   2.660   2.349   5.896
 8373WAT    EPW34214   2.655   2.276   5.869
 8374WAT      O34215   2.617   1.333   7.036
 8374WAT     H134216   2.538   1.316   7.068
 8374WAT     H234217   2.669   1.276   7.076
 8374WAT    EPW34218   2.613   1.322   7.047
 8375WAT      O34219   3.804   1.198   7.124
 8375WAT     H134220   3.815   1.262   7.182
 8375WAT     H234221   3.882   1.159   7.121
 8375WAT    EPW34222   3.817   1.202   7.132
 8376WAT      O34223   3.010   1.337   6.934
 8376WAT     H134224   2.950   1.282   6.901
 8376WAT     H234225   3.086   1.301   6.911
 8376WAT    EPW34226   3.012   1.324   6.925
 8377WAT      O34227   3.315   2.466   7.040
 8377WAT     H134228   3.334   2.536   7.087
 8377WAT     H234229   3.313   2.496   6.958
 8377WAT    EPW34230   3.317   2.480   7.035
 8378WAT      O34231   3.284   2.872   7.479
 8378WAT     H134232   3.209   2.827   7.481
 8378WAT     H234233   3.259   2.955   7.493
 8378WAT    EPW34234   3.269   2.878   7.481
 8379WAT      O34235   2.798   1.812   7.378
 8379WAT     H134236   2.750   1.741   7.367
 8379WAT     H234237   2.751   1.876   7.340
 8379WAT    EPW34238   2.784   1.811   7.371
 8380WAT      O34239   2.869   1.157   5.950
 8380WAT     H134240   2.878   1.165   5.864
 8380WAT     H234241   2.782   1.157   5.962
 8380WAT    EPW34242   2.857   1.158   5.939
 8381WAT      O34243   3.766   2.311   7.019
 8381WAT     H134244   3.736   2.232   6.996
 8381WAT     H234245   3.712   2.366   6.978
 8381WAT    EPW34246   3.753   2.308   7.010
 8382WAT      O34247   2.650   2.817   7.425
 8382WAT     H134248   2.693   2.891   7.440
 8382WAT     H234249   2.706   2.755   7.452
 8382WAT    EPW34250   2.665   2.818   7.431
 8383WAT      O34251   3.655   2.595   6.956
 8383WAT     H134252   3.727   2.595   6.907
 8383WAT     H234253   3.598   2.547   6.911
 8383WAT    EPW34254   3.657   2.588   6.942
 8384WAT      O34255   2.363   1.301   7.155
 8384WAT     H134256   2.310   1.235   7.134
 8384WAT     H234257   2.314   1.372   7.144
 8384WAT    EPW34258   2.348   1.302   7.150
 8385WAT      O34259   3.251   1.245   6.826
 8385WAT     H134260   3.316   1.300   6.846
 8385WAT     H234261   3.219   1.277   6.752
 8385WAT    EPW34262   3.256   1.258   6.818
 8386WAT      O34263   2.414   2.709   7.523
 8386WAT     H134264   2.486   2.755   7.506
 8386WAT     H234265   2.349   2.761   7.495
 8386WAT    EPW34266   2.415   2.723   7.517
 8387WAT      O34267   3.216   1.743   6.582
 8387WAT     H134268   3.271   1.676   6.594
 8387WAT     H234269   3.185   1.758   6.662
 8387WAT    EPW34270   3.220   1.735   6.596
 8388WAT      O34271   2.222   1.634   6.512
 8388WAT     H134272   2.178   1.660   6.583
 8388WAT     H234273   2.261   1.561   6.538
 8388WAT    EPW34274   2.221   1.627   6.527
 8389WAT      O34275   2.198   2.435   7.314
 8389WAT     H134276   2.149   2.502   7.343
 8389WAT     H234277   2.279   2.466   7.320
 8389WAT    EPW34278   2.202   2.450   7.319
 8390WAT      O34279   3.394   1.914   6.206
 8390WAT     H134280   3.415   1.833   6.227
 8390WAT     H234281   3.319   1.906   6.161
 8390WAT    EPW34282   3.386   1.901   6.202
 8391WAT      O34283   2.376   2.770   6.169
 8391WAT     H134284   2.341   2.757   6.090
 8391WAT     H234285   2.461   2.758   6.156
 8391WAT    EPW34286   2.383   2.766   6.155
 8392WAT      O34287   2.776   1.966   6.138
 8392WAT     H134288   2.802   1.997   6.061
 8392WAT     H234289   2.851   1.956   6.182
 8392WAT    EPW34290   2.791   1.969   6.133
 8393WAT      O34291   3.592   2.839   5.860
 8393WAT     H134292   3.644   2.893   5.814
 8393WAT     H234293   3.611   2.760   5.828
 8393WAT    EPW34294   3.603   2.836   5.848
 8394WAT      O34295   3.772   2.058   7.524
 8394WAT     H134296   3.853   2.035   7.549
 8394WAT     H234297   3.786   2.109   7.454
 8394WAT    EPW34298   3.786   2.062   7.517
 8395WAT      O34299   3.260   2.480   6.073
 8395WAT     H134300   3.238   2.473   6.157
 8395WAT     H234301   3.252   2.398   6.042
 8395WAT    EPW34302   3.256   2.467   6.081
 8396WAT      O34303   3.734   1.453   7.665
 8396WAT     H134304   3.787   1.510   7.627
 8396WAT     H234305   3.664   1.451   7.613
 8396WAT    EPW34306   3.731   1.461   7.652
 8397WAT      O34307   3.789   1.640   6.919
 8397WAT     H134308   3.706   1.667   6.914
 8397WAT     H234309   3.782   1.553   6.919
 8397WAT    EPW34310   3.776   1.631   6.918
 8398WAT      O34311   2.703   1.314   7.398
 8398WAT     H134312   2.724   1.271   7.325
 8398WAT     H234313   2.620   1.292   7.411
 8398WAT    EPW34314   2.694   1.304   7.389
 8399WAT      O34315   3.529   2.089   7.660
 8399WAT     H134316   3.612   2.084   7.632
 8399WAT     H234317   3.498   2.159   7.618
 8399WAT    EPW34318   3.537   2.099   7.650
 8400WAT      O34319   2.427   2.670   6.806
 8400WAT     H134320   2.411   2.592   6.770
 8400WAT     H234321   2.387   2.726   6.754
 8400WAT    EPW34322   2.419   2.667   6.793
 8401WAT      O34323   2.971   2.278   6.025
 8401WAT     H134324   3.050   2.246   6.006
 8401WAT     H234325   2.966   2.351   5.978
 8401WAT    EPW34326   2.982   2.284   6.015
 8402WAT      O34327   2.176   2.923   7.138
 8402WAT     H134328   2.188   2.905   7.223
 8402WAT     H234329   2.209   2.853   7.098
 8402WAT    EPW34330   2.182   2.910   7.145
 8403WAT      O34331   3.201   1.128   4.484
 8403WAT     H134332   3.225   1.171   4.412
 8403WAT     H234333   3.277   1.102   4.519
 8403WAT    EPW34334   3.216   1.131   4.479
 8404WAT      O34335   3.189   1.873   4.916
 8404WAT     H134336   3.257   1.908   4.874
 8404WAT     H234337   3.227   1.828   4.981
 8404WAT    EPW34338   3.205   1.871   4.920
 8405WAT      O34339   2.097   2.255   4.476
 8405WAT     H134340   2.069   2.265   4.558
 8405WAT     H234341   2.090   2.169   4.462
 8405WAT    EPW34342   2.092   2.244   4.486
 8406WAT      O34343   2.075   1.601   4.117
 8406WAT     H134344   2.010   1.648   4.085
 8406WAT     H234345   2.044   1.520   4.117
 8406WAT    EPW34346   2.061   1.596   4.113
 8407WAT      O34347   2.328   2.186   4.064
 8407WAT     H134348   2.315   2.143   3.989
 8407WAT     H234349   2.344   2.123   4.122
 8407WAT    EPW34350   2.328   2.170   4.062
 8408WAT      O34351   3.334   1.940   4.659
 8408WAT     H134352   3.346   1.969   4.578
 8408WAT     H234353   3.291   1.865   4.649
 8408WAT    EPW34354   3.329   1.933   4.646
 8409WAT      O34355   2.337   2.380   4.423
 8409WAT     H134356   2.398   2.343   4.474
 8409WAT     H234357   2.265   2.335   4.441
 8409WAT    EPW34358   2.336   2.368   4.433
 8410WAT      O34359   2.787   1.326   4.380
 8410WAT     H134360   2.771   1.406   4.348
 8410WAT     H234361   2.853   1.297   4.332
 8410WAT    EPW34362   2.794   1.334   4.368
 8411WAT      O34363   2.208   2.662   4.040
 8411WAT     H134364   2.255   2.674   3.967
 8411WAT     H234365   2.245   2.592   4.076
 8411WAT    EPW34366   2.221   2.654   4.035
 8412WAT      O34367   2.057   2.448   5.106
 8412WAT     H134368   2.074   2.444   5.191
 8412WAT     H234369   1.989   2.394   5.095
 8412WAT    EPW34370   2.050   2.440   5.117
 8413WAT      O34371   2.763   2.308   5.600
 8413WAT     H134372   2.737   2.292   5.682
 8413WAT     H234373   2.693   2.287   5.552
 8413WAT    EPW34374   2.749   2.303   5.605
 8414WAT      O34375   2.325   1.994   4.633
 8414WAT     H134376   2.262   2.004   4.573
 8414WAT     H234377   2.371   1.927   4.603
 8414WAT    EPW34378   2.322   1.986   4.619
 8415WAT      O34379   2.711   1.582   5.126
 8415WAT     H134380   2.787   1.580   5.083
 8415WAT     H234381   2.690   1.498   5.135
 8415WAT    EPW34382   2.719   1.569   5.121
 8416WAT      O34383   2.826   2.649   5.326
 8416WAT     H134384   2.835   2.680   5.245
 8416WAT     H234385   2.896   2.596   5.335
 8416WAT    EPW34386   2.838   2.645   5.315
 8417WAT      O34387   2.452   1.783   4.518
 8417WAT     H134388   2.513   1.745   4.568
 8417WAT     H234389   2.382   1.733   4.530
 8417WAT    EPW34390   2.451   1.770   4.527
 8418WAT      O34391   2.867   2.471   4.708
 8418WAT     H134392   2.888   2.387   4.718
 8418WAT     H234393   2.942   2.508   4.683
 8418WAT    EPW34394   2.881   2.464   4.706
 8419WAT      O34395   2.900   2.329   4.347
 8419WAT     H134396   2.958   2.303   4.407
 8419WAT     H234397   2.932   2.298   4.272
 8419WAT    EPW34398   2.913   2.320   4.345
 8420WAT      O34399   3.041   1.820   5.561
 8420WAT     H134400   2.956   1.819   5.545
 8420WAT     H234401   3.049   1.876   5.628
 8420WAT    EPW34402   3.030   1.828   5.569
 8421WAT      O34403   2.517   1.294   4.461
 8421WAT     H134404   2.476   1.350   4.408
 8421WAT     H234405   2.601   1.302   4.439
 8421WAT    EPW34406   2.523   1.303   4.450
 8422WAT      O34407   3.520   1.095   5.508
 8422WAT     H134408   3.491   1.154   5.451
 8422WAT     H234409   3.447   1.068   5.548
 8422WAT    EPW34410   3.505   1.099   5.506
 8423WAT      O34411   2.868   1.261   4.651
 8423WAT     H134412   2.866   1.344   4.680
 8423WAT     H234413   2.842   1.268   4.568
 8423WAT    EPW34414   2.864   1.275   4.643
 8424WAT      O34415   3.326   1.524   3.993
 8424WAT     H134416   3.269   1.587   4.010
 8424WAT     H234417   3.278   1.461   3.957
 8424WAT    EPW34418   3.311   1.524   3.990
 8425WAT      O34419   2.097   1.741   4.849
 8425WAT     H134420   2.091   1.827   4.861
 8425WAT     H234421   2.031   1.709   4.896
 8425WAT    EPW34422   2.086   1.749   4.858
 8426WAT      O34423   2.107   2.726   4.677
 8426WAT     H134424   2.037   2.771   4.650
 8426WAT     H234425   2.133   2.683   4.606
 8426WAT    EPW34426   2.100   2.726   4.662
 8427WAT      O34427   2.729   2.552   4.314
 8427WAT     H134428   2.692   2.551   4.393
 8427WAT     H234429   2.790   2.491   4.320
 8427WAT    EPW34430   2.732   2.543   4.327
 8428WAT      O34431   2.368   1.256   4.888
 8428WAT     H134432   2.335   1.184   4.850
 8428WAT     H234433   2.431   1.224   4.940
 8428WAT    EPW34434   2.373   1.240   4.890
 8429WAT      O34435   2.700   1.449   5.809
 8429WAT     H134436   2.701   1.414   5.729
 8429WAT     H234437   2.742   1.525   5.799
 8429WAT    EPW34438   2.707   1.455   5.796
 8430WAT      O34439   2.210   2.624   4.440
 8430WAT     H134440   2.264   2.556   4.450
 8430WAT     H234441   2.257   2.681   4.394
 8430WAT    EPW34442   2.225   2.622   4.434
 8431WAT      O34443   3.838   1.447   4.602
 8431WAT     H134444   3.784   1.514   4.613
 8431WAT     H234445   3.784   1.378   4.596
 8431WAT    EPW34446   3.822   1.447   4.603
 8432WAT      O34447   2.282   1.366   5.743
 8432WAT     H134448   2.202   1.339   5.723
 8432WAT     H234449   2.331   1.335   5.677
 8432WAT    EPW34450   2.278   1.357   5.730
 8433WAT      O34451   2.372   2.398   4.794
 8433WAT     H134452   2.419   2.359   4.732
 8433WAT     H234453   2.398   2.359   4.868
 8433WAT    EPW34454   2.383   2.387   4.796
 8434WAT      O34455   2.723   2.829   4.626
 8434WAT     H134456   2.802   2.835   4.589
 8434WAT     H234457   2.737   2.859   4.707
 8434WAT    EPW34458   2.737   2.835   4.632
 8435WAT      O34459   2.888   1.175   5.678
 8435WAT     H134460   2.898   1.105   5.627
 8435WAT     H234461   2.824   1.220   5.638
 8435WAT    EPW34462   2.880   1.172   5.664
 8436WAT      O34463   2.994   1.709   4.501
 8436WAT     H134464   3.015   1.660   4.432
 8436WAT     H234465   3.065   1.703   4.552
 8436WAT    EPW34466   3.008   1.701   4.498
 8437WAT      O34467   3.127   1.715   4.035
 8437WAT     H134468   3.151   1.789   4.074
 8437WAT     H234469   3.117   1.738   3.951
 8437WAT    EPW34470   3.129   1.729   4.028
 8438WAT      O34471   2.517   2.867   5.274
 8438WAT     H134472   2.562   2.850   5.347
 8438WAT     H234473   2.469   2.795   5.264
 8438WAT    EPW34474   2.517   2.854   5.284
 8439WAT      O34475   3.764   1.351   5.025
 8439WAT     H134476   3.832   1.342   4.970
 8439WAT     H234477   3.788   1.303   5.094
 8439WAT    EPW34478   3.778   1.342   5.027
 8440WAT      O34479   2.005   1.482   5.463
 8440WAT     H134480   1.998   1.556   5.509
 8440WAT     H234481   2.064   1.502   5.401
 8440WAT    EPW34482   2.013   1.496   5.461
 8441WAT      O34483   3.246   2.537   5.592
 8441WAT     H134484   3.227   2.458   5.623
 8441WAT     H234485   3.326   2.527   5.559
 8441WAT    EPW34486   3.255   2.524   5.592
 8442WAT      O34487   3.270   1.225   4.234
 8442WAT     H134488   3.335   1.188   4.190
 8442WAT     H234489   3.301   1.304   4.255
 8442WAT    EPW34490   3.284   1.231   4.231
 8443WAT      O34491   2.124   1.389   4.381
 8443WAT     H134492   2.102   1.306   4.364
 8443WAT     H234493   2.075   1.409   4.450
 8443WAT    EPW34494   2.114   1.379   4.388
 8444WAT      O34495   2.305   2.720   5.109
 8444WAT     H134496   2.318   2.655   5.165
 8444WAT     H234497   2.332   2.687   5.033
 8444WAT    EPW34498   2.311   2.706   5.106
 8445WAT      O34499   3.047   1.563   4.254
 8445WAT     H134500   3.044   1.479   4.230
 8445WAT     H234501   3.073   1.604   4.181
 8445WAT    EPW34502   3.050   1.556   4.240
 8446WAT      O34503   3.102   2.796   5.244
 8446WAT     H134504   3.169   2.835   5.204
 8446WAT     H234505   3.041   2.789   5.181
 8446WAT    EPW34506   3.103   2.800   5.229
 8447WAT      O34507   3.003   1.294   4.198
 8447WAT     H134508   2.968   1.255   4.128
 8447WAT     H234509   3.085   1.263   4.200
 8447WAT    EPW34510   3.010   1.283   4.187
 8448WAT      O34511   2.860   1.542   4.701
 8448WAT     H134512   2.899   1.594   4.643
 8448WAT     H234513   2.893   1.567   4.777
 8448WAT    EPW34514   2.870   1.553   4.704
 8449WAT      O34515   2.462   1.029   4.528
 8449WAT     H134516   2.480   1.113   4.508
 8449WAT     H234517   2.432   0.996   4.453
 8449WAT    EPW34518   2.461   1.037   4.514
 8450WAT      O34519   2.706   2.160   4.907
 8450WAT     H134520   2.732   2.138   4.988
 8450WAT     H234521   2.655   2.093   4.883
 8450WAT    EPW34522   2.702   2.147   4.916
 8451WAT      O34523   3.234   1.482   5.271
 8451WAT     H134524   3.239   1.521   5.348
 8451WAT     H234525   3.173   1.420   5.283
 8451WAT    EPW34526   3.226   1.479   5.284
 8452WAT      O34527   2.825   2.136   5.155
 8452WAT     H134528   2.798   2.217   5.171
 8452WAT     H234529   2.785   2.089   5.217
 8452WAT    EPW34530   2.815   2.141   5.167
 8453WAT      O34531   3.353   2.153   5.074
 8453WAT     H134532   3.319   2.149   5.155
 8453WAT     H234533   3.364   2.239   5.062
 8453WAT    EPW34534   3.350   2.165   5.084
 8454WAT      O34535   3.443   1.056   4.593
 8454WAT     H134536   3.441   1.030   4.677
 8454WAT     H234537   3.480   0.989   4.551
 8454WAT    EPW34538   3.448   1.043   4.599
 8455WAT      O34539   2.020   2.533   5.777
 8455WAT     H134540   2.083   2.578   5.816
 8455WAT     H234541   2.026   2.453   5.813
 8455WAT    EPW34542   2.030   2.528   5.788
 8456WAT      O34543   2.408   1.432   4.681
 8456WAT     H134544   2.437   1.380   4.618
 8456WAT     H234545   2.399   1.379   4.750
 8456WAT    EPW34546   2.411   1.417   4.682
 8457WAT      O34547   3.656   2.243   3.930
 8457WAT     H134548   3.579   2.282   3.916
 8457WAT     H234549   3.709   2.309   3.950
 8457WAT    EPW34550   3.653   2.259   3.931
 8458WAT      O34551   2.490   2.225   4.594
 8458WAT     H134552   2.552   2.201   4.538
 8458WAT     H234553   2.445   2.151   4.608
 8458WAT    EPW34554   2.493   2.210   4.588
 8459WAT      O34555   2.355   2.848   4.684
 8459WAT     H134556   2.274   2.816   4.683
 8459WAT     H234557   2.346   2.924   4.727
 8459WAT    EPW34558   2.342   2.855   4.690
 8460WAT      O34559   2.273   1.596   5.012
 8460WAT     H134560   2.353   1.625   4.991
 8460WAT     H234561   2.220   1.641   4.959
 8460WAT    EPW34562   2.277   1.607   5.001
 8461WAT      O34563   3.904   2.673   5.430
 8461WAT     H134564   3.829   2.673   5.386
 8461WAT     H234565   3.879   2.666   5.513
 8461WAT    EPW34566   3.890   2.672   5.436
 8462WAT      O34567   3.525   2.005   4.005
 8462WAT     H134568   3.553   2.083   3.977
 8462WAT     H234569   3.541   2.007   4.091
 8462WAT    EPW34570   3.531   2.017   4.014
 8463WAT      O34571   2.670   2.164   4.382
 8463WAT     H134572   2.731   2.225   4.386
 8463WAT     H234573   2.695   2.114   4.314
 8463WAT    EPW34574   2.683   2.165   4.372
 8464WAT      O34575   3.810   1.400   4.055
 8464WAT     H134576   3.850   1.334   4.016
 8464WAT     H234577   3.771   1.443   3.990
 8464WAT    EPW34578   3.810   1.396   4.040
 8465WAT      O34579   2.104   2.313   4.758
 8465WAT     H134580   2.049   2.374   4.787
 8465WAT     H234581   2.183   2.349   4.769
 8465WAT    EPW34582   2.108   2.328   4.764
 8466WAT      O34583   2.836   1.692   5.792
 8466WAT     H134584   2.784   1.731   5.851
 8466WAT     H234585   2.816   1.732   5.717
 8466WAT    EPW34586   2.825   1.704   5.790
 8467WAT      O34587   3.940   1.757   5.249
 8467WAT     H134588   3.990   1.686   5.261
 8467WAT     H234589   3.880   1.730   5.193
 8467WAT    EPW34590   3.939   1.742   5.243
 8468WAT      O34591   2.150   1.986   4.416
 8468WAT     H134592   2.121   1.904   4.410
 8468WAT     H234593   2.213   1.990   4.356
 8468WAT    EPW34594   2.155   1.975   4.407
 8469WAT      O34595   3.672   1.250   4.260
 8469WAT     H134596   3.749   1.213   4.275
 8469WAT     H234597   3.689   1.309   4.197
 8469WAT    EPW34598   3.686   1.254   4.253
 8470WAT      O34599   2.041   2.455   4.295
 8470WAT     H134600   2.092   2.515   4.333
 8470WAT     H234601   2.040   2.390   4.353
 8470WAT    EPW34602   2.049   2.454   4.309
 8471WAT      O34603   2.475   2.273   5.018
 8471WAT     H134604   2.509   2.318   5.084
 8471WAT     H234605   2.545   2.239   4.979
 8471WAT    EPW34606   2.490   2.274   5.022
 8472WAT      O34607   3.380   1.494   4.735
 8472WAT     H134608   3.418   1.465   4.807
 8472WAT     H234609   3.325   1.430   4.713
 8472WAT    EPW34610   3.377   1.480   4.742
 8473WAT      O34611   2.061   2.305   4.059
 8473WAT     H134612   2.134   2.259   4.061
 8473WAT     H234613   2.065   2.355   4.131
 8473WAT    EPW34614   2.072   2.306   4.070
 8474WAT      O34615   2.133   2.048   4.836
 8474WAT     H134616   2.191   2.026   4.776
 8474WAT     H234617   2.119   2.133   4.822
 8474WAT    EPW34618   2.139   2.058   4.825
 8475WAT      O34619   2.770   1.558   4.213
 8475WAT     H134620   2.759   1.512   4.140
 8475WAT     H234621   2.857   1.563   4.221
 8475WAT    EPW34622   2.781   1.552   4.204
 8476WAT      O34623   3.646   2.677   5.289
 8476WAT     H134624   3.642   2.764   5.285
 8476WAT     H234625   3.617   2.652   5.210
 8476WAT    EPW34626   3.641   2.686   5.277
 8477WAT      O34627   2.639   2.566   4.576
 8477WAT     H134628   2.656   2.648   4.598
 8477WAT     H234629   2.702   2.520   4.614
 8477WAT    EPW34630   2.651   2.572   4.585
 8478WAT      O34631   2.394   1.811   5.660
 8478WAT     H134632   2.354   1.750   5.708
 8478WAT     H234633   2.392   1.779   5.579
 8478WAT    EPW34634   2.388   1.797   5.655
 8479WAT      O34635   2.419   1.717   4.164
 8479WAT     H134636   2.405   1.651   4.219
 8479WAT     H234637   2.379   1.690   4.090
 8479WAT    EPW34638   2.411   1.703   4.161
 8480WAT      O34639   2.520   1.967   4.851
 8480WAT     H134640   2.452   1.969   4.796
 8480WAT     H234641   2.519   1.885   4.882
 8480WAT    EPW34642   2.510   1.955   4.848
 8481WAT      O34643   2.460   1.883   5.187
 8481WAT     H134644   2.481   1.834   5.119
 8481WAT     H234645   2.404   1.941   5.154
 8481WAT    EPW34646   2.454   1.885   5.172
 8482WAT      O34647   3.515   1.670   5.009
 8482WAT     H134648   3.448   1.698   5.057
 8482WAT     H234649   3.517   1.725   4.942
 8482WAT    EPW34650   3.506   1.683   5.006
 8483WAT      O34651   2.880   2.758   5.066
 8483WAT     H134652   2.841   2.690   5.026
 8483WAT     H234653   2.859   2.826   5.016
 8483WAT    EPW34654   2.871   2.758   5.053
 8484WAT      O34655   3.080   1.260   5.337
 8484WAT     H134656   3.101   1.180   5.309
 8484WAT     H234657   3.106   1.259   5.420
 8484WAT    EPW34658   3.087   1.248   5.345
 8485WAT      O34659   3.307   1.476   4.346
 8485WAT     H134660   3.369   1.538   4.350
 8485WAT     H234661   3.236   1.520   4.324
 8485WAT    EPW34662   3.306   1.492   4.343
 8486WAT      O34663   2.269   2.046   5.733
 8486WAT     H134664   2.263   2.094   5.661
 8486WAT     H234665   2.314   1.976   5.707
 8486WAT    EPW34666   2.275   2.043   5.719
 8487WAT      O34667   3.447   2.256   5.573
 8487WAT     H134668   3.477   2.336   5.556
 8487WAT     H234669   3.470   2.210   5.502
 8487WAT    EPW34670   3.455   2.261   5.560
 8488WAT      O34671   2.918   2.550   5.634
 8488WAT     H134672   2.945   2.534   5.715
 8488WAT     H234673   2.859   2.488   5.620
 8488WAT    EPW34674   2.913   2.539   5.644
 8489WAT      O34675   2.949   1.584   4.970
 8489WAT     H134676   3.014   1.631   5.006
 8489WAT     H234677   2.978   1.502   4.975
 8489WAT    EPW34678   2.963   1.579   4.976
 8490WAT      O34679   3.187   1.950   4.168
 8490WAT     H134680   3.175   2.015   4.112
 8490WAT     H234681   3.129   1.966   4.231
 8490WAT    EPW34682   3.177   1.962   4.169
 8491WAT      O34683   3.259   2.396   4.802
 8491WAT     H134684   3.271   2.395   4.716
 8491WAT     H234685   3.334   2.428   4.834
 8491WAT    EPW34686   3.272   2.401   4.794
 8492WAT      O34687   2.638   2.821   4.277
 8492WAT     H134688   2.687   2.748   4.278
 8492WAT     H234689   2.666   2.863   4.206
 8492WAT    EPW34690   2.649   2.816   4.267
 8493WAT      O34691   2.594   1.118   4.086
 8493WAT     H134692   2.599   1.097   4.171
 8493WAT     H234693   2.545   1.190   4.085
 8493WAT    EPW34694   2.588   1.126   4.098
 8494WAT      O34695   3.560   2.177   5.330
 8494WAT     H134696   3.560   2.143   5.249
 8494WAT     H234697   3.644   2.184   5.349
 8494WAT    EPW34698   3.572   2.173   5.321
 8495WAT      O34699   3.705   1.177   5.699
 8495WAT     H134700   3.643   1.167   5.639
 8495WAT     H234701   3.694   1.108   5.751
 8495WAT    EPW34702   3.695   1.165   5.698
 8496WAT      O34703   2.377   1.981   4.254
 8496WAT     H134704   2.381   1.898   4.227
 8496WAT     H234705   2.435   1.984   4.319
 8496WAT    EPW34706   2.387   1.969   4.260
 8497WAT      O34707   3.166   2.112   5.283
 8497WAT     H134708   3.112   2.148   5.342
 8497WAT     H234709   3.194   2.040   5.323
 8497WAT    EPW34710   3.162   2.107   5.298
 8498WAT      O34711   2.037   1.121   4.329
 8498WAT     H134712   2.038   1.065   4.262
 8498WAT     H234713   2.005   1.074   4.395
 8498WAT    EPW34714   2.033   1.106   4.329
 8499WAT      O34715   3.014   1.980   4.383
 8499WAT     H134716   3.041   2.042   4.439
 8499WAT     H234717   3.007   1.909   4.434
 8499WAT    EPW34718   3.017   1.978   4.399
 8500WAT      O34719   2.453   1.355   4.058
 8500WAT     H134720   2.396   1.351   3.992
 8500WAT     H234721   2.517   1.405   4.026
 8500WAT    EPW34722   2.454   1.362   4.044
 8501WAT      O34723   2.953   2.223   4.803
 8501WAT     H134724   2.872   2.202   4.827
 8501WAT     H234725   2.978   2.281   4.863
 8501WAT    EPW34726   2.945   2.228   4.815
 8502WAT      O34727   2.601   2.762   3.880
 8502WAT     H134728   2.612   2.694   3.934
 8502WAT     H234729   2.627   2.830   3.927
 8502WAT    EPW34730   2.606   2.762   3.895
 8503WAT      O34731   2.285   2.073   5.075
 8503WAT     H134732   2.339   2.139   5.059
 8503WAT     H234733   2.237   2.067   5.003
 8503WAT    EPW34734   2.286   2.082   5.062
 8504WAT      O34735   2.595   1.632   4.709
 8504WAT     H134736   2.676   1.600   4.702
 8504WAT     H234737   2.544   1.562   4.699
 8504WAT    EPW34738   2.599   1.617   4.706
 8505WAT      O34739   2.088   1.716   4.381
 8505WAT     H134740   2.124   1.675   4.449
 8505WAT     H234741   2.103   1.662   4.314
 8505WAT    EPW34742   2.095   1.702   4.382
 8506WAT      O34743   3.625   2.064   5.071
 8506WAT     H134744   3.624   1.992   5.119
 8506WAT     H234745   3.540   2.078   5.052
 8506WAT    EPW34746   3.612   2.056   5.075
 8507WAT      O34747   2.569   1.914   3.901
 8507WAT     H134748   2.614   1.977   3.861
 8507WAT     H234749   2.516   1.884   3.839
 8507WAT    EPW34750   2.568   1.919   3.886
 8508WAT      O34751   2.255   2.189   5.499
 8508WAT     H134752   2.218   2.140   5.438
 8508WAT     H234753   2.218   2.268   5.487
 8508WAT    EPW34754   2.244   2.194   5.488
 8509WAT      O34755   3.782   1.984   4.843
 8509WAT     H134756   3.748   2.014   4.917
 8509WAT     H234757   3.804   2.057   4.799
 8509WAT    EPW34758   3.780   1.999   4.847
 8510WAT      O34759   3.481   1.565   5.669
 8510WAT     H134760   3.418   1.511   5.696
 8510WAT     H234761   3.499   1.536   5.589
 8510WAT    EPW34762   3.475   1.552   5.661
 8511WAT      O34763   2.067   1.347   4.852
 8511WAT     H134764   2.051   1.378   4.772
 8511WAT     H234765   2.154   1.355   4.860
 8511WAT    EPW34766   2.078   1.353   4.841
 8512WAT      O34767   3.334   1.846   5.718
 8512WAT     H134768   3.378   1.831   5.792
 8512WAT     H234769   3.261   1.886   5.745
 8512WAT    EPW34770   3.330   1.850   5.733
 8513WAT      O34771   3.514   1.916   5.518
 8513WAT     H134772   3.574   1.967   5.555
 8513WAT     H234773   3.466   1.888   5.585
 8513WAT    EPW34774   3.516   1.919   5.533
 8514WAT      O34775   3.606   1.617   4.622
 8514WAT     H134776   3.542   1.565   4.650
 8514WAT     H234777   3.601   1.687   4.675
 8514WAT    EPW34778   3.596   1.620   4.634
 8515WAT      O34779   3.958   1.849   5.743
 8515WAT     H134780   3.924   1.824   5.667
 8515WAT     H234781   4.015   1.785   5.762
 8515WAT    EPW34782   3.961   1.836   5.734
 8516WAT      O34783   3.838   2.192   5.372
 8516WAT     H134784   3.876   2.122   5.335
 8516WAT     H234785   3.834   2.250   5.307
 8516WAT    EPW34786   3.843   2.190   5.357
 8517WAT      O34787   2.698   2.391   5.167
 8517WAT     H134788   2.661   2.443   5.227
 8517WAT     H234789   2.711   2.443   5.099
 8517WAT    EPW34790   2.695   2.406   5.166
 8518WAT      O34791   2.533   2.226   5.453
 8518WAT     H134792   2.453   2.202   5.479
 8518WAT     H234793   2.521   2.305   5.419
 8518WAT    EPW34794   2.519   2.234   5.452
 8519WAT      O34795   3.441   1.288   5.315
 8519WAT     H134796   3.505   1.346   5.327
 8519WAT     H234797   3.373   1.337   5.292
 8519WAT    EPW34798   3.441   1.304   5.313
 8520WAT      O34799   2.650   1.588   5.407
 8520WAT     H134800   2.663   1.508   5.439
 8520WAT     H234801   2.676   1.581   5.324
 8520WAT    EPW34802   2.656   1.575   5.399
 8521WAT      O34803   3.565   1.079   5.177
 8521WAT     H134804   3.522   1.149   5.209
 8521WAT     H234805   3.649   1.104   5.181
 8521WAT    EPW34806   3.571   1.093   5.182
 8522WAT      O34807   2.814   1.182   5.355
 8522WAT     H134808   2.894   1.214   5.341
 8522WAT     H234809   2.830   1.103   5.388
 8522WAT    EPW34810   2.829   1.175   5.358
 8523WAT      O34811   2.725   2.560   4.941
 8523WAT     H134812   2.648   2.589   4.912
 8523WAT     H234813   2.765   2.531   4.869
 8523WAT    EPW34814   2.719   2.560   4.926
 8524WAT      O34815   3.185   2.258   5.665
 8524WAT     H134816   3.262   2.243   5.628
 8524WAT     H234817   3.129   2.259   5.598
 8524WAT    EPW34818   3.188   2.256   5.650
 8525WAT      O34819   3.512   2.527   5.509
 8525WAT     H134820   3.557   2.552   5.579
 8525WAT     H234821   3.550   2.570   5.443
 8525WAT    EPW34822   3.524   2.537   5.510
 8526WAT      O34823   3.718   1.805   3.956
 8526WAT     H134824   3.793   1.843   3.932
 8526WAT     H234825   3.659   1.869   3.949
 8526WAT    EPW34826   3.720   1.820   3.951
 8527WAT      O34827   2.973   2.120   3.961
 8527WAT     H134828   2.909   2.127   3.902
 8527WAT     H234829   3.041   2.158   3.923
 8527WAT    EPW34830   2.973   2.127   3.947
 8528WAT      O34831   2.527   1.708   4.964
 8528WAT     H134832   2.550   1.681   4.884
 8528WAT     H234833   2.585   1.668   5.016
 8528WAT    EPW34834   2.539   1.698   4.960
 8529WAT      O34835   3.241   1.637   5.506
 8529WAT     H134836   3.172   1.680   5.538
 8529WAT     H234837   3.302   1.649   5.567
 8529WAT    EPW34838   3.240   1.646   5.520
 8530WAT      O34839   3.274   1.724   5.135
 8530WAT     H134840   3.286   1.774   5.205
 8530WAT     H234841   3.262   1.644   5.168
 8530WAT    EPW34842   3.274   1.720   5.150
 8531WAT      O34843   3.037   2.787   5.539
 8531WAT     H134844   3.049   2.784   5.453
 8531WAT     H234845   2.991   2.715   5.556
 8531WAT    EPW34846   3.032   2.776   5.529
 8532WAT      O34847   3.493   1.685   4.377
 8532WAT     H134848   3.531   1.665   4.453
 8532WAT     H234849   3.561   1.702   4.325
 8532WAT    EPW34850   3.509   1.684   4.381
 8533WAT      O34851   2.824   1.139   4.924
 8533WAT     H134852   2.741   1.135   4.950
 8533WAT     H234853   2.818   1.163   4.840
 8533WAT    EPW34854   2.811   1.142   4.916
 8534WAT      O34855   3.647   1.246   4.543
 8534WAT     H134856   3.574   1.205   4.567
 8534WAT     H234857   3.635   1.261   4.458
 8534WAT    EPW34858   3.635   1.242   4.534
 8535WAT      O34859   3.610   2.037   4.272
 8535WAT     H134860   3.621   2.123   4.275
 8535WAT     H234861   3.537   2.023   4.317
 8535WAT    EPW34862   3.601   2.048   4.279
 8536WAT      O34863   3.007   2.271   5.456
 8536WAT     H134864   2.928   2.275   5.494
 8536WAT     H234865   3.014   2.348   5.416
 8536WAT    EPW34866   2.996   2.283   5.456
 8537WAT      O34867   2.042   1.259   5.626
 8537WAT     H134868   2.037   1.329   5.575
 8537WAT     H234869   1.958   1.238   5.640
 8537WAT    EPW34870   2.029   1.266   5.621
 8538WAT      O34871   2.510   2.917   4.987
 8538WAT     H134872   2.509   2.903   5.073
 8538WAT     H234873   2.492   2.838   4.954
 8538WAT    EPW34874   2.507   2.903   4.995
 8539WAT      O34875   2.377   1.471   4.299
 8539WAT     H134876   2.388   1.431   4.223
 8539WAT     H234877   2.295   1.449   4.322
 8539WAT    EPW34878   2.366   1.462   4.291
 8540WAT      O34879   3.085   2.221   4.531
 8540WAT     H134880   3.067   2.215   4.616
 8540WAT     H234881   3.159   2.268   4.529
 8540WAT    EPW34882   3.094   2.227   4.543
 8541WAT      O34883   3.088   2.530   5.351
 8541WAT     H134884   3.129   2.538   5.427
 8541WAT     H234885   3.112   2.601   5.307
 8541WAT    EPW34886   3.098   2.541   5.355
 8542WAT      O34887   3.827   1.808   5.502
 8542WAT     H134888   3.765   1.746   5.503
 8542WAT     H234889   3.863   1.798   5.423
 8542WAT    EPW34890   3.823   1.797   5.490
 8543WAT      O34891   3.288   1.879   5.363
 8543WAT     H134892   3.256   1.814   5.413
 8543WAT     H234893   3.365   1.896   5.399
 8543WAT    EPW34894   3.295   1.872   5.375
 8544WAT      O34895   2.185   2.908   5.496
 8544WAT     H134896   2.150   2.830   5.512
 8544WAT     H234897   2.138   2.962   5.546
 8544WAT    EPW34898   2.173   2.904   5.506
 8545WAT      O34899   3.091   2.001   5.777
 8545WAT     H134900   3.115   2.077   5.743
 8545WAT     H234901   3.009   2.015   5.803
 8545WAT    EPW34902   3.083   2.014   5.776
 8546WAT      O34903   3.078   2.366   5.008
 8546WAT     H134904   3.100   2.412   5.079
 8546WAT     H234905   3.140   2.385   4.950
 8546WAT    EPW34906   3.090   2.376   5.010
 8547WAT      O34907   3.630   2.584   5.755
 8547WAT     H134908   3.716   2.567   5.761
 8547WAT     H234909   3.596   2.541   5.823
 8547WAT    EPW34910   3.638   2.575   5.766
 8548WAT      O34911   2.398   1.707   5.397
 8548WAT     H134912   2.412   1.769   5.336
 8548WAT     H234913   2.475   1.665   5.401
 8548WAT    EPW34914   2.412   1.710   5.389
 8549WAT      O34915   2.202   1.556   5.272
 8549WAT     H134916   2.221   1.564   5.187
 8549WAT     H234917   2.263   1.604   5.311
 8549WAT    EPW34918   2.214   1.564   5.265
 8550WAT      O34919   3.712   1.775   4.228
 8550WAT     H134920   3.703   1.784   4.142
 8550WAT     H234921   3.704   1.857   4.258
 8550WAT    EPW34922   3.710   1.789   4.220
 8551WAT      O34923   2.426   1.246   5.538
 8551WAT     H134924   2.403   1.162   5.537
 8551WAT     H234925   2.405   1.273   5.458
 8551WAT    EPW34926   2.420   1.238   5.526
 8552WAT      O34927   3.609   1.854   5.256
 8552WAT     H134928   3.620   1.768   5.260
 8552WAT     H234929   3.588   1.876   5.338
 8552WAT    EPW34930   3.607   1.844   5.268
 8553WAT      O34931   2.125   2.047   5.300
 8553WAT     H134932   2.170   2.062   5.227
 8553WAT     H234933   2.099   1.964   5.291
 8553WAT    EPW34934   2.128   2.037   5.288
 8554WAT      O34935   2.281   1.621   3.931
 8554WAT     H134936   2.211   1.618   3.983
 8554WAT     H234937   2.283   1.542   3.895
 8554WAT    EPW34938   2.271   1.609   3.933
 8555WAT      O34939   3.146   1.251   5.607
 8555WAT     H134940   3.180   1.314   5.656
 8555WAT     H234941   3.066   1.240   5.641
 8555WAT    EPW34942   3.139   1.259   5.619
 8556WAT      O34943   3.188   1.293   4.708
 8556WAT     H134944   3.104   1.303   4.731
 8556WAT     H234945   3.183   1.247   4.634
 8556WAT    EPW34946   3.175   1.287   4.700
 8557WAT      O34947   2.589   2.550   4.072
 8557WAT     H134948   2.639   2.547   4.143
 8557WAT     H234949   2.510   2.527   4.101
 8557WAT    EPW34950   2.585   2.546   4.087
 8558WAT      O34951   3.494   1.397   4.971
 8558WAT     H134952   3.575   1.368   4.984
 8558WAT     H234953   3.496   1.478   5.001
 8558WAT    EPW34954   3.506   1.404   4.977
 8559WAT      O34955   2.663   2.002   5.344
 8559WAT     H134956   2.623   2.071   5.380
 8559WAT     H234957   2.601   1.965   5.295
 8559WAT    EPW34958   2.648   2.007   5.342
 8560WAT      O34959   3.553   1.835   4.789
 8560WAT     H134960   3.622   1.887   4.797
 8560WAT     H234961   3.496   1.883   4.744
 8560WAT    EPW34962   3.555   1.849   4.784
 8561WAT      O34963   2.345   2.449   4.155
 8561WAT     H134964   2.347   2.434   4.241
 8561WAT     H234965   2.337   2.370   4.120
 8561WAT    EPW34966   2.344   2.435   4.162
 8562WAT      O34967   2.601   2.273   4.009
 8562WAT     H134968   2.520   2.250   4.032
 8562WAT     H234969   2.603   2.358   4.024
 8562WAT    EPW34970   2.589   2.282   4.014
 8563WAT      O34971   2.628   1.333   5.202
 8563WAT     H134972   2.545   1.316   5.222
 8563WAT     H234973   2.672   1.267   5.239
 8563WAT    EPW34974   2.622   1.321   5.210
 8564WAT      O34975   3.825   1.177   5.238
 8564WAT     H134976   3.825   1.215   5.317
 8564WAT     H234977   3.905   1.142   5.232
 8564WAT    EPW34978   3.837   1.178   5.249
 8565WAT      O34979   3.031   1.323   4.970
 8565WAT     H134980   2.971   1.259   4.971
 8565WAT     H234981   3.105   1.281   4.989
 8565WAT    EPW34982   3.033   1.307   4.973
 8566WAT      O34983   3.391   2.436   5.092
 8566WAT     H134984   3.411   2.432   5.177
 8566WAT     H234985   3.439   2.503   5.063
 8566WAT    EPW34986   3.401   2.446   5.100
 8567WAT      O34987   3.399   2.918   5.522
 8567WAT     H134988   3.401   2.936   5.437
 8567WAT     H234989   3.355   2.985   5.556
 8567WAT    EPW34990   3.393   2.930   5.514
 8568WAT      O34991   2.766   1.808   5.532
 8568WAT     H134992   2.732   1.738   5.493
 8568WAT     H234993   2.736   1.874   5.484
 8568WAT    EPW34994   2.756   1.808   5.519
 8569WAT      O34995   2.860   1.148   4.009
 8569WAT     H134996   2.866   1.156   3.922
 8569WAT     H234997   2.774   1.149   4.023
 8569WAT    EPW34998   2.849   1.149   3.998
 8570WAT      O34999   3.799   2.303   5.116
 8570WAT     H135000   3.744   2.242   5.087
 8570WAT     H235001   3.826   2.342   5.043
 8570WAT    EPW35002   3.795   2.300   5.101
 8571WAT      O35003   2.689   2.818   5.499
 8571WAT     H135004   2.672   2.789   5.580
 8571WAT     H235005   2.721   2.747   5.459
 8571WAT    EPW35006   2.691   2.803   5.505
 8572WAT      O35007   2.356   1.319   5.283
 8572WAT     H135008   2.302   1.253   5.263
 8572WAT     H235009   2.306   1.390   5.273
 8572WAT    EPW35010   2.340   1.320   5.279
 8573WAT      O35011   3.293   1.203   4.953
 8573WAT     H135012   3.354   1.262   4.973
 8573WAT     H235013   3.269   1.225   4.872
 8573WAT    EPW35014   3.298   1.215   4.944
 8574WAT      O35015   2.371   2.661   5.692
 8574WAT     H135016   2.452   2.689   5.709
 8574WAT     H235017   2.377   2.629   5.611
 8574WAT    EPW35018   2.384   2.661   5.683
 8575WAT      O35019   3.196   1.701   4.689
 8575WAT     H135020   3.254   1.638   4.706
 8575WAT     H235021   3.180   1.734   4.768
 8575WAT    EPW35022   3.202   1.696   4.703
 8576WAT      O35023   2.227   1.640   4.613
 8576WAT     H135024   2.183   1.663   4.684
 8576WAT     H235025   2.269   1.567   4.637
 8576WAT    EPW35026   2.227   1.632   4.627
 8577WAT      O35027   2.117   2.432   5.389
 8577WAT     H135028   2.087   2.503   5.428
 8577WAT     H235029   2.201   2.451   5.372
 8577WAT    EPW35030   2.125   2.445   5.392
 8578WAT      O35031   3.375   1.937   4.378
 8578WAT     H135032   3.404   1.855   4.376
 8578WAT     H235033   3.323   1.942   4.309
 8578WAT    EPW35034   3.372   1.926   4.368
 8579WAT      O35035   2.362   2.788   4.275
 8579WAT     H135036   2.322   2.778   4.198
 8579WAT     H235037   2.446   2.783   4.256
 8579WAT    EPW35038   2.368   2.786   4.261
 8580WAT      O35039   2.821   2.013   4.186
 8580WAT     H135040   2.864   2.050   4.120
 8580WAT     H235041   2.881   2.005   4.248
 8580WAT    EPW35042   2.836   2.017   4.185
 8581WAT      O35043   3.738   2.054   5.607
 8581WAT     H135044   3.773   1.979   5.578
 8581WAT     H235045   3.762   2.112   5.546
 8581WAT    EPW35046   3.747   2.052   5.593
 8582WAT      O35047   3.750   1.582   5.739
 8582WAT     H135048   3.746   1.650   5.794
 8582WAT     H235049   3.668   1.575   5.709
 8582WAT    EPW35050   3.737   1.591   5.743
 8583WAT      O35051   3.789   1.634   5.039
 8583WAT     H135052   3.703   1.652   5.038
 8583WAT     H235053   3.791   1.548   5.053
 8583WAT    EPW35054   3.777   1.624   5.041
 8584WAT      O35055   2.688   1.334   5.545
 8584WAT     H135056   2.726   1.293   5.478
 8584WAT     H235057   2.607   1.302   5.547
 8584WAT    EPW35058   2.682   1.323   5.536
 8585WAT      O35059   3.483   2.144   5.845
 8585WAT     H135060   3.554   2.175   5.886
 8585WAT     H235061   3.496   2.168   5.762
 8585WAT    EPW35062   3.495   2.152   5.838
 8586WAT      O35063   2.455   2.657   4.864
 8586WAT     H135064   2.428   2.577   4.840
 8586WAT     H235065   2.429   2.707   4.798
 8586WAT    EPW35066   2.447   2.653   4.851
 8587WAT      O35067   2.199   2.954   5.223
 8587WAT     H135068   2.202   2.931   5.307
 8587WAT     H235069   2.229   2.884   5.181
 8587WAT    EPW35070   2.204   2.941   5.229
 8588WAT      O35071   3.209   1.154   2.586
 8588WAT     H135072   3.234   1.224   2.541
 8588WAT     H235073   3.283   1.121   2.618
 8588WAT    EPW35074   3.224   1.159   2.584
 8589WAT      O35075   3.115   1.797   3.049
 8589WAT     H135076   3.076   1.871   3.075
 8589WAT     H235077   3.174   1.782   3.110
 8589WAT    EPW35078   3.118   1.806   3.062
 8590WAT      O35079   2.071   2.251   2.546
 8590WAT     H135080   2.005   2.250   2.603
 8590WAT     H235081   2.086   2.167   2.530
 8590WAT    EPW35082   2.063   2.239   2.552
 8591WAT      O35083   3.673   2.658   2.292
 8591WAT     H135084   3.733   2.614   2.338
 8591WAT     H235085   3.634   2.596   2.244
 8591WAT    EPW35086   3.676   2.642   2.292
 8592WAT      O35087   2.075   1.603   2.217
 8592WAT     H135088   2.009   1.650   2.185
 8592WAT     H235089   2.045   1.521   2.214
 8592WAT    EPW35090   2.061   1.598   2.212
 8593WAT      O35091   2.414   2.173   2.146
 8593WAT     H135092   2.375   2.134   2.079
 8593WAT     H235093   2.412   2.112   2.209
 8593WAT    EPW35094   2.408   2.158   2.145
 8594WAT      O35095   3.342   1.997   2.696
 8594WAT     H135096   3.367   1.977   2.614
 8594WAT     H235097   3.302   1.924   2.723
 8594WAT    EPW35098   3.340   1.983   2.688
 8595WAT      O35099   2.324   2.370   2.511
 8595WAT     H135100   2.383   2.325   2.557
 8595WAT     H235101   2.249   2.330   2.529
 8595WAT    EPW35102   2.322   2.357   2.520
 8596WAT      O35103   2.779   1.265   2.457
 8596WAT     H135104   2.780   1.342   2.416
 8596WAT     H235105   2.853   1.227   2.431
 8596WAT    EPW35106   2.790   1.271   2.447
 8597WAT      O35107   2.200   2.628   2.096
 8597WAT     H135108   2.253   2.646   2.029
 8597WAT     H235109   2.244   2.569   2.142
 8597WAT    EPW35110   2.214   2.622   2.093
 8598WAT      O35111   2.119   2.476   3.244
 8598WAT     H135112   2.153   2.456   3.321
 8598WAT     H235113   2.049   2.423   3.238
 8598WAT    EPW35114   2.114   2.465   3.254
 8599WAT      O35115   2.714   2.133   3.804
 8599WAT     H135116   2.684   2.181   3.870
 8599WAT     H235117   2.673   2.166   3.734
 8599WAT    EPW35118   2.704   2.145   3.803
 8600WAT      O35119   2.322   1.978   2.731
 8600WAT     H135120   2.262   1.992   2.669
 8600WAT     H235121   2.374   1.918   2.695
 8600WAT    EPW35122   2.321   1.971   2.716
 8601WAT      O35123   2.463   1.803   2.567
 8601WAT     H135124   2.529   1.763   2.527
 8601WAT     H235125   2.410   1.737   2.590
 8601WAT    EPW35126   2.465   1.787   2.565
 8602WAT      O35127   2.985   2.410   2.856
 8602WAT     H135128   2.962   2.329   2.878
 8602WAT     H235129   3.065   2.419   2.890
 8602WAT    EPW35130   2.993   2.399   2.865
 8603WAT      O35131   3.076   1.799   3.772
 8603WAT     H135132   3.015   1.837   3.723
 8603WAT     H235133   3.135   1.863   3.784
 8603WAT    EPW35134   3.076   1.814   3.767
 8604WAT      O35135   2.519   1.313   2.562
 8604WAT     H135136   2.479   1.369   2.508
 8604WAT     H235137   2.599   1.304   2.529
 8604WAT    EPW35138   2.525   1.320   2.549
 8605WAT      O35139   3.492   1.061   3.551
 8605WAT     H135140   3.468   1.135   3.512
 8605WAT     H235141   3.422   1.037   3.598
 8605WAT    EPW35142   3.478   1.068   3.552
 8606WAT      O35143   2.838   1.215   2.729
 8606WAT     H135144   2.869   1.295   2.748
 8606WAT     H235145   2.809   1.223   2.647
 8606WAT    EPW35146   2.839   1.228   2.720
 8607WAT      O35147   3.276   1.459   1.999
 8607WAT     H135148   3.237   1.530   2.032
 8607WAT     H235149   3.280   1.405   2.068
 8607WAT    EPW35150   3.271   1.462   2.014
 8608WAT      O35151   2.102   1.750   2.937
 8608WAT     H135152   2.097   1.836   2.945
 8608WAT     H235153   2.032   1.721   2.980
 8608WAT    EPW35154   2.091   1.758   2.944
 8609WAT      O35155   2.095   2.710   2.778
 8609WAT     H135156   2.028   2.754   2.745
 8609WAT     H235157   2.135   2.676   2.708
 8609WAT    EPW35158   2.091   2.712   2.763
 8610WAT      O35159   2.726   2.430   2.542
 8610WAT     H135160   2.675   2.451   2.610
 8610WAT     H235161   2.714   2.344   2.533
 8610WAT    EPW35162   2.717   2.420   2.550
 8611WAT      O35163   3.365   2.734   2.258
 8611WAT     H135164   3.426   2.795   2.270
 8611WAT     H235165   3.391   2.668   2.308
 8611WAT    EPW35166   3.378   2.733   2.267
 8612WAT      O35167   3.173   2.847   2.423
 8612WAT     H135168   3.231   2.867   2.485
 8612WAT     H235169   3.223   2.819   2.357
 8612WAT    EPW35170   3.189   2.846   2.423
 8613WAT      O35171   2.395   1.266   2.993
 8613WAT     H135172   2.340   1.208   2.959
 8613WAT     H235173   2.447   1.217   3.044
 8613WAT    EPW35174   2.395   1.250   2.996
 8614WAT      O35175   2.683   1.482   3.950
 8614WAT     H135176   2.680   1.435   3.876
 8614WAT     H235177   2.725   1.554   3.927
 8614WAT    EPW35178   2.689   1.485   3.936
 8615WAT      O35179   2.225   2.627   2.537
 8615WAT     H135180   2.270   2.553   2.545
 8615WAT     H235181   2.281   2.680   2.496
 8615WAT    EPW35182   2.240   2.624   2.532
 8616WAT      O35183   3.846   1.426   2.712
 8616WAT     H135184   3.805   1.503   2.719
 8616WAT     H235185   3.781   1.368   2.707
 8616WAT    EPW35186   3.830   1.429   2.713
 8617WAT      O35187   2.282   1.354   3.833
 8617WAT     H135188   2.202   1.327   3.813
 8617WAT     H235189   2.331   1.322   3.768
 8617WAT    EPW35190   2.278   1.345   3.821
 8618WAT      O35191   2.347   2.447   2.904
 8618WAT     H135192   2.409   2.454   2.843
 8618WAT     H235193   2.381   2.392   2.963
 8618WAT    EPW35194   2.361   2.440   2.904
 8619WAT      O35195   2.684   2.760   2.804
 8619WAT     H135196   2.760   2.779   2.766
 8619WAT     H235197   2.628   2.813   2.763
 8619WAT    EPW35198   2.687   2.770   2.792
 8620WAT      O35199   2.872   1.178   3.733
 8620WAT     H135200   2.900   1.101   3.702
 8620WAT     H235201   2.946   1.224   3.742
 8620WAT    EPW35202   2.887   1.173   3.730
 8621WAT      O35203   3.008   1.691   2.623
 8621WAT     H135204   3.037   1.651   2.551
 8621WAT     H235205   3.081   1.709   2.667
 8621WAT    EPW35206   3.023   1.688   2.619
 8622WAT      O35207   3.122   1.670   2.134
 8622WAT     H135208   3.142   1.751   2.159
 8622WAT     H235209   3.041   1.678   2.101
 8622WAT    EPW35210   3.113   1.683   2.133
 8623WAT      O35211   2.492   2.865   3.393
 8623WAT     H135212   2.540   2.823   3.452
 8623WAT     H235213   2.428   2.809   3.375
 8623WAT    EPW35214   2.489   2.851   3.399
 8624WAT      O35215   3.759   1.402   3.165
 8624WAT     H135216   3.822   1.382   3.107
 8624WAT     H235217   3.770   1.342   3.228
 8624WAT    EPW35218   3.770   1.390   3.165
 8625WAT      O35219   2.001   1.480   3.562
 8625WAT     H135220   1.995   1.553   3.610
 8625WAT     H235221   2.054   1.503   3.496
 8625WAT    EPW35222   2.008   1.494   3.559
 8626WAT      O35223   2.988   2.570   2.100
 8626WAT     H135224   2.966   2.629   2.160
 8626WAT     H235225   3.067   2.596   2.073
 8626WAT    EPW35226   2.997   2.582   2.105
 8627WAT      O35227   3.275   1.284   2.218
 8627WAT     H135228   3.334   1.219   2.217
 8627WAT     H235229   3.292   1.326   2.292
 8627WAT    EPW35230   3.286   1.280   2.229
 8628WAT      O35231   2.136   1.392   2.485
 8628WAT     H135232   2.113   1.310   2.466
 8628WAT     H235233   2.085   1.413   2.553
 8628WAT    EPW35234   2.125   1.383   2.493
 8629WAT      O35235   2.280   2.713   3.268
 8629WAT     H135236   2.225   2.645   3.269
 8629WAT     H235237   2.320   2.705   3.191
 8629WAT    EPW35238   2.278   2.702   3.256
 8630WAT      O35239   3.066   1.559   2.384
 8630WAT     H135240   2.988   1.524   2.363
 8630WAT     H235241   3.093   1.594   2.309
 8630WAT    EPW35242   3.058   1.559   2.370
 8631WAT      O35243   3.022   1.210   2.321
 8631WAT     H135244   2.973   1.201   2.249
 8631WAT     H235245   3.101   1.231   2.291
 8631WAT    EPW35246   3.026   1.212   2.306
 8632WAT      O35247   2.932   1.478   2.788
 8632WAT     H135248   2.947   1.544   2.732
 8632WAT     H235249   2.962   1.508   2.864
 8632WAT    EPW35250   2.938   1.492   2.791
 8633WAT      O35251   3.431   2.502   2.665
 8633WAT     H135252   3.467   2.576   2.695
 8633WAT     H235253   3.397   2.466   2.737
 8633WAT    EPW35254   3.432   2.508   2.680
 8634WAT      O35255   2.470   2.527   3.612
 8634WAT     H135256   2.533   2.584   3.595
 8634WAT     H235257   2.429   2.562   3.681
 8634WAT    EPW35258   2.473   2.540   3.620
 8635WAT      O35259   2.468   1.048   2.639
 8635WAT     H135260   2.482   1.131   2.617
 8635WAT     H235261   2.441   1.011   2.565
 8635WAT    EPW35262   2.466   1.055   2.625
 8636WAT      O35263   2.650   2.092   2.985
 8636WAT     H135264   2.682   2.089   3.066
 8636WAT     H235265   2.600   2.020   2.980
 8636WAT    EPW35266   2.647   2.081   2.996
 8637WAT      O35267   3.225   1.477   3.380
 8637WAT     H135268   3.222   1.522   3.455
 8637WAT     H235269   3.164   1.415   3.392
 8637WAT    EPW35270   3.215   1.474   3.393
 8638WAT      O35271   2.758   2.116   3.237
 8638WAT     H135272   2.746   2.202   3.245
 8638WAT     H235273   2.730   2.084   3.313
 8638WAT    EPW35274   2.752   2.124   3.250
 8639WAT      O35275   3.439   1.050   2.702
 8639WAT     H135276   3.444   1.020   2.784
 8639WAT     H235277   3.475   0.987   2.654
 8639WAT    EPW35278   3.445   1.036   2.707
 8640WAT      O35279   2.019   2.521   3.874
 8640WAT     H135280   2.073   2.571   3.921
 8640WAT     H235281   2.026   2.443   3.911
 8640WAT    EPW35282   2.028   2.517   3.886
 8641WAT      O35283   3.612   1.528   3.514
 8641WAT     H135284   3.696   1.521   3.536
 8641WAT     H235285   3.571   1.538   3.590
 8641WAT    EPW35286   3.618   1.528   3.528
 8642WAT      O35287   2.440   1.450   2.795
 8642WAT     H135288   2.459   1.401   2.725
 8642WAT     H235289   2.416   1.391   2.854
 8642WAT    EPW35290   2.439   1.434   2.793
 8643WAT      O35291   3.705   2.255   2.206
 8643WAT     H135292   3.682   2.213   2.279
 8643WAT     H235293   3.661   2.213   2.143
 8643WAT    EPW35294   3.695   2.243   2.207
 8644WAT      O35295   2.485   2.199   2.657
 8644WAT     H135296   2.565   2.170   2.639
 8644WAT     H235297   2.444   2.130   2.690
 8644WAT    EPW35298   2.491   2.185   2.659
 8645WAT      O35299   2.294   2.882   2.868
 8645WAT     H135300   2.223   2.840   2.839
 8645WAT     H235301   2.345   2.887   2.797
 8645WAT    EPW35302   2.291   2.876   2.853
 8646WAT      O35303   2.232   1.553   3.083
 8646WAT     H135304   2.319   1.562   3.073
 8646WAT     H235305   2.199   1.622   3.040
 8646WAT    EPW35306   2.240   1.564   3.075
 8647WAT      O35307   3.512   1.888   2.138
 8647WAT     H135308   3.513   1.971   2.111
 8647WAT     H235309   3.486   1.894   2.221
 8647WAT    EPW35310   3.508   1.901   2.146
 8648WAT      O35311   2.749   2.148   2.568
 8648WAT     H135312   2.803   2.108   2.623
 8648WAT     H235313   2.751   2.098   2.496
 8648WAT    EPW35314   2.757   2.135   2.565
 8649WAT      O35315   3.936   1.365   2.123
 8649WAT     H135316   3.892   1.306   2.171
 8649WAT     H235317   3.875   1.400   2.072
 8649WAT    EPW35318   3.921   1.361   2.123
 8650WAT      O35319   2.098   2.319   2.885
 8650WAT     H135320   2.043   2.380   2.913
 8650WAT     H235321   2.175   2.361   2.880
 8650WAT    EPW35322   2.101   2.334   2.888
 8651WAT      O35323   2.817   1.717   3.896
 8651WAT     H135324   2.788   1.756   3.824
 8651WAT     H235325   2.904   1.719   3.887
 8651WAT    EPW35326   2.825   1.723   3.884
 8652WAT      O35327   3.937   1.779   3.321
 8652WAT     H135328   3.984   1.712   3.351
 8652WAT     H235329   3.864   1.776   3.368
 8652WAT    EPW35330   3.933   1.769   3.332
 8653WAT      O35331   2.159   1.990   2.502
 8653WAT     H135332   2.130   1.908   2.498
 8653WAT     H235333   2.222   1.992   2.441
 8653WAT    EPW35334   2.164   1.978   2.492
 8654WAT      O35335   3.612   1.289   2.394
 8654WAT     H135336   3.697   1.275   2.380
 8654WAT     H235337   3.605   1.376   2.392
 8654WAT    EPW35338   3.623   1.299   2.392
 8655WAT      O35339   2.051   2.471   2.380
 8655WAT     H135340   2.104   2.526   2.421
 8655WAT     H235341   2.047   2.402   2.433
 8655WAT    EPW35342   2.058   2.469   2.394
 8656WAT      O35343   2.467   2.277   3.086
 8656WAT     H135344   2.522   2.320   3.140
 8656WAT     H235345   2.520   2.222   3.044
 8656WAT    EPW35346   2.483   2.275   3.088
 8657WAT      O35347   3.335   1.525   2.831
 8657WAT     H135348   3.406   1.494   2.872
 8657WAT     H235349   3.289   1.454   2.813
 8657WAT    EPW35350   3.339   1.510   2.834
 8658WAT      O35351   2.054   2.302   2.151
 8658WAT     H135352   2.131   2.262   2.146
 8658WAT     H235353   2.066   2.360   2.215
 8658WAT    EPW35354   2.067   2.305   2.160
 8659WAT      O35355   2.133   2.050   2.929
 8659WAT     H135356   2.193   2.030   2.870
 8659WAT     H235357   2.120   2.136   2.917
 8659WAT    EPW35358   2.140   2.060   2.919
 8660WAT      O35359   2.797   1.495   2.309
 8660WAT     H135360   2.775   1.481   2.226
 8660WAT     H235361   2.755   1.569   2.330
 8660WAT    EPW35362   2.787   1.504   2.300
 8661WAT      O35363   2.582   2.505   2.764
 8661WAT     H135364   2.597   2.591   2.765
 8661WAT     H235365   2.630   2.475   2.831
 8661WAT    EPW35366   2.591   2.513   2.774
 8662WAT      O35367   2.361   1.814   3.740
 8662WAT     H135368   2.331   1.750   3.791
 8662WAT     H235369   2.357   1.779   3.660
 8662WAT    EPW35370   2.356   1.799   3.736
 8663WAT      O35371   2.424   1.711   2.217
 8663WAT     H135372   2.403   1.652   2.279
 8663WAT     H235373   2.378   1.685   2.148
 8663WAT    EPW35374   2.414   1.698   2.216
 8664WAT      O35375   2.474   1.874   2.992
 8664WAT     H135376   2.414   1.878   2.929
 8664WAT     H235377   2.482   1.789   3.008
 8664WAT    EPW35378   2.466   1.862   2.985
 8665WAT      O35379   2.442   1.910   3.286
 8665WAT     H135380   2.471   1.883   3.209
 8665WAT     H235381   2.381   1.969   3.265
 8665WAT    EPW35382   2.437   1.915   3.271
 8666WAT      O35383   3.513   1.685   3.069
 8666WAT     H135384   3.449   1.703   3.126
 8666WAT     H235385   3.504   1.747   3.008
 8666WAT    EPW35386   3.502   1.697   3.069
 8667WAT      O35387   3.048   1.269   3.450
 8667WAT     H135388   3.072   1.189   3.424
 8667WAT     H235389   3.079   1.274   3.532
 8667WAT    EPW35390   3.056   1.258   3.458
 8668WAT      O35391   3.280   1.401   2.469
 8668WAT     H135392   3.347   1.456   2.479
 8668WAT     H235393   3.213   1.453   2.448
 8668WAT    EPW35394   3.280   1.417   2.468
 8669WAT      O35395   2.259   2.056   3.829
 8669WAT     H135396   2.257   2.107   3.758
 8669WAT     H235397   2.299   1.984   3.802
 8669WAT    EPW35398   2.265   2.053   3.815
 8670WAT      O35399   3.012   1.540   3.043
 8670WAT     H135400   3.039   1.623   3.049
 8670WAT     H235401   3.083   1.494   3.066
 8670WAT    EPW35402   3.027   1.546   3.047
 8671WAT      O35403   3.175   1.919   2.263
 8671WAT     H135404   3.173   1.998   2.225
 8671WAT     H235405   3.120   1.928   2.330
 8671WAT    EPW35406   3.166   1.932   2.267
 8672WAT      O35407   3.686   2.269   2.642
 8672WAT     H135408   3.628   2.332   2.656
 8672WAT     H235409   3.648   2.219   2.581
 8672WAT    EPW35410   3.672   2.271   2.635
 8673WAT      O35411   2.680   2.651   2.377
 8673WAT     H135412   2.698   2.584   2.429
 8673WAT     H235413   2.758   2.688   2.364
 8673WAT    EPW35414   2.694   2.647   2.383
 8674WAT      O35415   2.582   1.125   2.205
 8674WAT     H135416   2.609   1.126   2.288
 8674WAT     H235417   2.540   1.201   2.196
 8674WAT    EPW35418   2.580   1.137   2.216
 8675WAT      O35419   2.928   2.756   2.299
 8675WAT     H135420   2.994   2.779   2.352
 8675WAT     H235421   2.916   2.826   2.249
 8675WAT    EPW35422   2.936   2.769   2.300
 8676WAT      O35423   3.609   2.053   3.385
 8676WAT     H135424   3.541   2.107   3.395
 8676WAT     H235425   3.675   2.098   3.420
 8676WAT    EPW35426   3.608   2.068   3.392
 8677WAT      O35427   3.717   1.131   3.698
 8677WAT     H135428   3.644   1.111   3.654
 8677WAT     H235429   3.704   1.095   3.776
 8677WAT    EPW35430   3.704   1.122   3.703
 8678WAT      O35431   2.384   1.963   2.338
 8678WAT     H135432   2.380   1.890   2.290
 8678WAT     H235433   2.423   1.938   2.411
 8678WAT    EPW35434   2.389   1.949   2.342
 8679WAT      O35435   3.196   2.094   3.324
 8679WAT     H135436   3.235   2.170   3.340
 8679WAT     H235437   3.238   2.038   3.377
 8679WAT    EPW35438   3.208   2.097   3.334
 8680WAT      O35439   2.046   1.124   2.428
 8680WAT     H135440   2.045   1.068   2.361
 8680WAT     H235441   2.013   1.077   2.494
 8680WAT    EPW35442   2.041   1.109   2.428
 8681WAT      O35443   3.015   1.937   2.491
 8681WAT     H135444   3.041   1.997   2.548
 8681WAT     H235445   3.009   1.864   2.539
 8681WAT    EPW35446   3.018   1.935   2.506
 8682WAT      O35447   2.458   1.368   2.156
 8682WAT     H135448   2.398   1.361   2.093
 8682WAT     H235449   2.525   1.408   2.116
 8682WAT    EPW35450   2.459   1.373   2.141
 8683WAT      O35451   2.911   2.143   2.892
 8683WAT     H135452   2.827   2.129   2.909
 8683WAT     H235453   2.951   2.114   2.964
 8683WAT    EPW35454   2.905   2.137   2.905
 8684WAT      O35455   2.576   2.792   2.017
 8684WAT     H135456   2.593   2.714   2.052
 8684WAT     H235457   2.587   2.847   2.083
 8684WAT    EPW35458   2.580   2.788   2.032
 8685WAT      O35459   2.266   2.100   3.175
 8685WAT     H135460   2.321   2.165   3.153
 8685WAT     H235461   2.224   2.083   3.100
 8685WAT    EPW35462   2.268   2.107   3.161
 8686WAT      O35463   2.683   1.478   2.927
 8686WAT     H135464   2.747   1.492   2.869
 8686WAT     H235465   2.613   1.462   2.877
 8686WAT    EPW35466   2.682   1.477   2.911
 8687WAT      O35467   3.816   2.874   2.187
 8687WAT     H135468   3.838   2.935   2.246
 8687WAT     H235469   3.764   2.820   2.232
 8687WAT    EPW35470   3.812   2.875   2.202
 8688WAT      O35471   2.098   1.718   2.479
 8688WAT     H135472   2.140   1.677   2.544
 8688WAT     H235473   2.108   1.663   2.412
 8688WAT    EPW35474   2.106   1.704   2.479
 8689WAT      O35475   3.632   2.063   3.102
 8689WAT     H135476   3.621   2.041   3.186
 8689WAT     H235477   3.636   2.150   3.104
 8689WAT    EPW35478   3.631   2.072   3.115
 8690WAT      O35479   2.632   1.842   2.028
 8690WAT     H135480   2.565   1.809   2.073
 8690WAT     H235481   2.603   1.843   1.946
 8690WAT    EPW35482   2.618   1.837   2.022
 8691WAT      O35483   2.261   2.199   3.592
 8691WAT     H135484   2.219   2.148   3.535
 8691WAT     H235485   2.237   2.279   3.570
 8691WAT    EPW35486   2.251   2.203   3.581
 8692WAT      O35487   3.867   1.933   3.022
 8692WAT     H135488   3.799   1.982   3.045
 8692WAT     H235489   3.930   1.991   3.006
 8692WAT    EPW35490   3.866   1.949   3.023
 8693WAT      O35491   2.657   1.725   2.375
 8693WAT     H135492   2.697   1.802   2.366
 8693WAT     H235493   2.594   1.728   2.315
 8693WAT    EPW35494   2.653   1.737   2.365
 8694WAT      O35495   3.446   1.519   3.745
 8694WAT     H135496   3.419   1.540   3.825
 8694WAT     H235497   3.401   1.446   3.727
 8694WAT    EPW35498   3.436   1.511   3.754
 8695WAT      O35499   2.074   1.349   2.948
 8695WAT     H135500   2.050   1.386   2.873
 8695WAT     H235501   2.133   1.404   2.981
 8695WAT    EPW35502   2.079   1.362   2.942
 8696WAT      O35503   3.294   1.967   3.845
 8696WAT     H135504   3.355   1.976   3.907
 8696WAT     H235505   3.267   2.049   3.832
 8696WAT    EPW35506   3.299   1.981   3.852
 8697WAT      O35507   3.510   1.905   3.671
 8697WAT     H135508   3.575   1.958   3.693
 8697WAT     H235509   3.446   1.926   3.726
 8697WAT    EPW35510   3.510   1.916   3.682
 8698WAT      O35511   3.531   2.465   2.150
 8698WAT     H135512   3.586   2.399   2.167
 8698WAT     H235513   3.475   2.463   2.217
 8698WAT    EPW35514   3.531   2.455   2.162
 8699WAT      O35515   3.699   1.681   2.756
 8699WAT     H135516   3.658   1.665   2.681
 8699WAT     H235517   3.654   1.747   2.791
 8699WAT    EPW35518   3.687   1.688   2.750
 8700WAT      O35519   3.987   1.858   3.879
 8700WAT     H135520   3.969   1.846   3.794
 8700WAT     H235521   4.034   1.932   3.879
 8700WAT    EPW35522   3.991   1.867   3.866
 8701WAT      O35523   3.822   2.194   3.510
 8701WAT     H135524   3.892   2.148   3.485
 8701WAT     H235525   3.856   2.269   3.539
 8701WAT    EPW35526   3.837   2.198   3.511
 8702WAT      O35527   3.195   2.190   2.167
 8702WAT     H135528   3.275   2.223   2.178
 8702WAT     H235529   3.179   2.202   2.082
 8702WAT    EPW35530   3.205   2.196   2.156
 8703WAT      O35531   2.694   2.392   3.218
 8703WAT     H135532   2.725   2.442   3.282
 8703WAT     H235533   2.719   2.434   3.145
 8703WAT    EPW35534   2.702   2.405   3.216
 8704WAT      O35535   2.536   2.240   3.598
 8704WAT     H135536   2.452   2.219   3.599
 8704WAT     H235537   2.536   2.327   3.602
 8704WAT    EPW35538   2.524   2.249   3.599
 8705WAT      O35539   3.454   1.315   3.417
 8705WAT     H135540   3.512   1.376   3.440
 8705WAT     H235541   3.381   1.359   3.401
 8705WAT    EPW35542   3.452   1.330   3.418
 8706WAT      O35543   3.006   2.040   3.132
 8706WAT     H135544   3.069   2.064   3.187
 8706WAT     H235545   2.932   2.058   3.176
 8706WAT    EPW35546   3.004   2.046   3.147
 8707WAT      O35547   2.629   1.588   3.530
 8707WAT     H135548   2.645   1.528   3.591
 8707WAT     H235549   2.626   1.542   3.456
 8707WAT    EPW35550   2.631   1.572   3.528
 8708WAT      O35551   2.931   2.831   2.693
 8708WAT     H135552   2.916   2.917   2.701
 8708WAT     H235553   3.017   2.824   2.700
 8708WAT    EPW35554   2.941   2.843   2.695
 8709WAT      O35555   3.541   1.115   3.238
 8709WAT     H135556   3.508   1.184   3.280
 8709WAT     H235557   3.626   1.119   3.257
 8709WAT    EPW35558   3.549   1.126   3.247
 8710WAT      O35559   2.781   1.236   3.382
 8710WAT     H135560   2.861   1.245   3.416
 8710WAT     H235561   2.750   1.164   3.421
 8710WAT    EPW35562   2.788   1.226   3.393
 8711WAT      O35563   2.762   2.526   2.982
 8711WAT     H135564   2.750   2.607   2.954
 8711WAT     H235565   2.838   2.503   2.947
 8711WAT    EPW35566   2.771   2.534   2.972
 8712WAT      O35567   3.758   1.750   2.106
 8712WAT     H135568   3.803   1.812   2.063
 8712WAT     H235569   3.682   1.788   2.123
 8712WAT    EPW35570   3.754   1.765   2.102
 8713WAT      O35571   2.832   2.034   2.085
 8713WAT     H135572   2.769   1.981   2.057
 8713WAT     H235573   2.796   2.113   2.077
 8713WAT    EPW35574   2.817   2.038   2.079
 8714WAT      O35575   2.509   1.613   3.096
 8714WAT     H135576   2.563   1.576   3.038
 8714WAT     H235577   2.526   1.571   3.170
 8714WAT    EPW35578   2.519   1.601   3.098
 8715WAT      O35579   3.244   1.655   3.595
 8715WAT     H135580   3.183   1.681   3.652
 8715WAT     H235581   3.307   1.621   3.646
 8715WAT    EPW35582   3.244   1.654   3.611
 8716WAT      O35583   3.297   1.715   3.240
 8716WAT     H135584   3.314   1.771   3.305
 8716WAT     H235585   3.277   1.641   3.282
 8716WAT    EPW35586   3.297   1.712   3.256
 8717WAT      O35587   2.806   1.140   3.005
 8717WAT     H135588   2.724   1.120   3.027
 8717WAT     H235589   2.802   1.149   2.918
 8717WAT    EPW35590   2.793   1.138   2.996
 8718WAT      O35591   3.637   1.245   2.667
 8718WAT     H135592   3.568   1.197   2.693
 8718WAT     H235593   3.616   1.267   2.586
 8718WAT    EPW35594   3.624   1.241   2.659
 8719WAT      O35595   3.621   2.100   2.425
 8719WAT     H135596   3.679   2.035   2.431
 8719WAT     H235597   3.544   2.059   2.424
 8719WAT    EPW35598   3.618   2.084   2.426
 8720WAT      O35599   2.038   1.254   3.722
 8720WAT     H135600   2.033   1.324   3.671
 8720WAT     H235601   1.955   1.234   3.738
 8720WAT    EPW35602   2.025   1.261   3.717
 8721WAT      O35603   2.586   2.887   3.121
 8721WAT     H135604   2.569   2.879   3.206
 8721WAT     H235605   2.549   2.817   3.086
 8721WAT    EPW35606   2.578   2.876   3.129
 8722WAT      O35607   2.381   1.490   2.392
 8722WAT     H135608   2.395   1.445   2.319
 8722WAT     H235609   2.302   1.464   2.418
 8722WAT    EPW35610   2.372   1.480   2.385
 8723WAT      O35611   3.289   2.334   2.855
 8723WAT     H135612   3.278   2.362   2.937
 8723WAT     H235613   3.339   2.263   2.863
 8723WAT    EPW35614   3.295   2.328   2.868
 8724WAT      O35615   3.079   2.143   2.667
 8724WAT     H135616   3.039   2.138   2.744
 8724WAT     H235617   3.163   2.130   2.686
 8724WAT    EPW35618   3.086   2.140   2.681
 8725WAT      O35619   3.894   1.829   3.620
 8725WAT     H135620   3.828   1.880   3.646
 8725WAT     H235621   3.944   1.883   3.574
 8725WAT    EPW35622   3.891   1.844   3.617
 8726WAT      O35623   3.331   1.882   3.463
 8726WAT     H135624   3.293   1.816   3.506
 8726WAT     H235625   3.399   1.903   3.513
 8726WAT    EPW35626   3.335   1.875   3.476
 8727WAT      O35627   2.200   2.867   3.626
 8727WAT     H135628   2.140   2.804   3.620
 8727WAT     H235629   2.157   2.935   3.658
 8727WAT    EPW35630   2.185   2.868   3.630
 8728WAT      O35631   2.381   1.709   3.474
 8728WAT     H135632   2.401   1.774   3.420
 8728WAT     H235633   2.459   1.675   3.495
 8728WAT    EPW35634   2.395   1.713   3.469
 8729WAT      O35635   2.175   1.561   3.354
 8729WAT     H135636   2.189   1.560   3.268
 8729WAT     H235637   2.239   1.612   3.385
 8729WAT    EPW35638   2.186   1.568   3.346
 8730WAT      O35639   3.785   1.874   2.420
 8730WAT     H135640   3.727   1.809   2.413
 8730WAT     H235641   3.855   1.836   2.455
 8730WAT    EPW35642   3.787   1.859   2.424
 8731WAT      O35643   2.430   1.245   3.622
 8731WAT     H135644   2.431   1.159   3.606
 8731WAT     H235645   2.402   1.279   3.546
 8731WAT    EPW35646   2.426   1.237   3.608
 8732WAT      O35647   3.181   2.594   2.557
 8732WAT     H135648   3.183   2.675   2.526
 8732WAT     H235649   3.256   2.587   2.601
 8732WAT    EPW35650   3.192   2.605   2.559
 8733WAT      O35651   3.661   1.766   3.366
 8733WAT     H135652   3.627   1.708   3.421
 8733WAT     H235653   3.627   1.842   3.393
 8733WAT    EPW35654   3.651   1.769   3.378
 8734WAT      O35655   2.120   2.053   3.405
 8734WAT     H135656   2.157   2.075   3.329
 8734WAT     H235657   2.093   1.971   3.392
 8734WAT    EPW35658   2.121   2.044   3.392
 8735WAT      O35659   2.262   1.625   2.011
 8735WAT     H135660   2.195   1.623   2.068
 8735WAT     H235661   2.265   1.544   1.980
 8735WAT    EPW35662   2.252   1.613   2.015
 8736WAT      O35663   3.162   1.309   2.806
 8736WAT     H135664   3.090   1.356   2.789
 8736WAT     H235665   3.170   1.258   2.736
 8736WAT    EPW35666   3.152   1.308   2.793
 8737WAT      O35667   2.597   2.538   2.141
 8737WAT     H135668   2.632   2.568   2.214
 8737WAT     H235669   2.517   2.511   2.166
 8737WAT    EPW35670   2.590   2.538   2.155
 8738WAT      O35671   3.503   1.411   3.042
 8738WAT     H135672   3.580   1.387   3.076
 8738WAT     H235673   3.499   1.496   3.058
 8738WAT    EPW35674   3.514   1.420   3.049
 8739WAT      O35675   2.638   2.010   3.466
 8739WAT     H135676   2.605   2.081   3.504
 8739WAT     H235677   2.572   1.981   3.417
 8739WAT    EPW35678   2.624   2.017   3.464
 8740WAT      O35679   3.544   1.893   2.883
 8740WAT     H135680   3.568   1.955   2.940
 8740WAT     H235681   3.491   1.936   2.828
 8740WAT    EPW35682   3.540   1.909   2.883
 8741WAT      O35683   2.354   2.430   2.234
 8741WAT     H135684   2.347   2.419   2.320
 8741WAT     H235685   2.372   2.350   2.204
 8741WAT    EPW35686   2.356   2.416   2.242
 8742WAT      O35687   2.670   2.271   2.062
 8742WAT     H135688   2.593   2.236   2.084
 8742WAT     H235689   2.664   2.354   2.088
 8742WAT    EPW35690   2.658   2.278   2.069
 8743WAT      O35691   2.591   1.421   3.308
 8743WAT     H135692   2.509   1.392   3.318
 8743WAT     H235693   2.640   1.359   3.344
 8743WAT    EPW35694   2.586   1.408   3.315
 8744WAT      O35695   3.797   1.189   3.353
 8744WAT     H135696   3.778   1.187   3.438
 8744WAT     H235697   3.880   1.163   3.349
 8744WAT    EPW35698   3.806   1.185   3.365
 8745WAT      O35699   3.056   1.242   3.118
 8745WAT     H135700   3.018   1.183   3.067
 8745WAT     H235701   3.141   1.228   3.107
 8745WAT    EPW35702   3.063   1.232   3.109
 8746WAT      O35703   2.775   1.814   3.633
 8746WAT     H135704   2.738   1.745   3.594
 8746WAT     H235705   2.742   1.882   3.590
 8746WAT    EPW35706   2.765   1.814   3.621
 8747WAT      O35707   2.850   1.147   2.118
 8747WAT     H135708   2.865   1.157   2.033
 8747WAT     H235709   2.763   1.153   2.124
 8747WAT    EPW35710   2.839   1.149   2.106
 8748WAT      O35711   3.661   2.336   3.175
 8748WAT     H135712   3.709   2.355   3.245
 8748WAT     H235713   3.584   2.374   3.192
 8748WAT    EPW35714   3.657   2.345   3.188
 8749WAT      O35715   2.649   2.749   3.600
 8749WAT     H135716   2.641   2.759   3.687
 8749WAT     H235717   2.734   2.763   3.587
 8749WAT    EPW35718   2.661   2.753   3.611
 8750WAT      O35719   2.336   1.335   3.377
 8750WAT     H135720   2.289   1.264   3.360
 8750WAT     H235721   2.278   1.400   3.371
 8750WAT    EPW35722   2.320   1.334   3.374
 8751WAT      O35723   3.314   1.207   3.021
 8751WAT     H135724   3.374   1.268   3.036
 8751WAT     H235725   3.275   1.235   2.948
 8751WAT    EPW35726   3.317   1.220   3.013
 8752WAT      O35727   2.344   2.697   3.802
 8752WAT     H135728   2.421   2.731   3.825
 8752WAT     H235729   2.310   2.758   3.749
 8752WAT    EPW35730   2.350   2.711   3.797
 8753WAT      O35731   3.215   1.769   2.788
 8753WAT     H135732   3.264   1.697   2.798
 8753WAT     H235733   3.184   1.784   2.869
 8753WAT    EPW35734   3.218   1.761   2.802
 8754WAT      O35735   2.258   1.650   2.706
 8754WAT     H135736   2.206   1.673   2.773
 8754WAT     H235737   2.303   1.582   2.738
 8754WAT    EPW35738   2.257   1.643   2.721
 8755WAT      O35739   2.218   2.459   3.502
 8755WAT     H135740   2.163   2.517   3.538
 8755WAT     H235741   2.297   2.490   3.524
 8755WAT    EPW35742   2.221   2.472   3.511
 8756WAT      O35743   3.404   1.922   2.417
 8756WAT     H135744   3.431   1.840   2.431
 8756WAT     H235745   3.330   1.913   2.373
 8756WAT    EPW35746   3.397   1.909   2.413
 8757WAT      O35747   2.433   2.778   2.413
 8757WAT     H135748   2.433   2.840   2.351
 8757WAT     H235749   2.509   2.738   2.401
 8757WAT    EPW35750   2.445   2.782   2.402
 8758WAT      O35751   2.781   1.973   2.353
 8758WAT     H135752   2.799   1.997   2.271
 8758WAT     H235753   2.860   1.958   2.387
 8758WAT    EPW35754   2.796   1.974   2.346
 8759WAT      O35755   3.735   2.055   3.736
 8759WAT     H135756   3.718   2.112   3.799
 8759WAT     H235757   3.762   2.106   3.669
 8759WAT    EPW35758   3.737   2.071   3.735
 8760WAT      O35759   3.377   2.472   2.383
 8760WAT     H135760   3.417   2.477   2.461
 8760WAT     H235761   3.293   2.487   2.402
 8760WAT    EPW35762   3.371   2.475   2.397
 8761WAT      O35763   3.706   1.547   3.850
 8761WAT     H135764   3.704   1.631   3.873
 8761WAT     H235765   3.626   1.532   3.819
 8761WAT    EPW35766   3.694   1.557   3.849
 8762WAT      O35767   2.668   1.364   3.699
 8762WAT     H135768   2.732   1.305   3.700
 8762WAT     H235769   2.597   1.318   3.677
 8762WAT    EPW35770   2.667   1.349   3.696
 8763WAT      O35771   2.408   2.690   3.025
 8763WAT     H135772   2.390   2.613   2.989
 8763WAT     H235773   2.369   2.748   2.972
 8763WAT    EPW35774   2.399   2.687   3.012
 8764WAT      O35775   3.037   2.376   2.307
 8764WAT     H135776   3.080   2.312   2.267
 8764WAT     H235777   3.015   2.431   2.243
 8764WAT    EPW35778   3.040   2.375   2.292
 8765WAT      O35779   2.187   2.959   3.361
 8765WAT     H135780   2.195   2.936   3.445
 8765WAT     H235781   2.206   2.885   3.319
 8765WAT    EPW35782   2.191   2.944   3.368
 8766WAT      O35783   3.187   1.150   0.690
 8766WAT     H135784   3.208   1.182   0.612
 8766WAT     H235785   3.263   1.126   0.724
 8766WAT    EPW35786   3.201   1.151   0.684
 8767WAT      O35787   3.104   1.783   1.148
 8767WAT     H135788   3.068   1.859   1.174
 8767WAT     H235789   3.161   1.765   1.211
 8767WAT    EPW35790   3.107   1.792   1.161
 8768WAT      O35791   2.083   2.256   0.677
 8768WAT     H135792   2.072   2.259   0.763
 8768WAT     H235793   2.078   2.170   0.659
 8768WAT    EPW35794   2.080   2.243   0.687
 8769WAT      O35795   3.716   2.614   0.454
 8769WAT     H135796   3.779   2.557   0.474
 8769WAT     H235797   3.666   2.570   0.397
 8769WAT    EPW35798   3.718   2.599   0.449
 8770WAT      O35799   2.091   1.617   0.318
 8770WAT     H135800   2.036   1.675   0.283
 8770WAT     H235801   2.049   1.541   0.309
 8770WAT    EPW35802   2.077   1.614   0.311
 8771WAT      O35803   2.343   2.159   0.256
 8771WAT     H135804   2.327   2.119   0.180
 8771WAT     H235805   2.350   2.093   0.313
 8771WAT    EPW35806   2.342   2.143   0.253
 8772WAT      O35807   3.355   1.969   0.805
 8772WAT     H135808   3.371   1.955   0.720
 8772WAT     H235809   3.301   1.905   0.827
 8772WAT    EPW35810   3.350   1.958   0.796
 8773WAT      O35811   2.332   2.365   0.627
 8773WAT     H135812   2.385   2.331   0.688
 8773WAT     H235813   2.256   2.325   0.642
 8773WAT    EPW35814   2.329   2.354   0.638
 8774WAT      O35815   2.810   1.268   0.613
 8774WAT     H135816   2.809   1.350   0.583
 8774WAT     H235817   2.854   1.224   0.552
 8774WAT    EPW35818   2.816   1.274   0.600
 8775WAT      O35819   2.242   2.666   0.277
 8775WAT     H135820   2.270   2.673   0.195
 8775WAT     H235821   2.268   2.586   0.301
 8775WAT    EPW35822   2.250   2.655   0.269
 8776WAT      O35823   2.102   2.469   1.343
 8776WAT     H135824   2.136   2.449   1.420
 8776WAT     H235825   2.031   2.418   1.338
 8776WAT    EPW35826   2.096   2.459   1.353
 8777WAT      O35827   2.756   2.320   1.798
 8777WAT     H135828   2.735   2.299   1.880
 8777WAT     H235829   2.684   2.301   1.752
 8777WAT    EPW35830   2.742   2.314   1.803
 8778WAT      O35831   2.287   2.002   0.813
 8778WAT     H135832   2.237   2.001   0.741
 8778WAT     H235833   2.342   1.935   0.801
 8778WAT    EPW35834   2.288   1.992   0.801
 8779WAT      O35835   2.713   1.581   1.355
 8779WAT     H135836   2.781   1.582   1.300
 8779WAT     H235837   2.693   1.496   1.360
 8779WAT    EPW35838   2.720   1.569   1.347
 8780WAT      O35839   2.750   2.589   1.529
 8780WAT     H135840   2.765   2.651   1.469
 8780WAT     H235841   2.829   2.563   1.553
 8780WAT    EPW35842   2.764   2.595   1.524
 8781WAT      O35843   2.454   1.784   0.796
 8781WAT     H135844   2.521   1.732   0.817
 8781WAT     H235845   2.386   1.730   0.799
 8781WAT    EPW35846   2.454   1.768   0.800
 8782WAT      O35847   2.849   2.420   0.947
 8782WAT     H135848   2.872   2.339   0.968
 8782WAT     H235849   2.925   2.462   0.941
 8782WAT    EPW35850   2.864   2.414   0.949
 8783WAT      O35851   2.891   2.349   0.594
 8783WAT     H135852   2.930   2.289   0.643
 8783WAT     H235853   2.927   2.337   0.515
 8783WAT    EPW35854   2.902   2.339   0.589
 8784WAT      O35855   2.993   1.761   1.784
 8784WAT     H135856   2.917   1.791   1.751
 8784WAT     H235857   3.024   1.829   1.829
 8784WAT    EPW35858   2.986   1.776   1.785
 8785WAT      O35859   2.535   1.283   0.685
 8785WAT     H135860   2.493   1.329   0.624
 8785WAT     H235861   2.617   1.278   0.655
 8785WAT    EPW35862   2.541   1.289   0.672
 8786WAT      O35863   3.513   1.054   1.639
 8786WAT     H135864   3.488   1.123   1.592
 8786WAT     H235865   3.440   1.030   1.680
 8786WAT    EPW35866   3.499   1.061   1.638
 8787WAT      O35867   2.858   1.215   0.881
 8787WAT     H135868   2.868   1.298   0.906
 8787WAT     H235869   2.837   1.222   0.796
 8787WAT    EPW35870   2.856   1.228   0.872
 8788WAT      O35871   2.098   1.744   1.058
 8788WAT     H135872   2.095   1.831   1.065
 8788WAT     H235873   2.031   1.717   1.106
 8788WAT    EPW35874   2.088   1.753   1.066
 8789WAT      O35875   2.078   2.703   0.882
 8789WAT     H135876   2.016   2.751   0.843
 8789WAT     H235877   2.121   2.668   0.814
 8789WAT    EPW35878   2.075   2.705   0.866
 8790WAT      O35879   2.703   2.558   0.587
 8790WAT     H135880   2.657   2.541   0.659
 8790WAT     H235881   2.769   2.500   0.592
 8790WAT    EPW35882   2.706   2.547   0.598
 8791WAT      O35883   3.285   2.707   0.403
 8791WAT     H135884   3.348   2.766   0.391
 8791WAT     H235885   3.327   2.637   0.432
 8791WAT    EPW35886   3.300   2.705   0.406
 8792WAT      O35887   3.077   2.775   0.572
 8792WAT     H135888   3.104   2.847   0.612
 8792WAT     H235889   3.140   2.758   0.514
 8792WAT    EPW35890   3.090   2.783   0.569
 8793WAT      O35891   2.387   1.254   1.104
 8793WAT     H135892   2.340   1.189   1.069
 8793WAT     H235893   2.448   1.213   1.150
 8793WAT    EPW35894   2.389   1.238   1.106
 8794WAT      O35895   2.694   1.465   2.033
 8794WAT     H135896   2.689   1.430   1.953
 8794WAT     H235897   2.748   1.532   2.022
 8794WAT    EPW35898   2.701   1.469   2.020
 8795WAT      O35899   2.222   2.617   0.656
 8795WAT     H135900   2.271   2.546   0.663
 8795WAT     H235901   2.271   2.673   0.611
 8795WAT    EPW35902   2.236   2.615   0.650
 8796WAT      O35903   3.831   1.438   0.810
 8796WAT     H135904   3.781   1.509   0.816
 8796WAT     H235905   3.774   1.373   0.796
 8796WAT    EPW35906   3.815   1.439   0.809
 8797WAT      O35907   3.348   2.735   1.384
 8797WAT     H135908   3.428   2.770   1.387
 8797WAT     H235909   3.339   2.713   1.301
 8797WAT    EPW35910   3.359   2.737   1.372
 8798WAT      O35911   2.273   1.355   1.944
 8798WAT     H135912   2.192   1.328   1.924
 8798WAT     H235913   2.321   1.326   1.877
 8798WAT    EPW35914   2.268   1.347   1.931
 8799WAT      O35915   2.356   2.441   1.007
 8799WAT     H135916   2.412   2.427   0.942
 8799WAT     H235917   2.383   2.387   1.070
 8799WAT    EPW35918   2.368   2.431   1.007
 8800WAT      O35919   2.661   2.754   0.920
 8800WAT     H135920   2.740   2.772   0.888
 8800WAT     H235921   2.607   2.799   0.869
 8800WAT    EPW35922   2.665   2.763   0.908
 8801WAT      O35923   2.919   1.163   1.854
 8801WAT     H135924   2.948   1.086   1.827
 8801WAT     H235925   2.871   1.192   1.787
 8801WAT    EPW35926   2.916   1.156   1.840
 8802WAT      O35927   2.991   1.704   0.723
 8802WAT     H135928   3.021   1.661   0.654
 8802WAT     H235929   3.064   1.719   0.770
 8802WAT    EPW35930   3.006   1.700   0.720
 8803WAT      O35931   3.084   1.728   0.262
 8803WAT     H135932   3.111   1.804   0.294
 8803WAT     H235933   3.007   1.747   0.227
 8803WAT    EPW35934   3.077   1.742   0.261
 8804WAT      O35935   3.479   2.908   0.355
 8804WAT     H135936   3.521   2.868   0.290
 8804WAT     H235937   3.539   2.962   0.389
 8804WAT    EPW35938   3.494   2.910   0.350
 8805WAT      O35939   2.520   2.838   1.502
 8805WAT     H135940   2.561   2.819   1.576
 8805WAT     H235941   2.460   2.775   1.495
 8805WAT    EPW35942   2.517   2.826   1.512
 8806WAT      O35943   3.747   1.372   1.245
 8806WAT     H135944   3.810   1.358   1.186
 8806WAT     H235945   3.765   1.316   1.309
 8806WAT    EPW35946   3.759   1.362   1.245
 8807WAT      O35947   2.006   1.479   1.664
 8807WAT     H135948   2.003   1.553   1.710
 8807WAT     H235949   2.062   1.498   1.599
 8807WAT    EPW35950   2.014   1.493   1.661
 8808WAT      O35951   3.225   2.558   1.753
 8808WAT     H135952   3.230   2.572   1.839
 8808WAT     H235953   3.309   2.551   1.729
 8808WAT    EPW35954   3.238   2.559   1.762
 8809WAT      O35955   3.074   2.595   0.247
 8809WAT     H135956   3.013   2.657   0.256
 8809WAT     H235957   3.146   2.634   0.276
 8809WAT    EPW35958   3.076   2.610   0.252
 8810WAT      O35959   3.246   1.218   0.427
 8810WAT     H135960   3.312   1.176   0.389
 8810WAT     H235961   3.280   1.296   0.446
 8810WAT    EPW35962   3.261   1.224   0.424
 8811WAT      O35963   2.109   1.397   0.582
 8811WAT     H135964   2.083   1.317   0.560
 8811WAT     H235965   2.064   1.414   0.654
 8811WAT    EPW35966   2.098   1.387   0.589
 8812WAT      O35967   2.286   2.691   1.374
 8812WAT     H135968   2.226   2.628   1.365
 8812WAT     H235969   2.329   2.689   1.297
 8812WAT    EPW35970   2.284   2.681   1.361
 8813WAT      O35971   3.061   1.572   0.488
 8813WAT     H135972   2.984   1.533   0.473
 8813WAT     H235973   3.074   1.619   0.416
 8813WAT    EPW35974   3.051   1.573   0.475
 8814WAT      O35975   3.092   2.792   1.472
 8814WAT     H135976   3.170   2.778   1.437
 8814WAT     H235977   3.037   2.787   1.405
 8814WAT    EPW35978   3.095   2.789   1.457
 8815WAT      O35979   2.971   1.212   0.381
 8815WAT     H135980   2.951   1.281   0.333
 8815WAT     H235981   3.058   1.217   0.388
 8815WAT    EPW35982   2.981   1.223   0.375
 8816WAT      O35983   3.766   2.836   0.740
 8816WAT     H135984   3.722   2.911   0.751
 8816WAT     H235985   3.703   2.778   0.724
 8816WAT    EPW35986   3.750   2.839   0.739
 8817WAT      O35987   2.896   1.500   0.897
 8817WAT     H135988   2.918   1.567   0.845
 8817WAT     H235989   2.904   1.532   0.977
 8817WAT    EPW35990   2.900   1.514   0.901
 8818WAT      O35991   3.465   2.402   0.719
 8818WAT     H135992   3.532   2.352   0.745
 8818WAT     H235993   3.395   2.363   0.754
 8818WAT    EPW35994   3.465   2.389   0.728
 8819WAT      O35995   2.480   2.548   1.645
 8819WAT     H135996   2.559   2.577   1.623
 8819WAT     H235997   2.463   2.591   1.719
 8819WAT    EPW35998   2.489   2.559   1.653
 8820WAT      O35999   2.467   1.024   0.752
 8820WAT     H136000   2.489   1.106   0.733
 8820WAT     H236001   2.434   0.993   0.677
 8820WAT    EPW36002   2.465   1.032   0.738
 8821WAT      O36003   2.656   2.111   1.090
 8821WAT     H136004   2.681   2.097   1.172
 8821WAT     H236005   2.603   2.044   1.073
 8821WAT    EPW36006   2.652   2.099   1.099
 8822WAT      O36007   3.242   1.476   1.479
 8822WAT     H136008   3.241   1.515   1.557
 8822WAT     H236009   3.175   1.419   1.485
 8822WAT    EPW36010   3.232   1.473   1.492
 8823WAT      O36011   2.764   2.130   1.344
 8823WAT     H136012   2.739   2.213   1.349
 8823WAT     H236013   2.727   2.094   1.415
 8823WAT    EPW36014   2.755   2.137   1.355
 8824WAT      O36015   3.377   2.178   1.354
 8824WAT     H136016   3.302   2.150   1.388
 8824WAT     H236017   3.372   2.265   1.361
 8824WAT    EPW36018   3.365   2.187   1.360
 8825WAT      O36019   3.431   1.073   0.795
 8825WAT     H136020   3.433   1.055   0.880
 8825WAT     H236021   3.466   1.002   0.757
 8825WAT    EPW36022   3.436   1.060   0.802
 8826WAT      O36023   1.999   2.503   1.950
 8826WAT     H136024   2.061   2.548   1.993
 8826WAT     H236025   2.003   2.424   1.985
 8826WAT    EPW36026   2.009   2.498   1.961
 8827WAT      O36027   3.617   1.518   1.578
 8827WAT     H136028   3.701   1.502   1.594
 8827WAT     H236029   3.580   1.514   1.657
 8827WAT    EPW36030   3.624   1.515   1.592
 8828WAT      O36031   2.408   1.425   0.892
 8828WAT     H136032   2.440   1.373   0.830
 8828WAT     H236033   2.401   1.374   0.961
 8828WAT    EPW36034   2.412   1.410   0.893
 8829WAT      O36035   3.678   2.244   0.345
 8829WAT     H136036   3.672   2.195   0.416
 8829WAT     H236037   3.763   2.242   0.325
 8829WAT    EPW36038   3.690   2.237   0.353
 8830WAT      O36039   2.454   2.223   0.830
 8830WAT     H136040   2.527   2.202   0.788
 8830WAT     H236041   2.407   2.150   0.828
 8830WAT    EPW36042   2.458   2.209   0.824
 8831WAT      O36043   2.289   2.862   0.962
 8831WAT     H136044   2.216   2.820   0.937
 8831WAT     H236045   2.337   2.864   0.890
 8831WAT    EPW36046   2.285   2.856   0.948
 8832WAT      O36047   2.257   1.564   1.196
 8832WAT     H136048   2.342   1.584   1.184
 8832WAT     H236049   2.216   1.628   1.153
 8832WAT    EPW36050   2.264   1.577   1.188
 8833WAT      O36051   3.920   2.675   1.722
 8833WAT     H136052   3.848   2.671   1.673
 8833WAT     H236053   3.890   2.671   1.803
 8833WAT    EPW36054   3.905   2.674   1.726
 8834WAT      O36055   3.515   1.856   0.268
 8834WAT     H136056   3.439   1.839   0.229
 8834WAT     H236057   3.492   1.894   0.343
 8834WAT    EPW36058   3.501   1.859   0.273
 8835WAT      O36059   2.669   2.172   0.663
 8835WAT     H136060   2.725   2.231   0.631
 8835WAT     H236061   2.674   2.107   0.606
 8835WAT    EPW36062   2.678   2.171   0.650
 8836WAT      O36063   3.799   1.405   0.239
 8836WAT     H136064   3.823   1.330   0.202
 8836WAT     H236065   3.762   1.450   0.174
 8836WAT    EPW36066   3.797   1.400   0.224
 8837WAT      O36067   2.107   2.316   0.958
 8837WAT     H136068   2.053   2.375   0.993
 8837WAT     H236069   2.186   2.354   0.966
 8837WAT    EPW36070   2.111   2.331   0.965
 8838WAT      O36071   2.863   1.683   2.015
 8838WAT     H136072   2.796   1.739   2.018
 8838WAT     H236073   2.899   1.697   1.937
 8838WAT    EPW36074   2.858   1.693   2.004
 8839WAT      O36075   3.923   1.784   1.471
 8839WAT     H136076   3.972   1.713   1.458
 8839WAT     H236077   3.853   1.769   1.421
 8839WAT    EPW36078   3.920   1.771   1.462
 8840WAT      O36079   2.141   1.989   0.584
 8840WAT     H136080   2.116   1.905   0.586
 8840WAT     H236081   2.211   1.988   0.532
 8840WAT    EPW36082   2.147   1.976   0.577
 8841WAT      O36083   3.656   1.250   0.444
 8841WAT     H136084   3.733   1.213   0.463
 8841WAT     H236085   3.677   1.317   0.393
 8841WAT    EPW36086   3.670   1.254   0.439
 8842WAT      O36087   3.078   2.576   0.923
 8842WAT     H136088   3.037   2.651   0.906
 8842WAT     H236089   3.107   2.550   0.845
 8842WAT    EPW36090   3.076   2.584   0.909
 8843WAT      O36091   2.046   2.465   0.502
 8843WAT     H136092   2.099   2.520   0.543
 8843WAT     H236093   2.040   2.398   0.557
 8843WAT    EPW36094   2.053   2.463   0.516
 8844WAT      O36095   2.460   2.274   1.200
 8844WAT     H136096   2.513   2.317   1.254
 8844WAT     H236097   2.516   2.229   1.150
 8844WAT    EPW36098   2.476   2.273   1.201
 8845WAT      O36099   3.374   1.522   0.915
 8845WAT     H136100   3.407   1.485   0.987
 8845WAT     H236101   3.312   1.466   0.890
 8845WAT    EPW36102   3.370   1.508   0.922
 8846WAT      O36103   2.069   2.265   0.299
 8846WAT     H136104   2.151   2.235   0.292
 8846WAT     H236105   2.077   2.334   0.352
 8846WAT    EPW36106   2.082   2.271   0.306
 8847WAT      O36107   2.125   2.049   1.033
 8847WAT     H136108   2.179   2.025   0.969
 8847WAT     H236109   2.117   2.135   1.021
 8847WAT    EPW36110   2.132   2.058   1.022
 8848WAT      O36111   2.800   1.480   0.428
 8848WAT     H136112   2.749   1.417   0.396
 8848WAT     H236113   2.754   1.553   0.413
 8848WAT    EPW36114   2.785   1.481   0.421
 8849WAT      O36115   3.708   2.647   1.536
 8849WAT     H136116   3.679   2.718   1.495
 8849WAT     H236117   3.760   2.609   1.476
 8849WAT    EPW36118   3.711   2.652   1.521
 8850WAT      O36119   2.594   2.501   0.834
 8850WAT     H136120   2.608   2.581   0.866
 8850WAT     H236121   2.662   2.456   0.864
 8850WAT    EPW36122   2.606   2.506   0.844
 8851WAT      O36123   2.387   1.815   1.849
 8851WAT     H136124   2.343   1.753   1.891
 8851WAT     H236125   2.382   1.790   1.765
 8851WAT    EPW36126   2.380   1.802   1.843
 8852WAT      O36127   2.361   1.679   0.382
 8852WAT     H136128   2.370   1.616   0.442
 8852WAT     H236129   2.280   1.667   0.352
 8852WAT    EPW36130   2.350   1.668   0.387
 8853WAT      O36131   2.481   1.904   1.050
 8853WAT     H136132   2.471   1.881   0.967
 8853WAT     H236133   2.496   1.829   1.091
 8853WAT    EPW36134   2.482   1.890   1.044
 8854WAT      O36135   2.445   1.891   1.380
 8854WAT     H136136   2.471   1.839   1.315
 8854WAT     H236137   2.390   1.947   1.341
 8854WAT    EPW36138   2.440   1.892   1.364
 8855WAT      O36139   3.515   1.690   1.186
 8855WAT     H136140   3.447   1.713   1.235
 8855WAT     H236141   3.513   1.746   1.119
 8855WAT    EPW36142   3.504   1.701   1.183
 8856WAT      O36143   2.865   2.757   1.313
 8856WAT     H136144   2.836   2.696   1.257
 8856WAT     H236145   2.851   2.832   1.271
 8856WAT    EPW36146   2.859   2.759   1.299
 8857WAT      O36147   3.074   1.259   1.560
 8857WAT     H136148   3.093   1.181   1.525
 8857WAT     H236149   3.116   1.258   1.636
 8857WAT    EPW36150   3.083   1.247   1.566
 8858WAT      O36151   3.320   1.463   0.523
 8858WAT     H136152   3.378   1.527   0.533
 8858WAT     H236153   3.244   1.505   0.519
 8858WAT    EPW36154   3.317   1.479   0.524
 8859WAT      O36155   2.279   2.053   1.935
 8859WAT     H136156   2.270   2.104   1.865
 8859WAT     H236157   2.320   1.983   1.905
 8859WAT    EPW36158   2.284   2.050   1.920
 8860WAT      O36159   3.421   2.274   1.797
 8860WAT     H136160   3.447   2.351   1.764
 8860WAT     H236161   3.444   2.217   1.736
 8860WAT    EPW36162   3.428   2.277   1.783
 8861WAT      O36163   2.856   2.586   1.844
 8861WAT     H136164   2.888   2.578   1.925
 8861WAT     H236165   2.826   2.506   1.826
 8861WAT    EPW36166   2.856   2.573   1.853
 8862WAT      O36167   2.914   1.580   1.160
 8862WAT     H136168   2.975   1.642   1.163
 8862WAT     H236169   2.956   1.509   1.189
 8862WAT    EPW36170   2.929   1.579   1.165
 8863WAT      O36171   3.172   1.955   0.394
 8863WAT     H136172   3.190   2.036   0.369
 8863WAT     H236173   3.104   1.965   0.448
 8863WAT    EPW36174   3.165   1.968   0.398
 8864WAT      O36175   3.653   2.223   0.818
 8864WAT     H136176   3.679   2.170   0.882
 8864WAT     H236177   3.663   2.175   0.746
 8864WAT    EPW36178   3.658   2.208   0.816
 8865WAT      O36179   3.274   2.605   1.133
 8865WAT     H136180   3.206   2.587   1.082
 8865WAT     H236181   3.321   2.661   1.085
 8865WAT    EPW36182   3.271   2.611   1.118
 8866WAT      O36183   3.277   2.271   1.103
 8866WAT     H136184   3.202   2.304   1.135
 8866WAT     H236185   3.304   2.219   1.167
 8866WAT    EPW36186   3.270   2.268   1.117
 8867WAT      O36187   2.655   2.801   0.450
 8867WAT     H136188   2.667   2.732   0.502
 8867WAT     H236189   2.727   2.803   0.400
 8867WAT    EPW36190   2.667   2.791   0.450
 8868WAT      O36191   2.638   1.267   0.346
 8868WAT     H136192   2.624   1.187   0.376
 8868WAT     H236193   2.563   1.288   0.306
 8868WAT    EPW36194   2.625   1.259   0.344
 8869WAT      O36195   2.910   2.803   0.345
 8869WAT     H136196   2.950   2.786   0.421
 8869WAT     H236197   2.925   2.888   0.333
 8869WAT    EPW36198   2.918   2.813   0.355
 8870WAT      O36199   3.498   2.103   1.594
 8870WAT     H136200   3.465   2.130   1.517
 8870WAT     H236201   3.584   2.116   1.584
 8870WAT    EPW36202   3.506   2.109   1.581
 8871WAT      O36203   3.238   2.670   2.017
 8871WAT     H136204   3.284   2.685   2.090
 8871WAT     H236205   3.251   2.743   1.970
 8871WAT    EPW36206   3.246   2.683   2.021
 8872WAT      O36207   3.628   1.199   1.845
 8872WAT     H136208   3.593   1.148   1.783
 8872WAT     H236209   3.635   1.146   1.914
 8872WAT    EPW36210   3.624   1.183   1.846
 8873WAT      O36211   2.382   1.954   0.441
 8873WAT     H136212   2.375   1.869   0.425
 8873WAT     H236213   2.461   1.962   0.477
 8873WAT    EPW36214   2.393   1.943   0.444
 8874WAT      O36215   3.144   2.093   1.476
 8874WAT     H136216   3.098   2.134   1.538
 8874WAT     H236217   3.178   2.025   1.518
 8874WAT    EPW36218   3.142   2.089   1.491
 8875WAT      O36219   2.014   1.138   0.511
 8875WAT     H136220   2.018   1.078   0.448
 8875WAT     H236221   1.990   1.092   0.582
 8875WAT    EPW36222   2.011   1.122   0.512
 8876WAT      O36223   2.955   1.945   0.572
 8876WAT     H136224   2.971   2.009   0.630
 8876WAT     H236225   2.958   1.873   0.621
 8876WAT    EPW36226   2.958   1.944   0.588
 8877WAT      O36227   3.540   2.386   1.110
 8877WAT     H136228   3.575   2.367   1.032
 8877WAT     H236229   3.456   2.363   1.100
 8877WAT    EPW36230   3.533   2.380   1.097
 8878WAT      O36231   2.400   1.380   0.241
 8878WAT     H136232   2.345   1.351   0.180
 8878WAT     H236233   2.416   1.462   0.217
 8878WAT    EPW36234   2.394   1.388   0.229
 8879WAT      O36235   2.914   2.153   1.000
 8879WAT     H136236   2.830   2.132   1.016
 8879WAT     H236237   2.956   2.120   1.068
 8879WAT    EPW36238   2.908   2.145   1.012
 8880WAT      O36239   2.272   2.081   1.271
 8880WAT     H136240   2.326   2.147   1.252
 8880WAT     H236241   2.231   2.065   1.196
 8880WAT    EPW36242   2.274   2.089   1.257
 8881WAT      O36243   2.622   1.595   0.924
 8881WAT     H136244   2.699   1.557   0.909
 8881WAT     H236245   2.565   1.531   0.910
 8881WAT    EPW36246   2.625   1.580   0.920
 8882WAT      O36247   3.881   2.792   0.326
 8882WAT     H136248   3.955   2.748   0.310
 8882WAT     H236249   3.834   2.735   0.372
 8882WAT    EPW36250   3.885   2.777   0.330
 8883WAT      O36251   2.089   1.713   0.596
 8883WAT     H136252   2.126   1.678   0.667
 8883WAT     H236253   2.098   1.652   0.535
 8883WAT    EPW36254   2.096   1.699   0.598
 8884WAT      O36255   3.626   2.041   1.290
 8884WAT     H136256   3.628   1.969   1.339
 8884WAT     H236257   3.544   2.069   1.299
 8884WAT    EPW36258   3.614   2.034   1.299
 8885WAT      O36259   2.251   2.200   1.702
 8885WAT     H136260   2.214   2.149   1.641
 8885WAT     H236261   2.227   2.281   1.679
 8885WAT    EPW36262   2.242   2.205   1.689
 8886WAT      O36263   3.734   2.054   1.030
 8886WAT     H136264   3.708   2.053   1.113
 8886WAT     H236265   3.821   2.050   1.036
 8886WAT    EPW36266   3.743   2.054   1.043
 8887WAT      O36267   2.647   1.706   0.370
 8887WAT     H136268   2.662   1.786   0.402
 8887WAT     H236269   2.560   1.702   0.365
 8887WAT    EPW36270   2.637   1.717   0.374
 8888WAT      O36271   3.517   1.456   1.840
 8888WAT     H136272   3.445   1.460   1.889
 8888WAT     H236273   3.539   1.372   1.842
 8888WAT    EPW36274   3.509   1.444   1.848
 8889WAT      O36275   2.068   1.355   1.058
 8889WAT     H136276   2.049   1.387   0.979
 8889WAT     H236277   2.143   1.395   1.078
 8889WAT    EPW36278   2.076   1.365   1.049
 8890WAT      O36279   3.865   2.552   1.084
 8890WAT     H136280   3.904   2.608   1.028
 8890WAT     H236281   3.912   2.561   1.157
 8890WAT    EPW36282   3.878   2.562   1.086
 8891WAT      O36283   3.351   1.808   1.920
 8891WAT     H136284   3.396   1.815   1.994
 8891WAT     H236285   3.276   1.849   1.936
 8891WAT    EPW36286   3.347   1.815   1.933
 8892WAT      O36287   3.579   1.833   1.743
 8892WAT     H136288   3.607   1.911   1.769
 8892WAT     H236289   3.512   1.817   1.798
 8892WAT    EPW36290   3.573   1.842   1.755
 8893WAT      O36291   3.551   2.483   0.279
 8893WAT     H136292   3.591   2.405   0.286
 8893WAT     H236293   3.476   2.470   0.322
 8893WAT    EPW36294   3.546   2.469   0.287
 8894WAT      O36295   3.615   1.623   0.821
 8894WAT     H136296   3.546   1.578   0.850
 8894WAT     H236297   3.609   1.699   0.865
 8894WAT    EPW36298   3.604   1.628   0.832
 8895WAT      O36299   3.917   1.918   1.948
 8895WAT     H136300   3.921   1.859   1.884
 8895WAT     H236301   3.996   1.955   1.948
 8895WAT    EPW36302   3.929   1.915   1.939
 8896WAT      O36303   3.770   2.180   1.574
 8896WAT     H136304   3.841   2.138   1.546
 8896WAT     H236305   3.758   2.243   1.515
 8896WAT    EPW36306   3.778   2.183   1.561
 8897WAT      O36307   3.273   2.206   0.311
 8897WAT     H136308   3.304   2.267   0.365
 8897WAT     H236309   3.328   2.209   0.243
 8897WAT    EPW36310   3.286   2.215   0.309
 8898WAT      O36311   2.677   2.395   1.339
 8898WAT     H136312   2.688   2.446   1.408
 8898WAT     H236313   2.692   2.449   1.271
 8898WAT    EPW36314   2.680   2.411   1.339
 8899WAT      O36315   2.517   2.269   1.655
 8899WAT     H136316   2.437   2.241   1.676
 8899WAT     H236317   2.506   2.355   1.642
 8899WAT    EPW36318   2.504   2.278   1.656
 8900WAT      O36319   3.462   1.299   1.494
 8900WAT     H136320   3.521   1.360   1.511
 8900WAT     H236321   3.388   1.344   1.482
 8900WAT    EPW36322   3.459   1.314   1.495
 8901WAT      O36323   3.003   2.029   1.244
 8901WAT     H136324   3.055   2.048   1.311
 8901WAT     H236325   2.923   2.048   1.275
 8901WAT    EPW36326   2.999   2.035   1.258
 8902WAT      O36327   2.629   1.613   1.620
 8902WAT     H136328   2.641   1.537   1.661
 8902WAT     H236329   2.664   1.600   1.541
 8902WAT    EPW36330   2.636   1.600   1.614
 8903WAT      O36331   2.927   2.802   0.834
 8903WAT     H136332   2.938   2.886   0.856
 8903WAT     H236333   2.947   2.800   0.749
 8903WAT    EPW36334   2.932   2.814   0.825
 8904WAT      O36335   3.550   1.101   1.316
 8904WAT     H136336   3.518   1.171   1.356
 8904WAT     H236337   3.634   1.099   1.342
 8904WAT    EPW36338   3.558   1.111   1.326
 8905WAT      O36339   2.803   1.210   1.599
 8905WAT     H136340   2.884   1.228   1.572
 8905WAT     H236341   2.797   1.124   1.587
 8905WAT    EPW36342   2.814   1.200   1.593
 8906WAT      O36343   2.736   2.580   1.141
 8906WAT     H136344   2.691   2.637   1.092
 8906WAT     H236345   2.776   2.530   1.082
 8906WAT    EPW36346   2.736   2.581   1.125
 8907WAT      O36347   3.165   2.216   1.885
 8907WAT     H136348   3.244   2.239   1.855
 8907WAT     H236349   3.111   2.238   1.820
 8907WAT    EPW36350   3.168   2.223   1.871
 8908WAT      O36351   3.502   2.529   1.698
 8908WAT     H136352   3.538   2.558   1.771
 8908WAT     H236353   3.561   2.549   1.637
 8908WAT    EPW36354   3.516   2.536   1.699
 8909WAT      O36355   3.787   1.805   0.228
 8909WAT     H136356   3.814   1.869   0.175
 8909WAT     H236357   3.700   1.813   0.227
 8909WAT    EPW36358   3.778   1.816   0.220
 8910WAT      O36359   2.524   1.664   1.176
 8910WAT     H136360   2.559   1.637   1.101
 8910WAT     H236361   2.580   1.638   1.236
 8910WAT    EPW36362   2.537   1.656   1.174
 8911WAT      O36363   3.236   1.646   1.706
 8911WAT     H136364   3.154   1.670   1.726
 8911WAT     H236365   3.280   1.657   1.780
 8911WAT    EPW36366   3.230   1.651   1.720
 8912WAT      O36367   3.288   1.719   1.344
 8912WAT     H136368   3.297   1.772   1.413
 8912WAT     H236369   3.273   1.641   1.379
 8912WAT    EPW36370   3.287   1.715   1.359
 8913WAT      O36371   2.999   2.806   1.736
 8913WAT     H136372   3.024   2.789   1.654
 8913WAT     H236373   2.966   2.730   1.763
 8913WAT    EPW36374   2.998   2.792   1.728
 8914WAT      O36375   3.507   1.672   0.571
 8914WAT     H136376   3.534   1.651   0.651
 8914WAT     H236377   3.579   1.703   0.532
 8914WAT    EPW36378   3.522   1.673   0.577
 8915WAT      O36379   2.830   1.144   1.157
 8915WAT     H136380   2.745   1.139   1.176
 8915WAT     H236381   2.831   1.152   1.070
 8915WAT    EPW36382   2.817   1.144   1.147
 8916WAT      O36383   3.637   1.251   0.729
 8916WAT     H136384   3.564   1.211   0.754
 8916WAT     H236385   3.625   1.265   0.644
 8916WAT    EPW36386   3.625   1.247   0.720
 8917WAT      O36387   3.647   2.076   0.573
 8917WAT     H136388   3.696   2.005   0.558
 8917WAT     H236389   3.565   2.047   0.565
 8917WAT    EPW36390   3.642   2.061   0.569
 8918WAT      O36391   2.998   2.260   1.661
 8918WAT     H136392   2.920   2.264   1.700
 8918WAT     H236393   3.008   2.339   1.626
 8918WAT    EPW36394   2.988   2.272   1.662
 8919WAT      O36395   2.035   1.253   1.825
 8919WAT     H136396   2.032   1.323   1.773
 8919WAT     H236397   1.951   1.234   1.839
 8919WAT    EPW36398   2.022   1.261   1.820
 8920WAT      O36399   2.557   2.910   1.229
 8920WAT     H136400   2.548   2.895   1.315
 8920WAT     H236401   2.528   2.836   1.193
 8920WAT    EPW36402   2.551   2.897   1.237
 8921WAT      O36403   2.375   1.435   0.517
 8921WAT     H136404   2.374   1.405   0.435
 8921WAT     H236405   2.292   1.423   0.543
 8921WAT    EPW36406   2.362   1.429   0.508
 8922WAT      O36407   3.271   2.232   0.829
 8922WAT     H136408   3.267   2.247   0.914
 8922WAT     H236409   3.305   2.152   0.823
 8922WAT    EPW36410   3.276   2.223   0.840
 8923WAT      O36411   3.019   2.156   0.743
 8923WAT     H136412   2.979   2.148   0.821
 8923WAT     H236413   3.099   2.183   0.764
 8923WAT    EPW36414   3.025   2.159   0.758
 8924WAT      O36415   3.027   2.525   1.564
 8924WAT     H136416   3.085   2.532   1.630
 8924WAT     H236417   3.049   2.590   1.511
 8924WAT    EPW36418   3.039   2.536   1.566
 8925WAT      O36419   3.853   1.747   1.737
 8925WAT     H136420   3.766   1.755   1.741
 8925WAT     H236421   3.872   1.766   1.654
 8925WAT    EPW36422   3.843   1.751   1.726
 8926WAT      O36423   3.300   1.883   1.571
 8926WAT     H136424   3.288   1.814   1.623
 8926WAT     H236425   3.375   1.917   1.599
 8926WAT    EPW36426   3.309   1.878   1.583
 8927WAT      O36427   2.187   2.870   1.739
 8927WAT     H136428   2.130   2.804   1.728
 8927WAT     H236429   2.138   2.936   1.768
 8927WAT    EPW36430   2.172   2.870   1.742
 8928WAT      O36431   3.084   1.959   1.952
 8928WAT     H136432   3.111   2.037   1.924
 8928WAT     H236433   3.013   1.979   1.999
 8928WAT    EPW36434   3.077   1.974   1.955
 8929WAT      O36435   3.429   2.809   1.030
 8929WAT     H136436   3.392   2.871   1.078
 8929WAT     H236437   3.497   2.783   1.078
 8929WAT    EPW36438   3.434   2.814   1.044
 8930WAT      O36439   3.060   2.367   1.255
 8930WAT     H136440   2.993   2.327   1.294
 8930WAT     H236441   3.109   2.394   1.321
 8930WAT    EPW36442   3.057   2.365   1.271
 8931WAT      O36443   3.594   2.645   1.929
 8931WAT     H136444   3.677   2.655   1.955
 8931WAT     H236445   3.558   2.599   1.995
 8931WAT    EPW36446   3.601   2.639   1.943
 8932WAT      O36447   2.376   1.717   1.585
 8932WAT     H136448   2.391   1.778   1.524
 8932WAT     H236449   2.454   1.678   1.594
 8932WAT    EPW36450   2.390   1.720   1.577
 8933WAT      O36451   2.191   1.551   1.462
 8933WAT     H136452   2.208   1.554   1.377
 8933WAT     H236453   2.251   1.604   1.497
 8933WAT    EPW36454   2.202   1.559   1.455
 8934WAT      O36455   3.737   1.817   0.504
 8934WAT     H136456   3.761   1.818   0.420
 8934WAT     H236457   3.805   1.780   0.544
 8934WAT    EPW36458   3.751   1.812   0.498
 8935WAT      O36459   2.416   1.245   1.737
 8935WAT     H136460   2.399   1.160   1.734
 8935WAT     H236461   2.397   1.273   1.656
 8935WAT    EPW36462   2.411   1.237   1.724
 8936WAT      O36463   3.118   2.510   0.649
 8936WAT     H136464   3.098   2.592   0.626
 8936WAT     H236465   3.044   2.465   0.632
 8936WAT    EPW36466   3.104   2.515   0.643
 8937WAT      O36467   3.619   1.808   1.466
 8937WAT     H136468   3.610   1.722   1.457
 8937WAT     H236469   3.604   1.822   1.551
 8937WAT    EPW36470   3.616   1.797   1.477
 8938WAT      O36471   2.124   2.052   1.504
 8938WAT     H136472   2.165   2.069   1.429
 8938WAT     H236473   2.100   1.968   1.496
 8938WAT    EPW36474   2.127   2.042   1.492
 8939WAT      O36475   3.179   1.260   1.821
 8939WAT     H136476   3.206   1.328   1.869
 8939WAT     H236477   3.098   1.245   1.850
 8939WAT    EPW36478   3.171   1.268   1.832
 8940WAT      O36479   3.155   1.356   0.878
 8940WAT     H136480   3.075   1.391   0.875
 8940WAT     H236481   3.152   1.295   0.816
 8940WAT    EPW36482   3.142   1.352   0.869
 8941WAT      O36483   2.632   2.438   0.342
 8941WAT     H136484   2.657   2.479   0.415
 8941WAT     H236485   2.545   2.445   0.342
 8941WAT    EPW36486   2.623   2.445   0.353
 8942WAT      O36487   3.479   1.416   1.152
 8942WAT     H136488   3.557   1.382   1.174
 8942WAT     H236489   3.486   1.500   1.176
 8942WAT    EPW36490   3.492   1.423   1.159
 8943WAT      O36491   2.621   2.026   1.555
 8943WAT     H136492   2.582   2.099   1.583
 8943WAT     H236493   2.560   1.989   1.505
 8943WAT    EPW36494   2.606   2.031   1.552
 8944WAT      O36495   3.554   1.856   0.963
 8944WAT     H136496   3.614   1.916   0.979
 8944WAT     H236497   3.494   1.898   0.915
 8944WAT    EPW36498   3.554   1.871   0.958
 8945WAT      O36499   3.551   2.666   0.666
 8945WAT     H136500   3.524   2.588   0.693
 8945WAT     H236501   3.598   2.648   0.595
 8945WAT    EPW36502   3.554   2.652   0.659
 8946WAT      O36503   2.355   2.423   0.356
 8946WAT     H136504   2.351   2.405   0.442
 8946WAT     H236505   2.353   2.344   0.319
 8946WAT    EPW36506   2.354   2.408   0.364
 8947WAT      O36507   2.637   2.164   0.286
 8947WAT     H136508   2.553   2.165   0.263
 8947WAT     H236509   2.655   2.248   0.300
 8947WAT    EPW36510   2.627   2.177   0.284
 8948WAT      O36511   2.625   1.329   1.407
 8948WAT     H136512   2.541   1.315   1.425
 8948WAT     H236513   2.667   1.277   1.463
 8948WAT    EPW36514   2.619   1.319   1.418
 8949WAT      O36515   3.803   1.178   1.445
 8949WAT     H136516   3.798   1.195   1.530
 8949WAT     H236517   3.885   1.149   1.435
 8949WAT    EPW36518   3.814   1.176   1.456
 8950WAT      O36519   3.017   1.338   1.234
 8950WAT     H136520   2.960   1.274   1.219
 8950WAT     H236521   3.093   1.302   1.210
 8950WAT    EPW36522   3.020   1.323   1.228
 8951WAT      O36523   3.314   2.450   1.366
 8951WAT     H136524   3.336   2.519   1.415
 8951WAT     H236525   3.306   2.483   1.285
 8951WAT    EPW36526   3.316   2.465   1.361
 8952WAT      O36527   3.273   2.867   1.818
 8952WAT     H136528   3.205   2.826   1.782
 8952WAT     H236529   3.248   2.951   1.820
 8952WAT    EPW36530   3.259   2.874   1.813
 8953WAT      O36531   2.730   1.842   1.736
 8953WAT     H136532   2.697   1.769   1.701
 8953WAT     H236533   2.702   1.905   1.683
 8953WAT    EPW36534   2.721   1.840   1.723
 8954WAT      O36535   3.721   2.309   1.321
 8954WAT     H136536   3.709   2.223   1.311
 8954WAT     H236537   3.667   2.344   1.262
 8954WAT    EPW36538   3.711   2.301   1.311
 8955WAT      O36539   2.664   2.791   1.747
 8955WAT     H136540   2.643   2.805   1.830
 8955WAT     H236541   2.724   2.727   1.752
 8955WAT    EPW36542   2.670   2.783   1.760
 8956WAT      O36543   3.612   2.651   1.177
 8956WAT     H136544   3.693   2.640   1.149
 8956WAT     H236545   3.574   2.574   1.162
 8956WAT    EPW36546   3.618   2.638   1.171
 8957WAT      O36547   2.351   1.320   1.482
 8957WAT     H136548   2.299   1.253   1.460
 8957WAT     H236549   2.301   1.390   1.469
 8957WAT    EPW36550   2.336   1.320   1.477
 8958WAT      O36551   3.255   1.247   1.117
 8958WAT     H136552   3.321   1.301   1.138
 8958WAT     H236553   3.225   1.279   1.042
 8958WAT    EPW36554   3.261   1.260   1.109
 8959WAT      O36555   2.361   2.690   1.872
 8959WAT     H136556   2.424   2.733   1.914
 8959WAT     H236557   2.314   2.753   1.834
 8959WAT    EPW36558   2.363   2.706   1.873
 8960WAT      O36559   3.210   1.749   0.891
 8960WAT     H136560   3.264   1.681   0.902
 8960WAT     H236561   3.177   1.762   0.971
 8960WAT    EPW36562   3.213   1.741   0.904
 8961WAT      O36563   2.225   1.632   0.827
 8961WAT     H136564   2.182   1.656   0.899
 8961WAT     H236565   2.265   1.558   0.851
 8961WAT    EPW36566   2.225   1.625   0.841
 8962WAT      O36567   2.211   2.458   1.599
 8962WAT     H136568   2.157   2.518   1.631
 8962WAT     H236569   2.288   2.497   1.600
 8962WAT    EPW36570   2.214   2.473   1.604
 8963WAT      O36571   3.408   1.926   0.534
 8963WAT     H136572   3.426   1.841   0.545
 8963WAT     H236573   3.330   1.926   0.495
 8963WAT    EPW36574   3.399   1.913   0.530
 8964WAT      O36575   2.381   2.781   0.494
 8964WAT     H136576   2.338   2.758   0.422
 8964WAT     H236577   2.464   2.786   0.468
 8964WAT    EPW36578   2.387   2.778   0.480
 8965WAT      O36579   2.691   1.966   0.471
 8965WAT     H136580   2.690   2.025   0.407
 8965WAT     H236581   2.775   1.961   0.493
 8965WAT    EPW36582   2.703   1.974   0.465
 8966WAT      O36583   3.632   2.762   0.174
 8966WAT     H136584   3.714   2.768   0.204
 8966WAT     H236585   3.615   2.676   0.182
 8966WAT    EPW36586   3.642   2.750   0.180
 8967WAT      O36587   3.717   2.062   1.827
 8967WAT     H136588   3.789   2.025   1.860
 8967WAT     H236589   3.747   2.107   1.758
 8967WAT    EPW36590   3.732   2.063   1.822
 8968WAT      O36591   3.337   2.431   0.474
 8968WAT     H136592   3.388   2.417   0.543
 8968WAT     H236593   3.258   2.444   0.508
 8968WAT    EPW36594   3.333   2.431   0.489
 8969WAT      O36595   3.758   1.507   1.971
 8969WAT     H136596   3.751   1.586   2.008
 8969WAT     H236597   3.681   1.496   1.931
 8969WAT    EPW36598   3.746   1.517   1.970
 8970WAT      O36599   3.786   1.653   1.239
 8970WAT     H136600   3.703   1.674   1.224
 8970WAT     H236601   3.785   1.566   1.247
 8970WAT    EPW36602   3.774   1.644   1.238
 8971WAT      O36603   2.657   1.376   1.767
 8971WAT     H136604   2.709   1.330   1.713
 8971WAT     H236605   2.581   1.334   1.762
 8971WAT    EPW36606   2.654   1.363   1.758
 8972WAT      O36607   3.540   2.142   2.016
 8972WAT     H136608   3.599   2.112   1.960
 8972WAT     H236609   3.490   2.195   1.968
 8972WAT    EPW36610   3.541   2.145   2.001
 8973WAT      O36611   2.414   2.685   1.128
 8973WAT     H136612   2.402   2.607   1.091
 8973WAT     H236613   2.373   2.740   1.075
 8973WAT    EPW36614   2.406   2.682   1.115
 8974WAT      O36615   3.032   2.344   0.359
 8974WAT     H136616   3.099   2.298   0.327
 8974WAT     H236617   3.037   2.420   0.316
 8974WAT    EPW36618   3.043   2.349   0.348
 8975WAT      O36619   2.179   2.932   1.466
 8975WAT     H136620   2.186   2.912   1.550
 8975WAT     H236621   2.210   2.861   1.425
 8975WAT    EPW36622   2.185   2.919   1.472
 8976WAT      O36623   2.067   0.406   6.410
 8976WAT     H136624   2.081   0.452   6.483
 8976WAT     H236625   2.019   0.338   6.438
 8976WAT    EPW36626   2.062   0.403   6.425
 8977WAT      O36627   3.723   0.758   6.167
 8977WAT     H136628   3.783   0.700   6.191
 8977WAT     H236629   3.674   0.715   6.110
 8977WAT    EPW36630   3.725   0.743   6.162
 8978WAT      O36631   2.359   0.349   5.875
 8978WAT     H136632   2.321   0.341   5.797
 8978WAT     H236633   2.365   0.267   5.903
 8978WAT    EPW36634   2.354   0.336   5.867
 8979WAT      O36635   2.323   0.479   6.302
 8979WAT     H136636   2.389   0.432   6.336
 8979WAT     H236637   2.252   0.438   6.331
 8979WAT    EPW36638   2.322   0.466   6.312
 8980WAT      O36639   2.193   0.766   5.904
 8980WAT     H136640   2.244   0.783   5.835
 8980WAT     H236641   2.240   0.709   5.950
 8980WAT    EPW36642   2.208   0.760   5.901
 8981WAT      O36643   2.107   0.684   7.060
 8981WAT     H136644   2.132   0.664   7.141
 8981WAT     H236645   2.045   0.626   7.042
 8981WAT    EPW36646   2.102   0.673   7.069
 8982WAT      O36647   2.756   0.460   7.455
 8982WAT     H136648   2.752   0.413   7.529
 8982WAT     H236649   2.683   0.437   7.413
 8982WAT    EPW36650   2.745   0.450   7.460
 8983WAT      O36651   2.718   0.720   7.233
 8983WAT     H136652   2.695   0.799   7.203
 8983WAT     H236653   2.804   0.727   7.247
 8983WAT    EPW36654   2.727   0.733   7.231
 8984WAT      O36655   2.871   0.569   6.649
 8984WAT     H136656   2.891   0.491   6.682
 8984WAT     H236657   2.948   0.610   6.645
 8984WAT    EPW36658   2.885   0.563   6.653
 8985WAT      O36659   2.959   0.528   6.289
 8985WAT     H136660   2.963   0.456   6.337
 8985WAT     H236661   2.975   0.500   6.208
 8985WAT    EPW36662   2.962   0.513   6.284
 8986WAT      O36663   2.092   0.865   6.569
 8986WAT     H136664   2.028   0.910   6.529
 8986WAT     H236665   2.131   0.824   6.503
 8986WAT    EPW36666   2.088   0.866   6.553
 8987WAT      O36667   2.705   0.634   6.255
 8987WAT     H136668   2.669   0.613   6.332
 8987WAT     H236669   2.786   0.602   6.260
 8987WAT    EPW36670   2.711   0.626   6.267
 8988WAT      O36671   3.285   0.884   6.076
 8988WAT     H136672   3.353   0.939   6.077
 8988WAT     H236673   3.321   0.806   6.091
 8988WAT    EPW36674   3.300   0.881   6.078
 8989WAT      O36675   3.091   0.918   6.264
 8989WAT     H136676   3.112   0.992   6.306
 8989WAT     H236677   3.151   0.913   6.201
 8989WAT    EPW36678   3.103   0.928   6.261
 8990WAT      O36679   2.232   0.744   6.351
 8990WAT     H136680   2.277   0.670   6.353
 8990WAT     H236681   2.281   0.797   6.302
 8990WAT    EPW36682   2.246   0.741   6.344
 8991WAT      O36683   3.338   0.922   7.060
 8991WAT     H136684   3.407   0.974   7.054
 8991WAT     H236685   3.326   0.894   6.978
 8991WAT    EPW36686   3.346   0.926   7.047
 8992WAT      O36687   2.396   0.603   6.679
 8992WAT     H136688   2.465   0.595   6.626
 8992WAT     H236689   2.414   0.549   6.745
 8992WAT    EPW36690   2.409   0.594   6.681
 8993WAT      O36691   2.653   0.867   6.569
 8993WAT     H136692   2.732   0.894   6.544
 8993WAT     H236693   2.599   0.925   6.533
 8993WAT    EPW36694   2.656   0.880   6.560
 8994WAT      O36695   3.485   1.079   6.054
 8994WAT     H136696   3.534   1.045   5.990
 8994WAT     H236697   3.541   1.131   6.096
 8994WAT    EPW36698   3.501   1.082   6.051
 8995WAT      O36699   2.574   0.949   7.164
 8995WAT     H136700   2.580   0.970   7.249
 8995WAT     H236701   2.492   0.920   7.156
 8995WAT    EPW36702   2.563   0.948   7.175
 8996WAT      O36703   3.205   0.744   7.453
 8996WAT     H136704   3.186   0.671   7.498
 8996WAT     H236705   3.289   0.733   7.431
 8996WAT    EPW36706   3.215   0.731   7.456
 8997WAT      O36707   2.960   0.700   5.871
 8997WAT     H136708   2.932   0.760   5.927
 8997WAT     H236709   3.039   0.729   5.848
 8997WAT    EPW36710   2.968   0.714   5.876
 8998WAT      O36711   2.320   0.866   7.065
 8998WAT     H136712   2.256   0.807   7.066
 8998WAT     H236713   2.353   0.859   6.985
 8998WAT    EPW36714   2.315   0.857   7.053
 8999WAT      O36715   3.089   0.967   7.168
 8999WAT     H136716   3.169   0.957   7.135
 8999WAT     H236717   3.037   0.966   7.098
 8999WAT    EPW36718   3.093   0.965   7.153
 9000WAT      O36719   3.779   1.012   6.433
 9000WAT     H136720   3.740   1.089   6.448
 9000WAT     H236721   3.712   0.958   6.417
 9000WAT    EPW36722   3.763   1.015   6.433
 9001WAT      O36723   3.455   0.622   6.476
 9001WAT     H136724   3.489   0.542   6.476
 9001WAT     H236725   3.371   0.609   6.459
 9001WAT    EPW36726   3.448   0.609   6.473
 9002WAT      O36727   2.472   0.660   7.360
 9002WAT     H136728   2.547   0.685   7.324
 9002WAT     H236729   2.459   0.718   7.424
 9002WAT    EPW36730   2.481   0.672   7.364
 9003WAT      O36731   2.637   0.231   6.832
 9003WAT     H136732   2.658   0.234   6.917
 9003WAT     H236733   2.599   0.153   6.823
 9003WAT    EPW36734   2.635   0.220   6.843
 9004WAT      O36735   2.703   0.309   7.096
 9004WAT     H136736   2.701   0.392   7.069
 9004WAT     H236737   2.648   0.309   7.164
 9004WAT    EPW36738   2.695   0.322   7.102
 9005WAT      O36739   3.373   0.382   7.034
 9005WAT     H136740   3.314   0.334   7.077
 9005WAT     H236741   3.347   0.464   7.049
 9005WAT    EPW36742   3.360   0.387   7.043
 9006WAT      O36743   3.693   0.353   5.983
 9006WAT     H136744   3.689   0.315   6.062
 9006WAT     H236745   3.777   0.373   5.975
 9006WAT    EPW36746   3.705   0.350   5.994
 9007WAT      O36747   2.330   0.155   6.536
 9007WAT     H136748   2.396   0.197   6.498
 9007WAT     H236749   2.322   0.081   6.489
 9007WAT    EPW36750   2.339   0.150   6.524
 9008WAT      O36751   2.293   1.031   6.659
 9008WAT     H136752   2.220   0.991   6.631
 9008WAT     H236753   2.342   1.036   6.586
 9008WAT    EPW36754   2.290   1.026   6.644
 9009WAT      O36755   3.895   0.852   7.397
 9009WAT     H136756   3.836   0.835   7.335
 9009WAT     H236757   3.852   0.903   7.452
 9009WAT    EPW36758   3.880   0.857   7.396
 9010WAT      O36759   2.529   0.338   6.424
 9010WAT     H136760   2.565   0.406   6.465
 9010WAT     H236761   2.596   0.301   6.382
 9010WAT    EPW36762   2.544   0.342   6.424
 9011WAT      O36763   2.130   0.531   6.648
 9011WAT     H136764   2.081   0.588   6.692
 9011WAT     H236765   2.210   0.564   6.653
 9011WAT    EPW36766   2.134   0.544   6.655
 9012WAT      O36767   3.090   0.743   6.618
 9012WAT     H136768   3.039   0.809   6.593
 9012WAT     H236769   3.127   0.717   6.543
 9012WAT    EPW36770   3.088   0.749   6.603
 9013WAT      O36771   2.036   0.602   6.216
 9013WAT     H136772   2.096   0.655   6.251
 9013WAT     H236773   2.029   0.537   6.274
 9013WAT    EPW36774   2.044   0.600   6.229
 9014WAT      O36775   2.459   0.440   6.888
 9014WAT     H136776   2.515   0.487   6.935
 9014WAT     H236777   2.507   0.372   6.860
 9014WAT    EPW36778   2.475   0.437   6.891
 9015WAT      O36779   2.060   0.454   5.980
 9015WAT     H136780   2.145   0.436   5.966
 9015WAT     H236781   2.061   0.506   6.049
 9015WAT    EPW36782   2.073   0.459   5.988
 9016WAT      O36783   2.145   0.262   6.717
 9016WAT     H136784   2.205   0.225   6.665
 9016WAT     H236785   2.150   0.347   6.697
 9016WAT    EPW36786   2.155   0.269   6.706
 9017WAT      O36787   3.654   0.827   7.241
 9017WAT     H136788   3.620   0.906   7.248
 9017WAT     H236789   3.655   0.812   7.155
 9017WAT    EPW36790   3.649   0.836   7.230
 9018WAT      O36791   2.627   0.597   6.521
 9018WAT     H136792   2.625   0.684   6.529
 9018WAT     H236793   2.703   0.575   6.557
 9018WAT    EPW36794   2.638   0.607   6.528
 9019WAT      O36795   2.883   0.955   6.986
 9019WAT     H136796   2.848   0.886   6.945
 9019WAT     H236797   2.876   1.019   6.927
 9019WAT    EPW36798   2.877   0.954   6.971
 9020WAT      O36799   3.398   0.411   7.439
 9020WAT     H136800   3.430   0.491   7.426
 9020WAT     H236801   3.441   0.362   7.381
 9020WAT    EPW36802   3.409   0.415   7.429
 9021WAT      O36803   2.818   0.743   7.526
 9021WAT     H136804   2.840   0.727   7.609
 9021WAT     H236805   2.798   0.665   7.495
 9021WAT    EPW36806   2.819   0.729   7.533
 9022WAT      O36807   3.556   0.357   6.471
 9022WAT     H136808   3.617   0.327   6.526
 9022WAT     H236809   3.585   0.332   6.393
 9022WAT    EPW36810   3.570   0.349   6.468
 9023WAT      O36811   3.290   0.791   6.811
 9023WAT     H136812   3.227   0.775   6.754
 9023WAT     H236813   3.336   0.855   6.772
 9023WAT    EPW36814   3.288   0.798   6.797
 9024WAT      O36815   3.255   0.419   6.777
 9024WAT     H136816   3.185   0.463   6.805
 9024WAT     H236817   3.290   0.388   6.851
 9024WAT    EPW36818   3.250   0.421   6.792
 9025WAT      O36819   2.672   0.904   6.207
 9025WAT     H136820   2.681   0.823   6.239
 9025WAT     H236821   2.739   0.912   6.152
 9025WAT    EPW36822   2.683   0.893   6.204
 9026WAT      O36823   2.900   0.903   6.054
 9026WAT     H136824   2.960   0.910   6.117
 9026WAT     H236825   2.903   0.980   6.014
 9026WAT    EPW36826   2.910   0.915   6.057
 9027WAT      O36827   3.535   0.271   7.244
 9027WAT     H136828   3.511   0.306   7.168
 9027WAT     H236829   3.622   0.276   7.243
 9027WAT    EPW36830   3.544   0.277   7.233
 9028WAT      O36831   3.173   0.259   7.188
 9028WAT     H136832   3.123   0.315   7.233
 9028WAT     H236833   3.213   0.214   7.250
 9028WAT    EPW36834   3.171   0.261   7.204
 9029WAT      O36835   3.575   0.503   6.872
 9029WAT     H136836   3.535   0.521   6.797
 9029WAT     H236837   3.516   0.458   6.917
 9029WAT    EPW36838   3.561   0.499   6.868
 9030WAT      O36839   2.891   0.296   6.717
 9030WAT     H136840   2.809   0.274   6.736
 9030WAT     H236841   2.934   0.283   6.791
 9030WAT    EPW36842   2.885   0.291   6.731
 9031WAT      O36843   2.577   0.911   5.830
 9031WAT     H136844   2.601   0.841   5.876
 9031WAT     H236845   2.586   0.977   5.886
 9031WAT    EPW36846   2.582   0.910   5.845
 9032WAT      O36847   2.209   0.348   6.976
 9032WAT     H136848   2.285   0.385   6.956
 9032WAT     H236849   2.191   0.298   6.907
 9032WAT    EPW36850   2.218   0.346   6.963
 9033WAT      O36851   3.890   0.929   6.031
 9033WAT     H136852   3.952   0.879   5.995
 9033WAT     H236853   3.842   0.873   6.077
 9033WAT    EPW36854   3.892   0.914   6.033
 9034WAT      O36855   2.223   0.350   7.258
 9034WAT     H136856   2.221   0.347   7.171
 9034WAT     H236857   2.210   0.435   7.276
 9034WAT    EPW36858   2.221   0.362   7.248
 9035WAT      O36859   3.752   0.228   6.632
 9035WAT     H136860   3.718   0.184   6.699
 9035WAT     H236861   3.836   0.235   6.653
 9035WAT    EPW36862   3.759   0.222   6.645
 9036WAT      O36863   3.885   0.729   6.792
 9036WAT     H136864   3.910   0.784   6.729
 9036WAT     H236865   3.941   0.746   6.857
 9036WAT    EPW36866   3.897   0.739   6.793
 9037WAT      O36867   3.577   0.604   5.995
 9037WAT     H136868   3.608   0.523   5.995
 9037WAT     H236869   3.501   0.598   6.037
 9037WAT    EPW36870   3.570   0.591   6.001
 9038WAT      O36871   3.821   0.326   7.255
 9038WAT     H136872   3.907   0.314   7.263
 9038WAT     H236873   3.814   0.379   7.186
 9038WAT    EPW36874   3.833   0.332   7.246
 9039WAT      O36875   3.257   0.425   5.926
 9039WAT     H136876   3.321   0.369   5.907
 9039WAT     H236877   3.232   0.455   5.848
 9039WAT    EPW36878   3.263   0.421   5.911
 9040WAT      O36879   2.672   0.570   7.009
 9040WAT     H136880   2.683   0.615   7.083
 9040WAT     H236881   2.700   0.625   6.948
 9040WAT    EPW36882   2.678   0.585   7.011
 9041WAT      O36883   2.515   0.389   7.310
 9041WAT     H136884   2.437   0.350   7.303
 9041WAT     H236885   2.495   0.473   7.323
 9041WAT    EPW36886   2.501   0.395   7.311
 9042WAT      O36887   2.967   0.278   6.993
 9042WAT     H136888   3.028   0.253   7.050
 9042WAT     H236889   2.894   0.277   7.040
 9042WAT    EPW36890   2.965   0.274   7.009
 9043WAT      O36891   2.916   0.939   6.504
 9043WAT     H136892   2.919   1.025   6.519
 9043WAT     H236893   2.945   0.932   6.422
 9043WAT    EPW36894   2.921   0.951   6.494
 9044WAT      O36895   2.758   0.757   6.823
 9044WAT     H136896   2.711   0.800   6.763
 9044WAT     H236897   2.805   0.701   6.775
 9044WAT    EPW36898   2.758   0.755   6.807
 9045WAT      O36899   3.146   0.487   7.538
 9045WAT     H136900   3.224   0.451   7.519
 9045WAT     H236901   3.096   0.464   7.470
 9045WAT    EPW36902   3.150   0.478   7.525
 9046WAT      O36903   3.481   0.681   7.410
 9046WAT     H136904   3.522   0.700   7.484
 9046WAT     H236905   3.531   0.718   7.349
 9046WAT    EPW36906   3.494   0.689   7.412
 9047WAT      O36907   2.793   0.288   6.022
 9047WAT     H136908   2.741   0.321   5.961
 9047WAT     H236909   2.864   0.338   6.018
 9047WAT    EPW36910   2.796   0.300   6.012
 9048WAT      O36911   2.960   0.982   7.430
 9048WAT     H136912   3.001   0.972   7.354
 9048WAT     H236913   2.941   0.900   7.454
 9048WAT    EPW36914   2.963   0.968   7.422
 9049WAT      O36915   3.641   0.225   6.233
 9049WAT     H136916   3.698   0.173   6.273
 9049WAT     H236917   3.571   0.174   6.224
 9049WAT    EPW36918   3.639   0.210   6.238
 9050WAT      O36919   2.995   0.440   7.307
 9050WAT     H136920   2.916   0.436   7.345
 9050WAT     H236921   2.998   0.522   7.277
 9050WAT    EPW36922   2.984   0.451   7.308
 9051WAT      O36923   2.583   1.054   6.901
 9051WAT     H136924   2.588   1.031   6.985
 9051WAT     H236925   2.544   0.984   6.864
 9051WAT    EPW36926   2.578   1.040   6.908
 9052WAT      O36927   3.269   0.354   6.507
 9052WAT     H136928   3.264   0.374   6.592
 9052WAT     H236929   3.355   0.342   6.494
 9052WAT    EPW36930   3.281   0.355   6.518
 9053WAT      O36931   2.996   0.301   6.447
 9053WAT     H136932   2.964   0.294   6.528
 9053WAT     H236933   3.082   0.306   6.459
 9053WAT    EPW36934   3.004   0.301   6.461
 9054WAT      O36935   3.007   0.715   7.259
 9054WAT     H136936   3.065   0.721   7.325
 9054WAT     H236937   3.030   0.781   7.206
 9054WAT    EPW36938   3.019   0.726   7.261
 9055WAT      O36939   2.221   1.034   7.416
 9055WAT     H136940   2.161   0.971   7.409
 9055WAT     H236941   2.175   1.102   7.446
 9055WAT    EPW36942   2.205   1.035   7.420
 9056WAT      O36943   3.419   1.037   6.754
 9056WAT     H136944   3.360   1.096   6.778
 9056WAT     H236945   3.483   1.046   6.813
 9056WAT    EPW36946   3.420   1.047   6.766
 9057WAT      O36947   3.042   0.537   6.915
 9057WAT     H136948   3.013   0.463   6.951
 9057WAT     H236949   3.092   0.572   6.977
 9057WAT    EPW36950   3.045   0.531   6.929
 9058WAT      O36951   3.181   0.670   6.362
 9058WAT     H136952   3.159   0.749   6.333
 9058WAT     H236953   3.111   0.621   6.344
 9058WAT    EPW36954   3.167   0.675   6.355
 9059WAT      O36955   2.605   0.671   5.986
 9059WAT     H136956   2.648   0.662   6.061
 9059WAT     H236957   2.523   0.652   6.008
 9059WAT    EPW36958   2.599   0.667   6.001
 9060WAT      O36959   3.555   0.857   6.368
 9060WAT     H136960   3.526   0.785   6.407
 9060WAT     H236961   3.599   0.827   6.298
 9060WAT    EPW36962   3.557   0.842   6.363
 9061WAT      O36963   2.350   0.574   6.040
 9061WAT     H136964   2.343   0.547   6.122
 9061WAT     H236965   2.360   0.501   5.994
 9061WAT    EPW36966   2.350   0.559   6.045
 9062WAT      O36967   2.634   0.434   5.837
 9062WAT     H136968   2.551   0.410   5.842
 9062WAT     H236969   2.636   0.511   5.878
 9062WAT    EPW36970   2.622   0.442   5.844
 9063WAT      O36971   3.277   0.639   7.044
 9063WAT     H136972   3.302   0.704   7.097
 9063WAT     H236973   3.285   0.673   6.965
 9063WAT    EPW36974   3.282   0.654   7.040
 9064WAT      O36975   3.305   1.024   7.468
 9064WAT     H136976   3.249   0.958   7.477
 9064WAT     H236977   3.257   1.095   7.486
 9064WAT    EPW36978   3.290   1.025   7.472
 9065WAT      O36979   3.824   0.470   7.017
 9065WAT     H136980   3.891   0.431   6.976
 9065WAT     H236981   3.764   0.477   6.955
 9065WAT    EPW36982   3.825   0.466   7.002
 9066WAT      O36983   2.655   0.963   7.438
 9066WAT     H136984   2.712   1.029   7.441
 9066WAT     H236985   2.703   0.894   7.460
 9066WAT    EPW36986   2.671   0.963   7.442
 9067WAT      O36987   3.656   0.760   6.965
 9067WAT     H136988   3.722   0.767   6.909
 9067WAT     H236989   3.618   0.685   6.944
 9067WAT    EPW36990   3.660   0.750   6.954
 9068WAT      O36991   2.414   0.866   7.536
 9068WAT     H136992   2.488   0.910   7.522
 9068WAT     H236993   2.352   0.920   7.508
 9068WAT    EPW36994   2.416   0.880   7.530
 9069WAT      O36995   2.194   0.627   7.313
 9069WAT     H136996   2.148   0.682   7.363
 9069WAT     H236997   2.277   0.648   7.330
 9069WAT    EPW36998   2.200   0.638   7.323
 9070WAT      O36999   2.396   0.910   6.195
 9070WAT     H137000   2.369   0.944   6.120
 9070WAT     H237001   2.482   0.904   6.186
 9070WAT    EPW37002   2.405   0.914   6.183
 9071WAT      O37003   2.754   0.238   6.297
 9071WAT     H137004   2.767   0.247   6.211
 9071WAT     H237005   2.834   0.244   6.330
 9071WAT    EPW37006   2.768   0.240   6.289
 9072WAT      O37007   3.665   0.972   5.873
 9072WAT     H137008   3.740   0.957   5.916
 9072WAT     H237009   3.649   0.896   5.833
 9072WAT    EPW37010   3.674   0.958   5.874
 9073WAT      O37011   3.766   0.274   7.529
 9073WAT     H137012   3.848   0.260   7.555
 9073WAT     H237013   3.774   0.294   7.444
 9073WAT    EPW37014   3.779   0.275   7.520
 9074WAT      O37015   3.335   0.613   6.124
 9074WAT     H137016   3.291   0.608   6.200
 9074WAT     H237017   3.294   0.555   6.073
 9074WAT    EPW37018   3.322   0.603   6.128
 9075WAT      O37019   3.508   0.241   7.641
 9075WAT     H137020   3.591   0.246   7.613
 9075WAT     H237021   3.466   0.296   7.588
 9075WAT    EPW37022   3.514   0.250   7.629
 9076WAT      O37023   2.420   0.845   6.811
 9076WAT     H137024   2.416   0.770   6.767
 9076WAT     H237025   2.377   0.901   6.760
 9076WAT    EPW37026   2.413   0.842   6.797
 9077WAT      O37027   3.002   0.469   6.022
 9077WAT     H137028   3.080   0.441   5.993
 9077WAT     H237029   2.985   0.538   5.972
 9077WAT    EPW37030   3.011   0.475   6.010
 9078WAT      O37031   2.180   1.092   7.147
 9078WAT     H137032   2.191   1.075   7.231
 9078WAT     H237033   2.218   1.025   7.106
 9078WAT    EPW37034   2.187   1.080   7.153
 9079WAT      O37035   2.067   0.407   4.511
 9079WAT     H137036   2.084   0.453   4.582
 9079WAT     H237037   2.020   0.340   4.540
 9079WAT    EPW37038   2.062   0.404   4.526
 9080WAT      O37039   3.732   0.765   4.250
 9080WAT     H137040   3.790   0.707   4.278
 9080WAT     H237041   3.681   0.720   4.196
 9080WAT    EPW37042   3.733   0.750   4.246
 9081WAT      O37043   2.359   0.341   3.977
 9081WAT     H137044   2.321   0.330   3.899
 9081WAT     H237045   2.369   0.260   4.007
 9081WAT    EPW37046   2.355   0.328   3.970
 9082WAT      O37047   2.322   0.477   4.400
 9082WAT     H137048   2.388   0.430   4.434
 9082WAT     H237049   2.251   0.436   4.429
 9082WAT    EPW37050   2.321   0.464   4.409
 9083WAT      O37051   2.203   0.775   4.014
 9083WAT     H137052   2.247   0.787   3.940
 9083WAT     H237053   2.247   0.711   4.054
 9083WAT    EPW37054   2.216   0.767   4.009
 9084WAT      O37055   2.111   0.686   5.148
 9084WAT     H137056   2.148   0.662   5.224
 9084WAT     H237057   2.044   0.631   5.140
 9084WAT    EPW37058   2.106   0.674   5.158
 9085WAT      O37059   2.744   0.462   5.578
 9085WAT     H137060   2.717   0.447   5.659
 9085WAT     H237061   2.676   0.440   5.529
 9085WAT    EPW37062   2.730   0.457   5.583
 9086WAT      O37063   2.748   0.771   5.316
 9086WAT     H137064   2.766   0.835   5.260
 9086WAT     H237065   2.827   0.740   5.338
 9086WAT    EPW37066   2.762   0.776   5.311
 9087WAT      O37067   2.864   0.559   4.739
 9087WAT     H137068   2.890   0.486   4.777
 9087WAT     H237069   2.938   0.605   4.728
 9087WAT    EPW37070   2.879   0.555   4.743
 9088WAT      O37071   2.951   0.531   4.387
 9088WAT     H137072   2.958   0.460   4.438
 9088WAT     H237073   2.968   0.501   4.307
 9088WAT    EPW37074   2.955   0.516   4.383
 9089WAT      O37075   2.093   0.863   4.668
 9089WAT     H137076   2.029   0.908   4.629
 9089WAT     H237077   2.131   0.821   4.602
 9089WAT    EPW37078   2.089   0.864   4.653
 9090WAT      O37079   2.700   0.643   4.352
 9090WAT     H137080   2.663   0.621   4.428
 9090WAT     H237081   2.781   0.611   4.358
 9090WAT    EPW37082   2.706   0.635   4.364
 9091WAT      O37083   3.292   0.871   4.151
 9091WAT     H137084   3.361   0.924   4.155
 9091WAT     H237085   3.325   0.794   4.175
 9091WAT    EPW37086   3.307   0.868   4.155
 9092WAT      O37087   3.099   0.922   4.337
 9092WAT     H137088   3.130   0.988   4.385
 9092WAT     H237089   3.158   0.912   4.274
 9092WAT    EPW37090   3.112   0.930   4.335
 9093WAT      O37091   2.231   0.742   4.450
 9093WAT     H137092   2.276   0.667   4.452
 9093WAT     H237093   2.280   0.793   4.399
 9093WAT    EPW37094   2.245   0.738   4.443
 9094WAT      O37095   3.344   0.910   5.164
 9094WAT     H137096   3.416   0.957   5.173
 9094WAT     H237097   3.336   0.900   5.077
 9094WAT    EPW37098   3.353   0.915   5.152
 9095WAT      O37099   2.398   0.614   4.791
 9095WAT     H137100   2.465   0.602   4.735
 9095WAT     H237101   2.416   0.559   4.856
 9095WAT    EPW37102   2.411   0.604   4.792
 9096WAT      O37103   2.659   0.870   4.659
 9096WAT     H137104   2.736   0.901   4.634
 9096WAT     H237105   2.602   0.925   4.622
 9096WAT    EPW37106   2.662   0.882   4.650
 9097WAT      O37107   3.493   1.070   4.143
 9097WAT     H137108   3.540   1.054   4.071
 9097WAT     H237109   3.546   1.121   4.191
 9097WAT    EPW37110   3.508   1.075   4.140
 9098WAT      O37111   2.528   1.021   5.293
 9098WAT     H137112   2.561   0.996   5.370
 9098WAT     H237113   2.464   0.964   5.278
 9098WAT    EPW37114   2.524   1.009   5.302
 9099WAT      O37115   3.220   0.748   5.522
 9099WAT     H137116   3.202   0.706   5.596
 9099WAT     H237117   3.305   0.734   5.510
 9099WAT    EPW37118   3.230   0.740   5.531
 9100WAT      O37119   2.968   0.696   3.966
 9100WAT     H137120   2.941   0.760   4.019
 9100WAT     H237121   3.047   0.723   3.940
 9100WAT    EPW37122   2.976   0.709   3.970
 9101WAT      O37123   2.309   0.882   5.169
 9101WAT     H137124   2.244   0.823   5.164
 9101WAT     H237125   2.349   0.875   5.092
 9101WAT    EPW37126   2.306   0.872   5.157
 9102WAT      O37127   3.098   0.988   5.267
 9102WAT     H137128   3.175   0.967   5.233
 9102WAT     H237129   3.041   0.962   5.206
 9102WAT    EPW37130   3.101   0.981   5.253
 9103WAT      O37131   3.795   1.011   4.526
 9103WAT     H137132   3.754   1.085   4.549
 9103WAT     H237133   3.730   0.955   4.511
 9103WAT    EPW37134   3.779   1.014   4.527
 9104WAT      O37135   3.459   0.616   4.560
 9104WAT     H137136   3.493   0.536   4.566
 9104WAT     H237137   3.373   0.602   4.553
 9104WAT    EPW37138   3.451   0.602   4.560
 9105WAT      O37139   2.487   0.692   5.452
 9105WAT     H137140   2.559   0.731   5.421
 9105WAT     H237141   2.470   0.736   5.525
 9105WAT    EPW37142   2.495   0.704   5.458
 9106WAT      O37143   2.638   0.245   4.941
 9106WAT     H137144   2.660   0.250   5.025
 9106WAT     H237145   2.601   0.166   4.934
 9106WAT    EPW37146   2.636   0.234   4.953
 9107WAT      O37147   2.704   0.327   5.204
 9107WAT     H137148   2.702   0.411   5.179
 9107WAT     H237149   2.650   0.325   5.273
 9107WAT    EPW37150   2.696   0.339   5.210
 9108WAT      O37151   3.363   0.400   5.159
 9108WAT     H137152   3.306   0.350   5.202
 9108WAT     H237153   3.330   0.480   5.167
 9108WAT    EPW37154   3.350   0.404   5.167
 9109WAT      O37155   1.989   0.669   5.726
 9109WAT     H137156   2.046   0.674   5.791
 9109WAT     H237157   1.981   0.583   5.713
 9109WAT    EPW37158   1.996   0.657   5.733
 9110WAT      O37159   3.694   0.359   4.082
 9110WAT     H137160   3.690   0.322   4.161
 9110WAT     H237161   3.778   0.380   4.073
 9110WAT    EPW37162   3.706   0.357   4.092
 9111WAT      O37163   2.329   0.155   4.635
 9111WAT     H137164   2.396   0.197   4.597
 9111WAT     H237165   2.322   0.081   4.589
 9111WAT    EPW37166   2.338   0.150   4.622
 9112WAT      O37167   2.298   1.027   4.749
 9112WAT     H137168   2.226   0.984   4.725
 9112WAT     H237169   2.346   1.029   4.676
 9112WAT    EPW37170   2.294   1.021   4.735
 9113WAT      O37171   3.922   0.808   5.505
 9113WAT     H137172   3.844   0.828   5.471
 9113WAT     H237173   3.902   0.766   5.579
 9113WAT    EPW37174   3.908   0.805   5.511
 9114WAT      O37175   2.528   0.338   4.523
 9114WAT     H137176   2.562   0.408   4.562
 9114WAT     H237177   2.596   0.302   4.482
 9114WAT    EPW37178   2.543   0.343   4.523
 9115WAT      O37179   2.136   0.533   4.747
 9115WAT     H137180   2.084   0.589   4.790
 9115WAT     H237181   2.216   0.568   4.756
 9115WAT    EPW37182   2.140   0.546   4.754
 9116WAT      O37183   3.071   0.743   4.698
 9116WAT     H137184   3.027   0.815   4.675
 9116WAT     H237185   3.112   0.721   4.624
 9116WAT    EPW37186   3.070   0.750   4.684
 9117WAT      O37187   2.035   0.600   4.315
 9117WAT     H137188   2.095   0.653   4.349
 9117WAT     H237189   2.028   0.536   4.373
 9117WAT    EPW37190   2.043   0.598   4.328
 9118WAT      O37191   2.455   0.449   5.001
 9118WAT     H137192   2.508   0.497   5.051
 9118WAT     H237193   2.506   0.384   4.973
 9118WAT    EPW37194   2.471   0.446   5.004
 9119WAT      O37195   2.060   0.459   4.075
 9119WAT     H137196   2.142   0.433   4.067
 9119WAT     H237197   2.060   0.508   4.147
 9119WAT    EPW37198   2.072   0.462   4.085
 9120WAT      O37199   2.146   0.264   4.816
 9120WAT     H137200   2.206   0.227   4.765
 9120WAT     H237201   2.153   0.349   4.796
 9120WAT    EPW37202   2.156   0.271   4.806
 9121WAT      O37203   3.664   0.879   5.395
 9121WAT     H137204   3.625   0.947   5.433
 9121WAT     H237205   3.661   0.899   5.310
 9121WAT    EPW37206   3.658   0.892   5.388
 9122WAT      O37207   2.620   0.599   4.618
 9122WAT     H137208   2.622   0.686   4.625
 9122WAT     H237209   2.696   0.574   4.652
 9122WAT    EPW37210   2.631   0.608   4.624
 9123WAT      O37211   2.880   0.918   5.097
 9123WAT     H137212   2.854   0.857   5.040
 9123WAT     H237213   2.867   0.992   5.053
 9123WAT    EPW37214   2.874   0.920   5.082
 9124WAT      O37215   3.441   0.415   5.575
 9124WAT     H137216   3.466   0.496   5.552
 9124WAT     H237217   3.469   0.366   5.509
 9124WAT    EPW37218   3.449   0.420   5.562
 9125WAT      O37219   2.844   0.728   5.617
 9125WAT     H137220   2.875   0.719   5.698
 9125WAT     H237221   2.810   0.650   5.600
 9125WAT    EPW37222   2.843   0.715   5.627
 9126WAT      O37223   3.556   0.351   4.567
 9126WAT     H137224   3.616   0.321   4.624
 9126WAT     H237225   3.587   0.325   4.490
 9126WAT    EPW37226   3.569   0.343   4.564
 9127WAT      O37227   3.262   0.757   4.903
 9127WAT     H137228   3.200   0.751   4.842
 9127WAT     H237229   3.317   0.815   4.870
 9127WAT    EPW37230   3.261   0.764   4.889
 9128WAT      O37231   3.268   0.400   4.887
 9128WAT     H137232   3.194   0.444   4.905
 9128WAT     H237233   3.297   0.377   4.965
 9128WAT    EPW37234   3.261   0.403   4.901
 9129WAT      O37235   2.668   0.911   4.284
 9129WAT     H137236   2.677   0.834   4.323
 9129WAT     H237237   2.738   0.915   4.232
 9129WAT    EPW37238   2.680   0.900   4.282
 9130WAT      O37239   2.901   0.906   4.136
 9130WAT     H137240   2.962   0.918   4.198
 9130WAT     H237241   2.902   0.981   4.091
 9130WAT    EPW37242   2.910   0.919   4.139
 9131WAT      O37243   3.542   0.276   5.359
 9131WAT     H137244   3.512   0.316   5.287
 9131WAT     H237245   3.628   0.290   5.357
 9131WAT    EPW37246   3.550   0.284   5.348
 9132WAT      O37247   3.204   0.820   5.818
 9132WAT     H137248   3.231   0.845   5.897
 9132WAT     H237249   3.233   0.882   5.765
 9132WAT    EPW37250   3.212   0.833   5.822
 9133WAT      O37251   3.163   0.264   5.305
 9133WAT     H137252   3.115   0.312   5.359
 9133WAT     H237253   3.197   0.203   5.358
 9133WAT    EPW37254   3.161   0.262   5.321
 9134WAT      O37255   3.564   0.508   4.981
 9134WAT     H137256   3.523   0.504   4.904
 9134WAT     H237257   3.507   0.472   5.037
 9134WAT    EPW37258   3.549   0.502   4.978
 9135WAT      O37259   2.893   0.287   4.818
 9135WAT     H137260   2.810   0.272   4.840
 9135WAT     H237261   2.937   0.271   4.891
 9135WAT    EPW37262   2.887   0.282   4.832
 9136WAT      O37263   2.580   0.900   3.913
 9136WAT     H137264   2.604   0.832   3.962
 9136WAT     H237265   2.587   0.968   3.967
 9136WAT    EPW37266   2.585   0.900   3.928
 9137WAT      O37267   2.203   0.349   5.078
 9137WAT     H137268   2.279   0.389   5.059
 9137WAT     H237269   2.187   0.301   5.007
 9137WAT    EPW37270   2.212   0.348   5.065
 9138WAT      O37271   3.892   0.943   4.114
 9138WAT     H137272   3.953   0.892   4.078
 9138WAT     H237273   3.843   0.887   4.158
 9138WAT    EPW37274   3.894   0.927   4.115
 9139WAT      O37275   2.233   0.355   5.360
 9139WAT     H137276   2.227   0.345   5.273
 9139WAT     H237277   2.222   0.440   5.372
 9139WAT    EPW37278   2.231   0.366   5.349
 9140WAT      O37279   3.750   0.229   4.734
 9140WAT     H137280   3.722   0.167   4.788
 9140WAT     H237281   3.835   0.238   4.755
 9140WAT    EPW37282   3.759   0.221   4.745
 9141WAT      O37283   3.886   0.727   4.879
 9141WAT     H137284   3.916   0.782   4.819
 9141WAT     H237285   3.935   0.743   4.949
 9141WAT    EPW37286   3.898   0.737   4.880
 9142WAT      O37287   3.577   0.610   4.087
 9142WAT     H137288   3.610   0.529   4.086
 9142WAT     H237289   3.502   0.601   4.130
 9142WAT    EPW37290   3.571   0.597   4.093
 9143WAT      O37291   3.819   0.354   5.374
 9143WAT     H137292   3.903   0.331   5.377
 9143WAT     H237293   3.814   0.402   5.302
 9143WAT    EPW37294   3.831   0.358   5.364
 9144WAT      O37295   3.255   0.401   4.038
 9144WAT     H137296   3.322   0.346   4.028
 9144WAT     H237297   3.226   0.414   3.957
 9144WAT    EPW37298   3.261   0.395   4.025
 9145WAT      O37299   2.664   0.590   5.124
 9145WAT     H137300   2.681   0.643   5.191
 9145WAT     H237301   2.691   0.635   5.054
 9145WAT    EPW37302   2.670   0.604   5.123
 9146WAT      O37303   2.515   0.412   5.412
 9146WAT     H137304   2.435   0.379   5.402
 9146WAT     H237305   2.501   0.498   5.419
 9146WAT    EPW37306   2.501   0.420   5.412
 9147WAT      O37307   2.963   0.272   5.104
 9147WAT     H137308   3.023   0.254   5.165
 9147WAT     H237309   2.889   0.279   5.149
 9147WAT    EPW37310   2.961   0.270   5.119
 9148WAT      O37311   2.918   0.962   4.592
 9148WAT     H137312   2.928   1.046   4.616
 9148WAT     H237313   2.947   0.961   4.509
 9148WAT    EPW37314   2.924   0.975   4.583
 9149WAT      O37315   2.753   0.745   4.912
 9149WAT     H137316   2.711   0.794   4.853
 9149WAT     H237317   2.796   0.688   4.863
 9149WAT    EPW37318   2.753   0.744   4.896
 9150WAT      O37319   3.186   0.492   5.666
 9150WAT     H137320   3.260   0.463   5.630
 9150WAT     H237321   3.124   0.466   5.610
 9150WAT    EPW37322   3.188   0.484   5.652
 9151WAT      O37323   3.494   0.686   5.512
 9151WAT     H137324   3.526   0.702   5.592
 9151WAT     H237325   3.543   0.735   5.460
 9151WAT    EPW37326   3.506   0.696   5.516
 9152WAT      O37327   2.791   0.285   4.122
 9152WAT     H137328   2.740   0.317   4.059
 9152WAT     H237329   2.862   0.335   4.118
 9152WAT    EPW37330   2.794   0.297   4.112
 9153WAT      O37331   2.943   0.966   5.501
 9153WAT     H137332   2.999   0.956   5.435
 9153WAT     H237333   2.931   0.885   5.530
 9153WAT    EPW37334   2.950   0.952   5.495
 9154WAT      O37335   3.650   0.227   4.329
 9154WAT     H137336   3.715   0.180   4.365
 9154WAT     H237337   3.586   0.168   4.318
 9154WAT    EPW37338   3.650   0.211   4.333
 9155WAT      O37339   3.001   0.427   5.463
 9155WAT     H137340   2.922   0.424   5.499
 9155WAT     H237341   3.002   0.505   5.423
 9155WAT    EPW37342   2.989   0.438   5.463
 9156WAT      O37343   2.566   1.084   5.016
 9156WAT     H137344   2.563   1.076   5.103
 9156WAT     H237345   2.537   1.007   4.987
 9156WAT    EPW37346   2.561   1.071   5.025
 9157WAT      O37347   3.271   0.357   4.610
 9157WAT     H137348   3.270   0.369   4.697
 9157WAT     H237349   3.355   0.341   4.592
 9157WAT    EPW37350   3.283   0.357   4.620
 9158WAT      O37351   2.997   0.305   4.547
 9158WAT     H137352   2.966   0.294   4.628
 9158WAT     H237353   3.083   0.312   4.559
 9158WAT    EPW37354   3.005   0.305   4.561
 9159WAT      O37355   3.020   0.677   5.344
 9159WAT     H137356   3.076   0.706   5.405
 9159WAT     H237357   3.066   0.679   5.271
 9159WAT    EPW37358   3.035   0.682   5.343
 9160WAT      O37359   2.203   1.034   5.548
 9160WAT     H137360   2.146   0.970   5.535
 9160WAT     H237361   2.154   1.100   5.579
 9160WAT    EPW37362   2.187   1.035   5.551
 9161WAT      O37363   3.433   0.972   4.860
 9161WAT     H137364   3.413   1.043   4.906
 9161WAT     H237365   3.503   0.940   4.901
 9161WAT    EPW37366   3.441   0.978   4.873
 9162WAT      O37367   3.037   0.515   4.995
 9162WAT     H137368   3.009   0.444   5.036
 9162WAT     H237369   3.079   0.559   5.057
 9162WAT    EPW37370   3.039   0.511   5.010
 9163WAT      O37371   3.619   0.728   5.755
 9163WAT     H137372   3.702   0.704   5.745
 9163WAT     H237373   3.593   0.686   5.827
 9163WAT    EPW37374   3.627   0.718   5.764
 9164WAT      O37375   3.175   0.675   4.448
 9164WAT     H137376   3.155   0.753   4.414
 9164WAT     H237377   3.105   0.627   4.431
 9164WAT    EPW37378   3.162   0.679   4.441
 9165WAT      O37379   2.605   0.667   4.080
 9165WAT     H137380   2.649   0.662   4.155
 9165WAT     H237381   2.523   0.646   4.102
 9165WAT    EPW37382   2.599   0.663   4.094
 9166WAT      O37383   3.576   0.848   4.466
 9166WAT     H137384   3.543   0.775   4.499
 9166WAT     H237385   3.615   0.821   4.392
 9166WAT    EPW37386   3.577   0.833   4.460
 9167WAT      O37387   2.351   0.570   4.137
 9167WAT     H137388   2.345   0.543   4.220
 9167WAT     H237389   2.360   0.496   4.092
 9167WAT    EPW37390   2.351   0.555   4.143
 9168WAT      O37391   2.633   0.428   3.933
 9168WAT     H137392   2.550   0.403   3.940
 9168WAT     H237393   2.635   0.505   3.974
 9168WAT    EPW37394   2.621   0.436   3.940
 9169WAT      O37395   3.236   0.649   5.153
 9169WAT     H137396   3.277   0.711   5.197
 9169WAT     H237397   3.245   0.674   5.070
 9169WAT    EPW37398   3.244   0.662   5.147
 9170WAT      O37399   3.283   1.009   5.626
 9170WAT     H137400   3.245   0.952   5.572
 9170WAT     H237401   3.234   1.080   5.619
 9170WAT    EPW37402   3.270   1.011   5.617
 9171WAT      O37403   3.815   0.476   5.122
 9171WAT     H137404   3.876   0.431   5.079
 9171WAT     H237405   3.750   0.483   5.064
 9171WAT    EPW37406   3.814   0.471   5.107
 9172WAT      O37407   2.634   0.942   5.551
 9172WAT     H137408   2.626   0.941   5.638
 9172WAT     H237409   2.703   0.891   5.536
 9172WAT    EPW37410   2.643   0.934   5.562
 9173WAT      O37411   3.624   0.789   4.968
 9173WAT     H137412   3.704   0.779   4.937
 9173WAT     H237413   3.596   0.707   4.980
 9173WAT    EPW37414   3.631   0.776   4.966
 9174WAT      O37415   2.355   0.829   5.683
 9174WAT     H137416   2.423   0.862   5.726
 9174WAT     H237417   2.319   0.898   5.645
 9174WAT    EPW37418   2.360   0.844   5.683
 9175WAT      O37419   2.220   0.630   5.392
 9175WAT     H137420   2.168   0.687   5.433
 9175WAT     H237421   2.300   0.661   5.407
 9175WAT    EPW37422   2.224   0.643   5.400
 9176WAT      O37423   2.389   0.901   4.283
 9176WAT     H137424   2.356   0.915   4.204
 9176WAT     H237425   2.475   0.898   4.268
 9176WAT    EPW37426   2.397   0.903   4.269
 9177WAT      O37427   2.755   0.239   4.398
 9177WAT     H137428   2.767   0.247   4.312
 9177WAT     H237429   2.835   0.246   4.431
 9177WAT    EPW37430   2.768   0.241   4.390
 9178WAT      O37431   3.679   1.006   3.943
 9178WAT     H137432   3.749   0.990   3.992
 9178WAT     H237433   3.656   0.927   3.914
 9178WAT    EPW37434   3.686   0.992   3.946
 9179WAT      O37435   3.818   0.403   5.654
 9179WAT     H137436   3.776   0.334   5.685
 9179WAT     H237437   3.811   0.394   5.567
 9179WAT    EPW37438   3.811   0.392   5.645
 9180WAT      O37439   3.336   0.604   4.220
 9180WAT     H137440   3.294   0.603   4.296
 9180WAT     H237441   3.297   0.542   4.173
 9180WAT    EPW37442   3.324   0.595   4.224
 9181WAT      O37443   3.473   0.279   5.824
 9181WAT     H137444   3.547   0.304   5.864
 9181WAT     H237445   3.475   0.323   5.748
 9181WAT    EPW37446   3.484   0.290   5.819
 9182WAT      O37447   2.428   0.859   4.920
 9182WAT     H137448   2.424   0.781   4.882
 9182WAT     H237449   2.385   0.911   4.865
 9182WAT    EPW37450   2.421   0.855   4.907
 9183WAT      O37451   3.000   0.466   4.124
 9183WAT     H137452   3.078   0.434   4.099
 9183WAT     H237453   2.988   0.534   4.071
 9183WAT    EPW37454   3.010   0.472   4.112
 9184WAT      O37455   2.179   1.103   5.276
 9184WAT     H137456   2.190   1.080   5.360
 9184WAT     H237457   2.217   1.037   5.232
 9184WAT    EPW37458   2.187   1.090   5.282
 9185WAT      O37459   2.070   0.412   2.610
 9185WAT     H137460   2.087   0.457   2.682
 9185WAT     H237461   2.022   0.344   2.638
 9185WAT    EPW37462   2.066   0.408   2.624
 9186WAT      O37463   3.730   0.776   2.342
 9186WAT     H137464   3.790   0.718   2.370
 9186WAT     H237465   3.680   0.729   2.288
 9186WAT    EPW37466   3.731   0.760   2.338
 9187WAT      O37467   2.353   0.351   2.071
 9187WAT     H137468   2.317   0.345   1.992
 9187WAT     H237469   2.359   0.268   2.097
 9187WAT    EPW37470   2.349   0.338   2.063
 9188WAT      O37471   2.326   0.482   2.501
 9188WAT     H137472   2.391   0.434   2.535
 9188WAT     H237473   2.254   0.441   2.529
 9188WAT    EPW37474   2.325   0.469   2.510
 9189WAT      O37475   2.193   0.766   2.101
 9189WAT     H137476   2.244   0.782   2.032
 9189WAT     H237477   2.240   0.710   2.149
 9189WAT    EPW37478   2.208   0.760   2.098
 9190WAT      O37479   2.113   0.683   3.242
 9190WAT     H137480   2.149   0.659   3.317
 9190WAT     H237481   2.046   0.628   3.232
 9190WAT    EPW37482   2.108   0.672   3.251
 9191WAT      O37483   2.744   0.457   3.675
 9191WAT     H137484   2.717   0.440   3.756
 9191WAT     H237485   2.675   0.434   3.626
 9191WAT    EPW37486   2.730   0.451   3.679
 9192WAT      O37487   2.759   0.772   3.417
 9192WAT     H137488   2.781   0.832   3.358
 9192WAT     H237489   2.836   0.738   3.441
 9192WAT    EPW37490   2.774   0.776   3.411
 9193WAT      O37491   2.866   0.565   2.844
 9193WAT     H137492   2.889   0.488   2.878
 9193WAT     H237493   2.943   0.607   2.835
 9193WAT    EPW37494   2.881   0.560   2.848
 9194WAT      O37495   2.959   0.536   2.487
 9194WAT     H137496   2.965   0.464   2.536
 9194WAT     H237497   2.973   0.507   2.406
 9194WAT    EPW37498   2.962   0.521   2.483
 9195WAT      O37499   2.099   0.869   2.767
 9195WAT     H137500   2.034   0.912   2.727
 9195WAT     H237501   2.138   0.827   2.702
 9195WAT    EPW37502   2.095   0.869   2.752
 9196WAT      O37503   2.703   0.637   2.452
 9196WAT     H137504   2.667   0.616   2.529
 9196WAT     H237505   2.784   0.607   2.459
 9196WAT    EPW37506   2.710   0.629   2.465
 9197WAT      O37507   3.285   0.886   2.257
 9197WAT     H137508   3.352   0.942   2.262
 9197WAT     H237509   3.321   0.809   2.277
 9197WAT    EPW37510   3.300   0.883   2.260
 9198WAT      O37511   3.103   0.932   2.455
 9198WAT     H137512   3.128   1.008   2.489
 9198WAT     H237513   3.159   0.920   2.388
 9198WAT    EPW37514   3.115   0.942   2.450
 9199WAT      O37515   2.238   0.748   2.548
 9199WAT     H137516   2.283   0.673   2.550
 9199WAT     H237517   2.287   0.801   2.500
 9199WAT    EPW37518   2.252   0.745   2.541
 9200WAT      O37519   3.326   0.932   3.263
 9200WAT     H137520   3.395   0.985   3.262
 9200WAT     H237521   3.316   0.910   3.179
 9200WAT    EPW37522   3.334   0.937   3.250
 9201WAT      O37523   2.399   0.623   2.890
 9201WAT     H137524   2.465   0.610   2.835
 9201WAT     H237525   2.416   0.568   2.956
 9201WAT    EPW37526   2.411   0.613   2.892
 9202WAT      O37527   2.660   0.875   2.761
 9202WAT     H137528   2.738   0.897   2.729
 9202WAT     H237529   2.606   0.933   2.725
 9202WAT    EPW37530   2.664   0.886   2.751
 9203WAT      O37531   3.476   1.091   2.250
 9203WAT     H137532   3.533   1.072   2.187
 9203WAT     H237533   3.519   1.147   2.300
 9203WAT    EPW37534   3.491   1.096   2.248
 9204WAT      O37535   2.520   1.025   3.403
 9204WAT     H137536   2.557   0.987   3.473
 9204WAT     H237537   2.456   0.970   3.382
 9204WAT    EPW37538   2.516   1.011   3.410
 9205WAT      O37539   3.233   0.690   3.629
 9205WAT     H137540   3.223   0.702   3.715
 9205WAT     H237541   3.320   0.691   3.618
 9205WAT    EPW37542   3.245   0.692   3.640
 9206WAT      O37543   2.968   0.703   2.067
 9206WAT     H137544   2.944   0.766   2.123
 9206WAT     H237545   3.047   0.729   2.040
 9206WAT    EPW37546   2.976   0.716   2.071
 9207WAT      O37547   2.306   0.886   3.267
 9207WAT     H137548   2.242   0.826   3.263
 9207WAT     H237549   2.345   0.880   3.189
 9207WAT    EPW37550   2.302   0.876   3.255
 9208WAT      O37551   3.079   0.999   3.374
 9208WAT     H137552   3.158   0.980   3.340
 9208WAT     H237553   3.024   0.974   3.311
 9208WAT    EPW37554   3.083   0.992   3.359
 9209WAT      O37555   3.793   1.025   2.606
 9209WAT     H137556   3.751   1.094   2.640
 9209WAT     H237557   3.729   0.967   2.592
 9209WAT    EPW37558   3.777   1.027   2.609
 9210WAT      O37559   3.462   0.622   2.664
 9210WAT     H137560   3.494   0.541   2.666
 9210WAT     H237561   3.377   0.610   2.649
 9210WAT    EPW37562   3.454   0.608   2.662
 9211WAT      O37563   2.479   0.687   3.561
 9211WAT     H137564   2.550   0.731   3.539
 9211WAT     H237565   2.452   0.726   3.634
 9211WAT    EPW37566   2.485   0.699   3.569
 9212WAT      O37567   2.637   0.250   3.038
 9212WAT     H137568   2.659   0.254   3.123
 9212WAT     H237569   2.598   0.172   3.031
 9212WAT    EPW37570   2.634   0.239   3.050
 9213WAT      O37571   2.703   0.332   3.300
 9213WAT     H137572   2.701   0.416   3.276
 9213WAT     H237573   2.649   0.329   3.369
 9213WAT    EPW37574   2.695   0.344   3.307
 9214WAT      O37575   3.366   0.402   3.266
 9214WAT     H137576   3.308   0.350   3.307
 9214WAT     H237577   3.333   0.482   3.278
 9214WAT    EPW37578   3.352   0.406   3.274
 9215WAT      O37579   1.993   0.667   3.831
 9215WAT     H137580   2.047   0.668   3.899
 9215WAT     H237581   1.982   0.582   3.815
 9215WAT    EPW37582   1.999   0.655   3.839
 9216WAT      O37583   3.687   0.361   2.181
 9216WAT     H137584   3.684   0.323   2.259
 9216WAT     H237585   3.772   0.381   2.172
 9216WAT    EPW37586   3.699   0.358   2.191
 9217WAT      O37587   2.333   0.158   2.739
 9217WAT     H137588   2.399   0.200   2.700
 9217WAT     H237589   2.326   0.084   2.692
 9217WAT    EPW37590   2.341   0.153   2.726
 9218WAT      O37591   2.295   1.043   2.854
 9218WAT     H137592   2.224   0.998   2.828
 9218WAT     H237593   2.344   1.046   2.782
 9218WAT    EPW37594   2.292   1.037   2.839
 9219WAT      O37595   3.921   0.835   3.596
 9219WAT     H137596   3.845   0.840   3.553
 9219WAT     H237597   3.901   0.787   3.667
 9219WAT    EPW37598   3.907   0.828   3.600
 9220WAT      O37599   2.530   0.341   2.625
 9220WAT     H137600   2.565   0.410   2.665
 9220WAT     H237601   2.598   0.306   2.582
 9220WAT    EPW37602   2.545   0.346   2.624
 9221WAT      O37603   2.137   0.537   2.847
 9221WAT     H137604   2.085   0.593   2.888
 9221WAT     H237605   2.216   0.573   2.855
 9221WAT    EPW37606   2.141   0.551   2.854
 9222WAT      O37607   3.083   0.740   2.807
 9222WAT     H137608   3.035   0.809   2.781
 9222WAT     H237609   3.124   0.716   2.734
 9222WAT    EPW37610   3.082   0.747   2.792
 9223WAT      O37611   2.041   0.606   2.413
 9223WAT     H137612   2.101   0.658   2.448
 9223WAT     H237613   2.033   0.541   2.472
 9223WAT    EPW37614   2.048   0.604   2.427
 9224WAT      O37615   2.456   0.455   3.099
 9224WAT     H137616   2.509   0.503   3.149
 9224WAT     H237617   2.507   0.390   3.071
 9224WAT    EPW37618   2.472   0.453   3.102
 9225WAT      O37619   2.061   0.453   2.179
 9225WAT     H137620   2.144   0.433   2.163
 9225WAT     H237621   2.065   0.507   2.247
 9225WAT    EPW37622   2.073   0.458   2.186
 9226WAT      O37623   2.148   0.268   2.917
 9226WAT     H137624   2.207   0.230   2.866
 9226WAT     H237625   2.154   0.353   2.897
 9226WAT    EPW37626   2.158   0.275   2.906
 9227WAT      O37627   3.661   0.848   3.450
 9227WAT     H137628   3.610   0.916   3.469
 9227WAT     H237629   3.658   0.844   3.362
 9227WAT    EPW37630   3.653   0.858   3.440
 9228WAT      O37631   2.623   0.603   2.720
 9228WAT     H137632   2.624   0.690   2.725
 9228WAT     H237633   2.699   0.579   2.755
 9228WAT    EPW37634   2.634   0.612   2.726
 9229WAT      O37635   2.864   0.929   3.201
 9229WAT     H137636   2.844   0.867   3.143
 9229WAT     H237637   2.848   1.003   3.160
 9229WAT    EPW37638   2.859   0.931   3.186
 9230WAT      O37639   3.454   0.405   3.693
 9230WAT     H137640   3.476   0.486   3.672
 9230WAT     H237641   3.479   0.358   3.624
 9230WAT    EPW37642   3.461   0.410   3.680
 9231WAT      O37643   2.844   0.720   3.717
 9231WAT     H137644   2.877   0.711   3.797
 9231WAT     H237645   2.811   0.641   3.699
 9231WAT    EPW37646   2.844   0.707   3.726
 9232WAT      O37647   3.558   0.355   2.664
 9232WAT     H137648   3.623   0.330   2.717
 9232WAT     H237649   3.584   0.327   2.586
 9232WAT    EPW37650   3.572   0.347   2.660
 9233WAT      O37651   3.266   0.773   3.018
 9233WAT     H137652   3.208   0.761   2.954
 9233WAT     H237653   3.327   0.823   2.981
 9233WAT    EPW37654   3.266   0.779   3.003
 9234WAT      O37655   3.275   0.415   2.990
 9234WAT     H137656   3.201   0.457   3.009
 9234WAT     H237657   3.302   0.385   3.068
 9234WAT    EPW37658   3.268   0.417   3.005
 9235WAT      O37659   2.679   0.907   2.402
 9235WAT     H137660   2.687   0.826   2.433
 9235WAT     H237661   2.747   0.916   2.348
 9235WAT    EPW37662   2.691   0.897   2.399
 9236WAT      O37663   2.906   0.909   2.247
 9236WAT     H137664   2.967   0.928   2.306
 9236WAT     H237665   2.899   0.982   2.200
 9236WAT    EPW37666   2.914   0.922   2.248
 9237WAT      O37667   3.545   0.278   3.465
 9237WAT     H137668   3.514   0.320   3.396
 9237WAT     H237669   3.631   0.292   3.460
 9237WAT    EPW37670   3.553   0.286   3.454
 9238WAT      O37671   3.216   0.800   3.893
 9238WAT     H137672   3.245   0.822   3.972
 9238WAT     H237673   3.237   0.868   3.843
 9238WAT    EPW37674   3.223   0.813   3.897
 9239WAT      O37675   3.164   0.259   3.403
 9239WAT     H137676   3.115   0.308   3.457
 9239WAT     H237677   3.196   0.197   3.454
 9239WAT    EPW37678   3.161   0.257   3.418
 9240WAT      O37679   3.560   0.522   3.092
 9240WAT     H137680   3.515   0.523   3.017
 9240WAT     H237681   3.508   0.480   3.147
 9240WAT    EPW37682   3.546   0.516   3.089
 9241WAT      O37683   2.892   0.294   2.919
 9241WAT     H137684   2.809   0.277   2.939
 9241WAT     H237685   2.935   0.279   2.993
 9241WAT    EPW37686   2.886   0.289   2.933
 9242WAT      O37687   2.576   0.909   2.027
 9242WAT     H137688   2.600   0.840   2.074
 9242WAT     H237689   2.579   0.975   2.085
 9242WAT    EPW37690   2.580   0.909   2.043
 9243WAT      O37691   2.210   0.346   3.179
 9243WAT     H137692   2.284   0.388   3.159
 9243WAT     H237693   2.193   0.300   3.107
 9243WAT    EPW37694   2.218   0.345   3.165
 9244WAT      O37695   3.890   0.952   2.203
 9244WAT     H137696   3.951   0.901   2.168
 9244WAT     H237697   3.841   0.897   2.249
 9244WAT    EPW37698   3.892   0.937   2.204
 9245WAT      O37699   2.233   0.351   3.460
 9245WAT     H137700   2.228   0.340   3.373
 9245WAT     H237701   2.221   0.437   3.470
 9245WAT    EPW37702   2.230   0.362   3.449
 9246WAT      O37703   3.775   0.230   2.804
 9246WAT     H137704   3.739   0.163   2.847
 9246WAT     H237705   3.852   0.241   2.844
 9246WAT    EPW37706   3.781   0.222   2.816
 9247WAT      O37707   3.879   0.736   2.980
 9247WAT     H137708   3.905   0.790   2.916
 9247WAT     H237709   3.935   0.753   3.045
 9247WAT    EPW37710   3.891   0.747   2.980
 9248WAT      O37711   3.576   0.615   2.183
 9248WAT     H137712   3.607   0.534   2.182
 9248WAT     H237713   3.502   0.609   2.228
 9248WAT    EPW37714   3.570   0.602   2.189
 9249WAT      O37715   3.823   0.357   3.471
 9249WAT     H137716   3.908   0.336   3.475
 9249WAT     H237717   3.817   0.407   3.399
 9249WAT    EPW37718   3.835   0.361   3.461
 9250WAT      O37719   3.256   0.427   2.133
 9250WAT     H137720   3.317   0.368   2.116
 9250WAT     H237721   3.233   0.456   2.054
 9250WAT    EPW37722   3.262   0.423   2.119
 9251WAT      O37723   2.663   0.597   3.224
 9251WAT     H137724   2.684   0.647   3.292
 9251WAT     H237725   2.690   0.643   3.155
 9251WAT    EPW37726   2.670   0.611   3.224
 9252WAT      O37727   2.514   0.409   3.510
 9252WAT     H137728   2.434   0.375   3.501
 9252WAT     H237729   2.499   0.495   3.520
 9252WAT    EPW37730   2.500   0.417   3.510
 9253WAT      O37731   2.964   0.279   3.202
 9253WAT     H137732   3.023   0.257   3.263
 9253WAT     H237733   2.890   0.285   3.248
 9253WAT    EPW37734   2.962   0.277   3.218
 9254WAT      O37735   2.924   0.944   2.687
 9254WAT     H137736   2.919   1.030   2.702
 9254WAT     H237737   2.961   0.940   2.608
 9254WAT    EPW37738   2.929   0.956   2.677
 9255WAT      O37739   2.753   0.754   3.012
 9255WAT     H137740   2.711   0.800   2.950
 9255WAT     H237741   2.798   0.695   2.966
 9255WAT    EPW37742   2.754   0.752   2.996
 9256WAT      O37743   3.181   0.416   3.775
 9256WAT     H137744   3.259   0.419   3.736
 9256WAT     H237745   3.125   0.425   3.709
 9256WAT    EPW37746   3.184   0.417   3.759
 9257WAT      O37747   3.512   0.671   3.615
 9257WAT     H137748   3.542   0.702   3.692
 9257WAT     H237749   3.558   0.716   3.556
 9257WAT    EPW37750   3.523   0.682   3.618
 9258WAT      O37751   2.793   0.287   2.220
 9258WAT     H137752   2.739   0.320   2.160
 9258WAT     H237753   2.863   0.339   2.216
 9258WAT    EPW37754   2.796   0.300   2.211
 9259WAT      O37755   2.995   0.946   3.634
 9259WAT     H137756   3.015   0.944   3.549
 9259WAT     H237757   2.959   0.868   3.649
 9259WAT    EPW37758   2.993   0.934   3.624
 9260WAT      O37759   3.640   0.224   2.425
 9260WAT     H137760   3.700   0.167   2.453
 9260WAT     H237761   3.570   0.174   2.409
 9260WAT    EPW37762   3.638   0.208   2.427
 9261WAT      O37763   2.999   0.422   3.557
 9261WAT     H137764   2.920   0.419   3.595
 9261WAT     H237765   3.002   0.502   3.522
 9261WAT    EPW37766   2.988   0.433   3.557
 9262WAT      O37767   2.566   1.084   3.129
 9262WAT     H137768   2.558   1.073   3.215
 9262WAT     H237769   2.532   1.011   3.096
 9262WAT    EPW37770   2.560   1.072   3.137
 9263WAT      O37771   3.273   0.359   2.716
 9263WAT     H137772   3.273   0.375   2.801
 9263WAT     H237773   3.357   0.344   2.697
 9263WAT    EPW37774   3.285   0.359   2.725
 9264WAT      O37775   3.000   0.309   2.648
 9264WAT     H137776   2.967   0.298   2.728
 9264WAT     H237777   3.086   0.315   2.662
 9264WAT    EPW37778   3.007   0.308   2.662
 9265WAT      O37779   3.025   0.677   3.451
 9265WAT     H137780   3.082   0.690   3.515
 9265WAT     H237781   3.074   0.679   3.378
 9265WAT    EPW37782   3.041   0.679   3.449
 9266WAT      O37783   2.196   1.027   3.643
 9266WAT     H137784   2.138   0.963   3.631
 9266WAT     H237785   2.148   1.092   3.675
 9266WAT    EPW37786   2.180   1.027   3.646
 9267WAT      O37787   3.460   0.966   2.969
 9267WAT     H137788   3.434   1.041   3.005
 9267WAT     H237789   3.523   0.939   3.022
 9267WAT    EPW37790   3.465   0.973   2.982
 9268WAT      O37791   3.044   0.524   3.103
 9268WAT     H137792   3.014   0.452   3.141
 9268WAT     H237793   3.088   0.564   3.167
 9268WAT    EPW37794   3.046   0.519   3.118
 9269WAT      O37795   3.623   0.751   3.855
 9269WAT     H137796   3.705   0.724   3.843
 9269WAT     H237797   3.597   0.706   3.925
 9269WAT    EPW37798   3.632   0.741   3.864
 9270WAT      O37799   3.184   0.678   2.554
 9270WAT     H137800   3.164   0.758   2.526
 9270WAT     H237801   3.112   0.632   2.535
 9270WAT    EPW37802   3.170   0.683   2.547
 9271WAT      O37803   2.605   0.671   2.183
 9271WAT     H137804   2.648   0.663   2.258
 9271WAT     H237805   2.522   0.652   2.205
 9271WAT    EPW37806   2.599   0.667   2.198
 9272WAT      O37807   3.576   0.852   2.561
 9272WAT     H137808   3.545   0.779   2.595
 9272WAT     H237809   3.613   0.826   2.486
 9272WAT    EPW37810   3.577   0.838   2.555
 9273WAT      O37811   2.350   0.576   2.238
 9273WAT     H137812   2.344   0.547   2.321
 9273WAT     H237813   2.358   0.502   2.192
 9273WAT    EPW37814   2.350   0.561   2.244
 9274WAT      O37815   2.631   0.432   2.037
 9274WAT     H137816   2.547   0.409   2.041
 9274WAT     H237817   2.633   0.510   2.077
 9274WAT    EPW37818   2.619   0.440   2.043
 9275WAT      O37819   3.244   0.654   3.265
 9275WAT     H137820   3.281   0.716   3.313
 9275WAT     H237821   3.253   0.684   3.183
 9275WAT    EPW37822   3.251   0.668   3.260
 9276WAT      O37823   3.264   1.004   3.710
 9276WAT     H137824   3.187   0.980   3.677
 9276WAT     H237825   3.250   1.085   3.739
 9276WAT    EPW37826   3.250   1.012   3.710
 9277WAT      O37827   3.818   0.487   3.223
 9277WAT     H137828   3.880   0.442   3.182
 9277WAT     H237829   3.753   0.491   3.165
 9277WAT    EPW37830   3.818   0.481   3.208
 9278WAT      O37831   2.642   0.932   3.638
 9278WAT     H137832   2.635   0.929   3.725
 9278WAT     H237833   2.710   0.880   3.621
 9278WAT    EPW37834   2.651   0.924   3.648
 9279WAT      O37835   3.641   0.795   3.130
 9279WAT     H137836   3.713   0.788   3.082
 9279WAT     H237837   3.605   0.716   3.125
 9279WAT    EPW37838   3.646   0.782   3.122
 9280WAT      O37839   2.350   0.825   3.779
 9280WAT     H137840   2.421   0.858   3.819
 9280WAT     H237841   2.314   0.895   3.742
 9280WAT    EPW37842   2.355   0.840   3.779
 9281WAT      O37843   2.216   0.626   3.487
 9281WAT     H137844   2.163   0.681   3.528
 9281WAT     H237845   2.296   0.657   3.506
 9281WAT    EPW37846   2.220   0.639   3.496
 9282WAT      O37847   2.403   0.919   2.397
 9282WAT     H137848   2.376   0.957   2.324
 9282WAT     H237849   2.489   0.911   2.386
 9282WAT    EPW37850   2.412   0.923   2.385
 9283WAT      O37851   2.757   0.246   2.496
 9283WAT     H137852   2.769   0.252   2.410
 9283WAT     H237853   2.838   0.250   2.529
 9283WAT    EPW37854   2.770   0.247   2.488
 9284WAT      O37855   3.662   1.021   2.055
 9284WAT     H137856   3.739   1.006   2.093
 9284WAT     H237857   3.641   0.943   2.020
 9284WAT    EPW37858   3.670   1.007   2.055
 9285WAT      O37859   3.822   0.410   3.748
 9285WAT     H137860   3.760   0.359   3.781
 9285WAT     H237861   3.816   0.397   3.662
 9285WAT    EPW37862   3.812   0.401   3.740
 9286WAT      O37863   3.339   0.620   2.321
 9286WAT     H137864   3.295   0.617   2.396
 9286WAT     H237865   3.298   0.560   2.272
 9286WAT    EPW37866   3.327   0.610   2.325
 9287WAT      O37867   3.476   0.260   3.939
 9287WAT     H137868   3.549   0.291   3.976
 9287WAT     H237869   3.472   0.303   3.864
 9287WAT    EPW37870   3.486   0.271   3.934
 9288WAT      O37871   2.426   0.870   3.019
 9288WAT     H137872   2.422   0.792   2.980
 9288WAT     H237873   2.382   0.922   2.964
 9288WAT    EPW37874   2.419   0.866   3.005
 9289WAT      O37875   2.999   0.473   2.221
 9289WAT     H137876   3.077   0.445   2.196
 9289WAT     H237877   2.984   0.542   2.170
 9289WAT    EPW37878   3.008   0.479   2.210
 9290WAT      O37879   2.177   1.106   3.375
 9290WAT     H137880   2.185   1.082   3.459
 9290WAT     H237881   2.213   1.041   3.331
 9290WAT    EPW37882   2.183   1.093   3.381
 9291WAT      O37883   2.071   0.404   0.722
 9291WAT     H137884   2.084   0.451   0.793
 9291WAT     H237885   2.024   0.336   0.751
 9291WAT    EPW37886   2.066   0.401   0.737
 9292WAT      O37887   3.724   0.769   0.471
 9292WAT     H137888   3.781   0.707   0.494
 9292WAT     H237889   3.674   0.730   0.410
 9292WAT    EPW37890   3.725   0.754   0.465
 9293WAT      O37891   2.315   0.324   0.234
 9293WAT     H137892   2.298   0.295   0.153
 9293WAT     H237893   2.321   0.250   0.281
 9293WAT    EPW37894   2.313   0.309   0.229
 9294WAT      O37895   2.328   0.483   0.622
 9294WAT     H137896   2.398   0.435   0.643
 9294WAT     H237897   2.261   0.436   0.652
 9294WAT    EPW37898   2.328   0.469   0.630
 9295WAT      O37899   2.244   0.825   0.276
 9295WAT     H137900   2.279   0.832   0.197
 9295WAT     H237901   2.265   0.744   0.300
 9295WAT    EPW37902   2.252   0.814   0.268
 9296WAT      O37903   2.110   0.689   1.353
 9296WAT     H137904   2.147   0.662   1.428
 9296WAT     H237905   2.044   0.634   1.343
 9296WAT    EPW37906   2.106   0.677   1.363
 9297WAT      O37907   2.746   0.456   1.780
 9297WAT     H137908   2.717   0.442   1.861
 9297WAT     H237909   2.677   0.434   1.730
 9297WAT    EPW37910   2.731   0.450   1.784
 9298WAT      O37911   2.743   0.762   1.520
 9298WAT     H137912   2.763   0.825   1.462
 9298WAT     H237913   2.821   0.730   1.543
 9298WAT    EPW37914   2.757   0.767   1.515
 9299WAT      O37915   2.873   0.559   0.954
 9299WAT     H137916   2.894   0.481   0.988
 9299WAT     H237917   2.949   0.600   0.948
 9299WAT    EPW37918   2.887   0.553   0.958
 9300WAT      O37919   2.958   0.536   0.618
 9300WAT     H137920   2.966   0.468   0.671
 9300WAT     H237921   2.970   0.502   0.538
 9300WAT    EPW37922   2.961   0.521   0.614
 9301WAT      O37923   2.088   0.871   0.875
 9301WAT     H137924   2.027   0.919   0.833
 9301WAT     H237925   2.127   0.827   0.810
 9301WAT    EPW37926   2.084   0.872   0.859
 9302WAT      O37927   2.718   0.674   0.572
 9302WAT     H137928   2.677   0.647   0.645
 9302WAT     H237929   2.797   0.638   0.579
 9302WAT    EPW37930   2.723   0.665   0.584
 9303WAT      O37931   3.259   0.872   0.364
 9303WAT     H137932   3.323   0.930   0.352
 9303WAT     H237933   3.301   0.799   0.387
 9303WAT    EPW37934   3.275   0.869   0.365
 9304WAT      O37935   3.090   0.922   0.574
 9304WAT     H137936   3.120   0.994   0.612
 9304WAT     H237937   3.141   0.912   0.505
 9304WAT    EPW37938   3.102   0.931   0.570
 9305WAT      O37939   2.226   0.744   0.663
 9305WAT     H137940   2.275   0.672   0.669
 9305WAT     H237941   2.277   0.799   0.618
 9305WAT    EPW37942   2.241   0.742   0.657
 9306WAT      O37943   3.333   0.924   1.370
 9306WAT     H137944   3.406   0.971   1.366
 9306WAT     H237945   3.322   0.896   1.288
 9306WAT    EPW37946   3.342   0.927   1.357
 9307WAT      O37947   2.401   0.611   0.992
 9307WAT     H137948   2.467   0.597   0.936
 9307WAT     H237949   2.417   0.556   1.057
 9307WAT    EPW37950   2.413   0.601   0.993
 9308WAT      O37951   2.660   0.863   0.881
 9308WAT     H137952   2.738   0.892   0.855
 9308WAT     H237953   2.604   0.920   0.844
 9308WAT    EPW37954   2.663   0.876   0.872
 9309WAT      O37955   3.467   1.067   0.337
 9309WAT     H137956   3.514   1.025   0.277
 9309WAT     H237957   3.525   1.120   0.375
 9309WAT    EPW37958   3.483   1.069   0.334
 9310WAT      O37959   2.536   1.014   1.506
 9310WAT     H137960   2.568   0.983   1.581
 9310WAT     H237961   2.471   0.959   1.488
 9310WAT    EPW37962   2.531   1.001   1.514
 9311WAT      O37963   3.234   0.707   1.697
 9311WAT     H137964   3.215   0.665   1.771
 9311WAT     H237965   3.321   0.710   1.697
 9311WAT    EPW37966   3.244   0.701   1.708
 9312WAT      O37967   3.039   0.711   0.265
 9312WAT     H137968   2.976   0.772   0.270
 9312WAT     H237969   3.112   0.757   0.277
 9312WAT    EPW37970   3.040   0.727   0.267
 9313WAT      O37971   2.314   0.879   1.378
 9313WAT     H137972   2.248   0.823   1.373
 9313WAT     H237973   2.353   0.872   1.300
 9313WAT    EPW37974   2.310   0.870   1.366
 9314WAT      O37975   3.086   0.992   1.472
 9314WAT     H137976   3.164   0.972   1.438
 9314WAT     H237977   3.030   0.965   1.411
 9314WAT    EPW37978   3.089   0.985   1.458
 9315WAT      O37979   3.786   1.015   0.733
 9315WAT     H137980   3.745   1.091   0.749
 9315WAT     H237981   3.720   0.959   0.720
 9315WAT    EPW37982   3.770   1.018   0.733
 9316WAT      O37983   3.468   0.619   0.787
 9316WAT     H137984   3.508   0.542   0.784
 9316WAT     H237985   3.384   0.600   0.777
 9316WAT    EPW37986   3.462   0.605   0.785
 9317WAT      O37987   2.488   0.688   1.655
 9317WAT     H137988   2.561   0.725   1.625
 9317WAT     H237989   2.471   0.732   1.728
 9317WAT    EPW37990   2.496   0.700   1.661
 9318WAT      O37991   2.637   0.240   1.148
 9318WAT     H137992   2.659   0.246   1.232
 9318WAT     H237993   2.601   0.161   1.141
 9318WAT    EPW37994   2.635   0.229   1.160
 9319WAT      O37995   2.704   0.322   1.410
 9319WAT     H137996   2.699   0.405   1.383
 9319WAT     H237997   2.650   0.320   1.478
 9319WAT    EPW37998   2.695   0.334   1.416
 9320WAT      O37999   3.372   0.386   1.370
 9320WAT     H138000   3.313   0.338   1.413
 9320WAT     H238001   3.345   0.468   1.382
 9320WAT    EPW38002   3.359   0.391   1.378
 9321WAT      O38003   1.987   0.667   1.927
 9321WAT     H138004   2.045   0.673   1.991
 9321WAT     H238005   1.979   0.581   1.914
 9321WAT    EPW38006   1.995   0.655   1.934
 9322WAT      O38007   3.655   0.391   0.305
 9322WAT     H138008   3.642   0.346   0.378
 9322WAT     H238009   3.741   0.388   0.294
 9322WAT    EPW38010   3.666   0.384   0.314
 9323WAT      O38011   2.346   0.168   0.811
 9323WAT     H138012   2.418   0.200   0.772
 9323WAT     H238013   2.335   0.091   0.772
 9323WAT    EPW38014   2.355   0.161   0.800
 9324WAT      O38015   2.294   1.029   0.967
 9324WAT     H138016   2.221   0.989   0.940
 9324WAT     H238017   2.344   1.031   0.895
 9324WAT    EPW38018   2.291   1.023   0.952
 9325WAT      O38019   3.927   0.801   1.689
 9325WAT     H138020   3.852   0.810   1.644
 9325WAT     H238021   3.902   0.762   1.763
 9325WAT    EPW38022   3.912   0.797   1.693
 9326WAT      O38023   2.558   0.342   0.685
 9326WAT     H138024   2.594   0.406   0.732
 9326WAT     H238025   2.614   0.329   0.620
 9326WAT    EPW38026   2.571   0.349   0.682
 9327WAT      O38027   2.136   0.532   0.957
 9327WAT     H138028   2.085   0.588   0.999
 9327WAT     H238029   2.216   0.568   0.963
 9327WAT    EPW38030   2.141   0.545   0.965
 9328WAT      O38031   3.092   0.735   0.926
 9328WAT     H138032   3.041   0.802   0.904
 9328WAT     H238033   3.130   0.712   0.851
 9328WAT    EPW38034   3.090   0.742   0.912
 9329WAT      O38035   2.040   0.592   0.522
 9329WAT     H138036   2.098   0.647   0.557
 9329WAT     H238037   2.034   0.529   0.583
 9329WAT    EPW38038   2.047   0.591   0.536
 9330WAT      O38039   2.452   0.445   1.202
 9330WAT     H138040   2.505   0.493   1.252
 9330WAT     H238041   2.503   0.379   1.175
 9330WAT    EPW38042   2.468   0.442   1.206
 9331WAT      O38043   2.045   0.403   0.314
 9331WAT     H138044   2.128   0.387   0.289
 9331WAT     H238045   2.053   0.468   0.372
 9331WAT    EPW38046   2.059   0.410   0.319
 9332WAT      O38047   2.166   0.259   1.009
 9332WAT     H138048   2.225   0.228   0.953
 9332WAT     H238049   2.166   0.345   0.994
 9332WAT    EPW38050   2.174   0.267   0.999
 9333WAT      O38051   3.677   0.831   1.556
 9333WAT     H138052   3.631   0.904   1.567
 9333WAT     H238053   3.672   0.816   1.470
 9333WAT    EPW38054   3.669   0.839   1.545
 9334WAT      O38055   2.630   0.596   0.826
 9334WAT     H138056   2.629   0.683   0.839
 9334WAT     H238057   2.705   0.571   0.861
 9334WAT    EPW38058   2.641   0.605   0.833
 9335WAT      O38059   2.872   0.913   1.309
 9335WAT     H138060   2.848   0.853   1.251
 9335WAT     H238061   2.862   0.988   1.265
 9335WAT    EPW38062   2.867   0.916   1.294
 9336WAT      O38063   3.451   0.410   1.791
 9336WAT     H138064   3.477   0.491   1.770
 9336WAT     H238065   3.478   0.362   1.724
 9336WAT    EPW38066   3.459   0.415   1.778
 9337WAT      O38067   2.843   0.721   1.816
 9337WAT     H138068   2.876   0.715   1.897
 9337WAT     H238069   2.812   0.641   1.800
 9337WAT    EPW38070   2.844   0.709   1.826
 9338WAT      O38071   3.575   0.357   0.776
 9338WAT     H138072   3.643   0.329   0.824
 9338WAT     H238073   3.591   0.325   0.697
 9338WAT    EPW38074   3.587   0.348   0.772
 9339WAT      O38075   3.288   0.782   1.123
 9339WAT     H138076   3.226   0.766   1.065
 9339WAT     H238077   3.336   0.845   1.086
 9339WAT    EPW38078   3.286   0.789   1.109
 9340WAT      O38079   3.275   0.416   1.102
 9340WAT     H138080   3.200   0.456   1.120
 9340WAT     H238081   3.300   0.383   1.179
 9340WAT    EPW38082   3.268   0.417   1.116
 9341WAT      O38083   2.653   0.928   0.469
 9341WAT     H138084   2.669   0.854   0.512
 9341WAT     H238085   2.724   0.940   0.419
 9341WAT    EPW38086   2.666   0.919   0.468
 9342WAT      O38087   2.904   0.944   0.358
 9342WAT     H138088   2.948   0.927   0.431
 9342WAT     H238089   2.922   1.028   0.342
 9342WAT    EPW38090   2.913   0.954   0.367
 9343WAT      O38091   3.549   0.273   1.574
 9343WAT     H138092   3.518   0.309   1.501
 9343WAT     H238093   3.635   0.285   1.567
 9343WAT    EPW38094   3.557   0.280   1.562
 9344WAT      O38095   3.215   0.810   1.999
 9344WAT     H138096   3.241   0.842   2.076
 9344WAT     H238097   3.247   0.867   1.942
 9344WAT    EPW38098   3.224   0.823   2.002
 9345WAT      O38099   3.167   0.256   1.514
 9345WAT     H138100   3.119   0.305   1.569
 9345WAT     H238101   3.196   0.192   1.565
 9345WAT    EPW38102   3.164   0.254   1.530
 9346WAT      O38103   3.570   0.504   1.197
 9346WAT     H138104   3.524   0.519   1.124
 9346WAT     H238105   3.515   0.458   1.247
 9346WAT    EPW38106   3.555   0.500   1.193
 9347WAT      O38107   2.897   0.291   1.038
 9347WAT     H138108   2.814   0.272   1.054
 9347WAT     H238109   2.936   0.279   1.116
 9347WAT    EPW38110   2.891   0.286   1.052
 9348WAT      O38111   2.200   0.346   1.275
 9348WAT     H138112   2.275   0.387   1.258
 9348WAT     H238113   2.188   0.295   1.206
 9348WAT    EPW38114   2.209   0.345   1.262
 9349WAT      O38115   3.876   0.939   0.318
 9349WAT     H138116   3.952   0.899   0.302
 9349WAT     H238117   3.834   0.884   0.371
 9349WAT    EPW38118   3.881   0.925   0.324
 9350WAT      O38119   2.235   0.350   1.557
 9350WAT     H138120   2.227   0.341   1.471
 9350WAT     H238121   2.223   0.436   1.569
 9350WAT    EPW38122   2.232   0.362   1.546
 9351WAT      O38123   3.804   0.220   0.886
 9351WAT     H138124   3.772   0.142   0.909
 9351WAT     H238125   3.877   0.228   0.932
 9351WAT    EPW38126   3.810   0.210   0.896
 9352WAT      O38127   3.879   0.729   1.095
 9352WAT     H138128   3.904   0.786   1.033
 9352WAT     H238129   3.936   0.742   1.159
 9352WAT    EPW38130   3.891   0.740   1.095
 9353WAT      O38131   3.569   0.653   0.277
 9353WAT     H138132   3.600   0.572   0.272
 9353WAT     H238133   3.497   0.646   0.326
 9353WAT    EPW38134   3.563   0.640   0.283
 9354WAT      O38135   3.829   0.344   1.579
 9354WAT     H138136   3.913   0.319   1.581
 9354WAT     H238137   3.824   0.391   1.506
 9354WAT    EPW38138   3.841   0.348   1.568
 9355WAT      O38139   3.253   0.428   0.252
 9355WAT     H138140   3.323   0.381   0.227
 9355WAT     H238141   3.231   0.472   0.181
 9355WAT    EPW38142   3.260   0.427   0.238
 9356WAT      O38143   2.659   0.583   1.328
 9356WAT     H138144   2.675   0.635   1.396
 9356WAT     H238145   2.687   0.628   1.260
 9356WAT    EPW38146   2.665   0.597   1.328
 9357WAT      O38147   2.515   0.407   1.617
 9357WAT     H138148   2.435   0.374   1.604
 9357WAT     H238149   2.501   0.493   1.622
 9357WAT    EPW38150   2.501   0.415   1.616
 9358WAT      O38151   2.968   0.282   1.316
 9358WAT     H138152   3.026   0.258   1.376
 9358WAT     H238153   2.893   0.285   1.360
 9358WAT    EPW38154   2.966   0.279   1.331
 9359WAT      O38155   2.924   0.939   0.820
 9359WAT     H138156   2.926   1.023   0.842
 9359WAT     H238157   2.955   0.939   0.738
 9359WAT    EPW38158   2.929   0.951   0.811
 9360WAT      O38159   2.754   0.741   1.124
 9360WAT     H138160   2.712   0.788   1.064
 9360WAT     H238161   2.800   0.684   1.076
 9360WAT    EPW38162   2.754   0.740   1.108
 9361WAT      O38163   3.191   0.484   1.870
 9361WAT     H138164   3.266   0.455   1.835
 9361WAT     H238165   3.131   0.457   1.813
 9361WAT    EPW38166   3.193   0.476   1.856
 9362WAT      O38167   3.511   0.676   1.720
 9362WAT     H138168   3.537   0.710   1.796
 9362WAT     H238169   3.563   0.715   1.661
 9362WAT    EPW38170   3.523   0.687   1.722
 9363WAT      O38171   3.013   0.936   1.733
 9363WAT     H138172   3.030   0.936   1.648
 9363WAT     H238173   2.973   0.859   1.746
 9363WAT    EPW38174   3.010   0.925   1.723
 9364WAT      O38175   3.631   0.223   0.534
 9364WAT     H138176   3.708   0.182   0.535
 9364WAT     H238177   3.573   0.159   0.524
 9364WAT    EPW38178   3.634   0.207   0.533
 9365WAT      O38179   3.004   0.422   1.668
 9365WAT     H138180   2.925   0.417   1.705
 9365WAT     H238181   3.002   0.498   1.625
 9365WAT    EPW38182   2.992   0.433   1.667
 9366WAT      O38183   2.570   1.075   1.227
 9366WAT     H138184   2.565   1.067   1.314
 9366WAT     H238185   2.540   0.999   1.197
 9366WAT    EPW38186   2.565   1.063   1.236
 9367WAT      O38187   3.294   0.366   0.830
 9367WAT     H138188   3.292   0.380   0.916
 9367WAT     H238189   3.378   0.349   0.814
 9367WAT    EPW38190   3.306   0.365   0.840
 9368WAT      O38191   3.021   0.320   0.778
 9368WAT     H138192   2.989   0.299   0.856
 9368WAT     H238193   3.107   0.325   0.793
 9368WAT    EPW38194   3.029   0.318   0.792
 9369WAT      O38195   3.011   0.670   1.539
 9369WAT     H138196   3.080   0.690   1.587
 9369WAT     H238197   3.038   0.681   1.457
 9369WAT    EPW38198   3.025   0.674   1.534
 9370WAT      O38199   2.200   1.030   1.749
 9370WAT     H138200   2.144   0.965   1.735
 9370WAT     H238201   2.149   1.095   1.779
 9370WAT    EPW38202   2.184   1.030   1.751
 9371WAT      O38203   3.419   1.027   1.071
 9371WAT     H138204   3.360   1.090   1.087
 9371WAT     H238205   3.480   1.040   1.132
 9371WAT    EPW38206   3.419   1.038   1.082
 9372WAT      O38207   3.049   0.531   1.223
 9372WAT     H138208   3.020   0.458   1.260
 9372WAT     H238209   3.110   0.560   1.279
 9372WAT    EPW38210   3.054   0.524   1.237
 9373WAT      O38211   3.618   0.767   1.957
 9373WAT     H138212   3.700   0.739   1.945
 9373WAT     H238213   3.590   0.719   2.025
 9373WAT    EPW38214   3.626   0.756   1.965
 9374WAT      O38215   3.187   0.675   0.670
 9374WAT     H138216   3.163   0.754   0.643
 9374WAT     H238217   3.117   0.626   0.655
 9374WAT    EPW38218   3.173   0.680   0.664
 9375WAT      O38219   2.611   0.621   0.314
 9375WAT     H138220   2.651   0.634   0.390
 9375WAT     H238221   2.526   0.622   0.335
 9375WAT    EPW38222   2.604   0.623   0.328
 9376WAT      O38223   3.563   0.855   0.680
 9376WAT     H138224   3.535   0.782   0.718
 9376WAT     H238225   3.603   0.827   0.608
 9376WAT    EPW38226   3.565   0.840   0.675
 9377WAT      O38227   2.338   0.577   0.360
 9377WAT     H138228   2.332   0.551   0.443
 9377WAT     H238229   2.332   0.502   0.315
 9377WAT    EPW38230   2.336   0.562   0.366
 9378WAT      O38231   2.601   0.361   0.219
 9378WAT     H138232   2.514   0.356   0.218
 9378WAT     H238233   2.616   0.445   0.235
 9378WAT    EPW38234   2.590   0.372   0.221
 9379WAT      O38235   3.265   0.641   1.362
 9379WAT     H138236   3.291   0.702   1.418
 9379WAT     H238237   3.281   0.676   1.284
 9379WAT    EPW38238   3.271   0.655   1.359
 9380WAT      O38239   3.286   1.002   1.798
 9380WAT     H138240   3.215   0.964   1.766
 9380WAT     H238241   3.260   1.083   1.814
 9380WAT    EPW38242   3.271   1.008   1.796
 9381WAT      O38243   3.825   0.467   1.330
 9381WAT     H138244   3.889   0.426   1.287
 9381WAT     H238245   3.761   0.473   1.270
 9381WAT    EPW38246   3.825   0.462   1.314
 9382WAT      O38247   2.655   0.935   1.755
 9382WAT     H138248   2.639   0.941   1.840
 9382WAT     H238249   2.716   0.873   1.750
 9382WAT    EPW38250   2.662   0.927   1.767
 9383WAT      O38251   3.660   0.761   1.281
 9383WAT     H138252   3.721   0.768   1.220
 9383WAT     H238253   3.621   0.685   1.262
 9383WAT    EPW38254   3.663   0.751   1.269
 9384WAT      O38255   2.357   0.827   1.879
 9384WAT     H138256   2.424   0.860   1.923
 9384WAT     H238257   2.318   0.896   1.843
 9384WAT    EPW38258   2.361   0.842   1.880
 9385WAT      O38259   2.221   0.625   1.595
 9385WAT     H138260   2.169   0.682   1.635
 9385WAT     H238261   2.301   0.657   1.609
 9385WAT    EPW38262   2.225   0.638   1.603
 9386WAT      O38263   2.380   0.915   0.505
 9386WAT     H138264   2.338   0.903   0.430
 9386WAT     H238265   2.464   0.919   0.482
 9386WAT    EPW38266   2.387   0.914   0.491
 9387WAT      O38267   2.733   0.320   0.461
 9387WAT     H138268   2.691   0.320   0.384
 9387WAT     H238269   2.813   0.348   0.441
 9387WAT    EPW38270   2.739   0.324   0.447
 9388WAT      O38271   3.632   0.915   0.172
 9388WAT     H138272   3.713   0.924   0.203
 9388WAT     H238273   3.614   0.831   0.187
 9388WAT    EPW38274   3.641   0.904   0.179
 9389WAT      O38275   3.823   0.407   1.853
 9389WAT     H138276   3.763   0.353   1.885
 9389WAT     H238277   3.820   0.393   1.767
 9389WAT    EPW38278   3.814   0.397   1.845
 9390WAT      O38279   3.345   0.621   0.438
 9390WAT     H138280   3.308   0.620   0.517
 9390WAT     H238281   3.305   0.555   0.396
 9390WAT    EPW38282   3.334   0.611   0.443
 9391WAT      O38283   3.466   0.270   2.037
 9391WAT     H138284   3.540   0.298   2.075
 9391WAT     H238285   3.466   0.311   1.960
 9391WAT    EPW38286   3.477   0.280   2.031
 9392WAT      O38287   2.427   0.854   1.128
 9392WAT     H138288   2.425   0.778   1.086
 9392WAT     H238289   2.383   0.908   1.076
 9392WAT    EPW38290   2.421   0.851   1.114
 9393WAT      O38291   2.986   0.450   0.360
 9393WAT     H138292   3.062   0.415   0.334
 9393WAT     H238293   2.986   0.529   0.323
 9393WAT    EPW38294   2.997   0.456   0.351
 9394WAT      O38295   2.179   1.100   1.477
 9394WAT     H138296   2.188   1.078   1.561
 9394WAT     H238297   2.218   1.035   1.434
 9394WAT    EPW38298   2.186   1.087   1.483
 9395WAT      O38299   1.277   6.677   6.395
 9395WAT     H138300   1.280   6.721   6.320
 9395WAT     H238301   1.361   6.658   6.411
 9395WAT    EPW38302   1.290   6.680   6.386
 9396WAT      O38303   1.219   7.320   6.814
 9396WAT     H138304   1.187   7.396   6.843
 9396WAT     H238305   1.272   7.295   6.879
 9396WAT    EPW38306   1.222   7.328   6.828
 9397WAT      O38307   1.499   7.485   6.482
 9397WAT     H138308   1.501   7.484   6.395
 9397WAT     H238309   1.439   7.424   6.502
 9397WAT    EPW38310   1.491   7.476   6.472
 9398WAT      O38311   0.933   6.780   6.263
 9398WAT     H138312   0.924   6.850   6.212
 9398WAT     H238313   1.012   6.750   6.243
 9398WAT    EPW38314   0.943   6.786   6.253
 9399WAT      O38315   0.384   7.527   6.476
 9399WAT     H138316   0.338   7.475   6.424
 9399WAT     H238317   0.455   7.480   6.494
 9399WAT    EPW38318   0.388   7.512   6.471
 9400WAT      O38319   0.837   7.097   7.018
 9400WAT     H138320   0.904   7.102   6.962
 9400WAT     H238321   0.818   7.012   7.020
 9400WAT    EPW38322   0.844   7.085   7.010
 9401WAT      O38323   0.565   7.326   6.560
 9401WAT     H138324   0.642   7.286   6.563
 9401WAT     H238325   0.508   7.259   6.555
 9401WAT    EPW38326   0.568   7.310   6.560
 9402WAT      O38327   1.196   7.334   7.483
 9402WAT     H138328   1.109   7.334   7.492
 9402WAT     H238329   1.209   7.382   7.411
 9402WAT    EPW38330   1.185   7.341   7.473
 9403WAT      O38331   0.654   6.776   6.319
 9403WAT     H138332   0.621   6.842   6.273
 9403WAT     H238333   0.738   6.775   6.296
 9403WAT    EPW38334   0.661   6.786   6.308
 9404WAT      O38335   1.643   6.587   7.346
 9404WAT     H138336   1.629   6.656   7.294
 9404WAT     H238337   1.564   6.570   7.380
 9404WAT    EPW38338   1.629   6.595   7.343
 9405WAT      O38339   0.957   6.747   6.539
 9405WAT     H138340   0.974   6.830   6.559
 9405WAT     H238341   0.935   6.751   6.454
 9405WAT    EPW38342   0.956   6.760   6.530
 9406WAT      O38343   1.381   6.999   5.805
 9406WAT     H138344   1.338   7.067   5.839
 9406WAT     H238345   1.395   6.946   5.873
 9406WAT    EPW38346   1.377   7.001   5.820
 9407WAT      O38347   0.475   6.761   6.759
 9407WAT     H138348   0.431   6.692   6.729
 9407WAT     H238349   0.534   6.726   6.813
 9407WAT    EPW38350   0.477   6.746   6.762
 9408WAT      O38351   1.948   6.975   6.495
 9408WAT     H138352   1.897   7.045   6.508
 9408WAT     H238353   1.891   6.910   6.486
 9408WAT    EPW38354   1.932   6.976   6.496
 9409WAT      O38355   0.374   6.823   7.534
 9409WAT     H138356   0.344   6.891   7.489
 9409WAT     H238357   0.457   6.816   7.509
 9409WAT    EPW38358   0.382   6.832   7.524
 9410WAT      O38359   1.065   6.768   7.554
 9410WAT     H138360   1.063   6.686   7.524
 9410WAT     H238361   1.000   6.807   7.512
 9410WAT    EPW38362   1.055   6.762   7.544
 9411WAT      O38363   1.118   7.213   6.411
 9411WAT     H138364   1.145   7.171   6.339
 9411WAT     H238365   1.192   7.234   6.452
 9411WAT    EPW38366   1.133   7.209   6.406
 9412WAT      O38367   1.224   7.205   5.930
 9412WAT     H138368   1.233   7.284   5.968
 9412WAT     H238369   1.145   7.209   5.894
 9412WAT    EPW38370   1.214   7.217   5.930
 9413WAT      O38371   1.862   6.906   6.924
 9413WAT     H138372   1.922   6.889   6.862
 9413WAT     H238373   1.883   6.851   6.988
 9413WAT    EPW38374   1.874   6.895   6.924
 9414WAT      O38375   1.432   6.827   6.015
 9414WAT     H138376   1.484   6.757   6.020
 9414WAT     H238377   1.451   6.872   6.087
 9414WAT    EPW38378   1.442   6.823   6.027
 9415WAT      O38379   0.265   7.016   6.240
 9415WAT     H138380   0.235   6.979   6.312
 9415WAT     H238381   0.258   7.101   6.256
 9415WAT    EPW38382   0.260   7.023   6.253
 9416WAT      O38383   1.193   7.081   6.177
 9416WAT     H138384   1.124   7.030   6.160
 9416WAT     H238385   1.207   7.123   6.101
 9416WAT    EPW38386   1.185   7.080   6.163
 9417WAT      O38387   1.190   6.755   6.132
 9417WAT     H138388   1.132   6.746   6.068
 9417WAT     H238389   1.263   6.778   6.090
 9417WAT    EPW38390   1.193   6.757   6.116
 9418WAT      O38391   1.025   7.015   6.581
 9418WAT     H138392   1.050   7.080   6.528
 9418WAT     H238393   1.031   7.049   6.661
 9418WAT    EPW38394   1.029   7.030   6.585
 9419WAT      O38395   0.590   6.545   6.466
 9419WAT     H138396   0.607   6.609   6.410
 9419WAT     H238397   0.541   6.489   6.419
 9419WAT    EPW38398   0.585   6.546   6.451
 9420WAT      O38399   1.346   6.981   7.157
 9420WAT     H138400   1.339   7.017   7.236
 9420WAT     H238401   1.283   6.922   7.156
 9420WAT    EPW38402   1.336   6.978   7.169
 9421WAT      O38403   1.534   6.603   6.483
 9421WAT     H138404   1.535   6.589   6.569
 9421WAT     H238405   1.568   6.530   6.450
 9421WAT    EPW38406   1.539   6.590   6.491
 9422WAT      O38407   1.733   7.050   7.257
 9422WAT     H138408   1.819   7.037   7.257
 9422WAT     H238409   1.712   7.048   7.342
 9422WAT    EPW38410   1.742   7.048   7.270
 9423WAT      O38411   0.590   6.914   6.553
 9423WAT     H138412   0.609   6.859   6.488
 9423WAT     H238413   0.559   6.862   6.616
 9423WAT    EPW38414   0.588   6.898   6.553
 9424WAT      O38415   0.371   7.172   6.886
 9424WAT     H138416   0.457   7.165   6.873
 9424WAT     H238417   0.353   7.254   6.862
 9424WAT    EPW38418   0.381   7.183   6.880
 9425WAT      O38419   1.619   7.455   5.949
 9425WAT     H138420   1.625   7.542   5.938
 9425WAT     H238421   1.587   7.447   6.029
 9425WAT    EPW38422   1.615   7.467   5.959
 9426WAT      O38423   1.912   6.872   5.930
 9426WAT     H138424   1.965   6.821   5.884
 9426WAT     H238425   1.894   6.938   5.876
 9426WAT    EPW38426   1.917   6.874   5.915
 9427WAT      O38427   2.019   7.256   7.186
 9427WAT     H138428   2.090   7.208   7.173
 9427WAT     H238429   1.973   7.247   7.113
 9427WAT    EPW38430   2.023   7.248   7.174
 9428WAT      O38431   1.789   6.776   6.162
 9428WAT     H138432   1.864   6.741   6.189
 9428WAT     H238433   1.811   6.821   6.091
 9428WAT    EPW38434   1.803   6.777   6.156
 9429WAT      O38435   1.487   7.042   6.623
 9429WAT     H138436   1.518   7.009   6.698
 9429WAT     H238437   1.427   6.984   6.599
 9429WAT    EPW38438   1.483   7.029   6.631
 9430WAT      O38439   0.937   6.989   6.086
 9430WAT     H138440   0.914   6.973   6.003
 9430WAT     H238441   0.902   7.067   6.103
 9430WAT    EPW38442   0.928   6.998   6.076
 9431WAT      O38443   0.630   7.353   7.513
 9431WAT     H138444   0.557   7.351   7.561
 9431WAT     H238445   0.604   7.329   7.434
 9431WAT    EPW38446   0.615   7.349   7.509
 9432WAT      O38447   0.554   7.241   6.057
 9432WAT     H138448   0.556   7.164   6.099
 9432WAT     H238449   0.504   7.225   5.987
 9432WAT    EPW38450   0.547   7.227   6.053
 9433WAT      O38451   0.409   7.435   6.770
 9433WAT     H138452   0.365   7.488   6.717
 9433WAT     H238453   0.472   7.402   6.720
 9433WAT    EPW38454   0.412   7.438   6.755
 9434WAT      O38455   0.568   7.399   7.017
 9434WAT     H138456   0.603   7.340   6.963
 9434WAT     H238457   0.508   7.439   6.968
 9434WAT    EPW38458   0.564   7.396   7.002
 9435WAT      O38459   1.626   7.221   6.892
 9435WAT     H138460   1.553   7.241   6.936
 9435WAT     H238461   1.626   7.279   6.826
 9435WAT    EPW38462   1.615   7.233   6.889
 9436WAT      O38463   1.199   6.757   7.245
 9436WAT     H138464   1.226   6.676   7.224
 9436WAT     H238465   1.234   6.770   7.324
 9436WAT    EPW38466   1.208   6.747   7.254
 9437WAT      O38467   1.445   6.974   6.245
 9437WAT     H138468   1.499   7.042   6.255
 9437WAT     H238469   1.367   7.013   6.233
 9437WAT    EPW38470   1.441   6.990   6.245
 9438WAT      O38471   1.044   7.105   6.836
 9438WAT     H138472   1.103   7.169   6.839
 9438WAT     H238473   1.084   7.038   6.875
 9438WAT    EPW38474   1.058   7.104   6.842
 9439WAT      O38475   1.231   7.438   6.088
 9439WAT     H138476   1.217   7.513   6.046
 9439WAT     H238477   1.163   7.431   6.141
 9439WAT    EPW38478   1.219   7.448   6.089
 9440WAT      O38479   0.722   6.672   5.982
 9440WAT     H138480   0.700   6.644   6.061
 9440WAT     H238481   0.667   6.739   5.968
 9440WAT    EPW38482   0.710   6.678   5.992
 9441WAT      O38483   1.828   6.649   7.548
 9441WAT     H138484   1.772   6.628   7.485
 9441WAT     H238485   1.782   6.635   7.621
 9441WAT    EPW38486   1.813   6.644   7.550
 9442WAT      O38487   1.013   7.422   6.262
 9442WAT     H138488   0.984   7.488   6.312
 9442WAT     H238489   1.037   7.361   6.319
 9442WAT    EPW38490   1.012   7.423   6.278
 9443WAT      O38491   0.579   6.902   5.920
 9443WAT     H138492   0.523   6.904   5.853
 9443WAT     H238493   0.650   6.941   5.888
 9443WAT    EPW38494   0.581   6.908   5.905
 9444WAT      O38495   0.761   7.124   6.599
 9444WAT     H138496   0.842   7.094   6.588
 9444WAT     H238497   0.710   7.055   6.583
 9444WAT    EPW38498   0.765   7.109   6.595
 9445WAT      O38499   0.322   7.284   6.318
 9445WAT     H138500   0.346   7.233   6.385
 9445WAT     H238501   0.394   7.289   6.269
 9445WAT    EPW38502   0.336   7.277   6.321
 9446WAT      O38503   0.731   7.372   5.864
 9446WAT     H138504   0.676   7.342   5.925
 9446WAT     H238505   0.681   7.375   5.792
 9446WAT    EPW38506   0.715   7.368   5.862
 9447WAT      O38507   0.836   7.237   6.139
 9447WAT     H138508   0.879   7.307   6.170
 9447WAT     H238509   0.755   7.266   6.127
 9447WAT    EPW38510   0.830   7.252   6.142
 9448WAT      O38511   1.612   6.962   7.508
 9448WAT     H138512   1.568   6.946   7.582
 9448WAT     H238513   1.585   6.898   7.455
 9448WAT    EPW38514   1.601   6.950   7.511
 9449WAT      O38515   0.273   6.965   6.729
 9449WAT     H138516   0.291   7.025   6.790
 9449WAT     H238517   0.328   6.899   6.748
 9449WAT    EPW38518   0.284   6.964   6.741
 9450WAT      O38519   1.461   7.316   7.591
 9450WAT     H138520   1.457   7.318   7.679
 9450WAT     H238521   1.382   7.341   7.566
 9450WAT    EPW38522   1.449   7.320   7.601
 9451WAT      O38523   1.711   7.400   7.485
 9451WAT     H138524   1.715   7.485   7.500
 9451WAT     H238525   1.635   7.376   7.519
 9451WAT    EPW38526   1.700   7.409   7.492
 9452WAT      O38527   1.726   7.152   6.534
 9452WAT     H138528   1.658   7.105   6.563
 9452WAT     H238529   1.721   7.227   6.578
 9452WAT    EPW38530   1.716   7.156   6.545
 9453WAT      O38531   1.576   6.828   7.206
 9453WAT     H138532   1.633   6.894   7.207
 9453WAT     H238533   1.501   6.866   7.183
 9453WAT    EPW38534   1.573   6.844   7.203
 9454WAT      O38535   0.816   7.142   7.287
 9454WAT     H138536   0.833   7.063   7.321
 9454WAT     H238537   0.832   7.131   7.202
 9454WAT    EPW38538   0.821   7.129   7.280
 9455WAT      O38539   1.667   6.636   7.019
 9455WAT     H138540   1.632   6.704   7.060
 9455WAT     H238541   1.752   6.641   7.041
 9455WAT    EPW38542   1.675   6.647   7.029
 9456WAT      O38543   0.936   6.674   7.204
 9456WAT     H138544   1.017   6.705   7.210
 9456WAT     H238545   0.943   6.613   7.142
 9456WAT    EPW38546   0.949   6.669   7.196
 9457WAT      O38547   1.863   7.304   5.923
 9457WAT     H138548   1.922   7.349   5.875
 9457WAT     H238549   1.791   7.353   5.916
 9457WAT    EPW38550   1.861   7.318   5.915
 9458WAT      O38551   0.646   7.188   6.847
 9458WAT     H138552   0.683   7.173   6.770
 9458WAT     H238553   0.704   7.155   6.904
 9458WAT    EPW38554   0.660   7.181   6.844
 9459WAT      O38555   1.345   7.107   7.415
 9459WAT     H138556   1.281   7.158   7.445
 9459WAT     H238557   1.414   7.130   7.465
 9459WAT    EPW38558   1.346   7.118   7.427
 9460WAT      O38559   1.374   7.220   7.014
 9460WAT     H138560   1.374   7.269   7.087
 9460WAT     H238561   1.364   7.139   7.043
 9460WAT    EPW38562   1.372   7.216   7.029
 9461WAT      O38563   1.617   7.200   6.283
 9461WAT     H138564   1.642   7.182   6.365
 9461WAT     H238565   1.688   7.235   6.247
 9461WAT    EPW38566   1.631   7.202   6.290
 9462WAT      O38567   0.929   6.694   6.816
 9462WAT     H138568   0.844   6.685   6.836
 9462WAT     H238569   0.928   6.700   6.729
 9462WAT    EPW38570   0.916   6.694   6.806
 9463WAT      O38571   1.745   6.785   6.440
 9463WAT     H138572   1.670   6.746   6.458
 9463WAT     H238573   1.741   6.800   6.354
 9463WAT    EPW38574   1.733   6.782   6.430
 9464WAT      O38575   0.534   6.988   6.178
 9464WAT     H138576   0.538   6.955   6.097
 9464WAT     H238577   0.449   6.988   6.196
 9464WAT    EPW38578   0.522   6.983   6.168
 9465WAT      O38579   1.923   7.215   7.444
 9465WAT     H138580   1.864   7.276   7.465
 9465WAT     H238581   1.957   7.245   7.369
 9465WAT    EPW38582   1.919   7.228   7.436
 9466WAT      O38583   1.387   7.342   7.258
 9466WAT     H138584   1.379   7.269   7.304
 9466WAT     H238585   1.473   7.350   7.246
 9466WAT    EPW38586   1.399   7.332   7.263
 9467WAT      O38587   0.559   7.254   7.259
 9467WAT     H138588   0.563   7.308   7.192
 9467WAT     H238589   0.639   7.218   7.261
 9467WAT    EPW38590   0.572   7.256   7.250
 9468WAT      O38591   0.399   7.054   7.143
 9468WAT     H138592   0.376   7.090   7.067
 9468WAT     H238593   0.442   7.119   7.184
 9468WAT    EPW38594   0.402   7.069   7.138
 9469WAT      O38595   1.845   7.336   6.201
 9469WAT     H138596   1.861   7.333   6.115
 9469WAT     H238597   1.924   7.341   6.236
 9469WAT    EPW38598   1.859   7.336   6.193
 9470WAT      O38599   0.620   6.766   7.418
 9470WAT     H138600   0.661   6.689   7.415
 9470WAT     H238601   0.589   6.776   7.337
 9470WAT    EPW38602   0.622   6.756   7.406
 9471WAT      O38603   1.657   7.320   7.220
 9471WAT     H138604   1.688   7.238   7.217
 9471WAT     H238605   1.691   7.351   7.294
 9471WAT    EPW38606   1.667   7.312   7.231
 9472WAT      O38607   0.407   7.183   5.816
 9472WAT     H138608   0.320   7.194   5.825
 9472WAT     H238609   0.414   7.104   5.780
 9472WAT    EPW38610   0.395   7.173   5.812
 9473WAT      O38611   1.321   6.836   7.490
 9473WAT     H138612   1.323   6.921   7.472
 9473WAT     H238613   1.243   6.824   7.527
 9473WAT    EPW38614   1.310   6.847   7.493
 9474WAT      O38615   1.269   6.870   6.594
 9474WAT     H138616   1.193   6.912   6.588
 9474WAT     H238617   1.264   6.809   6.532
 9474WAT    EPW38618   1.257   6.867   6.584
 9475WAT      O38619   1.588   6.947   6.866
 9475WAT     H138620   1.669   6.916   6.876
 9475WAT     H238621   1.596   7.032   6.886
 9475WAT    EPW38622   1.601   6.955   6.870
 9476WAT      O38623   1.675   7.391   6.672
 9476WAT     H138624   1.739   7.449   6.680
 9476WAT     H238625   1.621   7.427   6.614
 9476WAT    EPW38626   1.676   7.405   6.665
 9477WAT      O38627   0.767   6.836   7.048
 9477WAT     H138628   0.686   6.821   7.076
 9477WAT     H238629   0.816   6.780   7.094
 9477WAT    EPW38630   0.762   6.826   7.059
 9478WAT      O38631   1.922   6.735   7.136
 9478WAT     H138632   1.937   6.792   7.201
 9478WAT     H238633   1.997   6.691   7.130
 9478WAT    EPW38634   1.935   6.737   7.145
 9479WAT      O38635   1.122   6.863   6.940
 9479WAT     H138636   1.061   6.811   6.905
 9479WAT     H238637   1.197   6.825   6.916
 9479WAT    EPW38638   1.124   6.850   6.931
 9480WAT      O38639   0.916   7.325   7.471
 9480WAT     H138640   0.893   7.268   7.409
 9480WAT     H238641   0.840   7.351   7.505
 9480WAT    EPW38642   0.901   7.320   7.467
 9481WAT      O38643   0.995   6.701   5.943
 9481WAT     H138644   1.005   6.706   5.856
 9481WAT     H238645   0.909   6.707   5.954
 9481WAT    EPW38646   0.984   6.702   5.931
 9482WAT      O38647   0.518   6.805   7.166
 9482WAT     H138648   0.455   6.744   7.162
 9482WAT     H238649   0.475   6.880   7.154
 9482WAT    EPW38650   0.502   6.807   7.164
 9483WAT      O38651   1.366   6.773   6.836
 9483WAT     H138652   1.431   6.829   6.856
 9483WAT     H238653   1.337   6.802   6.759
 9483WAT    EPW38654   1.372   6.786   6.828
 9484WAT      O38655   1.338   7.273   6.567
 9484WAT     H138656   1.389   7.204   6.585
 9484WAT     H238657   1.302   7.292   6.644
 9484WAT    EPW38658   1.340   7.265   6.581
 9485WAT      O38659   0.394   7.109   6.525
 9485WAT     H138660   0.341   7.078   6.586
 9485WAT     H238661   0.456   7.048   6.518
 9485WAT    EPW38662   0.395   7.095   6.533
 9486WAT      O38663   1.493   7.437   6.199
 9486WAT     H138664   1.517   7.357   6.225
 9486WAT     H238665   1.410   7.425   6.175
 9486WAT    EPW38666   1.484   7.423   6.200
 9487WAT      O38667   1.845   7.044   7.659
 9487WAT     H138668   1.886   7.101   7.607
 9487WAT     H238669   1.781   7.012   7.609
 9487WAT    EPW38670   1.842   7.048   7.644
 9488WAT      O38671   1.897   7.183   6.944
 9488WAT     H138672   1.814   7.208   6.936
 9488WAT     H238673   1.893   7.096   6.941
 9488WAT    EPW38674   1.884   7.174   6.942
 9489WAT      O38675   0.868   6.885   7.388
 9489WAT     H138676   0.885   6.835   7.318
 9489WAT     H238677   0.787   6.861   7.410
 9489WAT    EPW38678   0.858   6.874   7.381
 9490WAT      O38679   1.276   6.678   4.494
 9490WAT     H138680   1.279   6.721   4.418
 9490WAT     H238681   1.360   6.659   4.510
 9490WAT    EPW38682   1.289   6.681   4.485
 9491WAT      O38683   1.223   7.308   4.924
 9491WAT     H138684   1.190   7.385   4.950
 9491WAT     H238685   1.278   7.287   4.988
 9491WAT    EPW38686   1.226   7.317   4.937
 9492WAT      O38687   1.495   7.484   4.584
 9492WAT     H138688   1.497   7.482   4.497
 9492WAT     H238689   1.437   7.423   4.605
 9492WAT    EPW38690   1.487   7.475   4.574
 9493WAT      O38691   0.941   6.785   4.378
 9493WAT     H138692   0.930   6.853   4.325
 9493WAT     H238693   1.020   6.754   4.356
 9493WAT    EPW38694   0.951   6.791   4.367
 9494WAT      O38695   0.424   7.568   4.585
 9494WAT     H138696   0.372   7.521   4.532
 9494WAT     H238697   0.487   7.512   4.607
 9494WAT    EPW38698   0.426   7.553   4.580
 9495WAT      O38699   0.841   7.092   5.148
 9495WAT     H138700   0.907   7.095   5.091
 9495WAT     H238701   0.823   7.007   5.154
 9495WAT    EPW38702   0.848   7.080   5.140
 9496WAT      O38703   0.553   7.321   4.671
 9496WAT     H138704   0.625   7.274   4.680
 9496WAT     H238705   0.494   7.264   4.642
 9496WAT    EPW38706   0.555   7.306   4.668
 9497WAT      O38707   1.250   7.335   5.601
 9497WAT     H138708   1.164   7.338   5.589
 9497WAT     H238709   1.283   7.370   5.529
 9497WAT    EPW38710   1.242   7.340   5.589
 9498WAT      O38711   0.661   6.784   4.424
 9498WAT     H138712   0.631   6.849   4.374
 9498WAT     H238713   0.746   6.781   4.405
 9498WAT    EPW38714   0.669   6.793   4.414
 9499WAT      O38715   1.633   6.587   5.442
 9499WAT     H138716   1.605   6.650   5.389
 9499WAT     H238717   1.562   6.563   5.486
 9499WAT    EPW38718   1.619   6.592   5.441
 9500WAT      O38719   0.955   6.743   4.657
 9500WAT     H138720   0.968   6.826   4.682
 9500WAT     H238721   0.937   6.750   4.572
 9500WAT    EPW38722   0.954   6.756   4.648
 9501WAT      O38723   1.378   7.000   3.906
 9501WAT     H138724   1.335   7.067   3.941
 9501WAT     H238725   1.392   6.947   3.974
 9501WAT    EPW38726   1.374   7.002   3.921
 9502WAT      O38727   0.461   6.769   4.857
 9502WAT     H138728   0.422   6.697   4.827
 9502WAT     H238729   0.520   6.738   4.914
 9502WAT    EPW38730   0.464   6.753   4.861
 9503WAT      O38731   0.822   6.994   5.817
 9503WAT     H138732   0.816   6.974   5.732
 9503WAT     H238733   0.864   7.070   5.817
 9503WAT    EPW38734   0.827   7.002   5.804
 9504WAT      O38735   1.951   6.974   4.596
 9504WAT     H138736   1.900   7.044   4.609
 9504WAT     H238737   1.894   6.909   4.587
 9504WAT    EPW38738   1.935   6.975   4.597
 9505WAT      O38739   0.415   6.923   5.689
 9505WAT     H138740   0.338   6.926   5.647
 9505WAT     H238741   0.465   6.877   5.635
 9505WAT    EPW38742   0.411   6.917   5.675
 9506WAT      O38743   1.036   6.700   5.670
 9506WAT     H138744   1.063   6.623   5.641
 9506WAT     H238745   0.983   6.729   5.607
 9506WAT    EPW38746   1.032   6.693   5.657
 9507WAT      O38747   1.116   7.207   4.520
 9507WAT     H138748   1.143   7.166   4.448
 9507WAT     H238749   1.190   7.228   4.561
 9507WAT    EPW38750   1.131   7.204   4.516
 9508WAT      O38751   1.223   7.205   4.033
 9508WAT     H138752   1.231   7.283   4.071
 9508WAT     H238753   1.144   7.208   3.997
 9508WAT    EPW38754   1.213   7.217   4.033
 9509WAT      O38755   1.861   6.894   5.022
 9509WAT     H138756   1.923   6.881   4.962
 9509WAT     H238757   1.880   6.835   5.084
 9509WAT    EPW38758   1.873   6.883   5.022
 9510WAT      O38759   1.432   6.826   4.114
 9510WAT     H138760   1.484   6.757   4.119
 9510WAT     H238761   1.451   6.872   4.185
 9510WAT    EPW38762   1.442   6.823   4.125
 9511WAT      O38763   0.289   6.969   4.369
 9511WAT     H138764   0.226   6.911   4.387
 9511WAT     H238765   0.300   7.012   4.444
 9511WAT    EPW38766   0.281   6.967   4.383
 9512WAT      O38767   1.191   7.083   4.281
 9512WAT     H138768   1.123   7.031   4.264
 9512WAT     H238769   1.205   7.124   4.206
 9512WAT    EPW38770   1.183   7.081   4.267
 9513WAT      O38771   1.191   6.756   4.233
 9513WAT     H138772   1.132   6.747   4.169
 9513WAT     H238773   1.264   6.778   4.190
 9513WAT    EPW38774   1.193   6.758   4.217
 9514WAT      O38775   1.015   7.016   4.695
 9514WAT     H138776   1.042   7.080   4.642
 9514WAT     H238777   1.024   7.049   4.775
 9514WAT    EPW38778   1.020   7.030   4.699
 9515WAT      O38779   0.596   6.549   4.567
 9515WAT     H138780   0.613   6.614   4.512
 9515WAT     H238781   0.548   6.494   4.520
 9515WAT    EPW38782   0.592   6.550   4.552
 9516WAT      O38783   1.347   6.975   5.250
 9516WAT     H138784   1.351   7.007   5.331
 9516WAT     H238785   1.277   6.922   5.253
 9516WAT    EPW38786   1.337   6.972   5.263
 9517WAT      O38787   1.534   6.602   4.577
 9517WAT     H138788   1.533   6.587   4.663
 9517WAT     H238789   1.570   6.529   4.544
 9517WAT    EPW38790   1.539   6.589   4.585
 9518WAT      O38791   1.740   7.013   5.390
 9518WAT     H138792   1.826   7.011   5.405
 9518WAT     H238793   1.705   7.013   5.470
 9518WAT    EPW38794   1.747   7.013   5.404
 9519WAT      O38795   0.573   6.924   4.651
 9519WAT     H138796   0.600   6.869   4.589
 9519WAT     H238797   0.543   6.871   4.713
 9519WAT    EPW38798   0.572   6.908   4.651
 9520WAT      O38799   0.371   7.173   4.992
 9520WAT     H138800   0.458   7.165   4.985
 9520WAT     H238801   0.357   7.255   4.967
 9520WAT    EPW38802   0.382   7.184   4.987
 9521WAT      O38803   1.619   7.457   4.053
 9521WAT     H138804   1.624   7.544   4.043
 9521WAT     H238805   1.585   7.448   4.133
 9521WAT    EPW38806   1.615   7.468   4.063
 9522WAT      O38807   1.914   6.876   4.034
 9522WAT     H138808   1.967   6.823   3.990
 9522WAT     H238809   1.895   6.939   3.977
 9522WAT    EPW38810   1.919   6.877   4.019
 9523WAT      O38811   0.966   7.230   5.819
 9523WAT     H138812   0.901   7.278   5.852
 9523WAT     H238813   0.972   7.258   5.736
 9523WAT    EPW38814   0.957   7.241   5.812
 9524WAT      O38815   2.030   7.286   5.253
 9524WAT     H138816   2.092   7.224   5.253
 9524WAT     H238817   1.977   7.261   5.189
 9524WAT    EPW38818   2.032   7.273   5.244
 9525WAT      O38819   1.789   6.776   4.264
 9525WAT     H138820   1.864   6.741   4.290
 9525WAT     H238821   1.812   6.822   4.193
 9525WAT    EPW38822   1.804   6.778   4.257
 9526WAT      O38823   1.489   7.037   4.714
 9526WAT     H138824   1.520   7.002   4.788
 9526WAT     H238825   1.426   6.981   4.690
 9526WAT    EPW38826   1.485   7.023   4.722
 9527WAT      O38827   0.936   6.985   4.190
 9527WAT     H138828   0.916   6.967   4.108
 9527WAT     H238829   0.902   7.064   4.204
 9527WAT    EPW38830   0.928   6.994   4.180
 9528WAT      O38831   0.559   7.353   5.645
 9528WAT     H138832   0.501   7.301   5.686
 9528WAT     H238833   0.544   7.339   5.561
 9528WAT    EPW38834   0.548   7.343   5.639
 9529WAT      O38835   0.557   7.243   4.148
 9529WAT     H138836   0.557   7.169   4.193
 9529WAT     H238837   0.507   7.224   4.078
 9529WAT    EPW38838   0.549   7.229   4.144
 9530WAT      O38839   0.403   7.435   4.877
 9530WAT     H138840   0.364   7.499   4.832
 9530WAT     H238841   0.457   7.399   4.819
 9530WAT    EPW38842   0.405   7.439   4.862
 9531WAT      O38843   0.561   7.407   5.120
 9531WAT     H138844   0.600   7.344   5.074
 9531WAT     H238845   0.504   7.441   5.063
 9531WAT    EPW38846   0.558   7.403   5.104
 9532WAT      O38847   1.624   7.211   4.980
 9532WAT     H138848   1.561   7.236   5.035
 9532WAT     H238849   1.625   7.274   4.920
 9532WAT    EPW38850   1.615   7.224   4.979
 9533WAT      O38851   1.183   6.765   5.363
 9533WAT     H138852   1.208   6.687   5.333
 9533WAT     H238853   1.229   6.774   5.437
 9533WAT    EPW38854   1.193   6.755   5.370
 9534WAT      O38855   1.444   6.975   4.343
 9534WAT     H138856   1.499   7.042   4.354
 9534WAT     H238857   1.367   7.014   4.333
 9534WAT    EPW38858   1.441   6.991   4.343
 9535WAT      O38859   1.041   7.099   4.954
 9535WAT     H138860   1.103   7.160   4.954
 9535WAT     H238861   1.080   7.029   4.987
 9535WAT    EPW38862   1.056   7.098   4.959
 9536WAT      O38863   1.229   7.437   4.192
 9536WAT     H138864   1.213   7.512   4.150
 9536WAT     H238865   1.161   7.429   4.246
 9536WAT    EPW38866   1.216   7.447   4.193
 9537WAT      O38867   0.723   6.671   4.082
 9537WAT     H138868   0.700   6.643   4.162
 9537WAT     H238869   0.668   6.737   4.067
 9537WAT    EPW38870   0.711   6.676   4.092
 9538WAT      O38871   1.749   6.738   5.645
 9538WAT     H138872   1.716   6.689   5.581
 9538WAT     H238873   1.751   6.684   5.714
 9538WAT    EPW38874   1.745   6.723   5.646
 9539WAT      O38875   1.013   7.416   4.368
 9539WAT     H138876   0.982   7.481   4.418
 9539WAT     H238877   1.037   7.355   4.425
 9539WAT    EPW38878   1.012   7.417   4.384
 9540WAT      O38879   0.581   6.899   4.014
 9540WAT     H138880   0.525   6.903   3.948
 9540WAT     H238881   0.653   6.938   3.983
 9540WAT    EPW38882   0.584   6.905   4.000
 9541WAT      O38883   0.749   7.123   4.719
 9541WAT     H138884   0.830   7.092   4.706
 9541WAT     H238885   0.698   7.056   4.698
 9541WAT    EPW38886   0.754   7.108   4.714
 9542WAT      O38887   0.319   7.347   4.432
 9542WAT     H138888   0.318   7.272   4.477
 9542WAT     H238889   0.361   7.326   4.359
 9542WAT    EPW38890   0.325   7.332   4.428
 9543WAT      O38891   0.733   7.375   3.959
 9543WAT     H138892   0.680   7.345   4.021
 9543WAT     H238893   0.683   7.377   3.888
 9543WAT    EPW38894   0.718   7.371   3.957
 9544WAT      O38895   0.839   7.237   4.233
 9544WAT     H138896   0.880   7.305   4.269
 9544WAT     H238897   0.757   7.266   4.223
 9544WAT    EPW38898   0.833   7.251   4.236
 9545WAT      O38899   1.613   6.987   5.646
 9545WAT     H138900   1.552   6.992   5.708
 9545WAT     H238901   1.643   6.905   5.654
 9545WAT    EPW38902   1.608   6.975   5.656
 9546WAT      O38903   0.266   6.982   4.820
 9546WAT     H138904   0.314   6.912   4.840
 9546WAT     H238905   0.287   7.040   4.882
 9546WAT    EPW38906   0.276   6.980   4.832
 9547WAT      O38907   1.516   7.329   5.715
 9547WAT     H138908   1.530   7.361   5.795
 9547WAT     H238909   1.429   7.335   5.705
 9547WAT    EPW38910   1.505   7.335   5.725
 9548WAT      O38911   1.718   7.402   5.540
 9548WAT     H138912   1.710   7.489   5.541
 9548WAT     H238913   1.653   7.375   5.592
 9548WAT    EPW38914   1.707   7.411   5.548
 9549WAT      O38915   1.729   7.152   4.633
 9549WAT     H138916   1.662   7.104   4.661
 9549WAT     H238917   1.722   7.226   4.678
 9549WAT    EPW38918   1.718   7.156   4.644
 9550WAT      O38919   2.059   7.410   5.752
 9550WAT     H138920   2.037   7.370   5.677
 9550WAT     H238921   2.145   7.419   5.746
 9550WAT    EPW38922   2.068   7.405   5.740
 9551WAT      O38923   1.574   6.814   5.282
 9551WAT     H138924   1.630   6.876   5.305
 9551WAT     H238925   1.501   6.858   5.262
 9551WAT    EPW38926   1.571   6.829   5.282
 9552WAT      O38927   0.799   7.181   5.406
 9552WAT     H138928   0.788   7.106   5.449
 9552WAT     H238929   0.819   7.157   5.325
 9552WAT    EPW38930   0.800   7.167   5.400
 9553WAT      O38931   1.663   6.620   5.100
 9553WAT     H138932   1.631   6.690   5.142
 9553WAT     H238933   1.747   6.621   5.121
 9553WAT    EPW38934   1.670   6.631   5.109
 9554WAT      O38935   0.912   6.735   5.415
 9554WAT     H138936   0.995   6.742   5.387
 9554WAT     H238937   0.902   6.649   5.426
 9554WAT    EPW38938   0.923   6.723   5.413
 9555WAT      O38939   1.859   7.302   4.026
 9555WAT     H138940   1.917   7.348   3.980
 9555WAT     H238941   1.787   7.352   4.023
 9555WAT    EPW38942   1.857   7.317   4.019
 9556WAT      O38943   0.650   7.183   4.974
 9556WAT     H138944   0.686   7.167   4.896
 9556WAT     H238945   0.707   7.151   5.030
 9556WAT    EPW38946   0.663   7.176   4.971
 9557WAT      O38947   1.389   7.100   5.497
 9557WAT     H138948   1.339   7.139   5.556
 9557WAT     H238949   1.457   7.071   5.543
 9557WAT    EPW38950   1.392   7.101   5.512
 9558WAT      O38951   1.382   7.225   5.128
 9558WAT     H138952   1.390   7.270   5.202
 9558WAT     H238953   1.371   7.143   5.155
 9558WAT    EPW38954   1.382   7.219   5.143
 9559WAT      O38955   1.617   7.201   4.383
 9559WAT     H138956   1.642   7.182   4.465
 9559WAT     H238957   1.688   7.236   4.348
 9559WAT    EPW38958   1.631   7.203   4.390
 9560WAT      O38959   0.924   6.678   4.942
 9560WAT     H138960   0.839   6.677   4.963
 9560WAT     H238961   0.923   6.683   4.855
 9560WAT    EPW38962   0.911   6.679   4.932
 9561WAT      O38963   1.747   6.784   4.541
 9561WAT     H138964   1.672   6.745   4.559
 9561WAT     H238965   1.743   6.800   4.456
 9561WAT    EPW38966   1.736   6.781   4.531
 9562WAT      O38967   0.546   6.990   4.271
 9562WAT     H138968   0.550   6.956   4.191
 9562WAT     H238969   0.463   6.979   4.295
 9562WAT    EPW38970   0.535   6.984   4.263
 9563WAT      O38971   1.968   7.284   5.522
 9563WAT     H138972   1.888   7.317   5.531
 9563WAT     H238973   1.988   7.299   5.438
 9563WAT    EPW38974   1.959   7.291   5.511
 9564WAT      O38975   1.423   7.343   5.371
 9564WAT     H138976   1.416   7.266   5.411
 9564WAT     H238977   1.507   7.345   5.346
 9564WAT    EPW38978   1.435   7.332   5.374
 9565WAT      O38979   0.540   7.281   5.371
 9565WAT     H138980   0.542   7.333   5.301
 9565WAT     H238981   0.622   7.252   5.377
 9565WAT    EPW38982   0.552   7.284   5.361
 9566WAT      O38983   0.382   7.077   5.257
 9566WAT     H138984   0.365   7.108   5.178
 9566WAT     H238985   0.425   7.142   5.296
 9566WAT    EPW38986   0.386   7.091   5.251
 9567WAT      O38987   1.846   7.338   4.304
 9567WAT     H138988   1.862   7.332   4.218
 9567WAT     H238989   1.925   7.341   4.339
 9567WAT    EPW38990   1.860   7.337   4.296
 9568WAT      O38991   0.569   6.750   5.518
 9568WAT     H138992   0.629   6.688   5.504
 9568WAT     H238993   0.543   6.773   5.438
 9568WAT    EPW38994   0.574   6.744   5.504
 9569WAT      O38995   1.681   7.275   5.294
 9569WAT     H138996   1.700   7.191   5.308
 9569WAT     H238997   1.711   7.315   5.365
 9569WAT    EPW38998   1.688   7.268   5.306
 9570WAT      O38999   0.407   7.180   3.911
 9570WAT     H139000   0.321   7.193   3.918
 9570WAT     H239001   0.413   7.102   3.874
 9570WAT    EPW39002   0.395   7.171   3.906
 9571WAT      O39003   1.290   6.800   5.624
 9571WAT     H139004   1.315   6.868   5.673
 9571WAT     H239005   1.210   6.782   5.653
 9571WAT    EPW39006   1.282   6.807   5.636
 9572WAT      O39007   1.264   6.874   4.690
 9572WAT     H139008   1.185   6.912   4.687
 9572WAT     H239009   1.258   6.812   4.628
 9572WAT    EPW39010   1.251   6.870   4.681
 9573WAT      O39011   1.588   6.938   4.956
 9573WAT     H139012   1.668   6.906   4.969
 9573WAT     H239013   1.595   7.022   4.976
 9573WAT    EPW39014   1.601   6.946   4.961
 9574WAT      O39015   1.676   7.391   4.770
 9574WAT     H139016   1.741   7.449   4.775
 9574WAT     H239017   1.621   7.427   4.713
 9574WAT    EPW39018   1.677   7.405   4.763
 9575WAT      O39019   0.765   6.833   5.190
 9575WAT     H139020   0.680   6.824   5.207
 9575WAT     H239021   0.803   6.788   5.254
 9575WAT    EPW39022   0.758   6.825   5.202
 9576WAT      O39023   1.914   6.698   5.218
 9576WAT     H139024   1.897   6.724   5.300
 9576WAT     H239025   1.996   6.669   5.222
 9576WAT    EPW39026   1.923   6.698   5.231
 9577WAT      O39027   1.123   6.855   5.046
 9577WAT     H139028   1.061   6.799   5.021
 9577WAT     H239029   1.196   6.818   5.017
 9577WAT    EPW39030   1.124   6.841   5.038
 9578WAT      O39031   0.967   7.339   5.562
 9578WAT     H139032   0.921   7.289   5.508
 9578WAT     H239033   0.916   7.408   5.575
 9578WAT    EPW39034   0.953   7.342   5.556
 9579WAT      O39035   0.995   6.703   4.043
 9579WAT     H139036   1.005   6.708   3.956
 9579WAT     H239037   0.909   6.707   4.054
 9579WAT    EPW39038   0.984   6.705   4.032
 9580WAT      O39039   0.494   6.825   5.269
 9580WAT     H139040   0.430   6.766   5.257
 9580WAT     H239041   0.453   6.901   5.259
 9580WAT    EPW39042   0.478   6.827   5.265
 9581WAT      O39043   1.361   6.771   4.929
 9581WAT     H139044   1.427   6.824   4.949
 9581WAT     H239045   1.331   6.802   4.853
 9581WAT    EPW39046   1.367   6.783   4.921
 9582WAT      O39047   1.339   7.269   4.672
 9582WAT     H139048   1.391   7.200   4.686
 9582WAT     H239049   1.305   7.285   4.751
 9582WAT    EPW39050   1.341   7.261   4.686
 9583WAT      O39051   0.372   7.109   4.597
 9583WAT     H139052   0.321   7.084   4.664
 9583WAT     H239053   0.440   7.054   4.602
 9583WAT    EPW39054   0.374   7.097   4.608
 9584WAT      O39055   1.491   7.436   4.302
 9584WAT     H139056   1.516   7.356   4.327
 9584WAT     H239057   1.408   7.425   4.277
 9584WAT    EPW39058   1.482   7.423   4.302
 9585WAT      O39059   1.854   7.077   5.758
 9585WAT     H139060   1.849   7.152   5.802
 9585WAT     H239061   1.774   7.067   5.726
 9585WAT    EPW39062   1.841   7.086   5.760
 9586WAT      O39063   1.896   7.173   5.034
 9586WAT     H139064   1.812   7.197   5.027
 9586WAT     H239065   1.892   7.086   5.036
 9586WAT    EPW39066   1.883   7.163   5.033
 9587WAT      O39067   0.778   6.939   5.544
 9587WAT     H139068   0.832   6.888   5.498
 9587WAT     H239069   0.701   6.896   5.540
 9587WAT    EPW39070   0.774   6.925   5.537
 9588WAT      O39071   1.278   6.675   2.595
 9588WAT     H139072   1.282   6.720   2.520
 9588WAT     H239073   1.361   6.655   2.611
 9588WAT    EPW39074   1.291   6.679   2.586
 9589WAT      O39075   1.231   7.307   3.031
 9589WAT     H139076   1.195   7.382   3.054
 9589WAT     H239077   1.287   7.290   3.095
 9589WAT    EPW39078   1.234   7.315   3.044
 9590WAT      O39079   1.496   7.482   2.684
 9590WAT     H139080   1.497   7.480   2.597
 9590WAT     H239081   1.438   7.420   2.705
 9590WAT    EPW39082   1.487   7.473   2.675
 9591WAT      O39083   0.939   6.784   2.478
 9591WAT     H139084   0.929   6.853   2.425
 9591WAT     H239085   1.017   6.753   2.457
 9591WAT    EPW39086   0.949   6.790   2.467
 9592WAT      O39087   0.385   7.520   2.674
 9592WAT     H139088   0.342   7.468   2.619
 9592WAT     H239089   0.455   7.472   2.696
 9592WAT    EPW39090   0.389   7.505   2.669
 9593WAT      O39091   0.841   7.093   3.245
 9593WAT     H139092   0.909   7.094   3.190
 9593WAT     H239093   0.822   7.008   3.252
 9593WAT    EPW39094   0.848   7.080   3.238
 9594WAT      O39095   0.560   7.318   2.771
 9594WAT     H139096   0.638   7.278   2.778
 9594WAT     H239097   0.505   7.252   2.758
 9594WAT    EPW39098   0.564   7.302   2.770
 9595WAT      O39099   1.248   7.328   3.704
 9595WAT     H139100   1.162   7.334   3.691
 9595WAT     H239101   1.283   7.362   3.632
 9595WAT    EPW39102   1.241   7.334   3.692
 9596WAT      O39103   0.658   6.776   2.521
 9596WAT     H139104   0.625   6.841   2.474
 9596WAT     H239105   0.743   6.776   2.501
 9596WAT    EPW39106   0.666   6.786   2.511
 9597WAT      O39107   1.630   6.593   3.552
 9597WAT     H139108   1.601   6.656   3.498
 9597WAT     H239109   1.558   6.569   3.595
 9597WAT    EPW39110   1.615   6.599   3.550
 9598WAT      O39111   0.955   6.742   2.757
 9598WAT     H139112   0.971   6.825   2.781
 9598WAT     H239113   0.936   6.749   2.672
 9598WAT    EPW39114   0.955   6.755   2.748
 9599WAT      O39115   1.379   6.999   2.006
 9599WAT     H139116   1.336   7.065   2.041
 9599WAT     H239117   1.394   6.945   2.073
 9599WAT    EPW39118   1.375   7.000   2.021
 9600WAT      O39119   0.469   6.762   2.958
 9600WAT     H139120   0.427   6.692   2.927
 9600WAT     H239121   0.526   6.728   3.014
 9600WAT    EPW39122   0.471   6.747   2.962
 9601WAT      O39123   0.826   6.990   3.915
 9601WAT     H139124   0.820   6.971   3.830
 9601WAT     H239125   0.867   7.067   3.917
 9601WAT    EPW39126   0.831   6.998   3.903
 9602WAT      O39127   1.950   6.971   2.697
 9602WAT     H139128   1.898   7.041   2.709
 9602WAT     H239129   1.893   6.906   2.687
 9602WAT    EPW39130   1.934   6.972   2.697
 9603WAT      O39131   0.415   6.921   3.784
 9603WAT     H139132   0.340   6.926   3.740
 9603WAT     H239133   0.467   6.874   3.731
 9603WAT    EPW39134   0.411   6.915   3.770
 9604WAT      O39135   1.033   6.701   3.770
 9604WAT     H139136   1.060   6.624   3.740
 9604WAT     H239137   0.981   6.731   3.706
 9604WAT    EPW39138   1.029   6.694   3.756
 9605WAT      O39139   1.119   7.206   2.622
 9605WAT     H139140   1.146   7.165   2.551
 9605WAT     H239141   1.193   7.227   2.663
 9605WAT    EPW39142   1.134   7.203   2.618
 9606WAT      O39143   1.222   7.202   2.133
 9606WAT     H139144   1.232   7.281   2.170
 9606WAT     H239145   1.142   7.206   2.097
 9606WAT    EPW39146   1.211   7.214   2.133
 9607WAT      O39147   1.863   6.883   3.112
 9607WAT     H139148   1.926   6.869   3.053
 9607WAT     H239149   1.882   6.826   3.176
 9607WAT    EPW39150   1.875   6.872   3.113
 9608WAT      O39151   1.431   6.824   2.214
 9608WAT     H139152   1.484   6.755   2.219
 9608WAT     H239153   1.451   6.871   2.285
 9608WAT    EPW39154   1.442   6.821   2.225
 9609WAT      O39155   0.265   7.016   2.428
 9609WAT     H139156   0.232   6.979   2.500
 9609WAT     H239157   0.260   7.102   2.445
 9609WAT    EPW39158   0.260   7.024   2.441
 9610WAT      O39159   1.191   7.082   2.383
 9610WAT     H139160   1.124   7.029   2.366
 9610WAT     H239161   1.205   7.122   2.307
 9610WAT    EPW39162   1.184   7.080   2.369
 9611WAT      O39163   1.190   6.757   2.334
 9611WAT     H139164   1.131   6.748   2.270
 9611WAT     H239165   1.263   6.778   2.291
 9611WAT    EPW39166   1.192   6.758   2.318
 9612WAT      O39167   1.023   7.013   2.798
 9612WAT     H139168   1.050   7.077   2.745
 9612WAT     H239169   1.033   7.046   2.878
 9612WAT    EPW39170   1.028   7.027   2.802
 9613WAT      O39171   0.596   6.542   2.665
 9613WAT     H139172   0.613   6.607   2.609
 9613WAT     H239173   0.546   6.488   2.618
 9613WAT    EPW39174   0.591   6.543   2.649
 9614WAT      O39175   1.346   6.987   3.348
 9614WAT     H139176   1.351   7.015   3.430
 9614WAT     H239177   1.278   6.932   3.349
 9614WAT    EPW39178   1.337   6.983   3.360
 9615WAT      O39179   1.535   6.597   2.680
 9615WAT     H139180   1.535   6.581   2.766
 9615WAT     H239181   1.571   6.526   2.646
 9615WAT    EPW39182   1.540   6.584   2.688
 9616WAT      O39183   1.742   7.014   3.498
 9616WAT     H139184   1.828   7.012   3.513
 9616WAT     H239185   1.707   7.016   3.577
 9616WAT    EPW39186   1.750   7.014   3.512
 9617WAT      O39187   0.591   6.913   2.755
 9617WAT     H139188   0.612   6.858   2.691
 9617WAT     H239189   0.558   6.860   2.817
 9617WAT    EPW39190   0.589   6.897   2.755
 9618WAT      O39191   0.375   7.173   3.093
 9618WAT     H139192   0.462   7.166   3.086
 9618WAT     H239193   0.358   7.254   3.066
 9618WAT    EPW39194   0.385   7.184   3.088
 9619WAT      O39195   1.620   7.458   2.150
 9619WAT     H139196   1.622   7.545   2.139
 9619WAT     H239197   1.588   7.449   2.231
 9619WAT    EPW39198   1.615   7.470   2.160
 9620WAT      O39199   1.913   6.875   2.135
 9620WAT     H139200   1.968   6.824   2.090
 9620WAT     H239201   1.894   6.939   2.078
 9620WAT    EPW39202   1.918   6.877   2.120
 9621WAT      O39203   0.967   7.228   3.919
 9621WAT     H139204   0.902   7.276   3.952
 9621WAT     H239205   0.972   7.256   3.836
 9621WAT    EPW39206   0.958   7.239   3.911
 9622WAT      O39207   2.024   7.305   3.363
 9622WAT     H139208   2.072   7.237   3.338
 9622WAT     H239209   1.947   7.291   3.324
 9622WAT    EPW39210   2.020   7.293   3.353
 9623WAT      O39211   1.789   6.775   2.364
 9623WAT     H139212   1.864   6.738   2.390
 9623WAT     H239213   1.811   6.821   2.294
 9623WAT    EPW39214   1.803   6.776   2.358
 9624WAT      O39215   1.489   7.034   2.818
 9624WAT     H139216   1.521   7.000   2.892
 9624WAT     H239217   1.427   6.977   2.795
 9624WAT    EPW39218   1.485   7.020   2.825
 9625WAT      O39219   0.935   6.985   2.292
 9625WAT     H139220   0.914   6.970   2.209
 9625WAT     H239221   0.901   7.064   2.307
 9625WAT    EPW39222   0.927   6.995   2.282
 9626WAT      O39223   0.559   7.353   3.743
 9626WAT     H139224   0.502   7.301   3.783
 9626WAT     H239225   0.544   7.339   3.658
 9626WAT    EPW39226   0.548   7.344   3.736
 9627WAT      O39227   0.550   7.241   2.268
 9627WAT     H139228   0.556   7.163   2.305
 9627WAT     H239229   0.500   7.227   2.198
 9627WAT    EPW39230   0.543   7.228   2.263
 9628WAT      O39231   0.405   7.433   2.975
 9628WAT     H139232   0.359   7.486   2.923
 9628WAT     H239233   0.465   7.399   2.921
 9628WAT    EPW39234   0.407   7.436   2.959
 9629WAT      O39235   0.563   7.410   3.219
 9629WAT     H139236   0.602   7.347   3.173
 9629WAT     H239237   0.505   7.444   3.163
 9629WAT    EPW39238   0.560   7.406   3.204
 9630WAT      O39239   1.630   7.207   3.076
 9630WAT     H139240   1.571   7.236   3.134
 9630WAT     H239241   1.633   7.270   3.017
 9630WAT    EPW39242   1.622   7.220   3.076
 9631WAT      O39243   1.185   6.770   3.461
 9631WAT     H139244   1.209   6.692   3.430
 9631WAT     H239245   1.230   6.778   3.535
 9631WAT    EPW39246   1.195   6.760   3.467
 9632WAT      O39247   1.446   6.975   2.442
 9632WAT     H139248   1.500   7.042   2.452
 9632WAT     H239249   1.368   7.013   2.433
 9632WAT    EPW39250   1.442   6.991   2.442
 9633WAT      O39251   1.047   7.097   3.057
 9633WAT     H139252   1.110   7.158   3.058
 9633WAT     H239253   1.086   7.026   3.089
 9633WAT    EPW39254   1.062   7.096   3.062
 9634WAT      O39255   1.232   7.435   2.289
 9634WAT     H139256   1.215   7.510   2.247
 9634WAT     H239257   1.164   7.427   2.344
 9634WAT    EPW39258   1.219   7.445   2.291
 9635WAT      O39259   0.722   6.672   2.182
 9635WAT     H139260   0.700   6.643   2.262
 9635WAT     H239261   0.667   6.738   2.169
 9635WAT    EPW39262   0.710   6.677   2.192
 9636WAT      O39263   1.752   6.742   3.751
 9636WAT     H139264   1.718   6.694   3.687
 9636WAT     H239265   1.755   6.688   3.819
 9636WAT    EPW39266   1.748   6.727   3.751
 9637WAT      O39267   1.017   7.415   2.468
 9637WAT     H139268   0.989   7.480   2.518
 9637WAT     H239269   1.041   7.354   2.525
 9637WAT    EPW39270   1.016   7.415   2.484
 9638WAT      O39271   0.581   6.902   2.118
 9638WAT     H139272   0.525   6.905   2.051
 9638WAT     H239273   0.653   6.940   2.087
 9638WAT    EPW39274   0.583   6.908   2.103
 9639WAT      O39275   0.759   7.121   2.819
 9639WAT     H139276   0.841   7.091   2.808
 9639WAT     H239277   0.709   7.052   2.799
 9639WAT    EPW39278   0.764   7.106   2.814
 9640WAT      O39279   0.329   7.281   2.508
 9640WAT     H139280   0.353   7.230   2.574
 9640WAT     H239281   0.400   7.284   2.458
 9640WAT    EPW39282   0.343   7.274   2.510
 9641WAT      O39283   0.729   7.370   2.071
 9641WAT     H139284   0.676   7.339   2.133
 9641WAT     H239285   0.677   7.376   2.001
 9641WAT    EPW39286   0.714   7.366   2.070
 9642WAT      O39287   0.836   7.235   2.344
 9642WAT     H139288   0.881   7.302   2.376
 9642WAT     H239289   0.755   7.267   2.336
 9642WAT    EPW39290   0.831   7.249   2.348
 9643WAT      O39291   1.612   6.988   3.751
 9643WAT     H139292   1.550   6.992   3.813
 9643WAT     H239293   1.643   6.907   3.759
 9643WAT    EPW39294   1.607   6.976   3.762
 9644WAT      O39295   0.275   6.972   2.930
 9644WAT     H139296   0.296   7.031   2.991
 9644WAT     H239297   0.326   6.904   2.948
 9644WAT    EPW39298   0.285   6.971   2.942
 9645WAT      O39299   1.515   7.335   3.818
 9645WAT     H139300   1.529   7.365   3.899
 9645WAT     H239301   1.428   7.336   3.811
 9645WAT    EPW39302   1.504   7.340   3.829
 9646WAT      O39303   1.692   7.398   3.617
 9646WAT     H139304   1.710   7.481   3.634
 9646WAT     H239305   1.641   7.374   3.683
 9646WAT    EPW39306   1.687   7.407   3.629
 9647WAT      O39307   1.727   7.148   2.730
 9647WAT     H139308   1.660   7.100   2.759
 9647WAT     H239309   1.721   7.222   2.776
 9647WAT    EPW39310   1.717   7.152   2.741
 9648WAT      O39311   2.050   7.414   3.858
 9648WAT     H139312   2.029   7.375   3.783
 9648WAT     H239313   2.137   7.421   3.853
 9648WAT    EPW39314   2.060   7.409   3.846
 9649WAT      O39315   1.569   6.821   3.392
 9649WAT     H139316   1.627   6.883   3.414
 9649WAT     H239317   1.499   6.866   3.367
 9649WAT    EPW39318   1.567   6.837   3.392
 9650WAT      O39319   0.799   7.181   3.504
 9650WAT     H139320   0.789   7.105   3.546
 9650WAT     H239321   0.819   7.156   3.423
 9650WAT    EPW39322   0.801   7.166   3.498
 9651WAT      O39323   1.656   6.625   3.213
 9651WAT     H139324   1.626   6.695   3.255
 9651WAT     H239325   1.741   6.624   3.233
 9651WAT    EPW39326   1.664   6.635   3.222
 9652WAT      O39327   0.914   6.735   3.511
 9652WAT     H139328   0.997   6.744   3.483
 9652WAT     H239329   0.905   6.649   3.521
 9652WAT    EPW39330   0.925   6.724   3.508
 9653WAT      O39331   1.865   7.308   2.121
 9653WAT     H139332   1.926   7.352   2.075
 9653WAT     H239333   1.794   7.358   2.114
 9653WAT    EPW39334   1.864   7.322   2.113
 9654WAT      O39335   0.653   7.187   3.070
 9654WAT     H139336   0.689   7.169   2.993
 9654WAT     H239337   0.709   7.154   3.128
 9654WAT    EPW39338   0.666   7.180   3.067
 9655WAT      O39339   1.397   7.103   3.596
 9655WAT     H139340   1.343   7.138   3.654
 9655WAT     H239341   1.460   7.068   3.645
 9655WAT    EPW39342   1.399   7.103   3.612
 9656WAT      O39343   1.400   7.240   3.235
 9656WAT     H139344   1.412   7.285   3.309
 9656WAT     H239345   1.383   7.159   3.263
 9656WAT    EPW39346   1.399   7.235   3.250
 9657WAT      O39347   1.618   7.201   2.480
 9657WAT     H139348   1.643   7.181   2.561
 9657WAT     H239349   1.690   7.236   2.444
 9657WAT    EPW39350   1.632   7.203   2.487
 9658WAT      O39351   0.925   6.679   3.042
 9658WAT     H139352   0.840   6.677   3.063
 9658WAT     H239353   0.924   6.683   2.954
 9658WAT    EPW39354   0.912   6.679   3.032
 9659WAT      O39355   1.747   6.780   2.642
 9659WAT     H139356   1.672   6.741   2.660
 9659WAT     H239357   1.742   6.796   2.556
 9659WAT    EPW39358   1.735   6.777   2.632
 9660WAT      O39359   0.536   6.984   2.377
 9660WAT     H139360   0.542   6.952   2.296
 9660WAT     H239361   0.450   6.984   2.393
 9660WAT    EPW39362   0.524   6.980   2.367
 9661WAT      O39363   1.959   7.288   3.628
 9661WAT     H139364   1.874   7.310   3.628
 9661WAT     H239365   1.985   7.305   3.547
 9661WAT    EPW39366   1.950   7.294   3.616
 9662WAT      O39367   1.431   7.355   3.487
 9662WAT     H139368   1.431   7.273   3.518
 9662WAT     H239369   1.510   7.385   3.507
 9662WAT    EPW39370   1.442   7.347   3.494
 9663WAT      O39371   0.541   7.281   3.469
 9663WAT     H139372   0.543   7.333   3.399
 9663WAT     H239373   0.623   7.252   3.475
 9663WAT    EPW39374   0.553   7.284   3.460
 9664WAT      O39375   0.380   7.078   3.359
 9664WAT     H139376   0.365   7.108   3.279
 9664WAT     H239377   0.425   7.142   3.397
 9664WAT    EPW39378   0.385   7.092   3.353
 9665WAT      O39379   1.846   7.338   2.399
 9665WAT     H139380   1.863   7.335   2.313
 9665WAT     H239381   1.926   7.341   2.435
 9665WAT    EPW39382   1.860   7.338   2.392
 9666WAT      O39383   0.571   6.748   3.617
 9666WAT     H139384   0.631   6.686   3.602
 9666WAT     H239385   0.545   6.771   3.537
 9666WAT    EPW39386   0.576   6.742   3.603
 9667WAT      O39387   1.732   7.267   3.371
 9667WAT     H139388   1.731   7.184   3.398
 9667WAT     H239389   1.723   7.312   3.445
 9667WAT    EPW39390   1.731   7.261   3.386
 9668WAT      O39391   0.402   7.179   2.028
 9668WAT     H139392   0.315   7.184   2.039
 9668WAT     H239393   0.413   7.102   1.989
 9668WAT    EPW39394   0.391   7.168   2.024
 9669WAT      O39395   1.286   6.803   3.724
 9669WAT     H139396   1.310   6.870   3.775
 9669WAT     H239397   1.206   6.785   3.752
 9669WAT    EPW39398   1.278   6.811   3.736
 9670WAT      O39399   1.268   6.865   2.796
 9670WAT     H139400   1.190   6.905   2.794
 9670WAT     H239401   1.262   6.805   2.733
 9670WAT    EPW39402   1.256   6.862   2.786
 9671WAT      O39403   1.590   6.934   3.058
 9671WAT     H139404   1.670   6.901   3.068
 9671WAT     H239405   1.600   7.018   3.077
 9671WAT    EPW39406   1.603   6.942   3.062
 9672WAT      O39407   1.679   7.388   2.868
 9672WAT     H139408   1.746   7.445   2.870
 9672WAT     H239409   1.623   7.425   2.811
 9672WAT    EPW39410   1.681   7.402   2.860
 9673WAT      O39411   0.762   6.835   3.289
 9673WAT     H139412   0.677   6.825   3.306
 9673WAT     H239413   0.801   6.788   3.351
 9673WAT    EPW39414   0.755   6.827   3.301
 9674WAT      O39415   1.915   6.702   3.321
 9674WAT     H139416   1.902   6.737   3.399
 9674WAT     H239417   1.996   6.671   3.325
 9674WAT    EPW39418   1.925   6.702   3.333
 9675WAT      O39419   1.131   6.850   3.142
 9675WAT     H139420   1.068   6.795   3.117
 9675WAT     H239421   1.204   6.811   3.115
 9675WAT    EPW39422   1.132   6.836   3.134
 9676WAT      O39423   0.966   7.338   3.662
 9676WAT     H139424   0.920   7.288   3.608
 9676WAT     H239425   0.914   7.406   3.678
 9676WAT    EPW39426   0.952   7.340   3.657
 9677WAT      O39427   0.995   6.703   2.143
 9677WAT     H139428   1.004   6.708   2.057
 9677WAT     H239429   0.908   6.708   2.155
 9677WAT    EPW39430   0.983   6.704   2.132
 9678WAT      O39431   0.492   6.825   3.369
 9678WAT     H139432   0.429   6.766   3.357
 9678WAT     H239433   0.450   6.902   3.360
 9678WAT    EPW39434   0.476   6.828   3.366
 9679WAT      O39435   1.371   6.758   3.032
 9679WAT     H139436   1.436   6.813   3.051
 9679WAT     H239437   1.340   6.790   2.956
 9679WAT    EPW39438   1.376   6.771   3.023
 9680WAT      O39439   1.341   7.267   2.776
 9680WAT     H139440   1.392   7.197   2.789
 9680WAT     H239441   1.308   7.283   2.856
 9680WAT    EPW39442   1.343   7.259   2.790
 9681WAT      O39443   0.393   7.103   2.716
 9681WAT     H139444   0.340   7.074   2.779
 9681WAT     H239445   0.455   7.043   2.712
 9681WAT    EPW39446   0.394   7.090   2.725
 9682WAT      O39447   1.493   7.437   2.401
 9682WAT     H139448   1.519   7.357   2.425
 9682WAT     H239449   1.410   7.425   2.375
 9682WAT    EPW39450   1.484   7.424   2.401
 9683WAT      O39451   1.854   7.077   3.859
 9683WAT     H139452   1.848   7.151   3.905
 9683WAT     H239453   1.773   7.065   3.830
 9683WAT    EPW39454   1.841   7.086   3.862
 9684WAT      O39455   1.904   7.160   3.125
 9684WAT     H139456   1.821   7.187   3.124
 9684WAT     H239457   1.897   7.073   3.126
 9684WAT    EPW39458   1.891   7.151   3.125
 9685WAT      O39459   0.780   6.938   3.642
 9685WAT     H139460   0.833   6.888   3.595
 9685WAT     H239461   0.703   6.895   3.639
 9685WAT    EPW39462   0.776   6.924   3.635
 9686WAT      O39463   1.304   6.686   0.682
 9686WAT     H139464   1.327   6.716   0.604
 9686WAT     H239465   1.379   6.656   0.715
 9686WAT    EPW39466   1.318   6.686   0.675
 9687WAT      O39467   1.216   7.315   1.127
 9687WAT     H139468   1.186   7.393   1.153
 9687WAT     H239469   1.271   7.292   1.191
 9687WAT    EPW39470   1.220   7.323   1.141
 9688WAT      O39471   1.506   7.498   0.802
 9688WAT     H139472   1.511   7.499   0.715
 9688WAT     H239473   1.447   7.437   0.819
 9688WAT    EPW39474   1.498   7.489   0.792
 9689WAT      O39475   0.934   6.768   0.610
 9689WAT     H139476   0.938   6.847   0.575
 9689WAT     H239477   0.973   6.717   0.551
 9689WAT    EPW39478   0.941   6.772   0.596
 9690WAT      O39479   0.461   7.531   0.676
 9690WAT     H139480   0.412   7.478   0.627
 9690WAT     H239481   0.503   7.477   0.729
 9690WAT    EPW39482   0.460   7.515   0.676
 9691WAT      O39483   0.826   7.107   1.343
 9691WAT     H139484   0.896   7.106   1.291
 9691WAT     H239485   0.807   7.022   1.353
 9691WAT    EPW39486   0.833   7.094   1.337
 9692WAT      O39487   0.554   7.321   0.844
 9692WAT     H139488   0.629   7.276   0.849
 9692WAT     H239489   0.493   7.258   0.839
 9692WAT    EPW39490   0.556   7.305   0.844
 9693WAT      O39491   1.253   7.341   1.805
 9693WAT     H139492   1.167   7.343   1.791
 9693WAT     H239493   1.286   7.372   1.731
 9693WAT    EPW39494   1.245   7.346   1.792
 9694WAT      O39495   0.652   6.777   0.647
 9694WAT     H139496   0.616   6.826   0.584
 9694WAT     H239497   0.736   6.771   0.622
 9694WAT    EPW39498   0.659   6.783   0.634
 9695WAT      O39499   1.631   6.591   1.650
 9695WAT     H139500   1.603   6.655   1.598
 9695WAT     H239501   1.559   6.567   1.693
 9695WAT    EPW39502   1.616   6.597   1.649
 9696WAT      O39503   0.965   6.742   0.884
 9696WAT     H139504   0.976   6.826   0.904
 9696WAT     H239505   0.946   6.743   0.799
 9696WAT    EPW39506   0.964   6.755   0.874
 9697WAT      O39507   0.461   6.772   1.063
 9697WAT     H139508   0.425   6.701   1.028
 9697WAT     H239509   0.518   6.739   1.121
 9697WAT    EPW39510   0.464   6.757   1.067
 9698WAT      O39511   0.826   6.992   2.019
 9698WAT     H139512   0.823   6.970   1.934
 9698WAT     H239513   0.866   7.069   2.019
 9698WAT    EPW39514   0.831   7.000   2.006
 9699WAT      O39515   1.944   6.969   0.798
 9699WAT     H139516   1.894   7.039   0.814
 9699WAT     H239517   1.885   6.906   0.782
 9699WAT    EPW39518   1.928   6.970   0.798
 9700WAT      O39519   0.420   6.926   1.883
 9700WAT     H139520   0.352   6.941   1.831
 9700WAT     H239521   0.471   6.874   1.836
 9700WAT    EPW39522   0.418   6.921   1.869
 9701WAT      O39523   1.032   6.702   1.870
 9701WAT     H139524   1.059   6.624   1.841
 9701WAT     H239525   0.979   6.730   1.807
 9701WAT    EPW39526   1.028   6.695   1.856
 9702WAT      O39527   1.124   7.210   0.735
 9702WAT     H139528   1.154   7.171   0.663
 9702WAT     H239529   1.196   7.236   0.776
 9702WAT    EPW39530   1.139   7.208   0.731
 9703WAT      O39531   1.158   7.263   0.282
 9703WAT     H139532   1.181   7.339   0.318
 9703WAT     H239533   1.071   7.265   0.285
 9703WAT    EPW39534   1.148   7.275   0.288
 9704WAT      O39535   1.860   6.897   1.232
 9704WAT     H139536   1.921   6.884   1.171
 9704WAT     H239537   1.879   6.838   1.293
 9704WAT    EPW39538   1.872   6.886   1.232
 9705WAT      O39539   1.374   6.756   0.423
 9705WAT     H139540   1.438   6.708   0.387
 9705WAT     H239541   1.414   6.832   0.441
 9705WAT    EPW39542   1.390   6.760   0.420
 9706WAT      O39543   0.256   6.992   0.576
 9706WAT     H139544   0.183   6.946   0.589
 9706WAT     H239545   0.278   7.018   0.656
 9706WAT    EPW39546   0.248   6.989   0.589
 9707WAT      O39547   1.197   7.094   0.495
 9707WAT     H139548   1.129   7.040   0.481
 9707WAT     H239549   1.196   7.146   0.426
 9707WAT    EPW39550   1.187   7.094   0.483
 9708WAT      O39551   1.103   6.738   0.364
 9708WAT     H139552   1.073   6.818   0.349
 9708WAT     H239553   1.189   6.749   0.373
 9708WAT    EPW39554   1.111   6.751   0.363
 9709WAT      O39555   1.019   7.017   0.903
 9709WAT     H139556   1.050   7.081   0.853
 9709WAT     H239557   1.026   7.049   0.984
 9709WAT    EPW39558   1.024   7.032   0.908
 9710WAT      O39559   0.604   6.533   0.770
 9710WAT     H139560   0.614   6.605   0.721
 9710WAT     H239561   0.551   6.483   0.722
 9710WAT    EPW39562   0.598   6.536   0.756
 9711WAT      O39563   1.345   6.978   1.452
 9711WAT     H139564   1.348   7.009   1.533
 9711WAT     H239565   1.278   6.922   1.453
 9711WAT    EPW39566   1.336   6.974   1.464
 9712WAT      O39567   1.543   6.598   0.789
 9712WAT     H139568   1.546   6.580   0.874
 9712WAT     H239569   1.574   6.526   0.752
 9712WAT    EPW39570   1.548   6.585   0.796
 9713WAT      O39571   1.737   7.025   1.592
 9713WAT     H139572   1.823   7.020   1.605
 9713WAT     H239573   1.704   7.024   1.672
 9713WAT    EPW39574   1.745   7.024   1.606
 9714WAT      O39575   0.578   6.930   0.864
 9714WAT     H139576   0.602   6.874   0.801
 9714WAT     H239577   0.547   6.877   0.926
 9714WAT    EPW39578   0.577   6.914   0.863
 9715WAT      O39579   0.379   7.163   1.216
 9715WAT     H139580   0.465   7.155   1.201
 9715WAT     H239581   0.362   7.245   1.194
 9715WAT    EPW39582   0.389   7.174   1.211
 9716WAT      O39583   1.634   7.363   0.275
 9716WAT     H139584   1.558   7.325   0.255
 9716WAT     H239585   1.615   7.409   0.347
 9716WAT    EPW39586   1.620   7.364   0.283
 9717WAT      O39587   1.844   6.965   0.243
 9717WAT     H139588   1.858   6.944   0.160
 9717WAT     H239589   1.849   7.053   0.243
 9717WAT    EPW39590   1.847   6.975   0.231
 9718WAT      O39591   0.965   7.231   2.020
 9718WAT     H139592   0.899   7.278   2.053
 9718WAT     H239593   0.971   7.260   1.938
 9718WAT    EPW39594   0.956   7.242   2.013
 9719WAT      O39595   2.033   7.291   1.458
 9719WAT     H139596   2.094   7.229   1.459
 9719WAT     H239597   1.979   7.265   1.394
 9719WAT    EPW39598   2.034   7.278   1.449
 9720WAT      O39599   1.763   6.780   0.441
 9720WAT     H139600   1.842   6.747   0.455
 9720WAT     H239601   1.777   6.844   0.383
 9720WAT    EPW39602   1.777   6.784   0.434
 9721WAT      O39603   1.488   7.046   0.923
 9721WAT     H139604   1.520   7.009   0.995
 9721WAT     H239605   1.427   6.989   0.897
 9721WAT    EPW39606   1.484   7.032   0.930
 9722WAT      O39607   0.947   6.978   0.423
 9722WAT     H139608   0.883   6.928   0.390
 9722WAT     H239609   0.919   7.059   0.408
 9722WAT    EPW39610   0.933   6.983   0.416
 9723WAT      O39611   0.547   7.359   1.862
 9723WAT     H139612   0.491   7.305   1.903
 9723WAT     H239613   0.537   7.337   1.778
 9723WAT    EPW39614   0.537   7.348   1.855
 9724WAT      O39615   0.611   7.221   0.454
 9724WAT     H139616   0.588   7.137   0.463
 9724WAT     H239617   0.542   7.264   0.485
 9724WAT    EPW39618   0.597   7.215   0.460
 9725WAT      O39619   0.439   7.418   1.101
 9725WAT     H139620   0.417   7.457   1.026
 9725WAT     H239621   0.509   7.371   1.080
 9725WAT    EPW39622   0.446   7.417   1.087
 9726WAT      O39623   0.572   7.410   1.358
 9726WAT     H139624   0.616   7.355   1.306
 9726WAT     H239625   0.513   7.447   1.304
 9726WAT    EPW39626   0.570   7.407   1.342
 9727WAT      O39627   1.621   7.211   1.188
 9727WAT     H139628   1.555   7.236   1.239
 9727WAT     H239629   1.626   7.274   1.128
 9727WAT    EPW39630   1.612   7.224   1.187
 9728WAT      O39631   1.186   6.763   1.560
 9728WAT     H139632   1.212   6.685   1.532
 9728WAT     H239633   1.230   6.774   1.635
 9728WAT    EPW39634   1.197   6.753   1.567
 9729WAT      O39635   1.462   7.000   0.514
 9729WAT     H139636   1.517   7.064   0.535
 9729WAT     H239637   1.384   7.039   0.514
 9729WAT    EPW39638   1.459   7.015   0.517
 9730WAT      O39639   1.036   7.104   1.162
 9730WAT     H139640   1.098   7.166   1.160
 9730WAT     H239641   1.079   7.034   1.193
 9730WAT    EPW39642   1.052   7.102   1.167
 9731WAT      O39643   1.235   7.480   0.441
 9731WAT     H139644   1.226   7.563   0.415
 9731WAT     H239645   1.166   7.467   0.492
 9731WAT    EPW39646   1.224   7.491   0.445
 9732WAT      O39647   0.762   6.781   0.349
 9732WAT     H139648   0.751   6.701   0.381
 9732WAT     H239649   0.689   6.795   0.303
 9732WAT    EPW39650   0.749   6.771   0.347
 9733WAT      O39651   1.748   6.742   1.851
 9733WAT     H139652   1.715   6.693   1.787
 9733WAT     H239653   1.752   6.688   1.919
 9733WAT    EPW39654   1.744   6.727   1.852
 9734WAT      O39655   1.006   7.411   0.586
 9734WAT     H139656   0.953   7.460   0.634
 9734WAT     H239657   1.036   7.351   0.642
 9734WAT    EPW39658   1.003   7.410   0.601
 9735WAT      O39659   0.529   6.868   0.213
 9735WAT     H139660   0.471   6.813   0.179
 9735WAT     H239661   0.544   6.924   0.147
 9735WAT    EPW39662   0.522   6.868   0.198
 9736WAT      O39663   0.756   7.133   0.909
 9736WAT     H139664   0.837   7.100   0.902
 9736WAT     H239665   0.705   7.064   0.895
 9736WAT    EPW39666   0.761   7.118   0.906
 9737WAT      O39667   0.352   7.282   0.571
 9737WAT     H139668   0.358   7.240   0.647
 9737WAT     H239669   0.296   7.233   0.525
 9737WAT    EPW39670   0.344   7.269   0.576
 9738WAT      O39671   0.883   7.248   0.390
 9738WAT     H139672   0.912   7.302   0.452
 9738WAT     H239673   0.797   7.249   0.401
 9738WAT    EPW39674   0.875   7.256   0.400
 9739WAT      O39675   1.612   6.991   1.847
 9739WAT     H139676   1.551   6.996   1.909
 9739WAT     H239677   1.643   6.910   1.855
 9739WAT    EPW39678   1.608   6.979   1.857
 9740WAT      O39679   0.269   6.985   1.033
 9740WAT     H139680   0.316   6.913   1.048
 9740WAT     H239681   0.291   7.038   1.098
 9740WAT    EPW39682   0.279   6.982   1.045
 9741WAT      O39683   1.517   7.329   1.918
 9741WAT     H139684   1.530   7.361   1.998
 9741WAT     H239685   1.431   7.337   1.906
 9741WAT    EPW39686   1.506   7.335   1.928
 9742WAT      O39687   1.724   7.404   1.751
 9742WAT     H139688   1.719   7.491   1.757
 9742WAT     H239689   1.658   7.376   1.801
 9742WAT    EPW39690   1.714   7.413   1.759
 9743WAT      O39691   1.731   7.154   0.841
 9743WAT     H139692   1.661   7.109   0.867
 9743WAT     H239693   1.727   7.228   0.888
 9743WAT    EPW39694   1.720   7.158   0.852
 9744WAT      O39695   2.065   7.412   1.954
 9744WAT     H139696   2.043   7.371   1.880
 9744WAT     H239697   2.152   7.420   1.947
 9744WAT    EPW39698   2.075   7.407   1.942
 9745WAT      O39699   1.573   6.820   1.492
 9745WAT     H139700   1.629   6.884   1.512
 9745WAT     H239701   1.501   6.864   1.469
 9745WAT    EPW39702   1.571   6.836   1.491
 9746WAT      O39703   0.803   7.176   1.612
 9746WAT     H139704   0.796   7.098   1.650
 9746WAT     H239705   0.817   7.156   1.528
 9746WAT    EPW39706   0.804   7.162   1.605
 9747WAT      O39707   1.660   6.623   1.313
 9747WAT     H139708   1.629   6.694   1.354
 9747WAT     H239709   1.745   6.624   1.333
 9747WAT    EPW39710   1.668   6.634   1.322
 9748WAT      O39711   0.916   6.733   1.608
 9748WAT     H139712   0.999   6.740   1.582
 9748WAT     H239713   0.905   6.647   1.618
 9748WAT    EPW39714   0.927   6.721   1.605
 9749WAT      O39715   1.884   7.247   0.238
 9749WAT     H139716   1.911   7.278   0.161
 9749WAT     H239717   1.804   7.280   0.246
 9749WAT    EPW39718   1.876   7.257   0.228
 9750WAT      O39719   0.653   7.212   1.158
 9750WAT     H139720   0.689   7.191   1.081
 9750WAT     H239721   0.707   7.175   1.216
 9750WAT    EPW39722   0.666   7.203   1.155
 9751WAT      O39723   1.385   7.099   1.700
 9751WAT     H139724   1.338   7.138   1.762
 9751WAT     H239725   1.455   7.070   1.744
 9751WAT    EPW39726   1.389   7.101   1.716
 9752WAT      O39727   1.377   7.226   1.327
 9752WAT     H139728   1.385   7.271   1.402
 9752WAT     H239729   1.366   7.144   1.354
 9752WAT    EPW39730   1.376   7.221   1.342
 9753WAT      O39731   1.628   7.216   0.591
 9753WAT     H139732   1.653   7.193   0.671
 9753WAT     H239733   1.701   7.249   0.556
 9753WAT    EPW39734   1.643   7.218   0.598
 9754WAT      O39735   0.925   6.678   1.160
 9754WAT     H139736   0.840   6.677   1.178
 9754WAT     H239737   0.929   6.684   1.073
 9754WAT    EPW39738   0.913   6.679   1.150
 9755WAT      O39739   1.746   6.782   0.723
 9755WAT     H139740   1.673   6.742   0.747
 9755WAT     H239741   1.735   6.796   0.638
 9755WAT    EPW39742   1.734   6.778   0.714
 9756WAT      O39743   0.516   6.958   0.479
 9756WAT     H139744   0.513   6.930   0.396
 9756WAT     H239745   0.432   6.962   0.502
 9756WAT    EPW39746   0.503   6.955   0.470
 9757WAT      O39747   1.973   7.282   1.726
 9757WAT     H139748   1.893   7.315   1.736
 9757WAT     H239749   1.992   7.299   1.643
 9757WAT    EPW39750   1.964   7.290   1.716
 9758WAT      O39751   1.418   7.341   1.572
 9758WAT     H139752   1.412   7.263   1.612
 9758WAT     H239753   1.502   7.345   1.549
 9758WAT    EPW39754   1.430   7.330   1.575
 9759WAT      O39755   0.540   7.267   1.595
 9759WAT     H139756   0.543   7.323   1.528
 9759WAT     H239757   0.623   7.239   1.601
 9759WAT    EPW39758   0.553   7.271   1.586
 9760WAT      O39759   0.377   7.069   1.483
 9760WAT     H139760   0.364   7.099   1.402
 9760WAT     H239761   0.422   7.132   1.521
 9760WAT    EPW39762   0.381   7.083   1.476
 9761WAT      O39763   1.865   7.340   0.510
 9761WAT     H139764   1.887   7.319   0.429
 9761WAT     H239765   1.941   7.348   0.551
 9761WAT    EPW39766   1.879   7.338   0.504
 9762WAT      O39767   0.576   6.743   1.727
 9762WAT     H139768   0.636   6.681   1.715
 9762WAT     H239769   0.551   6.763   1.646
 9762WAT    EPW39770   0.581   6.736   1.713
 9763WAT      O39771   1.679   7.289   1.501
 9763WAT     H139772   1.700   7.205   1.513
 9763WAT     H239773   1.710   7.328   1.573
 9763WAT    EPW39774   1.687   7.283   1.514
 9764WAT      O39775   1.286   6.802   1.823
 9764WAT     H139776   1.312   6.870   1.873
 9764WAT     H239777   1.206   6.785   1.853
 9764WAT    EPW39778   1.278   6.810   1.835
 9765WAT      O39779   1.273   6.874   0.884
 9765WAT     H139780   1.192   6.907   0.883
 9765WAT     H239781   1.273   6.818   0.817
 9765WAT    EPW39782   1.261   6.871   0.874
 9766WAT      O39783   1.588   6.938   1.160
 9766WAT     H139784   1.668   6.906   1.174
 9766WAT     H239785   1.595   7.022   1.182
 9766WAT    EPW39786   1.601   6.945   1.166
 9767WAT      O39787   1.684   7.392   0.983
 9767WAT     H139788   1.749   7.450   0.995
 9767WAT     H239789   1.630   7.432   0.927
 9767WAT    EPW39790   1.686   7.407   0.977
 9768WAT      O39791   0.757   6.849   1.399
 9768WAT     H139792   0.674   6.830   1.416
 9768WAT     H239793   0.801   6.798   1.455
 9768WAT    EPW39794   0.751   6.839   1.410
 9769WAT      O39795   1.912   6.704   1.429
 9769WAT     H139796   1.899   6.733   1.510
 9769WAT     H239797   1.994   6.674   1.431
 9769WAT    EPW39798   1.922   6.704   1.441
 9770WAT      O39799   1.132   6.858   1.240
 9770WAT     H139800   1.070   6.800   1.223
 9770WAT     H239801   1.205   6.819   1.211
 9770WAT    EPW39802   1.134   6.844   1.233
 9771WAT      O39803   0.971   7.339   1.763
 9771WAT     H139804   0.924   7.287   1.710
 9771WAT     H239805   0.920   7.410   1.771
 9771WAT    EPW39806   0.956   7.342   1.756
 9772WAT      O39807   0.490   6.818   1.481
 9772WAT     H139808   0.427   6.759   1.469
 9772WAT     H239809   0.447   6.895   1.476
 9772WAT    EPW39810   0.474   6.821   1.478
 9773WAT      O39811   1.369   6.764   1.122
 9773WAT     H139812   1.434   6.818   1.144
 9773WAT     H239813   1.341   6.795   1.046
 9773WAT    EPW39814   1.374   6.776   1.114
 9774WAT      O39815   1.345   7.282   0.882
 9774WAT     H139816   1.395   7.212   0.896
 9774WAT     H239817   1.308   7.296   0.960
 9774WAT    EPW39818   1.347   7.274   0.896
 9775WAT      O39819   0.373   7.105   0.805
 9775WAT     H139820   0.323   7.083   0.873
 9775WAT     H239821   0.440   7.050   0.810
 9775WAT    EPW39822   0.376   7.094   0.816
 9776WAT      O39823   1.509   7.457   0.521
 9776WAT     H139824   1.531   7.376   0.545
 9776WAT     H239825   1.424   7.451   0.501
 9776WAT    EPW39826   1.499   7.444   0.521
 9777WAT      O39827   1.854   7.078   1.961
 9777WAT     H139828   1.850   7.154   2.003
 9777WAT     H239829   1.774   7.068   1.928
 9777WAT    EPW39830   1.842   7.088   1.962
 9778WAT      O39831   1.894   7.176   1.243
 9778WAT     H139832   1.810   7.198   1.236
 9778WAT     H239833   1.891   7.088   1.245
 9778WAT    EPW39834   1.881   7.166   1.242
 9779WAT      O39835   0.785   6.932   1.746
 9779WAT     H139836   0.837   6.883   1.696
 9779WAT     H239837   0.709   6.889   1.745
 9779WAT    EPW39838   0.781   6.918   1.738
 9780WAT      O39839   1.275   4.840   6.393
 9780WAT     H139840   1.280   4.883   6.317
 9780WAT     H239841   1.358   4.820   6.411
 9780WAT    EPW39842   1.288   4.844   6.385
 9781WAT      O39843   1.238   5.463   6.844
 9781WAT     H139844   1.202   5.540   6.863
 9781WAT     H239845   1.293   5.449   6.910
 9781WAT    EPW39846   1.241   5.472   6.856
 9782WAT      O39847   1.822   6.322   6.161
 9782WAT     H139848   1.887   6.266   6.179
 9782WAT     H239849   1.770   6.276   6.108
 9782WAT    EPW39850   1.824   6.307   6.156
 9783WAT      O39851   0.567   5.847   5.926
 9783WAT     H139852   0.507   5.834   5.864
 9783WAT     H239853   0.543   5.793   5.990
 9783WAT    EPW39854   0.555   5.837   5.926
 9784WAT      O39855   1.470   5.659   6.488
 9784WAT     H139856   1.479   5.645   6.403
 9784WAT     H239857   1.417   5.594   6.514
 9784WAT    EPW39858   1.464   5.647   6.479
 9785WAT      O39859   0.409   6.097   6.301
 9785WAT     H139860   0.456   6.041   6.350
 9785WAT     H239861   0.326   6.073   6.316
 9785WAT    EPW39862   0.404   6.085   6.311
 9786WAT      O39863   0.948   4.966   6.264
 9786WAT     H139864   0.935   5.037   6.215
 9786WAT     H239865   1.025   4.936   6.236
 9786WAT    EPW39866   0.957   4.972   6.253
 9787WAT      O39867   0.398   6.323   5.902
 9787WAT     H139868   0.432   6.315   5.822
 9787WAT     H239869   0.415   6.246   5.939
 9787WAT    EPW39870   0.406   6.311   5.895
 9788WAT      O39871   0.904   6.008   7.489
 9788WAT     H139872   0.923   5.969   7.565
 9788WAT     H239873   0.827   5.973   7.466
 9788WAT    EPW39874   0.895   5.997   7.497
 9789WAT      O39875   0.419   5.648   6.380
 9789WAT     H139876   0.344   5.604   6.370
 9789WAT     H239877   0.473   5.590   6.416
 9789WAT    EPW39878   0.416   5.633   6.384
 9790WAT      O39879   0.836   5.266   7.041
 9790WAT     H139880   0.904   5.273   6.987
 9790WAT     H239881   0.815   5.181   7.037
 9790WAT    EPW39882   0.843   5.254   7.032
 9791WAT      O39883   0.850   6.246   7.231
 9791WAT     H139884   0.825   6.318   7.189
 9791WAT     H239885   0.936   6.258   7.244
 9791WAT    EPW39886   0.859   6.258   7.226
 9792WAT      O39887   0.548   5.442   6.514
 9792WAT     H139888   0.620   5.396   6.531
 9792WAT     H239889   0.485   5.382   6.516
 9792WAT    EPW39890   0.549   5.427   6.517
 9793WAT      O39891   0.987   6.112   6.658
 9793WAT     H139892   1.011   6.030   6.673
 9793WAT     H239893   1.063   6.153   6.643
 9793WAT    EPW39894   1.002   6.106   6.658
 9794WAT      O39895   1.019   6.034   6.289
 9794WAT     H139896   1.060   5.971   6.333
 9794WAT     H239897   1.040   6.017   6.206
 9794WAT    EPW39898   1.028   6.022   6.283
 9795WAT      O39899   1.186   5.484   7.454
 9795WAT     H139900   1.103   5.492   7.430
 9795WAT     H239901   1.194   5.540   7.521
 9795WAT    EPW39902   1.175   5.493   7.460
 9796WAT      O39903   0.671   4.948   6.320
 9796WAT     H139904   0.634   5.010   6.271
 9796WAT     H239905   0.756   4.952   6.298
 9796WAT    EPW39906   0.678   4.958   6.310
 9797WAT      O39907   1.643   4.758   7.341
 9797WAT     H139908   1.627   4.829   7.293
 9797WAT     H239909   1.565   4.738   7.375
 9797WAT    EPW39910   1.629   4.765   7.339
 9798WAT      O39911   0.959   4.917   6.539
 9798WAT     H139912   0.970   4.999   6.565
 9798WAT     H239913   0.948   4.924   6.452
 9798WAT    EPW39914   0.959   4.930   6.530
 9799WAT      O39915   1.397   5.156   5.785
 9799WAT     H139916   1.347   5.221   5.815
 9799WAT     H239917   1.410   5.106   5.856
 9799WAT    EPW39918   1.392   5.158   5.800
 9800WAT      O39919   0.802   6.211   6.281
 9800WAT     H139920   0.762   6.190   6.356
 9800WAT     H239921   0.874   6.162   6.283
 9800WAT    EPW39922   0.807   6.200   6.292
 9801WAT      O39923   1.387   6.422   6.068
 9801WAT     H139924   1.459   6.471   6.073
 9801WAT     H239925   1.416   6.342   6.089
 9801WAT    EPW39926   1.402   6.417   6.072
 9802WAT      O39927   1.188   6.455   6.256
 9802WAT     H139928   1.213   6.523   6.304
 9802WAT     H239929   1.249   6.450   6.193
 9802WAT    EPW39930   1.201   6.464   6.253
 9803WAT      O39931   0.458   4.899   6.747
 9803WAT     H139932   0.418   4.829   6.713
 9803WAT     H239933   0.517   4.864   6.801
 9803WAT    EPW39934   0.461   4.883   6.750
 9804WAT      O39935   0.402   6.375   6.356
 9804WAT     H139936   0.410   6.289   6.344
 9804WAT     H239937   0.409   6.408   6.276
 9804WAT    EPW39938   0.404   6.367   6.342
 9805WAT      O39939   1.951   5.130   6.495
 9805WAT     H139940   1.899   5.199   6.504
 9805WAT     H239941   1.895   5.063   6.488
 9805WAT    EPW39942   1.935   5.130   6.495
 9806WAT      O39943   1.462   6.447   7.067
 9806WAT     H139944   1.530   6.500   7.056
 9806WAT     H239945   1.443   6.421   6.986
 9806WAT    EPW39946   1.469   6.451   7.053
 9807WAT      O39947   0.386   4.973   7.556
 9807WAT     H139948   0.359   5.049   7.521
 9807WAT     H239949   0.466   4.963   7.524
 9807WAT    EPW39950   0.394   4.983   7.546
 9808WAT      O39951   0.503   6.110   6.715
 9808WAT     H139952   0.562   6.110   6.650
 9808WAT     H239953   0.544   6.071   6.781
 9808WAT    EPW39954   0.517   6.104   6.715
 9809WAT      O39955   0.779   6.418   6.623
 9809WAT     H139956   0.856   6.437   6.586
 9809WAT     H239957   0.722   6.467   6.578
 9809WAT    EPW39958   0.782   6.428   6.611
 9810WAT      O39959   1.054   4.913   7.564
 9810WAT     H139960   1.055   4.834   7.529
 9810WAT     H239961   0.991   4.955   7.519
 9810WAT    EPW39962   1.045   4.908   7.552
 9811WAT      O39963   1.123   5.380   6.417
 9811WAT     H139964   1.151   5.341   6.344
 9811WAT     H239965   1.196   5.394   6.462
 9811WAT    EPW39966   1.138   5.376   6.413
 9812WAT      O39967   1.222   5.351   5.905
 9812WAT     H139968   1.246   5.429   5.934
 9812WAT     H239969   1.143   5.366   5.870
 9812WAT    EPW39970   1.214   5.365   5.904
 9813WAT      O39971   1.599   6.606   6.050
 9813WAT     H139972   1.647   6.586   5.980
 9813WAT     H239973   1.655   6.652   6.100
 9813WAT    EPW39974   1.615   6.610   6.047
 9814WAT      O39975   0.702   6.467   7.144
 9814WAT     H139976   0.706   6.493   7.227
 9814WAT     H239977   0.623   6.430   7.137
 9814WAT    EPW39978   0.691   6.465   7.155
 9815WAT      O39979   1.856   5.053   6.910
 9815WAT     H139980   1.921   5.043   6.853
 9815WAT     H239981   1.876   4.999   6.975
 9815WAT    EPW39982   1.868   5.044   6.911
 9816WAT      O39983   1.299   6.211   7.466
 9816WAT     H139984   1.294   6.138   7.514
 9816WAT     H239985   1.384   6.218   7.448
 9816WAT    EPW39986   1.311   6.201   7.470
 9817WAT      O39987   1.078   6.249   5.873
 9817WAT     H139988   1.045   6.309   5.928
 9817WAT     H239989   1.156   6.281   5.853
 9817WAT    EPW39990   1.085   6.263   5.878
 9818WAT      O39991   1.433   4.990   6.006
 9818WAT     H139992   1.485   4.920   6.015
 9818WAT     H239993   1.448   5.037   6.078
 9818WAT    EPW39994   1.443   4.986   6.018
 9819WAT      O39995   0.267   5.153   6.260
 9819WAT     H139996   0.197   5.101   6.265
 9819WAT     H239997   0.287   5.169   6.343
 9819WAT    EPW39998   0.259   5.148   6.273
 9820WAT      O39999   0.451   6.356   7.103
 9820WAT     H140000   0.418   6.279   7.129
 9820WAT     H240001   0.453   6.349   7.016
 9820WAT    EPW40002   0.446   6.344   7.094
 9821WAT      O40003   1.187   5.260   6.169
 9821WAT     H140004   1.111   5.219   6.155
 9821WAT     H240005   1.207   5.293   6.091
 9821WAT    EPW40006   1.179   5.259   6.155
 9822WAT      O40007   1.212   6.486   7.172
 9822WAT     H140008   1.292   6.476   7.139
 9822WAT     H240009   1.161   6.491   7.101
 9822WAT    EPW40010   1.217   6.485   7.156
 9823WAT      O40011   1.193   4.914   6.126
 9823WAT     H140012   1.136   4.901   6.062
 9823WAT     H240013   1.265   4.940   6.084
 9823WAT    EPW40014   1.196   4.916   6.111
 9824WAT      O40015   1.889   6.547   6.442
 9824WAT     H140016   1.848   6.622   6.457
 9824WAT     H240017   1.824   6.490   6.430
 9824WAT    EPW40018   1.873   6.549   6.442
 9825WAT      O40019   1.014   5.188   6.591
 9825WAT     H140020   1.040   5.253   6.539
 9825WAT     H240021   1.024   5.221   6.672
 9825WAT    EPW40022   1.019   5.203   6.596
 9826WAT      O40023   1.627   6.118   6.506
 9826WAT     H140024   1.690   6.058   6.495
 9826WAT     H240025   1.553   6.071   6.500
 9826WAT    EPW40026   1.625   6.102   6.504
 9827WAT      O40027   0.620   6.185   7.374
 9827WAT     H140028   0.693   6.210   7.332
 9827WAT     H240029   0.603   6.252   7.427
 9827WAT    EPW40030   0.629   6.199   7.375
 9828WAT      O40031   0.596   4.706   6.436
 9828WAT     H140032   0.624   4.780   6.398
 9828WAT     H240033   0.557   4.663   6.371
 9828WAT    EPW40034   0.595   4.711   6.421
 9829WAT      O40035   0.782   5.799   6.776
 9829WAT     H140036   0.810   5.776   6.855
 9829WAT     H240037   0.723   5.738   6.756
 9829WAT    EPW40038   0.778   5.787   6.784
 9830WAT      O40039   1.338   5.156   7.160
 9830WAT     H140040   1.329   5.184   7.242
 9830WAT     H240041   1.277   5.093   7.154
 9830WAT    EPW40042   1.328   5.151   7.172
 9831WAT      O40043   0.892   5.786   7.028
 9831WAT     H140044   0.894   5.872   7.038
 9831WAT     H240045   0.855   5.757   7.102
 9831WAT    EPW40046   0.887   5.794   7.040
 9832WAT      O40047   1.510   5.892   7.042
 9832WAT     H140048   1.437   5.859   7.075
 9832WAT     H240049   1.499   5.979   7.050
 9832WAT    EPW40050   1.498   5.900   7.048
 9833WAT      O40051   1.531   4.761   6.482
 9833WAT     H140052   1.531   4.748   6.568
 9833WAT     H240053   1.565   4.687   6.450
 9833WAT    EPW40054   1.536   4.748   6.490
 9834WAT      O40055   1.723   5.231   7.238
 9834WAT     H140056   1.806   5.204   7.241
 9834WAT     H240057   1.702   5.240   7.323
 9834WAT    EPW40058   1.732   5.228   7.251
 9835WAT      O40059   0.574   5.064   6.554
 9835WAT     H140060   0.605   5.015   6.489
 9835WAT     H240061   0.543   5.006   6.611
 9835WAT    EPW40062   0.574   5.049   6.553
 9836WAT      O40063   1.803   5.916   6.023
 9836WAT     H140064   1.803   5.869   6.096
 9836WAT     H240065   1.887   5.925   6.004
 9836WAT    EPW40066   1.815   5.911   6.031
 9837WAT      O40067   0.530   5.893   6.444
 9837WAT     H140068   0.613   5.890   6.417
 9837WAT     H240069   0.496   5.818   6.416
 9837WAT    EPW40070   0.538   5.882   6.436
 9838WAT      O40071   0.376   6.528   6.639
 9838WAT     H140072   0.313   6.494   6.589
 9838WAT     H240073   0.443   6.536   6.585
 9838WAT    EPW40074   0.376   6.524   6.624
 9839WAT      O40075   0.376   5.312   6.919
 9839WAT     H140076   0.461   5.321   6.903
 9839WAT     H240077   0.342   5.390   6.900
 9839WAT    EPW40078   0.383   5.325   6.914
 9840WAT      O40079   2.029   6.338   7.381
 9840WAT     H140080   1.962   6.344   7.326
 9840WAT     H240081   1.991   6.316   7.457
 9840WAT    EPW40082   2.013   6.336   7.384
 9841WAT      O40083   1.619   5.576   5.944
 9841WAT     H140084   1.612   5.657   5.914
 9841WAT     H240085   1.588   5.581   6.025
 9841WAT    EPW40086   1.614   5.588   5.952
 9842WAT      O40087   0.783   5.870   6.325
 9842WAT     H140088   0.847   5.927   6.315
 9842WAT     H240089   0.803   5.807   6.268
 9842WAT    EPW40090   0.795   5.869   6.315
 9843WAT      O40091   1.944   5.048   5.953
 9843WAT     H140092   1.988   4.985   5.913
 9843WAT     H240093   1.915   5.098   5.888
 9843WAT    EPW40094   1.946   5.046   5.938
 9844WAT      O40095   2.037   5.470   7.175
 9844WAT     H140096   2.061   5.396   7.134
 9844WAT     H240097   1.953   5.479   7.152
 9844WAT    EPW40098   2.028   5.460   7.165
 9845WAT      O40099   1.795   4.933   6.165
 9845WAT     H140100   1.869   4.894   6.192
 9845WAT     H240101   1.821   4.985   6.100
 9845WAT    EPW40102   1.810   4.935   6.159
 9846WAT      O40103   1.209   6.273   6.609
 9846WAT     H140104   1.159   6.342   6.588
 9846WAT     H240105   1.236   6.243   6.532
 9846WAT    EPW40106   1.205   6.279   6.595
 9847WAT      O40107   0.630   5.977   6.920
 9847WAT     H140108   0.695   6.013   6.966
 9847WAT     H240109   0.672   5.923   6.866
 9847WAT    EPW40110   0.646   5.974   6.919
 9848WAT      O40111   1.489   5.199   6.614
 9848WAT     H140112   1.519   5.166   6.689
 9848WAT     H240113   1.425   5.144   6.592
 9848WAT    EPW40114   1.484   5.186   6.622
 9849WAT      O40115   0.366   5.863   6.696
 9849WAT     H140116   0.409   5.833   6.627
 9849WAT     H240117   0.389   5.947   6.699
 9849WAT    EPW40118   0.376   5.871   6.687
 9850WAT      O40119   0.926   5.177   6.089
 9850WAT     H140120   0.912   5.150   6.007
 9850WAT     H240121   0.890   5.256   6.091
 9850WAT    EPW40122   0.919   5.185   6.077
 9851WAT      O40123   1.776   6.351   7.241
 9851WAT     H140124   1.739   6.430   7.249
 9851WAT     H240125   1.770   6.334   7.156
 9851WAT    EPW40126   1.770   6.361   7.230
 9852WAT      O40127   0.726   6.159   6.546
 9852WAT     H140128   0.734   6.242   6.571
 9852WAT     H240129   0.801   6.123   6.574
 9852WAT    EPW40130   0.739   6.166   6.554
 9853WAT      O40131   0.463   5.498   7.543
 9853WAT     H140132   0.544   5.492   7.574
 9853WAT     H240133   0.470   5.467   7.461
 9853WAT    EPW40134   0.476   5.492   7.535
 9854WAT      O40135   0.540   5.395   6.054
 9854WAT     H140136   0.536   5.322   6.102
 9854WAT     H240137   0.505   5.371   5.978
 9854WAT    EPW40138   0.534   5.381   6.050
 9855WAT      O40139   0.596   5.601   6.739
 9855WAT     H140140   0.572   5.571   6.661
 9855WAT     H240141   0.619   5.529   6.783
 9855WAT    EPW40142   0.596   5.586   6.734
 9856WAT      O40143   0.571   5.575   7.078
 9856WAT     H140144   0.600   5.527   7.012
 9856WAT     H240145   0.523   5.637   7.038
 9856WAT    EPW40146   0.568   5.577   7.062
 9857WAT      O40147   1.629   5.380   6.890
 9857WAT     H140148   1.563   5.405   6.941
 9857WAT     H240149   1.625   5.435   6.822
 9857WAT    EPW40150   1.619   5.392   6.888
 9858WAT      O40151   1.003   6.494   6.990
 9858WAT     H140152   0.969   6.422   6.954
 9858WAT     H240153   0.990   6.555   6.930
 9858WAT    EPW40154   0.996   6.492   6.976
 9859WAT      O40155   1.200   4.917   7.242
 9859WAT     H140156   1.226   4.837   7.222
 9859WAT     H240157   1.233   4.931   7.322
 9859WAT    EPW40158   1.209   4.907   7.251
 9860WAT      O40159   1.433   5.139   6.236
 9860WAT     H140160   1.490   5.204   6.246
 9860WAT     H240161   1.357   5.179   6.223
 9860WAT    EPW40162   1.430   5.154   6.235
 9861WAT      O40163   0.359   5.745   7.629
 9861WAT     H140164   0.355   5.791   7.555
 9861WAT     H240165   0.383   5.666   7.603
 9861WAT    EPW40166   0.362   5.740   7.614
 9862WAT      O40167   1.539   5.970   7.484
 9862WAT     H140168   1.566   6.050   7.465
 9862WAT     H240169   1.570   5.921   7.418
 9862WAT    EPW40170   1.548   5.974   7.471
 9863WAT      O40171   0.924   6.306   7.529
 9863WAT     H140172   0.929   6.300   7.616
 9863WAT     H240173   0.914   6.223   7.503
 9863WAT    EPW40174   0.923   6.293   7.538
 9864WAT      O40175   1.041   5.269   6.853
 9864WAT     H140176   1.106   5.327   6.858
 9864WAT     H240177   1.075   5.196   6.886
 9864WAT    EPW40178   1.055   5.267   6.858
 9865WAT      O40179   1.291   5.585   6.047
 9865WAT     H140180   1.272   5.641   5.982
 9865WAT     H240181   1.230   5.602   6.107
 9865WAT    EPW40182   1.279   5.596   6.046
 9866WAT      O40183   1.811   5.909   6.482
 9866WAT     H140184   1.816   5.857   6.551
 9866WAT     H240185   1.794   5.855   6.416
 9866WAT    EPW40186   1.809   5.894   6.483
 9867WAT      O40187   1.389   6.328   6.821
 9867WAT     H140188   1.331   6.306   6.760
 9867WAT     H240189   1.439   6.387   6.780
 9867WAT    EPW40190   1.388   6.333   6.806
 9868WAT      O40191   1.378   5.964   6.801
 9868WAT     H140192   1.304   5.993   6.836
 9868WAT     H240193   1.416   5.920   6.866
 9868WAT    EPW40194   1.373   5.962   6.816
 9869WAT      O40195   0.755   6.467   6.184
 9869WAT     H140196   0.760   6.395   6.233
 9869WAT     H240197   0.829   6.466   6.138
 9869WAT    EPW40198   0.766   6.456   6.185
 9870WAT      O40199   0.725   4.820   5.978
 9870WAT     H140200   0.710   4.796   6.060
 9870WAT     H240201   0.671   4.888   5.967
 9870WAT    EPW40202   0.715   4.827   5.988
 9871WAT      O40203   0.998   6.448   6.051
 9871WAT     H140204   1.055   6.454   6.116
 9871WAT     H240205   1.003   6.526   6.011
 9871WAT    EPW40206   1.007   6.460   6.055
 9872WAT      O40207   1.636   5.813   7.282
 9872WAT     H140208   1.605   5.837   7.204
 9872WAT     H240209   1.722   5.824   7.273
 9872WAT    EPW40210   1.644   5.818   7.269
 9873WAT      O40211   1.840   4.797   7.537
 9873WAT     H140212   1.781   4.784   7.475
 9873WAT     H240213   1.792   4.806   7.609
 9873WAT    EPW40214   1.824   4.796   7.539
 9874WAT      O40215   0.490   5.664   6.112
 9874WAT     H140216   0.504   5.579   6.096
 9874WAT     H240217   0.468   5.665   6.197
 9874WAT    EPW40218   0.489   5.652   6.122
 9875WAT      O40219   1.280   5.789   7.144
 9875WAT     H140220   1.224   5.832   7.196
 9875WAT     H240221   1.306   5.722   7.193
 9875WAT    EPW40222   1.275   5.785   7.159
 9876WAT      O40223   1.129   5.623   6.273
 9876WAT     H140224   1.141   5.688   6.329
 9876WAT     H240225   1.117   5.553   6.325
 9876WAT    EPW40226   1.129   5.622   6.289
 9877WAT      O40227   1.624   6.107   6.789
 9877WAT     H140228   1.639   6.119   6.704
 9877WAT     H240229   1.544   6.073   6.792
 9877WAT    EPW40230   1.615   6.104   6.777
 9878WAT      O40231   0.586   5.054   5.914
 9878WAT     H140232   0.532   5.056   5.845
 9878WAT     H240233   0.658   5.094   5.885
 9878WAT    EPW40234   0.588   5.060   5.899
 9879WAT      O40235   1.042   5.841   6.687
 9879WAT     H140236   0.958   5.821   6.701
 9879WAT     H240237   1.083   5.806   6.756
 9879WAT    EPW40238   1.036   5.833   6.699
 9880WAT      O40239   0.724   6.445   5.818
 9880WAT     H140240   0.740   6.379   5.873
 9880WAT     H240241   0.720   6.515   5.871
 9880WAT    EPW40242   0.726   6.446   5.834
 9881WAT      O40243   0.425   5.786   6.961
 9881WAT     H140244   0.482   5.852   6.968
 9881WAT     H240245   0.399   5.791   6.878
 9881WAT    EPW40246   0.430   5.797   6.950
 9882WAT      O40247   0.740   5.269   6.626
 9882WAT     H140248   0.823   5.247   6.611
 9882WAT     H240249   0.695   5.197   6.606
 9882WAT    EPW40250   0.746   5.255   6.621
 9883WAT      O40251   1.989   6.495   6.022
 9883WAT     H140252   2.056   6.446   5.995
 9883WAT     H240253   1.939   6.439   6.066
 9883WAT    EPW40254   1.991   6.480   6.024
 9884WAT      O40255   0.230   5.442   6.356
 9884WAT     H140256   0.253   5.387   6.419
 9884WAT     H240257   0.221   5.391   6.286
 9884WAT    EPW40258   0.232   5.427   6.355
 9885WAT      O40259   1.752   5.758   6.968
 9885WAT     H140260   1.757   5.688   7.020
 9885WAT     H240261   1.671   5.788   6.982
 9885WAT    EPW40262   1.741   5.752   6.978
 9886WAT      O40263   0.732   5.646   5.813
 9886WAT     H140264   0.679   5.703   5.852
 9886WAT     H240265   0.681   5.608   5.753
 9886WAT    EPW40266   0.717   5.649   5.810
 9887WAT      O40267   0.369   5.878   7.377
 9887WAT     H140268   0.329   5.826   7.320
 9887WAT     H240269   0.358   5.958   7.343
 9887WAT    EPW40270   0.362   5.882   7.364
 9888WAT      O40271   1.846   5.737   6.705
 9888WAT     H140272   1.820   5.750   6.787
 9888WAT     H240273   1.933   5.731   6.711
 9888WAT    EPW40274   1.855   5.738   6.718
 9889WAT      O40275   0.815   5.430   6.058
 9889WAT     H140276   0.831   5.509   6.092
 9889WAT     H240277   0.728   5.427   6.054
 9889WAT    EPW40278   0.804   5.441   6.062
 9890WAT      O40279   1.608   5.179   7.511
 9890WAT     H140280   1.579   5.207   7.588
 9890WAT     H240281   1.565   5.104   7.499
 9890WAT    EPW40282   1.597   5.172   7.521
 9891WAT      O40283   0.271   5.116   6.748
 9891WAT     H140284   0.319   5.045   6.760
 9891WAT     H240285   0.297   5.170   6.812
 9891WAT    EPW40286   0.282   5.114   6.759
 9892WAT      O40287   1.994   6.242   6.793
 9892WAT     H140288   2.024   6.295   6.731
 9892WAT     H240289   2.060   6.239   6.850
 9892WAT    EPW40290   2.008   6.250   6.792
 9893WAT      O40291   1.508   5.579   7.553
 9893WAT     H140292   1.556   5.641   7.592
 9893WAT     H240293   1.428   5.591   7.586
 9893WAT    EPW40294   1.503   5.590   7.563
 9894WAT      O40295   1.760   5.521   7.428
 9894WAT     H140296   1.800   5.594   7.455
 9894WAT     H240297   1.681   5.525   7.465
 9894WAT    EPW40298   1.754   5.533   7.437
 9895WAT      O40299   1.670   6.159   6.002
 9895WAT     H140300   1.708   6.081   6.013
 9895WAT     H240301   1.593   6.150   6.042
 9895WAT    EPW40302   1.664   6.146   6.010
 9896WAT      O40303   1.728   5.307   6.522
 9896WAT     H140304   1.662   5.258   6.551
 9896WAT     H240305   1.719   5.382   6.566
 9896WAT    EPW40306   1.717   5.311   6.533
 9897WAT      O40307   1.909   5.877   7.266
 9897WAT     H140308   1.977   5.828   7.241
 9897WAT     H240309   1.901   5.935   7.202
 9897WAT    EPW40310   1.918   5.878   7.253
 9898WAT      O40311   1.347   5.955   5.932
 9898WAT     H140312   1.424   5.915   5.925
 9898WAT     H240313   1.318   5.959   5.850
 9898WAT    EPW40314   1.354   5.949   5.919
 9899WAT      O40315   0.879   6.069   7.025
 9899WAT     H140316   0.867   6.114   7.099
 9899WAT     H240317   0.876   6.131   6.963
 9899WAT    EPW40318   0.877   6.085   7.027
 9900WAT      O40319   0.649   5.913   7.398
 9900WAT     H140320   0.568   5.883   7.408
 9900WAT     H240321   0.639   5.999   7.388
 9900WAT    EPW40322   0.636   5.921   7.398
 9901WAT      O40323   1.571   5.000   7.196
 9901WAT     H140324   1.626   5.068   7.200
 9901WAT     H240325   1.494   5.037   7.178
 9901WAT    EPW40326   1.568   5.015   7.194
 9902WAT      O40327   1.134   5.709   6.920
 9902WAT     H140328   1.188   5.739   6.981
 9902WAT     H240329   1.055   5.720   6.956
 9902WAT    EPW40330   1.130   5.715   6.935
 9903WAT      O40331   0.782   5.291   7.310
 9903WAT     H140332   0.810   5.216   7.344
 9903WAT     H240333   0.805   5.286   7.226
 9903WAT    EPW40334   0.789   5.279   7.302
 9904WAT      O40335   1.031   6.472   6.513
 9904WAT     H140336   1.030   6.559   6.526
 9904WAT     H240337   1.043   6.465   6.427
 9904WAT    EPW40338   1.033   6.484   6.502
 9905WAT      O40339   1.657   4.798   7.017
 9905WAT     H140340   1.622   4.868   7.056
 9905WAT     H240341   1.741   4.801   7.039
 9905WAT    EPW40342   1.664   4.809   7.026
 9906WAT      O40343   0.935   4.840   7.197
 9906WAT     H140344   1.016   4.870   7.201
 9906WAT     H240345   0.940   4.776   7.137
 9906WAT    EPW40346   0.948   4.835   7.189
 9907WAT      O40347   0.884   6.282   6.848
 9907WAT     H140348   0.832   6.332   6.800
 9907WAT     H240349   0.925   6.232   6.790
 9907WAT    EPW40350   0.882   6.282   6.833
 9908WAT      O40351   1.272   5.931   7.541
 9908WAT     H140352   1.357   5.936   7.521
 9908WAT     H240353   1.233   5.933   7.463
 9908WAT    EPW40354   1.279   5.932   7.526
 9909WAT      O40355   1.583   6.242   7.421
 9909WAT     H140356   1.589   6.308   7.478
 9909WAT     H240357   1.640   6.264   7.358
 9909WAT    EPW40358   1.592   6.255   7.420
 9910WAT      O40359   1.871   5.464   5.916
 9910WAT     H140360   1.917   5.521   5.869
 9910WAT     H240361   1.790   5.497   5.916
 9910WAT    EPW40362   1.866   5.477   5.909
 9911WAT      O40363   0.979   5.746   5.890
 9911WAT     H140364   0.907   5.711   5.855
 9911WAT     H240365   0.961   5.831   5.893
 9911WAT    EPW40366   0.965   5.753   5.885
 9912WAT      O40367   0.647   5.364   6.872
 9912WAT     H140368   0.675   5.330   6.796
 9912WAT     H240369   0.704   5.334   6.930
 9912WAT    EPW40370   0.660   5.355   6.869
 9913WAT      O40371   1.335   5.251   7.422
 9913WAT     H140372   1.282   5.319   7.438
 9913WAT     H240373   1.415   5.284   7.436
 9913WAT    EPW40374   1.339   5.266   7.426
 9914WAT      O40375   1.407   5.409   7.055
 9914WAT     H140376   1.405   5.459   7.127
 9914WAT     H240377   1.387   5.329   7.086
 9914WAT    EPW40378   1.404   5.404   7.070
 9915WAT      O40379   1.109   6.508   7.441
 9915WAT     H140380   1.133   6.492   7.359
 9915WAT     H240381   1.072   6.434   7.467
 9915WAT    EPW40382   1.107   6.495   7.433
 9916WAT      O40383   1.616   5.355   6.274
 9916WAT     H140384   1.642   5.336   6.355
 9916WAT     H240385   1.689   5.384   6.235
 9916WAT    EPW40386   1.630   5.357   6.280
 9917WAT      O40387   0.919   4.846   6.811
 9917WAT     H140388   0.834   4.832   6.827
 9917WAT     H240389   0.922   4.856   6.724
 9917WAT    EPW40390   0.907   4.845   6.800
 9918WAT      O40391   1.748   4.938   6.442
 9918WAT     H140392   1.671   4.900   6.459
 9918WAT     H240393   1.745   4.953   6.356
 9918WAT    EPW40394   1.736   4.934   6.432
 9919WAT      O40395   1.759   5.751   6.250
 9919WAT     H140396   1.801   5.676   6.240
 9919WAT     H240397   1.675   5.729   6.242
 9919WAT    EPW40398   1.753   5.737   6.247
 9920WAT      O40399   1.117   5.955   7.308
 9920WAT     H140400   1.044   5.959   7.356
 9920WAT     H240401   1.125   6.036   7.276
 9920WAT    EPW40402   1.108   5.968   7.311
 9921WAT      O40403   0.668   6.584   6.886
 9921WAT     H140404   0.681   6.562   6.970
 9921WAT     H240405   0.630   6.512   6.853
 9921WAT    EPW40406   0.664   6.570   6.893
 9922WAT      O40407   0.532   5.140   6.172
 9922WAT     H140408   0.537   5.109   6.091
 9922WAT     H240409   0.447   5.136   6.190
 9922WAT    EPW40410   0.520   5.135   6.163
 9923WAT      O40411   1.410   5.930   6.527
 9923WAT     H140412   1.396   5.939   6.612
 9923WAT     H240413   1.439   5.848   6.520
 9923WAT    EPW40414   1.412   5.919   6.538
 9924WAT      O40415   1.159   5.847   6.436
 9924WAT     H140416   1.119   5.839   6.513
 9924WAT     H240417   1.238   5.878   6.457
 9924WAT    EPW40418   1.165   5.851   6.450
 9925WAT      O40419   1.132   6.233   7.251
 9925WAT     H140420   1.181   6.228   7.323
 9925WAT     H240421   1.163   6.303   7.210
 9925WAT    EPW40422   1.143   6.243   7.256
 9926WAT      O40423   1.960   5.326   7.474
 9926WAT     H140424   1.904   5.390   7.457
 9926WAT     H240425   2.038   5.365   7.473
 9926WAT    EPW40426   1.964   5.341   7.471
 9927WAT      O40427   1.384   5.573   7.283
 9927WAT     H140428   1.319   5.544   7.334
 9927WAT     H240429   1.446   5.595   7.341
 9927WAT    EPW40430   1.384   5.572   7.299
 9928WAT      O40431   0.308   6.561   7.477
 9928WAT     H140432   0.230   6.546   7.513
 9928WAT     H240433   0.325   6.644   7.498
 9928WAT    EPW40434   0.299   6.571   7.486
 9929WAT      O40435   1.254   5.673   7.647
 9929WAT     H140436   1.257   5.756   7.619
 9929WAT     H240437   1.228   5.680   7.729
 9929WAT    EPW40438   1.251   5.686   7.655
 9930WAT      O40439   1.534   6.565   6.763
 9930WAT     H140440   1.475   6.624   6.788
 9930WAT     H240441   1.600   6.576   6.820
 9930WAT    EPW40442   1.535   6.575   6.775
 9931WAT      O40443   1.164   6.058   6.956
 9931WAT     H140444   1.082   6.061   6.987
 9931WAT     H240445   1.210   6.099   7.018
 9931WAT    EPW40446   1.159   6.065   6.970
 9932WAT      O40447   0.523   5.395   7.289
 9932WAT     H140448   0.532   5.455   7.226
 9932WAT     H240449   0.603   5.362   7.297
 9932WAT    EPW40450   0.536   5.399   7.281
 9933WAT      O40451   0.377   5.189   7.174
 9933WAT     H140452   0.363   5.222   7.094
 9933WAT     H240453   0.417   5.254   7.216
 9933WAT    EPW40454   0.381   5.204   7.168
 9934WAT      O40455   1.846   5.491   6.193
 9934WAT     H140456   1.862   5.486   6.107
 9934WAT     H240457   1.920   5.461   6.230
 9934WAT    EPW40458   1.859   5.486   6.186
 9935WAT      O40459   0.620   4.908   7.420
 9935WAT     H140460   0.663   4.833   7.415
 9935WAT     H240461   0.587   4.919   7.340
 9935WAT    EPW40462   0.621   4.899   7.408
 9936WAT      O40463   1.242   6.196   6.340
 9936WAT     H140464   1.222   6.276   6.314
 9936WAT     H240465   1.169   6.150   6.326
 9936WAT    EPW40466   1.228   6.201   6.334
 9937WAT      O40467   1.761   5.522   7.146
 9937WAT     H140468   1.734   5.439   7.135
 9937WAT     H240469   1.755   5.534   7.232
 9937WAT    EPW40470   1.756   5.511   7.157
 9938WAT      O40471   0.248   5.736   7.172
 9938WAT     H140472   0.296   5.756   7.102
 9938WAT     H240473   0.198   5.671   7.144
 9938WAT    EPW40474   0.248   5.729   7.157
 9939WAT      O40475   0.415   5.324   5.810
 9939WAT     H140476   0.328   5.329   5.820
 9939WAT     H240477   0.427   5.250   5.767
 9939WAT    EPW40478   0.404   5.314   5.805
 9940WAT      O40479   1.309   4.984   7.495
 9940WAT     H140480   1.309   5.070   7.480
 9940WAT     H240481   1.232   4.970   7.533
 9940WAT    EPW40482   1.297   4.995   7.498
 9941WAT      O40483   1.262   5.038   6.590
 9941WAT     H140484   1.185   5.080   6.585
 9941WAT     H240485   1.256   4.977   6.528
 9941WAT    EPW40486   1.249   5.035   6.580
 9942WAT      O40487   0.740   6.217   5.994
 9942WAT     H140488   0.769   6.222   6.076
 9942WAT     H240489   0.660   6.184   6.003
 9942WAT    EPW40490   0.733   6.213   6.007
 9943WAT      O40491   1.582   5.106   6.859
 9943WAT     H140492   1.662   5.073   6.868
 9943WAT     H240493   1.592   5.190   6.882
 9943WAT    EPW40494   1.596   5.114   6.864
 9944WAT      O40495   0.756   5.700   7.250
 9944WAT     H140496   0.718   5.764   7.295
 9944WAT     H240497   0.690   5.664   7.206
 9944WAT    EPW40498   0.741   5.704   7.250
 9945WAT      O40499   1.659   5.540   6.659
 9945WAT     H140500   1.722   5.599   6.672
 9945WAT     H240501   1.602   5.582   6.608
 9945WAT    EPW40502   1.660   5.555   6.654
 9946WAT      O40503   1.672   6.374   6.391
 9946WAT     H140504   1.656   6.297   6.428
 9946WAT     H240505   1.710   6.354   6.315
 9946WAT    EPW40506   1.675   6.360   6.385
 9947WAT      O40507   0.493   6.097   6.032
 9947WAT     H140508   0.471   6.089   6.116
 9947WAT     H240509   0.507   6.015   6.007
 9947WAT    EPW40510   0.492   6.084   6.041
 9948WAT      O40511   0.811   5.980   5.857
 9948WAT     H140512   0.737   5.939   5.877
 9948WAT     H240513   0.804   6.056   5.900
 9948WAT    EPW40514   0.799   5.986   5.866
 9949WAT      O40515   0.760   5.005   7.048
 9949WAT     H140516   0.681   4.983   7.077
 9949WAT     H240517   0.813   4.948   7.088
 9949WAT    EPW40518   0.756   4.993   7.058
 9950WAT      O40519   1.914   4.886   7.126
 9950WAT     H140520   1.927   4.949   7.185
 9950WAT     H240521   1.990   4.844   7.122
 9950WAT    EPW40522   1.927   4.889   7.134
 9951WAT      O40523   1.109   5.016   6.938
 9951WAT     H140524   1.049   4.965   6.901
 9951WAT     H240525   1.185   4.981   6.913
 9951WAT    EPW40526   1.111   5.003   6.929
 9952WAT      O40527   1.426   6.161   7.051
 9952WAT     H140528   1.454   6.229   7.097
 9952WAT     H240529   1.418   6.192   6.970
 9952WAT    EPW40530   1.429   6.175   7.046
 9953WAT      O40531   1.398   6.563   7.473
 9953WAT     H140532   1.321   6.522   7.482
 9953WAT     H240533   1.378   6.646   7.492
 9953WAT    EPW40534   1.384   6.569   7.477
 9954WAT      O40535   0.922   5.518   7.385
 9954WAT     H140536   0.879   5.444   7.367
 9954WAT     H240537   0.875   5.580   7.345
 9954WAT    EPW40538   0.909   5.516   7.377
 9955WAT      O40539   0.997   4.859   5.940
 9955WAT     H140540   1.008   4.863   5.854
 9955WAT     H240541   0.910   4.860   5.950
 9955WAT    EPW40542   0.986   4.859   5.929
 9956WAT      O40543   1.880   6.012   7.024
 9956WAT     H140544   1.844   5.941   6.989
 9956WAT     H240545   1.829   6.077   6.995
 9956WAT    EPW40546   1.867   6.011   7.015
 9957WAT      O40547   0.786   6.532   7.407
 9957WAT     H140548   0.851   6.573   7.365
 9957WAT     H240549   0.826   6.465   7.445
 9957WAT    EPW40550   0.802   6.528   7.406
 9958WAT      O40551   1.768   6.271   6.961
 9958WAT     H140552   1.838   6.279   6.910
 9958WAT     H240553   1.708   6.233   6.910
 9958WAT    EPW40554   1.769   6.267   6.946
 9959WAT      O40555   0.515   4.951   7.170
 9959WAT     H140556   0.456   4.888   7.163
 9959WAT     H240557   0.468   5.024   7.168
 9959WAT    EPW40558   0.500   4.952   7.169
 9960WAT      O40559   1.356   4.937   6.831
 9960WAT     H140560   1.421   4.991   6.852
 9960WAT     H240561   1.328   4.967   6.754
 9960WAT    EPW40562   1.362   4.949   6.823
 9961WAT      O40563   0.542   6.408   7.516
 9961WAT     H140564   0.605   6.468   7.510
 9961WAT     H240565   0.468   6.455   7.509
 9961WAT    EPW40566   0.540   6.424   7.514
 9962WAT      O40567   1.338   5.432   6.584
 9962WAT     H140568   1.391   5.364   6.595
 9962WAT     H240569   1.306   5.446   6.665
 9962WAT    EPW40570   1.341   5.424   6.598
 9963WAT      O40571   0.356   5.230   6.514
 9963WAT     H140572   0.312   5.205   6.584
 9963WAT     H240573   0.427   5.179   6.514
 9963WAT    EPW40574   0.360   5.219   6.524
 9964WAT      O40575   0.367   6.143   7.276
 9964WAT     H140576   0.317   6.191   7.329
 9964WAT     H240577   0.448   6.157   7.305
 9964WAT    EPW40578   0.371   6.152   7.288
 9965WAT      O40579   1.513   5.605   6.213
 9965WAT     H140580   1.533   5.522   6.232
 9965WAT     H240581   1.438   5.598   6.168
 9965WAT    EPW40582   1.505   5.591   6.209
 9966WAT      O40583   0.480   6.484   6.116
 9966WAT     H140584   0.458   6.440   6.044
 9966WAT     H240585   0.566   6.468   6.124
 9966WAT    EPW40586   0.490   6.475   6.106
 9967WAT      O40587   0.891   5.681   6.147
 9967WAT     H140588   0.919   5.709   6.069
 9967WAT     H240589   0.965   5.662   6.189
 9967WAT    EPW40590   0.906   5.683   6.141
 9968WAT      O40591   1.777   6.548   5.845
 9968WAT     H140592   1.848   6.540   5.896
 9968WAT     H240593   1.764   6.467   5.816
 9968WAT    EPW40594   1.786   6.535   5.848
 9969WAT      O40595   1.888   5.750   7.519
 9969WAT     H140596   1.968   5.726   7.544
 9969WAT     H240597   1.902   5.802   7.450
 9969WAT    EPW40598   1.901   5.754   7.512
 9970WAT      O40599   1.422   6.151   6.124
 9970WAT     H140600   1.375   6.146   6.198
 9970WAT     H240601   1.384   6.092   6.072
 9970WAT    EPW40602   1.410   6.141   6.127
 9971WAT      O40603   1.845   5.156   7.670
 9971WAT     H140604   1.899   5.212   7.631
 9971WAT     H240605   1.778   5.149   7.614
 9971WAT    EPW40606   1.843   5.163   7.656
 9972WAT      O40607   1.905   5.331   6.917
 9972WAT     H140608   1.822   5.358   6.912
 9972WAT     H240609   1.899   5.244   6.918
 9972WAT    EPW40610   1.892   5.322   6.916
 9973WAT      O40611   0.862   5.036   7.395
 9973WAT     H140612   0.884   4.991   7.323
 9973WAT     H240613   0.782   5.006   7.414
 9973WAT    EPW40614   0.854   5.025   7.387
 9974WAT      O40615   1.651   5.785   7.664
 9974WAT     H140616   1.732   5.779   7.633
 9974WAT     H240617   1.618   5.853   7.621
 9974WAT    EPW40618   1.658   5.794   7.653
 9975WAT      O40619   0.494   6.362   6.827
 9975WAT     H140620   0.497   6.284   6.789
 9975WAT     H240621   0.446   6.410   6.773
 9975WAT    EPW40622   0.487   6.357   6.814
 9976WAT      O40623   1.090   6.011   6.025
 9976WAT     H140624   1.168   5.981   6.001
 9976WAT     H240625   1.079   6.081   5.975
 9976WAT    EPW40626   1.100   6.017   6.014
 9977WAT      O40627   0.341   6.595   7.198
 9977WAT     H140628   0.324   6.577   7.282
 9977WAT     H240629   0.366   6.518   7.165
 9977WAT    EPW40630   0.342   6.581   7.206
 9978WAT      O40631   1.274   4.846   4.489
 9978WAT     H140632   1.278   4.888   4.413
 9978WAT     H240633   1.358   4.828   4.507
 9978WAT    EPW40634   1.287   4.849   4.480
 9979WAT      O40635   1.227   5.466   4.944
 9979WAT     H140636   1.192   5.542   4.968
 9979WAT     H240637   1.286   5.449   5.006
 9979WAT    EPW40638   1.230   5.475   4.956
 9980WAT      O40639   1.828   6.321   4.262
 9980WAT     H140640   1.893   6.265   4.278
 9980WAT     H240641   1.775   6.276   4.209
 9980WAT    EPW40642   1.829   6.306   4.256
 9981WAT      O40643   0.564   5.850   4.025
 9981WAT     H140644   0.505   5.837   3.963
 9981WAT     H240645   0.540   5.794   4.088
 9981WAT    EPW40646   0.552   5.840   4.026
 9982WAT      O40647   1.472   5.658   4.588
 9982WAT     H140648   1.478   5.644   4.502
 9982WAT     H240649   1.418   5.595   4.615
 9982WAT    EPW40650   1.465   5.646   4.580
 9983WAT      O40651   0.411   6.096   4.406
 9983WAT     H140652   0.457   6.039   4.454
 9983WAT     H240653   0.328   6.072   4.419
 9983WAT    EPW40654   0.406   6.084   4.415
 9984WAT      O40655   0.952   4.967   4.376
 9984WAT     H140656   0.938   5.037   4.325
 9984WAT     H240657   1.028   4.935   4.346
 9984WAT    EPW40658   0.961   4.973   4.364
 9985WAT      O40659   0.399   6.327   4.007
 9985WAT     H140660   0.433   6.318   3.926
 9985WAT     H240661   0.415   6.250   4.044
 9985WAT    EPW40662   0.407   6.314   4.000
 9986WAT      O40663   0.883   5.994   5.588
 9986WAT     H140664   0.867   5.984   5.673
 9986WAT     H240665   0.810   5.964   5.550
 9986WAT    EPW40666   0.870   5.988   5.595
 9987WAT      O40667   0.421   5.642   4.475
 9987WAT     H140668   0.346   5.598   4.465
 9987WAT     H240669   0.473   5.586   4.516
 9987WAT    EPW40670   0.418   5.627   4.479
 9988WAT      O40671   0.830   5.261   5.159
 9988WAT     H140672   0.897   5.269   5.104
 9988WAT     H240673   0.809   5.177   5.153
 9988WAT    EPW40674   0.836   5.250   5.150
 9989WAT      O40675   0.887   6.298   5.320
 9989WAT     H140676   0.901   6.356   5.257
 9989WAT     H240677   0.967   6.276   5.346
 9989WAT    EPW40678   0.901   6.303   5.314
 9990WAT      O40679   0.546   5.444   4.624
 9990WAT     H140680   0.618   5.397   4.641
 9990WAT     H240681   0.482   5.385   4.625
 9990WAT    EPW40682   0.547   5.428   4.627
 9991WAT      O40683   0.986   6.101   4.744
 9991WAT     H140684   1.012   6.020   4.765
 9991WAT     H240685   1.061   6.144   4.733
 9991WAT    EPW40686   1.001   6.095   4.745
 9992WAT      O40687   1.020   6.031   4.390
 9992WAT     H140688   1.061   5.969   4.436
 9992WAT     H240689   1.041   6.014   4.308
 9992WAT    EPW40690   1.029   6.020   4.385
 9993WAT      O40691   1.154   5.512   5.554
 9993WAT     H140692   1.067   5.510   5.546
 9993WAT     H240693   1.167   5.562   5.624
 9993WAT    EPW40694   1.143   5.519   5.563
 9994WAT      O40695   0.674   4.947   4.425
 9994WAT     H140696   0.637   5.008   4.375
 9994WAT     H240697   0.759   4.952   4.405
 9994WAT    EPW40698   0.681   4.957   4.415
 9995WAT      O40699   1.627   4.764   5.445
 9995WAT     H140700   1.603   4.831   5.395
 9995WAT     H240701   1.553   4.741   5.486
 9995WAT    EPW40702   1.612   4.771   5.444
 9996WAT      O40703   0.961   4.911   4.653
 9996WAT     H140704   0.969   4.993   4.682
 9996WAT     H240705   0.951   4.921   4.567
 9996WAT    EPW40706   0.961   4.925   4.645
 9997WAT      O40707   1.389   5.155   3.882
 9997WAT     H140708   1.338   5.217   3.916
 9997WAT     H240709   1.407   5.104   3.951
 9997WAT    EPW40710   1.384   5.157   3.897
 9998WAT      O40711   0.803   6.209   4.378
 9998WAT     H140712   0.761   6.187   4.452
 9998WAT     H240713   0.876   6.160   4.381
 9998WAT    EPW40714   0.808   6.198   4.389
 9999WAT      O40715   1.388   6.422   4.168
 9999WAT     H140716   1.460   6.472   4.173
 9999WAT     H240717   1.418   6.343   4.190
 9999WAT    EPW40718   1.403   6.418   4.172
10000WAT      O40719   1.189   6.455   4.356
10000WAT     H140720   1.215   6.524   4.404
10000WAT     H240721   1.250   6.450   4.294
10000WAT    EPW40722   1.202   6.464   4.354
10001WAT      O40723   0.452   4.901   4.849
10001WAT     H140724   0.414   4.832   4.812
10001WAT     H240725   0.511   4.866   4.903
10001WAT    EPW40726   0.456   4.886   4.852
10002WAT      O40727   0.829   5.152   5.814
10002WAT     H140728   0.840   5.119   5.734
10002WAT     H240729   0.865   5.232   5.807
10002WAT    EPW40730   0.836   5.159   5.801
10003WAT      O40731   0.406   6.375   4.463
10003WAT     H140732   0.413   6.289   4.451
10003WAT     H240733   0.412   6.407   4.383
10003WAT    EPW40734   0.408   6.367   4.450
10004WAT      O40735   1.954   5.128   4.596
10004WAT     H140736   1.904   5.198   4.607
10004WAT     H240737   1.896   5.064   4.581
10004WAT    EPW40738   1.938   5.129   4.596
10005WAT      O40739   1.449   6.448   5.162
10005WAT     H140740   1.521   6.496   5.149
10005WAT     H240741   1.429   6.418   5.082
10005WAT    EPW40742   1.457   6.451   5.148
10006WAT      O40743   0.437   5.076   5.665
10006WAT     H140744   0.382   5.097   5.601
10006WAT     H240745   0.490   5.016   5.629
10006WAT    EPW40746   0.437   5.070   5.650
10007WAT      O40747   0.507   6.119   4.822
10007WAT     H140748   0.565   6.117   4.756
10007WAT     H240749   0.549   6.078   4.887
10007WAT    EPW40750   0.522   6.113   4.822
10008WAT      O40751   0.782   6.414   4.721
10008WAT     H140752   0.859   6.434   4.685
10008WAT     H240753   0.726   6.465   4.678
10008WAT    EPW40754   0.785   6.424   4.710
10009WAT      O40755   1.029   4.867   5.667
10009WAT     H140756   1.047   4.793   5.625
10009WAT     H240757   0.964   4.903   5.621
10009WAT    EPW40758   1.022   4.862   5.654
10010WAT      O40759   1.121   5.379   4.520
10010WAT     H140760   1.150   5.339   4.448
10010WAT     H240761   1.194   5.394   4.565
10010WAT    EPW40762   1.136   5.375   4.516
10011WAT      O40763   1.218   5.348   4.008
10011WAT     H140764   1.243   5.427   4.037
10011WAT     H240765   1.139   5.363   3.973
10011WAT    EPW40766   1.210   5.362   4.007
10012WAT      O40767   1.600   6.606   4.150
10012WAT     H140768   1.649   6.586   4.081
10012WAT     H240769   1.655   6.652   4.201
10012WAT    EPW40770   1.616   6.610   4.147
10013WAT      O40771   0.665   6.537   5.301
10013WAT     H140772   0.706   6.496   5.367
10013WAT     H240773   0.601   6.483   5.280
10013WAT    EPW40774   0.662   6.523   5.308
10014WAT      O40775   1.850   5.046   5.037
10014WAT     H140776   1.910   5.034   4.975
10014WAT     H240777   1.869   4.985   5.097
10014WAT    EPW40778   1.862   5.035   5.037
10015WAT      O40779   1.343   6.228   5.551
10015WAT     H140780   1.335   6.249   5.635
10015WAT     H240781   1.430   6.223   5.539
10015WAT    EPW40782   1.355   6.230   5.562
10016WAT      O40783   1.076   6.249   3.974
10016WAT     H140784   1.044   6.310   4.029
10016WAT     H240785   1.154   6.280   3.953
10016WAT    EPW40786   1.082   6.263   3.979
10017WAT      O40787   1.436   4.984   4.100
10017WAT     H140788   1.490   4.916   4.105
10017WAT     H240789   1.455   5.031   4.171
10017WAT    EPW40790   1.447   4.981   4.111
10018WAT      O40791   0.269   5.150   4.363
10018WAT     H140792   0.202   5.095   4.368
10018WAT     H240793   0.288   5.167   4.447
10018WAT    EPW40794   0.262   5.145   4.376
10019WAT      O40795   0.453   6.382   5.204
10019WAT     H140796   0.419   6.306   5.233
10019WAT     H240797   0.462   6.369   5.118
10019WAT    EPW40798   0.449   6.369   5.196
10020WAT      O40799   1.190   5.257   4.274
10020WAT     H140800   1.116   5.212   4.261
10020WAT     H240801   1.207   5.291   4.195
10020WAT    EPW40802   1.182   5.255   4.260
10021WAT      O40803   1.203   6.495   5.271
10021WAT     H140804   1.281   6.487   5.232
10021WAT     H240805   1.147   6.492   5.204
10021WAT    EPW40806   1.206   6.494   5.255
10022WAT      O40807   1.194   4.919   4.224
10022WAT     H140808   1.136   4.906   4.161
10022WAT     H240809   1.267   4.941   4.180
10022WAT    EPW40810   1.196   4.921   4.208
10023WAT      O40811   1.893   6.546   4.545
10023WAT     H140812   1.851   6.621   4.560
10023WAT     H240813   1.828   6.489   4.533
10023WAT    EPW40814   1.877   6.549   4.545
10024WAT      O40815   1.009   5.190   4.697
10024WAT     H140816   1.035   5.254   4.644
10024WAT     H240817   1.018   5.224   4.777
10024WAT    EPW40818   1.014   5.204   4.701
10025WAT      O40819   1.631   6.115   4.607
10025WAT     H140820   1.694   6.056   4.595
10025WAT     H240821   1.558   6.068   4.601
10025WAT    EPW40822   1.630   6.099   4.604
10026WAT      O40823   0.646   6.204   5.437
10026WAT     H140824   0.719   6.241   5.407
10026WAT     H240825   0.629   6.247   5.511
10026WAT    EPW40826   0.654   6.216   5.443
10027WAT      O40827   0.606   4.702   4.541
10027WAT     H140828   0.631   4.776   4.502
10027WAT     H240829   0.567   4.658   4.477
10027WAT    EPW40830   0.604   4.707   4.526
10028WAT      O40831   0.787   5.805   4.889
10028WAT     H140832   0.813   5.782   4.969
10028WAT     H240833   0.730   5.743   4.867
10028WAT    EPW40834   0.783   5.793   4.898
10029WAT      O40835   1.367   5.173   5.280
10029WAT     H140836   1.367   5.216   5.356
10029WAT     H240837   1.303   5.115   5.288
10029WAT    EPW40838   1.358   5.171   5.292
10030WAT      O40839   0.887   5.791   5.146
10030WAT     H140840   0.888   5.877   5.163
10030WAT     H240841   0.855   5.757   5.220
10030WAT    EPW40842   0.882   5.799   5.160
10031WAT      O40843   1.497   5.892   5.149
10031WAT     H140844   1.424   5.860   5.183
10031WAT     H240845   1.487   5.978   5.155
10031WAT    EPW40846   1.485   5.900   5.155
10032WAT      O40847   1.531   4.774   4.579
10032WAT     H140848   1.528   4.758   4.665
10032WAT     H240849   1.566   4.701   4.546
10032WAT    EPW40850   1.536   4.761   4.587
10033WAT      O40851   1.742   5.215   5.373
10033WAT     H140852   1.825   5.198   5.392
10033WAT     H240853   1.701   5.208   5.449
10033WAT    EPW40854   1.748   5.212   5.387
10034WAT      O40855   0.570   5.065   4.656
10034WAT     H140856   0.603   5.016   4.591
10034WAT     H240857   0.540   5.006   4.713
10034WAT    EPW40858   0.571   5.049   4.655
10035WAT      O40859   1.806   5.918   4.120
10035WAT     H140860   1.806   5.869   4.192
10035WAT     H240861   1.890   5.925   4.100
10035WAT    EPW40862   1.818   5.912   4.128
10036WAT      O40863   0.528   5.887   4.547
10036WAT     H140864   0.611   5.884   4.521
10036WAT     H240865   0.494   5.812   4.516
10036WAT    EPW40866   0.535   5.876   4.538
10037WAT      O40867   0.382   6.528   4.738
10037WAT     H140868   0.326   6.484   4.687
10037WAT     H240869   0.452   6.539   4.686
10037WAT    EPW40870   0.384   6.523   4.723
10038WAT      O40871   0.378   5.309   5.044
10038WAT     H140872   0.462   5.318   5.023
10038WAT     H240873   0.345   5.388   5.031
10038WAT    EPW40874   0.385   5.322   5.039
10039WAT      O40875   2.030   6.343   5.516
10039WAT     H140876   1.956   6.343   5.469
10039WAT     H240877   2.010   6.298   5.587
10039WAT    EPW40878   2.016   6.336   5.519
10040WAT      O40879   1.615   5.579   4.041
10040WAT     H140880   1.609   5.661   4.012
10040WAT     H240881   1.583   5.583   4.122
10040WAT    EPW40882   1.609   5.592   4.049
10041WAT      O40883   0.782   5.869   4.430
10041WAT     H140884   0.847   5.926   4.419
10041WAT     H240885   0.801   5.805   4.373
10041WAT    EPW40886   0.795   5.868   4.420
10042WAT      O40887   1.927   5.042   4.026
10042WAT     H140888   1.944   4.969   3.981
10042WAT     H240889   1.891   5.095   3.967
10042WAT    EPW40890   1.924   5.039   4.011
10043WAT      O40891   0.951   5.403   5.813
10043WAT     H140892   0.903   5.432   5.879
10043WAT     H240893   0.922   5.449   5.745
10043WAT    EPW40894   0.940   5.414   5.812
10044WAT      O40895   2.023   5.478   5.272
10044WAT     H140896   2.048   5.409   5.224
10044WAT     H240897   1.938   5.486   5.254
10044WAT    EPW40898   2.014   5.469   5.262
10045WAT      O40899   1.804   4.933   4.256
10045WAT     H140900   1.880   4.900   4.283
10045WAT     H240901   1.826   4.981   4.187
10045WAT    EPW40902   1.818   4.936   4.250
10046WAT      O40903   1.206   6.267   4.708
10046WAT     H140904   1.158   6.337   4.688
10046WAT     H240905   1.235   6.239   4.631
10046WAT    EPW40906   1.203   6.273   4.694
10047WAT      O40907   0.631   5.984   5.029
10047WAT     H140908   0.692   6.018   5.080
10047WAT     H240909   0.677   5.930   4.977
10047WAT    EPW40910   0.647   5.981   5.029
10048WAT      O40911   1.491   5.203   4.710
10048WAT     H140912   1.521   5.168   4.784
10048WAT     H240913   1.427   5.149   4.686
10048WAT    EPW40914   1.486   5.190   4.718
10049WAT      O40915   0.377   5.869   4.797
10049WAT     H140916   0.421   5.846   4.725
10049WAT     H240917   0.395   5.954   4.806
10049WAT    EPW40918   0.386   5.878   4.788
10050WAT      O40919   0.927   5.172   4.193
10050WAT     H140920   0.914   5.145   4.111
10050WAT     H240921   0.892   5.252   4.194
10050WAT    EPW40922   0.920   5.180   4.181
10051WAT      O40923   1.786   6.354   5.358
10051WAT     H140924   1.741   6.428   5.367
10051WAT     H240925   1.780   6.337   5.273
10051WAT    EPW40926   1.779   6.362   5.347
10052WAT      O40927   0.723   6.157   4.641
10052WAT     H140928   0.734   6.240   4.665
10052WAT     H240929   0.797   6.118   4.666
10052WAT    EPW40930   0.736   6.164   4.648
10053WAT      O40931   0.518   5.538   5.659
10053WAT     H140932   0.488   5.473   5.708
10053WAT     H240933   0.516   5.506   5.578
10053WAT    EPW40934   0.513   5.524   5.655
10054WAT      O40935   0.542   5.392   4.153
10054WAT     H140936   0.538   5.319   4.201
10054WAT     H240937   0.507   5.367   4.077
10054WAT    EPW40938   0.536   5.377   4.149
10055WAT      O40939   0.608   5.602   4.847
10055WAT     H140940   0.579   5.573   4.770
10055WAT     H240941   0.628   5.529   4.891
10055WAT    EPW40942   0.606   5.587   4.842
10056WAT      O40943   0.573   5.576   5.184
10056WAT     H140944   0.602   5.525   5.120
10056WAT     H240945   0.528   5.638   5.143
10056WAT    EPW40946   0.570   5.577   5.168
10057WAT      O40947   1.640   5.380   4.982
10057WAT     H140948   1.573   5.404   5.032
10057WAT     H240949   1.636   5.435   4.914
10057WAT    EPW40950   1.629   5.392   4.979
10058WAT      O40951   0.987   6.455   5.101
10058WAT     H140952   0.965   6.392   5.045
10058WAT     H240953   0.968   6.528   5.056
10058WAT    EPW40954   0.981   6.457   5.086
10059WAT      O40955   1.205   4.956   5.350
10059WAT     H140956   1.221   4.875   5.322
10059WAT     H240957   1.236   4.955   5.432
10059WAT    EPW40958   1.212   4.944   5.358
10060WAT      O40959   1.441   5.137   4.329
10060WAT     H140960   1.497   5.204   4.340
10060WAT     H240961   1.364   5.176   4.319
10060WAT    EPW40962   1.438   5.153   4.329
10061WAT      O40963   0.397   5.783   5.720
10061WAT     H140964   0.379   5.823   5.645
10061WAT     H240965   0.427   5.705   5.695
10061WAT    EPW40966   0.399   5.777   5.705
10062WAT      O40967   1.546   5.943   5.600
10062WAT     H140968   1.575   6.023   5.577
10062WAT     H240969   1.575   5.892   5.535
10062WAT    EPW40970   1.555   5.947   5.587
10063WAT      O40971   0.970   6.260   5.617
10063WAT     H140972   0.995   6.256   5.701
10063WAT     H240973   0.940   6.180   5.601
10063WAT    EPW40974   0.969   6.248   5.627
10064WAT      O40975   1.026   5.273   4.960
10064WAT     H140976   1.092   5.330   4.964
10064WAT     H240977   1.062   5.199   4.988
10064WAT    EPW40978   1.041   5.271   4.965
10065WAT      O40979   1.288   5.583   4.147
10065WAT     H140980   1.269   5.637   4.082
10065WAT     H240981   1.227   5.601   4.207
10065WAT    EPW40982   1.276   5.594   4.146
10066WAT      O40983   1.816   5.907   4.574
10066WAT     H140984   1.820   5.858   4.646
10066WAT     H240985   1.790   5.851   4.512
10066WAT    EPW40986   1.813   5.891   4.575
10067WAT      O40987   1.384   6.324   4.919
10067WAT     H140988   1.326   6.301   4.858
10067WAT     H240989   1.433   6.384   4.878
10067WAT    EPW40990   1.383   6.330   4.904
10068WAT      O40991   1.371   5.965   4.903
10068WAT     H140992   1.297   5.996   4.937
10068WAT     H240993   1.407   5.920   4.969
10068WAT    EPW40994   1.365   5.963   4.918
10069WAT      O40995   0.757   6.467   4.287
10069WAT     H140996   0.763   6.394   4.334
10069WAT     H240997   0.830   6.467   4.240
10069WAT    EPW40998   0.768   6.456   4.287
10070WAT      O40999   0.726   4.821   4.077
10070WAT     H141000   0.712   4.796   4.159
10070WAT     H241001   0.671   4.888   4.066
10070WAT    EPW41002   0.716   4.827   4.087
10071WAT      O41003   0.999   6.450   4.151
10071WAT     H141004   1.056   6.456   4.217
10071WAT     H241005   1.005   6.528   4.112
10071WAT    EPW41006   1.008   6.462   4.155
10072WAT      O41007   1.625   5.794   5.379
10072WAT     H141008   1.592   5.832   5.308
10072WAT     H241009   1.710   5.812   5.374
10072WAT    EPW41010   1.633   5.802   5.368
10073WAT      O41011   1.327   6.361   5.804
10073WAT     H141012   1.350   6.383   5.885
10073WAT     H241013   1.359   6.426   5.755
10073WAT    EPW41014   1.335   6.374   5.809
10074WAT      O41015   1.765   4.892   5.649
10074WAT     H141016   1.724   4.849   5.585
10074WAT     H241017   1.762   4.836   5.716
10074WAT    EPW41018   1.759   4.878   5.649
10075WAT      O41019   0.491   5.661   4.208
10075WAT     H141020   0.506   5.577   4.191
10075WAT     H241021   0.470   5.661   4.293
10075WAT    EPW41022   0.490   5.648   4.218
10076WAT      O41023   1.270   5.788   5.262
10076WAT     H141024   1.219   5.828   5.321
10076WAT     H241025   1.301   5.720   5.306
10076WAT    EPW41026   1.267   5.784   5.277
10077WAT      O41027   1.129   5.622   4.375
10077WAT     H141028   1.142   5.688   4.431
10077WAT     H241029   1.117   5.553   4.427
10077WAT    EPW41030   1.129   5.622   4.391
10078WAT      O41031   1.621   6.104   4.891
10078WAT     H141032   1.636   6.117   4.806
10078WAT     H241033   1.540   6.073   4.893
10078WAT    EPW41034   1.611   6.102   4.879
10079WAT      O41035   0.585   5.054   4.014
10079WAT     H141036   0.532   5.056   3.945
10079WAT     H241037   0.658   5.093   3.985
10079WAT    EPW41038   0.588   5.060   4.000
10080WAT      O41039   1.046   5.834   4.793
10080WAT     H141040   0.962   5.817   4.809
10080WAT     H241041   1.087   5.803   4.864
10080WAT    EPW41042   1.040   5.827   4.806
10081WAT      O41043   0.725   6.445   3.917
10081WAT     H141044   0.741   6.379   3.972
10081WAT     H241045   0.721   6.514   3.970
10081WAT    EPW41046   0.727   6.446   3.933
10082WAT      O41047   0.433   5.788   5.063
10082WAT     H141048   0.489   5.854   5.070
10082WAT     H241049   0.409   5.790   4.979
10082WAT    EPW41050   0.438   5.798   5.051
10083WAT      O41051   0.736   5.268   4.736
10083WAT     H141052   0.818   5.246   4.720
10083WAT     H241053   0.690   5.197   4.714
10083WAT    EPW41054   0.741   5.254   4.731
10084WAT      O41055   1.994   6.495   4.123
10084WAT     H141056   2.062   6.446   4.097
10084WAT     H241057   1.944   6.438   4.167
10084WAT    EPW41058   1.996   6.479   4.125
10085WAT      O41059   0.229   5.440   4.454
10085WAT     H141060   0.252   5.386   4.519
10085WAT     H241061   0.221   5.386   4.386
10085WAT    EPW41062   0.231   5.424   4.454
10086WAT      O41063   1.743   5.766   5.072
10086WAT     H141064   1.744   5.694   5.121
10086WAT     H241065   1.663   5.798   5.084
10086WAT    EPW41066   1.732   5.760   5.081
10087WAT      O41067   0.728   5.645   3.916
10087WAT     H141068   0.674   5.702   3.954
10087WAT     H241069   0.678   5.607   3.854
10087WAT    EPW41070   0.713   5.648   3.912
10088WAT      O41071   0.367   5.904   5.467
10088WAT     H141072   0.325   5.855   5.409
10088WAT     H241073   0.355   5.985   5.438
10088WAT    EPW41074   0.359   5.909   5.454
10089WAT      O41075   1.843   5.747   4.808
10089WAT     H141076   1.814   5.763   4.888
10089WAT     H241077   1.929   5.739   4.818
10089WAT    EPW41078   1.852   5.749   4.821
10090WAT      O41079   0.817   5.427   4.161
10090WAT     H141080   0.832   5.506   4.196
10090WAT     H241081   0.730   5.424   4.155
10090WAT    EPW41082   0.807   5.438   4.165
10091WAT      O41083   1.638   5.148   5.630
10091WAT     H141084   1.563   5.152   5.675
10091WAT     H241085   1.664   5.065   5.641
10091WAT    EPW41086   1.631   5.137   5.638
10092WAT      O41087   0.273   5.125   4.858
10092WAT     H141088   0.319   5.052   4.867
10092WAT     H241089   0.301   5.175   4.924
10092WAT    EPW41090   0.284   5.122   4.869
10093WAT      O41091   1.999   6.242   4.901
10093WAT     H141092   2.026   6.295   4.838
10093WAT     H241093   2.063   6.245   4.960
10093WAT    EPW41094   2.012   6.250   4.900
10094WAT      O41095   1.472   5.505   5.716
10094WAT     H141096   1.512   5.512   5.793
10094WAT     H241097   1.397   5.549   5.728
10094WAT    EPW41098   1.467   5.513   5.730
10095WAT      O41099   1.702   5.540   5.551
10095WAT     H141100   1.726   5.620   5.576
10095WAT     H241101   1.631   5.523   5.598
10095WAT    EPW41102   1.695   5.549   5.562
10096WAT      O41103   1.674   6.161   4.102
10096WAT     H141104   1.712   6.083   4.111
10096WAT     H241105   1.597   6.152   4.142
10096WAT    EPW41106   1.668   6.148   4.109
10097WAT      O41107   1.734   5.308   4.621
10097WAT     H141108   1.666   5.261   4.648
10097WAT     H241109   1.725   5.384   4.663
10097WAT    EPW41110   1.722   5.313   4.631
10098WAT      O41111   2.017   5.622   5.746
10098WAT     H141112   2.020   5.565   5.680
10098WAT     H241113   2.097   5.658   5.746
10098WAT    EPW41114   2.029   5.619   5.736
10099WAT      O41115   1.894   5.872   5.383
10099WAT     H141116   1.962   5.824   5.359
10099WAT     H241117   1.889   5.932   5.320
10099WAT    EPW41118   1.903   5.874   5.370
10100WAT      O41119   1.350   5.962   4.032
10100WAT     H141120   1.426   5.920   4.023
10100WAT     H241121   1.320   5.966   3.950
10100WAT    EPW41122   1.357   5.956   4.018
10101WAT      O41123   0.875   6.079   5.146
10101WAT     H141124   0.871   6.135   5.212
10101WAT     H241125   0.871   6.129   5.075
10101WAT    EPW41126   0.874   6.094   5.145
10102WAT      O41127   0.645   5.927   5.452
10102WAT     H141128   0.561   5.909   5.465
10102WAT     H241129   0.645   6.013   5.440
10102WAT    EPW41130   0.632   5.937   5.452
10103WAT      O41131   1.586   4.997   5.285
10103WAT     H141132   1.646   5.059   5.300
10103WAT     H241133   1.512   5.042   5.277
10103WAT    EPW41134   1.584   5.013   5.286
10104WAT      O41135   1.128   5.711   5.036
10104WAT     H141136   1.181   5.738   5.099
10104WAT     H241137   1.048   5.723   5.069
10104WAT    EPW41138   1.124   5.717   5.050
10105WAT      O41139   0.761   5.291   5.426
10105WAT     H141140   0.778   5.213   5.463
10105WAT     H241141   0.791   5.282   5.345
10105WAT    EPW41142   0.768   5.278   5.420
10106WAT      O41143   1.034   6.472   4.616
10106WAT     H141144   1.032   6.557   4.633
10106WAT     H241145   1.047   6.468   4.529
10106WAT    EPW41146   1.036   6.484   4.606
10107WAT      O41147   1.649   4.789   5.104
10107WAT     H141148   1.624   4.862   5.144
10107WAT     H241149   1.733   4.782   5.126
10107WAT    EPW41150   1.658   4.799   5.113
10108WAT      O41151   0.935   4.895   5.349
10108WAT     H141152   1.017   4.923   5.337
10108WAT     H241153   0.941   4.809   5.340
10108WAT    EPW41154   0.948   4.887   5.346
10109WAT      O41155   0.875   6.260   4.938
10109WAT     H141156   0.826   6.313   4.889
10109WAT     H241157   0.916   6.209   4.880
10109WAT    EPW41158   0.874   6.260   4.922
10110WAT      O41159   1.281   5.914   5.664
10110WAT     H141160   1.362   5.928   5.636
10110WAT     H241161   1.231   5.933   5.595
10110WAT    EPW41162   1.285   5.919   5.650
10111WAT      O41163   1.622   6.206   5.533
10111WAT     H141164   1.658   6.234   5.607
10111WAT     H241165   1.671   6.243   5.471
10111WAT    EPW41166   1.635   6.215   5.535
10112WAT      O41167   1.864   5.464   4.007
10112WAT     H141168   1.911   5.520   3.959
10112WAT     H241169   1.785   5.500   4.008
10112WAT    EPW41170   1.859   5.478   4.000
10113WAT      O41171   0.973   5.746   3.995
10113WAT     H141172   0.902   5.710   3.959
10113WAT     H241173   0.953   5.831   3.996
10113WAT    EPW41174   0.959   5.753   3.989
10114WAT      O41175   0.647   5.363   4.984
10114WAT     H141176   0.674   5.328   4.909
10114WAT     H241177   0.703   5.332   5.043
10114WAT    EPW41178   0.659   5.354   4.982
10115WAT      O41179   1.366   5.345   5.502
10115WAT     H141180   1.290   5.385   5.514
10115WAT     H241181   1.408   5.357   5.577
10115WAT    EPW41182   1.361   5.353   5.515
10116WAT      O41183   1.414   5.410   5.138
10116WAT     H141184   1.421   5.466   5.205
10116WAT     H241185   1.398   5.334   5.177
10116WAT    EPW41186   1.413   5.407   5.154
10117WAT      O41187   1.136   6.476   5.540
10117WAT     H141188   1.150   6.472   5.454
10117WAT     H241189   1.099   6.400   5.560
10117WAT    EPW41190   1.133   6.464   5.531
10118WAT      O41191   1.622   5.356   4.371
10118WAT     H141192   1.649   5.337   4.452
10118WAT     H241193   1.694   5.386   4.332
10118WAT    EPW41194   1.637   5.358   4.377
10119WAT      O41195   0.915   4.829   4.932
10119WAT     H141196   0.829   4.822   4.948
10119WAT     H241197   0.919   4.837   4.845
10119WAT    EPW41198   0.903   4.829   4.921
10120WAT      O41199   1.754   4.941   4.533
10120WAT     H141200   1.676   4.906   4.552
10120WAT     H241201   1.751   4.952   4.447
10120WAT    EPW41202   1.742   4.937   4.523
10121WAT      O41203   1.755   5.750   4.346
10121WAT     H141204   1.797   5.674   4.333
10121WAT     H241205   1.671   5.728   4.337
10121WAT    EPW41206   1.748   5.735   4.343
10122WAT      O41207   1.118   5.952   5.439
10122WAT     H141208   1.042   5.955   5.482
10122WAT     H241209   1.126   6.033   5.407
10122WAT    EPW41210   1.108   5.965   5.440
10123WAT      O41211   0.653   6.606   5.008
10123WAT     H141212   0.661   6.600   5.095
10123WAT     H241213   0.624   6.527   4.985
10123WAT    EPW41214   0.650   6.594   5.017
10124WAT      O41215   0.534   5.138   4.274
10124WAT     H141216   0.539   5.107   4.193
10124WAT     H241217   0.449   5.134   4.293
10124WAT    EPW41218   0.522   5.133   4.265
10125WAT      O41219   1.413   5.929   4.629
10125WAT     H141220   1.397   5.938   4.715
10125WAT     H241221   1.440   5.846   4.623
10125WAT    EPW41222   1.415   5.918   4.641
10126WAT      O41223   1.161   5.846   4.540
10126WAT     H141224   1.122   5.836   4.617
10126WAT     H241225   1.240   5.877   4.560
10126WAT    EPW41226   1.167   5.849   4.554
10127WAT      O41227   1.158   6.221   5.349
10127WAT     H141228   1.215   6.220   5.415
10127WAT     H241229   1.184   6.289   5.300
10127WAT    EPW41230   1.170   6.231   5.351
10128WAT      O41231   1.971   5.441   5.541
10128WAT     H141232   1.885   5.455   5.542
10128WAT     H241233   1.993   5.456   5.458
10128WAT    EPW41234   1.962   5.445   5.529
10129WAT      O41235   1.429   5.581   5.357
10129WAT     H141236   1.419   5.518   5.416
10129WAT     H241237   1.501   5.623   5.385
10129WAT    EPW41238   1.438   5.578   5.370
10130WAT      O41239   0.376   6.554   5.572
10130WAT     H141240   0.326   6.580   5.639
10130WAT     H241241   0.432   6.620   5.562
10130WAT    EPW41242   0.377   6.567   5.581
10131WAT      O41243   1.221   5.669   5.778
10131WAT     H141244   1.245   5.744   5.740
10131WAT     H241245   1.141   5.687   5.809
10131WAT    EPW41246   1.212   5.683   5.777
10132WAT      O41247   1.525   6.560   4.854
10132WAT     H141248   1.466   6.620   4.878
10132WAT     H241249   1.589   6.571   4.912
10132WAT    EPW41250   1.526   6.571   4.866
10133WAT      O41251   1.159   6.065   5.062
10133WAT     H141252   1.080   6.061   5.098
10133WAT     H241253   1.209   6.097   5.126
10133WAT    EPW41254   1.155   6.069   5.077
10134WAT      O41255   1.746   6.285   5.768
10134WAT     H141256   1.829   6.256   5.768
10134WAT     H241257   1.711   6.244   5.837
10134WAT    EPW41258   1.753   6.274   5.778
10135WAT      O41259   0.514   5.417   5.409
10135WAT     H141260   0.522   5.470   5.341
10135WAT     H241261   0.592   5.377   5.414
10135WAT    EPW41262   0.527   5.419   5.400
10136WAT      O41263   0.368   5.205   5.307
10136WAT     H141264   0.357   5.230   5.224
10136WAT     H241265   0.408   5.273   5.344
10136WAT    EPW41266   0.372   5.218   5.300
10137WAT      O41267   1.851   5.495   4.284
10137WAT     H141268   1.862   5.488   4.198
10137WAT     H241269   1.926   5.467   4.318
10137WAT    EPW41270   1.864   5.490   4.276
10138WAT      O41271   0.594   4.872   5.539
10138WAT     H141272   0.650   4.805   5.531
10138WAT     H241273   0.575   4.891   5.456
10138WAT    EPW41274   0.600   4.865   5.526
10139WAT      O41275   1.243   6.195   4.439
10139WAT     H141276   1.222   6.275   4.413
10139WAT     H241277   1.170   6.149   4.425
10139WAT    EPW41278   1.229   6.200   4.433
10140WAT      O41279   1.747   5.503   5.271
10140WAT     H141280   1.730   5.418   5.269
10140WAT     H241281   1.725   5.527   5.352
10140WAT    EPW41282   1.741   5.494   5.282
10141WAT      O41283   0.241   5.765   5.263
10141WAT     H141284   0.298   5.771   5.197
10141WAT     H241285   0.164   5.780   5.225
10141WAT    EPW41286   0.238   5.768   5.248
10142WAT      O41287   0.415   5.323   3.909
10142WAT     H141288   0.329   5.326   3.920
10142WAT     H241289   0.428   5.249   3.865
10142WAT    EPW41290   0.404   5.313   3.904
10143WAT      O41291   1.287   4.962   5.617
10143WAT     H141292   1.316   5.029   5.665
10143WAT     H241293   1.207   4.948   5.648
10143WAT    EPW41294   1.279   4.970   5.629
10144WAT      O41295   1.261   5.047   4.683
10144WAT     H141296   1.182   5.085   4.682
10144WAT     H241297   1.254   4.985   4.622
10144WAT    EPW41298   1.248   5.043   4.674
10145WAT      O41299   0.739   6.217   4.094
10145WAT     H141300   0.769   6.221   4.175
10145WAT     H241301   0.658   6.185   4.103
10145WAT    EPW41302   0.732   6.213   4.107
10146WAT      O41303   1.584   5.108   4.955
10146WAT     H141304   1.660   5.071   4.975
10146WAT     H241305   1.596   5.192   4.975
10146WAT    EPW41306   1.597   5.115   4.961
10147WAT      O41307   0.757   5.687   5.368
10147WAT     H141308   0.719   5.759   5.397
10147WAT     H241309   0.696   5.651   5.316
10147WAT    EPW41310   0.742   5.692   5.364
10148WAT      O41311   1.666   5.543   4.754
10148WAT     H141312   1.725   5.605   4.769
10148WAT     H241313   1.606   5.583   4.704
10148WAT    EPW41314   1.666   5.558   4.749
10149WAT      O41315   1.677   6.373   4.492
10149WAT     H141316   1.661   6.296   4.529
10149WAT     H241317   1.715   6.352   4.416
10149WAT    EPW41318   1.680   6.358   4.486
10150WAT      O41319   0.492   6.099   4.136
10150WAT     H141320   0.471   6.090   4.220
10150WAT     H241321   0.506   6.017   4.109
10150WAT    EPW41322   0.491   6.085   4.144
10151WAT      O41323   0.809   5.981   3.958
10151WAT     H141324   0.735   5.940   3.977
10151WAT     H241325   0.803   6.057   4.000
10151WAT    EPW41326   0.797   5.986   3.967
10152WAT      O41327   0.749   5.001   5.167
10152WAT     H141328   0.671   4.981   5.201
10152WAT     H241329   0.805   4.957   5.217
10152WAT    EPW41330   0.746   4.992   5.180
10153WAT      O41331   1.906   4.840   5.222
10153WAT     H141332   1.891   4.857   5.307
10153WAT     H241333   1.988   4.812   5.221
10153WAT    EPW41334   1.916   4.839   5.235
10154WAT      O41335   1.100   5.019   5.032
10154WAT     H141336   1.042   4.959   5.006
10154WAT     H241337   1.177   4.984   5.012
10154WAT    EPW41338   1.103   5.005   5.025
10155WAT      O41339   1.426   6.161   5.150
10155WAT     H141340   1.454   6.231   5.195
10155WAT     H241341   1.417   6.191   5.069
10155WAT    EPW41342   1.429   6.176   5.145
10156WAT      O41343   1.403   6.547   5.604
10156WAT     H141344   1.330   6.510   5.573
10156WAT     H241345   1.380   6.630   5.620
10156WAT    EPW41346   1.389   6.554   5.602
10157WAT      O41347   0.876   5.508   5.554
10157WAT     H141348   0.843   5.437   5.515
10157WAT     H241349   0.843   5.574   5.507
10157WAT    EPW41350   0.866   5.507   5.541
10158WAT      O41351   0.998   4.860   4.038
10158WAT     H141352   1.009   4.863   3.951
10158WAT     H241353   0.911   4.860   4.047
10158WAT    EPW41354   0.987   4.861   4.026
10159WAT      O41355   1.884   6.015   5.145
10159WAT     H141356   1.846   5.948   5.103
10159WAT     H241357   1.838   6.084   5.120
10159WAT    EPW41358   1.872   6.015   5.135
10160WAT      O41359   0.805   6.489   5.549
10160WAT     H141360   0.785   6.491   5.634
10160WAT     H241361   0.857   6.419   5.542
10160WAT    EPW41362   0.810   6.479   5.561
10161WAT      O41363   1.771   6.258   5.072
10161WAT     H141364   1.838   6.270   5.018
10161WAT     H241365   1.710   6.222   5.021
10161WAT    EPW41366   1.772   6.255   5.056
10162WAT      O41367   0.503   4.964   5.298
10162WAT     H141368   0.445   4.903   5.279
10162WAT     H241369   0.457   5.038   5.296
10162WAT    EPW41370   0.488   4.966   5.295
10163WAT      O41371   1.351   4.945   4.927
10163WAT     H141372   1.417   4.998   4.948
10163WAT     H241373   1.323   4.977   4.850
10163WAT    EPW41374   1.356   4.958   4.918
10164WAT      O41375   0.529   6.337   5.654
10164WAT     H141376   0.590   6.373   5.704
10164WAT     H241377   0.483   6.405   5.626
10164WAT    EPW41378   0.531   6.352   5.657
10165WAT      O41379   1.336   5.435   4.687
10165WAT     H141380   1.389   5.367   4.698
10165WAT     H241381   1.301   5.448   4.767
10165WAT    EPW41382   1.338   5.427   4.701
10166WAT      O41383   0.354   5.232   4.618
10166WAT     H141384   0.311   5.209   4.690
10166WAT     H241385   0.424   5.181   4.618
10166WAT    EPW41386   0.358   5.221   4.629
10167WAT      O41387   0.376   6.173   5.383
10167WAT     H141388   0.339   6.222   5.445
10167WAT     H241389   0.461   6.182   5.398
10167WAT    EPW41390   0.383   6.182   5.395
10168WAT      O41391   1.510   5.603   4.312
10168WAT     H141392   1.532   5.521   4.330
10168WAT     H241393   1.435   5.595   4.268
10168WAT    EPW41394   1.502   5.590   4.308
10169WAT      O41395   0.482   6.485   4.222
10169WAT     H141396   0.459   6.442   4.150
10169WAT     H241397   0.567   6.468   4.230
10169WAT    EPW41398   0.491   6.476   4.213
10170WAT      O41399   0.889   5.680   4.252
10170WAT     H141400   0.915   5.707   4.173
10170WAT     H241401   0.964   5.661   4.293
10170WAT    EPW41402   0.904   5.681   4.246
10171WAT      O41403   1.782   6.550   3.948
10171WAT     H141404   1.852   6.540   3.998
10171WAT     H241405   1.767   6.470   3.917
10171WAT    EPW41406   1.790   6.537   3.951
10172WAT      O41407   1.814   5.779   5.640
10172WAT     H141408   1.884   5.743   5.678
10172WAT     H241409   1.848   5.822   5.571
10172WAT    EPW41410   1.830   5.780   5.635
10173WAT      O41411   1.427   6.152   4.226
10173WAT     H141412   1.379   6.147   4.299
10173WAT     H241413   1.389   6.095   4.172
10173WAT    EPW41414   1.414   6.143   4.229
10174WAT      O41415   1.868   5.227   5.761
10174WAT     H141416   1.858   5.306   5.795
10174WAT     H241417   1.793   5.213   5.720
10174WAT    EPW41418   1.855   5.236   5.760
10175WAT      O41419   1.908   5.322   5.040
10175WAT     H141420   1.826   5.350   5.026
10175WAT     H241421   1.899   5.235   5.046
10175WAT    EPW41422   1.894   5.313   5.039
10176WAT      O41423   0.816   5.040   5.549
10176WAT     H141424   0.856   5.006   5.479
10176WAT     H241425   0.742   4.995   5.553
10176WAT    EPW41426   0.811   5.028   5.539
10177WAT      O41427   1.590   5.836   5.863
10177WAT     H141428   1.664   5.865   5.899
10177WAT     H241429   1.598   5.860   5.779
10177WAT    EPW41430   1.602   5.844   5.856
10178WAT      O41431   0.505   6.372   4.932
10178WAT     H141432   0.507   6.292   4.896
10178WAT     H241433   0.458   6.418   4.875
10178WAT    EPW41434   0.499   6.367   4.918
10179WAT      O41435   1.092   6.012   4.127
10179WAT     H141436   1.170   5.983   4.102
10179WAT     H241437   1.079   6.081   4.076
10179WAT    EPW41438   1.102   6.018   4.116
10180WAT      O41439   0.319   6.608   5.297
10180WAT     H141440   0.318   6.583   5.380
10180WAT     H241441   0.351   6.539   5.255
10180WAT    EPW41442   0.323   6.594   5.303
10181WAT      O41443   1.268   4.842   2.591
10181WAT     H141444   1.269   4.884   2.515
10181WAT     H241445   1.352   4.821   2.604
10181WAT    EPW41446   1.281   4.845   2.582
10182WAT      O41447   1.224   5.470   3.041
10182WAT     H141448   1.187   5.545   3.066
10182WAT     H241449   1.285   5.456   3.102
10182WAT    EPW41450   1.228   5.479   3.054
10183WAT      O41451   1.823   6.325   2.358
10183WAT     H141452   1.888   6.269   2.374
10183WAT     H241453   1.770   6.279   2.305
10183WAT    EPW41454   1.825   6.310   2.352
10184WAT      O41455   0.565   5.847   2.126
10184WAT     H141456   0.505   5.834   2.065
10184WAT     H241457   0.541   5.793   2.190
10184WAT    EPW41458   0.552   5.838   2.127
10185WAT      O41459   1.468   5.659   2.685
10185WAT     H141460   1.475   5.644   2.599
10185WAT     H241461   1.416   5.595   2.713
10185WAT    EPW41462   1.461   5.647   2.677
10186WAT      O41463   0.408   6.097   2.503
10186WAT     H141464   0.455   6.041   2.551
10186WAT     H241465   0.326   6.071   2.517
10186WAT    EPW41466   0.403   6.085   2.512
10187WAT      O41467   0.949   4.971   2.476
10187WAT     H141468   0.935   5.041   2.425
10187WAT     H241469   1.025   4.940   2.448
10187WAT    EPW41470   0.958   4.977   2.464
10188WAT      O41471   0.397   6.324   2.105
10188WAT     H141472   0.430   6.316   2.025
10188WAT     H241473   0.414   6.247   2.143
10188WAT    EPW41474   0.404   6.312   2.099
10189WAT      O41475   0.881   5.995   3.689
10189WAT     H141476   0.865   5.985   3.774
10189WAT     H241477   0.808   5.965   3.651
10189WAT    EPW41478   0.868   5.989   3.696
10190WAT      O41479   0.422   5.646   2.583
10190WAT     H141480   0.348   5.601   2.572
10190WAT     H241481   0.475   5.589   2.621
10190WAT    EPW41482   0.419   5.631   2.587
10191WAT      O41483   0.834   5.258   3.259
10191WAT     H141484   0.902   5.264   3.206
10191WAT     H241485   0.812   5.174   3.255
10191WAT    EPW41486   0.840   5.247   3.251
10192WAT      O41487   0.885   6.301   3.421
10192WAT     H141488   0.900   6.358   3.357
10192WAT     H241489   0.965   6.277   3.447
10192WAT    EPW41490   0.899   6.306   3.415
10193WAT      O41491   0.550   5.444   2.724
10193WAT     H141492   0.622   5.397   2.741
10193WAT     H241493   0.486   5.385   2.725
10193WAT    EPW41494   0.551   5.428   2.727
10194WAT      O41495   0.985   6.101   2.844
10194WAT     H141496   1.010   6.020   2.865
10194WAT     H241497   1.060   6.144   2.834
10194WAT    EPW41498   1.000   6.095   2.846
10195WAT      O41499   1.019   6.032   2.489
10195WAT     H141500   1.060   5.970   2.535
10195WAT     H241501   1.040   6.014   2.407
10195WAT    EPW41502   1.028   6.020   2.484
10196WAT      O41503   1.146   5.531   3.656
10196WAT     H141504   1.059   5.524   3.651
10196WAT     H241505   1.158   5.578   3.729
10196WAT    EPW41506   1.135   5.537   3.666
10197WAT      O41507   0.672   4.951   2.523
10197WAT     H141508   0.636   5.014   2.473
10197WAT     H241509   0.757   4.956   2.504
10197WAT    EPW41510   0.679   4.961   2.513
10198WAT      O41511   1.649   4.714   3.588
10198WAT     H141512   1.629   4.744   3.508
10198WAT     H241513   1.571   4.700   3.624
10198WAT    EPW41514   1.634   4.717   3.581
10199WAT      O41515   0.956   4.913   2.752
10199WAT     H141516   0.969   4.995   2.781
10199WAT     H241517   0.947   4.923   2.666
10199WAT    EPW41518   0.957   4.927   2.744
10200WAT      O41519   1.398   5.159   1.986
10200WAT     H141520   1.346   5.222   2.016
10200WAT     H241521   1.410   5.107   2.054
10200WAT    EPW41522   1.392   5.161   2.000
10201WAT      O41523   0.803   6.210   2.479
10201WAT     H141524   0.761   6.189   2.552
10201WAT     H241525   0.875   6.161   2.481
10201WAT    EPW41526   0.807   6.199   2.490
10202WAT      O41527   1.388   6.422   2.269
10202WAT     H141528   1.459   6.471   2.273
10202WAT     H241529   1.416   6.342   2.290
10202WAT    EPW41530   1.402   6.417   2.273
10203WAT      O41531   1.188   6.455   2.456
10203WAT     H141532   1.214   6.523   2.504
10203WAT     H241533   1.249   6.449   2.394
10203WAT    EPW41534   1.201   6.464   2.454
10204WAT      O41535   0.450   4.900   2.945
10204WAT     H141536   0.412   4.830   2.909
10204WAT     H241537   0.509   4.866   3.000
10204WAT    EPW41538   0.453   4.885   2.948
10205WAT      O41539   0.829   5.150   3.915
10205WAT     H141540   0.840   5.116   3.835
10205WAT     H241541   0.866   5.229   3.909
10205WAT    EPW41542   0.836   5.157   3.903
10206WAT      O41543   0.401   6.374   2.561
10206WAT     H141544   0.409   6.288   2.548
10206WAT     H241545   0.408   6.408   2.480
10206WAT    EPW41546   0.403   6.367   2.547
10207WAT      O41547   1.947   5.124   2.700
10207WAT     H141548   1.893   5.193   2.706
10207WAT     H241549   1.893   5.056   2.692
10207WAT    EPW41550   1.931   5.124   2.699
10208WAT      O41551   1.446   6.444   3.262
10208WAT     H141552   1.517   6.493   3.251
10208WAT     H241553   1.430   6.413   3.182
10208WAT    EPW41554   1.454   6.447   3.248
10209WAT      O41555   0.438   5.076   3.764
10209WAT     H141556   0.383   5.096   3.700
10209WAT     H241557   0.491   5.016   3.728
10209WAT    EPW41558   0.438   5.070   3.750
10210WAT      O41559   0.503   6.113   2.917
10210WAT     H141560   0.561   6.112   2.852
10210WAT     H241561   0.544   6.074   2.983
10210WAT    EPW41562   0.518   6.107   2.917
10211WAT      O41563   0.783   6.415   2.824
10211WAT     H141564   0.860   6.433   2.787
10211WAT     H241565   0.726   6.464   2.779
10211WAT    EPW41566   0.786   6.425   2.812
10212WAT      O41567   1.032   4.858   3.765
10212WAT     H141568   1.052   4.782   3.726
10212WAT     H241569   0.968   4.890   3.715
10212WAT    EPW41570   1.025   4.851   3.752
10213WAT      O41571   1.119   5.379   2.621
10213WAT     H141572   1.147   5.339   2.549
10213WAT     H241573   1.193   5.393   2.666
10213WAT    EPW41574   1.134   5.375   2.617
10214WAT      O41575   1.219   5.350   2.105
10214WAT     H141576   1.244   5.429   2.135
10214WAT     H241577   1.141   5.365   2.070
10214WAT    EPW41578   1.211   5.364   2.104
10215WAT      O41579   1.600   6.605   2.250
10215WAT     H141580   1.649   6.585   2.181
10215WAT     H241581   1.654   6.651   2.301
10215WAT    EPW41582   1.615   6.609   2.248
10216WAT      O41583   0.663   6.538   3.398
10216WAT     H141584   0.704   6.497   3.463
10216WAT     H241585   0.599   6.483   3.377
10216WAT    EPW41586   0.660   6.524   3.405
10217WAT      O41587   1.858   5.059   3.137
10217WAT     H141588   1.919   5.045   3.076
10217WAT     H241589   1.872   4.995   3.194
10217WAT    EPW41590   1.869   5.047   3.136
10218WAT      O41591   1.343   6.231   3.650
10218WAT     H141592   1.335   6.250   3.735
10218WAT     H241593   1.430   6.227   3.639
10218WAT    EPW41594   1.355   6.233   3.661
10219WAT      O41595   1.077   6.248   2.076
10219WAT     H141596   1.045   6.308   2.130
10219WAT     H241597   1.156   6.279   2.054
10219WAT    EPW41598   1.084   6.261   2.081
10220WAT      O41599   1.430   4.987   2.202
10220WAT     H141600   1.483   4.918   2.212
10220WAT     H241601   1.446   5.035   2.273
10220WAT    EPW41602   1.440   4.984   2.214
10221WAT      O41603   0.270   5.148   2.464
10221WAT     H141604   0.204   5.091   2.471
10221WAT     H241605   0.289   5.167   2.547
10221WAT    EPW41606   0.263   5.143   2.478
10222WAT      O41607   0.452   6.382   3.300
10222WAT     H141608   0.419   6.306   3.330
10222WAT     H241609   0.461   6.367   3.215
10222WAT    EPW41610   0.448   6.368   3.292
10223WAT      O41611   1.183   5.263   2.371
10223WAT     H141612   1.109   5.220   2.357
10223WAT     H241613   1.203   5.295   2.292
10223WAT    EPW41614   1.175   5.261   2.357
10224WAT      O41615   1.202   6.499   3.370
10224WAT     H141616   1.280   6.488   3.332
10224WAT     H241617   1.145   6.494   3.304
10224WAT    EPW41618   1.205   6.496   3.355
10225WAT      O41619   1.191   4.920   2.330
10225WAT     H141620   1.133   4.905   2.267
10225WAT     H241621   1.264   4.942   2.287
10225WAT    EPW41622   1.193   4.921   2.315
10226WAT      O41623   1.895   6.544   2.647
10226WAT     H141624   1.852   6.619   2.660
10226WAT     H241625   1.831   6.486   2.635
10226WAT    EPW41626   1.879   6.547   2.647
10227WAT      O41627   1.013   5.186   2.801
10227WAT     H141628   1.040   5.251   2.748
10227WAT     H241629   1.023   5.220   2.881
10227WAT    EPW41630   1.019   5.201   2.805
10228WAT      O41631   1.633   6.114   2.713
10228WAT     H141632   1.695   6.055   2.697
10228WAT     H241633   1.559   6.069   2.706
10228WAT    EPW41634   1.632   6.099   2.709
10229WAT      O41635   0.644   6.205   3.538
10229WAT     H141636   0.717   6.243   3.509
10229WAT     H241637   0.628   6.248   3.613
10229WAT    EPW41638   0.652   6.217   3.545
10230WAT      O41639   0.597   4.708   2.634
10230WAT     H141640   0.626   4.782   2.599
10230WAT     H241641   0.561   4.665   2.567
10230WAT    EPW41642   0.596   4.712   2.619
10231WAT      O41643   0.784   5.805   2.990
10231WAT     H141644   0.811   5.783   3.070
10231WAT     H241645   0.728   5.742   2.969
10231WAT    EPW41646   0.780   5.792   2.999
10232WAT      O41647   1.351   5.190   3.376
10232WAT     H141648   1.343   5.232   3.452
10232WAT     H241649   1.294   5.124   3.383
10232WAT    EPW41650   1.341   5.187   3.389
10233WAT      O41651   0.882   5.793   3.248
10233WAT     H141652   0.883   5.879   3.264
10233WAT     H241653   0.851   5.759   3.322
10233WAT    EPW41654   0.878   5.801   3.261
10234WAT      O41655   1.494   5.884   3.248
10234WAT     H141656   1.420   5.853   3.282
10234WAT     H241657   1.485   5.971   3.255
10234WAT    EPW41658   1.482   5.892   3.254
10235WAT      O41659   1.527   4.759   2.653
10235WAT     H141660   1.524   4.739   2.738
10235WAT     H241661   1.561   4.687   2.617
10235WAT    EPW41662   1.532   4.745   2.661
10236WAT      O41663   1.753   5.266   3.460
10236WAT     H141664   1.831   5.234   3.481
10236WAT     H241665   1.711   5.270   3.537
10236WAT    EPW41666   1.758   5.262   3.475
10237WAT      O41667   0.572   5.066   2.756
10237WAT     H141668   0.604   5.018   2.691
10237WAT     H241669   0.541   5.007   2.812
10237WAT    EPW41670   0.572   5.050   2.754
10238WAT      O41671   1.797   5.919   2.222
10238WAT     H141672   1.798   5.870   2.295
10238WAT     H241673   1.882   5.927   2.202
10238WAT    EPW41674   1.810   5.913   2.230
10239WAT      O41675   0.530   5.893   2.644
10239WAT     H141676   0.613   5.890   2.617
10239WAT     H241677   0.497   5.817   2.617
10239WAT    EPW41678   0.538   5.881   2.636
10240WAT      O41679   0.382   6.525   2.837
10240WAT     H141680   0.324   6.484   2.786
10240WAT     H241681   0.451   6.535   2.784
10240WAT    EPW41682   0.384   6.520   2.821
10241WAT      O41683   0.381   5.309   3.141
10241WAT     H141684   0.466   5.317   3.122
10241WAT     H241685   0.350   5.390   3.129
10241WAT    EPW41686   0.389   5.322   3.136
10242WAT      O41687   2.032   6.346   3.611
10242WAT     H141688   1.956   6.348   3.567
10242WAT     H241689   2.012   6.301   3.682
10242WAT    EPW41690   2.018   6.340   3.615
10243WAT      O41691   1.616   5.575   2.140
10243WAT     H141692   1.609   5.656   2.111
10243WAT     H241693   1.586   5.579   2.222
10243WAT    EPW41694   1.611   5.587   2.148
10244WAT      O41695   0.782   5.871   2.524
10244WAT     H141696   0.848   5.927   2.515
10244WAT     H241697   0.802   5.807   2.468
10244WAT    EPW41698   0.795   5.869   2.515
10245WAT      O41699   1.942   5.052   2.154
10245WAT     H141700   1.986   4.986   2.117
10245WAT     H241701   1.916   5.100   2.086
10245WAT    EPW41702   1.945   5.049   2.138
10246WAT      O41703   0.949   5.402   3.914
10246WAT     H141704   0.902   5.430   3.982
10246WAT     H241705   0.918   5.448   3.847
10246WAT    EPW41706   0.938   5.413   3.914
10247WAT      O41707   2.046   5.490   3.366
10247WAT     H141708   2.097   5.421   3.346
10247WAT     H241709   1.974   5.477   3.319
10247WAT    EPW41710   2.043   5.478   3.356
10248WAT      O41711   1.797   4.931   2.364
10248WAT     H141712   1.870   4.892   2.389
10248WAT     H241713   1.822   4.986   2.301
10248WAT    EPW41714   1.811   4.933   2.358
10249WAT      O41715   1.207   6.265   2.809
10249WAT     H141716   1.159   6.335   2.789
10249WAT     H241717   1.235   6.237   2.731
10249WAT    EPW41718   1.204   6.271   2.795
10250WAT      O41719   0.627   5.983   3.128
10250WAT     H141720   0.687   6.019   3.180
10250WAT     H241721   0.673   5.930   3.077
10250WAT    EPW41722   0.643   5.981   3.128
10251WAT      O41723   1.486   5.203   2.818
10251WAT     H141724   1.519   5.170   2.892
10251WAT     H241725   1.424   5.146   2.797
10251WAT    EPW41726   1.482   5.190   2.826
10252WAT      O41727   0.371   5.863   2.897
10252WAT     H141728   0.413   5.835   2.826
10252WAT     H241729   0.392   5.948   2.901
10252WAT    EPW41730   0.380   5.872   2.887
10253WAT      O41731   0.923   5.175   2.292
10253WAT     H141732   0.911   5.148   2.211
10253WAT     H241733   0.887   5.255   2.292
10253WAT    EPW41734   0.916   5.183   2.280
10254WAT      O41735   1.783   6.368   3.458
10254WAT     H141736   1.737   6.440   3.474
10254WAT     H241737   1.776   6.357   3.372
10254WAT    EPW41738   1.775   6.377   3.448
10255WAT      O41739   0.723   6.158   2.742
10255WAT     H141740   0.734   6.241   2.767
10255WAT     H241741   0.797   6.119   2.767
10255WAT    EPW41742   0.735   6.164   2.749
10256WAT      O41743   0.515   5.539   3.758
10256WAT     H141744   0.486   5.473   3.807
10256WAT     H241745   0.514   5.507   3.677
10256WAT    EPW41746   0.511   5.524   3.754
10257WAT      O41747   0.537   5.397   2.254
10257WAT     H141748   0.535   5.324   2.302
10257WAT     H241749   0.503   5.372   2.177
10257WAT    EPW41750   0.532   5.382   2.250
10258WAT      O41751   0.607   5.599   2.950
10258WAT     H141752   0.581   5.570   2.872
10258WAT     H241753   0.630   5.526   2.992
10258WAT    EPW41754   0.607   5.584   2.944
10259WAT      O41755   0.572   5.576   3.284
10259WAT     H141756   0.603   5.525   3.220
10259WAT     H241757   0.528   5.637   3.241
10259WAT    EPW41758   0.570   5.577   3.268
10260WAT      O41759   1.640   5.387   3.079
10260WAT     H141760   1.573   5.413   3.129
10260WAT     H241761   1.635   5.440   3.010
10260WAT    EPW41762   1.629   5.399   3.076
10261WAT      O41763   0.985   6.456   3.201
10261WAT     H141764   0.964   6.392   3.146
10261WAT     H241765   0.967   6.528   3.156
10261WAT    EPW41766   0.979   6.457   3.186
10262WAT      O41767   1.209   4.959   3.446
10262WAT     H141768   1.223   4.879   3.415
10262WAT     H241769   1.241   4.955   3.527
10262WAT    EPW41770   1.215   4.947   3.454
10263WAT      O41771   1.432   5.142   2.427
10263WAT     H141772   1.489   5.207   2.440
10263WAT     H241773   1.355   5.182   2.419
10263WAT    EPW41774   1.429   5.157   2.428
10264WAT      O41775   0.395   5.784   3.819
10264WAT     H141776   0.378   5.825   3.743
10264WAT     H241777   0.425   5.706   3.794
10264WAT    EPW41778   0.397   5.779   3.804
10265WAT      O41779   1.545   5.948   3.699
10265WAT     H141780   1.573   6.027   3.675
10265WAT     H241781   1.572   5.896   3.635
10265WAT    EPW41782   1.553   5.952   3.686
10266WAT      O41783   0.968   6.261   3.718
10266WAT     H141784   0.993   6.258   3.802
10266WAT     H241785   0.938   6.181   3.702
10266WAT    EPW41786   0.967   6.249   3.728
10267WAT      O41787   1.033   5.269   3.064
10267WAT     H141788   1.097   5.328   3.066
10267WAT     H241789   1.072   5.195   3.089
10267WAT    EPW41790   1.048   5.266   3.068
10268WAT      O41791   1.285   5.585   2.246
10268WAT     H141792   1.266   5.641   2.182
10268WAT     H241793   1.225   5.601   2.307
10268WAT    EPW41794   1.273   5.596   2.246
10269WAT      O41795   1.816   5.907   2.673
10269WAT     H141796   1.820   5.858   2.745
10269WAT     H241797   1.790   5.851   2.611
10269WAT    EPW41798   1.813   5.892   2.674
10270WAT      O41799   1.391   6.313   3.018
10270WAT     H141800   1.332   6.293   2.957
10270WAT     H241801   1.440   6.373   2.978
10270WAT    EPW41802   1.390   6.319   3.003
10271WAT      O41803   1.377   5.964   3.002
10271WAT     H141804   1.302   5.995   3.034
10271WAT     H241805   1.409   5.917   3.067
10271WAT    EPW41806   1.370   5.962   3.016
10272WAT      O41807   0.756   6.467   2.384
10272WAT     H141808   0.762   6.394   2.433
10272WAT     H241809   0.830   6.466   2.338
10272WAT    EPW41810   0.768   6.456   2.385
10273WAT      O41811   0.722   4.821   2.179
10273WAT     H141812   0.708   4.796   2.261
10273WAT     H241813   0.669   4.889   2.169
10273WAT    EPW41814   0.712   4.827   2.189
10274WAT      O41815   0.999   6.450   2.251
10274WAT     H141816   1.056   6.455   2.317
10274WAT     H241817   1.005   6.527   2.211
10274WAT    EPW41818   1.008   6.462   2.255
10275WAT      O41819   1.623   5.798   3.479
10275WAT     H141820   1.587   5.829   3.406
10275WAT     H241821   1.707   5.823   3.473
10275WAT    EPW41822   1.630   5.806   3.468
10276WAT      O41823   1.324   6.361   3.906
10276WAT     H141824   1.348   6.382   3.987
10276WAT     H241825   1.355   6.426   3.857
10276WAT    EPW41826   1.333   6.374   3.911
10277WAT      O41827   1.828   4.834   3.769
10277WAT     H141828   1.770   4.808   3.709
10277WAT     H241829   1.818   4.776   3.834
10277WAT    EPW41830   1.818   4.822   3.770
10278WAT      O41831   0.487   5.665   2.314
10278WAT     H141832   0.501   5.581   2.297
10278WAT     H241833   0.468   5.666   2.399
10278WAT    EPW41834   0.486   5.653   2.324
10279WAT      O41835   1.265   5.788   3.363
10279WAT     H141836   1.215   5.829   3.423
10279WAT     H241837   1.297   5.720   3.407
10279WAT    EPW41838   1.262   5.784   3.379
10280WAT      O41839   1.127   5.621   2.476
10280WAT     H141840   1.141   5.687   2.532
10280WAT     H241841   1.115   5.552   2.527
10280WAT    EPW41842   1.127   5.621   2.492
10281WAT      O41843   1.636   6.097   2.999
10281WAT     H141844   1.651   6.110   2.914
10281WAT     H241845   1.553   6.068   3.002
10281WAT    EPW41846   1.626   6.094   2.987
10282WAT      O41847   0.584   5.055   2.114
10282WAT     H141848   0.531   5.057   2.045
10282WAT     H241849   0.656   5.094   2.086
10282WAT    EPW41850   0.587   5.061   2.100
10283WAT      O41851   1.043   5.833   2.892
10283WAT     H141852   0.959   5.817   2.908
10283WAT     H241853   1.084   5.803   2.963
10283WAT    EPW41854   1.037   5.826   2.905
10284WAT      O41855   0.723   6.445   2.018
10284WAT     H141856   0.739   6.379   2.072
10284WAT     H241857   0.719   6.514   2.071
10284WAT    EPW41858   0.725   6.446   2.034
10285WAT      O41859   0.430   5.786   3.162
10285WAT     H141860   0.486   5.853   3.169
10285WAT     H241861   0.405   5.789   3.079
10285WAT    EPW41862   0.434   5.797   3.151
10286WAT      O41863   0.740   5.268   2.836
10286WAT     H141864   0.823   5.245   2.821
10286WAT     H241865   0.694   5.197   2.814
10286WAT    EPW41866   0.745   5.254   2.830
10287WAT      O41867   1.997   6.491   2.219
10287WAT     H141868   2.064   6.442   2.192
10287WAT     H241869   1.946   6.436   2.261
10287WAT    EPW41870   1.999   6.476   2.221
10288WAT      O41871   0.232   5.442   2.556
10288WAT     H141872   0.257   5.386   2.618
10288WAT     H241873   0.223   5.391   2.486
10288WAT    EPW41874   0.235   5.426   2.555
10289WAT      O41875   1.741   5.754   3.170
10289WAT     H141876   1.747   5.684   3.221
10289WAT     H241877   1.660   5.783   3.184
10289WAT    EPW41878   1.730   5.748   3.179
10290WAT      O41879   0.731   5.648   2.012
10290WAT     H141880   0.677   5.704   2.052
10290WAT     H241881   0.681   5.609   1.953
10290WAT    EPW41882   0.716   5.650   2.010
10291WAT      O41883   0.365   5.906   3.567
10291WAT     H141884   0.323   5.856   3.508
10291WAT     H241885   0.353   5.987   3.536
10291WAT    EPW41886   0.357   5.910   3.553
10292WAT      O41887   1.840   5.746   2.906
10292WAT     H141888   1.810   5.756   2.987
10292WAT     H241889   1.926   5.740   2.916
10292WAT    EPW41890   1.848   5.746   2.919
10293WAT      O41891   0.813   5.429   2.257
10293WAT     H141892   0.830   5.507   2.293
10293WAT     H241893   0.726   5.427   2.253
10293WAT    EPW41894   0.803   5.441   2.262
10294WAT      O41895   1.603   5.181   3.696
10294WAT     H141896   1.537   5.174   3.753
10294WAT     H241897   1.585   5.119   3.637
10294WAT    EPW41898   1.590   5.171   3.696
10295WAT      O41899   0.273   5.126   2.956
10295WAT     H141900   0.318   5.053   2.965
10295WAT     H241901   0.301   5.176   3.022
10295WAT    EPW41902   0.284   5.123   2.967
10296WAT      O41903   1.980   6.257   2.982
10296WAT     H141904   2.021   6.312   2.929
10296WAT     H241905   2.034   6.249   3.050
10296WAT    EPW41906   1.994   6.264   2.984
10297WAT      O41907   1.466   5.512   3.814
10297WAT     H141908   1.506   5.517   3.891
10297WAT     H241909   1.392   5.556   3.826
10297WAT    EPW41910   1.461   5.519   3.827
10298WAT      O41911   1.697   5.547   3.648
10298WAT     H141912   1.720   5.627   3.672
10298WAT     H241913   1.626   5.530   3.696
10298WAT    EPW41914   1.690   5.556   3.659
10299WAT      O41915   1.670   6.162   2.200
10299WAT     H141916   1.707   6.084   2.209
10299WAT     H241917   1.592   6.153   2.240
10299WAT    EPW41918   1.664   6.149   2.207
10300WAT      O41919   1.725   5.303   2.717
10300WAT     H141920   1.658   5.257   2.748
10300WAT     H241921   1.719   5.380   2.759
10300WAT    EPW41922   1.715   5.308   2.728
10301WAT      O41923   2.015   5.624   3.839
10301WAT     H141924   2.015   5.569   3.772
10301WAT     H241925   2.094   5.662   3.834
10301WAT    EPW41926   2.027   5.622   3.828
10302WAT      O41927   1.881   5.902   3.472
10302WAT     H141928   1.948   5.855   3.441
10302WAT     H241929   1.867   5.960   3.408
10302WAT    EPW41930   1.889   5.904   3.458
10303WAT      O41931   1.346   5.955   2.133
10303WAT     H141932   1.422   5.914   2.125
10303WAT     H241933   1.317   5.959   2.051
10303WAT    EPW41934   1.353   5.949   2.120
10304WAT      O41935   0.870   6.079   3.248
10304WAT     H141936   0.866   6.136   3.314
10304WAT     H241937   0.868   6.130   3.177
10304WAT    EPW41938   0.869   6.095   3.248
10305WAT      O41939   0.643   5.929   3.553
10305WAT     H141940   0.558   5.910   3.565
10305WAT     H241941   0.643   6.015   3.540
10305WAT    EPW41942   0.630   5.939   3.553
10306WAT      O41943   1.581   5.048   3.434
10306WAT     H141944   1.642   5.108   3.419
10306WAT     H241945   1.507   5.086   3.409
10306WAT    EPW41946   1.579   5.062   3.428
10307WAT      O41947   1.123   5.713   3.136
10307WAT     H141948   1.177   5.738   3.200
10307WAT     H241949   1.044   5.726   3.170
10307WAT    EPW41950   1.119   5.719   3.151
10308WAT      O41951   0.761   5.292   3.525
10308WAT     H141952   0.777   5.215   3.563
10308WAT     H241953   0.792   5.283   3.444
10308WAT    EPW41954   0.768   5.279   3.519
10309WAT      O41955   1.035   6.470   2.717
10309WAT     H141956   1.033   6.556   2.733
10309WAT     H241957   1.048   6.467   2.630
10309WAT    EPW41958   1.037   6.482   2.706
10310WAT      O41959   1.606   4.791   3.325
10310WAT     H141960   1.594   4.875   3.346
10310WAT     H241961   1.686   4.790   3.291
10310WAT    EPW41962   1.616   4.803   3.323
10311WAT      O41963   0.940   4.894   3.454
10311WAT     H141964   1.021   4.924   3.441
10311WAT     H241965   0.946   4.808   3.441
10311WAT    EPW41966   0.953   4.886   3.450
10312WAT      O41967   0.875   6.259   3.039
10312WAT     H141968   0.827   6.312   2.990
10312WAT     H241969   0.916   6.208   2.981
10312WAT    EPW41970   0.874   6.259   3.023
10313WAT      O41971   1.279   5.918   3.765
10313WAT     H141972   1.360   5.931   3.736
10313WAT     H241973   1.229   5.935   3.695
10313WAT    EPW41974   1.284   5.922   3.750
10314WAT      O41975   1.623   6.211   3.632
10314WAT     H141976   1.660   6.238   3.706
10314WAT     H241977   1.670   6.249   3.570
10314WAT    EPW41978   1.635   6.220   3.634
10315WAT      O41979   1.869   5.465   2.109
10315WAT     H141980   1.916   5.523   2.063
10315WAT     H241981   1.789   5.498   2.107
10315WAT    EPW41982   1.864   5.479   2.102
10316WAT      O41983   0.978   5.745   2.092
10316WAT     H141984   0.906   5.711   2.056
10316WAT     H241985   0.961   5.831   2.095
10316WAT    EPW41986   0.965   5.753   2.087
10317WAT      O41987   0.652   5.361   3.084
10317WAT     H141988   0.679   5.326   3.009
10317WAT     H241989   0.708   5.330   3.143
10317WAT    EPW41990   0.664   5.351   3.082
10318WAT      O41991   1.347   5.354   3.602
10318WAT     H141992   1.274   5.399   3.618
10318WAT     H241993   1.394   5.363   3.674
10318WAT    EPW41994   1.343   5.362   3.615
10319WAT      O41995   1.413   5.421   3.234
10319WAT     H141996   1.421   5.476   3.301
10319WAT     H241997   1.394   5.345   3.271
10319WAT    EPW41998   1.412   5.418   3.249
10320WAT      O41999   1.133   6.478   3.639
10320WAT     H142000   1.148   6.473   3.553
10320WAT     H242001   1.097   6.401   3.658
10320WAT    EPW42002   1.130   6.466   3.629
10321WAT      O42003   1.613   5.356   2.470
10321WAT     H142004   1.640   5.335   2.550
10321WAT     H242005   1.686   5.385   2.431
10321WAT    EPW42006   1.628   5.358   2.476
10322WAT      O42007   0.914   4.834   3.030
10322WAT     H142008   0.829   4.829   3.046
10322WAT     H242009   0.918   4.842   2.943
10322WAT    EPW42010   0.902   4.835   3.020
10323WAT      O42011   1.753   4.927   2.640
10323WAT     H142012   1.675   4.890   2.654
10323WAT     H242013   1.753   4.944   2.555
10323WAT    EPW42014   1.741   4.924   2.630
10324WAT      O42015   1.751   5.751   2.447
10324WAT     H142016   1.793   5.675   2.435
10324WAT     H242017   1.667   5.729   2.439
10324WAT    EPW42018   1.745   5.736   2.444
10325WAT      O42019   1.116   5.954   3.540
10325WAT     H142020   1.040   5.956   3.583
10325WAT     H242021   1.124   6.035   3.508
10325WAT    EPW42022   1.106   5.966   3.542
10326WAT      O42023   0.655   6.602   3.108
10326WAT     H142024   0.661   6.596   3.194
10326WAT     H242025   0.627   6.523   3.084
10326WAT    EPW42026   0.652   6.589   3.117
10327WAT      O42027   0.534   5.143   2.373
10327WAT     H142028   0.539   5.111   2.292
10327WAT     H242029   0.449   5.137   2.392
10327WAT    EPW42030   0.522   5.138   2.364
10328WAT      O42031   1.412   5.930   2.728
10328WAT     H142032   1.398   5.939   2.813
10328WAT     H242033   1.439   5.847   2.720
10328WAT    EPW42034   1.414   5.919   2.739
10329WAT      O42035   1.159   5.846   2.639
10329WAT     H142036   1.120   5.836   2.717
10329WAT     H242037   1.238   5.877   2.660
10329WAT    EPW42038   1.165   5.849   2.654
10330WAT      O42039   1.155   6.222   3.450
10330WAT     H142040   1.213   6.222   3.516
10330WAT     H242041   1.183   6.287   3.399
10330WAT    EPW42042   1.168   6.232   3.453
10331WAT      O42043   1.966   5.451   3.629
10331WAT     H142044   1.880   5.466   3.628
10331WAT     H242045   1.991   5.471   3.548
10331WAT    EPW42046   1.957   5.456   3.617
10332WAT      O42047   1.426   5.583   3.459
10332WAT     H142048   1.409   5.518   3.516
10332WAT     H242049   1.498   5.620   3.491
10332WAT    EPW42050   1.434   5.579   3.472
10333WAT      O42051   0.377   6.553   3.670
10333WAT     H142052   0.327   6.581   3.736
10333WAT     H242053   0.434   6.618   3.660
10333WAT    EPW42054   0.378   6.567   3.679
10334WAT      O42055   1.217   5.677   3.885
10334WAT     H142056   1.241   5.752   3.847
10334WAT     H242057   1.137   5.694   3.916
10334WAT    EPW42058   1.209   5.690   3.884
10335WAT      O42059   1.534   6.547   2.957
10335WAT     H142060   1.479   6.608   2.984
10335WAT     H242061   1.599   6.551   3.014
10335WAT    EPW42062   1.536   6.556   2.969
10336WAT      O42063   1.161   6.064   3.159
10336WAT     H142064   1.083   6.057   3.198
10336WAT     H242065   1.214   6.092   3.222
10336WAT    EPW42066   1.157   6.067   3.174
10337WAT      O42067   1.749   6.288   3.867
10337WAT     H142068   1.832   6.260   3.867
10337WAT     H242069   1.714   6.246   3.936
10337WAT    EPW42070   1.756   6.277   3.877
10338WAT      O42071   0.514   5.417   3.508
10338WAT     H142072   0.522   5.470   3.440
10338WAT     H242073   0.592   5.377   3.513
10338WAT    EPW42074   0.527   5.419   3.499
10339WAT      O42075   0.366   5.207   3.404
10339WAT     H142076   0.357   5.232   3.321
10339WAT     H242077   0.406   5.275   3.442
10339WAT    EPW42078   0.370   5.221   3.398
10340WAT      O42079   1.840   5.495   2.385
10340WAT     H142080   1.857   5.488   2.300
10340WAT     H242081   1.914   5.466   2.423
10340WAT    EPW42082   1.854   5.490   2.378
10341WAT      O42083   0.595   4.872   3.638
10341WAT     H142084   0.650   4.805   3.631
10341WAT     H242085   0.575   4.891   3.556
10341WAT    EPW42086   0.600   4.865   3.625
10342WAT      O42087   1.242   6.194   2.539
10342WAT     H142088   1.221   6.275   2.513
10342WAT     H242089   1.169   6.149   2.525
10342WAT    EPW42090   1.228   6.200   2.533
10343WAT      O42091   1.749   5.534   3.357
10343WAT     H142092   1.744   5.447   3.364
10343WAT     H242093   1.727   5.563   3.436
10343WAT    EPW42094   1.745   5.525   3.370
10344WAT      O42095   0.240   5.763   3.364
10344WAT     H142096   0.296   5.770   3.298
10344WAT     H242097   0.162   5.775   3.326
10344WAT    EPW42098   0.237   5.766   3.349
10345WAT      O42099   0.415   5.325   2.009
10345WAT     H142100   0.328   5.329   2.018
10345WAT     H242101   0.428   5.251   1.965
10345WAT    EPW42102   0.404   5.315   2.004
10346WAT      O42103   1.288   4.955   3.714
10346WAT     H142104   1.314   5.022   3.764
10346WAT     H242105   1.208   4.938   3.744
10346WAT    EPW42106   1.280   4.963   3.726
10347WAT      O42107   1.266   5.034   2.794
10347WAT     H142108   1.187   5.073   2.796
10347WAT     H242109   1.258   4.974   2.732
10347WAT    EPW42110   1.253   5.031   2.785
10348WAT      O42111   0.739   6.217   2.194
10348WAT     H142112   0.769   6.221   2.275
10348WAT     H242113   0.658   6.184   2.203
10348WAT    EPW42114   0.731   6.212   2.207
10349WAT      O42115   1.591   5.114   3.061
10349WAT     H142116   1.670   5.080   3.077
10349WAT     H242117   1.601   5.199   3.078
10349WAT    EPW42118   1.604   5.122   3.066
10350WAT      O42119   0.754   5.688   3.469
10350WAT     H142120   0.715   5.761   3.498
10350WAT     H242121   0.694   5.652   3.417
10350WAT    EPW42122   0.739   5.693   3.466
10351WAT      O42123   1.664   5.542   2.846
10351WAT     H142124   1.724   5.604   2.862
10351WAT     H242125   1.605   5.583   2.798
10351WAT    EPW42126   1.664   5.557   2.842
10352WAT      O42127   1.678   6.371   2.593
10352WAT     H142128   1.663   6.294   2.630
10352WAT     H242129   1.715   6.351   2.516
10352WAT    EPW42130   1.682   6.357   2.587
10353WAT      O42131   0.492   6.097   2.234
10353WAT     H142132   0.470   6.089   2.318
10353WAT     H242133   0.506   6.015   2.208
10353WAT    EPW42134   0.491   6.084   2.242
10354WAT      O42135   0.809   5.980   2.057
10354WAT     H142136   0.735   5.939   2.077
10354WAT     H242137   0.803   6.056   2.100
10354WAT    EPW42138   0.797   5.985   2.067
10355WAT      O42139   0.750   4.999   3.273
10355WAT     H142140   0.672   4.979   3.306
10355WAT     H242141   0.805   4.954   3.322
10355WAT    EPW42142   0.746   4.990   3.285
10356WAT      O42143   1.896   4.860   3.332
10356WAT     H142144   1.897   4.898   3.411
10356WAT     H242145   1.974   4.822   3.327
10356WAT    EPW42146   1.907   4.860   3.343
10357WAT      O42147   1.118   5.014   3.121
10357WAT     H142148   1.060   4.954   3.098
10357WAT     H242149   1.195   4.974   3.107
10357WAT    EPW42150   1.121   4.999   3.116
10358WAT      O42151   1.425   6.155   3.252
10358WAT     H142152   1.453   6.224   3.297
10358WAT     H242153   1.417   6.186   3.171
10358WAT    EPW42154   1.428   6.170   3.246
10359WAT      O42155   1.398   6.550   3.709
10359WAT     H142156   1.326   6.513   3.676
10359WAT     H242157   1.374   6.632   3.723
10359WAT    EPW42158   1.384   6.556   3.706
10360WAT      O42159   0.869   5.510   3.658
10360WAT     H142160   0.839   5.438   3.618
10360WAT     H242161   0.837   5.575   3.610
10360WAT    EPW42162   0.860   5.509   3.645
10361WAT      O42163   0.995   4.861   2.146
10361WAT     H142164   1.007   4.868   2.060
10361WAT     H242165   0.908   4.860   2.155
10361WAT    EPW42166   0.984   4.862   2.135
10362WAT      O42167   1.845   6.016   3.211
10362WAT     H142168   1.828   5.932   3.192
10362WAT     H242169   1.793   6.060   3.157
10362WAT    EPW42170   1.835   6.010   3.200
10363WAT      O42171   0.802   6.491   3.647
10363WAT     H142172   0.783   6.492   3.732
10363WAT     H242173   0.855   6.422   3.638
10363WAT    EPW42174   0.807   6.481   3.659
10364WAT      O42175   1.748   6.316   3.140
10364WAT     H142176   1.820   6.312   3.091
10364WAT     H242177   1.693   6.260   3.100
10364WAT    EPW42178   1.751   6.307   3.127
10365WAT      O42179   0.500   4.966   3.399
10365WAT     H142180   0.442   4.904   3.379
10365WAT     H242181   0.454   5.040   3.396
10365WAT    EPW42182   0.485   4.968   3.396
10366WAT      O42183   1.376   4.929   3.032
10366WAT     H142184   1.438   4.986   3.054
10366WAT     H242185   1.345   4.960   2.956
10366WAT    EPW42186   1.381   4.942   3.024
10367WAT      O42187   0.528   6.336   3.757
10367WAT     H142188   0.590   6.372   3.806
10367WAT     H242189   0.482   6.405   3.728
10367WAT    EPW42190   0.530   6.352   3.760
10368WAT      O42191   1.334   5.436   2.786
10368WAT     H142192   1.387   5.368   2.799
10368WAT     H242193   1.300   5.450   2.865
10368WAT    EPW42194   1.337   5.428   2.800
10369WAT      O42195   0.356   5.234   2.717
10369WAT     H142196   0.313   5.211   2.789
10369WAT     H242197   0.427   5.182   2.718
10369WAT    EPW42198   0.360   5.223   2.728
10370WAT      O42199   0.375   6.174   3.481
10370WAT     H142200   0.337   6.224   3.542
10370WAT     H242201   0.460   6.183   3.496
10370WAT    EPW42202   0.382   6.183   3.492
10371WAT      O42203   1.508   5.604   2.409
10371WAT     H142204   1.528   5.522   2.429
10371WAT     H242205   1.433   5.597   2.365
10371WAT    EPW42206   1.500   5.591   2.406
10372WAT      O42207   0.481   6.484   2.320
10372WAT     H142208   0.458   6.440   2.248
10372WAT     H242209   0.566   6.467   2.328
10372WAT    EPW42210   0.490   6.475   2.311
10373WAT      O42211   0.890   5.680   2.348
10373WAT     H142212   0.918   5.707   2.270
10373WAT     H242213   0.963   5.661   2.391
10373WAT    EPW42214   0.905   5.681   2.343
10374WAT      O42215   1.781   6.550   2.048
10374WAT     H142216   1.853   6.540   2.096
10374WAT     H242217   1.767   6.470   2.016
10374WAT    EPW42218   1.790   6.537   2.050
10375WAT      O42219   1.816   5.786   3.732
10375WAT     H142220   1.886   5.749   3.768
10375WAT     H242221   1.849   5.833   3.666
10375WAT    EPW42222   1.831   5.788   3.727
10376WAT      O42223   1.423   6.150   2.323
10376WAT     H142224   1.376   6.145   2.397
10376WAT     H242225   1.385   6.091   2.271
10376WAT    EPW42226   1.410   6.141   2.327
10377WAT      O42227   1.836   5.224   3.845
10377WAT     H142228   1.827   5.306   3.875
10377WAT     H242229   1.762   5.211   3.800
10377WAT    EPW42230   1.824   5.234   3.843
10378WAT      O42231   1.908   5.343   3.138
10378WAT     H142232   1.826   5.365   3.123
10378WAT     H242233   1.905   5.256   3.146
10378WAT    EPW42234   1.896   5.333   3.137
10379WAT      O42235   0.815   5.042   3.649
10379WAT     H142236   0.857   5.009   3.580
10379WAT     H242237   0.741   4.996   3.652
10379WAT    EPW42238   0.810   5.031   3.639
10380WAT      O42239   1.591   5.840   3.961
10380WAT     H142240   1.666   5.868   3.996
10380WAT     H242241   1.598   5.864   3.877
10380WAT    EPW42242   1.603   5.848   3.953
10381WAT      O42243   0.506   6.367   3.029
10381WAT     H142244   0.506   6.287   2.993
10381WAT     H242245   0.459   6.414   2.972
10381WAT    EPW42246   0.499   6.362   3.015
10382WAT      O42247   1.088   6.008   2.225
10382WAT     H142248   1.167   5.979   2.202
10382WAT     H242249   1.077   6.079   2.176
10382WAT    EPW42250   1.098   6.014   2.215
10383WAT      O42251   0.318   6.607   3.396
10383WAT     H142252   0.319   6.581   3.479
10383WAT     H242253   0.350   6.539   3.352
10383WAT    EPW42254   0.323   6.593   3.402
10384WAT      O42255   1.299   4.841   0.688
10384WAT     H142256   1.322   4.871   0.610
10384WAT     H242257   1.373   4.811   0.722
10384WAT    EPW42258   1.313   4.841   0.681
10385WAT      O42259   1.224   5.467   1.151
10385WAT     H142260   1.189   5.543   1.176
10385WAT     H242261   1.283   5.451   1.214
10385WAT    EPW42262   1.228   5.476   1.164
10386WAT      O42263   1.820   6.306   0.463
10386WAT     H142264   1.884   6.250   0.482
10386WAT     H242265   1.773   6.264   0.403
10386WAT    EPW42266   1.823   6.292   0.457
10387WAT      O42267   0.547   5.850   0.232
10387WAT     H142268   0.511   5.828   0.155
10387WAT     H242269   0.528   5.782   0.284
10387WAT    EPW42270   0.539   5.837   0.228
10388WAT      O42271   1.468   5.667   0.807
10388WAT     H142272   1.482   5.653   0.722
10388WAT     H242273   1.416   5.601   0.830
10388WAT    EPW42274   1.462   5.655   0.798
10389WAT      O42275   0.408   6.099   0.602
10389WAT     H142276   0.451   6.041   0.651
10389WAT     H242277   0.324   6.077   0.612
10389WAT    EPW42278   0.402   6.087   0.611
10390WAT      O42279   0.943   4.946   0.611
10390WAT     H142280   0.941   5.027   0.580
10390WAT     H242281   0.987   4.901   0.550
10390WAT    EPW42282   0.950   4.951   0.598
10391WAT      O42283   0.425   6.343   0.211
10391WAT     H142284   0.450   6.332   0.129
10391WAT     H242285   0.443   6.266   0.249
10391WAT    EPW42286   0.431   6.330   0.205
10392WAT      O42287   0.881   5.994   1.789
10392WAT     H142288   0.865   5.984   1.874
10392WAT     H242289   0.808   5.964   1.751
10392WAT    EPW42290   0.868   5.988   1.796
10393WAT      O42291   0.421   5.636   0.657
10393WAT     H142292   0.345   5.593   0.655
10393WAT     H242293   0.473   5.583   0.703
10393WAT    EPW42294   0.417   5.622   0.664
10394WAT      O42295   0.833   5.261   1.359
10394WAT     H142296   0.902   5.267   1.305
10394WAT     H242297   0.811   5.176   1.355
10394WAT    EPW42298   0.840   5.249   1.351
10395WAT      O42299   0.885   6.300   1.527
10395WAT     H142300   0.901   6.355   1.462
10395WAT     H242301   0.965   6.276   1.555
10395WAT    EPW42302   0.899   6.304   1.522
10396WAT      O42303   0.546   5.449   0.822
10396WAT     H142304   0.619   5.404   0.839
10396WAT     H242305   0.483   5.388   0.828
10396WAT    EPW42306   0.547   5.433   0.825
10397WAT      O42307   0.982   6.102   0.950
10397WAT     H142308   1.004   6.020   0.972
10397WAT     H242309   1.059   6.143   0.944
10397WAT    EPW42310   0.997   6.096   0.953
10398WAT      O42311   1.006   6.052   0.599
10398WAT     H142312   1.042   5.991   0.649
10398WAT     H242313   1.045   6.040   0.521
10398WAT    EPW42314   1.017   6.041   0.595
10399WAT      O42315   1.150   5.514   1.752
10399WAT     H142316   1.063   5.511   1.746
10399WAT     H242317   1.165   5.564   1.821
10399WAT    EPW42318   1.140   5.521   1.761
10400WAT      O42319   0.662   4.952   0.644
10400WAT     H142320   0.626   5.001   0.581
10400WAT     H242321   0.746   4.947   0.621
10400WAT    EPW42322   0.669   4.959   0.631
10401WAT      O42323   1.629   4.756   1.650
10401WAT     H142324   1.605   4.824   1.600
10401WAT     H242325   1.555   4.733   1.690
10401WAT    EPW42326   1.614   4.763   1.648
10402WAT      O42327   0.969   4.911   0.884
10402WAT     H142328   0.979   4.995   0.907
10402WAT     H242329   0.955   4.915   0.798
10402WAT    EPW42330   0.968   4.924   0.875
10403WAT      O42331   0.815   6.259   0.604
10403WAT     H142332   0.767   6.233   0.671
10403WAT     H242333   0.883   6.204   0.605
10403WAT    EPW42334   0.818   6.247   0.614
10404WAT      O42335   1.387   6.394   0.394
10404WAT     H142336   1.452   6.451   0.380
10404WAT     H242337   1.429   6.322   0.420
10404WAT    EPW42338   1.403   6.392   0.396
10405WAT      O42339   1.188   6.462   0.573
10405WAT     H142340   1.219   6.534   0.611
10405WAT     H242341   1.248   6.444   0.512
10405WAT    EPW42342   1.202   6.470   0.569
10406WAT      O42343   0.453   4.906   1.056
10406WAT     H142344   0.417   4.837   1.017
10406WAT     H242345   0.511   4.871   1.111
10406WAT    EPW42346   0.456   4.891   1.058
10407WAT      O42347   0.827   5.153   2.014
10407WAT     H142348   0.840   5.120   1.934
10407WAT     H242349   0.864   5.232   2.009
10407WAT    EPW42350   0.834   5.160   2.002
10408WAT      O42351   0.404   6.379   0.659
10408WAT     H142352   0.412   6.294   0.643
10408WAT     H242353   0.412   6.415   0.580
10408WAT    EPW42354   0.406   6.372   0.645
10409WAT      O42355   1.939   5.122   0.805
10409WAT     H142356   1.889   5.194   0.813
10409WAT     H242357   1.881   5.058   0.792
10409WAT    EPW42358   1.923   5.124   0.804
10410WAT      O42359   1.454   6.439   1.367
10410WAT     H142360   1.524   6.490   1.357
10410WAT     H242361   1.440   6.406   1.288
10410WAT    EPW42362   1.462   6.442   1.354
10411WAT      O42363   0.438   5.077   1.864
10411WAT     H142364   0.383   5.097   1.799
10411WAT     H242365   0.492   5.019   1.828
10411WAT    EPW42366   0.438   5.071   1.849
10412WAT      O42367   0.505   6.131   1.032
10412WAT     H142368   0.564   6.130   0.967
10412WAT     H242369   0.547   6.090   1.098
10412WAT    EPW42370   0.520   6.125   1.032
10413WAT      O42371   0.791   6.420   0.938
10413WAT     H142372   0.868   6.437   0.901
10413WAT     H242373   0.735   6.465   0.889
10413WAT    EPW42374   0.794   6.429   0.925
10414WAT      O42375   1.028   4.879   1.875
10414WAT     H142376   1.042   4.805   1.830
10414WAT     H242377   0.963   4.917   1.831
10414WAT    EPW42378   1.021   4.874   1.862
10415WAT      O42379   1.116   5.398   0.730
10415WAT     H142380   1.145   5.356   0.660
10415WAT     H242381   1.189   5.412   0.777
10415WAT    EPW42382   1.131   5.394   0.727
10416WAT      O42383   1.141   5.424   0.275
10416WAT     H142384   1.178   5.501   0.293
10416WAT     H242385   1.056   5.439   0.283
10416WAT    EPW42386   1.134   5.437   0.279
10417WAT      O42387   1.586   6.587   0.342
10417WAT     H142388   1.630   6.548   0.277
10417WAT     H242389   1.644   6.643   0.375
10417WAT    EPW42390   1.601   6.590   0.337
10418WAT      O42391   0.664   6.538   1.498
10418WAT     H142392   0.703   6.499   1.565
10418WAT     H242393   0.598   6.483   1.478
10418WAT    EPW42394   0.660   6.524   1.505
10419WAT      O42395   1.857   5.058   1.237
10419WAT     H142396   1.920   5.047   1.177
10419WAT     H242397   1.877   4.998   1.298
10419WAT    EPW42398   1.869   5.047   1.237
10420WAT      O42399   1.344   6.229   1.753
10420WAT     H142400   1.336   6.250   1.837
10420WAT     H242401   1.430   6.225   1.740
10420WAT    EPW42402   1.355   6.232   1.764
10421WAT      O42403   1.182   6.285   0.230
10421WAT     H142404   1.117   6.341   0.248
10421WAT     H242405   1.252   6.326   0.261
10421WAT    EPW42406   1.182   6.299   0.237
10422WAT      O42407   1.370   4.909   0.428
10422WAT     H142408   1.436   4.863   0.394
10422WAT     H242409   1.406   4.988   0.444
10422WAT    EPW42410   1.385   4.914   0.425
10423WAT      O42411   0.257   5.146   0.581
10423WAT     H142412   0.188   5.094   0.592
10423WAT     H242413   0.280   5.166   0.662
10423WAT    EPW42414   0.250   5.142   0.594
10424WAT      O42415   0.448   6.383   1.407
10424WAT     H142416   0.416   6.307   1.433
10424WAT     H242417   0.457   6.374   1.321
10424WAT    EPW42418   0.444   6.371   1.398
10425WAT      O42419   1.186   5.266   0.496
10425WAT     H142420   1.115   5.217   0.486
10425WAT     H242421   1.185   5.318   0.425
10425WAT    EPW42422   1.176   5.267   0.484
10426WAT      O42423   1.208   6.493   1.474
10426WAT     H142424   1.286   6.482   1.436
10426WAT     H242425   1.152   6.488   1.408
10426WAT    EPW42426   1.212   6.490   1.459
10427WAT      O42427   1.099   4.906   0.371
10427WAT     H142428   1.075   4.985   0.343
10427WAT     H242429   1.185   4.912   0.380
10427WAT    EPW42430   1.108   4.918   0.368
10428WAT      O42431   1.889   6.543   0.729
10428WAT     H142432   1.847   6.619   0.742
10428WAT     H242433   1.824   6.485   0.719
10428WAT    EPW42434   1.873   6.546   0.729
10429WAT      O42435   1.017   5.194   0.899
10429WAT     H142436   1.042   5.261   0.849
10429WAT     H242437   1.026   5.225   0.980
10429WAT    EPW42438   1.022   5.208   0.904
10430WAT      O42439   1.571   6.105   0.714
10430WAT     H142440   1.638   6.056   0.740
10430WAT     H242441   1.502   6.067   0.751
10430WAT    EPW42442   1.571   6.092   0.723
10431WAT      O42443   0.642   6.204   1.639
10431WAT     H142444   0.715   6.242   1.610
10431WAT     H242445   0.625   6.246   1.713
10431WAT    EPW42446   0.650   6.216   1.646
10432WAT      O42447   0.608   4.699   0.739
10432WAT     H142448   0.626   4.778   0.708
10432WAT     H242449   0.566   4.660   0.673
10432WAT    EPW42450   0.604   4.705   0.725
10433WAT      O42451   0.772   5.807   1.099
10433WAT     H142452   0.799   5.782   1.178
10433WAT     H242453   0.715   5.745   1.077
10433WAT    EPW42454   0.768   5.794   1.107
10434WAT      O42455   1.360   5.166   1.481
10434WAT     H142456   1.356   5.207   1.558
10434WAT     H242457   1.296   5.106   1.487
10434WAT    EPW42458   1.350   5.163   1.493
10435WAT      O42459   0.880   5.790   1.353
10435WAT     H142460   0.883   5.876   1.369
10435WAT     H242461   0.849   5.756   1.427
10435WAT    EPW42462   0.876   5.798   1.366
10436WAT      O42463   1.498   5.879   1.351
10436WAT     H142464   1.423   5.848   1.386
10436WAT     H242465   1.490   5.965   1.361
10436WAT    EPW42466   1.486   5.887   1.358
10437WAT      O42467   1.539   4.751   0.790
10437WAT     H142468   1.542   4.734   0.876
10437WAT     H242469   1.570   4.678   0.754
10437WAT    EPW42470   1.544   4.737   0.798
10438WAT      O42471   1.738   5.218   1.574
10438WAT     H142472   1.821   5.201   1.592
10438WAT     H242473   1.698   5.212   1.651
10438WAT    EPW42474   1.744   5.214   1.588
10439WAT      O42475   0.572   5.077   0.872
10439WAT     H142476   0.601   5.029   0.805
10439WAT     H242477   0.542   5.018   0.928
10439WAT    EPW42478   0.572   5.061   0.870
10440WAT      O42479   1.790   5.935   0.336
10440WAT     H142480   1.784   5.889   0.409
10440WAT     H242481   1.876   5.933   0.317
10440WAT    EPW42482   1.802   5.928   0.344
10441WAT      O42483   0.512   5.884   0.745
10441WAT     H142484   0.597   5.883   0.726
10441WAT     H242485   0.482   5.809   0.712
10441WAT    EPW42486   0.520   5.872   0.738
10442WAT      O42487   0.383   6.536   0.934
10442WAT     H142488   0.326   6.496   0.883
10442WAT     H242489   0.455   6.540   0.884
10442WAT    EPW42490   0.386   6.531   0.919
10443WAT      O42491   0.382   5.313   1.241
10443WAT     H142492   0.467   5.320   1.221
10443WAT     H242493   0.352   5.394   1.229
10443WAT    EPW42494   0.390   5.326   1.236
10444WAT      O42495   2.033   6.341   1.707
10444WAT     H142496   1.958   6.344   1.662
10444WAT     H242497   2.013   6.296   1.779
10444WAT    EPW42498   2.019   6.335   1.711
10445WAT      O42499   1.624   5.546   0.270
10445WAT     H142500   1.546   5.525   0.237
10445WAT     H242501   1.605   5.586   0.345
10445WAT    EPW42502   1.610   5.549   0.276
10446WAT      O42503   0.774   5.876   0.649
10446WAT     H142504   0.831   5.936   0.623
10446WAT     H242505   0.791   5.807   0.598
10446WAT    EPW42506   0.785   5.874   0.638
10447WAT      O42507   1.918   5.091   0.240
10447WAT     H142508   1.940   5.013   0.208
10447WAT     H242509   1.880   5.131   0.172
10447WAT    EPW42510   1.915   5.085   0.225
10448WAT      O42511   0.950   5.402   2.013
10448WAT     H142512   0.902   5.432   2.081
10448WAT     H242513   0.920   5.448   1.945
10448WAT    EPW42514   0.938   5.413   2.013
10449WAT      O42515   2.038   5.478   1.475
10449WAT     H142516   2.081   5.405   1.454
10449WAT     H242517   1.962   5.469   1.433
10449WAT    EPW42518   2.033   5.466   1.465
10450WAT      O42519   1.774   4.938   0.448
10450WAT     H142520   1.851   4.901   0.467
10450WAT     H242521   1.796   5.005   0.397
10450WAT    EPW42522   1.789   4.942   0.443
10451WAT      O42523   1.209   6.263   0.930
10451WAT     H142524   1.162   6.334   0.913
10451WAT     H242525   1.234   6.236   0.851
10451WAT    EPW42526   1.206   6.269   0.916
10452WAT      O42527   0.626   5.992   1.239
10452WAT     H142528   0.688   6.023   1.291
10452WAT     H242529   0.669   5.937   1.186
10452WAT    EPW42530   0.641   5.988   1.239
10453WAT      O42531   1.489   5.209   0.918
10453WAT     H142532   1.521   5.174   0.991
10453WAT     H242533   1.427   5.153   0.894
10453WAT    EPW42534   1.485   5.196   0.925
10454WAT      O42535   0.382   5.879   1.000
10454WAT     H142536   0.421   5.862   0.924
10454WAT     H242537   0.398   5.964   1.012
10454WAT    EPW42538   0.390   5.889   0.990
10455WAT      O42539   0.933   5.157   0.428
10455WAT     H142540   0.874   5.103   0.394
10455WAT     H242541   0.905   5.236   0.406
10455WAT    EPW42542   0.920   5.161   0.420
10456WAT      O42543   1.783   6.362   1.555
10456WAT     H142544   1.740   6.436   1.569
10456WAT     H242545   1.778   6.350   1.469
10456WAT    EPW42546   1.776   6.371   1.544
10457WAT      O42547   0.718   6.169   0.851
10457WAT     H142548   0.736   6.249   0.881
10457WAT     H242549   0.790   6.124   0.870
10457WAT    EPW42550   0.731   6.174   0.858
10458WAT      O42551   0.518   5.539   1.858
10458WAT     H142552   0.488   5.473   1.907
10458WAT     H242553   0.517   5.506   1.777
10458WAT    EPW42554   0.513   5.524   1.854
10459WAT      O42555   0.577   5.365   0.344
10459WAT     H142556   0.562   5.296   0.396
10459WAT     H242557   0.511   5.364   0.287
10459WAT    EPW42558   0.565   5.355   0.343
10460WAT      O42559   0.595   5.602   1.052
10460WAT     H142560   0.570   5.576   0.972
10460WAT     H242561   0.621   5.528   1.091
10460WAT    EPW42562   0.595   5.587   1.046
10461WAT      O42563   0.573   5.576   1.384
10461WAT     H142564   0.605   5.527   1.319
10461WAT     H242565   0.528   5.639   1.343
10461WAT    EPW42566   0.571   5.578   1.368
10462WAT      O42567   1.634   5.381   1.183
10462WAT     H142568   1.567   5.405   1.234
10462WAT     H242569   1.631   5.438   1.117
10462WAT    EPW42570   1.623   5.393   1.181
10463WAT      O42571   0.990   6.451   1.309
10463WAT     H142572   0.967   6.388   1.253
10463WAT     H242573   0.969   6.524   1.265
10463WAT    EPW42574   0.983   6.452   1.294
10464WAT      O42575   1.208   4.935   1.550
10464WAT     H142576   1.231   4.855   1.525
10464WAT     H242577   1.240   4.942   1.631
10464WAT    EPW42578   1.216   4.924   1.558
10465WAT      O42579   1.447   5.160   0.505
10465WAT     H142580   1.504   5.224   0.523
10465WAT     H242581   1.370   5.201   0.507
10465WAT    EPW42582   1.444   5.176   0.508
10466WAT      O42583   0.394   5.782   1.921
10466WAT     H142584   0.377   5.823   1.846
10466WAT     H242585   0.426   5.705   1.895
10466WAT    EPW42586   0.396   5.776   1.906
10467WAT      O42587   1.545   5.947   1.800
10467WAT     H142588   1.574   6.026   1.776
10467WAT     H242589   1.574   5.894   1.737
10467WAT    EPW42590   1.554   5.951   1.787
10468WAT      O42591   0.967   6.261   1.821
10468WAT     H142592   0.993   6.257   1.904
10468WAT     H242593   0.938   6.180   1.804
10468WAT    EPW42594   0.966   6.248   1.831
10469WAT      O42595   1.032   5.268   1.164
10469WAT     H142596   1.096   5.328   1.169
10469WAT     H242597   1.072   5.195   1.191
10469WAT    EPW42598   1.048   5.266   1.169
10470WAT      O42599   1.295   5.640   0.377
10470WAT     H142600   1.315   5.721   0.351
10470WAT     H242601   1.237   5.652   0.441
10470WAT    EPW42602   1.290   5.654   0.383
10471WAT      O42603   1.760   5.924   0.813
10471WAT     H142604   1.787   5.870   0.877
10471WAT     H242605   1.770   5.876   0.741
10471WAT    EPW42606   1.766   5.909   0.812
10472WAT      O42607   1.409   6.304   1.124
10472WAT     H142608   1.345   6.286   1.068
10472WAT     H242609   1.453   6.369   1.085
10472WAT    EPW42610   1.406   6.311   1.110
10473WAT      O42611   1.379   5.969   1.109
10473WAT     H142612   1.305   5.999   1.144
10473WAT     H242613   1.413   5.920   1.173
10473WAT    EPW42614   1.373   5.966   1.124
10474WAT      O42615   0.761   6.503   0.454
10474WAT     H142616   0.766   6.440   0.515
10474WAT     H242617   0.832   6.490   0.405
10474WAT    EPW42618   0.772   6.492   0.456
10475WAT      O42619   0.765   4.942   0.351
10475WAT     H142620   0.764   4.862   0.385
10475WAT     H242621   0.690   4.947   0.307
10475WAT    EPW42622   0.753   4.931   0.349
10476WAT      O42623   1.015   6.477   0.349
10476WAT     H142624   1.055   6.462   0.425
10476WAT     H242625   1.038   6.559   0.330
10476WAT    EPW42626   1.024   6.487   0.357
10477WAT      O42627   1.624   5.792   1.584
10477WAT     H142628   1.590   5.825   1.511
10477WAT     H242629   1.709   5.812   1.578
10477WAT    EPW42630   1.632   5.800   1.572
10478WAT      O42631   1.325   6.361   2.006
10478WAT     H142632   1.349   6.383   2.087
10478WAT     H242633   1.356   6.427   1.958
10478WAT    EPW42634   1.333   6.374   2.011
10479WAT      O42635   1.763   4.893   1.851
10479WAT     H142636   1.724   4.846   1.788
10479WAT     H242637   1.763   4.838   1.919
10479WAT    EPW42638   1.757   4.878   1.852
10480WAT      O42639   0.492   5.632   0.390
10480WAT     H142640   0.533   5.555   0.387
10480WAT     H242641   0.469   5.640   0.473
10480WAT    EPW42642   0.495   5.622   0.402
10481WAT      O42643   1.268   5.784   1.467
10481WAT     H142644   1.218   5.825   1.526
10481WAT     H242645   1.299   5.715   1.511
10481WAT    EPW42646   1.265   5.780   1.482
10482WAT      O42647   1.113   5.643   0.584
10482WAT     H142648   1.121   5.708   0.642
10482WAT     H242649   1.104   5.572   0.635
10482WAT    EPW42650   1.113   5.642   0.600
10483WAT      O42651   1.654   6.073   1.110
10483WAT     H142652   1.689   6.058   1.031
10483WAT     H242653   1.569   6.058   1.097
10483WAT    EPW42654   1.646   6.068   1.096
10484WAT      O42655   0.522   4.995   0.214
10484WAT     H142656   0.469   4.929   0.189
10484WAT     H242657   0.542   5.034   0.139
10484WAT    EPW42658   0.517   4.991   0.199
10485WAT      O42659   1.031   5.834   1.005
10485WAT     H142660   0.947   5.818   1.022
10485WAT     H242661   1.073   5.802   1.074
10485WAT    EPW42662   1.025   5.827   1.018
10486WAT      O42663   0.432   5.790   1.265
10486WAT     H142664   0.485   5.858   1.275
10486WAT     H242665   0.411   5.792   1.180
10486WAT    EPW42666   0.437   5.800   1.254
10487WAT      O42667   0.744   5.280   0.934
10487WAT     H142668   0.826   5.256   0.918
10487WAT     H242669   0.698   5.208   0.916
10487WAT    EPW42670   0.749   5.266   0.929
10488WAT      O42671   1.982   6.474   0.317
10488WAT     H142672   2.058   6.432   0.305
10488WAT     H242673   1.937   6.420   0.368
10488WAT    EPW42674   1.987   6.460   0.323
10489WAT      O42675   0.222   5.438   0.664
10489WAT     H142676   0.250   5.388   0.729
10489WAT     H242677   0.202   5.382   0.600
10489WAT    EPW42678   0.223   5.423   0.664
10490WAT      O42679   1.745   5.741   1.285
10490WAT     H142680   1.746   5.669   1.335
10490WAT     H242681   1.664   5.771   1.295
10490WAT    EPW42682   1.733   5.735   1.294
10491WAT      O42683   0.364   5.903   1.668
10491WAT     H142684   0.322   5.853   1.610
10491WAT     H242685   0.352   5.984   1.639
10491WAT    EPW42686   0.356   5.907   1.655
10492WAT      O42687   1.846   5.750   1.022
10492WAT     H142688   1.819   5.752   1.105
10492WAT     H242689   1.932   5.741   1.028
10492WAT    EPW42690   1.854   5.749   1.035
10493WAT      O42691   0.854   5.420   0.357
10493WAT     H142692   0.853   5.496   0.399
10493WAT     H242693   0.770   5.404   0.341
10493WAT    EPW42694   0.841   5.429   0.361
10494WAT      O42695   1.638   5.149   1.832
10494WAT     H142696   1.564   5.154   1.878
10494WAT     H242697   1.663   5.066   1.842
10494WAT    EPW42698   1.631   5.138   1.840
10495WAT      O42699   0.268   5.126   1.065
10495WAT     H142700   0.315   5.053   1.074
10495WAT     H242701   0.299   5.178   1.129
10495WAT    EPW42702   0.280   5.123   1.076
10496WAT      O42703   1.984   6.233   1.082
10496WAT     H142704   2.016   6.291   1.025
10496WAT     H242705   2.043   6.233   1.146
10496WAT    EPW42706   1.997   6.242   1.083
10497WAT      O42707   1.467   5.505   1.914
10497WAT     H142708   1.508   5.511   1.991
10497WAT     H242709   1.393   5.550   1.926
10497WAT    EPW42710   1.462   5.512   1.927
10498WAT      O42711   1.701   5.540   1.752
10498WAT     H142712   1.723   5.621   1.776
10498WAT     H242713   1.629   5.524   1.800
10498WAT    EPW42714   1.693   5.550   1.763
10499WAT      O42715   1.669   6.177   0.275
10499WAT     H142716   1.710   6.100   0.280
10499WAT     H242717   1.594   6.163   0.318
10499WAT    EPW42718   1.664   6.164   0.282
10500WAT      O42719   1.728   5.313   0.823
10500WAT     H142720   1.659   5.268   0.852
10500WAT     H242721   1.724   5.388   0.866
10500WAT    EPW42722   1.718   5.317   0.834
10501WAT      O42723   2.020   5.628   1.944
10501WAT     H142724   2.024   5.571   1.878
10501WAT     H242725   2.100   5.664   1.944
10501WAT    EPW42726   2.033   5.625   1.935
10502WAT      O42727   1.889   5.884   1.579
10502WAT     H142728   1.958   5.838   1.553
10502WAT     H242729   1.879   5.943   1.516
10502WAT    EPW42730   1.898   5.886   1.566
10503WAT      O42731   1.395   5.891   0.297
10503WAT     H142732   1.429   5.951   0.351
10503WAT     H242733   1.450   5.891   0.229
10503WAT    EPW42734   1.408   5.900   0.295
10504WAT      O42735   0.874   6.076   1.357
10504WAT     H142736   0.870   6.133   1.423
10504WAT     H242737   0.872   6.127   1.286
10504WAT    EPW42738   0.873   6.092   1.356
10505WAT      O42739   0.641   5.927   1.654
10505WAT     H142740   0.557   5.909   1.667
10505WAT     H242741   0.642   6.014   1.642
10505WAT    EPW42742   0.629   5.937   1.654
10506WAT      O42743   1.583   4.995   1.496
10506WAT     H142744   1.641   5.058   1.509
10506WAT     H242745   1.508   5.039   1.485
10506WAT    EPW42746   1.580   5.011   1.496
10507WAT      O42747   1.121   5.710   1.243
10507WAT     H142748   1.175   5.736   1.306
10507WAT     H242749   1.042   5.722   1.278
10507WAT    EPW42750   1.117   5.715   1.258
10508WAT      O42751   0.762   5.287   1.626
10508WAT     H142752   0.782   5.210   1.662
10508WAT     H242753   0.793   5.280   1.545
10508WAT    EPW42754   0.770   5.275   1.619
10509WAT      O42755   1.047   6.474   0.837
10509WAT     H142756   1.043   6.559   0.855
10509WAT     H242757   1.065   6.472   0.751
10509WAT    EPW42758   1.049   6.486   0.827
10510WAT      O42759   1.654   4.789   1.317
10510WAT     H142760   1.626   4.861   1.357
10510WAT     H242761   1.739   4.786   1.337
10510WAT    EPW42762   1.662   4.799   1.326
10511WAT      O42763   0.936   4.887   1.551
10511WAT     H142764   1.020   4.908   1.540
10511WAT     H242765   0.938   4.800   1.562
10511WAT    EPW42766   0.949   4.877   1.551
10512WAT      O42767   0.874   6.256   1.149
10512WAT     H142768   0.829   6.313   1.100
10512WAT     H242769   0.914   6.206   1.089
10512WAT    EPW42770   0.873   6.257   1.133
10513WAT      O42771   1.280   5.916   1.865
10513WAT     H142772   1.361   5.930   1.836
10513WAT     H242773   1.230   5.933   1.795
10513WAT    EPW42774   1.284   5.920   1.850
10514WAT      O42775   1.623   6.209   1.731
10514WAT     H142776   1.659   6.238   1.805
10514WAT     H242777   1.670   6.247   1.668
10514WAT    EPW42778   1.635   6.219   1.732
10515WAT      O42779   1.897   5.500   0.229
10515WAT     H142780   1.922   5.565   0.177
10515WAT     H242781   1.810   5.505   0.228
10515WAT    EPW42782   1.888   5.510   0.221
10516WAT      O42783   0.653   5.365   1.183
10516WAT     H142784   0.683   5.333   1.108
10516WAT     H242785   0.709   5.333   1.242
10516WAT    EPW42786   0.666   5.356   1.181
10517WAT      O42787   1.357   5.339   1.703
10517WAT     H142788   1.282   5.382   1.715
10517WAT     H242789   1.400   5.350   1.778
10517WAT    EPW42790   1.352   5.347   1.716
10518WAT      O42791   1.410   5.407   1.344
10518WAT     H142792   1.419   5.461   1.412
10518WAT     H242793   1.395   5.330   1.382
10518WAT    EPW42794   1.409   5.403   1.360
10519WAT      O42795   1.131   6.477   1.741
10519WAT     H142796   1.149   6.470   1.656
10519WAT     H242797   1.095   6.400   1.762
10519WAT    EPW42798   1.128   6.465   1.732
10520WAT      O42799   1.625   5.369   0.573
10520WAT     H142800   1.651   5.346   0.653
10520WAT     H242801   1.697   5.402   0.537
10520WAT    EPW42802   1.640   5.370   0.580
10521WAT      O42803   0.921   4.830   1.154
10521WAT     H142804   0.835   4.829   1.169
10521WAT     H242805   0.926   4.842   1.067
10521WAT    EPW42806   0.909   4.832   1.143
10522WAT      O42807   1.745   4.932   0.730
10522WAT     H142808   1.671   4.892   0.752
10522WAT     H242809   1.736   4.947   0.645
10522WAT    EPW42810   1.733   4.929   0.721
10523WAT      O42811   1.758   5.775   0.569
10523WAT     H142812   1.807   5.704   0.557
10523WAT     H242813   1.676   5.745   0.563
10523WAT    EPW42814   1.753   5.760   0.566
10524WAT      O42815   1.116   5.951   1.640
10524WAT     H142816   1.040   5.954   1.684
10524WAT     H242817   1.124   6.032   1.609
10524WAT    EPW42818   1.106   5.963   1.642
10525WAT      O42819   0.652   6.614   1.215
10525WAT     H142820   0.657   6.604   1.301
10525WAT     H242821   0.622   6.537   1.188
10525WAT    EPW42822   0.648   6.601   1.224
10526WAT      O42823   0.512   5.122   0.467
10526WAT     H142824   0.504   5.078   0.392
10526WAT     H242825   0.430   5.125   0.498
10526WAT    EPW42826   0.499   5.116   0.461
10527WAT      O42827   1.387   5.932   0.836
10527WAT     H142828   1.381   5.945   0.922
10527WAT     H242829   1.421   5.852   0.830
10527WAT    EPW42830   1.391   5.922   0.848
10528WAT      O42831   1.135   5.861   0.750
10528WAT     H142832   1.097   5.846   0.827
10528WAT     H242833   1.215   5.888   0.772
10528WAT    EPW42834   1.141   5.863   0.765
10529WAT      O42835   1.156   6.220   1.554
10529WAT     H142836   1.213   6.219   1.620
10529WAT     H242837   1.183   6.285   1.504
10529WAT    EPW42838   1.168   6.229   1.556
10530WAT      O42839   1.969   5.446   1.740
10530WAT     H142840   1.883   5.460   1.742
10530WAT     H242841   1.990   5.462   1.657
10530WAT    EPW42842   1.959   5.450   1.728
10531WAT      O42843   1.428   5.577   1.564
10531WAT     H142844   1.416   5.513   1.622
10531WAT     H242845   1.501   5.616   1.592
10531WAT    EPW42846   1.437   5.573   1.577
10532WAT      O42847   0.375   6.555   1.778
10532WAT     H142848   0.325   6.582   1.844
10532WAT     H242849   0.434   6.618   1.769
10532WAT    EPW42850   0.376   6.568   1.786
10533WAT      O42851   1.218   5.670   1.975
10533WAT     H142852   1.243   5.745   1.939
10533WAT     H242853   1.139   5.688   2.007
10533WAT    EPW42854   1.210   5.684   1.975
10534WAT      O42855   1.535   6.548   1.064
10534WAT     H142856   1.476   6.610   1.084
10534WAT     H242857   1.597   6.559   1.124
10534WAT    EPW42858   1.535   6.559   1.076
10535WAT      O42859   1.164   6.064   1.269
10535WAT     H142860   1.086   6.057   1.308
10535WAT     H242861   1.217   6.092   1.333
10535WAT    EPW42862   1.160   6.067   1.284
10536WAT      O42863   1.747   6.288   1.966
10536WAT     H142864   1.830   6.261   1.965
10536WAT     H242865   1.713   6.247   2.034
10536WAT    EPW42866   1.754   6.278   1.976
10537WAT      O42867   0.517   5.416   1.609
10537WAT     H142868   0.525   5.469   1.540
10537WAT     H242869   0.594   5.376   1.613
10537WAT    EPW42870   0.530   5.418   1.599
10538WAT      O42871   0.369   5.207   1.503
10538WAT     H142872   0.359   5.233   1.420
10538WAT     H242873   0.408   5.275   1.541
10538WAT    EPW42874   0.373   5.221   1.496
10539WAT      O42875   1.852   5.516   0.505
10539WAT     H142876   1.874   5.515   0.421
10539WAT     H242877   1.920   5.478   0.544
10539WAT    EPW42878   1.865   5.510   0.498
10540WAT      O42879   0.597   4.874   1.738
10540WAT     H142880   0.651   4.806   1.730
10540WAT     H242881   0.576   4.894   1.656
10540WAT    EPW42882   0.602   4.867   1.725
10541WAT      O42883   1.238   6.202   0.660
10541WAT     H142884   1.221   6.283   0.634
10541WAT     H242885   1.165   6.158   0.640
10541WAT    EPW42886   1.225   6.207   0.653
10542WAT      O42887   1.745   5.503   1.471
10542WAT     H142888   1.731   5.417   1.470
10542WAT     H242889   1.726   5.527   1.552
10542WAT    EPW42890   1.740   5.494   1.483
10543WAT      O42891   0.241   5.761   1.464
10543WAT     H142892   0.297   5.769   1.398
10543WAT     H242893   0.163   5.774   1.426
10543WAT    EPW42894   0.237   5.764   1.449
10544WAT      O42895   1.286   4.967   1.816
10544WAT     H142896   1.317   5.034   1.862
10544WAT     H242897   1.206   4.955   1.849
10544WAT    EPW42898   1.278   4.975   1.827
10545WAT      O42899   1.271   5.042   0.881
10545WAT     H142900   1.192   5.078   0.878
10545WAT     H242901   1.268   4.982   0.817
10545WAT    EPW42902   1.259   5.038   0.871
10546WAT      O42903   0.776   6.143   0.350
10546WAT     H142904   0.786   6.186   0.425
10546WAT     H242905   0.689   6.138   0.341
10546WAT    EPW42906   0.764   6.149   0.359
10547WAT      O42907   1.589   5.106   1.157
10547WAT     H142908   1.667   5.072   1.175
10547WAT     H242909   1.597   5.190   1.179
10547WAT    EPW42910   1.601   5.114   1.163
10548WAT      O42911   0.752   5.685   1.574
10548WAT     H142912   0.714   5.758   1.602
10548WAT     H242913   0.692   5.651   1.520
10548WAT    EPW42914   0.737   5.691   1.570
10549WAT      O42915   1.668   5.549   0.960
10549WAT     H142916   1.728   5.609   0.976
10549WAT     H242917   1.607   5.591   0.914
10549WAT    EPW42918   1.668   5.564   0.955
10550WAT      O42919   1.664   6.372   0.679
10550WAT     H142920   1.632   6.294   0.704
10550WAT     H242921   1.707   6.354   0.606
10550WAT    EPW42922   1.665   6.358   0.672
10551WAT      O42923   0.500   6.106   0.336
10551WAT     H142924   0.473   6.097   0.419
10551WAT     H242925   0.506   6.024   0.308
10551WAT    EPW42926   0.497   6.093   0.344
10552WAT      O42927   0.825   5.874   0.285
10552WAT     H142928   0.743   5.862   0.260
10552WAT     H242929   0.829   5.959   0.303
10552WAT    EPW42930   0.814   5.885   0.284
10553WAT      O42931   0.751   5.002   1.374
10553WAT     H142932   0.672   4.981   1.406
10553WAT     H242933   0.805   4.953   1.421
10553WAT    EPW42934   0.747   4.992   1.386
10554WAT      O42935   1.911   4.859   1.430
10554WAT     H142936   1.899   4.887   1.512
10554WAT     H242937   1.993   4.830   1.430
10554WAT    EPW42938   1.921   4.859   1.442
10555WAT      O42939   1.122   5.017   1.229
10555WAT     H142940   1.062   4.956   1.213
10555WAT     H242941   1.197   4.979   1.206
10555WAT    EPW42942   1.124   5.002   1.223
10556WAT      O42943   1.431   6.150   1.363
10556WAT     H142944   1.459   6.219   1.407
10556WAT     H242945   1.426   6.179   1.280
10556WAT    EPW42946   1.435   6.164   1.357
10557WAT      O42947   1.398   6.549   1.807
10557WAT     H142948   1.326   6.512   1.776
10557WAT     H242949   1.374   6.632   1.822
10557WAT    EPW42950   1.384   6.556   1.805
10558WAT      O42951   0.873   5.505   1.756
10558WAT     H142952   0.841   5.434   1.717
10558WAT     H242953   0.839   5.571   1.710
10558WAT    EPW42954   0.863   5.505   1.743
10559WAT      O42955   1.859   6.002   1.323
10559WAT     H142956   1.837   5.919   1.305
10559WAT     H242957   1.805   6.049   1.274
10559WAT    EPW42958   1.848   5.997   1.313
10560WAT      O42959   0.799   6.492   1.749
10560WAT     H142960   0.781   6.491   1.834
10560WAT     H242961   0.851   6.424   1.737
10560WAT    EPW42962   0.804   6.482   1.760
10561WAT      O42963   1.759   6.297   1.253
10561WAT     H142964   1.830   6.295   1.202
10561WAT     H242965   1.703   6.245   1.211
10561WAT    EPW42966   1.762   6.289   1.239
10562WAT      O42967   0.501   4.966   1.498
10562WAT     H142968   0.441   4.905   1.481
10562WAT     H242969   0.456   5.040   1.495
10562WAT    EPW42970   0.485   4.968   1.495
10563WAT      O42971   1.367   4.930   1.120
10563WAT     H142972   1.431   4.985   1.143
10563WAT     H242973   1.339   4.963   1.044
10563WAT    EPW42974   1.372   4.943   1.112
10564WAT      O42975   0.526   6.336   1.857
10564WAT     H142976   0.588   6.372   1.907
10564WAT     H242977   0.479   6.405   1.830
10564WAT    EPW42978   0.528   6.351   1.860
10565WAT      O42979   1.333   5.441   0.896
10565WAT     H142980   1.386   5.373   0.906
10565WAT     H242981   1.300   5.453   0.976
10565WAT    EPW42982   1.336   5.433   0.909
10566WAT      O42983   0.353   5.237   0.828
10566WAT     H142984   0.309   5.213   0.899
10566WAT     H242985   0.424   5.186   0.830
10566WAT    EPW42986   0.357   5.226   0.839
10567WAT      O42987   0.372   6.171   1.582
10567WAT     H142988   0.335   6.221   1.644
10567WAT     H242989   0.458   6.181   1.597
10567WAT    EPW42990   0.379   6.180   1.594
10568WAT      O42991   1.521   5.621   0.536
10568WAT     H142992   1.541   5.537   0.547
10568WAT     H242993   1.446   5.618   0.491
10568WAT    EPW42994   1.513   5.608   0.531
10569WAT      O42995   0.481   6.510   0.426
10569WAT     H142996   0.461   6.464   0.355
10569WAT     H242997   0.568   6.508   0.427
10569WAT    EPW42998   0.491   6.503   0.416
10570WAT      O42999   0.860   5.673   0.472
10570WAT     H143000   0.860   5.734   0.409
10570WAT     H243001   0.942   5.674   0.501
10570WAT    EPW43002   0.872   5.682   0.467
10571WAT      O43003   1.741   6.441   0.163
10571WAT     H143004   1.821   6.451   0.195
10571WAT     H243005   1.724   6.357   0.179
10571WAT    EPW43006   1.750   6.430   0.170
10572WAT      O43007   1.815   5.781   1.837
10572WAT     H143008   1.885   5.746   1.875
10572WAT     H243009   1.848   5.826   1.770
10572WAT    EPW43010   1.830   5.783   1.833
10573WAT      O43011   1.455   6.122   0.459
10573WAT     H143012   1.496   6.115   0.536
10573WAT     H243013   1.370   6.122   0.481
10573WAT    EPW43014   1.448   6.121   0.474
10574WAT      O43015   1.873   5.226   1.956
10574WAT     H143016   1.864   5.307   1.988
10574WAT     H243017   1.796   5.211   1.916
10574WAT    EPW43018   1.860   5.236   1.955
10575WAT      O43019   1.904   5.339   1.239
10575WAT     H143020   1.820   5.361   1.225
10575WAT     H243021   1.901   5.252   1.245
10575WAT    EPW43022   1.891   5.329   1.238
10576WAT      O43023   0.822   5.037   1.749
10576WAT     H143024   0.862   5.003   1.679
10576WAT     H243025   0.747   4.994   1.753
10576WAT    EPW43026   0.817   5.026   1.739
10577WAT      O43027   1.587   5.836   2.061
10577WAT     H143028   1.661   5.865   2.098
10577WAT     H243029   1.595   5.861   1.978
10577WAT    EPW43030   1.599   5.844   2.054
10578WAT      O43031   0.500   6.385   1.135
10578WAT     H143032   0.503   6.304   1.101
10578WAT     H243033   0.454   6.430   1.076
10578WAT    EPW43034   0.494   6.380   1.121
10579WAT      O43035   1.172   6.052   0.377
10579WAT     H143036   1.220   5.995   0.332
10579WAT     H243037   1.165   6.120   0.324
10579WAT    EPW43038   1.178   6.053   0.363
10580WAT      O43039   0.311   6.606   1.504
10580WAT     H143040   0.314   6.581   1.588
10580WAT     H243041   0.344   6.537   1.462
10580WAT    EPW43042   0.317   6.592   1.510
10581WAT      O43043   1.274   2.991   6.396
10581WAT     H143044   1.278   3.034   6.320
10581WAT     H243045   1.357   2.972   6.413
10581WAT    EPW43046   1.287   2.995   6.388
10582WAT      O43047   1.238   3.616   6.845
10582WAT     H143048   1.202   3.693   6.864
10582WAT     H243049   1.293   3.602   6.911
10582WAT    EPW43050   1.241   3.625   6.857
10583WAT      O43051   1.822   4.475   6.164
10583WAT     H143052   1.886   4.419   6.185
10583WAT     H243053   1.770   4.428   6.112
10583WAT    EPW43054   1.824   4.460   6.159
10584WAT      O43055   0.562   3.996   5.928
10584WAT     H143056   0.503   3.983   5.866
10584WAT     H243057   0.537   3.944   5.993
10584WAT    EPW43058   0.550   3.987   5.929
10585WAT      O43059   1.471   3.812   6.490
10585WAT     H143060   1.480   3.799   6.404
10585WAT     H243061   1.417   3.748   6.515
10585WAT    EPW43062   1.464   3.801   6.481
10586WAT      O43063   0.389   4.233   6.300
10586WAT     H143064   0.443   4.185   6.350
10586WAT     H243065   0.312   4.193   6.311
10586WAT    EPW43066   0.386   4.220   6.309
10587WAT      O43067   0.945   3.121   6.266
10587WAT     H143068   0.931   3.191   6.216
10587WAT     H243069   1.022   3.091   6.239
10587WAT    EPW43070   0.954   3.127   6.254
10588WAT      O43071   0.405   4.488   5.931
10588WAT     H143072   0.430   4.480   5.848
10588WAT     H243073   0.417   4.408   5.964
10588WAT    EPW43074   0.411   4.475   5.924
10589WAT      O43075   0.904   4.159   7.487
10589WAT     H143076   0.923   4.119   7.562
10589WAT     H243077   0.827   4.125   7.464
10589WAT    EPW43078   0.895   4.148   7.495
10590WAT      O43079   0.420   3.810   6.395
10590WAT     H143080   0.346   3.766   6.382
10590WAT     H243081   0.474   3.749   6.427
10590WAT    EPW43082   0.417   3.794   6.398
10591WAT      O43083   0.835   3.417   7.041
10591WAT     H143084   0.903   3.425   6.987
10591WAT     H243085   0.816   3.332   7.037
10591WAT    EPW43086   0.842   3.406   7.032
10592WAT      O43087   0.850   4.405   7.226
10592WAT     H143088   0.827   4.479   7.185
10592WAT     H243089   0.935   4.416   7.241
10592WAT    EPW43090   0.859   4.418   7.222
10593WAT      O43091   0.550   3.597   6.517
10593WAT     H143092   0.622   3.551   6.533
10593WAT     H243093   0.486   3.538   6.518
10593WAT    EPW43094   0.551   3.582   6.519
10594WAT      O43095   0.988   4.269   6.658
10594WAT     H143096   1.012   4.187   6.674
10594WAT     H243097   1.063   4.311   6.643
10594WAT    EPW43098   1.002   4.263   6.658
10595WAT      O43099   1.022   4.189   6.288
10595WAT     H143100   1.063   4.127   6.334
10595WAT     H243101   1.043   4.171   6.205
10595WAT    EPW43102   1.032   4.177   6.283
10596WAT      O43103   1.183   3.638   7.454
10596WAT     H143104   1.099   3.646   7.431
10596WAT     H243105   1.191   3.694   7.520
10596WAT    EPW43106   1.172   3.647   7.460
10597WAT      O43107   0.668   3.098   6.316
10597WAT     H143108   0.632   3.162   6.270
10597WAT     H243109   0.753   3.103   6.297
10597WAT    EPW43110   0.675   3.108   6.306
10598WAT      O43111   1.644   2.908   7.343
10598WAT     H143112   1.629   2.979   7.295
10598WAT     H243113   1.566   2.889   7.376
10598WAT    EPW43114   1.630   2.916   7.341
10599WAT      O43115   0.959   3.069   6.540
10599WAT     H143116   0.970   3.151   6.566
10599WAT     H243117   0.947   3.076   6.454
10599WAT    EPW43118   0.959   3.082   6.531
10600WAT      O43119   1.376   3.316   5.795
10600WAT     H143120   1.325   3.380   5.828
10600WAT     H243121   1.393   3.266   5.864
10600WAT    EPW43122   1.371   3.318   5.810
10601WAT      O43123   0.807   4.367   6.283
10601WAT     H143124   0.765   4.345   6.356
10601WAT     H243125   0.879   4.317   6.285
10601WAT    EPW43126   0.812   4.356   6.294
10602WAT      O43127   1.390   4.580   6.067
10602WAT     H143128   1.461   4.630   6.073
10602WAT     H243129   1.419   4.500   6.088
10602WAT    EPW43130   1.405   4.576   6.071
10603WAT      O43131   1.192   4.614   6.255
10603WAT     H143132   1.215   4.685   6.302
10603WAT     H243133   1.254   4.609   6.194
10603WAT    EPW43134   1.205   4.624   6.253
10604WAT      O43135   0.458   3.052   6.747
10604WAT     H143136   0.417   2.983   6.714
10604WAT     H243137   0.516   3.018   6.802
10604WAT    EPW43138   0.460   3.037   6.750
10605WAT      O43139   0.344   4.502   6.374
10605WAT     H143140   0.360   4.417   6.362
10605WAT     H243141   0.376   4.540   6.303
10605WAT    EPW43142   0.351   4.495   6.362
10606WAT      O43143   1.947   3.283   6.495
10606WAT     H143144   1.896   3.352   6.504
10606WAT     H243145   1.891   3.216   6.487
10606WAT    EPW43146   1.931   3.283   6.495
10607WAT      O43147   1.457   4.603   7.067
10607WAT     H143148   1.524   4.659   7.057
10607WAT     H243149   1.440   4.577   6.986
10607WAT    EPW43150   1.465   4.608   7.054
10608WAT      O43151   0.387   3.128   7.557
10608WAT     H143152   0.360   3.203   7.522
10608WAT     H243153   0.468   3.118   7.524
10608WAT    EPW43154   0.395   3.137   7.547
10609WAT      O43155   0.500   4.252   6.710
10609WAT     H143156   0.559   4.252   6.645
10609WAT     H243157   0.543   4.215   6.776
10609WAT    EPW43158   0.515   4.246   6.710
10610WAT      O43159   0.775   4.579   6.612
10610WAT     H143160   0.853   4.597   6.579
10610WAT     H243161   0.720   4.624   6.560
10610WAT    EPW43162   0.778   4.588   6.599
10611WAT      O43163   1.053   3.066   7.564
10611WAT     H143164   1.055   2.986   7.528
10611WAT     H243165   0.991   3.107   7.519
10611WAT    EPW43166   1.044   3.060   7.552
10612WAT      O43167   1.121   3.534   6.421
10612WAT     H143168   1.148   3.495   6.348
10612WAT     H243169   1.194   3.548   6.465
10612WAT    EPW43170   1.136   3.530   6.416
10613WAT      O43171   1.209   3.512   5.913
10613WAT     H143172   1.235   3.591   5.941
10613WAT     H243173   1.131   3.528   5.876
10613WAT    EPW43174   1.201   3.526   5.912
10614WAT      O43175   1.600   4.769   6.051
10614WAT     H143176   1.647   4.746   5.982
10614WAT     H243177   1.656   4.814   6.100
10614WAT    EPW43178   1.615   4.772   6.048
10615WAT      O43179   0.701   4.627   7.138
10615WAT     H143180   0.706   4.651   7.222
10615WAT     H243181   0.624   4.587   7.133
10615WAT    EPW43182   0.691   4.625   7.150
10616WAT      O43183   1.857   3.206   6.909
10616WAT     H143184   1.922   3.196   6.851
10616WAT     H243185   1.878   3.151   6.973
10616WAT    EPW43186   1.870   3.196   6.910
10617WAT      O43187   1.300   4.369   7.464
10617WAT     H143188   1.295   4.296   7.512
10617WAT     H243189   1.385   4.376   7.446
10617WAT    EPW43190   1.312   4.359   7.469
10618WAT      O43191   1.084   4.398   5.875
10618WAT     H143192   1.051   4.460   5.928
10618WAT     H243193   1.161   4.431   5.852
10618WAT    EPW43194   1.091   4.412   5.880
10619WAT      O43195   1.427   3.146   6.009
10619WAT     H143196   1.480   3.077   6.015
10619WAT     H243197   1.445   3.192   6.082
10619WAT    EPW43198   1.438   3.143   6.021
10620WAT      O43199   0.266   3.304   6.261
10620WAT     H143200   0.197   3.251   6.267
10620WAT     H243201   0.286   3.322   6.344
10620WAT    EPW43202   0.259   3.299   6.274
10621WAT      O43203   0.455   4.506   7.094
10621WAT     H143204   0.423   4.429   7.120
10621WAT     H243205   0.456   4.499   7.007
10621WAT    EPW43206   0.451   4.493   7.085
10622WAT      O43207   1.183   3.413   6.174
10622WAT     H143208   1.108   3.370   6.160
10622WAT     H243209   1.200   3.450   6.097
10622WAT    EPW43210   1.175   3.412   6.161
10623WAT      O43211   1.208   4.644   7.171
10623WAT     H143212   1.288   4.634   7.139
10623WAT     H243213   1.158   4.649   7.100
10623WAT    EPW43214   1.212   4.643   7.156
10624WAT      O43215   1.191   3.068   6.132
10624WAT     H143216   1.134   3.053   6.067
10624WAT     H243217   1.263   3.094   6.089
10624WAT    EPW43218   1.193   3.069   6.116
10625WAT      O43219   1.888   4.697   6.449
10625WAT     H143220   1.848   4.773   6.463
10625WAT     H243221   1.823   4.641   6.437
10625WAT    EPW43222   1.873   4.700   6.449
10626WAT      O43223   1.014   3.340   6.593
10626WAT     H143224   1.039   3.405   6.541
10626WAT     H243225   1.024   3.373   6.673
10626WAT    EPW43226   1.019   3.355   6.597
10627WAT      O43227   1.623   4.273   6.506
10627WAT     H143228   1.685   4.213   6.495
10627WAT     H243229   1.549   4.228   6.500
10627WAT    EPW43230   1.621   4.258   6.503
10628WAT      O43231   0.621   4.340   7.369
10628WAT     H143232   0.693   4.366   7.328
10628WAT     H243233   0.602   4.406   7.422
10628WAT    EPW43234   0.629   4.353   7.371
10629WAT      O43235   0.595   2.858   6.439
10629WAT     H143236   0.622   2.930   6.398
10629WAT     H243237   0.555   2.813   6.377
10629WAT    EPW43238   0.593   2.862   6.424
10630WAT      O43239   0.785   3.952   6.779
10630WAT     H143240   0.814   3.930   6.858
10630WAT     H243241   0.728   3.889   6.760
10630WAT    EPW43242   0.781   3.940   6.788
10631WAT      O43243   1.341   3.308   7.165
10631WAT     H143244   1.330   3.339   7.246
10631WAT     H243245   1.280   3.246   7.158
10631WAT    EPW43246   1.330   3.304   7.175
10632WAT      O43247   0.896   3.943   7.031
10632WAT     H143248   0.896   4.029   7.040
10632WAT     H243249   0.857   3.914   7.103
10632WAT    EPW43250   0.890   3.951   7.043
10633WAT      O43251   1.511   4.048   7.042
10633WAT     H143252   1.438   4.014   7.075
10633WAT     H243253   1.500   4.134   7.050
10633WAT    EPW43254   1.499   4.055   7.048
10634WAT      O43255   1.531   2.913   6.482
10634WAT     H143256   1.532   2.901   6.568
10634WAT     H243257   1.565   2.839   6.450
10634WAT    EPW43258   1.536   2.900   6.490
10635WAT      O43259   1.729   3.389   7.233
10635WAT     H143260   1.812   3.361   7.234
10635WAT     H243261   1.713   3.408   7.317
10635WAT    EPW43262   1.739   3.388   7.246
10636WAT      O43263   0.572   3.216   6.551
10636WAT     H143264   0.602   3.166   6.486
10636WAT     H243265   0.542   3.159   6.609
10636WAT    EPW43266   0.572   3.200   6.550
10637WAT      O43267   1.802   4.065   6.021
10637WAT     H143268   1.802   4.018   6.095
10637WAT     H243269   1.887   4.077   6.004
10637WAT    EPW43270   1.815   4.060   6.030
10638WAT      O43271   0.539   4.055   6.444
10638WAT     H143272   0.621   4.051   6.414
10638WAT     H243273   0.506   3.977   6.422
10638WAT    EPW43274   0.547   4.043   6.437
10639WAT      O43275   0.387   4.662   6.611
10639WAT     H143276   0.339   4.610   6.559
10639WAT     H243277   0.457   4.681   6.561
10639WAT    EPW43278   0.390   4.657   6.596
10640WAT      O43279   0.372   3.462   6.923
10640WAT     H143280   0.456   3.473   6.905
10640WAT     H243281   0.339   3.542   6.917
10640WAT    EPW43282   0.379   3.475   6.919
10641WAT      O43283   2.026   4.504   7.383
10641WAT     H143284   1.960   4.508   7.326
10641WAT     H243285   1.987   4.495   7.460
10641WAT    EPW43286   2.011   4.503   7.386
10642WAT      O43287   1.618   3.728   5.945
10642WAT     H143288   1.611   3.810   5.915
10642WAT     H243289   1.589   3.735   6.027
10642WAT    EPW43290   1.613   3.741   5.953
10643WAT      O43291   0.787   4.026   6.320
10643WAT     H143292   0.854   4.082   6.310
10643WAT     H243293   0.806   3.961   6.265
10643WAT    EPW43294   0.800   4.025   6.311
10644WAT      O43295   1.928   3.203   5.930
10644WAT     H143296   1.966   3.137   5.889
10644WAT     H243297   1.897   3.253   5.865
10644WAT    EPW43298   1.929   3.201   5.914
10645WAT      O43299   2.035   3.622   7.170
10645WAT     H143300   2.054   3.551   7.122
10645WAT     H243301   1.951   3.636   7.153
10645WAT    EPW43302   2.026   3.613   7.160
10646WAT      O43303   1.793   3.094   6.158
10646WAT     H143304   1.867   3.056   6.184
10646WAT     H243305   1.817   3.142   6.089
10646WAT    EPW43306   1.807   3.096   6.152
10647WAT      O43307   1.207   4.434   6.609
10647WAT     H143308   1.158   4.503   6.587
10647WAT     H243309   1.235   4.403   6.532
10647WAT    EPW43310   1.204   4.439   6.595
10648WAT      O43311   0.630   4.129   6.920
10648WAT     H143312   0.694   4.168   6.966
10648WAT     H243313   0.673   4.074   6.868
10648WAT    EPW43314   0.646   4.127   6.919
10649WAT      O43315   1.489   3.352   6.615
10649WAT     H143316   1.519   3.319   6.690
10649WAT     H243317   1.425   3.297   6.593
10649WAT    EPW43318   1.484   3.339   6.623
10650WAT      O43319   0.360   4.004   6.696
10650WAT     H143320   0.394   3.965   6.626
10650WAT     H243321   0.390   4.086   6.691
10650WAT    EPW43322   0.369   4.010   6.685
10651WAT      O43323   0.923   3.329   6.088
10651WAT     H143324   0.911   3.302   6.006
10651WAT     H243325   0.886   3.408   6.090
10651WAT    EPW43326   0.916   3.337   6.076
10652WAT      O43327   1.773   4.515   7.241
10652WAT     H143328   1.738   4.595   7.246
10652WAT     H243329   1.769   4.496   7.156
10652WAT    EPW43330   1.767   4.524   7.229
10653WAT      O43331   0.728   4.315   6.546
10653WAT     H143332   0.733   4.399   6.569
10653WAT     H243333   0.803   4.281   6.574
10653WAT    EPW43334   0.740   4.322   6.553
10654WAT      O43335   0.463   3.650   7.543
10654WAT     H143336   0.545   3.644   7.572
10654WAT     H243337   0.468   3.619   7.462
10654WAT    EPW43338   0.476   3.644   7.536
10655WAT      O43339   0.533   3.552   6.057
10655WAT     H143340   0.530   3.478   6.104
10655WAT     H243341   0.501   3.528   5.980
10655WAT    EPW43342   0.528   3.538   6.053
10656WAT      O43343   0.604   3.750   6.744
10656WAT     H143344   0.578   3.722   6.665
10656WAT     H243345   0.624   3.677   6.787
10656WAT    EPW43346   0.603   3.735   6.738
10657WAT      O43347   0.571   3.728   7.078
10657WAT     H143348   0.600   3.679   7.012
10657WAT     H243349   0.522   3.789   7.039
10657WAT    EPW43350   0.568   3.730   7.063
10658WAT      O43351   1.631   3.533   6.892
10658WAT     H143352   1.564   3.558   6.943
10658WAT     H243353   1.626   3.588   6.824
10658WAT    EPW43354   1.620   3.545   6.889
10659WAT      O43355   1.000   4.650   6.987
10659WAT     H143356   0.966   4.578   6.952
10659WAT     H243357   0.986   4.711   6.927
10659WAT    EPW43358   0.993   4.648   6.973
10660WAT      O43359   1.201   3.070   7.242
10660WAT     H143360   1.227   2.989   7.223
10660WAT     H243361   1.233   3.083   7.322
10660WAT    EPW43362   1.209   3.060   7.251
10661WAT      O43363   1.431   3.292   6.241
10661WAT     H143364   1.487   3.358   6.250
10661WAT     H243365   1.354   3.333   6.228
10661WAT    EPW43366   1.428   3.308   6.240
10662WAT      O43367   0.361   3.900   7.625
10662WAT     H143368   0.357   3.944   7.550
10662WAT     H243369   0.384   3.819   7.601
10662WAT    EPW43370   0.364   3.894   7.611
10663WAT      O43371   1.540   4.127   7.483
10663WAT     H143372   1.568   4.207   7.463
10663WAT     H243373   1.571   4.078   7.417
10663WAT    EPW43374   1.549   4.131   7.470
10664WAT      O43375   0.923   4.454   7.527
10664WAT     H143376   0.931   4.449   7.614
10664WAT     H243377   0.913   4.370   7.503
10664WAT    EPW43378   0.922   4.441   7.536
10665WAT      O43379   1.041   3.422   6.854
10665WAT     H143380   1.105   3.480   6.859
10665WAT     H243381   1.075   3.349   6.887
10665WAT    EPW43382   1.055   3.419   6.859
10666WAT      O43383   1.289   3.744   6.051
10666WAT     H143384   1.269   3.801   5.988
10666WAT     H243385   1.229   3.760   6.112
10666WAT    EPW43386   1.277   3.755   6.051
10667WAT      O43387   1.800   4.061   6.484
10667WAT     H143388   1.810   4.007   6.552
10667WAT     H243389   1.791   4.007   6.416
10667WAT    EPW43390   1.800   4.045   6.484
10668WAT      O43391   1.390   4.486   6.820
10668WAT     H143392   1.331   4.464   6.759
10668WAT     H243393   1.438   4.547   6.781
10668WAT    EPW43394   1.388   4.491   6.805
10669WAT      O43395   1.379   4.118   6.801
10669WAT     H143396   1.305   4.147   6.836
10669WAT     H243397   1.417   4.074   6.866
10669WAT    EPW43398   1.374   4.116   6.816
10670WAT      O43399   0.775   4.625   6.188
10670WAT     H143400   0.781   4.551   6.235
10670WAT     H243401   0.846   4.621   6.136
10670WAT    EPW43402   0.786   4.613   6.187
10671WAT      O43403   0.721   2.976   5.986
10671WAT     H143404   0.703   2.952   6.068
10671WAT     H243405   0.668   3.044   5.972
10671WAT    EPW43406   0.710   2.982   5.996
10672WAT      O43407   1.009   4.604   6.045
10672WAT     H143408   1.065   4.612   6.111
10672WAT     H243409   1.014   4.681   6.005
10672WAT    EPW43410   1.018   4.617   6.049
10673WAT      O43411   1.635   3.968   7.282
10673WAT     H143412   1.604   3.991   7.204
10673WAT     H243413   1.722   3.978   7.274
10673WAT    EPW43414   1.644   3.973   7.269
10674WAT      O43415   1.844   2.938   7.538
10674WAT     H143416   1.784   2.928   7.476
10674WAT     H243417   1.797   2.957   7.609
10674WAT    EPW43418   1.828   2.939   7.539
10675WAT      O43419   0.483   3.820   6.122
10675WAT     H143420   0.496   3.736   6.106
10675WAT     H243421   0.465   3.822   6.208
10675WAT    EPW43422   0.482   3.808   6.133
10676WAT      O43423   1.281   3.944   7.144
10676WAT     H143424   1.226   3.987   7.196
10676WAT     H243425   1.307   3.876   7.194
10676WAT    EPW43426   1.277   3.940   7.159
10677WAT      O43427   1.126   3.776   6.276
10677WAT     H143428   1.139   3.842   6.332
10677WAT     H243429   1.115   3.707   6.328
10677WAT    EPW43430   1.126   3.776   6.292
10678WAT      O43431   1.625   4.261   6.789
10678WAT     H143432   1.639   4.274   6.704
10678WAT     H243433   1.545   4.226   6.792
10678WAT    EPW43434   1.615   4.258   6.777
10679WAT      O43435   0.585   3.209   5.915
10679WAT     H143436   0.531   3.209   5.847
10679WAT     H243437   0.657   3.248   5.885
10679WAT    EPW43438   0.588   3.215   5.901
10680WAT      O43439   1.044   3.998   6.689
10680WAT     H143440   0.960   3.978   6.703
10680WAT     H243441   1.085   3.963   6.757
10680WAT    EPW43442   1.037   3.990   6.701
10681WAT      O43443   0.726   4.590   5.818
10681WAT     H143444   0.741   4.524   5.874
10681WAT     H243445   0.723   4.660   5.869
10681WAT    EPW43446   0.727   4.591   5.834
10682WAT      O43447   0.426   3.939   6.961
10682WAT     H143448   0.483   4.005   6.967
10682WAT     H243449   0.398   3.942   6.878
10682WAT    EPW43450   0.430   3.949   6.950
10683WAT      O43451   0.739   3.420   6.626
10683WAT     H143452   0.822   3.397   6.611
10683WAT     H243453   0.694   3.348   6.604
10683WAT    EPW43454   0.745   3.406   6.620
10684WAT      O43455   1.988   4.647   6.023
10684WAT     H143456   2.056   4.599   5.996
10684WAT     H243457   1.939   4.589   6.067
10684WAT    EPW43458   1.991   4.631   6.026
10685WAT      O43459   0.236   3.601   6.355
10685WAT     H143460   0.259   3.542   6.416
10685WAT     H243461   0.224   3.553   6.284
10685WAT    EPW43462   0.238   3.585   6.354
10686WAT      O43463   1.753   3.914   6.968
10686WAT     H143464   1.758   3.844   7.020
10686WAT     H243465   1.673   3.944   6.981
10686WAT    EPW43466   1.742   3.908   6.977
10687WAT      O43467   0.728   3.797   5.810
10687WAT     H143468   0.674   3.853   5.850
10687WAT     H243469   0.679   3.762   5.748
10687WAT    EPW43470   0.713   3.800   5.807
10688WAT      O43471   0.371   4.029   7.371
10688WAT     H143472   0.331   3.975   7.315
10688WAT     H243473   0.360   4.108   7.335
10688WAT    EPW43474   0.363   4.033   7.357
10689WAT      O43475   1.847   3.888   6.705
10689WAT     H143476   1.822   3.903   6.787
10689WAT     H243477   1.934   3.883   6.711
10689WAT    EPW43478   1.856   3.890   6.718
10690WAT      O43479   0.809   3.581   6.057
10690WAT     H143480   0.827   3.659   6.092
10690WAT     H243481   0.721   3.580   6.054
10690WAT    EPW43482   0.798   3.593   6.061
10691WAT      O43483   1.604   3.311   7.506
10691WAT     H143484   1.553   3.302   7.576
10691WAT     H243485   1.582   3.242   7.456
10691WAT    EPW43486   1.593   3.299   7.509
10692WAT      O43487   0.270   3.271   6.745
10692WAT     H143488   0.319   3.200   6.758
10692WAT     H243489   0.293   3.324   6.810
10692WAT    EPW43490   0.281   3.268   6.756
10693WAT      O43491   1.995   4.395   6.794
10693WAT     H143492   2.027   4.450   6.733
10693WAT     H243493   2.060   4.392   6.853
10693WAT    EPW43494   2.010   4.403   6.794
10694WAT      O43495   1.506   3.737   7.548
10694WAT     H143496   1.554   3.798   7.587
10694WAT     H243497   1.427   3.748   7.582
10694WAT    EPW43498   1.501   3.748   7.559
10695WAT      O43499   1.758   3.672   7.428
10695WAT     H143500   1.799   3.744   7.455
10695WAT     H243501   1.680   3.677   7.465
10695WAT    EPW43502   1.753   3.683   7.437
10696WAT      O43503   1.671   4.309   6.008
10696WAT     H143504   1.708   4.230   6.017
10696WAT     H243505   1.594   4.300   6.047
10696WAT    EPW43506   1.665   4.296   6.015
10697WAT      O43507   1.726   3.461   6.521
10697WAT     H143508   1.660   3.413   6.550
10697WAT     H243509   1.718   3.536   6.566
10697WAT    EPW43510   1.715   3.465   6.532
10698WAT      O43511   1.909   4.028   7.266
10698WAT     H143512   1.976   3.979   7.241
10698WAT     H243513   1.902   4.087   7.202
10698WAT    EPW43514   1.918   4.029   7.253
10699WAT      O43515   1.351   4.106   5.936
10699WAT     H143516   1.428   4.066   5.927
10699WAT     H243517   1.322   4.112   5.854
10699WAT    EPW43518   1.358   4.101   5.922
10700WAT      O43519   0.879   4.227   7.022
10700WAT     H143520   0.867   4.273   7.095
10700WAT     H243521   0.874   4.287   6.959
10700WAT    EPW43522   0.876   4.243   7.024
10701WAT      O43523   0.649   4.067   7.396
10701WAT     H143524   0.568   4.038   7.406
10701WAT     H243525   0.639   4.153   7.385
10701WAT    EPW43526   0.636   4.076   7.396
10702WAT      O43527   1.575   3.157   7.209
10702WAT     H143528   1.630   3.225   7.205
10702WAT     H243529   1.498   3.192   7.188
10702WAT    EPW43530   1.572   3.173   7.205
10703WAT      O43531   1.136   3.863   6.921
10703WAT     H143532   1.190   3.893   6.982
10703WAT     H243533   1.057   3.875   6.956
10703WAT    EPW43534   1.132   3.869   6.935
10704WAT      O43535   0.781   3.444   7.309
10704WAT     H143536   0.809   3.369   7.343
10704WAT     H243537   0.804   3.438   7.225
10704WAT    EPW43538   0.788   3.432   7.302
10705WAT      O43539   1.031   4.636   6.512
10705WAT     H143540   1.032   4.722   6.525
10705WAT     H243541   1.045   4.628   6.426
10705WAT    EPW43542   1.033   4.647   6.501
10706WAT      O43543   1.657   2.954   7.022
10706WAT     H143544   1.623   3.025   7.060
10706WAT     H243545   1.742   2.958   7.043
10706WAT    EPW43546   1.665   2.965   7.031
10707WAT      O43547   0.936   2.991   7.197
10707WAT     H143548   1.017   3.022   7.201
10707WAT     H243549   0.941   2.928   7.137
10707WAT    EPW43550   0.949   2.986   7.189
10708WAT      O43551   0.877   4.440   6.844
10708WAT     H143552   0.825   4.489   6.795
10708WAT     H243553   0.919   4.391   6.785
10708WAT    EPW43554   0.876   4.440   6.828
10709WAT      O43555   1.273   4.088   7.540
10709WAT     H143556   1.358   4.093   7.520
10709WAT     H243557   1.234   4.090   7.462
10709WAT    EPW43558   1.280   4.089   7.525
10710WAT      O43559   1.584   4.401   7.421
10710WAT     H143560   1.589   4.466   7.478
10710WAT     H243561   1.640   4.424   7.358
10710WAT    EPW43562   1.593   4.414   7.420
10711WAT      O43563   1.865   3.612   5.905
10711WAT     H143564   1.914   3.674   5.866
10711WAT     H243565   1.786   3.648   5.908
10711WAT    EPW43566   1.861   3.627   5.899
10712WAT      O43567   0.973   3.897   5.891
10712WAT     H143568   0.902   3.862   5.855
10712WAT     H243569   0.955   3.982   5.895
10712WAT    EPW43570   0.960   3.904   5.886
10713WAT      O43571   0.644   3.511   6.872
10713WAT     H143572   0.672   3.477   6.797
10713WAT     H243573   0.701   3.481   6.931
10713WAT    EPW43574   0.656   3.501   6.870
10714WAT      O43575   1.334   3.406   7.425
10714WAT     H143576   1.280   3.473   7.440
10714WAT     H243577   1.413   3.439   7.442
10714WAT    EPW43578   1.338   3.421   7.430
10715WAT      O43579   1.408   3.561   7.056
10715WAT     H143580   1.405   3.611   7.127
10715WAT     H243581   1.388   3.481   7.087
10715WAT    EPW43582   1.404   3.556   7.071
10716WAT      O43583   1.099   4.664   7.436
10716WAT     H143584   1.128   4.650   7.355
10716WAT     H243585   1.067   4.586   7.460
10716WAT    EPW43586   1.099   4.650   7.428
10717WAT      O43587   1.614   3.508   6.273
10717WAT     H143588   1.641   3.491   6.354
10717WAT     H243589   1.686   3.536   6.233
10717WAT    EPW43590   1.628   3.510   6.279
10718WAT      O43591   0.919   2.999   6.812
10718WAT     H143592   0.834   2.985   6.828
10718WAT     H243593   0.921   3.008   6.725
10718WAT    EPW43594   0.907   2.998   6.801
10719WAT      O43595   1.747   3.091   6.437
10719WAT     H143596   1.670   3.053   6.454
10719WAT     H243597   1.743   3.108   6.352
10719WAT    EPW43598   1.735   3.088   6.427
10720WAT      O43599   1.761   3.902   6.249
10720WAT     H143600   1.804   3.827   6.237
10720WAT     H243601   1.677   3.880   6.243
10720WAT    EPW43602   1.755   3.888   6.246
10721WAT      O43603   1.118   4.111   7.307
10721WAT     H143604   1.045   4.113   7.354
10721WAT     H243605   1.125   4.192   7.275
10721WAT    EPW43606   1.109   4.123   7.309
10722WAT      O43607   0.658   4.739   6.879
10722WAT     H143608   0.673   4.720   6.963
10722WAT     H243609   0.625   4.665   6.847
10722WAT    EPW43610   0.655   4.725   6.887
10723WAT      O43611   0.531   3.296   6.173
10723WAT     H143612   0.537   3.265   6.092
10723WAT     H243613   0.446   3.290   6.191
10723WAT    EPW43614   0.520   3.291   6.164
10724WAT      O43615   1.409   4.083   6.527
10724WAT     H143616   1.395   4.093   6.612
10724WAT     H243617   1.439   4.002   6.520
10724WAT    EPW43618   1.411   4.073   6.538
10725WAT      O43619   1.158   4.001   6.437
10725WAT     H143620   1.118   3.994   6.514
10725WAT     H243621   1.237   4.031   6.458
10725WAT    EPW43622   1.164   4.005   6.452
10726WAT      O43623   1.131   4.389   7.251
10726WAT     H143624   1.181   4.384   7.322
10726WAT     H243625   1.162   4.460   7.210
10726WAT    EPW43626   1.143   4.399   7.255
10727WAT      O43627   1.959   3.476   7.472
10727WAT     H143628   1.903   3.542   7.458
10727WAT     H243629   2.037   3.515   7.474
10727WAT    EPW43630   1.962   3.492   7.470
10728WAT      O43631   1.381   3.726   7.283
10728WAT     H143632   1.315   3.697   7.332
10728WAT     H243633   1.443   3.747   7.342
10728WAT    EPW43634   1.381   3.725   7.299
10729WAT      O43635   0.311   4.720   7.475
10729WAT     H143636   0.230   4.707   7.505
10729WAT     H243637   0.330   4.800   7.501
10729WAT    EPW43638   0.301   4.730   7.483
10730WAT      O43639   1.253   3.829   7.644
10730WAT     H143640   1.257   3.912   7.617
10730WAT     H243641   1.228   3.836   7.727
10730WAT    EPW43642   1.250   3.842   7.652
10731WAT      O43643   1.526   4.728   6.762
10731WAT     H143644   1.466   4.787   6.785
10731WAT     H243645   1.590   4.740   6.820
10731WAT    EPW43646   1.526   4.738   6.774
10732WAT      O43647   1.164   4.214   6.955
10732WAT     H143648   1.083   4.217   6.986
10732WAT     H243649   1.211   4.255   7.016
10732WAT    EPW43650   1.159   4.220   6.968
10733WAT      O43651   0.521   3.547   7.290
10733WAT     H143652   0.529   3.607   7.227
10733WAT     H243653   0.602   3.514   7.297
10733WAT    EPW43654   0.534   3.551   7.282
10734WAT      O43655   0.379   3.338   7.176
10734WAT     H143656   0.362   3.370   7.096
10734WAT     H243657   0.416   3.404   7.218
10734WAT    EPW43658   0.382   3.353   7.170
10735WAT      O43659   1.842   3.641   6.184
10735WAT     H143660   1.859   3.636   6.098
10735WAT     H243661   1.916   3.610   6.220
10735WAT    EPW43662   1.856   3.636   6.177
10736WAT      O43663   0.620   3.061   7.420
10736WAT     H143664   0.663   2.985   7.415
10736WAT     H243665   0.587   3.071   7.340
10736WAT    EPW43666   0.621   3.051   7.407
10737WAT      O43667   1.243   4.354   6.341
10737WAT     H143668   1.222   4.434   6.314
10737WAT     H243669   1.170   4.308   6.326
10737WAT    EPW43670   1.229   4.359   6.335
10738WAT      O43671   1.762   3.679   7.145
10738WAT     H143672   1.736   3.597   7.133
10738WAT     H243673   1.753   3.691   7.231
10738WAT    EPW43674   1.757   3.669   7.156
10739WAT      O43675   0.247   3.886   7.168
10739WAT     H143676   0.298   3.905   7.100
10739WAT     H243677   0.168   3.879   7.133
10739WAT    EPW43678   0.243   3.888   7.153
10740WAT      O43679   0.419   3.481   5.807
10740WAT     H143680   0.332   3.488   5.815
10740WAT     H243681   0.429   3.405   5.766
10740WAT    EPW43682   0.407   3.471   5.802
10741WAT      O43683   1.308   3.138   7.495
10741WAT     H143684   1.309   3.224   7.481
10741WAT     H243685   1.230   3.124   7.533
10741WAT    EPW43686   1.296   3.148   7.498
10742WAT      O43687   1.262   3.191   6.591
10742WAT     H143688   1.185   3.232   6.587
10742WAT     H243689   1.256   3.129   6.530
10742WAT    EPW43690   1.250   3.188   6.582
10743WAT      O43691   0.737   4.368   6.002
10743WAT     H143692   0.766   4.371   6.084
10743WAT     H243693   0.656   4.336   6.010
10743WAT    EPW43694   0.729   4.363   6.015
10744WAT      O43695   1.583   3.259   6.861
10744WAT     H143696   1.664   3.227   6.868
10744WAT     H243697   1.593   3.343   6.883
10744WAT    EPW43698   1.597   3.267   6.865
10745WAT      O43699   0.756   3.854   7.250
10745WAT     H143700   0.717   3.918   7.294
10745WAT     H243701   0.691   3.817   7.205
10745WAT    EPW43702   0.741   3.858   7.250
10746WAT      O43703   1.659   3.693   6.660
10746WAT     H143704   1.722   3.751   6.673
10746WAT     H243705   1.601   3.735   6.610
10746WAT    EPW43706   1.660   3.708   6.655
10747WAT      O43707   1.669   4.530   6.392
10747WAT     H143708   1.653   4.453   6.429
10747WAT     H243709   1.708   4.509   6.317
10747WAT    EPW43710   1.672   4.516   6.387
10748WAT      O43711   0.490   4.246   6.038
10748WAT     H143712   0.462   4.236   6.120
10748WAT     H243713   0.503   4.165   6.010
10748WAT    EPW43714   0.488   4.233   6.046
10749WAT      O43715   0.807   4.131   5.865
10749WAT     H143716   0.732   4.090   5.884
10749WAT     H243717   0.800   4.207   5.908
10749WAT    EPW43718   0.795   4.136   5.874
10750WAT      O43719   0.761   3.155   7.047
10750WAT     H143720   0.682   3.133   7.076
10750WAT     H243721   0.814   3.099   7.088
10750WAT    EPW43722   0.757   3.144   7.058
10751WAT      O43723   1.918   3.039   7.124
10751WAT     H143724   1.932   3.103   7.183
10751WAT     H243725   1.994   2.998   7.119
10751WAT    EPW43726   1.931   3.043   7.132
10752WAT      O43727   1.109   3.169   6.938
10752WAT     H143728   1.049   3.118   6.901
10752WAT     H243729   1.185   3.134   6.914
10752WAT    EPW43730   1.112   3.156   6.929
10753WAT      O43731   1.427   4.316   7.050
10753WAT     H143732   1.454   4.385   7.096
10753WAT     H243733   1.420   4.348   6.968
10753WAT    EPW43734   1.430   4.331   7.044
10754WAT      O43735   1.398   4.717   7.468
10754WAT     H143736   1.324   4.671   7.479
10754WAT     H243737   1.375   4.798   7.488
10754WAT    EPW43738   1.384   4.722   7.473
10755WAT      O43739   0.918   3.671   7.387
10755WAT     H143740   0.876   3.597   7.368
10755WAT     H243741   0.872   3.732   7.346
10755WAT    EPW43742   0.905   3.669   7.378
10756WAT      O43743   0.993   3.012   5.947
10756WAT     H143744   1.002   3.019   5.861
10756WAT     H243745   0.907   3.013   5.959
10756WAT    EPW43746   0.982   3.013   5.936
10757WAT      O43747   1.882   4.167   7.025
10757WAT     H143748   1.846   4.096   6.990
10757WAT     H243749   1.831   4.232   6.997
10757WAT    EPW43750   1.869   4.166   7.016
10758WAT      O43751   0.788   4.681   7.404
10758WAT     H143752   0.857   4.723   7.370
10758WAT     H243753   0.824   4.611   7.442
10758WAT    EPW43754   0.804   4.677   7.405
10759WAT      O43755   1.768   4.425   6.962
10759WAT     H143756   1.838   4.434   6.911
10759WAT     H243757   1.709   4.387   6.911
10759WAT    EPW43758   1.770   4.421   6.947
10760WAT      O43759   0.517   3.100   7.169
10760WAT     H143760   0.457   3.037   7.162
10760WAT     H243761   0.470   3.174   7.168
10760WAT    EPW43762   0.501   3.102   7.168
10761WAT      O43763   1.357   3.090   6.833
10761WAT     H143764   1.422   3.145   6.853
10761WAT     H243765   1.328   3.120   6.756
10761WAT    EPW43766   1.363   3.102   6.824
10762WAT      O43767   0.539   4.560   7.514
10762WAT     H143768   0.603   4.620   7.513
10762WAT     H243769   0.466   4.608   7.507
10762WAT    EPW43770   0.538   4.576   7.513
10763WAT      O43771   1.338   3.586   6.585
10763WAT     H143772   1.391   3.517   6.596
10763WAT     H243773   1.306   3.599   6.665
10763WAT    EPW43774   1.341   3.577   6.599
10764WAT      O43775   0.358   3.387   6.512
10764WAT     H143776   0.313   3.361   6.582
10764WAT     H243777   0.427   3.334   6.512
10764WAT    EPW43778   0.361   3.375   6.522
10765WAT      O43779   0.370   4.293   7.267
10765WAT     H143780   0.318   4.339   7.320
10765WAT     H243781   0.450   4.308   7.299
10765WAT    EPW43782   0.374   4.302   7.280
10766WAT      O43783   1.514   3.759   6.214
10766WAT     H143784   1.532   3.676   6.233
10766WAT     H243785   1.439   3.754   6.170
10766WAT    EPW43786   1.505   3.746   6.210
10767WAT      O43787   0.496   4.615   6.167
10767WAT     H143788   0.466   4.586   6.090
10767WAT     H243789   0.583   4.610   6.157
10767WAT    EPW43790   0.504   4.610   6.154
10768WAT      O43791   0.888   3.830   6.147
10768WAT     H143792   0.916   3.858   6.069
10768WAT     H243793   0.962   3.813   6.190
10768WAT    EPW43794   0.903   3.832   6.142
10769WAT      O43795   1.776   4.700   5.849
10769WAT     H143796   1.847   4.690   5.899
10769WAT     H243797   1.761   4.619   5.819
10769WAT    EPW43798   1.785   4.687   5.852
10770WAT      O43799   1.887   3.901   7.518
10770WAT     H143800   1.967   3.878   7.545
10770WAT     H243801   1.901   3.953   7.450
10770WAT    EPW43802   1.901   3.905   7.512
10771WAT      O43803   1.422   4.307   6.125
10771WAT     H143804   1.375   4.303   6.199
10771WAT     H243805   1.384   4.248   6.074
10771WAT    EPW43806   1.409   4.298   6.128
10772WAT      O43807   1.841   3.302   7.664
10772WAT     H143808   1.895   3.358   7.624
10772WAT     H243809   1.770   3.303   7.614
10772WAT    EPW43810   1.839   3.311   7.650
10773WAT      O43811   1.907   3.483   6.919
10773WAT     H143812   1.824   3.510   6.914
10773WAT     H243813   1.901   3.396   6.919
10773WAT    EPW43814   1.894   3.474   6.918
10774WAT      O43815   0.862   3.188   7.394
10774WAT     H143816   0.884   3.144   7.323
10774WAT     H243817   0.782   3.159   7.413
10774WAT    EPW43818   0.854   3.177   7.387
10775WAT      O43819   1.650   3.941   7.662
10775WAT     H143820   1.731   3.933   7.631
10775WAT     H243821   1.618   4.010   7.620
10775WAT    EPW43822   1.657   3.950   7.651
10776WAT      O43823   0.496   4.508   6.815
10776WAT     H143824   0.498   4.428   6.782
10776WAT     H243825   0.451   4.554   6.756
10776WAT    EPW43826   0.490   4.503   6.801
10777WAT      O43827   1.093   4.160   6.026
10777WAT     H143828   1.172   4.130   6.002
10777WAT     H243829   1.082   4.230   5.975
10777WAT    EPW43830   1.103   4.166   6.015
10778WAT      O43831   0.341   4.741   7.194
10778WAT     H143832   0.327   4.725   7.278
10778WAT     H243833   0.367   4.664   7.162
10778WAT    EPW43834   0.342   4.727   7.201
10779WAT      O43835   1.273   2.995   4.494
10779WAT     H143836   1.275   3.039   4.419
10779WAT     H243837   1.355   2.970   4.506
10779WAT    EPW43838   1.285   2.998   4.485
10780WAT      O43839   1.217   3.636   4.936
10780WAT     H143840   1.180   3.711   4.963
10780WAT     H243841   1.269   3.614   5.002
10780WAT    EPW43842   1.219   3.644   4.950
10781WAT      O43843   1.836   4.455   4.285
10781WAT     H143844   1.903   4.402   4.304
10781WAT     H243845   1.788   4.409   4.228
10781WAT    EPW43846   1.839   4.440   4.279
10782WAT      O43847   0.563   3.992   4.035
10782WAT     H143848   0.503   3.978   3.974
10782WAT     H243849   0.538   3.941   4.101
10782WAT    EPW43850   0.550   3.982   4.036
10783WAT      O43851   1.490   3.827   4.557
10783WAT     H143852   1.473   3.804   4.474
10783WAT     H243853   1.449   3.766   4.604
10783WAT    EPW43854   1.481   3.815   4.552
10784WAT      O43855   0.387   4.238   4.395
10784WAT     H143856   0.444   4.192   4.443
10784WAT     H243857   0.311   4.198   4.409
10784WAT    EPW43858   0.384   4.226   4.404
10785WAT      O43859   0.942   3.117   4.378
10785WAT     H143860   0.929   3.188   4.330
10785WAT     H243861   1.020   3.088   4.352
10785WAT    EPW43862   0.952   3.123   4.367
10786WAT      O43863   0.406   4.490   4.030
10786WAT     H143864   0.430   4.483   3.947
10786WAT     H243865   0.417   4.409   4.062
10786WAT    EPW43866   0.411   4.477   4.022
10787WAT      O43867   0.880   4.148   5.597
10787WAT     H143868   0.863   4.139   5.682
10787WAT     H243869   0.806   4.121   5.559
10787WAT    EPW43870   0.867   4.143   5.604
10788WAT      O43871   0.424   3.819   4.523
10788WAT     H143872   0.356   3.771   4.499
10788WAT     H243873   0.477   3.761   4.562
10788WAT    EPW43874   0.422   3.803   4.525
10789WAT      O43875   0.836   3.404   5.151
10789WAT     H143876   0.905   3.411   5.097
10789WAT     H243877   0.819   3.319   5.151
10789WAT    EPW43878   0.844   3.393   5.143
10790WAT      O43879   0.885   4.469   5.330
10790WAT     H143880   0.901   4.521   5.262
10790WAT     H243881   0.964   4.436   5.348
10790WAT    EPW43882   0.899   4.472   5.323
10791WAT      O43883   0.550   3.611   4.659
10791WAT     H143884   0.624   3.565   4.658
10791WAT     H243885   0.488   3.550   4.652
10791WAT    EPW43886   0.552   3.595   4.658
10792WAT      O43887   0.986   4.255   4.744
10792WAT     H143888   1.011   4.174   4.766
10792WAT     H243889   1.061   4.297   4.732
10792WAT    EPW43890   1.001   4.249   4.746
10793WAT      O43891   1.027   4.190   4.378
10793WAT     H143892   1.066   4.128   4.426
10793WAT     H243893   1.049   4.170   4.297
10793WAT    EPW43894   1.036   4.178   4.373
10794WAT      O43895   1.148   3.688   5.545
10794WAT     H143896   1.061   3.680   5.539
10794WAT     H243897   1.160   3.732   5.619
10794WAT    EPW43898   1.137   3.693   5.555
10795WAT      O43899   0.663   3.087   4.420
10795WAT     H143900   0.629   3.151   4.372
10795WAT     H243901   0.748   3.091   4.402
10795WAT    EPW43902   0.670   3.097   4.410
10796WAT      O43903   1.612   2.902   5.468
10796WAT     H143904   1.593   2.975   5.426
10796WAT     H243905   1.538   2.884   5.511
10796WAT    EPW43906   1.598   2.910   5.468
10797WAT      O43907   0.962   3.062   4.657
10797WAT     H143908   0.981   3.143   4.682
10797WAT     H243909   0.945   3.071   4.572
10797WAT    EPW43910   0.962   3.075   4.648
10798WAT      O43911   1.405   3.312   3.880
10798WAT     H143912   1.350   3.373   3.907
10798WAT     H243913   1.414   3.259   3.949
10798WAT    EPW43914   1.399   3.313   3.894
10799WAT      O43915   0.810   4.367   4.379
10799WAT     H143916   0.769   4.346   4.453
10799WAT     H243917   0.881   4.317   4.381
10799WAT    EPW43918   0.814   4.356   4.390
10800WAT      O43919   1.397   4.577   4.159
10800WAT     H143920   1.467   4.629   4.162
10800WAT     H243921   1.429   4.499   4.181
10800WAT    EPW43922   1.412   4.573   4.163
10801WAT      O43923   1.200   4.616   4.349
10801WAT     H143924   1.222   4.687   4.395
10801WAT     H243925   1.262   4.611   4.288
10801WAT    EPW43926   1.213   4.626   4.347
10802WAT      O43927   0.461   3.068   4.861
10802WAT     H143928   0.422   2.997   4.830
10802WAT     H243929   0.522   3.035   4.915
10802WAT    EPW43930   0.464   3.053   4.864
10803WAT      O43931   0.827   3.307   5.811
10803WAT     H143932   0.837   3.275   5.731
10803WAT     H243933   0.862   3.387   5.806
10803WAT    EPW43934   0.834   3.315   5.799
10804WAT      O43935   0.353   4.507   4.473
10804WAT     H143936   0.365   4.422   4.458
10804WAT     H243937   0.382   4.545   4.400
10804WAT    EPW43938   0.359   4.500   4.460
10805WAT      O43939   1.945   3.254   4.624
10805WAT     H143940   1.894   3.325   4.623
10805WAT     H243941   1.890   3.189   4.605
10805WAT    EPW43942   1.929   3.255   4.621
10806WAT      O43943   1.444   4.609   5.161
10806WAT     H143944   1.513   4.661   5.153
10806WAT     H243945   1.427   4.584   5.079
10806WAT    EPW43946   1.451   4.613   5.148
10807WAT      O43947   0.434   3.226   5.671
10807WAT     H143948   0.372   3.242   5.612
10807WAT     H243949   0.488   3.171   5.630
10807WAT    EPW43950   0.433   3.221   5.656
10808WAT      O43951   0.492   4.243   4.795
10808WAT     H143952   0.554   4.244   4.733
10808WAT     H243953   0.532   4.208   4.864
10808WAT    EPW43954   0.507   4.238   4.796
10809WAT      O43955   0.785   4.576   4.718
10809WAT     H143956   0.863   4.593   4.683
10809WAT     H243957   0.729   4.621   4.669
10809WAT    EPW43958   0.788   4.585   4.706
10810WAT      O43959   1.018   3.028   5.674
10810WAT     H143960   1.032   2.954   5.630
10810WAT     H243961   0.954   3.067   5.630
10810WAT    EPW43962   1.010   3.023   5.661
10811WAT      O43963   1.127   3.534   4.521
10811WAT     H143964   1.158   3.496   4.448
10811WAT     H243965   1.200   3.558   4.563
10811WAT    EPW43966   1.142   3.532   4.516
10812WAT      O43967   1.216   3.496   3.996
10812WAT     H143968   1.239   3.575   4.028
10812WAT     H243969   1.137   3.510   3.962
10812WAT    EPW43970   1.208   3.510   3.996
10813WAT      O43971   1.611   4.764   4.142
10813WAT     H143972   1.662   4.728   4.081
10813WAT     H243973   1.666   4.811   4.190
10813WAT    EPW43974   1.627   4.765   4.140
10814WAT      O43975   0.662   4.681   5.272
10814WAT     H143976   0.696   4.649   5.346
10814WAT     H243977   0.598   4.625   5.253
10814WAT    EPW43978   0.658   4.668   5.280
10815WAT      O43979   1.886   3.164   5.019
10815WAT     H143980   1.953   3.161   4.963
10815WAT     H243981   1.904   3.101   5.076
10815WAT    EPW43982   1.898   3.154   5.019
10816WAT      O43983   1.336   4.387   5.554
10816WAT     H143984   1.328   4.412   5.637
10816WAT     H243985   1.422   4.377   5.544
10816WAT    EPW43986   1.348   4.389   5.565
10817WAT      O43987   1.083   4.394   3.973
10817WAT     H143988   1.053   4.457   4.025
10817WAT     H243989   1.160   4.424   3.947
10817WAT    EPW43990   1.090   4.408   3.976
10818WAT      O43991   1.427   3.138   4.096
10818WAT     H143992   1.478   3.068   4.106
10818WAT     H243993   1.445   3.186   4.167
10818WAT    EPW43994   1.437   3.135   4.108
10819WAT      O43995   0.274   3.303   4.368
10819WAT     H143996   0.206   3.249   4.374
10819WAT     H243997   0.292   3.324   4.451
10819WAT    EPW43998   0.267   3.298   4.381
10820WAT      O43999   0.449   4.523   5.181
10820WAT     H144000   0.418   4.449   5.213
10820WAT     H244001   0.457   4.508   5.096
10820WAT    EPW44002   0.446   4.510   5.174
10821WAT      O44003   1.188   3.415   4.268
10821WAT     H144004   1.112   3.372   4.259
10821WAT     H244005   1.204   3.445   4.188
10821WAT    EPW44006   1.179   3.413   4.255
10822WAT      O44007   1.200   4.687   5.268
10822WAT     H144008   1.278   4.663   5.234
10822WAT     H244009   1.143   4.663   5.206
10822WAT    EPW44010   1.203   4.680   5.254
10823WAT      O44011   1.190   3.072   4.231
10823WAT     H144012   1.130   3.059   4.169
10823WAT     H244013   1.261   3.095   4.186
10823WAT    EPW44014   1.192   3.074   4.215
10824WAT      O44015   1.897   4.701   4.551
10824WAT     H144016   1.857   4.777   4.564
10824WAT     H244017   1.831   4.645   4.538
10824WAT    EPW44018   1.881   4.704   4.551
10825WAT      O44019   1.030   3.334   4.696
10825WAT     H144020   1.055   3.399   4.644
10825WAT     H244021   1.032   3.370   4.776
10825WAT    EPW44022   1.034   3.349   4.700
10826WAT      O44023   1.607   4.293   4.597
10826WAT     H144024   1.675   4.240   4.584
10826WAT     H244025   1.539   4.239   4.597
10826WAT    EPW44026   1.607   4.277   4.595
10827WAT      O44027   0.641   4.364   5.447
10827WAT     H144028   0.715   4.404   5.424
10827WAT     H244029   0.621   4.401   5.524
10827WAT    EPW44030   0.649   4.376   5.455
10828WAT      O44031   0.598   2.855   4.567
10828WAT     H144032   0.618   2.918   4.511
10828WAT     H244033   0.549   2.800   4.520
10828WAT    EPW44034   0.594   2.856   4.552
10829WAT      O44035   0.786   3.948   4.909
10829WAT     H144036   0.817   3.946   4.990
10829WAT     H244037   0.739   3.874   4.903
10829WAT    EPW44038   0.784   3.936   4.920
10830WAT      O44039   1.363   3.319   5.302
10830WAT     H144040   1.352   3.365   5.375
10830WAT     H244041   1.301   3.258   5.306
10830WAT    EPW44042   1.353   3.317   5.313
10831WAT      O44043   0.890   3.977   5.162
10831WAT     H144044   0.873   4.062   5.174
10831WAT     H244045   0.854   3.939   5.232
10831WAT    EPW44046   0.882   3.984   5.174
10832WAT      O44047   1.478   4.098   5.173
10832WAT     H144048   1.417   4.043   5.202
10832WAT     H244049   1.441   4.176   5.184
10832WAT    EPW44050   1.464   4.101   5.179
10833WAT      O44051   1.526   2.897   4.560
10833WAT     H144052   1.523   2.878   4.645
10833WAT     H244053   1.565   2.827   4.525
10833WAT    EPW44054   1.531   2.884   4.568
10834WAT      O44055   1.779   3.387   5.412
10834WAT     H144056   1.854   3.362   5.450
10834WAT     H244057   1.725   3.396   5.480
10834WAT    EPW44058   1.782   3.385   5.428
10835WAT      O44059   0.572   3.217   4.650
10835WAT     H144060   0.598   3.162   4.588
10835WAT     H244061   0.544   3.164   4.714
10835WAT    EPW44062   0.571   3.201   4.650
10836WAT      O44063   1.831   4.038   4.129
10836WAT     H144064   1.850   3.993   4.201
10836WAT     H244065   1.908   4.067   4.102
10836WAT    EPW44066   1.845   4.035   4.136
10837WAT      O44067   0.549   4.068   4.534
10837WAT     H144068   0.629   4.061   4.501
10837WAT     H244069   0.516   3.988   4.526
10837WAT    EPW44070   0.556   4.055   4.528
10838WAT      O44071   0.391   4.664   4.710
10838WAT     H144072   0.344   4.614   4.656
10838WAT     H244073   0.463   4.683   4.663
10838WAT    EPW44074   0.395   4.660   4.695
10839WAT      O44075   0.375   3.463   5.025
10839WAT     H144076   0.459   3.453   5.003
10839WAT     H244077   0.361   3.549   5.015
10839WAT    EPW44078   0.385   3.474   5.020
10840WAT      O44079   2.015   4.481   5.517
10840WAT     H144080   1.935   4.490   5.485
10840WAT     H244081   2.003   4.439   5.592
10840WAT    EPW44082   2.002   4.476   5.523
10841WAT      O44083   1.643   3.726   4.033
10841WAT     H144084   1.633   3.807   4.003
10841WAT     H244085   1.602   3.727   4.110
10841WAT    EPW44086   1.635   3.738   4.040
10842WAT      O44087   0.793   4.027   4.410
10842WAT     H144088   0.859   4.082   4.398
10842WAT     H244089   0.811   3.961   4.355
10842WAT    EPW44090   0.805   4.025   4.400
10843WAT      O44091   1.854   3.202   4.006
10843WAT     H144092   1.834   3.156   3.935
10843WAT     H244093   1.871   3.282   3.974
10843WAT    EPW44094   1.854   3.207   3.990
10844WAT      O44095   0.944   3.560   5.809
10844WAT     H144096   0.895   3.589   5.876
10844WAT     H244097   0.914   3.606   5.741
10844WAT    EPW44098   0.932   3.571   5.809
10845WAT      O44099   2.066   3.686   5.197
10845WAT     H144100   2.062   3.687   5.110
10845WAT     H244101   1.982   3.683   5.220
10845WAT    EPW44102   2.053   3.686   5.188
10846WAT      O44103   1.778   3.095   4.254
10846WAT     H144104   1.855   3.063   4.277
10846WAT     H244105   1.795   3.141   4.182
10846WAT    EPW44106   1.792   3.097   4.247
10847WAT      O44107   1.206   4.421   4.700
10847WAT     H144108   1.159   4.491   4.680
10847WAT     H244109   1.237   4.394   4.623
10847WAT    EPW44110   1.204   4.427   4.686
10848WAT      O44111   0.609   4.130   5.018
10848WAT     H144112   0.663   4.174   5.070
10848WAT     H244113   0.662   4.075   4.976
10848WAT    EPW44114   0.625   4.129   5.020
10849WAT      O44115   1.470   3.381   4.710
10849WAT     H144116   1.486   3.388   4.796
10849WAT     H244117   1.416   3.313   4.705
10849WAT    EPW44118   1.465   3.372   4.722
10850WAT      O44119   0.368   3.975   4.781
10850WAT     H144120   0.376   3.935   4.704
10850WAT     H244121   0.399   4.056   4.765
10850WAT    EPW44122   0.374   3.981   4.767
10851WAT      O44123   0.926   3.325   4.196
10851WAT     H144124   0.913   3.296   4.115
10851WAT     H244125   0.888   3.404   4.195
10851WAT    EPW44126   0.918   3.333   4.184
10852WAT      O44127   1.771   4.525   5.386
10852WAT     H144128   1.727   4.600   5.391
10852WAT     H244129   1.783   4.513   5.301
10852WAT    EPW44130   1.766   4.534   5.374
10853WAT      O44131   0.729   4.316   4.642
10853WAT     H144132   0.735   4.399   4.668
10853WAT     H244133   0.804   4.280   4.668
10853WAT    EPW44134   0.741   4.323   4.649
10854WAT      O44135   0.520   3.690   5.647
10854WAT     H144136   0.491   3.624   5.696
10854WAT     H244137   0.517   3.659   5.566
10854WAT    EPW44138   0.515   3.676   5.642
10855WAT      O44139   0.533   3.552   4.165
10855WAT     H144140   0.533   3.477   4.209
10855WAT     H244141   0.502   3.530   4.087
10855WAT    EPW44142   0.529   3.538   4.160
10856WAT      O44143   0.630   3.718   4.911
10856WAT     H144144   0.590   3.717   4.834
10856WAT     H244145   0.648   3.634   4.927
10856WAT    EPW44146   0.627   3.706   4.902
10857WAT      O44147   0.557   3.761   5.181
10857WAT     H144148   0.590   3.740   5.103
10857WAT     H244149   0.497   3.821   5.163
10857WAT    EPW44150   0.553   3.766   5.167
10858WAT      O44151   1.541   3.436   4.971
10858WAT     H144152   1.491   3.478   5.029
10858WAT     H244153   1.606   3.492   4.955
10858WAT    EPW44154   1.543   3.451   4.977
10859WAT      O44155   0.983   4.618   5.105
10859WAT     H144156   0.964   4.551   5.052
10859WAT     H244157   0.964   4.688   5.057
10859WAT    EPW44158   0.977   4.619   5.090
10860WAT      O44159   1.206   3.091   5.355
10860WAT     H144160   1.230   3.012   5.327
10860WAT     H244161   1.235   3.093   5.437
10860WAT    EPW44162   1.214   3.079   5.363
10861WAT      O44163   1.436   3.291   4.322
10861WAT     H144164   1.493   3.355   4.336
10861WAT     H244165   1.359   3.332   4.315
10861WAT    EPW44166   1.433   3.307   4.323
10862WAT      O44167   0.396   3.931   5.718
10862WAT     H144168   0.378   3.975   5.645
10862WAT     H244169   0.428   3.855   5.689
10862WAT    EPW44170   0.398   3.926   5.703
10863WAT      O44171   1.546   4.086   5.591
10863WAT     H144172   1.572   4.167   5.573
10863WAT     H244173   1.578   4.038   5.526
10863WAT    EPW44174   1.554   4.091   5.579
10864WAT      O44175   0.970   4.416   5.622
10864WAT     H144176   0.998   4.412   5.705
10864WAT     H244177   0.940   4.336   5.606
10864WAT    EPW44178   0.970   4.404   5.632
10865WAT      O44179   1.038   3.420   4.958
10865WAT     H144180   1.098   3.483   4.959
10865WAT     H244181   1.082   3.349   4.984
10865WAT    EPW44182   1.053   3.419   4.962
10866WAT      O44183   1.279   3.730   4.136
10866WAT     H144184   1.259   3.787   4.072
10866WAT     H244185   1.222   3.749   4.199
10866WAT    EPW44186   1.268   3.742   4.136
10867WAT      O44187   1.820   4.112   4.544
10867WAT     H144188   1.835   4.060   4.613
10867WAT     H244189   1.786   4.059   4.485
10867WAT    EPW44190   1.817   4.097   4.546
10868WAT      O44191   1.383   4.484   4.911
10868WAT     H144192   1.329   4.458   4.847
10868WAT     H244193   1.428   4.550   4.874
10868WAT    EPW44194   1.382   4.490   4.896
10869WAT      O44195   1.392   4.114   4.896
10869WAT     H144196   1.313   4.140   4.922
10869WAT     H244197   1.426   4.079   4.968
10869WAT    EPW44198   1.385   4.113   4.910
10870WAT      O44199   0.780   4.626   4.285
10870WAT     H144200   0.786   4.552   4.332
10870WAT     H244201   0.850   4.622   4.233
10870WAT    EPW44202   0.791   4.614   4.285
10871WAT      O44203   0.720   2.980   4.080
10871WAT     H144204   0.697   2.952   4.159
10871WAT     H244205   0.667   3.047   4.066
10871WAT    EPW44206   0.709   2.985   4.090
10872WAT      O44207   1.014   4.605   4.141
10872WAT     H144208   1.071   4.613   4.206
10872WAT     H244209   1.017   4.682   4.101
10872WAT    EPW44210   1.023   4.617   4.144
10873WAT      O44211   1.639   3.946   5.368
10873WAT     H144212   1.610   3.989   5.298
10873WAT     H244213   1.725   3.960   5.366
10873WAT    EPW44214   1.647   3.955   5.357
10874WAT      O44215   1.326   4.523   5.803
10874WAT     H144216   1.350   4.545   5.883
10874WAT     H244217   1.354   4.589   5.753
10874WAT    EPW44218   1.333   4.536   5.807
10875WAT      O44219   1.803   3.005   5.638
10875WAT     H144220   1.741   2.977   5.584
10875WAT     H244221   1.791   2.958   5.711
10875WAT    EPW44222   1.792   2.994   5.641
10876WAT      O44223   0.486   3.821   4.239
10876WAT     H144224   0.499   3.736   4.222
10876WAT     H244225   0.475   3.823   4.325
10876WAT    EPW44226   0.487   3.809   4.249
10877WAT      O44227   1.270   3.941   5.269
10877WAT     H144228   1.220   3.973   5.332
10877WAT     H244229   1.309   3.872   5.307
10877WAT    EPW44230   1.269   3.936   5.284
10878WAT      O44231   1.130   3.774   4.371
10878WAT     H144232   1.142   3.841   4.425
10878WAT     H244233   1.118   3.706   4.424
10878WAT    EPW44234   1.130   3.774   4.387
10879WAT      O44235   1.656   4.259   5.010
10879WAT     H144236   1.615   4.267   4.934
10879WAT     H244237   1.603   4.206   5.056
10879WAT    EPW44238   1.642   4.252   5.006
10880WAT      O44239   0.584   3.212   4.015
10880WAT     H144240   0.530   3.214   3.947
10880WAT     H244241   0.656   3.251   3.986
10880WAT    EPW44242   0.586   3.218   4.001
10881WAT      O44243   1.034   3.978   4.782
10881WAT     H144244   0.950   3.964   4.802
10881WAT     H244245   1.078   3.946   4.849
10881WAT    EPW44246   1.028   3.971   4.795
10882WAT      O44247   0.725   4.591   3.917
10882WAT     H144248   0.740   4.525   3.973
10882WAT     H244249   0.723   4.661   3.969
10882WAT    EPW44250   0.727   4.591   3.933
10883WAT      O44251   0.394   3.958   5.061
10883WAT     H144252   0.455   4.020   5.062
10883WAT     H244253   0.373   3.950   4.977
10883WAT    EPW44254   0.400   3.966   5.049
10884WAT      O44255   0.753   3.416   4.706
10884WAT     H144256   0.836   3.390   4.693
10884WAT     H244257   0.706   3.346   4.683
10884WAT    EPW44258   0.759   3.402   4.700
10885WAT      O44259   2.015   4.622   4.157
10885WAT     H144260   2.080   4.568   4.139
10885WAT     H244261   1.958   4.573   4.202
10885WAT    EPW44262   2.016   4.607   4.161
10886WAT      O44263   0.253   3.610   4.456
10886WAT     H144264   0.277   3.547   4.512
10886WAT     H244265   0.240   3.567   4.381
10886WAT    EPW44266   0.255   3.594   4.453
10887WAT      O44267   1.801   3.871   5.114
10887WAT     H144268   1.784   3.813   5.178
10887WAT     H244269   1.795   3.823   5.042
10887WAT    EPW44270   1.798   3.855   5.113
10888WAT      O44271   0.732   3.799   3.911
10888WAT     H144272   0.677   3.853   3.953
10888WAT     H244273   0.683   3.764   3.848
10888WAT    EPW44274   0.717   3.802   3.908
10889WAT      O44275   0.363   4.061   5.469
10889WAT     H144276   0.317   4.012   5.414
10889WAT     H244277   0.354   4.142   5.438
10889WAT    EPW44278   0.355   4.065   5.456
10890WAT      O44279   1.894   3.922   4.728
10890WAT     H144280   1.853   3.853   4.761
10890WAT     H244281   1.977   3.910   4.752
10890WAT    EPW44282   1.900   3.910   4.737
10891WAT      O44283   0.811   3.577   4.155
10891WAT     H144284   0.830   3.655   4.189
10891WAT     H244285   0.723   3.576   4.155
10891WAT    EPW44286   0.801   3.588   4.160
10892WAT      O44287   1.600   3.331   5.628
10892WAT     H144288   1.530   3.331   5.681
10892WAT     H244289   1.583   3.267   5.572
10892WAT    EPW44290   1.587   3.322   5.628
10893WAT      O44291   0.264   3.279   4.846
10893WAT     H144292   0.314   3.209   4.860
10893WAT     H244293   0.286   3.334   4.910
10893WAT    EPW44294   0.274   3.277   4.857
10894WAT      O44295   2.038   4.509   4.937
10894WAT     H144296   2.048   4.514   4.851
10894WAT     H244297   2.104   4.556   4.969
10894WAT    EPW44298   2.049   4.516   4.929
10895WAT      O44299   1.463   3.665   5.721
10895WAT     H144300   1.503   3.668   5.798
10895WAT     H244301   1.389   3.709   5.734
10895WAT    EPW44302   1.458   3.672   5.734
10896WAT      O44303   1.705   3.695   5.571
10896WAT     H144304   1.728   3.776   5.593
10896WAT     H244305   1.630   3.683   5.613
10896WAT    EPW44306   1.697   3.705   5.580
10897WAT      O44307   1.699   4.287   4.116
10897WAT     H144308   1.729   4.206   4.131
10897WAT     H244309   1.619   4.286   4.150
10897WAT    EPW44310   1.692   4.275   4.123
10898WAT      O44311   1.726   3.438   4.616
10898WAT     H144312   1.653   3.402   4.646
10898WAT     H244313   1.747   3.497   4.676
10898WAT    EPW44314   1.719   3.441   4.629
10899WAT      O44315   2.025   3.786   5.757
10899WAT     H144316   2.028   3.732   5.688
10899WAT     H244317   2.101   3.828   5.754
10899WAT    EPW44318   2.036   3.784   5.746
10900WAT      O44319   1.919   4.023   5.379
10900WAT     H144320   1.998   3.990   5.361
10900WAT     H244321   1.903   4.076   5.312
10900WAT    EPW44322   1.928   4.026   5.367
10901WAT      O44323   1.365   4.110   4.031
10901WAT     H144324   1.441   4.068   4.023
10901WAT     H244325   1.336   4.115   3.949
10901WAT    EPW44326   1.372   4.105   4.018
10902WAT      O44327   0.821   4.252   5.157
10902WAT     H144328   0.828   4.310   5.222
10902WAT     H244329   0.840   4.298   5.086
10902WAT    EPW44330   0.825   4.267   5.156
10903WAT      O44331   0.642   4.086   5.461
10903WAT     H144332   0.557   4.068   5.472
10903WAT     H244333   0.642   4.173   5.447
10903WAT    EPW44334   0.629   4.096   5.460
10904WAT      O44335   1.585   3.174   5.389
10904WAT     H144336   1.653   3.225   5.365
10904WAT     H244337   1.517   3.213   5.351
10904WAT    EPW44338   1.585   3.187   5.380
10905WAT      O44339   1.122   3.885   5.043
10905WAT     H144340   1.178   3.891   5.109
10905WAT     H244341   1.044   3.895   5.081
10905WAT    EPW44342   1.118   3.888   5.058
10906WAT      O44343   0.763   3.446   5.416
10906WAT     H144344   0.779   3.369   5.453
10906WAT     H244345   0.793   3.435   5.334
10906WAT    EPW44346   0.770   3.433   5.409
10907WAT      O44347   1.038   4.633   4.611
10907WAT     H144348   1.039   4.719   4.629
10907WAT     H244349   1.051   4.630   4.525
10907WAT    EPW44350   1.040   4.645   4.601
10908WAT      O44351   1.643   2.923   5.145
10908WAT     H144352   1.623   3.004   5.120
10908WAT     H244353   1.730   2.924   5.151
10908WAT    EPW44354   1.653   2.935   5.142
10909WAT      O44355   0.935   3.036   5.358
10909WAT     H144356   1.019   3.058   5.347
10909WAT     H244357   0.937   2.949   5.367
10909WAT    EPW44358   0.948   3.027   5.358
10910WAT      O44359   0.880   4.418   4.941
10910WAT     H144360   0.833   4.469   4.888
10910WAT     H244361   0.920   4.364   4.886
10910WAT    EPW44362   0.879   4.418   4.925
10911WAT      O44363   1.282   4.067   5.669
10911WAT     H144364   1.363   4.076   5.637
10911WAT     H244365   1.231   4.085   5.601
10911WAT    EPW44366   1.287   4.071   5.654
10912WAT      O44367   1.615   4.353   5.543
10912WAT     H144368   1.650   4.379   5.618
10912WAT     H244369   1.658   4.399   5.483
10912WAT    EPW44370   1.626   4.364   5.545
10913WAT      O44371   0.981   3.895   3.987
10913WAT     H144372   0.908   3.864   3.951
10913WAT     H244373   0.965   3.981   3.994
10913WAT    EPW44374   0.968   3.903   3.983
10914WAT      O44375   0.645   3.451   4.960
10914WAT     H144376   0.685   3.429   4.885
10914WAT     H244377   0.705   3.433   5.021
10914WAT    EPW44378   0.660   3.445   4.958
10915WAT      O44379   1.353   3.511   5.505
10915WAT     H144380   1.280   3.556   5.514
10915WAT     H244381   1.395   3.523   5.580
10915WAT    EPW44382   1.349   3.519   5.517
10916WAT      O44383   1.369   3.553   5.150
10916WAT     H144384   1.395   3.611   5.209
10916WAT     H244385   1.360   3.479   5.196
10916WAT    EPW44386   1.372   3.550   5.166
10917WAT      O44387   1.120   4.640   5.531
10917WAT     H144388   1.139   4.633   5.446
10917WAT     H244389   1.085   4.562   5.550
10917WAT    EPW44390   1.117   4.628   5.521
10918WAT      O44391   1.617   3.505   4.370
10918WAT     H144392   1.640   3.483   4.452
10918WAT     H244393   1.692   3.537   4.337
10918WAT    EPW44394   1.632   3.507   4.377
10919WAT      O44395   0.924   2.985   4.937
10919WAT     H144396   0.839   2.981   4.956
10919WAT     H244397   0.926   2.993   4.850
10919WAT    EPW44398   0.912   2.985   4.927
10920WAT      O44399   1.740   3.078   4.535
10920WAT     H144400   1.664   3.037   4.549
10920WAT     H244401   1.735   3.103   4.452
10920WAT    EPW44402   1.728   3.076   4.525
10921WAT      O44403   1.725   3.893   4.397
10921WAT     H144404   1.694   3.869   4.475
10921WAT     H244405   1.658   3.877   4.343
10921WAT    EPW44406   1.711   3.887   4.400
10922WAT      O44407   1.114   4.098   5.449
10922WAT     H144408   1.038   4.100   5.493
10922WAT     H244409   1.121   4.180   5.418
10922WAT    EPW44410   1.104   4.110   5.451
10923WAT      O44411   0.647   4.747   4.990
10923WAT     H144412   0.654   4.739   5.076
10923WAT     H244413   0.623   4.667   4.964
10923WAT    EPW44414   0.644   4.734   4.999
10924WAT      O44415   0.537   3.293   4.276
10924WAT     H144416   0.541   3.263   4.195
10924WAT     H244417   0.452   3.288   4.296
10924WAT    EPW44418   0.525   3.288   4.267
10925WAT      O44419   1.410   4.087   4.620
10925WAT     H144420   1.406   4.093   4.707
10925WAT     H244421   1.443   4.007   4.607
10925WAT    EPW44422   1.414   4.076   4.631
10926WAT      O44423   1.158   4.001   4.532
10926WAT     H144424   1.116   3.990   4.608
10926WAT     H244425   1.235   4.032   4.557
10926WAT    EPW44426   1.163   4.004   4.547
10927WAT      O44427   1.147   4.360   5.357
10927WAT     H144428   1.198   4.372   5.426
10927WAT     H244429   1.202   4.362   5.289
10927WAT    EPW44430   1.162   4.362   5.357
10928WAT      O44431   1.983   3.618   5.541
10928WAT     H144432   1.897   3.614   5.558
10928WAT     H244433   1.987   3.651   5.461
10928WAT    EPW44434   1.971   3.622   5.532
10929WAT      O44435   1.439   3.735   5.350
10929WAT     H144436   1.427   3.676   5.414
10929WAT     H244437   1.511   3.777   5.375
10929WAT    EPW44438   1.448   3.732   5.363
10930WAT      O44439   0.377   4.698   5.567
10930WAT     H144440   0.318   4.733   5.622
10930WAT     H244441   0.440   4.758   5.564
10930WAT    EPW44442   0.377   4.712   5.575
10931WAT      O44443   1.217   3.824   5.781
10931WAT     H144444   1.241   3.900   5.745
10931WAT     H244445   1.137   3.841   5.812
10931WAT    EPW44446   1.208   3.838   5.780
10932WAT      O44447   1.512   4.731   4.858
10932WAT     H144448   1.452   4.791   4.878
10932WAT     H244449   1.575   4.743   4.917
10932WAT    EPW44450   1.513   4.741   4.870
10933WAT      O44451   1.149   4.169   5.019
10933WAT     H144452   1.127   4.085   5.034
10933WAT     H244453   1.155   4.203   5.099
10933WAT    EPW44454   1.146   4.161   5.033
10934WAT      O44455   1.745   4.435   5.774
10934WAT     H144456   1.828   4.409   5.774
10934WAT     H244457   1.711   4.394   5.844
10934WAT    EPW44458   1.752   4.425   5.785
10935WAT      O44459   0.517   3.574   5.392
10935WAT     H144460   0.525   3.630   5.326
10935WAT     H244461   0.595   3.535   5.395
10935WAT    EPW44462   0.530   3.576   5.383
10936WAT      O44463   0.371   3.361   5.288
10936WAT     H144464   0.360   3.386   5.205
10936WAT     H244465   0.410   3.430   5.325
10936WAT    EPW44466   0.375   3.375   5.281
10937WAT      O44467   1.844   3.656   4.306
10937WAT     H144468   1.818   3.731   4.342
10937WAT     H244469   1.920   3.640   4.345
10937WAT    EPW44470   1.851   3.665   4.317
10938WAT      O44471   0.593   3.029   5.535
10938WAT     H144472   0.648   2.961   5.526
10938WAT     H244473   0.572   3.049   5.452
10938WAT    EPW44474   0.598   3.022   5.521
10939WAT      O44475   1.250   4.353   4.429
10939WAT     H144476   1.229   4.434   4.404
10939WAT     H244477   1.177   4.308   4.413
10939WAT    EPW44478   1.236   4.359   4.423
10940WAT      O44479   1.806   3.657   5.308
10940WAT     H144480   1.795   3.571   5.302
10940WAT     H244481   1.760   3.679   5.379
10940WAT    EPW44482   1.797   3.648   5.317
10941WAT      O44483   0.220   3.925   5.274
10941WAT     H144484   0.269   3.937   5.203
10941WAT     H244485   0.139   3.933   5.245
10941WAT    EPW44486   0.215   3.928   5.259
10942WAT      O44487   0.419   3.486   3.911
10942WAT     H144488   0.333   3.495   3.918
10942WAT     H244489   0.429   3.410   3.871
10942WAT    EPW44490   0.408   3.476   3.906
10943WAT      O44491   1.274   3.122   5.624
10943WAT     H144492   1.302   3.188   5.674
10943WAT     H244493   1.193   3.107   5.653
10943WAT    EPW44494   1.266   3.129   5.636
10944WAT      O44495   1.278   3.180   4.705
10944WAT     H144496   1.201   3.221   4.706
10944WAT     H244497   1.270   3.123   4.639
10944WAT    EPW44498   1.265   3.177   4.696
10945WAT      O44499   0.736   4.369   4.100
10945WAT     H144500   0.765   4.371   4.182
10945WAT     H244501   0.655   4.337   4.108
10945WAT    EPW44502   0.728   4.364   4.113
10946WAT      O44503   1.607   3.174   5.022
10946WAT     H144504   1.693   3.173   5.006
10946WAT     H244505   1.586   3.259   5.017
10946WAT    EPW44506   1.616   3.186   5.019
10947WAT      O44507   0.752   3.850   5.366
10947WAT     H144508   0.715   3.921   5.401
10947WAT     H244509   0.690   3.819   5.313
10947WAT    EPW44510   0.737   3.856   5.363
10948WAT      O44511   1.670   4.544   4.491
10948WAT     H144512   1.644   4.470   4.530
10948WAT     H244513   1.712   4.517   4.420
10948WAT    EPW44514   1.673   4.529   4.486
10949WAT      O44515   0.489   4.246   4.134
10949WAT     H144516   0.460   4.237   4.216
10949WAT     H244517   0.503   4.164   4.109
10949WAT    EPW44518   0.487   4.233   4.143
10950WAT      O44519   0.807   4.129   3.972
10950WAT     H144520   0.733   4.087   3.992
10950WAT     H244521   0.799   4.206   4.011
10950WAT    EPW44522   0.795   4.134   3.981
10951WAT      O44523   0.756   3.146   5.173
10951WAT     H144524   0.675   3.129   5.203
10951WAT     H244525   0.807   3.097   5.224
10951WAT    EPW44526   0.751   3.136   5.185
10952WAT      O44527   1.920   2.968   5.217
10952WAT     H144528   1.903   2.964   5.302
10952WAT     H244529   2.006   2.955   5.212
10952WAT    EPW44530   1.930   2.966   5.229
10953WAT      O44531   1.131   3.166   5.017
10953WAT     H144532   1.068   3.108   4.999
10953WAT     H244533   1.204   3.120   5.004
10953WAT    EPW44534   1.132   3.151   5.012
10954WAT      O44535   1.350   4.345   5.164
10954WAT     H144536   1.395   4.413   5.194
10954WAT     H244537   1.346   4.360   5.078
10954WAT    EPW44538   1.356   4.357   5.156
10955WAT      O44539   1.393   4.708   5.598
10955WAT     H144540   1.321   4.671   5.565
10955WAT     H244541   1.368   4.790   5.613
10955WAT    EPW44542   1.379   4.714   5.595
10956WAT      O44543   0.870   3.665   5.548
10956WAT     H144544   0.840   3.594   5.508
10956WAT     H244545   0.836   3.730   5.502
10956WAT    EPW44546   0.861   3.664   5.535
10957WAT      O44547   0.993   3.014   4.047
10957WAT     H144548   1.005   3.021   3.960
10957WAT     H244549   0.906   3.016   4.055
10957WAT    EPW44550   0.982   3.015   4.035
10958WAT      O44551   1.882   4.136   5.124
10958WAT     H144552   1.867   4.051   5.108
10958WAT     H244553   1.816   4.176   5.085
10958WAT    EPW44554   1.870   4.129   5.116
10959WAT      O44555   0.777   4.648   5.545
10959WAT     H144556   0.772   4.632   5.631
10959WAT     H244557   0.839   4.594   5.518
10959WAT    EPW44558   0.785   4.638   5.554
10960WAT      O44559   1.824   4.463   5.117
10960WAT     H144560   1.872   4.492   5.051
10960WAT     H244561   1.765   4.412   5.079
10960WAT    EPW44562   1.822   4.460   5.102
10961WAT      O44563   0.502   3.118   5.293
10961WAT     H144564   0.442   3.057   5.275
10961WAT     H244565   0.457   3.193   5.286
10961WAT    EPW44566   0.486   3.120   5.289
10962WAT      O44567   1.376   3.044   4.933
10962WAT     H144568   1.444   3.092   4.960
10962WAT     H244569   1.352   3.083   4.859
10962WAT    EPW44570   1.382   3.057   4.926
10963WAT      O44571   0.517   4.483   5.671
10963WAT     H144572   0.582   4.519   5.717
10963WAT     H244573   0.474   4.551   5.639
10963WAT    EPW44574   0.521   4.498   5.673
10964WAT      O44575   1.338   3.622   4.678
10964WAT     H144576   1.386   3.549   4.687
10964WAT     H244577   1.303   3.633   4.757
10964WAT    EPW44578   1.340   3.613   4.691
10965WAT      O44579   0.363   3.396   4.618
10965WAT     H144580   0.317   3.369   4.686
10965WAT     H244581   0.432   3.343   4.617
10965WAT    EPW44582   0.366   3.385   4.628
10966WAT      O44583   0.376   4.326   5.376
10966WAT     H144584   0.334   4.378   5.434
10966WAT     H244585   0.460   4.339   5.395
10966WAT    EPW44586   0.382   4.336   5.388
10967WAT      O44587   1.511   3.746   4.281
10967WAT     H144588   1.526   3.665   4.310
10967WAT     H244589   1.434   3.739   4.240
10967WAT    EPW44590   1.502   3.733   4.279
10968WAT      O44591   0.500   4.619   4.262
10968WAT     H144592   0.470   4.588   4.187
10968WAT     H244593   0.587   4.612   4.254
10968WAT    EPW44594   0.509   4.614   4.250
10969WAT      O44595   0.893   3.827   4.241
10969WAT     H144596   0.921   3.854   4.163
10969WAT     H244597   0.966   3.810   4.285
10969WAT    EPW44598   0.908   3.828   4.236
10970WAT      O44599   1.805   4.651   3.973
10970WAT     H144600   1.875   4.643   4.024
10970WAT     H244601   1.796   4.572   3.936
10970WAT    EPW44602   1.814   4.638   3.975
10971WAT      O44603   1.824   3.938   5.637
10971WAT     H144604   1.893   3.906   5.681
10971WAT     H244605   1.861   3.978   5.569
10971WAT    EPW44606   1.840   3.939   5.633
10972WAT      O44607   1.442   4.307   4.220
10972WAT     H144608   1.392   4.304   4.292
10972WAT     H244609   1.403   4.251   4.166
10972WAT    EPW44610   1.429   4.298   4.223
10973WAT      O44611   1.850   3.383   5.734
10973WAT     H144612   1.843   3.458   5.778
10973WAT     H244613   1.768   3.365   5.710
10973WAT    EPW44614   1.837   3.391   5.737
10974WAT      O44615   1.939   3.418   5.113
10974WAT     H144616   1.899   3.471   5.056
10974WAT     H244617   1.914   3.338   5.087
10974WAT    EPW44618   1.930   3.414   5.101
10975WAT      O44619   0.816   3.196   5.546
10975WAT     H144620   0.857   3.160   5.478
10975WAT     H244621   0.740   3.152   5.549
10975WAT    EPW44622   0.810   3.184   5.537
10976WAT      O44623   1.592   3.986   5.857
10976WAT     H144624   1.666   4.016   5.893
10976WAT     H244625   1.598   4.010   5.773
10976WAT    EPW44626   1.604   3.994   5.850
10977WAT      O44627   0.501   4.502   4.907
10977WAT     H144628   0.499   4.422   4.872
10977WAT     H244629   0.459   4.551   4.848
10977WAT    EPW44630   0.494   4.497   4.893
10978WAT      O44631   1.102   4.153   4.118
10978WAT     H144632   1.183   4.129   4.096
10978WAT     H244633   1.088   4.224   4.069
10978WAT    EPW44634   1.112   4.160   4.107
10979WAT      O44635   0.327   4.750   5.292
10979WAT     H144636   0.329   4.722   5.374
10979WAT     H244637   0.355   4.681   5.245
10979WAT    EPW44638   0.331   4.736   5.297
10980WAT      O44639   1.274   2.991   2.593
10980WAT     H144640   1.278   3.034   2.518
10980WAT     H244641   1.357   2.970   2.609
10980WAT    EPW44642   1.287   2.994   2.584
10981WAT      O44643   1.221   3.623   3.045
10981WAT     H144644   1.187   3.699   3.072
10981WAT     H244645   1.278   3.604   3.108
10981WAT    EPW44646   1.225   3.631   3.059
10982WAT      O44647   1.846   4.463   2.352
10982WAT     H144648   1.905   4.404   2.379
10982WAT     H244649   1.795   4.417   2.298
10982WAT    EPW44650   1.847   4.447   2.348
10983WAT      O44651   0.564   3.993   2.135
10983WAT     H144652   0.504   3.980   2.074
10983WAT     H244653   0.539   3.942   2.200
10983WAT    EPW44654   0.552   3.984   2.135
10984WAT      O44655   1.481   3.807   2.698
10984WAT     H144656   1.490   3.796   2.611
10984WAT     H244657   1.426   3.744   2.721
10984WAT    EPW44658   1.475   3.796   2.688
10985WAT      O44659   0.386   4.237   2.494
10985WAT     H144660   0.443   4.192   2.543
10985WAT     H244661   0.311   4.195   2.505
10985WAT    EPW44662   0.383   4.224   2.503
10986WAT      O44663   0.943   3.117   2.477
10986WAT     H144664   0.929   3.188   2.429
10986WAT     H244665   1.021   3.088   2.449
10986WAT    EPW44666   0.952   3.123   2.466
10987WAT      O44667   0.403   4.488   2.129
10987WAT     H144668   0.427   4.481   2.046
10987WAT     H244669   0.416   4.408   2.161
10987WAT    EPW44670   0.408   4.475   2.122
10988WAT      O44671   0.878   4.140   3.703
10988WAT     H144672   0.861   4.132   3.789
10988WAT     H244673   0.804   4.114   3.665
10988WAT    EPW44674   0.865   4.135   3.710
10989WAT      O44675   0.420   3.817   2.618
10989WAT     H144676   0.351   3.768   2.595
10989WAT     H244677   0.472   3.760   2.659
10989WAT    EPW44678   0.417   3.801   2.621
10990WAT      O44679   0.832   3.402   3.250
10990WAT     H144680   0.899   3.412   3.195
10990WAT     H244681   0.819   3.316   3.251
10990WAT    EPW44682   0.840   3.391   3.242
10991WAT      O44683   0.876   4.473   3.430
10991WAT     H144684   0.891   4.524   3.361
10991WAT     H244685   0.955   4.439   3.447
10991WAT    EPW44686   0.890   4.476   3.422
10992WAT      O44687   0.542   3.611   2.760
10992WAT     H144688   0.617   3.566   2.761
10992WAT     H244689   0.481   3.550   2.753
10992WAT    EPW44690   0.544   3.595   2.759
10993WAT      O44691   0.971   4.252   2.855
10993WAT     H144692   0.999   4.171   2.871
10993WAT     H244693   1.044   4.298   2.843
10993WAT    EPW44694   0.986   4.247   2.856
10994WAT      O44695   1.021   4.186   2.485
10994WAT     H144696   1.061   4.124   2.531
10994WAT     H244697   1.044   4.168   2.403
10994WAT    EPW44698   1.030   4.174   2.480
10995WAT      O44699   1.151   3.672   3.646
10995WAT     H144700   1.064   3.670   3.639
10995WAT     H244701   1.166   3.722   3.716
10995WAT    EPW44702   1.141   3.679   3.655
10996WAT      O44703   0.663   3.084   2.515
10996WAT     H144704   0.629   3.149   2.468
10996WAT     H244705   0.748   3.089   2.498
10996WAT    EPW44706   0.671   3.094   2.505
10997WAT      O44707   1.648   2.922   3.550
10997WAT     H144708   1.617   2.985   3.497
10997WAT     H244709   1.577   2.894   3.592
10997WAT    EPW44710   1.633   2.927   3.548
10998WAT      O44711   0.957   3.060   2.754
10998WAT     H144712   0.972   3.142   2.782
10998WAT     H244713   0.942   3.070   2.669
10998WAT    EPW44714   0.957   3.074   2.746
10999WAT      O44715   1.396   3.314   1.986
10999WAT     H144716   1.346   3.378   2.016
10999WAT     H244717   1.407   3.263   2.056
10999WAT    EPW44718   1.390   3.316   2.001
11000WAT      O44719   0.805   4.364   2.478
11000WAT     H144720   0.763   4.344   2.552
11000WAT     H244721   0.877   4.315   2.482
11000WAT    EPW44722   0.809   4.353   2.490
11001WAT      O44723   1.390   4.579   2.267
11001WAT     H144724   1.461   4.629   2.273
11001WAT     H244725   1.419   4.499   2.287
11001WAT    EPW44726   1.405   4.575   2.271
11002WAT      O44727   1.195   4.611   2.457
11002WAT     H144728   1.218   4.682   2.502
11002WAT     H244729   1.257   4.603   2.397
11002WAT    EPW44730   1.207   4.620   2.455
11003WAT      O44731   0.459   3.066   2.958
11003WAT     H144732   0.419   2.995   2.927
11003WAT     H244733   0.519   3.033   3.013
11003WAT    EPW44734   0.462   3.050   2.961
11004WAT      O44735   0.829   3.303   3.916
11004WAT     H144736   0.833   3.273   3.834
11004WAT     H244737   0.864   3.383   3.910
11004WAT    EPW44738   0.835   3.311   3.903
11005WAT      O44739   0.337   4.505   2.571
11005WAT     H144740   0.354   4.420   2.559
11005WAT     H244741   0.373   4.543   2.501
11005WAT    EPW44742   0.345   4.498   2.559
11006WAT      O44743   1.941   3.273   2.711
11006WAT     H144744   1.892   3.345   2.717
11006WAT     H244745   1.883   3.209   2.701
11006WAT    EPW44746   1.925   3.274   2.711
11007WAT      O44747   1.423   4.574   3.292
11007WAT     H144748   1.482   4.638   3.289
11007WAT     H244749   1.405   4.558   3.208
11007WAT    EPW44750   1.429   4.581   3.279
11008WAT      O44751   0.432   3.231   3.773
11008WAT     H144752   0.366   3.245   3.718
11008WAT     H244753   0.483   3.175   3.730
11008WAT    EPW44754   0.430   3.225   3.759
11009WAT      O44755   0.490   4.245   2.897
11009WAT     H144756   0.552   4.248   2.835
11009WAT     H244757   0.531   4.209   2.965
11009WAT    EPW44758   0.505   4.240   2.898
11010WAT      O44759   0.773   4.577   2.812
11010WAT     H144760   0.852   4.596   2.780
11010WAT     H244761   0.719   4.624   2.761
11010WAT    EPW44762   0.777   4.587   2.800
11011WAT      O44763   1.034   3.022   3.774
11011WAT     H144764   1.056   2.947   3.736
11011WAT     H244765   0.972   3.054   3.721
11011WAT    EPW44766   1.028   3.016   3.760
11012WAT      O44767   1.122   3.531   2.619
11012WAT     H144768   1.151   3.493   2.546
11012WAT     H244769   1.195   3.546   2.664
11012WAT    EPW44770   1.137   3.528   2.615
11013WAT      O44771   1.219   3.508   2.107
11013WAT     H144772   1.244   3.587   2.136
11013WAT     H244773   1.141   3.522   2.072
11013WAT    EPW44774   1.212   3.522   2.106
11014WAT      O44775   1.600   4.768   2.248
11014WAT     H144776   1.650   4.745   2.181
11014WAT     H244777   1.655   4.813   2.299
11014WAT    EPW44778   1.616   4.772   2.246
11015WAT      O44779   0.657   4.687   3.372
11015WAT     H144780   0.694   4.652   3.443
11015WAT     H244781   0.593   4.630   3.353
11015WAT    EPW44782   0.653   4.673   3.380
11016WAT      O44783   1.861   3.180   3.112
11016WAT     H144784   1.929   3.174   3.057
11016WAT     H244785   1.881   3.123   3.175
11016WAT    EPW44786   1.874   3.170   3.113
11017WAT      O44787   1.343   4.378   3.630
11017WAT     H144788   1.331   4.396   3.714
11017WAT     H244789   1.429   4.373   3.621
11017WAT    EPW44790   1.354   4.380   3.641
11018WAT      O44791   1.084   4.398   2.075
11018WAT     H144792   1.053   4.459   2.129
11018WAT     H244793   1.162   4.429   2.052
11018WAT    EPW44794   1.091   4.412   2.079
11019WAT      O44795   1.427   3.143   2.205
11019WAT     H144796   1.480   3.074   2.213
11019WAT     H244797   1.444   3.189   2.277
11019WAT    EPW44798   1.438   3.139   2.217
11020WAT      O44799   0.272   3.303   2.463
11020WAT     H144800   0.203   3.250   2.469
11020WAT     H244801   0.290   3.323   2.547
11020WAT    EPW44802   0.264   3.298   2.477
11021WAT      O44803   0.446   4.526   3.282
11021WAT     H144804   0.416   4.450   3.314
11021WAT     H244805   0.454   4.510   3.197
11021WAT    EPW44806   0.443   4.512   3.275
11022WAT      O44807   1.185   3.413   2.370
11022WAT     H144808   1.109   3.371   2.357
11022WAT     H244809   1.203   3.447   2.292
11022WAT    EPW44810   1.176   3.411   2.357
11023WAT      O44811   1.184   4.686   3.370
11023WAT     H144812   1.260   4.649   3.346
11023WAT     H244813   1.129   4.661   3.307
11023WAT    EPW44814   1.187   4.677   3.357
11024WAT      O44815   1.189   3.070   2.332
11024WAT     H144816   1.130   3.056   2.269
11024WAT     H244817   1.260   3.095   2.288
11024WAT    EPW44818   1.191   3.072   2.316
11025WAT      O44819   1.888   4.680   2.636
11025WAT     H144820   1.851   4.757   2.657
11025WAT     H244821   1.820   4.629   2.619
11025WAT    EPW44822   1.872   4.684   2.636
11026WAT      O44823   1.016   3.337   2.792
11026WAT     H144824   1.042   3.402   2.739
11026WAT     H244825   1.022   3.371   2.872
11026WAT    EPW44826   1.021   3.351   2.796
11027WAT      O44827   1.554   4.266   2.571
11027WAT     H144828   1.628   4.221   2.582
11027WAT     H244829   1.496   4.223   2.620
11027WAT    EPW44830   1.556   4.253   2.580
11028WAT      O44831   0.639   4.361   3.549
11028WAT     H144832   0.712   4.402   3.524
11028WAT     H244833   0.619   4.399   3.625
11028WAT    EPW44834   0.647   4.373   3.557
11029WAT      O44835   0.598   2.853   2.665
11029WAT     H144836   0.619   2.916   2.607
11029WAT     H244837   0.549   2.798   2.618
11029WAT    EPW44838   0.594   2.855   2.649
11030WAT      O44839   0.786   3.945   3.009
11030WAT     H144840   0.819   3.944   3.090
11030WAT     H244841   0.740   3.871   3.004
11030WAT    EPW44842   0.784   3.934   3.020
11031WAT      O44843   1.358   3.316   3.389
11031WAT     H144844   1.356   3.360   3.464
11031WAT     H244845   1.292   3.258   3.397
11031WAT    EPW44846   1.348   3.314   3.401
11032WAT      O44847   0.895   3.977   3.259
11032WAT     H144848   0.881   4.062   3.271
11032WAT     H244849   0.858   3.940   3.329
11032WAT    EPW44850   0.888   3.984   3.271
11033WAT      O44851   1.520   4.030   3.245
11033WAT     H144852   1.443   4.008   3.281
11033WAT     H244853   1.530   4.113   3.268
11033WAT    EPW44854   1.510   4.039   3.254
11034WAT      O44855   1.529   2.905   2.677
11034WAT     H144856   1.528   2.891   2.763
11034WAT     H244857   1.564   2.831   2.645
11034WAT    EPW44858   1.534   2.892   2.685
11035WAT      O44859   1.740   3.361   3.467
11035WAT     H144860   1.825   3.344   3.476
11035WAT     H244861   1.709   3.356   3.548
11035WAT    EPW44862   1.748   3.358   3.480
11036WAT      O44863   0.568   3.214   2.745
11036WAT     H144864   0.595   3.159   2.683
11036WAT     H244865   0.541   3.161   2.808
11036WAT    EPW44866   0.568   3.198   2.745
11037WAT      O44867   1.810   4.064   2.203
11037WAT     H144868   1.808   4.015   2.276
11037WAT     H244869   1.895   4.075   2.188
11037WAT    EPW44870   1.822   4.058   2.212
11038WAT      O44871   0.544   4.065   2.634
11038WAT     H144872   0.625   4.058   2.602
11038WAT     H244873   0.512   3.984   2.624
11038WAT    EPW44874   0.552   4.052   2.627
11039WAT      O44875   0.387   4.662   2.806
11039WAT     H144876   0.340   4.611   2.754
11039WAT     H244877   0.457   4.682   2.758
11039WAT    EPW44878   0.391   4.657   2.791
11040WAT      O44879   0.369   3.464   3.129
11040WAT     H144880   0.453   3.455   3.108
11040WAT     H244881   0.355   3.550   3.122
11040WAT    EPW44882   0.380   3.475   3.125
11041WAT      O44883   2.060   4.482   3.636
11041WAT     H144884   1.986   4.489   3.591
11041WAT     H244885   2.043   4.420   3.695
11041WAT    EPW44886   2.047   4.474   3.638
11042WAT      O44887   1.616   3.723   2.140
11042WAT     H144888   1.610   3.805   2.110
11042WAT     H244889   1.585   3.729   2.222
11042WAT    EPW44890   1.610   3.736   2.148
11043WAT      O44891   0.789   4.022   2.511
11043WAT     H144892   0.855   4.078   2.502
11043WAT     H244893   0.808   3.958   2.456
11043WAT    EPW44894   0.801   4.021   2.502
11044WAT      O44895   1.937   3.198   2.156
11044WAT     H144896   1.980   3.133   2.117
11044WAT     H244897   1.909   3.247   2.089
11044WAT    EPW44898   1.939   3.196   2.140
11045WAT      O44899   0.946   3.555   3.908
11045WAT     H144900   0.899   3.584   3.975
11045WAT     H244901   0.917   3.602   3.840
11045WAT    EPW44902   0.935   3.566   3.908
11046WAT      O44903   2.008   3.641   3.361
11046WAT     H144904   2.022   3.580   3.300
11046WAT     H244905   1.922   3.656   3.355
11046WAT    EPW44906   1.997   3.634   3.351
11047WAT      O44907   1.792   3.080   2.368
11047WAT     H144908   1.865   3.039   2.390
11047WAT     H244909   1.817   3.134   2.305
11047WAT    EPW44910   1.806   3.082   2.362
11048WAT      O44911   1.184   4.426   2.824
11048WAT     H144912   1.138   4.497   2.802
11048WAT     H244913   1.216   4.398   2.748
11048WAT    EPW44914   1.182   4.432   2.809
11049WAT      O44915   0.609   4.128   3.117
11049WAT     H144916   0.662   4.172   3.170
11049WAT     H244917   0.662   4.073   3.075
11049WAT    EPW44918   0.624   4.126   3.119
11050WAT      O44919   1.486   3.350   2.820
11050WAT     H144920   1.519   3.310   2.890
11050WAT     H244921   1.422   3.298   2.794
11050WAT    EPW44922   1.482   3.337   2.827
11051WAT      O44923   0.363   3.979   2.880
11051WAT     H144924   0.373   3.939   2.803
11051WAT     H244925   0.396   4.059   2.866
11051WAT    EPW44926   0.369   3.985   2.866
11052WAT      O44927   0.924   3.325   2.295
11052WAT     H144928   0.912   3.297   2.213
11052WAT     H244929   0.886   3.404   2.295
11052WAT    EPW44930   0.917   3.332   2.283
11053WAT      O44931   1.813   4.506   3.498
11053WAT     H144932   1.765   4.574   3.525
11053WAT     H244933   1.810   4.513   3.411
11053WAT    EPW44934   1.805   4.517   3.489
11054WAT      O44935   0.720   4.316   2.740
11054WAT     H144936   0.727   4.400   2.764
11054WAT     H244937   0.793   4.279   2.770
11054WAT    EPW44938   0.732   4.323   2.748
11055WAT      O44939   0.523   3.692   3.749
11055WAT     H144940   0.493   3.627   3.798
11055WAT     H244941   0.518   3.661   3.668
11055WAT    EPW44942   0.518   3.678   3.744
11056WAT      O44943   0.531   3.550   2.265
11056WAT     H144944   0.532   3.475   2.310
11056WAT     H244945   0.499   3.528   2.188
11056WAT    EPW44946   0.526   3.536   2.261
11057WAT      O44947   0.627   3.717   3.012
11057WAT     H144948   0.587   3.716   2.935
11057WAT     H244949   0.644   3.633   3.028
11057WAT    EPW44950   0.624   3.705   3.003
11058WAT      O44951   0.555   3.763   3.281
11058WAT     H144952   0.588   3.742   3.203
11058WAT     H244953   0.495   3.823   3.263
11058WAT    EPW44954   0.551   3.769   3.267
11059WAT      O44955   1.626   3.496   3.097
11059WAT     H144956   1.559   3.523   3.147
11059WAT     H244957   1.624   3.551   3.029
11059WAT    EPW44958   1.616   3.508   3.094
11060WAT      O44959   0.967   4.621   3.205
11060WAT     H144960   0.949   4.555   3.152
11060WAT     H244961   0.954   4.692   3.156
11060WAT    EPW44962   0.963   4.622   3.190
11061WAT      O44963   1.203   3.087   3.456
11061WAT     H144964   1.224   3.007   3.427
11061WAT     H244965   1.238   3.089   3.536
11061WAT    EPW44966   1.211   3.075   3.464
11062WAT      O44967   1.430   3.289   2.437
11062WAT     H144968   1.486   3.354   2.450
11062WAT     H244969   1.354   3.330   2.424
11062WAT    EPW44970   1.427   3.304   2.437
11063WAT      O44971   0.397   3.931   3.823
11063WAT     H144972   0.377   3.976   3.751
11063WAT     H244973   0.429   3.856   3.793
11063WAT    EPW44974   0.399   3.926   3.808
11064WAT      O44975   1.560   4.080   3.690
11064WAT     H144976   1.584   4.161   3.669
11064WAT     H244977   1.592   4.031   3.624
11064WAT    EPW44978   1.568   4.085   3.677
11065WAT      O44979   0.960   4.411   3.723
11065WAT     H144980   0.991   4.408   3.805
11065WAT     H244981   0.933   4.330   3.708
11065WAT    EPW44982   0.961   4.399   3.733
11066WAT      O44983   1.030   3.420   3.054
11066WAT     H144984   1.092   3.480   3.060
11066WAT     H244985   1.069   3.348   3.085
11066WAT    EPW44986   1.045   3.418   3.059
11067WAT      O44987   1.288   3.743   2.249
11067WAT     H144988   1.271   3.803   2.189
11067WAT     H244989   1.228   3.758   2.311
11067WAT    EPW44990   1.277   3.754   2.250
11068WAT      O44991   1.784   4.114   2.606
11068WAT     H144992   1.809   4.083   2.684
11068WAT     H244993   1.782   4.043   2.555
11068WAT    EPW44994   1.787   4.099   2.610
11069WAT      O44995   1.357   4.508   3.031
11069WAT     H144996   1.301   4.477   2.971
11069WAT     H244997   1.405   4.565   2.986
11069WAT    EPW44998   1.356   4.512   3.015
11070WAT      O44999   1.419   4.136   2.999
11070WAT     H145000   1.354   4.179   3.037
11070WAT     H245001   1.452   4.087   3.064
11070WAT    EPW45002   1.414   4.135   3.015
11071WAT      O45003   0.774   4.622   2.385
11071WAT     H145004   0.780   4.549   2.433
11071WAT     H245005   0.846   4.620   2.335
11071WAT    EPW45006   0.786   4.611   2.385
11072WAT      O45007   0.718   2.978   2.179
11072WAT     H145008   0.692   2.951   2.258
11072WAT     H245009   0.666   3.046   2.163
11072WAT    EPW45010   0.706   2.984   2.189
11073WAT      O45011   1.011   4.604   2.246
11073WAT     H145012   1.067   4.609   2.313
11073WAT     H245013   1.017   4.682   2.209
11073WAT    EPW45014   1.020   4.616   2.251
11074WAT      O45015   1.643   3.928   3.468
11074WAT     H145016   1.609   3.962   3.395
11074WAT     H245017   1.728   3.946   3.462
11074WAT    EPW45018   1.650   3.936   3.456
11075WAT      O45019   1.329   4.502   3.897
11075WAT     H145020   1.354   4.528   3.977
11075WAT     H245021   1.354   4.569   3.846
11075WAT    EPW45022   1.337   4.516   3.901
11076WAT      O45023   1.785   3.050   3.759
11076WAT     H145024   1.746   3.015   3.690
11076WAT     H245025   1.781   2.986   3.819
11076WAT    EPW45026   1.779   3.035   3.758
11077WAT      O45027   0.485   3.821   2.336
11077WAT     H145028   0.497   3.736   2.320
11077WAT     H245029   0.472   3.823   2.422
11077WAT    EPW45030   0.485   3.808   2.346
11078WAT      O45031   1.275   3.964   3.367
11078WAT     H145032   1.220   3.994   3.429
11078WAT     H245033   1.307   3.891   3.402
11078WAT    EPW45034   1.271   3.958   3.382
11079WAT      O45035   1.126   3.774   2.476
11079WAT     H145036   1.136   3.840   2.532
11079WAT     H245037   1.115   3.705   2.527
11079WAT    EPW45038   1.126   3.774   2.492
11080WAT      O45039   1.641   4.320   3.053
11080WAT     H145040   1.587   4.270   3.006
11080WAT     H245041   1.714   4.272   3.059
11080WAT    EPW45042   1.644   4.306   3.047
11081WAT      O45043   0.584   3.211   2.111
11081WAT     H145044   0.531   3.214   2.041
11081WAT     H245045   0.657   3.250   2.083
11081WAT    EPW45046   0.587   3.217   2.096
11082WAT      O45047   1.038   3.984   2.897
11082WAT     H145048   0.955   3.965   2.916
11082WAT     H245049   1.082   3.955   2.967
11082WAT    EPW45050   1.033   3.977   2.910
11083WAT      O45051   0.721   4.591   2.019
11083WAT     H145052   0.738   4.525   2.073
11083WAT     H245053   0.719   4.661   2.071
11083WAT    EPW45054   0.724   4.592   2.035
11084WAT      O45055   0.391   3.959   3.160
11084WAT     H145056   0.454   4.020   3.160
11084WAT     H245057   0.370   3.952   3.075
11084WAT    EPW45058   0.397   3.967   3.147
11085WAT      O45059   0.743   3.415   2.807
11085WAT     H145060   0.826   3.391   2.793
11085WAT     H245061   0.697   3.346   2.782
11085WAT    EPW45062   0.749   3.401   2.801
11086WAT      O45063   2.003   4.645   2.217
11086WAT     H145064   2.073   4.600   2.190
11086WAT     H245065   1.957   4.585   2.260
11086WAT    EPW45066   2.007   4.629   2.219
11087WAT      O45067   0.249   3.606   2.552
11087WAT     H145068   0.272   3.545   2.610
11087WAT     H245069   0.237   3.561   2.478
11087WAT    EPW45070   0.251   3.590   2.550
11088WAT      O45071   1.714   3.803   3.135
11088WAT     H145072   1.709   3.753   3.206
11088WAT     H245073   1.685   3.881   3.162
11088WAT    EPW45074   1.709   3.807   3.149
11089WAT      O45075   0.734   3.800   2.014
11089WAT     H145076   0.680   3.854   2.056
11089WAT     H245077   0.683   3.763   1.954
11089WAT    EPW45078   0.718   3.803   2.012
11090WAT      O45079   0.362   4.060   3.573
11090WAT     H145080   0.317   4.011   3.517
11090WAT     H245081   0.353   4.141   3.541
11090WAT    EPW45082   0.354   4.065   3.560
11091WAT      O45083   1.980   3.834   3.025
11091WAT     H145084   1.902   3.808   3.053
11091WAT     H245085   1.984   3.918   3.048
11091WAT    EPW45086   1.969   3.843   3.032
11092WAT      O45087   0.808   3.576   2.257
11092WAT     H145088   0.828   3.655   2.290
11092WAT     H245089   0.721   3.576   2.257
11092WAT    EPW45090   0.798   3.588   2.262
11093WAT      O45091   1.654   3.310   3.736
11093WAT     H145092   1.576   3.317   3.775
11093WAT     H245093   1.676   3.227   3.749
11093WAT    EPW45094   1.645   3.299   3.744
11094WAT      O45095   0.266   3.279   2.946
11094WAT     H145096   0.317   3.209   2.960
11094WAT     H245097   0.287   3.333   3.011
11094WAT    EPW45098   0.277   3.276   2.958
11095WAT      O45099   1.994   4.548   3.049
11095WAT     H145100   2.023   4.535   2.968
11095WAT     H245101   2.041   4.492   3.097
11095WAT    EPW45102   2.005   4.537   3.044
11096WAT      O45103   1.475   3.660   3.815
11096WAT     H145104   1.520   3.665   3.890
11096WAT     H245105   1.403   3.706   3.831
11096WAT    EPW45106   1.471   3.668   3.828
11097WAT      O45107   1.708   3.688   3.652
11097WAT     H145108   1.734   3.769   3.669
11097WAT     H245109   1.636   3.678   3.700
11097WAT    EPW45110   1.701   3.698   3.662
11098WAT      O45111   1.688   4.311   2.189
11098WAT     H145112   1.720   4.231   2.197
11098WAT     H245113   1.609   4.306   2.226
11098WAT    EPW45114   1.681   4.299   2.196
11099WAT      O45115   1.725   3.461   2.731
11099WAT     H145116   1.656   3.415   2.759
11099WAT     H245117   1.721   3.535   2.777
11099WAT    EPW45118   1.714   3.465   2.742
11100WAT      O45119   2.035   3.756   3.834
11100WAT     H145120   2.037   3.702   3.766
11100WAT     H245121   2.115   3.792   3.833
11100WAT    EPW45122   2.047   3.753   3.824
11101WAT      O45123   1.905   4.011   3.438
11101WAT     H145124   1.981   3.970   3.426
11101WAT     H245125   1.900   4.064   3.369
11101WAT    EPW45126   1.915   4.013   3.426
11102WAT      O45127   1.348   4.096   2.140
11102WAT     H145128   1.426   4.058   2.129
11102WAT     H245129   1.318   4.105   2.058
11102WAT    EPW45130   1.355   4.091   2.126
11103WAT      O45131   0.817   4.253   3.257
11103WAT     H145132   0.825   4.309   3.323
11103WAT     H245133   0.832   4.302   3.186
11103WAT    EPW45134   0.820   4.268   3.256
11104WAT      O45135   0.641   4.084   3.565
11104WAT     H145136   0.556   4.065   3.576
11104WAT     H245137   0.641   4.170   3.551
11104WAT    EPW45138   0.628   4.094   3.564
11105WAT      O45139   1.582   3.145   3.386
11105WAT     H145140   1.639   3.209   3.399
11105WAT     H245141   1.505   3.186   3.380
11105WAT    EPW45142   1.579   3.160   3.387
11106WAT      O45143   1.127   3.872   3.146
11106WAT     H145144   1.184   3.894   3.208
11106WAT     H245145   1.050   3.894   3.179
11106WAT    EPW45146   1.124   3.878   3.160
11107WAT      O45147   0.759   3.453   3.513
11107WAT     H145148   0.772   3.377   3.553
11107WAT     H245149   0.789   3.439   3.432
11107WAT    EPW45150   0.766   3.440   3.507
11108WAT      O45151   1.029   4.635   2.714
11108WAT     H145152   1.031   4.721   2.729
11108WAT     H245153   1.053   4.628   2.631
11108WAT    EPW45154   1.033   4.647   2.704
11109WAT      O45155   1.651   2.935   3.205
11109WAT     H145156   1.624   3.009   3.243
11109WAT     H245157   1.736   2.933   3.225
11109WAT    EPW45158   1.660   2.946   3.214
11110WAT      O45159   0.931   3.040   3.477
11110WAT     H145160   1.015   3.058   3.460
11110WAT     H245161   0.930   2.953   3.485
11110WAT    EPW45162   0.943   3.029   3.476
11111WAT      O45163   0.860   4.424   3.040
11111WAT     H145164   0.815   4.475   2.987
11111WAT     H245165   0.900   4.368   2.986
11111WAT    EPW45166   0.859   4.423   3.024
11112WAT      O45167   1.294   4.069   3.765
11112WAT     H145168   1.374   4.077   3.731
11112WAT     H245169   1.241   4.090   3.699
11112WAT    EPW45170   1.298   4.073   3.750
11113WAT      O45171   1.625   4.347   3.640
11113WAT     H145172   1.663   4.368   3.715
11113WAT     H245173   1.677   4.381   3.580
11113WAT    EPW45174   1.638   4.355   3.642
11114WAT      O45175   1.869   3.614   2.112
11114WAT     H145176   1.916   3.672   2.067
11114WAT     H245177   1.789   3.647   2.111
11114WAT    EPW45178   1.864   3.627   2.105
11115WAT      O45179   0.983   3.897   2.088
11115WAT     H145180   0.910   3.866   2.052
11115WAT     H245181   0.969   3.982   2.095
11115WAT    EPW45182   0.970   3.905   2.084
11116WAT      O45183   0.638   3.450   3.062
11116WAT     H145184   0.677   3.428   2.987
11116WAT     H245185   0.699   3.432   3.122
11116WAT    EPW45186   0.653   3.444   3.060
11117WAT      O45187   1.363   3.506   3.599
11117WAT     H145188   1.286   3.544   3.611
11117WAT     H245189   1.406   3.521   3.674
11117WAT    EPW45190   1.358   3.514   3.612
11118WAT      O45191   1.400   3.553   3.244
11118WAT     H145192   1.410   3.612   3.308
11118WAT     H245193   1.383   3.479   3.287
11118WAT    EPW45194   1.399   3.551   3.260
11119WAT      O45195   1.120   4.629   3.634
11119WAT     H145196   1.135   4.627   3.548
11119WAT     H245197   1.083   4.551   3.649
11119WAT    EPW45198   1.117   4.617   3.623
11120WAT      O45199   1.610   3.505   2.481
11120WAT     H145200   1.637   3.489   2.562
11120WAT     H245201   1.682   3.532   2.440
11120WAT    EPW45202   1.624   3.506   2.487
11121WAT      O45203   0.919   2.983   3.036
11121WAT     H145204   0.834   2.980   3.056
11121WAT     H245205   0.919   2.990   2.949
11121WAT    EPW45206   0.906   2.984   3.026
11122WAT      O45207   1.746   3.081   2.645
11122WAT     H145208   1.670   3.043   2.660
11122WAT     H245209   1.745   3.097   2.559
11122WAT    EPW45210   1.735   3.078   2.634
11123WAT      O45211   1.758   3.900   2.427
11123WAT     H145212   1.802   3.825   2.425
11123WAT     H245213   1.674   3.876   2.425
11123WAT    EPW45214   1.752   3.886   2.426
11124WAT      O45215   1.114   4.103   3.554
11124WAT     H145216   1.039   4.098   3.599
11124WAT     H245217   1.115   4.185   3.524
11124WAT    EPW45218   1.103   4.114   3.556
11125WAT      O45219   0.644   4.750   3.089
11125WAT     H145220   0.652   4.744   3.176
11125WAT     H245221   0.621   4.670   3.064
11125WAT    EPW45222   0.642   4.738   3.098
11126WAT      O45223   0.535   3.290   2.373
11126WAT     H145224   0.540   3.261   2.291
11126WAT     H245225   0.451   3.285   2.392
11126WAT    EPW45226   0.524   3.285   2.364
11127WAT      O45227   1.404   4.076   2.726
11127WAT     H145228   1.407   4.096   2.811
11127WAT     H245229   1.436   3.995   2.723
11127WAT    EPW45230   1.409   4.067   2.738
11128WAT      O45231   1.151   3.997   2.641
11128WAT     H145232   1.110   3.988   2.718
11128WAT     H245233   1.229   4.028   2.663
11128WAT    EPW45234   1.156   4.000   2.656
11129WAT      O45235   1.131   4.358   3.447
11129WAT     H145236   1.202   4.373   3.497
11129WAT     H245237   1.165   4.332   3.371
11129WAT    EPW45238   1.147   4.356   3.443
11130WAT      O45239   1.964   3.575   3.628
11130WAT     H145240   1.882   3.605   3.630
11130WAT     H245241   1.993   3.601   3.550
11130WAT    EPW45242   1.956   3.583   3.617
11131WAT      O45243   1.423   3.742   3.449
11131WAT     H145244   1.408   3.682   3.510
11131WAT     H245245   1.498   3.778   3.474
11131WAT    EPW45246   1.432   3.739   3.462
11132WAT      O45247   0.376   4.700   3.667
11132WAT     H145248   0.320   4.735   3.723
11132WAT     H245249   0.440   4.759   3.663
11132WAT    EPW45250   0.377   4.714   3.675
11133WAT      O45251   1.222   3.825   3.871
11133WAT     H145252   1.248   3.901   3.837
11133WAT     H245253   1.142   3.843   3.901
11133WAT    EPW45254   1.214   3.839   3.870
11134WAT      O45255   1.518   4.709   2.926
11134WAT     H145256   1.482   4.774   2.971
11134WAT     H245257   1.586   4.685   2.975
11134WAT    EPW45258   1.523   4.715   2.940
11135WAT      O45259   1.251   4.224   3.230
11135WAT     H145260   1.251   4.146   3.269
11135WAT     H245261   1.331   4.255   3.249
11135WAT    EPW45262   1.263   4.217   3.239
11136WAT      O45263   1.778   4.392   3.870
11136WAT     H145264   1.847   4.344   3.847
11136WAT     H245265   1.749   4.353   3.942
11136WAT    EPW45266   1.784   4.379   3.877
11137WAT      O45267   0.513   3.578   3.493
11137WAT     H145268   0.520   3.635   3.427
11137WAT     H245269   0.592   3.540   3.496
11137WAT    EPW45270   0.526   3.581   3.484
11138WAT      O45271   0.373   3.361   3.391
11138WAT     H145272   0.358   3.387   3.309
11138WAT     H245273   0.410   3.430   3.428
11138WAT    EPW45274   0.376   3.375   3.384
11139WAT      O45275   1.837   3.635   2.389
11139WAT     H145276   1.857   3.630   2.304
11139WAT     H245277   1.909   3.604   2.429
11139WAT    EPW45278   1.851   3.629   2.383
11140WAT      O45279   0.588   3.031   3.633
11140WAT     H145280   0.645   2.966   3.623
11140WAT     H245281   0.567   3.053   3.551
11140WAT    EPW45282   0.593   3.025   3.619
11141WAT      O45283   1.234   4.352   2.563
11141WAT     H145284   1.224   4.430   2.524
11141WAT     H245285   1.165   4.307   2.534
11141WAT    EPW45286   1.222   4.357   2.553
11142WAT      O45287   1.730   3.637   3.373
11142WAT     H145288   1.723   3.550   3.382
11142WAT     H245289   1.710   3.668   3.452
11142WAT    EPW45290   1.726   3.628   3.386
11143WAT      O45291   0.224   3.920   3.377
11143WAT     H145292   0.271   3.935   3.304
11143WAT     H245293   0.142   3.925   3.349
11143WAT    EPW45294   0.219   3.923   3.362
11144WAT      O45295   0.415   3.482   2.014
11144WAT     H145296   0.328   3.487   2.022
11144WAT     H245297   0.427   3.407   1.971
11144WAT    EPW45298   0.404   3.471   2.009
11145WAT      O45299   1.294   3.111   3.719
11145WAT     H145300   1.324   3.180   3.764
11145WAT     H245301   1.214   3.099   3.753
11145WAT    EPW45302   1.286   3.119   3.731
11146WAT      O45303   1.261   3.189   2.788
11146WAT     H145304   1.185   3.231   2.784
11146WAT     H245305   1.255   3.129   2.726
11146WAT    EPW45306   1.249   3.186   2.778
11147WAT      O45307   0.737   4.367   2.197
11147WAT     H145308   0.767   4.370   2.279
11147WAT     H245309   0.657   4.334   2.206
11147WAT    EPW45310   0.730   4.362   2.210
11148WAT      O45311   1.587   3.228   3.050
11148WAT     H145312   1.667   3.195   3.059
11148WAT     H245313   1.595   3.310   3.079
11148WAT    EPW45314   1.600   3.235   3.056
11149WAT      O45315   0.754   3.852   3.463
11149WAT     H145316   0.717   3.923   3.499
11149WAT     H245317   0.692   3.821   3.411
11149WAT    EPW45318   0.739   3.858   3.461
11150WAT      O45319   1.653   3.684   2.888
11150WAT     H145320   1.672   3.738   2.954
11150WAT     H245321   1.606   3.734   2.834
11150WAT    EPW45322   1.649   3.699   2.890
11151WAT      O45323   1.660   4.531   2.549
11151WAT     H145324   1.622   4.455   2.569
11151WAT     H245325   1.712   4.512   2.482
11151WAT    EPW45326   1.662   4.517   2.542
11152WAT      O45327   0.490   4.247   2.234
11152WAT     H145328   0.462   4.238   2.317
11152WAT     H245329   0.505   4.164   2.209
11152WAT    EPW45330   0.488   4.233   2.243
11153WAT      O45331   0.807   4.131   2.057
11153WAT     H145332   0.734   4.089   2.079
11153WAT     H245333   0.801   4.206   2.101
11153WAT    EPW45334   0.795   4.136   2.067
11154WAT      O45335   0.762   3.140   3.275
11154WAT     H145336   0.681   3.126   3.303
11154WAT     H245337   0.811   3.096   3.332
11154WAT    EPW45338   0.758   3.132   3.287
11155WAT      O45339   1.911   2.997   3.319
11155WAT     H145340   1.887   3.017   3.401
11155WAT     H245341   1.997   2.983   3.326
11155WAT    EPW45342   1.920   2.998   3.332
11156WAT      O45343   1.109   3.169   3.135
11156WAT     H145344   1.048   3.111   3.110
11156WAT     H245345   1.184   3.131   3.113
11156WAT    EPW45346   1.111   3.155   3.128
11157WAT      O45347   1.508   4.308   3.292
11157WAT     H145348   1.487   4.389   3.316
11157WAT     H245349   1.554   4.319   3.218
11157WAT    EPW45350   1.512   4.321   3.284
11158WAT      O45351   1.391   4.696   3.705
11158WAT     H145352   1.320   4.663   3.667
11158WAT     H245353   1.371   4.781   3.716
11158WAT    EPW45354   1.377   4.704   3.701
11159WAT      O45355   0.873   3.667   3.647
11159WAT     H145356   0.841   3.597   3.607
11159WAT     H245357   0.840   3.734   3.602
11159WAT    EPW45358   0.864   3.667   3.635
11160WAT      O45359   0.991   3.012   2.149
11160WAT     H145360   1.003   3.020   2.063
11160WAT     H245361   0.905   3.014   2.158
11160WAT    EPW45362   0.980   3.013   2.138
11161WAT      O45363   0.776   4.651   3.645
11161WAT     H145364   0.773   4.633   3.730
11161WAT     H245365   0.835   4.595   3.615
11161WAT    EPW45366   0.784   4.640   3.653
11162WAT      O45367   1.717   4.589   3.084
11162WAT     H145368   1.803   4.586   3.072
11162WAT     H245369   1.692   4.506   3.071
11162WAT    EPW45370   1.726   4.576   3.080
11163WAT      O45371   0.505   3.119   3.388
11163WAT     H145372   0.445   3.058   3.371
11163WAT     H245373   0.460   3.193   3.384
11163WAT    EPW45374   0.490   3.121   3.385
11164WAT      O45375   1.350   3.076   3.026
11164WAT     H145376   1.419   3.126   3.046
11164WAT     H245377   1.322   3.110   2.951
11164WAT    EPW45378   1.356   3.089   3.018
11165WAT      O45379   0.517   4.484   3.771
11165WAT     H145380   0.582   4.520   3.815
11165WAT     H245381   0.474   4.552   3.738
11165WAT    EPW45382   0.520   4.499   3.772
11166WAT      O45383   1.334   3.587   2.790
11166WAT     H145384   1.387   3.519   2.804
11166WAT     H245385   1.299   3.602   2.868
11166WAT    EPW45386   1.337   3.579   2.803
11167WAT      O45387   0.359   3.394   2.715
11167WAT     H145388   0.315   3.367   2.785
11167WAT     H245389   0.429   3.341   2.713
11167WAT    EPW45390   0.363   3.382   2.725
11168WAT      O45391   0.375   4.325   3.475
11168WAT     H145392   0.333   4.377   3.532
11168WAT     H245393   0.459   4.337   3.495
11168WAT    EPW45394   0.381   4.335   3.487
11169WAT      O45395   1.512   3.756   2.415
11169WAT     H145396   1.529   3.673   2.435
11169WAT     H245397   1.436   3.751   2.371
11169WAT    EPW45398   1.503   3.743   2.411
11170WAT      O45399   0.495   4.615   2.365
11170WAT     H145400   0.464   4.585   2.289
11170WAT     H245401   0.582   4.608   2.356
11170WAT    EPW45402   0.504   4.610   2.352
11171WAT      O45403   0.892   3.826   2.341
11171WAT     H145404   0.922   3.854   2.264
11171WAT     H245405   0.964   3.809   2.386
11171WAT    EPW45406   0.907   3.828   2.336
11172WAT      O45407   1.785   4.702   2.051
11172WAT     H145408   1.856   4.691   2.100
11172WAT     H245409   1.771   4.623   2.017
11172WAT    EPW45410   1.793   4.689   2.053
11173WAT      O45411   1.844   3.924   3.714
11173WAT     H145412   1.914   3.890   3.753
11173WAT     H245413   1.877   3.969   3.647
11173WAT    EPW45414   1.859   3.925   3.710
11174WAT      O45415   1.444   4.311   2.312
11174WAT     H145416   1.456   4.288   2.395
11174WAT     H245417   1.401   4.243   2.278
11174WAT    EPW45418   1.440   4.297   2.319
11175WAT      O45419   1.862   3.446   3.863
11175WAT     H145420   1.909   3.472   3.794
11175WAT     H245421   1.788   3.416   3.827
11175WAT    EPW45422   1.858   3.446   3.847
11176WAT      O45423   1.899   3.454   3.149
11176WAT     H145424   1.816   3.480   3.141
11176WAT     H245425   1.895   3.367   3.144
11176WAT    EPW45426   1.887   3.445   3.147
11177WAT      O45427   0.803   3.209   3.649
11177WAT     H145428   0.849   3.170   3.586
11177WAT     H245429   0.729   3.163   3.652
11177WAT    EPW45430   0.799   3.196   3.640
11178WAT      O45431   1.608   3.987   3.956
11178WAT     H145432   1.685   4.013   3.988
11178WAT     H245433   1.612   4.012   3.872
11178WAT    EPW45434   1.620   3.994   3.948
11179WAT      O45435   0.498   4.505   3.008
11179WAT     H145436   0.497   4.424   2.974
11179WAT     H245437   0.456   4.553   2.948
11179WAT    EPW45438   0.492   4.500   2.994
11180WAT      O45439   1.089   4.156   2.221
11180WAT     H145440   1.170   4.129   2.203
11180WAT     H245441   1.080   4.228   2.173
11180WAT    EPW45442   1.099   4.163   2.211
11181WAT      O45443   0.323   4.752   3.392
11181WAT     H145444   0.326   4.725   3.475
11181WAT     H245445   0.351   4.684   3.346
11181WAT    EPW45446   0.327   4.738   3.398
11182WAT      O45447   1.298   2.995   0.687
11182WAT     H145448   1.322   3.025   0.609
11182WAT     H245449   1.372   2.965   0.722
11182WAT    EPW45450   1.312   2.995   0.681
11183WAT      O45451   1.223   3.622   1.152
11183WAT     H145452   1.188   3.697   1.177
11183WAT     H245453   1.281   3.604   1.214
11183WAT    EPW45454   1.226   3.630   1.164
11184WAT      O45455   1.822   4.463   0.463
11184WAT     H145456   1.885   4.406   0.482
11184WAT     H245457   1.774   4.421   0.404
11184WAT    EPW45458   1.824   4.448   0.457
11185WAT      O45459   0.546   4.004   0.234
11185WAT     H145460   0.512   3.980   0.157
11185WAT     H245461   0.528   3.937   0.286
11185WAT    EPW45462   0.538   3.991   0.230
11186WAT      O45463   1.467   3.820   0.807
11186WAT     H145464   1.481   3.805   0.722
11186WAT     H245465   1.415   3.754   0.830
11186WAT    EPW45466   1.462   3.808   0.797
11187WAT      O45467   0.396   4.236   0.604
11187WAT     H145468   0.443   4.182   0.654
11187WAT     H245469   0.316   4.203   0.609
11187WAT    EPW45470   0.391   4.223   0.612
11188WAT      O45471   0.942   3.098   0.611
11188WAT     H145472   0.939   3.180   0.580
11188WAT     H245473   0.986   3.054   0.550
11188WAT    EPW45474   0.948   3.104   0.598
11189WAT      O45475   0.418   4.504   0.239
11189WAT     H145476   0.430   4.498   0.153
11189WAT     H245477   0.437   4.425   0.269
11189WAT    EPW45478   0.422   4.492   0.231
11190WAT      O45479   0.880   4.153   1.789
11190WAT     H145480   0.865   4.142   1.875
11190WAT     H245481   0.808   4.122   1.751
11190WAT    EPW45482   0.867   4.147   1.796
11191WAT      O45483   0.421   3.789   0.661
11191WAT     H145484   0.345   3.746   0.659
11191WAT     H245485   0.474   3.736   0.706
11191WAT    EPW45486   0.418   3.775   0.668
11192WAT      O45487   0.833   3.413   1.359
11192WAT     H145488   0.901   3.420   1.305
11192WAT     H245489   0.811   3.329   1.354
11192WAT    EPW45490   0.839   3.402   1.350
11193WAT      O45491   0.880   4.460   1.532
11193WAT     H145492   0.896   4.513   1.465
11193WAT     H245493   0.960   4.436   1.558
11193WAT    EPW45494   0.895   4.464   1.526
11194WAT      O45495   0.546   3.601   0.823
11194WAT     H145496   0.619   3.556   0.840
11194WAT     H245497   0.484   3.541   0.829
11194WAT    EPW45498   0.548   3.585   0.827
11195WAT      O45499   0.980   4.262   0.952
11195WAT     H145500   1.004   4.180   0.974
11195WAT     H245501   1.056   4.304   0.947
11195WAT    EPW45502   0.995   4.256   0.955
11196WAT      O45503   1.008   4.206   0.598
11196WAT     H145504   1.043   4.144   0.649
11196WAT     H245505   1.048   4.195   0.521
11196WAT    EPW45506   1.019   4.195   0.594
11197WAT      O45507   1.149   3.663   1.746
11197WAT     H145508   1.062   3.662   1.742
11197WAT     H245509   1.165   3.715   1.815
11197WAT    EPW45510   1.138   3.671   1.756
11198WAT      O45511   0.660   3.102   0.643
11198WAT     H145512   0.624   3.151   0.580
11198WAT     H245513   0.744   3.098   0.620
11198WAT    EPW45514   0.667   3.109   0.630
11199WAT      O45515   1.625   2.905   1.644
11199WAT     H145516   1.602   2.973   1.595
11199WAT     H245517   1.551   2.882   1.685
11199WAT    EPW45518   1.611   2.911   1.643
11200WAT      O45519   0.968   3.064   0.884
11200WAT     H145520   0.979   3.148   0.907
11200WAT     H245521   0.954   3.068   0.798
11200WAT    EPW45522   0.968   3.077   0.875
11201WAT      O45523   0.820   4.415   0.603
11201WAT     H145524   0.770   4.388   0.669
11201WAT     H245525   0.887   4.359   0.604
11201WAT    EPW45526   0.823   4.403   0.613
11202WAT      O45527   1.392   4.550   0.397
11202WAT     H145528   1.456   4.608   0.386
11202WAT     H245529   1.433   4.478   0.424
11202WAT    EPW45530   1.407   4.548   0.400
11203WAT      O45531   1.189   4.617   0.571
11203WAT     H145532   1.218   4.689   0.612
11203WAT     H245533   1.251   4.600   0.513
11203WAT    EPW45534   1.202   4.625   0.569
11204WAT      O45535   0.453   3.058   1.056
11204WAT     H145536   0.417   2.989   1.017
11204WAT     H245537   0.511   3.023   1.111
11204WAT    EPW45538   0.456   3.043   1.059
11205WAT      O45539   0.831   3.304   2.014
11205WAT     H145540   0.842   3.272   1.934
11205WAT     H245541   0.866   3.384   2.010
11205WAT    EPW45542   0.838   3.311   2.002
11206WAT      O45543   0.350   4.507   0.675
11206WAT     H145544   0.370   4.423   0.662
11206WAT     H245545   0.381   4.547   0.604
11206WAT    EPW45546   0.358   4.501   0.663
11207WAT      O45547   1.939   3.274   0.802
11207WAT     H145548   1.890   3.345   0.811
11207WAT     H245549   1.881   3.210   0.789
11207WAT    EPW45550   1.923   3.275   0.801
11208WAT      O45551   1.452   4.598   1.370
11208WAT     H145552   1.520   4.652   1.360
11208WAT     H245553   1.440   4.566   1.289
11208WAT    EPW45554   1.460   4.601   1.356
11209WAT      O45555   0.438   3.234   1.864
11209WAT     H145556   0.381   3.255   1.801
11209WAT     H245557   0.490   3.175   1.826
11209WAT    EPW45558   0.437   3.229   1.849
11210WAT      O45559   0.504   4.273   1.028
11210WAT     H145560   0.562   4.273   0.963
11210WAT     H245561   0.546   4.235   1.093
11210WAT    EPW45562   0.519   4.268   1.028
11211WAT      O45563   0.780   4.577   0.924
11211WAT     H145564   0.860   4.594   0.894
11211WAT     H245565   0.727   4.621   0.871
11211WAT    EPW45566   0.784   4.586   0.912
11212WAT      O45567   1.027   3.031   1.877
11212WAT     H145568   1.041   2.958   1.831
11212WAT     H245569   0.963   3.071   1.833
11212WAT    EPW45570   1.020   3.026   1.864
11213WAT      O45571   1.115   3.552   0.729
11213WAT     H145572   1.144   3.509   0.659
11213WAT     H245573   1.188   3.565   0.776
11213WAT    EPW45574   1.130   3.547   0.726
11214WAT      O45575   1.142   3.576   0.275
11214WAT     H145576   1.179   3.653   0.293
11214WAT     H245577   1.056   3.593   0.282
11214WAT    EPW45578   1.135   3.590   0.279
11215WAT      O45579   1.589   4.749   0.350
11215WAT     H145580   1.632   4.709   0.285
11215WAT     H245581   1.648   4.804   0.383
11215WAT    EPW45582   1.604   4.751   0.345
11216WAT      O45583   0.661   4.683   1.481
11216WAT     H145584   0.697   4.650   1.554
11216WAT     H245585   0.596   4.628   1.463
11216WAT    EPW45586   0.657   4.670   1.489
11217WAT      O45587   1.855   3.208   1.233
11217WAT     H145588   1.918   3.199   1.173
11217WAT     H245589   1.875   3.149   1.294
11217WAT    EPW45590   1.867   3.198   1.233
11218WAT      O45591   1.343   4.389   1.751
11218WAT     H145592   1.336   4.412   1.835
11218WAT     H245593   1.429   4.383   1.738
11218WAT    EPW45594   1.354   4.392   1.761
11219WAT      O45595   1.188   4.441   0.230
11219WAT     H145596   1.124   4.499   0.245
11219WAT     H245597   1.259   4.481   0.262
11219WAT    EPW45598   1.189   4.456   0.237
11220WAT      O45599   1.370   3.062   0.428
11220WAT     H145600   1.436   3.016   0.393
11220WAT     H245601   1.406   3.140   0.444
11220WAT    EPW45602   1.385   3.066   0.425
11221WAT      O45603   0.256   3.299   0.581
11221WAT     H145604   0.187   3.247   0.592
11221WAT     H245605   0.280   3.319   0.662
11221WAT    EPW45606   0.249   3.295   0.594
11222WAT      O45607   0.444   4.528   1.395
11222WAT     H145608   0.413   4.451   1.422
11222WAT     H245609   0.451   4.519   1.309
11222WAT    EPW45610   0.441   4.516   1.386
11223WAT      O45611   1.186   3.418   0.496
11223WAT     H145612   1.114   3.369   0.486
11223WAT     H245613   1.185   3.469   0.425
11223WAT    EPW45614   1.175   3.418   0.484
11224WAT      O45615   1.205   4.654   1.472
11224WAT     H145616   1.284   4.641   1.435
11224WAT     H245617   1.150   4.648   1.404
11224WAT    EPW45618   1.209   4.651   1.456
11225WAT      O45619   1.098   3.058   0.372
11225WAT     H145620   1.075   3.137   0.343
11225WAT     H245621   1.185   3.064   0.380
11225WAT    EPW45622   1.108   3.071   0.369
11226WAT      O45623   1.887   4.692   0.735
11226WAT     H145624   1.846   4.768   0.749
11226WAT     H245625   1.821   4.635   0.724
11226WAT    EPW45626   1.871   4.695   0.735
11227WAT      O45627   1.017   3.347   0.898
11227WAT     H145628   1.040   3.415   0.848
11227WAT     H245629   1.026   3.378   0.979
11227WAT    EPW45630   1.022   3.362   0.903
11228WAT      O45631   1.570   4.258   0.713
11228WAT     H145632   1.637   4.209   0.738
11228WAT     H245633   1.501   4.220   0.751
11228WAT    EPW45634   1.570   4.245   0.722
11229WAT      O45635   0.636   4.360   1.645
11229WAT     H145636   0.710   4.399   1.619
11229WAT     H245637   0.618   4.400   1.721
11229WAT    EPW45638   0.644   4.372   1.653
11230WAT      O45639   0.607   2.849   0.740
11230WAT     H145640   0.624   2.928   0.707
11230WAT     H245641   0.563   2.809   0.676
11230WAT    EPW45642   0.603   2.854   0.725
11231WAT      O45643   0.774   3.960   1.100
11231WAT     H145644   0.802   3.936   1.180
11231WAT     H245645   0.718   3.897   1.078
11231WAT    EPW45646   0.770   3.947   1.109
11232WAT      O45647   1.359   3.317   1.480
11232WAT     H145648   1.357   3.359   1.556
11232WAT     H245649   1.295   3.258   1.486
11232WAT    EPW45650   1.349   3.315   1.492
11233WAT      O45651   0.881   3.949   1.355
11233WAT     H145652   0.883   4.034   1.371
11233WAT     H245653   0.850   3.914   1.429
11233WAT    EPW45654   0.877   3.956   1.368
11234WAT      O45655   1.497   4.036   1.352
11234WAT     H145656   1.423   4.006   1.386
11234WAT     H245657   1.490   4.123   1.361
11234WAT    EPW45658   1.485   4.044   1.358
11235WAT      O45659   1.538   2.905   0.791
11235WAT     H145660   1.541   2.889   0.876
11235WAT     H245661   1.570   2.831   0.756
11235WAT    EPW45662   1.543   2.891   0.798
11236WAT      O45663   1.734   3.369   1.570
11236WAT     H145664   1.818   3.353   1.589
11236WAT     H245665   1.694   3.364   1.647
11236WAT    EPW45666   1.741   3.366   1.584
11237WAT      O45667   0.571   3.228   0.870
11237WAT     H145668   0.600   3.179   0.804
11237WAT     H245669   0.541   3.169   0.927
11237WAT    EPW45670   0.571   3.212   0.869
11238WAT      O45671   1.790   4.091   0.335
11238WAT     H145672   1.784   4.043   0.408
11238WAT     H245673   1.875   4.088   0.317
11238WAT    EPW45674   1.802   4.083   0.343
11239WAT      O45675   0.516   4.033   0.751
11239WAT     H145676   0.601   4.035   0.729
11239WAT     H245677   0.487   3.959   0.717
11239WAT    EPW45678   0.525   4.022   0.743
11240WAT      O45679   0.392   4.673   0.908
11240WAT     H145680   0.343   4.621   0.858
11240WAT     H245681   0.464   4.687   0.861
11240WAT    EPW45682   0.395   4.667   0.894
11241WAT      O45683   0.381   3.466   1.241
11241WAT     H145684   0.465   3.473   1.221
11241WAT     H245685   0.350   3.547   1.229
11241WAT    EPW45686   0.389   3.479   1.236
11242WAT      O45687   2.033   4.495   1.709
11242WAT     H145688   1.957   4.498   1.666
11242WAT     H245689   2.014   4.450   1.781
11242WAT    EPW45690   2.019   4.489   1.713
11243WAT      O45691   1.624   3.699   0.269
11243WAT     H145692   1.546   3.681   0.235
11243WAT     H245693   1.605   3.739   0.344
11243WAT    EPW45694   1.610   3.702   0.275
11244WAT      O45695   0.776   4.028   0.648
11244WAT     H145696   0.833   4.089   0.622
11244WAT     H245697   0.793   3.960   0.596
11244WAT    EPW45698   0.787   4.027   0.637
11245WAT      O45699   1.912   3.246   0.241
11245WAT     H145700   1.937   3.172   0.202
11245WAT     H245701   1.873   3.291   0.177
11245WAT    EPW45702   1.910   3.242   0.226
11246WAT      O45703   0.949   3.555   2.014
11246WAT     H145704   0.900   3.583   2.080
11246WAT     H245705   0.920   3.601   1.946
11246WAT    EPW45706   0.938   3.566   2.014
11247WAT      O45707   2.032   3.631   1.477
11247WAT     H145708   2.074   3.558   1.452
11247WAT     H245709   1.954   3.624   1.438
11247WAT    EPW45710   2.027   3.619   1.467
11248WAT      O45711   1.775   3.089   0.446
11248WAT     H145712   1.851   3.052   0.466
11248WAT     H245713   1.797   3.156   0.395
11248WAT    EPW45714   1.789   3.094   0.442
11249WAT      O45715   1.205   4.426   0.932
11249WAT     H145716   1.158   4.497   0.914
11249WAT     H245717   1.230   4.398   0.854
11249WAT    EPW45718   1.202   4.433   0.918
11250WAT      O45719   0.625   4.143   1.239
11250WAT     H145720   0.686   4.177   1.291
11250WAT     H245721   0.670   4.088   1.188
11250WAT    EPW45722   0.641   4.140   1.239
11251WAT      O45723   1.489   3.363   0.916
11251WAT     H145724   1.520   3.327   0.989
11251WAT     H245725   1.426   3.307   0.891
11251WAT    EPW45726   1.484   3.349   0.923
11252WAT      O45727   0.377   4.023   1.001
11252WAT     H145728   0.419   4.004   0.927
11252WAT     H245729   0.393   4.109   1.012
11252WAT    EPW45730   0.385   4.033   0.992
11253WAT      O45731   0.932   3.310   0.428
11253WAT     H145732   0.873   3.256   0.394
11253WAT     H245733   0.904   3.389   0.406
11253WAT    EPW45734   0.919   3.314   0.420
11254WAT      O45735   1.780   4.522   1.557
11254WAT     H145736   1.737   4.597   1.570
11254WAT     H245737   1.776   4.511   1.471
11254WAT    EPW45738   1.773   4.532   1.546
11255WAT      O45739   0.717   4.320   0.847
11255WAT     H145740   0.730   4.402   0.875
11255WAT     H245741   0.791   4.279   0.868
11255WAT    EPW45742   0.730   4.326   0.854
11256WAT      O45743   0.520   3.691   1.860
11256WAT     H145744   0.490   3.626   1.910
11256WAT     H245745   0.518   3.658   1.779
11256WAT    EPW45746   0.516   3.677   1.855
11257WAT      O45747   0.575   3.520   0.348
11257WAT     H145748   0.559   3.450   0.399
11257WAT     H245749   0.509   3.518   0.291
11257WAT    EPW45750   0.563   3.509   0.347
11258WAT      O45751   0.599   3.754   1.053
11258WAT     H145752   0.573   3.728   0.974
11258WAT     H245753   0.623   3.680   1.092
11258WAT    EPW45754   0.598   3.739   1.047
11259WAT      O45755   0.573   3.729   1.386
11259WAT     H145756   0.604   3.680   1.321
11259WAT     H245757   0.528   3.791   1.345
11259WAT    EPW45758   0.571   3.731   1.370
11260WAT      O45759   1.632   3.533   1.183
11260WAT     H145760   1.566   3.557   1.234
11260WAT     H245761   1.630   3.590   1.117
11260WAT    EPW45762   1.622   3.545   1.181
11261WAT      O45763   0.984   4.607   1.309
11261WAT     H145764   0.960   4.544   1.254
11261WAT     H245765   0.964   4.681   1.266
11261WAT    EPW45766   0.977   4.609   1.295
11262WAT      O45767   1.207   3.087   1.552
11262WAT     H145768   1.231   3.007   1.528
11262WAT     H245769   1.239   3.094   1.633
11262WAT    EPW45770   1.216   3.076   1.560
11263WAT      O45771   1.446   3.311   0.509
11263WAT     H145772   1.504   3.375   0.525
11263WAT     H245773   1.369   3.353   0.509
11263WAT    EPW45774   1.443   3.327   0.512
11264WAT      O45775   0.395   3.932   1.925
11264WAT     H145776   0.378   3.975   1.850
11264WAT     H245777   0.428   3.856   1.898
11264WAT    EPW45778   0.398   3.927   1.910
11265WAT      O45779   1.545   4.100   1.799
11265WAT     H145780   1.574   4.179   1.775
11265WAT     H245781   1.573   4.047   1.735
11265WAT    EPW45782   1.553   4.104   1.786
11266WAT      O45783   0.969   4.421   1.823
11266WAT     H145784   0.998   4.415   1.905
11266WAT     H245785   0.939   4.341   1.806
11266WAT    EPW45786   0.969   4.408   1.832
11267WAT      O45787   1.031   3.421   1.163
11267WAT     H145788   1.094   3.482   1.168
11267WAT     H245789   1.070   3.349   1.192
11267WAT    EPW45790   1.046   3.420   1.168
11268WAT      O45791   1.296   3.793   0.376
11268WAT     H145792   1.315   3.874   0.350
11268WAT     H245793   1.238   3.806   0.440
11268WAT    EPW45794   1.290   3.807   0.382
11269WAT      O45795   1.761   4.078   0.809
11269WAT     H145796   1.786   4.024   0.874
11269WAT     H245797   1.771   4.030   0.737
11269WAT    EPW45798   1.766   4.063   0.808
11270WAT      O45799   1.408   4.464   1.125
11270WAT     H145800   1.343   4.447   1.069
11270WAT     H245801   1.451   4.530   1.087
11270WAT    EPW45802   1.405   4.471   1.111
11271WAT      O45803   1.381   4.126   1.109
11271WAT     H145804   1.306   4.156   1.143
11271WAT     H245805   1.414   4.077   1.174
11271WAT    EPW45806   1.374   4.123   1.124
11272WAT      O45807   0.776   4.661   0.456
11272WAT     H145808   0.784   4.596   0.515
11272WAT     H245809   0.846   4.650   0.405
11272WAT    EPW45810   0.788   4.649   0.457
11273WAT      O45811   0.764   3.095   0.350
11273WAT     H145812   0.763   3.015   0.384
11273WAT     H245813   0.689   3.100   0.306
11273WAT    EPW45814   0.753   3.084   0.349
11274WAT      O45815   1.025   4.641   0.342
11274WAT     H145816   1.064   4.624   0.418
11274WAT     H245817   1.044   4.725   0.327
11274WAT    EPW45818   1.034   4.651   0.351
11275WAT      O45819   1.623   3.944   1.583
11275WAT     H145820   1.589   3.979   1.510
11275WAT     H245821   1.707   3.965   1.577
11275WAT    EPW45822   1.630   3.953   1.571
11276WAT      O45823   1.327   4.521   2.002
11276WAT     H145824   1.351   4.541   2.084
11276WAT     H245825   1.356   4.588   1.955
11276WAT    EPW45826   1.335   4.534   2.007
11277WAT      O45827   1.755   3.043   1.847
11277WAT     H145828   1.718   2.996   1.783
11277WAT     H245829   1.755   2.988   1.915
11277WAT    EPW45830   1.749   3.028   1.848
11278WAT      O45831   0.492   3.787   0.394
11278WAT     H145832   0.532   3.710   0.391
11278WAT     H245833   0.469   3.795   0.478
11278WAT    EPW45834   0.494   3.777   0.406
11279WAT      O45835   1.268   3.940   1.468
11279WAT     H145836   1.218   3.982   1.527
11279WAT     H245837   1.298   3.871   1.512
11279WAT    EPW45838   1.265   3.936   1.484
11280WAT      O45839   1.114   3.797   0.584
11280WAT     H145840   1.121   3.862   0.642
11280WAT     H245841   1.104   3.726   0.634
11280WAT    EPW45842   1.114   3.796   0.600
11281WAT      O45843   1.654   4.231   1.114
11281WAT     H145844   1.690   4.219   1.035
11281WAT     H245845   1.570   4.216   1.101
11281WAT    EPW45846   1.647   4.227   1.100
11282WAT      O45847   0.521   3.147   0.214
11282WAT     H145848   0.468   3.081   0.191
11282WAT     H245849   0.540   3.186   0.138
11282WAT    EPW45850   0.516   3.143   0.200
11283WAT      O45851   1.033   3.994   1.007
11283WAT     H145852   0.949   3.976   1.023
11283WAT     H245853   1.075   3.961   1.076
11283WAT    EPW45854   1.026   3.986   1.019
11284WAT      O45855   0.431   3.941   1.267
11284WAT     H145856   0.485   4.009   1.276
11284WAT     H245857   0.409   3.943   1.182
11284WAT    EPW45858   0.436   3.951   1.256
11285WAT      O45859   0.743   3.431   0.934
11285WAT     H145860   0.826   3.407   0.918
11285WAT     H245861   0.697   3.359   0.916
11285WAT    EPW45862   0.749   3.417   0.929
11286WAT      O45863   1.987   4.628   0.317
11286WAT     H145864   2.062   4.585   0.304
11286WAT     H245865   1.941   4.574   0.368
11286WAT    EPW45866   1.991   4.614   0.322
11287WAT      O45867   0.222   3.593   0.666
11287WAT     H145868   0.250   3.540   0.730
11287WAT     H245869   0.200   3.537   0.602
11287WAT    EPW45870   0.223   3.577   0.666
11288WAT      O45871   1.743   3.895   1.284
11288WAT     H145872   1.743   3.823   1.334
11288WAT     H245873   1.662   3.926   1.295
11288WAT    EPW45874   1.731   3.889   1.293
11289WAT      O45875   0.364   4.054   1.671
11289WAT     H145876   0.322   4.005   1.612
11289WAT     H245877   0.353   4.135   1.640
11289WAT    EPW45878   0.356   4.059   1.658
11290WAT      O45879   1.841   3.905   1.021
11290WAT     H145880   1.815   3.907   1.104
11290WAT     H245881   1.928   3.896   1.027
11290WAT    EPW45882   1.850   3.904   1.034
11291WAT      O45883   0.852   3.572   0.357
11291WAT     H145884   0.853   3.649   0.398
11291WAT     H245885   0.767   3.557   0.343
11291WAT    EPW45886   0.840   3.581   0.361
11292WAT      O45887   1.635   3.302   1.829
11292WAT     H145888   1.561   3.308   1.875
11292WAT     H245889   1.658   3.218   1.838
11292WAT    EPW45890   1.628   3.291   1.837
11293WAT      O45891   0.268   3.279   1.064
11293WAT     H145892   0.316   3.206   1.074
11293WAT     H245893   0.298   3.330   1.128
11293WAT    EPW45894   0.280   3.275   1.075
11294WAT      O45895   1.982   4.388   1.084
11294WAT     H145896   2.016   4.444   1.026
11294WAT     H245897   2.040   4.386   1.148
11294WAT    EPW45898   1.995   4.396   1.085
11295WAT      O45899   1.465   3.655   1.913
11295WAT     H145900   1.506   3.661   1.990
11295WAT     H245901   1.392   3.701   1.926
11295WAT    EPW45902   1.461   3.663   1.927
11296WAT      O45903   1.697   3.691   1.750
11296WAT     H145904   1.721   3.771   1.774
11296WAT     H245905   1.626   3.675   1.798
11296WAT    EPW45906   1.690   3.700   1.760
11297WAT      O45907   1.669   4.333   0.276
11297WAT     H145908   1.710   4.256   0.280
11297WAT     H245909   1.594   4.319   0.319
11297WAT    EPW45910   1.664   4.320   0.283
11298WAT      O45911   1.729   3.465   0.822
11298WAT     H145912   1.659   3.421   0.851
11298WAT     H245913   1.724   3.541   0.865
11298WAT    EPW45914   1.718   3.470   0.833
11299WAT      O45915   2.018   3.774   1.945
11299WAT     H145916   2.019   3.717   1.879
11299WAT     H245917   2.097   3.810   1.942
11299WAT    EPW45918   2.030   3.771   1.935
11300WAT      O45919   1.887   4.038   1.578
11300WAT     H145920   1.956   3.992   1.551
11300WAT     H245921   1.877   4.098   1.516
11300WAT    EPW45922   1.896   4.040   1.565
11301WAT      O45923   1.396   4.044   0.296
11301WAT     H145924   1.431   4.104   0.349
11301WAT     H245925   1.450   4.045   0.227
11301WAT    EPW45926   1.409   4.053   0.294
11302WAT      O45927   0.870   4.237   1.356
11302WAT     H145928   0.866   4.294   1.423
11302WAT     H245929   0.867   4.288   1.286
11302WAT    EPW45930   0.869   4.253   1.356
11303WAT      O45931   0.642   4.083   1.654
11303WAT     H145932   0.558   4.063   1.667
11303WAT     H245933   0.640   4.170   1.644
11303WAT    EPW45934   0.629   4.093   1.654
11304WAT      O45935   1.581   3.145   1.493
11304WAT     H145936   1.640   3.209   1.506
11304WAT     H245937   1.506   3.189   1.482
11304WAT    EPW45938   1.579   3.161   1.493
11305WAT      O45939   1.121   3.865   1.244
11305WAT     H145940   1.176   3.892   1.307
11305WAT     H245941   1.042   3.879   1.279
11305WAT    EPW45942   1.118   3.871   1.258
11306WAT      O45943   0.762   3.439   1.626
11306WAT     H145944   0.782   3.362   1.662
11306WAT     H245945   0.793   3.432   1.545
11306WAT    EPW45946   0.769   3.427   1.620
11307WAT      O45947   1.041   4.636   0.837
11307WAT     H145948   1.039   4.722   0.855
11307WAT     H245949   1.057   4.634   0.751
11307WAT    EPW45950   1.043   4.649   0.827
11308WAT      O45951   1.655   2.940   1.314
11308WAT     H145952   1.627   3.012   1.353
11308WAT     H245953   1.740   2.938   1.334
11308WAT    EPW45954   1.663   2.950   1.323
11309WAT      O45955   0.934   3.042   1.548
11309WAT     H145956   1.019   3.062   1.538
11309WAT     H245957   0.935   2.955   1.554
11309WAT    EPW45958   0.947   3.032   1.547
11310WAT      O45959   0.865   4.417   1.145
11310WAT     H145960   0.818   4.473   1.097
11310WAT     H245961   0.905   4.367   1.086
11310WAT    EPW45962   0.864   4.418   1.129
11311WAT      O45963   1.280   4.071   1.868
11311WAT     H145964   1.361   4.086   1.839
11311WAT     H245965   1.230   4.091   1.800
11311WAT    EPW45966   1.285   4.076   1.854
11312WAT      O45967   1.622   4.363   1.729
11312WAT     H145968   1.660   4.390   1.803
11312WAT     H245969   1.668   4.403   1.666
11312WAT    EPW45970   1.635   4.373   1.731
11313WAT      O45971   1.896   3.650   0.227
11313WAT     H145972   1.922   3.713   0.173
11313WAT     H245973   1.809   3.656   0.226
11313WAT    EPW45974   1.887   3.660   0.219
11314WAT      O45975   0.652   3.516   1.183
11314WAT     H145976   0.682   3.484   1.108
11314WAT     H245977   0.707   3.484   1.243
11314WAT    EPW45978   0.664   3.507   1.181
11315WAT      O45979   1.358   3.491   1.701
11315WAT     H145980   1.282   3.533   1.712
11315WAT     H245981   1.399   3.504   1.777
11315WAT    EPW45982   1.353   3.499   1.714
11316WAT      O45983   1.409   3.559   1.344
11316WAT     H145984   1.417   3.614   1.411
11316WAT     H245985   1.393   3.482   1.382
11316WAT    EPW45986   1.408   3.556   1.359
11317WAT      O45987   1.111   4.650   1.733
11317WAT     H145988   1.137   4.637   1.651
11317WAT     H245989   1.081   4.572   1.758
11317WAT    EPW45990   1.110   4.636   1.724
11318WAT      O45991   1.625   3.521   0.572
11318WAT     H145992   1.652   3.499   0.652
11318WAT     H245993   1.696   3.554   0.535
11318WAT    EPW45994   1.639   3.522   0.579
11319WAT      O45995   0.920   2.984   1.154
11319WAT     H145996   0.834   2.983   1.169
11319WAT     H245997   0.926   2.995   1.067
11319WAT    EPW45998   0.908   2.985   1.143
11320WAT      O45999   1.745   3.084   0.729
11320WAT     H146000   1.671   3.045   0.751
11320WAT     H246001   1.736   3.099   0.643
11320WAT    EPW46002   1.733   3.080   0.719
11321WAT      O46003   1.758   3.927   0.567
11321WAT     H146004   1.806   3.856   0.554
11321WAT     H246005   1.676   3.897   0.561
11321WAT    EPW46006   1.753   3.912   0.564
11322WAT      O46007   1.117   4.110   1.642
11322WAT     H146008   1.041   4.113   1.686
11322WAT     H246009   1.125   4.191   1.611
11322WAT    EPW46010   1.107   4.122   1.644
11323WAT      O46011   0.647   4.757   1.202
11323WAT     H146012   0.653   4.748   1.289
11323WAT     H246013   0.617   4.679   1.175
11323WAT    EPW46014   0.644   4.744   1.211
11324WAT      O46015   0.511   3.274   0.468
11324WAT     H146016   0.503   3.231   0.392
11324WAT     H246017   0.429   3.277   0.498
11324WAT    EPW46018   0.498   3.268   0.461
11325WAT      O46019   1.387   4.085   0.836
11325WAT     H146020   1.382   4.099   0.922
11325WAT     H246021   1.421   4.004   0.830
11325WAT    EPW46022   1.392   4.075   0.848
11326WAT      O46023   1.135   4.015   0.751
11326WAT     H146024   1.097   4.001   0.828
11326WAT     H246025   1.216   4.041   0.772
11326WAT    EPW46026   1.142   4.016   0.766
11327WAT      O46027   1.152   4.380   1.554
11327WAT     H146028   1.210   4.380   1.620
11327WAT     H246029   1.179   4.446   1.503
11327WAT    EPW46030   1.165   4.390   1.556
11328WAT      O46031   1.963   3.594   1.741
11328WAT     H146032   1.878   3.610   1.742
11328WAT     H246033   1.986   3.612   1.659
11328WAT    EPW46034   1.954   3.599   1.729
11329WAT      O46035   1.426   3.730   1.562
11329WAT     H146036   1.414   3.667   1.621
11329WAT     H246037   1.499   3.771   1.590
11329WAT    EPW46038   1.435   3.727   1.575
11330WAT      O46039   0.377   4.706   1.774
11330WAT     H146040   0.321   4.741   1.832
11330WAT     H246041   0.441   4.764   1.769
11330WAT    EPW46042   0.378   4.720   1.782
11331WAT      O46043   1.222   3.820   1.968
11331WAT     H146044   1.246   3.897   1.934
11331WAT     H246045   1.143   3.836   2.002
11331WAT    EPW46046   1.214   3.834   1.968
11332WAT      O46047   1.530   4.711   1.067
11332WAT     H146048   1.473   4.773   1.085
11332WAT     H246049   1.593   4.722   1.127
11332WAT    EPW46050   1.531   4.722   1.079
11333WAT      O46051   1.164   4.221   1.268
11333WAT     H146052   1.086   4.216   1.307
11333WAT     H246053   1.217   4.249   1.331
11333WAT    EPW46054   1.160   4.225   1.283
11334WAT      O46055   1.757   4.442   1.959
11334WAT     H146056   1.840   4.416   1.959
11334WAT     H246057   1.722   4.401   2.027
11334WAT    EPW46058   1.764   4.432   1.969
11335WAT      O46059   0.516   3.568   1.610
11335WAT     H146060   0.525   3.621   1.542
11335WAT     H246061   0.594   3.527   1.614
11335WAT    EPW46062   0.529   3.570   1.601
11336WAT      O46063   0.370   3.359   1.503
11336WAT     H146064   0.359   3.385   1.420
11336WAT     H246065   0.409   3.426   1.541
11336WAT    EPW46066   0.374   3.373   1.496
11337WAT      O46067   1.851   3.669   0.503
11337WAT     H146068   1.873   3.668   0.418
11337WAT     H246069   1.919   3.631   0.542
11337WAT    EPW46070   1.864   3.663   0.496
11338WAT      O46071   0.595   3.029   1.738
11338WAT     H146072   0.650   2.961   1.730
11338WAT     H246073   0.575   3.048   1.655
11338WAT    EPW46074   0.600   3.022   1.725
11339WAT      O46075   1.237   4.359   0.664
11339WAT     H146076   1.219   4.439   0.636
11339WAT     H246077   1.165   4.314   0.644
11339WAT    EPW46078   1.224   4.364   0.657
11340WAT      O46079   1.744   3.655   1.468
11340WAT     H146080   1.728   3.569   1.467
11340WAT     H246081   1.723   3.678   1.550
11340WAT    EPW46082   1.738   3.646   1.480
11341WAT      O46083   0.238   3.916   1.465
11341WAT     H146084   0.295   3.923   1.400
11341WAT     H246085   0.161   3.934   1.428
11341WAT    EPW46086   0.235   3.920   1.450
11342WAT      O46087   1.285   3.119   1.818
11342WAT     H146088   1.316   3.187   1.864
11342WAT     H246089   1.205   3.106   1.851
11342WAT    EPW46090   1.278   3.127   1.830
11343WAT      O46091   1.269   3.197   0.878
11343WAT     H146092   1.190   3.235   0.874
11343WAT     H246093   1.267   3.138   0.814
11343WAT    EPW46094   1.257   3.194   0.868
11344WAT      O46095   0.773   4.297   0.351
11344WAT     H146096   0.785   4.340   0.426
11344WAT     H246097   0.686   4.292   0.344
11344WAT    EPW46098   0.762   4.302   0.361
11345WAT      O46099   1.586   3.259   1.156
11345WAT     H146100   1.665   3.225   1.173
11345WAT     H246101   1.595   3.343   1.178
11345WAT    EPW46102   1.599   3.266   1.162
11346WAT      O46103   0.752   3.840   1.574
11346WAT     H146104   0.714   3.913   1.603
11346WAT     H246105   0.692   3.806   1.520
11346WAT    EPW46106   0.738   3.846   1.570
11347WAT      O46107   1.667   3.700   0.959
11347WAT     H146108   1.726   3.762   0.975
11347WAT     H246109   1.606   3.743   0.914
11347WAT    EPW46110   1.666   3.716   0.955
11348WAT      O46111   1.662   4.524   0.680
11348WAT     H146112   1.631   4.446   0.703
11348WAT     H246113   1.706   4.507   0.606
11348WAT    EPW46114   1.664   4.510   0.672
11349WAT      O46115   0.497   4.258   0.342
11349WAT     H146116   0.469   4.246   0.424
11349WAT     H246117   0.504   4.177   0.311
11349WAT    EPW46118   0.494   4.245   0.349
11350WAT      O46119   0.825   4.029   0.285
11350WAT     H146120   0.743   4.016   0.260
11350WAT     H246121   0.828   4.114   0.303
11350WAT    EPW46122   0.814   4.039   0.284
11351WAT      O46123   0.750   3.155   1.369
11351WAT     H146124   0.672   3.135   1.401
11351WAT     H246125   0.805   3.108   1.418
11351WAT    EPW46126   0.747   3.145   1.381
11352WAT      O46127   1.912   3.012   1.427
11352WAT     H146128   1.902   3.042   1.508
11352WAT     H246129   1.994   2.984   1.426
11352WAT    EPW46130   1.923   3.012   1.439
11353WAT      O46131   1.117   3.171   1.235
11353WAT     H146132   1.058   3.111   1.216
11353WAT     H246133   1.193   3.135   1.209
11353WAT    EPW46134   1.120   3.157   1.228
11354WAT      O46135   1.430   4.308   1.362
11354WAT     H146136   1.457   4.377   1.408
11354WAT     H246137   1.426   4.338   1.281
11354WAT    EPW46138   1.433   4.322   1.357
11355WAT      O46139   1.389   4.711   1.801
11355WAT     H146140   1.315   4.676   1.771
11355WAT     H246141   1.367   4.794   1.816
11355WAT    EPW46142   1.374   4.718   1.798
11356WAT      O46143   0.871   3.658   1.756
11356WAT     H146144   0.839   3.587   1.716
11356WAT     H246145   0.838   3.724   1.710
11356WAT    EPW46146   0.861   3.657   1.743
11357WAT      O46147   1.857   4.156   1.321
11357WAT     H146148   1.836   4.073   1.305
11357WAT     H246149   1.803   4.201   1.270
11357WAT    EPW46150   1.846   4.150   1.311
11358WAT      O46151   0.778   4.648   1.749
11358WAT     H146152   0.769   4.635   1.835
11358WAT     H246153   0.839   4.590   1.726
11358WAT    EPW46154   0.786   4.637   1.758
11359WAT      O46155   1.758   4.459   1.255
11359WAT     H146156   1.830   4.455   1.205
11359WAT     H246157   1.703   4.405   1.215
11359WAT    EPW46158   1.761   4.450   1.242
11360WAT      O46159   0.503   3.118   1.496
11360WAT     H146160   0.443   3.057   1.479
11360WAT     H246161   0.457   3.192   1.494
11360WAT    EPW46162   0.487   3.120   1.493
11361WAT      O46163   1.361   3.088   1.119
11361WAT     H146164   1.426   3.142   1.142
11361WAT     H246165   1.333   3.120   1.043
11361WAT    EPW46166   1.366   3.101   1.111
11362WAT      O46167   0.515   4.484   1.869
11362WAT     H146168   0.580   4.520   1.916
11362WAT     H246169   0.472   4.554   1.838
11362WAT    EPW46170   0.519   4.500   1.871
11363WAT      O46171   1.332   3.594   0.896
11363WAT     H146172   1.385   3.526   0.906
11363WAT     H246173   1.298   3.606   0.976
11363WAT    EPW46174   1.335   3.586   0.909
11364WAT      O46175   0.353   3.389   0.828
11364WAT     H146176   0.309   3.366   0.899
11364WAT     H246177   0.424   3.339   0.829
11364WAT    EPW46178   0.357   3.378   0.838
11365WAT      O46179   0.370   4.321   1.579
11365WAT     H146180   0.328   4.371   1.637
11365WAT     H246181   0.454   4.334   1.597
11365WAT    EPW46182   0.376   4.330   1.590
11366WAT      O46183   1.520   3.773   0.535
11366WAT     H146184   1.541   3.689   0.547
11366WAT     H246185   1.446   3.770   0.490
11366WAT    EPW46186   1.512   3.760   0.530
11367WAT      O46187   0.498   4.636   0.471
11367WAT     H146188   0.467   4.602   0.397
11367WAT     H246189   0.583   4.646   0.454
11367WAT    EPW46190   0.506   4.632   0.457
11368WAT      O46191   0.862   3.826   0.470
11368WAT     H146192   0.862   3.887   0.408
11368WAT     H246193   0.944   3.827   0.499
11368WAT    EPW46194   0.874   3.835   0.465
11369WAT      O46195   1.740   4.600   0.169
11369WAT     H146196   1.822   4.607   0.198
11369WAT     H246197   1.721   4.515   0.182
11369WAT    EPW46198   1.750   4.588   0.176
11370WAT      O46199   1.815   3.929   1.834
11370WAT     H146200   1.885   3.895   1.874
11370WAT     H246201   1.848   3.976   1.769
11370WAT    EPW46202   1.830   3.931   1.830
11371WAT      O46203   1.455   4.277   0.458
11371WAT     H146204   1.493   4.269   0.536
11371WAT     H246205   1.370   4.275   0.476
11371WAT    EPW46206   1.448   4.275   0.472
11372WAT      O46207   1.868   3.374   1.960
11372WAT     H146208   1.860   3.456   1.991
11372WAT     H246209   1.792   3.361   1.918
11372WAT    EPW46210   1.855   3.384   1.958
11373WAT      O46211   1.902   3.488   1.238
11373WAT     H146212   1.819   3.511   1.224
11373WAT     H246213   1.899   3.401   1.243
11373WAT    EPW46214   1.889   3.479   1.237
11374WAT      O46215   0.823   3.189   1.749
11374WAT     H146216   0.861   3.155   1.679
11374WAT     H246217   0.747   3.147   1.754
11374WAT    EPW46218   0.817   3.178   1.740
11375WAT      O46219   1.590   3.984   2.057
11375WAT     H146220   1.665   4.012   2.090
11375WAT     H246221   1.593   4.011   1.974
11375WAT    EPW46222   1.601   3.992   2.049
11376WAT      O46223   0.496   4.530   1.122
11376WAT     H146224   0.499   4.448   1.092
11376WAT     H246225   0.454   4.573   1.058
11376WAT    EPW46226   0.490   4.524   1.108
11377WAT      O46227   1.176   4.208   0.378
11377WAT     H146228   1.222   4.150   0.332
11377WAT     H246229   1.169   4.277   0.325
11377WAT    EPW46230   1.182   4.210   0.364
11378WAT      O46231   0.321   4.755   1.500
11378WAT     H146232   0.323   4.729   1.583
11378WAT     H246233   0.349   4.685   1.456
11378WAT    EPW46234   0.325   4.741   1.505
11379WAT      O46235   1.274   1.149   6.396
11379WAT     H146236   1.274   1.191   6.320
11379WAT     H246237   1.358   1.133   6.412
11379WAT    EPW46238   1.286   1.153   6.387
11380WAT      O46239   1.237   1.771   6.843
11380WAT     H146240   1.202   1.848   6.863
11380WAT     H246241   1.292   1.755   6.909
11380WAT    EPW46242   1.240   1.780   6.856
11381WAT      O46243   1.824   2.625   6.168
11381WAT     H146244   1.888   2.570   6.187
11381WAT     H246245   1.772   2.579   6.115
11381WAT    EPW46246   1.826   2.610   6.163
11382WAT      O46247   0.566   2.146   5.932
11382WAT     H146248   0.505   2.132   5.871
11382WAT     H246249   0.540   2.095   5.998
11382WAT    EPW46250   0.553   2.136   5.933
11383WAT      O46251   1.472   1.964   6.489
11383WAT     H146252   1.480   1.951   6.403
11383WAT     H246253   1.419   1.900   6.514
11383WAT    EPW46254   1.465   1.953   6.480
11384WAT      O46255   0.386   2.391   6.294
11384WAT     H146256   0.443   2.346   6.342
11384WAT     H246257   0.311   2.350   6.306
11384WAT    EPW46258   0.383   2.378   6.303
11385WAT      O46259   0.941   1.270   6.265
11385WAT     H146260   0.929   1.342   6.217
11385WAT     H246261   1.019   1.241   6.239
11385WAT    EPW46262   0.951   1.276   6.254
11386WAT      O46263   0.404   2.640   5.929
11386WAT     H146264   0.428   2.633   5.846
11386WAT     H246265   0.417   2.560   5.961
11386WAT    EPW46266   0.409   2.627   5.921
11387WAT      O46267   0.905   2.313   7.489
11387WAT     H146268   0.924   2.272   7.564
11387WAT     H246269   0.828   2.279   7.467
11387WAT    EPW46270   0.896   2.302   7.497
11388WAT      O46271   0.416   1.977   6.415
11388WAT     H146272   0.346   1.930   6.391
11388WAT     H246273   0.468   1.918   6.453
11388WAT    EPW46274   0.413   1.961   6.417
11389WAT      O46275   0.831   1.570   7.030
11389WAT     H146276   0.901   1.577   6.977
11389WAT     H246277   0.813   1.485   7.029
11389WAT    EPW46278   0.839   1.558   7.022
11390WAT      O46279   0.849   2.558   7.228
11390WAT     H146280   0.826   2.631   7.186
11390WAT     H246281   0.935   2.568   7.242
11390WAT    EPW46282   0.859   2.570   7.224
11391WAT      O46283   0.541   1.768   6.546
11391WAT     H146284   0.617   1.724   6.547
11391WAT     H246285   0.481   1.705   6.540
11391WAT    EPW46286   0.543   1.752   6.545
11392WAT      O46287   0.988   2.421   6.659
11392WAT     H146288   1.011   2.338   6.675
11392WAT     H246289   1.064   2.461   6.645
11392WAT    EPW46290   1.002   2.414   6.659
11393WAT      O46291   1.025   2.340   6.287
11393WAT     H146292   1.065   2.277   6.333
11393WAT     H246293   1.045   2.321   6.204
11393WAT    EPW46294   1.034   2.328   6.282
11394WAT      O46295   1.182   1.783   7.453
11394WAT     H146296   1.099   1.792   7.428
11394WAT     H246297   1.190   1.840   7.518
11394WAT    EPW46298   1.171   1.792   7.459
11395WAT      O46299   0.664   1.246   6.313
11395WAT     H146300   0.630   1.311   6.266
11395WAT     H246301   0.749   1.251   6.296
11395WAT    EPW46302   0.671   1.256   6.303
11396WAT      O46303   1.663   1.078   7.339
11396WAT     H146304   1.642   1.147   7.290
11396WAT     H246305   1.587   1.057   7.377
11396WAT    EPW46306   1.649   1.085   7.337
11397WAT      O46307   0.961   1.221   6.539
11397WAT     H146308   0.975   1.303   6.564
11397WAT     H246309   0.946   1.228   6.453
11397WAT    EPW46310   0.961   1.234   6.530
11398WAT      O46311   1.391   1.449   5.779
11398WAT     H146312   1.341   1.515   5.807
11398WAT     H246313   1.405   1.403   5.852
11398WAT    EPW46314   1.386   1.452   5.794
11399WAT      O46315   0.807   2.515   6.281
11399WAT     H146316   0.767   2.495   6.356
11399WAT     H246317   0.879   2.466   6.283
11399WAT    EPW46318   0.812   2.505   6.292
11400WAT      O46319   1.390   2.732   6.072
11400WAT     H146320   1.460   2.784   6.076
11400WAT     H246321   1.421   2.653   6.092
11400WAT    EPW46322   1.405   2.728   6.075
11401WAT      O46323   1.190   2.766   6.258
11401WAT     H146324   1.214   2.836   6.305
11401WAT     H246325   1.253   2.761   6.197
11401WAT    EPW46326   1.203   2.776   6.256
11402WAT      O46327   0.497   1.213   6.750
11402WAT     H146328   0.448   1.146   6.724
11402WAT     H246329   0.555   1.176   6.804
11402WAT    EPW46330   0.498   1.198   6.754
11403WAT      O46331   0.347   2.659   6.373
11403WAT     H146332   0.361   2.574   6.359
11403WAT     H246333   0.376   2.697   6.300
11403WAT    EPW46334   0.353   2.652   6.360
11404WAT      O46335   1.953   1.437   6.499
11404WAT     H146336   1.902   1.508   6.507
11404WAT     H246337   1.896   1.372   6.491
11404WAT    EPW46338   1.937   1.438   6.499
11405WAT      O46339   1.459   2.757   7.068
11405WAT     H146340   1.525   2.814   7.058
11405WAT     H246341   1.441   2.731   6.987
11405WAT    EPW46342   1.466   2.762   7.055
11406WAT      O46343   0.393   1.290   7.566
11406WAT     H146344   0.365   1.365   7.532
11406WAT     H246345   0.471   1.278   7.530
11406WAT    EPW46346   0.400   1.299   7.556
11407WAT      O46347   0.502   2.398   6.702
11407WAT     H146348   0.562   2.400   6.639
11407WAT     H246349   0.544   2.361   6.769
11407WAT    EPW46350   0.517   2.392   6.703
11408WAT      O46351   0.775   2.733   6.614
11408WAT     H146352   0.853   2.751   6.581
11408WAT     H246353   0.720   2.778   6.563
11408WAT    EPW46354   0.778   2.742   6.601
11409WAT      O46355   1.039   1.226   7.569
11409WAT     H146356   1.042   1.148   7.530
11409WAT     H246357   0.982   1.271   7.520
11409WAT    EPW46358   1.031   1.221   7.556
11410WAT      O46359   1.126   1.686   6.415
11410WAT     H146360   1.154   1.647   6.342
11410WAT     H246361   1.199   1.700   6.460
11410WAT    EPW46362   1.141   1.683   6.411
11411WAT      O46363   1.220   1.652   5.901
11411WAT     H146364   1.246   1.730   5.930
11411WAT     H246365   1.141   1.669   5.867
11411WAT    EPW46366   1.212   1.666   5.900
11412WAT      O46367   1.596   2.926   6.053
11412WAT     H146368   1.644   2.899   5.985
11412WAT     H246369   1.652   2.973   6.101
11412WAT    EPW46370   1.611   2.929   6.050
11413WAT      O46371   0.702   2.779   7.138
11413WAT     H146372   0.706   2.804   7.222
11413WAT     H246373   0.625   2.738   7.132
11413WAT    EPW46374   0.691   2.776   7.149
11414WAT      O46375   1.861   1.361   6.906
11414WAT     H146376   1.927   1.349   6.850
11414WAT     H246377   1.880   1.307   6.972
11414WAT    EPW46378   1.874   1.352   6.907
11415WAT      O46379   1.301   2.520   7.464
11415WAT     H146380   1.296   2.447   7.512
11415WAT     H246381   1.386   2.527   7.447
11415WAT    EPW46382   1.312   2.510   7.469
11416WAT      O46383   1.076   2.550   5.875
11416WAT     H146384   1.044   2.611   5.929
11416WAT     H246385   1.155   2.581   5.854
11416WAT    EPW46386   1.083   2.564   5.880
11417WAT      O46387   1.429   1.295   6.008
11417WAT     H146388   1.485   1.228   6.015
11417WAT     H246389   1.446   1.343   6.079
11417WAT    EPW46390   1.440   1.292   6.019
11418WAT      O46391   0.272   1.458   6.259
11418WAT     H146392   0.200   1.409   6.268
11418WAT     H246393   0.292   1.481   6.341
11418WAT    EPW46394   0.264   1.454   6.272
11419WAT      O46395   0.456   2.656   7.093
11419WAT     H146396   0.424   2.579   7.120
11419WAT     H246397   0.457   2.648   7.006
11419WAT    EPW46398   0.452   2.643   7.084
11420WAT      O46399   1.186   1.565   6.167
11420WAT     H146400   1.110   1.524   6.154
11420WAT     H246401   1.205   1.597   6.088
11420WAT    EPW46402   1.177   1.564   6.154
11421WAT      O46403   1.209   2.796   7.171
11421WAT     H146404   1.289   2.787   7.139
11421WAT     H246405   1.159   2.801   7.100
11421WAT    EPW46406   1.213   2.796   7.156
11422WAT      O46407   1.192   1.221   6.133
11422WAT     H146408   1.134   1.205   6.069
11422WAT     H246409   1.263   1.246   6.090
11422WAT    EPW46410   1.194   1.222   6.117
11423WAT      O46411   1.888   2.850   6.448
11423WAT     H146412   1.847   2.927   6.461
11423WAT     H246413   1.822   2.794   6.436
11423WAT    EPW46414   1.872   2.853   6.448
11424WAT      O46415   1.019   1.493   6.586
11424WAT     H146416   1.046   1.558   6.535
11424WAT     H246417   1.026   1.526   6.667
11424WAT    EPW46418   1.024   1.507   6.591
11425WAT      O46419   1.624   2.424   6.506
11425WAT     H146420   1.687   2.365   6.496
11425WAT     H246421   1.550   2.377   6.500
11425WAT    EPW46422   1.622   2.408   6.503
11426WAT      O46423   0.620   2.493   7.371
11426WAT     H146424   0.693   2.520   7.330
11426WAT     H246425   0.602   2.560   7.425
11426WAT    EPW46426   0.628   2.507   7.373
11427WAT      O46427   0.582   1.012   6.442
11427WAT     H146428   0.609   1.084   6.399
11427WAT     H246429   0.547   0.963   6.378
11427WAT    EPW46430   0.581   1.015   6.426
11428WAT      O46431   0.787   2.087   6.791
11428WAT     H146432   0.822   2.078   6.871
11428WAT     H246433   0.735   2.017   6.784
11428WAT    EPW46434   0.785   2.075   6.802
11429WAT      O46435   1.341   1.466   7.162
11429WAT     H146436   1.332   1.492   7.245
11429WAT     H246437   1.281   1.403   7.153
11429WAT    EPW46438   1.331   1.460   7.173
11430WAT      O46439   0.903   2.099   7.038
11430WAT     H146440   0.899   2.186   7.047
11430WAT     H246441   0.861   2.070   7.109
11430WAT    EPW46442   0.896   2.108   7.050
11431WAT      O46443   1.511   2.202   7.043
11431WAT     H146444   1.438   2.168   7.077
11431WAT     H246445   1.499   2.288   7.050
11431WAT    EPW46446   1.499   2.209   7.049
11432WAT      O46447   1.532   1.079   6.477
11432WAT     H146448   1.535   1.060   6.562
11432WAT     H246449   1.568   1.008   6.440
11432WAT    EPW46450   1.538   1.066   6.484
11433WAT      O46451   1.726   1.543   7.239
11433WAT     H146452   1.808   1.516   7.242
11433WAT     H246453   1.704   1.552   7.324
11433WAT    EPW46454   1.735   1.540   7.252
11434WAT      O46455   0.568   1.379   6.541
11434WAT     H146456   0.597   1.324   6.480
11434WAT     H246457   0.549   1.326   6.608
11434WAT    EPW46458   0.570   1.363   6.542
11435WAT      O46459   1.800   2.218   6.021
11435WAT     H146460   1.803   2.171   6.095
11435WAT     H246461   1.884   2.231   6.002
11435WAT    EPW46462   1.813   2.213   6.030
11436WAT      O46463   0.546   2.222   6.435
11436WAT     H146464   0.627   2.213   6.405
11436WAT     H246465   0.512   2.142   6.424
11436WAT    EPW46466   0.553   2.209   6.429
11437WAT      O46467   0.386   2.814   6.614
11437WAT     H146468   0.338   2.764   6.562
11437WAT     H246469   0.456   2.834   6.565
11437WAT    EPW46470   0.390   2.809   6.599
11438WAT      O46471   0.362   1.602   6.903
11438WAT     H146472   0.447   1.593   6.883
11438WAT     H246473   0.351   1.688   6.904
11438WAT    EPW46474   0.373   1.613   6.900
11439WAT      O46475   2.025   2.658   7.383
11439WAT     H146476   1.959   2.660   7.325
11439WAT     H246477   1.985   2.658   7.460
11439WAT    EPW46478   2.009   2.658   7.385
11440WAT      O46479   1.618   1.881   5.944
11440WAT     H146480   1.611   1.963   5.914
11440WAT     H246481   1.587   1.888   6.026
11440WAT    EPW46482   1.612   1.894   5.952
11441WAT      O46483   0.792   2.176   6.317
11441WAT     H146484   0.859   2.231   6.307
11441WAT     H246485   0.810   2.112   6.260
11441WAT    EPW46486   0.804   2.175   6.307
11442WAT      O46487   1.948   1.356   5.948
11442WAT     H146488   1.986   1.289   5.906
11442WAT     H246489   1.918   1.406   5.883
11442WAT    EPW46490   1.949   1.353   5.932
11443WAT      O46491   2.036   1.778   7.170
11443WAT     H146492   2.054   1.706   7.125
11443WAT     H246493   1.951   1.792   7.154
11443WAT    EPW46494   2.026   1.769   7.161
11444WAT      O46495   1.803   1.246   6.164
11444WAT     H146496   1.877   1.205   6.187
11444WAT     H246497   1.828   1.298   6.099
11444WAT    EPW46498   1.818   1.248   6.158
11445WAT      O46499   1.207   2.585   6.610
11445WAT     H146500   1.158   2.654   6.588
11445WAT     H246501   1.235   2.554   6.533
11445WAT    EPW46502   1.204   2.590   6.595
11446WAT      O46503   0.630   2.277   6.916
11446WAT     H146504   0.693   2.317   6.960
11446WAT     H246505   0.672   2.217   6.868
11446WAT    EPW46506   0.646   2.274   6.915
11447WAT      O46507   1.492   1.506   6.614
11447WAT     H146508   1.522   1.473   6.689
11447WAT     H246509   1.428   1.451   6.592
11447WAT    EPW46510   1.487   1.493   6.621
11448WAT      O46511   0.368   2.138   6.682
11448WAT     H146512   0.373   2.098   6.604
11448WAT     H246513   0.402   2.217   6.667
11448WAT    EPW46514   0.374   2.144   6.668
11449WAT      O46515   0.924   1.482   6.090
11449WAT     H146516   0.911   1.454   6.008
11449WAT     H246517   0.886   1.560   6.091
11449WAT    EPW46518   0.917   1.489   6.078
11450WAT      O46519   1.772   2.665   7.240
11450WAT     H146520   1.737   2.745   7.245
11450WAT     H246521   1.768   2.646   7.155
11450WAT    EPW46522   1.766   2.674   7.228
11451WAT      O46523   0.731   2.469   6.546
11451WAT     H146524   0.735   2.553   6.569
11451WAT     H246525   0.807   2.436   6.575
11451WAT    EPW46526   0.743   2.477   6.553
11452WAT      O46527   0.467   1.799   7.525
11452WAT     H146528   0.549   1.791   7.551
11452WAT     H246529   0.469   1.773   7.442
11452WAT    EPW46530   0.479   1.794   7.516
11453WAT      O46531   0.531   1.707   6.063
11453WAT     H146532   0.532   1.632   6.107
11453WAT     H246533   0.500   1.685   5.984
11453WAT    EPW46534   0.526   1.693   6.058
11454WAT      O46535   0.612   1.873   6.801
11454WAT     H146536   0.573   1.872   6.724
11454WAT     H246537   0.630   1.789   6.817
11454WAT    EPW46538   0.609   1.860   6.792
11455WAT      O46539   0.554   1.915   7.074
11455WAT     H146540   0.581   1.898   6.993
11455WAT     H246541   0.492   1.975   7.063
11455WAT    EPW46542   0.549   1.922   7.061
11456WAT      O46543   1.631   1.688   6.892
11456WAT     H146544   1.564   1.712   6.943
11456WAT     H246545   1.627   1.742   6.825
11456WAT    EPW46546   1.621   1.699   6.890
11457WAT      O46547   1.001   2.803   6.987
11457WAT     H146548   0.967   2.731   6.952
11457WAT     H246549   0.987   2.864   6.927
11457WAT    EPW46550   0.994   2.801   6.973
11458WAT      O46551   1.203   1.231   7.241
11458WAT     H146552   1.225   1.149   7.219
11458WAT     H246553   1.233   1.240   7.322
11458WAT    EPW46554   1.210   1.220   7.249
11459WAT      O46555   1.432   1.445   6.237
11459WAT     H146556   1.488   1.511   6.248
11459WAT     H246557   1.356   1.486   6.223
11459WAT    EPW46558   1.429   1.461   6.236
11460WAT      O46559   0.363   2.042   7.624
11460WAT     H146560   0.359   2.090   7.552
11460WAT     H246561   0.388   1.964   7.595
11460WAT    EPW46562   0.366   2.038   7.609
11461WAT      O46563   1.540   2.279   7.484
11461WAT     H146564   1.568   2.359   7.465
11461WAT     H246565   1.571   2.230   7.419
11461WAT    EPW46566   1.548   2.283   7.471
11462WAT      O46567   0.923   2.607   7.528
11462WAT     H146568   0.931   2.603   7.615
11462WAT     H246569   0.914   2.524   7.504
11462WAT    EPW46570   0.923   2.594   7.537
11463WAT      O46571   1.041   1.574   6.848
11463WAT     H146572   1.104   1.634   6.854
11463WAT     H246573   1.077   1.503   6.883
11463WAT    EPW46574   1.056   1.572   6.854
11464WAT      O46575   1.290   1.887   6.045
11464WAT     H146576   1.271   1.942   5.980
11464WAT     H246577   1.229   1.905   6.106
11464WAT    EPW46578   1.278   1.898   6.045
11465WAT      O46579   1.807   2.216   6.484
11465WAT     H146580   1.814   2.162   6.553
11465WAT     H246581   1.794   2.161   6.417
11465WAT    EPW46582   1.806   2.200   6.485
11466WAT      O46583   1.389   2.640   6.821
11466WAT     H146584   1.331   2.617   6.760
11466WAT     H246585   1.437   2.701   6.781
11466WAT    EPW46586   1.387   2.646   6.806
11467WAT      O46587   1.377   2.268   6.802
11467WAT     H146588   1.303   2.298   6.837
11467WAT     H246589   1.415   2.226   6.867
11467WAT    EPW46590   1.371   2.267   6.817
11468WAT      O46591   0.772   2.773   6.191
11468WAT     H146592   0.778   2.699   6.236
11468WAT     H246593   0.842   2.772   6.139
11468WAT    EPW46594   0.783   2.762   6.190
11469WAT      O46595   0.719   1.120   5.986
11469WAT     H146596   0.701   1.101   6.070
11469WAT     H246597   0.668   1.190   5.971
11469WAT    EPW46598   0.709   1.128   5.996
11470WAT      O46599   1.007   2.756   6.048
11470WAT     H146600   1.063   2.763   6.114
11470WAT     H246601   1.011   2.834   6.009
11470WAT    EPW46602   1.015   2.769   6.052
11471WAT      O46603   1.637   2.121   7.283
11471WAT     H146604   1.606   2.145   7.205
11471WAT     H246605   1.723   2.130   7.275
11471WAT    EPW46606   1.645   2.126   7.270
11472WAT      O46607   1.864   1.060   7.532
11472WAT     H146608   1.803   1.069   7.470
11472WAT     H246609   1.818   1.062   7.606
11472WAT    EPW46610   1.848   1.062   7.534
11473WAT      O46611   0.486   1.977   6.135
11473WAT     H146612   0.497   1.892   6.119
11473WAT     H246613   0.470   1.979   6.221
11473WAT    EPW46614   0.485   1.964   6.145
11474WAT      O46615   1.283   2.097   7.147
11474WAT     H146616   1.226   2.139   7.197
11474WAT     H246617   1.307   2.029   7.196
11474WAT    EPW46618   1.278   2.093   7.161
11475WAT      O46619   1.130   1.929   6.272
11475WAT     H146620   1.141   1.994   6.328
11475WAT     H246621   1.118   1.859   6.324
11475WAT    EPW46622   1.130   1.928   6.288
11476WAT      O46623   1.621   2.414   6.788
11476WAT     H146624   1.635   2.425   6.703
11476WAT     H246625   1.541   2.378   6.791
11476WAT    EPW46626   1.611   2.410   6.776
11477WAT      O46627   0.587   1.356   5.913
11477WAT     H146628   0.532   1.360   5.846
11477WAT     H246629   0.659   1.397   5.884
11477WAT    EPW46630   0.590   1.363   5.899
11478WAT      O46631   1.040   2.148   6.689
11478WAT     H146632   0.958   2.123   6.704
11478WAT     H246633   1.084   2.115   6.757
11478WAT    EPW46634   1.035   2.140   6.702
11479WAT      O46635   0.719   2.747   5.824
11479WAT     H146636   0.736   2.680   5.878
11479WAT     H246637   0.717   2.816   5.877
11479WAT    EPW46638   0.721   2.747   5.840
11480WAT      O46639   0.396   2.124   6.961
11480WAT     H146640   0.462   2.181   6.962
11480WAT     H246641   0.375   2.118   6.876
11480WAT    EPW46642   0.402   2.132   6.949
11481WAT      O46643   0.748   1.579   6.592
11481WAT     H146644   0.831   1.552   6.583
11481WAT     H246645   0.701   1.509   6.571
11481WAT    EPW46646   0.753   1.564   6.588
11482WAT      O46647   1.996   2.794   6.027
11482WAT     H146648   2.065   2.747   6.001
11482WAT     H246649   1.947   2.736   6.071
11482WAT    EPW46650   1.999   2.778   6.030
11483WAT      O46651   0.245   1.766   6.346
11483WAT     H146652   0.269   1.704   6.404
11483WAT     H246653   0.234   1.721   6.272
11483WAT    EPW46654   0.247   1.750   6.344
11484WAT      O46655   1.753   2.068   6.969
11484WAT     H146656   1.757   1.998   7.021
11484WAT     H246657   1.672   2.099   6.982
11484WAT    EPW46658   1.742   2.062   6.979
11485WAT      O46659   0.731   1.950   5.811
11485WAT     H146660   0.677   2.004   5.852
11485WAT     H246661   0.681   1.913   5.750
11485WAT    EPW46662   0.716   1.953   5.808
11486WAT      O46663   0.372   2.182   7.376
11486WAT     H146664   0.330   2.128   7.321
11486WAT     H246665   0.361   2.261   7.339
11486WAT    EPW46666   0.364   2.186   7.362
11487WAT      O46667   1.848   2.043   6.707
11487WAT     H146668   1.821   2.058   6.788
11487WAT     H246669   1.935   2.038   6.714
11487WAT    EPW46670   1.857   2.045   6.720
11488WAT      O46671   0.808   1.733   6.057
11488WAT     H146672   0.828   1.811   6.091
11488WAT     H246673   0.721   1.733   6.056
11488WAT    EPW46674   0.798   1.744   6.062
11489WAT      O46675   1.609   1.485   7.514
11489WAT     H146676   1.574   1.508   7.591
11489WAT     H246677   1.570   1.408   7.497
11489WAT    EPW46678   1.598   1.477   7.523
11490WAT      O46679   0.212   1.457   6.719
11490WAT     H146680   0.214   1.373   6.746
11490WAT     H246681   0.251   1.500   6.784
11490WAT    EPW46682   0.218   1.451   6.733
11491WAT      O46683   1.997   2.548   6.795
11491WAT     H146684   2.027   2.601   6.732
11491WAT     H246685   2.062   2.547   6.853
11491WAT    EPW46686   2.011   2.556   6.794
11492WAT      O46687   1.507   1.886   7.549
11492WAT     H146688   1.554   1.948   7.588
11492WAT     H246689   1.427   1.898   7.582
11492WAT    EPW46690   1.502   1.897   7.560
11493WAT      O46691   1.762   1.828   7.429
11493WAT     H146692   1.801   1.900   7.457
11493WAT     H246693   1.682   1.832   7.465
11493WAT    EPW46694   1.756   1.839   7.439
11494WAT      O46695   1.672   2.463   6.009
11494WAT     H146696   1.708   2.383   6.017
11494WAT     H246697   1.594   2.454   6.047
11494WAT    EPW46698   1.666   2.450   6.016
11495WAT      O46699   1.730   1.616   6.523
11495WAT     H146700   1.664   1.567   6.552
11495WAT     H246701   1.721   1.690   6.567
11495WAT    EPW46702   1.719   1.619   6.534
11496WAT      O46703   1.910   2.179   7.268
11496WAT     H146704   1.979   2.131   7.243
11496WAT     H246705   1.903   2.239   7.205
11496WAT    EPW46706   1.919   2.181   7.255
11497WAT      O46707   1.348   2.263   5.929
11497WAT     H146708   1.425   2.222   5.922
11497WAT     H246709   1.319   2.265   5.847
11497WAT    EPW46710   1.355   2.257   5.916
11498WAT      O46711   0.875   2.381   7.022
11498WAT     H146712   0.863   2.427   7.095
11498WAT     H246713   0.871   2.442   6.959
11498WAT    EPW46714   0.873   2.397   7.023
11499WAT      O46715   0.650   2.221   7.401
11499WAT     H146716   0.569   2.191   7.410
11499WAT     H246717   0.639   2.307   7.389
11499WAT    EPW46718   0.637   2.229   7.400
11500WAT      O46719   1.577   1.312   7.192
11500WAT     H146720   1.630   1.382   7.197
11500WAT     H246721   1.499   1.346   7.176
11500WAT    EPW46722   1.574   1.327   7.190
11501WAT      O46723   1.139   2.018   6.921
11501WAT     H146724   1.195   2.047   6.982
11501WAT     H246725   1.061   2.030   6.958
11501WAT    EPW46726   1.135   2.024   6.936
11502WAT      O46727   0.776   1.600   7.298
11502WAT     H146728   0.803   1.525   7.332
11502WAT     H246729   0.799   1.594   7.214
11502WAT    EPW46730   0.783   1.588   7.290
11503WAT      O46731   1.031   2.788   6.514
11503WAT     H146732   1.033   2.874   6.526
11503WAT     H246733   1.044   2.779   6.428
11503WAT    EPW46734   1.033   2.799   6.503
11504WAT      O46735   1.661   1.109   7.012
11504WAT     H146736   1.628   1.179   7.052
11504WAT     H246737   1.745   1.110   7.037
11504WAT    EPW46738   1.669   1.120   7.022
11505WAT      O46739   0.935   1.166   7.187
11505WAT     H146740   1.018   1.194   7.190
11505WAT     H246741   0.940   1.094   7.137
11505WAT    EPW46742   0.948   1.160   7.180
11506WAT      O46743   0.879   2.594   6.844
11506WAT     H146744   0.826   2.643   6.794
11506WAT     H246745   0.920   2.544   6.786
11506WAT    EPW46746   0.877   2.593   6.828
11507WAT      O46747   1.273   2.237   7.539
11507WAT     H146748   1.358   2.243   7.520
11507WAT     H246749   1.234   2.241   7.462
11507WAT    EPW46750   1.279   2.239   7.525
11508WAT      O46751   1.584   2.552   7.422
11508WAT     H146752   1.592   2.617   7.480
11508WAT     H246753   1.640   2.575   7.359
11508WAT    EPW46754   1.594   2.565   7.421
11509WAT      O46755   1.868   1.769   5.917
11509WAT     H146756   1.916   1.826   5.871
11509WAT     H246757   1.788   1.804   5.916
11509WAT    EPW46758   1.863   1.782   5.910
11510WAT      O46759   0.978   2.050   5.887
11510WAT     H146760   0.906   2.016   5.852
11510WAT     H246761   0.960   2.135   5.892
11510WAT    EPW46762   0.965   2.057   5.883
11511WAT      O46763   0.634   1.606   6.844
11511WAT     H146764   0.675   1.587   6.770
11511WAT     H246765   0.694   1.592   6.906
11511WAT    EPW46766   0.649   1.601   6.842
11512WAT      O46767   1.334   1.550   7.427
11512WAT     H146768   1.279   1.617   7.441
11512WAT     H246769   1.413   1.584   7.440
11512WAT    EPW46770   1.337   1.565   7.431
11513WAT      O46771   1.407   1.717   7.054
11513WAT     H146772   1.404   1.767   7.126
11513WAT     H246773   1.387   1.637   7.084
11513WAT    EPW46774   1.404   1.712   7.069
11514WAT      O46775   1.101   2.816   7.437
11514WAT     H146776   1.129   2.802   7.355
11514WAT     H246777   1.068   2.739   7.461
11514WAT    EPW46778   1.100   2.803   7.428
11515WAT      O46779   1.614   1.661   6.276
11515WAT     H146780   1.641   1.643   6.357
11515WAT     H246781   1.686   1.690   6.237
11515WAT    EPW46782   1.629   1.663   6.282
11516WAT      O46783   0.931   1.158   6.813
11516WAT     H146784   0.848   1.142   6.831
11516WAT     H246785   0.932   1.166   6.726
11516WAT    EPW46786   0.919   1.157   6.803
11517WAT      O46787   1.755   1.246   6.441
11517WAT     H146788   1.677   1.211   6.458
11517WAT     H246789   1.753   1.262   6.355
11517WAT    EPW46790   1.743   1.243   6.431
11518WAT      O46791   1.758   2.058   6.251
11518WAT     H146792   1.800   1.982   6.241
11518WAT     H246793   1.674   2.036   6.244
11518WAT    EPW46794   1.752   2.043   6.249
11519WAT      O46795   1.118   2.264   7.308
11519WAT     H146796   1.045   2.267   7.355
11519WAT     H246797   1.125   2.344   7.275
11519WAT    EPW46798   1.108   2.276   7.310
11520WAT      O46799   0.657   2.891   6.879
11520WAT     H146800   0.672   2.871   6.963
11520WAT     H246801   0.626   2.816   6.846
11520WAT    EPW46802   0.655   2.877   6.887
11521WAT      O46803   0.536   1.448   6.170
11521WAT     H146804   0.541   1.416   6.089
11521WAT     H246805   0.451   1.442   6.189
11521WAT    EPW46806   0.524   1.443   6.160
11522WAT      O46807   1.409   2.235   6.528
11522WAT     H146808   1.395   2.244   6.613
11522WAT     H246809   1.439   2.153   6.520
11522WAT    EPW46810   1.411   2.224   6.539
11523WAT      O46811   1.158   2.152   6.438
11523WAT     H146812   1.117   2.144   6.514
11523WAT     H246813   1.237   2.182   6.460
11523WAT    EPW46814   1.164   2.155   6.452
11524WAT      O46815   1.131   2.542   7.251
11524WAT     H146816   1.181   2.536   7.322
11524WAT     H246817   1.162   2.613   7.210
11524WAT    EPW46818   1.143   2.552   7.255
11525WAT      O46819   1.961   1.632   7.476
11525WAT     H146820   1.905   1.697   7.460
11525WAT     H246821   2.039   1.672   7.477
11525WAT    EPW46822   1.964   1.647   7.474
11526WAT      O46823   1.380   1.877   7.285
11526WAT     H146824   1.314   1.846   7.333
11526WAT     H246825   1.441   1.896   7.344
11526WAT    EPW46826   1.379   1.875   7.301
11527WAT      O46827   0.313   2.874   7.475
11527WAT     H146828   0.231   2.862   7.504
11527WAT     H246829   0.332   2.955   7.501
11527WAT    EPW46830   0.303   2.884   7.483
11528WAT      O46831   1.252   1.977   7.641
11528WAT     H146832   1.256   2.060   7.613
11528WAT     H246833   1.226   1.984   7.723
11528WAT    EPW46834   1.249   1.990   7.649
11529WAT      O46835   1.528   2.881   6.764
11529WAT     H146836   1.468   2.940   6.787
11529WAT     H246837   1.592   2.894   6.821
11529WAT    EPW46838   1.528   2.892   6.775
11530WAT      O46839   1.163   2.368   6.955
11530WAT     H146840   1.082   2.371   6.986
11530WAT     H246841   1.210   2.409   7.017
11530WAT    EPW46842   1.158   2.374   6.969
11531WAT      O46843   0.519   1.708   7.265
11531WAT     H146844   0.528   1.771   7.205
11531WAT     H246845   0.599   1.676   7.273
11531WAT    EPW46846   0.532   1.713   7.257
11532WAT      O46847   0.375   1.494   7.162
11532WAT     H146848   0.359   1.521   7.081
11532WAT     H246849   0.414   1.563   7.199
11532WAT    EPW46850   0.379   1.508   7.156
11533WAT      O46851   1.842   1.797   6.193
11533WAT     H146852   1.859   1.792   6.108
11533WAT     H246853   1.916   1.768   6.230
11533WAT    EPW46854   1.856   1.792   6.186
11534WAT      O46855   0.618   1.217   7.423
11534WAT     H146856   0.656   1.138   7.422
11534WAT     H246857   0.586   1.225   7.342
11534WAT    EPW46858   0.619   1.206   7.411
11535WAT      O46859   1.243   2.506   6.341
11535WAT     H146860   1.222   2.586   6.314
11535WAT     H246861   1.171   2.459   6.326
11535WAT    EPW46862   1.229   2.511   6.335
11536WAT      O46863   1.762   1.833   7.147
11536WAT     H146864   1.735   1.751   7.135
11536WAT     H246865   1.755   1.845   7.233
11536WAT    EPW46866   1.757   1.823   7.158
11537WAT      O46867   0.245   2.037   7.176
11537WAT     H146868   0.279   2.072   7.104
11537WAT     H246869   0.172   1.999   7.148
11537WAT    EPW46870   0.239   2.036   7.161
11538WAT      O46871   0.418   1.634   5.812
11538WAT     H146872   0.331   1.641   5.819
11538WAT     H246873   0.429   1.559   5.770
11538WAT    EPW46874   0.407   1.624   5.807
11539WAT      O46875   1.298   1.281   7.499
11539WAT     H146876   1.302   1.367   7.486
11539WAT     H246877   1.219   1.271   7.537
11539WAT    EPW46878   1.287   1.293   7.503
11540WAT      O46879   1.265   1.346   6.592
11540WAT     H146880   1.189   1.388   6.587
11540WAT     H246881   1.258   1.284   6.530
11540WAT    EPW46882   1.252   1.343   6.582
11541WAT      O46883   0.738   2.519   6.000
11541WAT     H146884   0.767   2.521   6.082
11541WAT     H246885   0.657   2.487   6.007
11541WAT    EPW46886   0.730   2.515   6.013
11542WAT      O46887   1.587   1.414   6.857
11542WAT     H146888   1.667   1.381   6.866
11542WAT     H246889   1.597   1.497   6.882
11542WAT    EPW46890   1.600   1.421   6.862
11543WAT      O46891   0.753   2.009   7.250
11543WAT     H146892   0.718   2.074   7.297
11543WAT     H246893   0.687   1.979   7.202
11543WAT    EPW46894   0.738   2.014   7.250
11544WAT      O46895   1.660   1.847   6.661
11544WAT     H146896   1.723   1.906   6.673
11544WAT     H246897   1.603   1.889   6.610
11544WAT    EPW46898   1.661   1.862   6.655
11545WAT      O46899   1.669   2.682   6.394
11545WAT     H146900   1.653   2.604   6.431
11545WAT     H246901   1.708   2.661   6.319
11545WAT    EPW46902   1.672   2.667   6.388
11546WAT      O46903   0.491   2.398   6.034
11546WAT     H146904   0.462   2.389   6.116
11546WAT     H246905   0.505   2.316   6.008
11546WAT    EPW46906   0.488   2.385   6.042
11547WAT      O46907   0.808   2.284   5.859
11547WAT     H146908   0.735   2.242   5.879
11547WAT     H246909   0.801   2.360   5.902
11547WAT    EPW46910   0.796   2.289   5.868
11548WAT      O46911   0.751   1.311   7.038
11548WAT     H146912   0.673   1.289   7.070
11548WAT     H246913   0.806   1.261   7.082
11548WAT    EPW46914   0.747   1.301   7.049
11549WAT      O46915   1.919   1.198   7.124
11549WAT     H146916   1.930   1.262   7.183
11549WAT     H246917   1.997   1.159   7.122
11549WAT    EPW46918   1.932   1.202   7.133
11550WAT      O46919   1.119   1.327   6.939
11550WAT     H146920   1.059   1.275   6.903
11550WAT     H246921   1.195   1.291   6.915
11550WAT    EPW46922   1.122   1.314   6.930
11551WAT      O46923   1.426   2.470   7.050
11551WAT     H146924   1.454   2.538   7.096
11551WAT     H246925   1.420   2.502   6.969
11551WAT    EPW46926   1.429   2.485   7.045
11552WAT      O46927   1.398   2.871   7.468
11552WAT     H146928   1.324   2.826   7.478
11552WAT     H246929   1.375   2.952   7.489
11552WAT    EPW46930   1.384   2.876   7.472
11553WAT      O46931   0.918   1.823   7.382
11553WAT     H146932   0.876   1.749   7.361
11553WAT     H246933   0.871   1.885   7.343
11553WAT    EPW46934   0.905   1.821   7.373
11554WAT      O46935   0.992   1.159   5.953
11554WAT     H146936   1.003   1.169   5.867
11554WAT     H246937   0.905   1.158   5.963
11554WAT    EPW46938   0.981   1.160   5.941
11555WAT      O46939   1.883   2.321   7.030
11555WAT     H146940   1.846   2.252   6.993
11555WAT     H246941   1.833   2.388   7.003
11555WAT    EPW46942   1.870   2.321   7.021
11556WAT      O46943   0.788   2.834   7.404
11556WAT     H146944   0.856   2.876   7.369
11556WAT     H246945   0.825   2.764   7.442
11556WAT    EPW46946   0.804   2.830   7.404
11557WAT      O46947   1.769   2.573   6.962
11557WAT     H146948   1.838   2.582   6.910
11557WAT     H246949   1.709   2.535   6.910
11557WAT    EPW46950   1.770   2.568   6.946
11558WAT      O46951   0.511   1.255   7.172
11558WAT     H146952   0.449   1.194   7.166
11558WAT     H246953   0.467   1.330   7.167
11558WAT    EPW46954   0.495   1.257   7.171
11559WAT      O46955   1.363   1.242   6.831
11559WAT     H146956   1.429   1.297   6.851
11559WAT     H246957   1.333   1.274   6.755
11559WAT    EPW46958   1.368   1.255   6.822
11560WAT      O46959   0.540   2.714   7.517
11560WAT     H146960   0.604   2.773   7.515
11560WAT     H246961   0.468   2.762   7.509
11560WAT    EPW46962   0.539   2.730   7.516
11561WAT      O46963   1.339   1.738   6.584
11561WAT     H146964   1.392   1.670   6.595
11561WAT     H246965   1.307   1.752   6.664
11561WAT    EPW46966   1.342   1.730   6.598
11562WAT      O46967   0.356   1.553   6.507
11562WAT     H146968   0.303   1.528   6.572
11562WAT     H246969   0.424   1.498   6.514
11562WAT    EPW46970   0.358   1.541   6.518
11563WAT      O46971   0.370   2.445   7.268
11563WAT     H146972   0.317   2.491   7.320
11563WAT     H246973   0.450   2.461   7.300
11563WAT    EPW46974   0.374   2.454   7.281
11564WAT      O46975   1.511   1.910   6.213
11564WAT     H146976   1.532   1.828   6.233
11564WAT     H246977   1.437   1.903   6.168
11564WAT    EPW46978   1.503   1.897   6.209
11565WAT      O46979   0.493   2.771   6.162
11565WAT     H146980   0.464   2.739   6.087
11565WAT     H246981   0.580   2.763   6.156
11565WAT    EPW46982   0.502   2.765   6.150
11566WAT      O46983   0.892   1.982   6.143
11566WAT     H146984   0.920   2.009   6.065
11566WAT     H246985   0.966   1.964   6.186
11566WAT    EPW46986   0.907   1.983   6.138
11567WAT      O46987   1.777   2.844   5.861
11567WAT     H146988   1.849   2.834   5.909
11567WAT     H246989   1.762   2.765   5.829
11567WAT    EPW46990   1.786   2.831   5.863
11568WAT      O46991   1.888   2.056   7.522
11568WAT     H146992   1.968   2.034   7.548
11568WAT     H246993   1.902   2.107   7.453
11568WAT    EPW46994   1.902   2.060   7.516
11569WAT      O46995   1.422   2.458   6.124
11569WAT     H146996   1.374   2.453   6.197
11569WAT     H246997   1.383   2.401   6.071
11569WAT    EPW46998   1.409   2.449   6.127
11570WAT      O46999   1.847   1.457   7.668
11570WAT     H147000   1.901   1.513   7.629
11570WAT     H247001   1.777   1.455   7.616
11570WAT    EPW47002   1.845   1.465   7.655
11571WAT      O47003   1.907   1.638   6.919
11571WAT     H147004   1.824   1.665   6.914
11571WAT     H247005   1.901   1.551   6.918
11571WAT    EPW47006   1.894   1.629   6.918
11572WAT      O47007   0.858   1.347   7.390
11572WAT     H147008   0.882   1.300   7.321
11572WAT     H247009   0.779   1.315   7.409
11572WAT    EPW47010   0.850   1.335   7.382
11573WAT      O47011   1.649   2.091   7.663
11573WAT     H147012   1.731   2.085   7.633
11573WAT     H247013   1.617   2.160   7.621
11573WAT    EPW47014   1.656   2.101   7.652
11574WAT      O47015   0.497   2.654   6.814
11574WAT     H147016   0.498   2.575   6.779
11574WAT     H247017   0.452   2.702   6.756
11574WAT    EPW47018   0.491   2.650   6.800
11575WAT      O47019   1.091   2.311   6.024
11575WAT     H147020   1.169   2.283   5.998
11575WAT     H247021   1.078   2.382   5.974
11575WAT    EPW47022   1.100   2.317   6.012
11576WAT      O47023   0.341   2.891   7.193
11576WAT     H147024   0.328   2.876   7.278
11576WAT     H247025   0.367   2.814   7.162
11576WAT    EPW47026   0.343   2.877   7.201
11577WAT      O47027   1.273   1.150   4.498
11577WAT     H147028   1.274   1.192   4.421
11577WAT     H247029   1.357   1.133   4.514
11577WAT    EPW47030   1.285   1.154   4.489
11578WAT      O47031   1.227   1.772   4.947
11578WAT     H147032   1.191   1.848   4.971
11578WAT     H247033   1.286   1.757   5.009
11578WAT    EPW47034   1.231   1.781   4.959
11579WAT      O47035   1.823   2.615   4.258
11579WAT     H147036   1.885   2.558   4.278
11579WAT     H247037   1.770   2.570   4.205
11579WAT    EPW47038   1.824   2.600   4.253
11580WAT      O47039   0.568   2.144   4.031
11580WAT     H147040   0.507   2.131   3.970
11580WAT     H247041   0.542   2.093   4.097
11580WAT    EPW47042   0.555   2.135   4.032
11581WAT      O47043   1.467   1.963   4.587
11581WAT     H147044   1.474   1.948   4.501
11581WAT     H247045   1.414   1.899   4.614
11581WAT    EPW47046   1.460   1.951   4.578
11582WAT      O47047   0.404   2.414   4.394
11582WAT     H147048   0.453   2.360   4.441
11582WAT     H247049   0.322   2.389   4.411
11582WAT    EPW47050   0.399   2.403   4.403
11583WAT      O47051   0.947   1.275   4.377
11583WAT     H147052   0.934   1.345   4.327
11583WAT     H247053   1.024   1.245   4.350
11583WAT    EPW47054   0.957   1.281   4.366
11584WAT      O47055   0.396   2.628   4.008
11584WAT     H147056   0.427   2.620   3.927
11584WAT     H247057   0.413   2.551   4.044
11584WAT    EPW47058   0.403   2.616   4.001
11585WAT      O47059   0.884   2.304   5.590
11585WAT     H147060   0.869   2.294   5.676
11585WAT     H247061   0.811   2.274   5.553
11585WAT    EPW47062   0.871   2.298   5.597
11586WAT      O47063   0.419   1.970   4.510
11586WAT     H147064   0.349   1.922   4.489
11586WAT     H247065   0.471   1.913   4.552
11586WAT    EPW47066   0.416   1.954   4.513
11587WAT      O47067   0.832   1.555   5.153
11587WAT     H147068   0.901   1.563   5.099
11587WAT     H247069   0.817   1.469   5.153
11587WAT    EPW47070   0.840   1.543   5.145
11588WAT      O47071   0.880   2.612   5.327
11588WAT     H147072   0.894   2.667   5.261
11588WAT     H247073   0.961   2.589   5.351
11588WAT    EPW47074   0.894   2.617   5.321
11589WAT      O47075   0.541   1.766   4.654
11589WAT     H147076   0.616   1.721   4.657
11589WAT     H247077   0.480   1.705   4.649
11589WAT    EPW47078   0.543   1.750   4.654
11590WAT      O47079   0.978   2.400   4.748
11590WAT     H147080   1.004   2.319   4.768
11590WAT     H247081   1.052   2.443   4.734
11590WAT    EPW47082   0.993   2.394   4.749
11591WAT      O47083   1.021   2.341   4.388
11591WAT     H147084   1.060   2.279   4.434
11591WAT     H247085   1.042   2.323   4.306
11591WAT    EPW47086   1.030   2.330   4.383
11592WAT      O47087   1.150   1.816   5.553
11592WAT     H147088   1.063   1.814   5.545
11592WAT     H247089   1.163   1.866   5.623
11592WAT    EPW47090   1.139   1.823   5.562
11593WAT      O47091   0.669   1.251   4.416
11593WAT     H147092   0.635   1.316   4.369
11593WAT     H247093   0.755   1.258   4.401
11593WAT    EPW47094   0.677   1.262   4.407
11594WAT      O47095   1.651   1.072   5.439
11594WAT     H147096   1.620   1.138   5.391
11594WAT     H247097   1.583   1.046   5.486
11594WAT    EPW47098   1.637   1.078   5.439
11595WAT      O47099   0.959   1.215   4.653
11595WAT     H147100   0.973   1.297   4.682
11595WAT     H247101   0.947   1.225   4.567
11595WAT    EPW47102   0.959   1.229   4.645
11596WAT      O47103   1.389   1.450   3.879
11596WAT     H147104   1.339   1.516   3.907
11596WAT     H247105   1.403   1.403   3.952
11596WAT    EPW47106   1.384   1.453   3.894
11597WAT      O47107   0.801   2.515   4.376
11597WAT     H147108   0.761   2.496   4.451
11597WAT     H247109   0.874   2.468   4.380
11597WAT    EPW47110   0.806   2.505   4.388
11598WAT      O47111   1.384   2.730   4.168
11598WAT     H147112   1.455   2.780   4.172
11598WAT     H247113   1.414   2.651   4.188
11598WAT    EPW47114   1.399   2.726   4.171
11599WAT      O47115   1.188   2.769   4.358
11599WAT     H147116   1.212   2.840   4.403
11599WAT     H247117   1.249   2.762   4.296
11599WAT    EPW47118   1.201   2.778   4.355
11600WAT      O47119   0.456   1.213   4.844
11600WAT     H147120   0.417   1.143   4.812
11600WAT     H247121   0.516   1.180   4.898
11600WAT    EPW47122   0.459   1.198   4.848
11601WAT      O47123   0.828   1.459   5.813
11601WAT     H147124   0.838   1.428   5.732
11601WAT     H247125   0.864   1.539   5.809
11601WAT    EPW47126   0.835   1.466   5.800
11602WAT      O47127   0.407   2.689   4.457
11602WAT     H147128   0.410   2.603   4.443
11602WAT     H247129   0.412   2.723   4.377
11602WAT    EPW47130   0.408   2.681   4.444
11603WAT      O47131   1.952   1.432   4.603
11603WAT     H147132   1.902   1.503   4.611
11603WAT     H247133   1.894   1.367   4.595
11603WAT    EPW47134   1.936   1.433   4.603
11604WAT      O47135   1.439   2.736   5.166
11604WAT     H147136   1.506   2.792   5.161
11604WAT     H247137   1.426   2.712   5.083
11604WAT    EPW47138   1.447   2.741   5.153
11605WAT      O47139   0.434   1.385   5.670
11605WAT     H147140   0.375   1.403   5.609
11605WAT     H247141   0.488   1.329   5.631
11605WAT    EPW47142   0.434   1.379   5.655
11606WAT      O47143   0.502   2.404   4.806
11606WAT     H147144   0.562   2.407   4.742
11606WAT     H247145   0.545   2.369   4.873
11606WAT    EPW47146   0.517   2.399   4.806
11607WAT      O47147   0.785   2.724   4.725
11607WAT     H147148   0.862   2.745   4.689
11607WAT     H247149   0.728   2.774   4.681
11607WAT    EPW47150   0.788   2.735   4.713
11608WAT      O47151   1.023   1.184   5.682
11608WAT     H147152   1.027   1.112   5.633
11608WAT     H247153   0.962   1.232   5.642
11608WAT    EPW47154   1.014   1.181   5.669
11609WAT      O47155   1.122   1.683   4.519
11609WAT     H147156   1.151   1.645   4.446
11609WAT     H247157   1.195   1.698   4.565
11609WAT    EPW47158   1.137   1.680   4.515
11610WAT      O47159   1.219   1.653   4.002
11610WAT     H147160   1.244   1.731   4.032
11610WAT     H247161   1.140   1.668   3.968
11610WAT    EPW47162   1.211   1.667   4.001
11611WAT      O47163   1.593   2.917   4.145
11611WAT     H147164   1.644   2.894   4.078
11611WAT     H247165   1.646   2.966   4.195
11611WAT    EPW47166   1.609   2.921   4.143
11612WAT      O47167   0.665   2.834   5.283
11612WAT     H147168   0.700   2.800   5.355
11612WAT     H247169   0.599   2.779   5.264
11612WAT    EPW47170   0.660   2.821   5.291
11613WAT      O47171   1.860   1.362   5.031
11613WAT     H147172   1.924   1.350   4.972
11613WAT     H247173   1.878   1.304   5.093
11613WAT    EPW47174   1.872   1.352   5.032
11614WAT      O47175   1.336   2.539   5.557
11614WAT     H147176   1.329   2.561   5.641
11614WAT     H247177   1.422   2.533   5.544
11614WAT    EPW47178   1.347   2.541   5.567
11615WAT      O47179   1.080   2.558   3.975
11615WAT     H147180   1.047   2.618   4.029
11615WAT     H247181   1.158   2.591   3.953
11615WAT    EPW47182   1.087   2.572   3.980
11616WAT      O47183   1.428   1.294   4.106
11616WAT     H147184   1.483   1.227   4.114
11616WAT     H247185   1.444   1.342   4.177
11616WAT    EPW47186   1.438   1.291   4.118
11617WAT      O47187   0.270   1.458   4.364
11617WAT     H147188   0.198   1.409   4.370
11617WAT     H247189   0.288   1.478   4.447
11617WAT    EPW47190   0.262   1.454   4.377
11618WAT      O47191   0.451   2.676   5.194
11618WAT     H147192   0.418   2.601   5.225
11618WAT     H247193   0.461   2.661   5.109
11618WAT    EPW47194   0.448   2.663   5.186
11619WAT      O47195   1.185   1.566   4.269
11619WAT     H147196   1.109   1.525   4.256
11619WAT     H247197   1.204   1.597   4.190
11619WAT    EPW47198   1.177   1.564   4.255
11620WAT      O47199   1.200   2.811   5.272
11620WAT     H147200   1.277   2.795   5.235
11620WAT     H247201   1.144   2.805   5.205
11620WAT    EPW47202   1.203   2.808   5.256
11621WAT      O47203   1.191   1.221   4.234
11621WAT     H147204   1.132   1.207   4.172
11621WAT     H247205   1.262   1.245   4.190
11621WAT    EPW47206   1.193   1.223   4.218
11622WAT      O47207   1.892   2.848   4.546
11622WAT     H147208   1.846   2.921   4.557
11622WAT     H247209   1.832   2.786   4.535
11622WAT    EPW47210   1.877   2.850   4.546
11623WAT      O47211   1.016   1.492   4.695
11623WAT     H147212   1.042   1.556   4.643
11623WAT     H247213   1.023   1.526   4.775
11623WAT    EPW47214   1.021   1.506   4.699
11624WAT      O47215   1.620   2.416   4.602
11624WAT     H147216   1.683   2.356   4.591
11624WAT     H247217   1.546   2.371   4.596
11624WAT    EPW47218   1.619   2.401   4.599
11625WAT      O47219   0.639   2.513   5.447
11625WAT     H147220   0.712   2.552   5.419
11625WAT     H247221   0.623   2.554   5.523
11625WAT    EPW47222   0.648   2.525   5.454
11626WAT      O47223   0.587   1.013   4.533
11626WAT     H147224   0.616   1.087   4.496
11626WAT     H247225   0.553   0.970   4.465
11626WAT    EPW47226   0.586   1.018   4.517
11627WAT      O47227   0.787   2.091   4.906
11627WAT     H147228   0.819   2.083   4.987
11627WAT     H247229   0.735   2.021   4.897
11627WAT    EPW47230   0.784   2.079   4.917
11628WAT      O47231   1.369   1.481   5.281
11628WAT     H147232   1.368   1.523   5.357
11628WAT     H247233   1.307   1.421   5.289
11628WAT    EPW47234   1.360   1.478   5.293
11629WAT      O47235   0.892   2.104   5.159
11629WAT     H147236   0.888   2.190   5.174
11629WAT     H247237   0.857   2.069   5.231
11629WAT    EPW47238   0.886   2.112   5.172
11630WAT      O47239   1.499   2.184   5.145
11630WAT     H147240   1.429   2.153   5.186
11630WAT     H247241   1.489   2.271   5.151
11630WAT    EPW47242   1.487   2.193   5.152
11631WAT      O47243   1.530   1.076   4.578
11631WAT     H147244   1.532   1.056   4.662
11631WAT     H247245   1.566   1.006   4.540
11631WAT    EPW47246   1.536   1.063   4.584
11632WAT      O47247   1.741   1.525   5.374
11632WAT     H147248   1.824   1.508   5.394
11632WAT     H247249   1.699   1.517   5.450
11632WAT    EPW47250   1.747   1.521   5.388
11633WAT      O47251   0.568   1.375   4.646
11633WAT     H147252   0.598   1.322   4.582
11633WAT     H247253   0.539   1.319   4.706
11633WAT    EPW47254   0.568   1.359   4.645
11634WAT      O47255   1.798   2.216   4.119
11634WAT     H147256   1.799   2.170   4.193
11634WAT     H247257   1.883   2.228   4.101
11634WAT    EPW47258   1.811   2.211   4.127
11635WAT      O47259   0.538   2.220   4.530
11635WAT     H147260   0.621   2.211   4.503
11635WAT     H247261   0.504   2.140   4.516
11635WAT    EPW47262   0.545   2.207   4.524
11636WAT      O47263   0.382   2.830   4.738
11636WAT     H147264   0.324   2.792   4.685
11636WAT     H247265   0.451   2.842   4.686
11636WAT    EPW47266   0.384   2.826   4.722
11637WAT      O47267   0.371   1.614   5.033
11637WAT     H147268   0.456   1.606   5.011
11637WAT     H247269   0.357   1.700   5.024
11637WAT    EPW47270   0.382   1.626   5.028
11638WAT      O47271   2.026   2.663   5.518
11638WAT     H147272   1.945   2.672   5.487
11638WAT     H247273   2.014   2.625   5.596
11638WAT    EPW47274   2.012   2.659   5.525
11639WAT      O47275   1.616   1.879   4.043
11639WAT     H147276   1.608   1.961   4.013
11639WAT     H247277   1.585   1.885   4.125
11639WAT    EPW47278   1.610   1.892   4.051
11640WAT      O47279   0.789   2.176   4.420
11640WAT     H147280   0.854   2.232   4.410
11640WAT     H247281   0.808   2.112   4.363
11640WAT    EPW47282   0.801   2.175   4.410
11641WAT      O47283   1.945   1.359   4.049
11641WAT     H147284   1.983   1.292   4.008
11641WAT     H247285   1.915   1.408   3.983
11641WAT    EPW47286   1.946   1.356   4.033
11642WAT      O47287   0.948   1.709   5.813
11642WAT     H147288   0.899   1.738   5.879
11642WAT     H247289   0.918   1.754   5.744
11642WAT    EPW47290   0.937   1.720   5.812
11643WAT      O47291   2.031   1.788   5.273
11643WAT     H147292   2.072   1.715   5.249
11643WAT     H247293   1.953   1.781   5.235
11643WAT    EPW47294   2.025   1.776   5.264
11644WAT      O47295   1.800   1.246   4.264
11644WAT     H147296   1.873   1.205   4.287
11644WAT     H247297   1.825   1.300   4.200
11644WAT    EPW47298   1.814   1.248   4.258
11645WAT      O47299   1.195   2.567   4.707
11645WAT     H147300   1.151   2.640   4.689
11645WAT     H247301   1.227   2.543   4.629
11645WAT    EPW47302   1.193   2.574   4.693
11646WAT      O47303   0.630   2.286   5.022
11646WAT     H147304   0.689   2.324   5.074
11646WAT     H247305   0.676   2.227   4.978
11646WAT    EPW47306   0.645   2.283   5.023
11647WAT      O47307   1.490   1.506   4.714
11647WAT     H147308   1.521   1.473   4.788
11647WAT     H247309   1.425   1.452   4.693
11647WAT    EPW47310   1.485   1.493   4.722
11648WAT      O47311   0.372   2.144   4.789
11648WAT     H147312   0.381   2.106   4.711
11648WAT     H247313   0.405   2.224   4.776
11648WAT    EPW47314   0.378   2.150   4.776
11649WAT      O47315   0.924   1.480   4.194
11649WAT     H147316   0.911   1.452   4.112
11649WAT     H247317   0.887   1.559   4.194
11649WAT    EPW47318   0.916   1.488   4.182
11650WAT      O47319   1.772   2.689   5.385
11650WAT     H147320   1.720   2.756   5.404
11650WAT     H247321   1.770   2.685   5.298
11650WAT    EPW47322   1.764   2.698   5.375
11651WAT      O47323   0.724   2.468   4.640
11651WAT     H147324   0.735   2.551   4.667
11651WAT     H247325   0.798   2.429   4.667
11651WAT    EPW47326   0.737   2.475   4.648
11652WAT      O47327   0.521   1.842   5.652
11652WAT     H147328   0.492   1.776   5.700
11652WAT     H247329   0.519   1.810   5.571
11652WAT    EPW47330   0.517   1.828   5.647
11653WAT      O47331   0.534   1.706   4.161
11653WAT     H147332   0.533   1.631   4.206
11653WAT     H247333   0.502   1.683   4.083
11653WAT    EPW47334   0.529   1.691   4.156
11654WAT      O47335   0.618   1.870   4.908
11654WAT     H147336   0.579   1.867   4.830
11654WAT     H247337   0.637   1.787   4.924
11654WAT    EPW47338   0.615   1.858   4.899
11655WAT      O47339   0.558   1.911   5.183
11655WAT     H147340   0.588   1.890   5.104
11655WAT     H247341   0.500   1.975   5.166
11655WAT    EPW47342   0.554   1.917   5.169
11656WAT      O47343   1.632   1.684   4.979
11656WAT     H147344   1.569   1.711   5.032
11656WAT     H247345   1.628   1.740   4.912
11656WAT    EPW47346   1.622   1.696   4.977
11657WAT      O47347   0.982   2.765   5.104
11657WAT     H147348   0.963   2.700   5.049
11657WAT     H247349   0.966   2.837   5.057
11657WAT    EPW47350   0.977   2.766   5.089
11658WAT      O47351   1.215   1.261   5.354
11658WAT     H147352   1.228   1.181   5.322
11658WAT     H247353   1.243   1.256   5.436
11658WAT    EPW47354   1.221   1.248   5.361
11659WAT      O47355   1.431   1.444   4.335
11659WAT     H147356   1.487   1.509   4.346
11659WAT     H247357   1.354   1.484   4.323
11659WAT    EPW47358   1.428   1.459   4.335
11660WAT      O47359   0.397   2.082   5.723
11660WAT     H147360   0.379   2.126   5.650
11660WAT     H247361   0.429   2.006   5.694
11660WAT    EPW47362   0.399   2.077   5.708
11661WAT      O47363   1.549   2.245   5.593
11661WAT     H147364   1.573   2.327   5.575
11661WAT     H247365   1.584   2.199   5.528
11661WAT    EPW47366   1.557   2.250   5.581
11662WAT      O47367   0.964   2.574   5.622
11662WAT     H147368   0.991   2.568   5.705
11662WAT     H247369   0.937   2.493   5.604
11662WAT    EPW47370   0.964   2.561   5.631
11663WAT      O47371   1.033   1.573   4.958
11663WAT     H147372   1.096   1.633   4.964
11663WAT     H247373   1.071   1.500   4.988
11663WAT    EPW47374   1.048   1.571   4.963
11664WAT      O47375   1.286   1.888   4.145
11664WAT     H147376   1.267   1.945   4.082
11664WAT     H247377   1.226   1.905   4.207
11664WAT    EPW47378   1.275   1.899   4.145
11665WAT      O47379   1.802   2.208   4.585
11665WAT     H147380   1.811   2.155   4.653
11665WAT     H247381   1.792   2.154   4.518
11665WAT    EPW47382   1.802   2.192   4.585
11666WAT      O47383   1.380   2.609   4.915
11666WAT     H147384   1.317   2.589   4.858
11666WAT     H247385   1.428   2.668   4.873
11666WAT    EPW47386   1.377   2.615   4.900
11667WAT      O47387   1.367   2.259   4.903
11667WAT     H147388   1.293   2.291   4.936
11667WAT     H247389   1.401   2.214   4.968
11667WAT    EPW47390   1.361   2.257   4.917
11668WAT      O47391   0.754   2.772   4.282
11668WAT     H147392   0.760   2.700   4.330
11668WAT     H247393   0.829   2.773   4.237
11668WAT    EPW47394   0.766   2.762   4.283
11669WAT      O47395   0.719   1.120   4.086
11669WAT     H147396   0.702   1.099   4.169
11669WAT     H247397   0.668   1.189   4.072
11669WAT    EPW47398   0.709   1.127   4.096
11670WAT      O47399   0.999   2.759   4.151
11670WAT     H147400   1.055   2.765   4.218
11670WAT     H247401   1.004   2.837   4.112
11670WAT    EPW47402   1.008   2.771   4.155
11671WAT      O47403   1.655   2.118   5.371
11671WAT     H147404   1.617   2.147   5.298
11671WAT     H247405   1.736   2.150   5.366
11671WAT    EPW47406   1.661   2.127   5.359
11672WAT      O47407   1.321   2.668   5.810
11672WAT     H147408   1.346   2.690   5.891
11672WAT     H247409   1.347   2.735   5.761
11672WAT    EPW47410   1.329   2.681   5.815
11673WAT      O47411   1.768   1.204   5.652
11673WAT     H147412   1.734   1.159   5.585
11673WAT     H247413   1.766   1.147   5.718
11673WAT    EPW47414   1.763   1.189   5.652
11674WAT      O47415   0.487   1.974   4.232
11674WAT     H147416   0.499   1.889   4.216
11674WAT     H247417   0.471   1.976   4.318
11674WAT    EPW47418   0.487   1.962   4.242
11675WAT      O47419   1.274   2.089   5.269
11675WAT     H147420   1.223   2.131   5.326
11675WAT     H247421   1.308   2.024   5.316
11675WAT    EPW47422   1.271   2.086   5.285
11676WAT      O47423   1.128   1.926   4.375
11676WAT     H147424   1.138   1.992   4.431
11676WAT     H247425   1.116   1.857   4.426
11676WAT    EPW47426   1.128   1.926   4.390
11677WAT      O47427   1.625   2.388   4.882
11677WAT     H147428   1.634   2.402   4.797
11677WAT     H247429   1.542   2.362   4.889
11677WAT    EPW47430   1.614   2.386   4.871
11678WAT      O47431   0.586   1.356   4.016
11678WAT     H147432   0.531   1.360   3.948
11678WAT     H247433   0.658   1.396   3.987
11678WAT    EPW47434   0.588   1.362   4.002
11679WAT      O47435   1.040   2.133   4.796
11679WAT     H147436   0.958   2.112   4.814
11679WAT     H247437   1.084   2.105   4.866
11679WAT    EPW47438   1.035   2.125   4.809
11680WAT      O47439   0.718   2.750   3.920
11680WAT     H147440   0.735   2.684   3.974
11680WAT     H247441   0.715   2.819   3.972
11680WAT    EPW47442   0.720   2.750   3.935
11681WAT      O47443   0.407   2.121   5.067
11681WAT     H147444   0.471   2.180   5.068
11681WAT     H247445   0.386   2.115   4.983
11681WAT    EPW47446   0.413   2.128   5.055
11682WAT      O47447   0.745   1.575   4.708
11682WAT     H147448   0.827   1.549   4.696
11682WAT     H247449   0.698   1.505   4.685
11682WAT    EPW47450   0.750   1.561   4.703
11683WAT      O47451   1.981   2.801   4.130
11683WAT     H147452   2.051   2.756   4.105
11683WAT     H247453   1.933   2.742   4.173
11683WAT    EPW47454   1.984   2.786   4.133
11684WAT      O47455   0.244   1.760   4.452
11684WAT     H147456   0.268   1.700   4.510
11684WAT     H247457   0.232   1.714   4.379
11684WAT    EPW47458   0.246   1.744   4.450
11685WAT      O47459   1.727   2.025   5.068
11685WAT     H147460   1.733   1.958   5.123
11685WAT     H247461   1.649   2.059   5.084
11685WAT    EPW47462   1.717   2.020   5.079
11686WAT      O47463   0.733   1.948   3.911
11686WAT     H147464   0.679   2.002   3.952
11686WAT     H247465   0.683   1.912   3.849
11686WAT    EPW47466   0.718   1.950   3.908
11687WAT      O47467   0.365   2.208   5.472
11687WAT     H147468   0.320   2.160   5.416
11687WAT     H247469   0.355   2.290   5.443
11687WAT    EPW47470   0.357   2.213   5.459
11688WAT      O47471   1.847   2.037   4.810
11688WAT     H147472   1.815   2.043   4.891
11688WAT     H247473   1.934   2.037   4.822
11688WAT    EPW47474   1.855   2.038   4.824
11689WAT      O47475   0.810   1.733   4.158
11689WAT     H147476   0.829   1.811   4.192
11689WAT     H247477   0.723   1.732   4.155
11689WAT    EPW47478   0.800   1.744   4.163
11690WAT      O47479   1.635   1.454   5.630
11690WAT     H147480   1.559   1.456   5.673
11690WAT     H247481   1.663   1.372   5.641
11690WAT    EPW47482   1.628   1.442   5.638
11691WAT      O47483   0.266   1.433   4.847
11691WAT     H147484   0.315   1.361   4.858
11691WAT     H247485   0.289   1.484   4.913
11691WAT    EPW47486   0.277   1.430   4.858
11692WAT      O47487   1.975   2.549   4.857
11692WAT     H147488   2.025   2.607   4.816
11692WAT     H247489   2.014   2.538   4.934
11692WAT    EPW47490   1.988   2.556   4.862
11693WAT      O47491   1.470   1.810   5.718
11693WAT     H147492   1.510   1.817   5.795
11693WAT     H247493   1.396   1.854   5.730
11693WAT    EPW47494   1.465   1.817   5.731
11694WAT      O47495   1.690   1.856   5.542
11694WAT     H147496   1.718   1.934   5.568
11694WAT     H247497   1.625   1.838   5.597
11694WAT    EPW47498   1.684   1.865   5.554
11695WAT      O47499   1.668   2.459   4.096
11695WAT     H147500   1.704   2.380   4.107
11695WAT     H247501   1.591   2.453   4.136
11695WAT    EPW47502   1.662   2.447   4.103
11696WAT      O47503   1.729   1.610   4.619
11696WAT     H147504   1.663   1.562   4.649
11696WAT     H247505   1.721   1.686   4.661
11696WAT    EPW47506   1.718   1.614   4.629
11697WAT      O47507   2.020   1.925   5.750
11697WAT     H147508   2.021   1.872   5.681
11697WAT     H247509   2.100   1.962   5.748
11697WAT    EPW47510   2.032   1.923   5.740
11698WAT      O47511   1.924   2.207   5.407
11698WAT     H147512   1.979   2.154   5.366
11698WAT     H247513   1.963   2.285   5.401
11698WAT    EPW47514   1.938   2.211   5.400
11699WAT      O47515   1.345   2.259   4.030
11699WAT     H147516   1.421   2.219   4.023
11699WAT     H247517   1.315   2.263   3.948
11699WAT    EPW47518   1.352   2.254   4.017
11700WAT      O47519   0.866   2.390   5.152
11700WAT     H147520   0.861   2.446   5.218
11700WAT     H247521   0.866   2.441   5.081
11700WAT    EPW47522   0.865   2.406   5.151
11701WAT      O47523   0.644   2.236   5.458
11701WAT     H147524   0.560   2.216   5.471
11701WAT     H247525   0.642   2.323   5.448
11701WAT    EPW47526   0.631   2.246   5.459
11702WAT      O47527   1.589   1.304   5.287
11702WAT     H147528   1.648   1.368   5.302
11702WAT     H247529   1.514   1.348   5.278
11702WAT    EPW47530   1.587   1.320   5.288
11703WAT      O47531   1.129   2.017   5.042
11703WAT     H147532   1.184   2.040   5.105
11703WAT     H247533   1.050   2.033   5.077
11703WAT    EPW47534   1.125   2.022   5.057
11704WAT      O47535   0.763   1.593   5.418
11704WAT     H147536   0.780   1.516   5.456
11704WAT     H247537   0.791   1.583   5.337
11704WAT    EPW47538   0.769   1.580   5.412
11705WAT      O47539   1.036   2.785   4.617
11705WAT     H147540   1.037   2.871   4.634
11705WAT     H247541   1.053   2.782   4.532
11705WAT    EPW47542   1.039   2.797   4.607
11706WAT      O47543   1.656   1.100   5.103
11706WAT     H147544   1.629   1.172   5.143
11706WAT     H247545   1.741   1.095   5.124
11706WAT    EPW47546   1.665   1.110   5.112
11707WAT      O47547   0.947   1.190   5.361
11707WAT     H147548   1.025   1.224   5.344
11707WAT     H247549   0.965   1.111   5.394
11707WAT    EPW47550   0.961   1.183   5.364
11708WAT      O47551   0.876   2.567   4.941
11708WAT     H147552   0.829   2.620   4.890
11708WAT     H247553   0.915   2.513   4.884
11708WAT    EPW47554   0.874   2.567   4.925
11709WAT      O47555   1.284   2.215   5.661
11709WAT     H147556   1.365   2.227   5.632
11709WAT     H247557   1.234   2.236   5.592
11709WAT    EPW47558   1.288   2.220   5.646
11710WAT      O47559   1.615   2.513   5.541
11710WAT     H147560   1.652   2.537   5.616
11710WAT     H247561   1.661   2.556   5.481
11710WAT    EPW47562   1.627   2.523   5.543
11711WAT      O47563   1.868   1.770   4.014
11711WAT     H147564   1.914   1.828   3.967
11711WAT     H247565   1.787   1.803   4.014
11711WAT    EPW47566   1.863   1.784   4.007
11712WAT      O47567   0.978   2.050   3.989
11712WAT     H147568   0.907   2.014   3.954
11712WAT     H247569   0.960   2.135   3.992
11712WAT    EPW47570   0.965   2.057   3.984
11713WAT      O47571   0.640   1.605   4.964
11713WAT     H147572   0.680   1.584   4.889
11713WAT     H247573   0.700   1.587   5.024
11713WAT    EPW47574   0.655   1.599   4.962
11714WAT      O47575   1.363   1.650   5.504
11714WAT     H147576   1.286   1.689   5.517
11714WAT     H247577   1.405   1.663   5.579
11714WAT    EPW47578   1.358   1.658   5.517
11715WAT      O47579   1.414   1.722   5.144
11715WAT     H147580   1.424   1.776   5.212
11715WAT     H247581   1.399   1.645   5.182
11715WAT    EPW47582   1.413   1.719   5.160
11716WAT      O47583   1.108   2.801   5.533
11716WAT     H147584   1.134   2.790   5.451
11716WAT     H247585   1.078   2.722   5.556
11716WAT    EPW47586   1.108   2.787   5.524
11717WAT      O47587   1.613   1.659   4.373
11717WAT     H147588   1.640   1.640   4.454
11717WAT     H247589   1.685   1.689   4.334
11717WAT    EPW47590   1.627   1.661   4.379
11718WAT      O47591   0.924   1.139   4.933
11718WAT     H147592   0.839   1.133   4.950
11718WAT     H247593   0.927   1.148   4.846
11718WAT    EPW47594   0.912   1.140   4.923
11719WAT      O47595   1.754   1.243   4.542
11719WAT     H147596   1.676   1.208   4.559
11719WAT     H247597   1.750   1.260   4.456
11719WAT    EPW47598   1.742   1.240   4.532
11720WAT      O47599   1.756   2.056   4.348
11720WAT     H147600   1.796   1.979   4.337
11720WAT     H247601   1.671   2.036   4.342
11720WAT    EPW47602   1.749   2.041   4.346
11721WAT      O47603   1.118   2.260   5.439
11721WAT     H147604   1.043   2.264   5.483
11721WAT     H247605   1.127   2.341   5.407
11721WAT    EPW47606   1.108   2.273   5.441
11722WAT      O47607   0.655   2.901   4.999
11722WAT     H147608   0.662   2.893   5.086
11722WAT     H247609   0.628   2.822   4.973
11722WAT    EPW47610   0.652   2.888   5.008
11723WAT      O47611   0.534   1.449   4.272
11723WAT     H147612   0.539   1.416   4.191
11723WAT     H247613   0.449   1.443   4.292
11723WAT    EPW47614   0.522   1.443   4.263
11724WAT      O47615   1.403   2.232   4.628
11724WAT     H147616   1.388   2.240   4.713
11724WAT     H247617   1.432   2.150   4.620
11724WAT    EPW47618   1.405   2.221   4.639
11725WAT      O47619   1.151   2.150   4.540
11725WAT     H147620   1.112   2.139   4.617
11725WAT     H247621   1.230   2.180   4.561
11725WAT    EPW47622   1.157   2.153   4.554
11726WAT      O47623   1.150   2.533   5.355
11726WAT     H147624   1.206   2.533   5.422
11726WAT     H247625   1.181   2.595   5.302
11726WAT    EPW47626   1.163   2.542   5.357
11727WAT      O47627   1.960   1.755   5.538
11727WAT     H147628   1.874   1.771   5.539
11727WAT     H247629   1.983   1.773   5.456
11727WAT    EPW47630   1.950   1.760   5.526
11728WAT      O47631   1.437   1.886   5.371
11728WAT     H147632   1.417   1.819   5.422
11728WAT     H247633   1.513   1.914   5.403
11728WAT    EPW47634   1.445   1.880   5.383
11729WAT      O47635   0.376   2.855   5.570
11729WAT     H147636   0.319   2.889   5.627
11729WAT     H247637   0.438   2.916   5.565
11729WAT    EPW47638   0.377   2.869   5.578
11730WAT      O47639   1.220   1.972   5.777
11730WAT     H147640   1.245   2.047   5.739
11730WAT     H247641   1.141   1.991   5.808
11730WAT    EPW47642   1.212   1.986   5.776
11731WAT      O47643   1.528   2.826   4.828
11731WAT     H147644   1.495   2.889   4.878
11731WAT     H247645   1.598   2.798   4.873
11731WAT    EPW47646   1.534   2.831   4.842
11732WAT      O47647   1.154   2.365   5.059
11732WAT     H147648   1.078   2.364   5.102
11732WAT     H247649   1.211   2.394   5.118
11732WAT    EPW47650   1.151   2.369   5.074
11733WAT      O47651   1.747   2.585   5.774
11733WAT     H147652   1.831   2.563   5.774
11733WAT     H247653   1.715   2.543   5.843
11733WAT    EPW47654   1.754   2.576   5.784
11734WAT      O47655   0.519   1.727   5.397
11734WAT     H147656   0.527   1.781   5.329
11734WAT     H247657   0.596   1.686   5.399
11734WAT    EPW47658   0.532   1.729   5.387
11735WAT      O47659   0.366   1.517   5.297
11735WAT     H147660   0.355   1.541   5.214
11735WAT     H247661   0.408   1.585   5.333
11735WAT    EPW47662   0.371   1.530   5.290
11736WAT      O47663   1.840   1.797   4.290
11736WAT     H147664   1.858   1.791   4.205
11736WAT     H247665   1.913   1.767   4.328
11736WAT    EPW47666   1.854   1.792   4.283
11737WAT      O47667   0.593   1.187   5.542
11737WAT     H147668   0.646   1.118   5.535
11737WAT     H247669   0.573   1.206   5.459
11737WAT    EPW47670   0.598   1.180   5.529
11738WAT      O47671   1.242   2.506   4.436
11738WAT     H147672   1.221   2.587   4.412
11738WAT     H247673   1.169   2.461   4.422
11738WAT    EPW47674   1.228   2.511   4.430
11739WAT      O47675   1.743   1.802   5.264
11739WAT     H147676   1.730   1.716   5.273
11739WAT     H247677   1.724   1.833   5.344
11739WAT    EPW47678   1.739   1.794   5.277
11740WAT      O47679   0.226   2.076   5.272
11740WAT     H147680   0.277   2.093   5.203
11740WAT     H247681   0.145   2.086   5.240
11740WAT    EPW47682   0.222   2.080   5.257
11741WAT      O47683   0.418   1.634   3.911
11741WAT     H147684   0.332   1.643   3.917
11741WAT     H247685   0.429   1.558   3.869
11741WAT    EPW47686   0.407   1.624   3.905
11742WAT      O47687   1.288   1.239   5.621
11742WAT     H147688   1.320   1.308   5.664
11742WAT     H247689   1.207   1.230   5.652
11742WAT    EPW47690   1.281   1.248   5.632
11743WAT      O47691   1.262   1.347   4.693
11743WAT     H147692   1.186   1.388   4.691
11743WAT     H247693   1.255   1.286   4.631
11743WAT    EPW47694   1.250   1.344   4.683
11744WAT      O47695   0.739   2.520   4.092
11744WAT     H147696   0.768   2.525   4.174
11744WAT     H247697   0.659   2.487   4.100
11744WAT    EPW47698   0.732   2.516   4.105
11745WAT      O47699   1.589   1.410   4.956
11745WAT     H147700   1.668   1.377   4.972
11745WAT     H247701   1.598   1.494   4.977
11745WAT    EPW47702   1.602   1.418   4.961
11746WAT      O47703   0.752   1.995   5.371
11746WAT     H147704   0.717   2.069   5.404
11746WAT     H247705   0.690   1.966   5.317
11746WAT    EPW47706   0.737   2.002   5.368
11747WAT      O47707   1.661   1.844   4.749
11747WAT     H147708   1.723   1.904   4.765
11747WAT     H247709   1.603   1.888   4.701
11747WAT    EPW47710   1.661   1.860   4.744
11748WAT      O47711   1.678   2.672   4.487
11748WAT     H147712   1.658   2.596   4.526
11748WAT     H247713   1.715   2.648   4.413
11748WAT    EPW47714   1.680   2.658   4.482
11749WAT      O47715   0.494   2.399   4.129
11749WAT     H147716   0.469   2.394   4.212
11749WAT     H247717   0.508   2.315   4.107
11749WAT    EPW47718   0.492   2.386   4.138
11750WAT      O47719   0.810   2.283   3.957
11750WAT     H147720   0.736   2.241   3.978
11750WAT     H247721   0.803   2.359   4.000
11750WAT    EPW47722   0.798   2.288   3.967
11751WAT      O47723   0.757   1.294   5.179
11751WAT     H147724   0.677   1.278   5.210
11751WAT     H247725   0.808   1.243   5.228
11751WAT    EPW47726   0.753   1.284   5.191
11752WAT      O47727   1.909   1.163   5.225
11752WAT     H147728   1.886   1.177   5.308
11752WAT     H247729   1.994   1.142   5.231
11752WAT    EPW47730   1.918   1.162   5.238
11753WAT      O47731   1.114   1.323   5.036
11753WAT     H147732   1.055   1.264   5.010
11753WAT     H247733   1.190   1.287   5.016
11753WAT    EPW47734   1.116   1.309   5.029
11754WAT      O47735   1.417   2.452   5.148
11754WAT     H147736   1.442   2.521   5.194
11754WAT     H247737   1.409   2.483   5.067
11754WAT    EPW47738   1.419   2.467   5.143
11755WAT      O47739   1.374   2.864   5.617
11755WAT     H147740   1.300   2.832   5.583
11755WAT     H247741   1.354   2.948   5.632
11755WAT    EPW47742   1.360   2.872   5.615
11756WAT      O47743   0.872   1.810   5.552
11756WAT     H147744   0.840   1.739   5.511
11756WAT     H247745   0.838   1.876   5.506
11756WAT    EPW47746   0.862   1.809   5.539
11757WAT      O47747   0.991   1.162   4.054
11757WAT     H147748   1.003   1.171   3.968
11757WAT     H247749   0.904   1.159   4.063
11757WAT    EPW47750   0.980   1.163   4.043
11758WAT      O47751   1.833   2.290   5.056
11758WAT     H147752   1.808   2.207   5.068
11758WAT     H247753   1.773   2.321   5.001
11758WAT    EPW47754   1.820   2.282   5.050
11759WAT      O47755   0.778   2.800   5.553
11759WAT     H147756   0.766   2.791   5.639
11759WAT     H247757   0.839   2.740   5.535
11759WAT    EPW47758   0.785   2.790   5.563
11760WAT      O47759   1.720   2.647   4.944
11760WAT     H147760   1.801   2.629   4.917
11760WAT     H247761   1.679   2.571   4.936
11760WAT    EPW47762   1.726   2.633   4.939
11761WAT      O47763   0.502   1.276   5.300
11761WAT     H147764   0.442   1.215   5.284
11761WAT     H247765   0.456   1.351   5.294
11761WAT    EPW47766   0.486   1.278   5.297
11762WAT      O47767   1.362   1.241   4.930
11762WAT     H147768   1.428   1.294   4.951
11762WAT     H247769   1.331   1.274   4.855
11762WAT    EPW47770   1.367   1.253   4.922
11763WAT      O47771   0.517   2.638   5.670
11763WAT     H147772   0.580   2.674   5.718
11763WAT     H247773   0.473   2.706   5.638
11763WAT    EPW47774   0.520   2.653   5.672
11764WAT      O47775   1.334   1.739   4.689
11764WAT     H147776   1.389   1.672   4.701
11764WAT     H247777   1.301   1.753   4.768
11764WAT    EPW47778   1.337   1.731   4.702
11765WAT      O47779   0.357   1.550   4.615
11765WAT     H147780   0.312   1.523   4.685
11765WAT     H247781   0.426   1.498   4.614
11765WAT    EPW47782   0.360   1.538   4.625
11766WAT      O47783   0.373   2.476   5.383
11766WAT     H147784   0.332   2.526   5.442
11766WAT     H247785   0.457   2.488   5.401
11766WAT    EPW47786   0.379   2.485   5.395
11767WAT      O47787   1.508   1.908   4.311
11767WAT     H147788   1.528   1.826   4.331
11767WAT     H247789   1.434   1.901   4.267
11767WAT    EPW47790   1.500   1.895   4.307
11768WAT      O47791   0.481   2.797   4.214
11768WAT     H147792   0.456   2.749   4.146
11768WAT     H247793   0.565   2.777   4.224
11768WAT    EPW47794   0.490   2.787   4.206
11769WAT      O47795   0.892   1.982   4.245
11769WAT     H147796   0.920   2.010   4.167
11769WAT     H247797   0.965   1.964   4.288
11769WAT    EPW47798   0.907   1.984   4.240
11770WAT      O47799   1.778   2.851   3.948
11770WAT     H147800   1.846   2.842   4.001
11770WAT     H247801   1.764   2.770   3.918
11770WAT    EPW47802   1.786   2.838   3.951
11771WAT      O47803   1.819   2.083   5.641
11771WAT     H147804   1.887   2.046   5.681
11771WAT     H247805   1.855   2.129   5.577
11771WAT    EPW47806   1.834   2.084   5.638
11772WAT      O47807   1.421   2.457   4.220
11772WAT     H147808   1.375   2.455   4.294
11772WAT     H247809   1.382   2.399   4.169
11772WAT    EPW47810   1.409   2.448   4.224
11773WAT      O47811   1.867   1.535   5.759
11773WAT     H147812   1.857   1.614   5.794
11773WAT     H247813   1.791   1.520   5.719
11773WAT    EPW47814   1.854   1.544   5.758
11774WAT      O47815   1.905   1.642   5.028
11774WAT     H147816   1.821   1.665   5.018
11774WAT     H247817   1.901   1.555   5.036
11774WAT    EPW47818   1.892   1.632   5.028
11775WAT      O47819   0.823   1.345   5.550
11775WAT     H147820   0.864   1.308   5.482
11775WAT     H247821   0.747   1.302   5.553
11775WAT    EPW47822   0.818   1.333   5.540
11776WAT      O47823   1.589   2.140   5.858
11776WAT     H147824   1.663   2.168   5.895
11776WAT     H247825   1.598   2.163   5.775
11776WAT    EPW47826   1.601   2.148   5.851
11777WAT      O47827   0.505   2.660   4.921
11777WAT     H147828   0.504   2.581   4.884
11777WAT     H247829   0.459   2.709   4.867
11777WAT    EPW47830   0.498   2.656   4.908
11778WAT      O47831   1.089   2.317   4.124
11778WAT     H147832   1.167   2.287   4.099
11778WAT     H247833   1.078   2.388   4.075
11778WAT    EPW47834   1.099   2.323   4.113
11779WAT      O47835   0.324   2.904   5.294
11779WAT     H147836   0.325   2.878   5.377
11779WAT     H247837   0.354   2.834   5.250
11779WAT    EPW47838   0.329   2.890   5.300
11780WAT      O47839   1.276   1.150   2.597
11780WAT     H147840   1.276   1.191   2.520
11780WAT     H247841   1.360   1.135   2.612
11780WAT    EPW47842   1.288   1.154   2.588
11781WAT      O47843   1.224   1.772   3.043
11781WAT     H147844   1.189   1.848   3.068
11781WAT     H247845   1.283   1.755   3.106
11781WAT    EPW47846   1.228   1.781   3.056
11782WAT      O47847   1.825   2.625   2.361
11782WAT     H147848   1.891   2.569   2.377
11782WAT     H247849   1.773   2.579   2.308
11782WAT    EPW47850   1.827   2.610   2.356
11783WAT      O47851   0.566   2.144   2.131
11783WAT     H147852   0.505   2.131   2.070
11783WAT     H247853   0.540   2.094   2.197
11783WAT    EPW47854   0.553   2.135   2.131
11784WAT      O47855   1.471   1.965   2.689
11784WAT     H147856   1.476   1.951   2.603
11784WAT     H247857   1.417   1.901   2.716
11784WAT    EPW47858   1.463   1.953   2.680
11785WAT      O47859   0.402   2.413   2.493
11785WAT     H147860   0.452   2.359   2.540
11785WAT     H247861   0.321   2.386   2.511
11785WAT    EPW47862   0.398   2.401   2.503
11786WAT      O47863   0.948   1.275   2.477
11786WAT     H147864   0.934   1.345   2.427
11786WAT     H247865   1.025   1.244   2.449
11786WAT    EPW47866   0.957   1.281   2.465
11787WAT      O47867   0.396   2.630   2.110
11787WAT     H147868   0.426   2.622   2.029
11787WAT     H247869   0.413   2.552   2.146
11787WAT    EPW47870   0.403   2.617   2.104
11788WAT      O47871   0.883   2.307   3.689
11788WAT     H147872   0.868   2.296   3.775
11788WAT     H247873   0.810   2.277   3.652
11788WAT    EPW47874   0.870   2.301   3.696
11789WAT      O47875   0.418   1.973   2.613
11789WAT     H147876   0.349   1.926   2.591
11789WAT     H247877   0.471   1.916   2.653
11789WAT    EPW47878   0.416   1.958   2.616
11790WAT      O47879   0.831   1.555   3.252
11790WAT     H147880   0.899   1.564   3.198
11790WAT     H247881   0.816   1.469   3.253
11790WAT    EPW47882   0.839   1.544   3.244
11791WAT      O47883   0.884   2.608   3.423
11791WAT     H147884   0.896   2.665   3.359
11791WAT     H247885   0.965   2.586   3.447
11791WAT    EPW47886   0.898   2.613   3.417
11792WAT      O47887   0.542   1.767   2.752
11792WAT     H147888   0.616   1.721   2.755
11792WAT     H247889   0.480   1.705   2.746
11792WAT    EPW47890   0.544   1.751   2.751
11793WAT      O47891   0.987   2.407   2.847
11793WAT     H147892   1.013   2.326   2.867
11793WAT     H247893   1.063   2.450   2.836
11793WAT    EPW47894   1.002   2.402   2.848
11794WAT      O47895   1.024   2.340   2.489
11794WAT     H147896   1.065   2.278   2.535
11794WAT     H247897   1.045   2.322   2.406
11794WAT    EPW47898   1.033   2.328   2.484
11795WAT      O47899   1.150   1.816   3.650
11795WAT     H147900   1.063   1.813   3.643
11795WAT     H247901   1.163   1.866   3.720
11795WAT    EPW47902   1.139   1.823   3.660
11796WAT      O47903   0.670   1.252   2.516
11796WAT     H147904   0.635   1.317   2.469
11796WAT     H247905   0.755   1.259   2.501
11796WAT    EPW47906   0.677   1.263   2.507
11797WAT      O47907   1.651   1.071   3.536
11797WAT     H147908   1.619   1.137   3.489
11797WAT     H247909   1.582   1.045   3.584
11797WAT    EPW47910   1.636   1.077   3.536
11798WAT      O47911   0.960   1.216   2.752
11798WAT     H147912   0.974   1.297   2.781
11798WAT     H247913   0.947   1.226   2.667
11798WAT    EPW47914   0.960   1.229   2.744
11799WAT      O47915   1.390   1.449   1.980
11799WAT     H147916   1.340   1.515   2.007
11799WAT     H247917   1.404   1.403   2.052
11799WAT    EPW47918   1.385   1.452   1.995
11800WAT      O47919   0.803   2.513   2.476
11800WAT     H147920   0.764   2.494   2.552
11800WAT     H247921   0.877   2.466   2.479
11800WAT    EPW47922   0.808   2.503   2.488
11801WAT      O47923   1.386   2.734   2.266
11801WAT     H147924   1.457   2.785   2.271
11801WAT     H247925   1.417   2.655   2.287
11801WAT    EPW47926   1.401   2.730   2.270
11802WAT      O47927   1.189   2.766   2.456
11802WAT     H147928   1.213   2.837   2.502
11802WAT     H247929   1.250   2.762   2.393
11802WAT    EPW47930   1.202   2.776   2.454
11803WAT      O47931   0.455   1.214   2.944
11803WAT     H147932   0.416   1.143   2.912
11803WAT     H247933   0.515   1.181   2.998
11803WAT    EPW47934   0.458   1.199   2.947
11804WAT      O47935   0.827   1.458   3.915
11804WAT     H147936   0.836   1.427   3.834
11804WAT     H247937   0.863   1.538   3.911
11804WAT    EPW47938   0.834   1.465   3.902
11805WAT      O47939   0.405   2.687   2.558
11805WAT     H147940   0.408   2.601   2.543
11805WAT     H247941   0.410   2.722   2.478
11805WAT    EPW47942   0.406   2.679   2.544
11806WAT      O47943   1.955   1.440   2.705
11806WAT     H147944   1.902   1.510   2.711
11806WAT     H247945   1.899   1.373   2.695
11806WAT    EPW47946   1.939   1.441   2.704
11807WAT      O47947   1.445   2.754   3.264
11807WAT     H147948   1.513   2.807   3.250
11807WAT     H247949   1.427   2.725   3.184
11807WAT    EPW47950   1.453   2.758   3.250
11808WAT      O47951   0.433   1.383   3.773
11808WAT     H147952   0.372   1.399   3.712
11808WAT     H247953   0.487   1.328   3.733
11808WAT    EPW47954   0.432   1.377   3.758
11809WAT      O47955   0.503   2.402   2.904
11809WAT     H147956   0.564   2.405   2.841
11809WAT     H247957   0.546   2.367   2.971
11809WAT    EPW47958   0.519   2.397   2.904
11810WAT      O47959   0.785   2.725   2.823
11810WAT     H147960   0.862   2.745   2.788
11810WAT     H247961   0.728   2.774   2.779
11810WAT    EPW47962   0.788   2.735   2.812
11811WAT      O47963   1.022   1.184   3.782
11811WAT     H147964   1.026   1.111   3.734
11811WAT     H247965   0.961   1.232   3.743
11811WAT    EPW47966   1.014   1.180   3.769
11812WAT      O47967   1.123   1.686   2.618
11812WAT     H147968   1.151   1.647   2.545
11812WAT     H247969   1.196   1.700   2.664
11812WAT    EPW47970   1.138   1.682   2.614
11813WAT      O47971   1.219   1.652   2.103
11813WAT     H147972   1.245   1.730   2.132
11813WAT     H247973   1.141   1.667   2.069
11813WAT    EPW47974   1.212   1.666   2.102
11814WAT      O47975   1.596   2.922   2.248
11814WAT     H147976   1.645   2.899   2.179
11814WAT     H247977   1.651   2.966   2.299
11814WAT    EPW47978   1.612   2.925   2.245
11815WAT      O47979   0.669   2.832   3.385
11815WAT     H147980   0.704   2.799   3.458
11815WAT     H247981   0.604   2.777   3.366
11815WAT    EPW47982   0.665   2.819   3.393
11816WAT      O47983   1.863   1.360   3.123
11816WAT     H147984   1.926   1.344   3.066
11816WAT     H247985   1.878   1.303   3.187
11816WAT    EPW47986   1.874   1.350   3.124
11817WAT      O47987   1.343   2.544   3.649
11817WAT     H147988   1.334   2.564   3.733
11817WAT     H247989   1.429   2.536   3.638
11817WAT    EPW47990   1.354   2.546   3.660
11818WAT      O47991   1.079   2.555   2.077
11818WAT     H147992   1.046   2.616   2.131
11818WAT     H247993   1.157   2.588   2.054
11818WAT    EPW47994   1.086   2.569   2.082
11819WAT      O47995   1.429   1.295   2.208
11819WAT     H147996   1.485   1.229   2.216
11819WAT     H247997   1.446   1.344   2.279
11819WAT    EPW47998   1.440   1.293   2.220
11820WAT      O47999   0.270   1.457   2.463
11820WAT     H148000   0.198   1.409   2.469
11820WAT     H248001   0.288   1.478   2.546
11820WAT    EPW48002   0.262   1.453   2.476
11821WAT      O48003   0.455   2.676   3.294
11821WAT     H148004   0.420   2.602   3.324
11821WAT     H248005   0.463   2.660   3.208
11821WAT    EPW48006   0.451   2.662   3.285
11822WAT      O48007   1.185   1.566   2.369
11822WAT     H148008   1.110   1.525   2.357
11822WAT     H248009   1.205   1.597   2.290
11822WAT    EPW48010   1.177   1.565   2.356
11823WAT      O48011   1.201   2.810   3.371
11823WAT     H148012   1.278   2.798   3.332
11823WAT     H248013   1.144   2.805   3.304
11823WAT    EPW48014   1.204   2.807   3.355
11824WAT      O48015   1.192   1.222   2.335
11824WAT     H148016   1.133   1.208   2.272
11824WAT     H248017   1.264   1.246   2.290
11824WAT    EPW48018   1.194   1.223   2.319
11825WAT      O48019   1.889   2.842   2.648
11825WAT     H148020   1.849   2.918   2.662
11825WAT     H248021   1.824   2.786   2.636
11825WAT    EPW48022   1.874   2.845   2.648
11826WAT      O48023   1.016   1.493   2.793
11826WAT     H148024   1.042   1.558   2.741
11826WAT     H248025   1.022   1.527   2.873
11826WAT    EPW48026   1.021   1.507   2.797
11827WAT      O48027   1.633   2.419   2.711
11827WAT     H148028   1.696   2.360   2.698
11827WAT     H248029   1.560   2.371   2.704
11827WAT    EPW48030   1.631   2.403   2.708
11828WAT      O48031   0.643   2.511   3.539
11828WAT     H148032   0.716   2.549   3.510
11828WAT     H248033   0.625   2.553   3.614
11828WAT    EPW48034   0.651   2.523   3.546
11829WAT      O48035   0.587   1.015   2.633
11829WAT     H148036   0.617   1.088   2.597
11829WAT     H248037   0.554   0.971   2.566
11829WAT    EPW48038   0.587   1.019   2.618
11830WAT      O48039   0.789   2.093   3.002
11830WAT     H148040   0.821   2.084   3.083
11830WAT     H248041   0.737   2.024   2.992
11830WAT    EPW48042   0.786   2.081   3.012
11831WAT      O48043   1.368   1.479   3.380
11831WAT     H148044   1.368   1.522   3.456
11831WAT     H248045   1.305   1.419   3.390
11831WAT    EPW48046   1.359   1.476   3.393
11832WAT      O48047   0.892   2.102   3.256
11832WAT     H148048   0.889   2.188   3.271
11832WAT     H248049   0.857   2.067   3.328
11832WAT    EPW48050   0.886   2.109   3.269
11833WAT      O48051   1.497   2.197   3.249
11833WAT     H148052   1.423   2.166   3.284
11833WAT     H248053   1.487   2.284   3.256
11833WAT    EPW48054   1.484   2.205   3.255
11834WAT      O48055   1.536   1.080   2.675
11834WAT     H148056   1.534   1.059   2.760
11834WAT     H248057   1.571   1.009   2.638
11834WAT    EPW48058   1.541   1.066   2.682
11835WAT      O48059   1.738   1.523   3.474
11835WAT     H148060   1.820   1.506   3.496
11835WAT     H248061   1.695   1.516   3.550
11835WAT    EPW48062   1.744   1.520   3.488
11836WAT      O48063   0.567   1.376   2.745
11836WAT     H148064   0.597   1.323   2.682
11836WAT     H248065   0.538   1.320   2.806
11836WAT    EPW48066   0.567   1.360   2.745
11837WAT      O48067   1.795   2.220   2.224
11837WAT     H148068   1.797   2.173   2.298
11837WAT     H248069   1.880   2.230   2.204
11837WAT    EPW48070   1.808   2.215   2.232
11838WAT      O48071   0.541   2.222   2.629
11838WAT     H148072   0.624   2.212   2.603
11838WAT     H248073   0.507   2.143   2.618
11838WAT    EPW48074   0.548   2.209   2.624
11839WAT      O48075   0.382   2.826   2.835
11839WAT     H148076   0.326   2.787   2.782
11839WAT     H248077   0.452   2.840   2.784
11839WAT    EPW48078   0.384   2.823   2.820
11840WAT      O48079   0.371   1.616   3.129
11840WAT     H148080   0.455   1.608   3.109
11840WAT     H248081   0.356   1.702   3.122
11840WAT    EPW48082   0.381   1.628   3.125
11841WAT      O48083   2.032   2.643   3.609
11841WAT     H148084   1.955   2.644   3.566
11841WAT     H248085   2.013   2.602   3.683
11841WAT    EPW48086   2.018   2.637   3.613
11842WAT      O48087   1.618   1.883   2.144
11842WAT     H148088   1.610   1.964   2.113
11842WAT     H248089   1.585   1.888   2.225
11842WAT    EPW48090   1.612   1.896   2.151
11843WAT      O48091   0.793   2.174   2.523
11843WAT     H148092   0.858   2.231   2.512
11843WAT     H248093   0.811   2.111   2.466
11843WAT    EPW48094   0.805   2.173   2.513
11844WAT      O48095   1.950   1.359   2.148
11844WAT     H148096   1.984   1.291   2.105
11844WAT     H248097   1.917   1.409   2.085
11844WAT    EPW48098   1.950   1.356   2.132
11845WAT      O48099   0.948   1.708   3.912
11845WAT     H148100   0.900   1.738   3.979
11845WAT     H248101   0.918   1.753   3.844
11845WAT    EPW48102   0.937   1.719   3.912
11846WAT      O48103   2.016   1.801   3.371
11846WAT     H148104   2.045   1.726   3.338
11846WAT     H248105   1.931   1.800   3.351
11846WAT    EPW48106   2.008   1.789   3.363
11847WAT      O48107   1.806   1.247   2.365
11847WAT     H148108   1.880   1.206   2.386
11847WAT     H248109   1.831   1.299   2.299
11847WAT    EPW48110   1.821   1.248   2.358
11848WAT      O48111   1.206   2.576   2.809
11848WAT     H148112   1.158   2.646   2.789
11848WAT     H248113   1.235   2.549   2.731
11848WAT    EPW48114   1.203   2.582   2.794
11849WAT      O48115   0.630   2.285   3.121
11849WAT     H148116   0.690   2.323   3.173
11849WAT     H248117   0.677   2.227   3.076
11849WAT    EPW48118   0.646   2.282   3.122
11850WAT      O48119   1.492   1.510   2.813
11850WAT     H148120   1.522   1.475   2.887
11850WAT     H248121   1.427   1.455   2.790
11850WAT    EPW48122   1.487   1.496   2.820
11851WAT      O48123   0.374   2.140   2.887
11851WAT     H148124   0.380   2.101   2.809
11851WAT     H248125   0.407   2.220   2.873
11851WAT    EPW48126   0.380   2.146   2.873
11852WAT      O48127   0.924   1.480   2.294
11852WAT     H148128   0.911   1.452   2.213
11852WAT     H248129   0.886   1.559   2.294
11852WAT    EPW48130   0.916   1.488   2.282
11853WAT      O48131   1.782   2.668   3.458
11853WAT     H148132   1.742   2.745   3.466
11853WAT     H248133   1.776   2.650   3.373
11853WAT    EPW48134   1.775   2.676   3.447
11854WAT      O48135   0.730   2.467   2.741
11854WAT     H148136   0.738   2.550   2.767
11854WAT     H248137   0.804   2.430   2.767
11854WAT    EPW48138   0.742   2.474   2.749
11855WAT      O48139   0.523   1.841   3.751
11855WAT     H148140   0.493   1.775   3.799
11855WAT     H248141   0.520   1.810   3.669
11855WAT    EPW48142   0.518   1.827   3.746
11856WAT      O48143   0.532   1.707   2.262
11856WAT     H148144   0.532   1.632   2.307
11856WAT     H248145   0.501   1.684   2.184
11856WAT    EPW48146   0.528   1.692   2.257
11857WAT      O48147   0.620   1.873   3.004
11857WAT     H148148   0.580   1.870   2.927
11857WAT     H248149   0.638   1.789   3.021
11857WAT    EPW48150   0.617   1.860   2.995
11858WAT      O48151   0.559   1.909   3.281
11858WAT     H148152   0.591   1.889   3.203
11858WAT     H248153   0.502   1.973   3.264
11858WAT    EPW48154   0.556   1.916   3.267
11859WAT      O48155   1.635   1.687   3.080
11859WAT     H148156   1.568   1.710   3.131
11859WAT     H248157   1.630   1.742   3.013
11859WAT    EPW48158   1.624   1.698   3.078
11860WAT      O48159   0.985   2.766   3.202
11860WAT     H148160   0.964   2.701   3.147
11860WAT     H248161   0.965   2.838   3.156
11860WAT    EPW48162   0.979   2.767   3.187
11861WAT      O48163   1.213   1.260   3.455
11861WAT     H148164   1.227   1.180   3.423
11861WAT     H248165   1.242   1.255   3.537
11861WAT    EPW48166   1.219   1.247   3.462
11862WAT      O48167   1.433   1.448   2.436
11862WAT     H148168   1.489   1.514   2.446
11862WAT     H248169   1.357   1.487   2.423
11862WAT    EPW48170   1.430   1.463   2.435
11863WAT      O48171   0.400   2.082   3.821
11863WAT     H148172   0.381   2.125   3.748
11863WAT     H248173   0.431   2.006   3.792
11863WAT    EPW48174   0.402   2.077   3.806
11864WAT      O48175   1.543   2.250   3.696
11864WAT     H148176   1.572   2.329   3.674
11864WAT     H248177   1.572   2.198   3.633
11864WAT    EPW48178   1.551   2.254   3.684
11865WAT      O48179   0.970   2.576   3.720
11865WAT     H148180   0.996   2.571   3.803
11865WAT     H248181   0.940   2.496   3.703
11865WAT    EPW48182   0.969   2.563   3.729
11866WAT      O48183   1.030   1.573   3.056
11866WAT     H148184   1.093   1.633   3.061
11866WAT     H248185   1.068   1.501   3.086
11866WAT    EPW48186   1.045   1.571   3.061
11867WAT      O48187   1.289   1.888   2.245
11867WAT     H148188   1.269   1.942   2.179
11867WAT     H248189   1.228   1.905   2.305
11867WAT    EPW48190   1.277   1.898   2.244
11868WAT      O48191   1.823   2.216   2.677
11868WAT     H148192   1.826   2.167   2.749
11868WAT     H248193   1.797   2.160   2.615
11868WAT    EPW48194   1.819   2.200   2.679
11869WAT      O48195   1.386   2.628   3.019
11869WAT     H148196   1.327   2.606   2.959
11869WAT     H248197   1.433   2.690   2.980
11869WAT    EPW48198   1.384   2.634   3.005
11870WAT      O48199   1.371   2.271   3.005
11870WAT     H148200   1.297   2.303   3.039
11870WAT     H248201   1.406   2.227   3.071
11870WAT    EPW48202   1.365   2.270   3.019
11871WAT      O48203   0.755   2.770   2.384
11871WAT     H148204   0.761   2.697   2.431
11871WAT     H248205   0.829   2.771   2.337
11871WAT    EPW48206   0.767   2.760   2.384
11872WAT      O48207   0.719   1.121   2.188
11872WAT     H148208   0.702   1.101   2.271
11872WAT     H248209   0.668   1.190   2.173
11872WAT    EPW48210   0.709   1.128   2.198
11873WAT      O48211   0.999   2.757   2.252
11873WAT     H148212   1.055   2.763   2.318
11873WAT     H248213   1.004   2.834   2.213
11873WAT    EPW48214   1.008   2.769   2.256
11874WAT      O48215   1.624   2.098   3.478
11874WAT     H148216   1.591   2.136   3.407
11874WAT     H248217   1.709   2.119   3.475
11874WAT    EPW48218   1.632   2.107   3.467
11875WAT      O48219   1.327   2.675   3.902
11875WAT     H148220   1.349   2.695   3.984
11875WAT     H248221   1.360   2.740   3.855
11875WAT    EPW48222   1.335   2.688   3.907
11876WAT      O48223   1.764   1.204   3.751
11876WAT     H148224   1.731   1.159   3.684
11876WAT     H248225   1.763   1.147   3.817
11876WAT    EPW48226   1.759   1.188   3.751
11877WAT      O48227   0.486   1.975   2.334
11877WAT     H148228   0.498   1.890   2.317
11877WAT     H248229   0.471   1.978   2.419
11877WAT    EPW48230   0.486   1.963   2.344
11878WAT      O48231   1.269   2.097   3.364
11878WAT     H148232   1.218   2.137   3.421
11878WAT     H248233   1.299   2.028   3.407
11878WAT    EPW48234   1.266   2.093   3.379
11879WAT      O48235   1.131   1.929   2.474
11879WAT     H148236   1.143   1.995   2.530
11879WAT     H248237   1.118   1.860   2.526
11879WAT    EPW48238   1.130   1.928   2.490
11880WAT      O48239   1.624   2.408   2.995
11880WAT     H148240   1.639   2.421   2.910
11880WAT     H248241   1.542   2.378   2.996
11880WAT    EPW48242   1.614   2.405   2.982
11881WAT      O48243   0.586   1.356   2.116
11881WAT     H148244   0.531   1.360   2.048
11881WAT     H248245   0.658   1.396   2.087
11881WAT    EPW48246   0.589   1.362   2.102
11882WAT      O48247   1.044   2.139   2.894
11882WAT     H148248   0.961   2.118   2.910
11882WAT     H248249   1.086   2.109   2.964
11882WAT    EPW48250   1.038   2.131   2.907
11883WAT      O48251   0.719   2.748   2.018
11883WAT     H148252   0.737   2.682   2.073
11883WAT     H248253   0.716   2.817   2.071
11883WAT    EPW48254   0.721   2.748   2.034
11884WAT      O48255   0.408   2.118   3.165
11884WAT     H148256   0.472   2.178   3.166
11884WAT     H248257   0.387   2.112   3.081
11884WAT    EPW48258   0.415   2.126   3.153
11885WAT      O48259   0.744   1.575   2.807
11885WAT     H148260   0.827   1.549   2.795
11885WAT     H248261   0.697   1.505   2.784
11885WAT    EPW48262   0.750   1.561   2.802
11886WAT      O48263   1.995   2.789   2.214
11886WAT     H148264   2.059   2.740   2.183
11886WAT     H248265   1.944   2.733   2.258
11886WAT    EPW48266   1.997   2.774   2.216
11887WAT      O48267   0.246   1.762   2.550
11887WAT     H148268   0.269   1.701   2.608
11887WAT     H248269   0.234   1.717   2.476
11887WAT    EPW48270   0.248   1.747   2.547
11888WAT      O48271   1.741   2.069   3.172
11888WAT     H148272   1.741   1.996   3.220
11888WAT     H248273   1.661   2.101   3.183
11888WAT    EPW48274   1.729   2.063   3.181
11889WAT      O48275   0.731   1.946   2.012
11889WAT     H148276   0.677   2.002   2.052
11889WAT     H248277   0.681   1.911   1.950
11889WAT    EPW48278   0.716   1.949   2.009
11890WAT      O48279   0.367   2.208   3.570
11890WAT     H148280   0.321   2.160   3.514
11890WAT     H248281   0.356   2.290   3.541
11890WAT    EPW48282   0.358   2.213   3.558
11891WAT      O48283   1.847   2.053   2.910
11891WAT     H148284   1.817   2.066   2.990
11891WAT     H248285   1.933   2.047   2.921
11891WAT    EPW48286   1.855   2.054   2.923
11892WAT      O48287   0.809   1.732   2.259
11892WAT     H148288   0.829   1.810   2.293
11892WAT     H248289   0.722   1.732   2.256
11892WAT    EPW48290   0.799   1.744   2.264
11893WAT      O48291   1.632   1.455   3.731
11893WAT     H148292   1.556   1.456   3.774
11893WAT     H248293   1.660   1.373   3.741
11893WAT    EPW48294   1.625   1.443   3.739
11894WAT      O48295   0.265   1.434   2.944
11894WAT     H148296   0.314   1.362   2.957
11894WAT     H248297   0.288   1.486   3.010
11894WAT    EPW48298   0.276   1.431   2.956
11895WAT      O48299   1.990   2.560   2.997
11895WAT     H148300   2.025   2.609   2.934
11895WAT     H248301   2.055   2.553   3.056
11895WAT    EPW48302   2.005   2.566   2.996
11896WAT      O48303   1.467   1.809   3.817
11896WAT     H148304   1.507   1.816   3.894
11896WAT     H248305   1.393   1.854   3.829
11896WAT    EPW48306   1.462   1.817   3.830
11897WAT      O48307   1.697   1.846   3.651
11897WAT     H148308   1.720   1.926   3.676
11897WAT     H248309   1.626   1.829   3.700
11897WAT    EPW48310   1.690   1.855   3.662
11898WAT      O48311   1.671   2.466   2.201
11898WAT     H148312   1.706   2.387   2.211
11898WAT     H248313   1.593   2.459   2.240
11898WAT    EPW48314   1.664   2.453   2.208
11899WAT      O48315   1.731   1.616   2.721
11899WAT     H148316   1.664   1.569   2.750
11899WAT     H248317   1.723   1.692   2.763
11899WAT    EPW48318   1.720   1.621   2.731
11900WAT      O48319   2.013   1.932   3.846
11900WAT     H148320   2.018   1.876   3.780
11900WAT     H248321   2.091   1.971   3.845
11900WAT    EPW48322   2.026   1.930   3.836
11901WAT      O48323   1.890   2.187   3.484
11901WAT     H148324   1.961   2.142   3.463
11901WAT     H248325   1.883   2.246   3.420
11901WAT    EPW48326   1.899   2.189   3.471
11902WAT      O48327   1.347   2.265   2.130
11902WAT     H148328   1.423   2.223   2.123
11902WAT     H248329   1.317   2.269   2.048
11902WAT    EPW48330   1.354   2.260   2.117
11903WAT      O48331   0.870   2.388   3.247
11903WAT     H148332   0.865   2.443   3.314
11903WAT     H248333   0.868   2.439   3.177
11903WAT    EPW48334   0.869   2.404   3.247
11904WAT      O48335   0.645   2.235   3.556
11904WAT     H148336   0.561   2.215   3.569
11904WAT     H248337   0.644   2.322   3.543
11904WAT    EPW48338   0.632   2.245   3.556
11905WAT      O48339   1.588   1.303   3.385
11905WAT     H148340   1.646   1.366   3.401
11905WAT     H248341   1.512   1.346   3.377
11905WAT    EPW48342   1.585   1.319   3.386
11906WAT      O48343   1.128   2.018   3.137
11906WAT     H148344   1.183   2.044   3.199
11906WAT     H248345   1.050   2.031   3.172
11906WAT    EPW48346   1.125   2.024   3.151
11907WAT      O48347   0.761   1.592   3.518
11907WAT     H148348   0.779   1.515   3.556
11907WAT     H248349   0.790   1.583   3.437
11907WAT    EPW48350   0.768   1.580   3.512
11908WAT      O48351   1.037   2.785   2.717
11908WAT     H148352   1.035   2.871   2.733
11908WAT     H248353   1.050   2.781   2.631
11908WAT    EPW48354   1.038   2.797   2.707
11909WAT      O48355   1.654   1.100   3.199
11909WAT     H148356   1.627   1.172   3.240
11909WAT     H248357   1.738   1.095   3.220
11909WAT    EPW48358   1.662   1.110   3.208
11910WAT      O48359   0.945   1.189   3.463
11910WAT     H148360   1.024   1.223   3.446
11910WAT     H248361   0.964   1.110   3.496
11910WAT    EPW48362   0.960   1.183   3.465
11911WAT      O48363   0.876   2.568   3.040
11911WAT     H148364   0.828   2.621   2.990
11911WAT     H248365   0.917   2.517   2.982
11911WAT    EPW48366   0.875   2.568   3.024
11912WAT      O48367   1.278   2.220   3.762
11912WAT     H148368   1.359   2.234   3.734
11912WAT     H248369   1.228   2.240   3.693
11912WAT    EPW48370   1.283   2.225   3.748
11913WAT      O48371   1.621   2.513   3.631
11913WAT     H148372   1.658   2.539   3.706
11913WAT     H248373   1.669   2.553   3.570
11913WAT    EPW48374   1.634   2.523   3.633
11914WAT      O48375   1.873   1.778   2.116
11914WAT     H148376   1.919   1.835   2.069
11914WAT     H248377   1.792   1.811   2.115
11914WAT    EPW48378   1.868   1.791   2.109
11915WAT      O48379   0.977   2.049   2.089
11915WAT     H148380   0.905   2.013   2.053
11915WAT     H248381   0.958   2.134   2.092
11915WAT    EPW48382   0.963   2.056   2.084
11916WAT      O48383   0.640   1.608   3.063
11916WAT     H148384   0.680   1.586   2.988
11916WAT     H248385   0.700   1.590   3.124
11916WAT    EPW48386   0.655   1.602   3.061
11917WAT      O48387   1.364   1.651   3.602
11917WAT     H148388   1.287   1.689   3.613
11917WAT     H248389   1.405   1.665   3.677
11917WAT    EPW48390   1.359   1.659   3.614
11918WAT      O48391   1.410   1.716   3.238
11918WAT     H148392   1.417   1.772   3.305
11918WAT     H248393   1.395   1.640   3.277
11918WAT    EPW48394   1.409   1.713   3.254
11919WAT      O48395   1.129   2.797   3.639
11919WAT     H148396   1.147   2.789   3.553
11919WAT     H248397   1.094   2.720   3.660
11919WAT    EPW48398   1.126   2.784   3.629
11920WAT      O48399   1.617   1.663   2.473
11920WAT     H148400   1.643   1.644   2.554
11920WAT     H248401   1.689   1.693   2.434
11920WAT    EPW48402   1.631   1.665   2.479
11921WAT      O48403   0.924   1.140   3.032
11921WAT     H148404   0.839   1.133   3.050
11921WAT     H248405   0.927   1.148   2.946
11921WAT    EPW48406   0.912   1.140   3.022
11922WAT      O48407   1.760   1.247   2.642
11922WAT     H148408   1.682   1.212   2.659
11922WAT     H248409   1.757   1.263   2.556
11922WAT    EPW48410   1.748   1.244   2.631
11923WAT      O48411   1.754   2.057   2.453
11923WAT     H148412   1.796   1.981   2.442
11923WAT     H248413   1.670   2.036   2.444
11923WAT    EPW48414   1.748   2.043   2.450
11924WAT      O48415   1.116   2.264   3.537
11924WAT     H148416   1.041   2.267   3.582
11924WAT     H248417   1.125   2.345   3.506
11924WAT    EPW48418   1.106   2.276   3.539
11925WAT      O48419   0.650   2.902   3.100
11925WAT     H148420   0.659   2.894   3.187
11925WAT     H248421   0.624   2.822   3.075
11925WAT    EPW48422   0.648   2.889   3.109
11926WAT      O48423   0.534   1.449   2.372
11926WAT     H148424   0.539   1.417   2.291
11926WAT     H248425   0.449   1.443   2.391
11926WAT    EPW48426   0.522   1.443   2.363
11927WAT      O48427   1.413   2.235   2.731
11927WAT     H148428   1.396   2.244   2.816
11927WAT     H248429   1.439   2.152   2.725
11927WAT    EPW48430   1.414   2.224   2.743
11928WAT      O48431   1.161   2.152   2.640
11928WAT     H148432   1.121   2.142   2.717
11928WAT     H248433   1.239   2.184   2.662
11928WAT    EPW48434   1.166   2.155   2.655
11929WAT      O48435   1.156   2.534   3.448
11929WAT     H148436   1.213   2.533   3.514
11929WAT     H248437   1.181   2.602   3.400
11929WAT    EPW48438   1.168   2.544   3.451
11930WAT      O48439   1.966   1.753   3.639
11930WAT     H148440   1.880   1.766   3.643
11930WAT     H248441   1.986   1.773   3.557
11930WAT    EPW48442   1.956   1.758   3.628
11931WAT      O48443   1.426   1.887   3.458
11931WAT     H148444   1.414   1.823   3.517
11931WAT     H248445   1.498   1.928   3.486
11931WAT    EPW48446   1.435   1.883   3.471
11932WAT      O48447   0.373   2.854   3.669
11932WAT     H148448   0.317   2.884   3.729
11932WAT     H248449   0.434   2.916   3.665
11932WAT    EPW48450   0.374   2.868   3.677
11933WAT      O48451   1.219   1.974   3.874
11933WAT     H148452   1.243   2.049   3.837
11933WAT     H248453   1.140   1.991   3.906
11933WAT    EPW48454   1.211   1.987   3.873
11934WAT      O48455   1.519   2.868   2.955
11934WAT     H148456   1.458   2.927   2.976
11934WAT     H248457   1.582   2.882   3.015
11934WAT    EPW48458   1.519   2.879   2.967
11935WAT      O48459   1.159   2.373   3.163
11935WAT     H148460   1.079   2.368   3.198
11935WAT     H248461   1.208   2.404   3.228
11935WAT    EPW48462   1.155   2.377   3.178
11936WAT      O48463   1.750   2.588   3.866
11936WAT     H148464   1.833   2.562   3.868
11936WAT     H248465   1.714   2.546   3.933
11936WAT    EPW48466   1.757   2.578   3.876
11937WAT      O48467   0.518   1.726   3.495
11937WAT     H148468   0.526   1.781   3.428
11937WAT     H248469   0.595   1.685   3.498
11937WAT    EPW48470   0.530   1.728   3.486
11938WAT      O48471   0.366   1.517   3.393
11938WAT     H148472   0.355   1.541   3.310
11938WAT     H248473   0.407   1.585   3.430
11938WAT    EPW48474   0.371   1.530   3.386
11939WAT      O48475   1.847   1.801   2.393
11939WAT     H148476   1.863   1.797   2.308
11939WAT     H248477   1.920   1.770   2.430
11939WAT    EPW48478   1.860   1.796   2.386
11940WAT      O48479   0.592   1.187   3.642
11940WAT     H148480   0.645   1.118   3.635
11940WAT     H248481   0.572   1.206   3.559
11940WAT    EPW48482   0.597   1.180   3.629
11941WAT      O48483   1.244   2.506   2.538
11941WAT     H148484   1.222   2.587   2.513
11941WAT     H248485   1.171   2.460   2.524
11941WAT    EPW48486   1.230   2.511   2.532
11942WAT      O48487   1.739   1.805   3.370
11942WAT     H148488   1.723   1.719   3.371
11942WAT     H248489   1.717   1.831   3.450
11942WAT    EPW48490   1.733   1.796   3.382
11943WAT      O48491   0.227   2.076   3.370
11943WAT     H148492   0.278   2.092   3.301
11943WAT     H248493   0.147   2.088   3.340
11943WAT    EPW48494   0.223   2.080   3.356
11944WAT      O48495   0.418   1.634   2.012
11944WAT     H148496   0.332   1.642   2.018
11944WAT     H248497   0.429   1.558   1.970
11944WAT    EPW48498   0.407   1.624   2.007
11945WAT      O48499   1.288   1.238   3.721
11945WAT     H148500   1.319   1.307   3.764
11945WAT     H248501   1.207   1.229   3.753
11945WAT    EPW48502   1.280   1.247   3.732
11946WAT      O48503   1.264   1.350   2.789
11946WAT     H148504   1.187   1.390   2.787
11946WAT     H248505   1.257   1.288   2.728
11946WAT    EPW48506   1.252   1.347   2.780
11947WAT      O48507   0.740   2.519   2.192
11947WAT     H148508   0.769   2.524   2.274
11947WAT     H248509   0.659   2.487   2.200
11947WAT    EPW48510   0.732   2.515   2.206
11948WAT      O48511   1.590   1.412   3.054
11948WAT     H148512   1.669   1.378   3.069
11948WAT     H248513   1.599   1.496   3.076
11948WAT    EPW48514   1.603   1.419   3.059
11949WAT      O48515   0.753   1.994   3.470
11949WAT     H148516   0.718   2.068   3.502
11949WAT     H248517   0.691   1.964   3.416
11949WAT    EPW48518   0.739   2.001   3.466
11950WAT      O48519   1.666   1.851   2.854
11950WAT     H148520   1.726   1.913   2.869
11950WAT     H248521   1.607   1.892   2.804
11950WAT    EPW48522   1.666   1.867   2.849
11951WAT      O48523   1.672   2.675   2.591
11951WAT     H148524   1.657   2.597   2.629
11951WAT     H248525   1.710   2.654   2.516
11951WAT    EPW48526   1.675   2.660   2.586
11952WAT      O48527   0.494   2.399   2.229
11952WAT     H148528   0.468   2.394   2.312
11952WAT     H248529   0.507   2.315   2.207
11952WAT    EPW48530   0.492   2.386   2.238
11953WAT      O48531   0.809   2.282   2.058
11953WAT     H148532   0.735   2.240   2.079
11953WAT     H248533   0.802   2.358   2.101
11953WAT    EPW48534   0.797   2.287   2.067
11954WAT      O48535   0.757   1.294   3.280
11954WAT     H148536   0.677   1.279   3.311
11954WAT     H248537   0.808   1.243   3.329
11954WAT    EPW48538   0.753   1.284   3.292
11955WAT      O48539   1.906   1.164   3.322
11955WAT     H148540   1.878   1.170   3.405
11955WAT     H248541   1.990   1.143   3.331
11955WAT    EPW48542   1.914   1.162   3.336
11956WAT      O48543   1.114   1.324   3.134
11956WAT     H148544   1.055   1.265   3.109
11956WAT     H248545   1.190   1.288   3.114
11956WAT    EPW48546   1.116   1.310   3.127
11957WAT      O48547   1.428   2.467   3.252
11957WAT     H148548   1.453   2.537   3.297
11957WAT     H248549   1.418   2.498   3.171
11957WAT    EPW48550   1.430   2.482   3.246
11958WAT      O48551   1.409   2.860   3.699
11958WAT     H148552   1.339   2.820   3.667
11958WAT     H248553   1.381   2.941   3.716
11958WAT    EPW48554   1.395   2.866   3.697
11959WAT      O48555   0.872   1.809   3.651
11959WAT     H148556   0.840   1.738   3.611
11959WAT     H248557   0.838   1.875   3.605
11959WAT    EPW48558   0.862   1.808   3.638
11960WAT      O48559   0.992   1.162   2.155
11960WAT     H148560   1.003   1.171   2.069
11960WAT     H248561   0.905   1.160   2.164
11960WAT    EPW48562   0.981   1.163   2.143
11961WAT      O48563   1.878   2.324   3.242
11961WAT     H148564   1.840   2.257   3.201
11961WAT     H248565   1.830   2.393   3.217
11961WAT    EPW48566   1.865   2.324   3.232
11962WAT      O48567   0.788   2.799   3.651
11962WAT     H148568   0.771   2.795   3.736
11962WAT     H248569   0.846   2.736   3.638
11962WAT    EPW48570   0.794   2.789   3.662
11963WAT      O48571   1.766   2.571   3.173
11963WAT     H148572   1.833   2.585   3.119
11963WAT     H248573   1.706   2.533   3.123
11963WAT    EPW48574   1.767   2.568   3.158
11964WAT      O48575   0.501   1.276   3.400
11964WAT     H148576   0.441   1.215   3.384
11964WAT     H248577   0.456   1.351   3.393
11964WAT    EPW48578   0.485   1.278   3.396
11965WAT      O48579   1.361   1.243   3.027
11965WAT     H148580   1.427   1.296   3.048
11965WAT     H248581   1.331   1.277   2.952
11965WAT    EPW48582   1.367   1.256   3.019
11966WAT      O48583   0.522   2.638   3.758
11966WAT     H148584   0.583   2.674   3.809
11966WAT     H248585   0.475   2.706   3.730
11966WAT    EPW48586   0.524   2.653   3.761
11967WAT      O48587   1.335   1.741   2.788
11967WAT     H148588   1.389   1.673   2.800
11967WAT     H248589   1.300   1.754   2.866
11967WAT    EPW48590   1.338   1.733   2.801
11968WAT      O48591   0.356   1.551   2.713
11968WAT     H148592   0.311   1.525   2.783
11968WAT     H248593   0.426   1.499   2.713
11968WAT    EPW48594   0.360   1.539   2.723
11969WAT      O48595   0.374   2.475   3.482
11969WAT     H148596   0.334   2.526   3.541
11969WAT     H248597   0.459   2.487   3.498
11969WAT    EPW48598   0.380   2.485   3.493
11970WAT      O48599   1.509   1.911   2.412
11970WAT     H148600   1.530   1.828   2.432
11970WAT     H248601   1.434   1.903   2.367
11970WAT    EPW48602   1.501   1.898   2.408
11971WAT      O48603   0.482   2.798   2.317
11971WAT     H148604   0.457   2.750   2.248
11971WAT     H248605   0.566   2.776   2.327
11971WAT    EPW48606   0.491   2.788   2.308
11972WAT      O48607   0.892   1.982   2.345
11972WAT     H148608   0.920   2.010   2.267
11972WAT     H248609   0.967   1.965   2.388
11972WAT    EPW48610   0.907   1.984   2.340
11973WAT      O48611   1.777   2.853   2.048
11973WAT     H148612   1.850   2.841   2.096
11973WAT     H248613   1.760   2.774   2.016
11973WAT    EPW48614   1.785   2.840   2.051
11974WAT      O48615   1.809   2.086   3.738
11974WAT     H148616   1.879   2.051   3.777
11974WAT     H248617   1.843   2.131   3.672
11974WAT    EPW48618   1.824   2.087   3.734
11975WAT      O48619   1.423   2.462   2.322
11975WAT     H148620   1.375   2.458   2.395
11975WAT     H248621   1.384   2.404   2.269
11975WAT    EPW48622   1.410   2.453   2.325
11976WAT      O48623   1.866   1.535   3.856
11976WAT     H148624   1.856   1.614   3.892
11976WAT     H248625   1.789   1.521   3.818
11976WAT    EPW48626   1.853   1.545   3.856
11977WAT      O48627   1.909   1.641   3.112
11977WAT     H148628   1.825   1.665   3.107
11977WAT     H248629   1.904   1.554   3.121
11977WAT    EPW48630   1.896   1.631   3.113
11978WAT      O48631   0.821   1.345   3.651
11978WAT     H148632   0.862   1.308   3.583
11978WAT     H248633   0.745   1.302   3.654
11978WAT    EPW48634   0.816   1.333   3.641
11979WAT      O48635   1.586   2.138   3.959
11979WAT     H148636   1.660   2.166   3.996
11979WAT     H248637   1.594   2.163   3.875
11979WAT    EPW48638   1.598   2.146   3.952
11980WAT      O48639   0.505   2.658   3.020
11980WAT     H148640   0.504   2.580   2.983
11980WAT     H248641   0.459   2.708   2.965
11980WAT    EPW48642   0.498   2.654   3.006
11981WAT      O48643   1.090   2.314   2.225
11981WAT     H148644   1.169   2.286   2.200
11981WAT     H248645   1.078   2.385   2.176
11981WAT    EPW48646   1.100   2.321   2.214
11982WAT      O48647   0.328   2.905   3.391
11982WAT     H148648   0.325   2.879   3.475
11982WAT     H248649   0.358   2.834   3.349
11982WAT    EPW48650   0.332   2.891   3.397
11983WAT      O48651   1.299   1.149   0.686
11983WAT     H148652   1.321   1.180   0.608
11983WAT     H248653   1.375   1.123   0.720
11983WAT    EPW48654   1.314   1.150   0.680
11984WAT      O48655   1.220   1.774   1.149
11984WAT     H148656   1.185   1.850   1.174
11984WAT     H248657   1.280   1.758   1.211
11984WAT    EPW48658   1.224   1.783   1.162
11985WAT      O48659   1.821   2.615   0.465
11985WAT     H148660   1.885   2.558   0.484
11985WAT     H248661   1.773   2.573   0.405
11985WAT    EPW48662   1.823   2.600   0.459
11986WAT      O48663   0.547   2.155   0.234
11986WAT     H148664   0.512   2.130   0.158
11986WAT     H248665   0.527   2.090   0.288
11986WAT    EPW48666   0.539   2.142   0.231
11987WAT      O48667   1.467   1.974   0.807
11987WAT     H148668   1.481   1.960   0.722
11987WAT     H248669   1.415   1.908   0.830
11987WAT    EPW48670   1.461   1.962   0.798
11988WAT      O48671   0.396   2.393   0.599
11988WAT     H148672   0.443   2.341   0.650
11988WAT     H248673   0.315   2.360   0.605
11988WAT    EPW48674   0.391   2.381   0.608
11989WAT      O48675   0.935   1.248   0.611
11989WAT     H148676   0.935   1.330   0.580
11989WAT     H248677   0.979   1.204   0.551
11989WAT    EPW48678   0.942   1.254   0.598
11990WAT      O48679   0.420   2.658   0.235
11990WAT     H148680   0.430   2.651   0.148
11990WAT     H248681   0.439   2.579   0.264
11990WAT    EPW48682   0.424   2.646   0.226
11991WAT      O48683   0.880   2.307   1.790
11991WAT     H148684   0.866   2.295   1.875
11991WAT     H248685   0.808   2.277   1.752
11991WAT    EPW48686   0.867   2.301   1.797
11992WAT      O48687   0.421   1.951   0.667
11992WAT     H148688   0.345   1.908   0.664
11992WAT     H248689   0.473   1.897   0.711
11992WAT    EPW48690   0.417   1.936   0.673
11993WAT      O48691   0.830   1.561   1.355
11993WAT     H148692   0.899   1.566   1.302
11993WAT     H248693   0.812   1.476   1.357
11993WAT    EPW48694   0.838   1.549   1.348
11994WAT      O48695   0.881   2.612   1.531
11994WAT     H148696   0.895   2.666   1.464
11994WAT     H248697   0.962   2.588   1.555
11994WAT    EPW48698   0.895   2.616   1.524
11995WAT      O48699   0.547   1.761   0.826
11995WAT     H148700   0.621   1.716   0.836
11995WAT     H248701   0.485   1.700   0.832
11995WAT    EPW48702   0.548   1.745   0.828
11996WAT      O48703   0.981   2.414   0.953
11996WAT     H148704   1.004   2.333   0.974
11996WAT     H248705   1.057   2.456   0.948
11996WAT    EPW48706   0.995   2.409   0.955
11997WAT      O48707   1.010   2.359   0.598
11997WAT     H148708   1.045   2.298   0.649
11997WAT     H248709   1.051   2.349   0.522
11997WAT    EPW48710   1.021   2.349   0.594
11998WAT      O48711   1.151   1.816   1.755
11998WAT     H148712   1.065   1.813   1.747
11998WAT     H248713   1.164   1.867   1.824
11998WAT    EPW48714   1.140   1.823   1.764
11999WAT      O48715   0.654   1.257   0.644
11999WAT     H148716   0.619   1.306   0.581
11999WAT     H248717   0.738   1.251   0.622
11999WAT    EPW48718   0.661   1.263   0.631
12000WAT      O48719   1.652   1.072   1.639
12000WAT     H148720   1.621   1.138   1.591
12000WAT     H248721   1.583   1.045   1.685
12000WAT    EPW48722   1.637   1.077   1.638
12001WAT      O48723   0.975   1.214   0.882
12001WAT     H148724   0.988   1.297   0.905
12001WAT     H248725   0.956   1.218   0.797
12001WAT    EPW48726   0.974   1.227   0.873
12002WAT      O48727   0.821   2.568   0.602
12002WAT     H148728   0.771   2.541   0.669
12002WAT     H248729   0.889   2.513   0.603
12002WAT    EPW48730   0.824   2.556   0.612
12003WAT      O48731   1.392   2.703   0.398
12003WAT     H148732   1.456   2.760   0.386
12003WAT     H248733   1.433   2.631   0.423
12003WAT    EPW48734   1.407   2.701   0.400
12004WAT      O48735   1.189   2.770   0.572
12004WAT     H148736   1.218   2.842   0.612
12004WAT     H248737   1.252   2.752   0.514
12004WAT    EPW48738   1.203   2.778   0.569
12005WAT      O48739   0.457   1.216   1.060
12005WAT     H148740   0.421   1.145   1.023
12005WAT     H248741   0.518   1.182   1.113
12005WAT    EPW48742   0.461   1.200   1.062
12006WAT      O48743   0.827   1.457   2.015
12006WAT     H148744   0.837   1.426   1.934
12006WAT     H248745   0.863   1.537   2.011
12006WAT    EPW48746   0.834   1.465   2.003
12007WAT      O48747   0.352   2.665   0.672
12007WAT     H148748   0.371   2.581   0.658
12007WAT     H248749   0.380   2.705   0.600
12007WAT    EPW48750   0.359   2.658   0.659
12008WAT      O48751   1.945   1.436   0.810
12008WAT     H148752   1.896   1.507   0.816
12008WAT     H248753   1.887   1.372   0.794
12008WAT    EPW48754   1.929   1.437   0.808
12009WAT      O48755   1.452   2.752   1.371
12009WAT     H148756   1.521   2.805   1.362
12009WAT     H248757   1.440   2.720   1.291
12009WAT    EPW48758   1.461   2.755   1.358
12010WAT      O48759   0.433   1.384   1.873
12010WAT     H148760   0.373   1.401   1.812
12010WAT     H248761   0.488   1.328   1.833
12010WAT    EPW48762   0.433   1.378   1.858
12011WAT      O48763   0.503   2.422   1.025
12011WAT     H148764   0.561   2.422   0.959
12011WAT     H248765   0.547   2.384   1.090
12011WAT    EPW48766   0.518   2.417   1.025
12012WAT      O48767   0.780   2.729   0.925
12012WAT     H148768   0.860   2.748   0.894
12012WAT     H248769   0.728   2.774   0.871
12012WAT    EPW48770   0.784   2.739   0.912
12013WAT      O48771   1.023   1.184   1.883
12013WAT     H148772   1.027   1.111   1.836
12013WAT     H248773   0.962   1.231   1.843
12013WAT    EPW48774   1.014   1.180   1.870
12014WAT      O48775   1.116   1.706   0.727
12014WAT     H148776   1.144   1.663   0.657
12014WAT     H248777   1.189   1.719   0.774
12014WAT    EPW48778   1.131   1.701   0.724
12015WAT      O48779   1.143   1.729   0.275
12015WAT     H148780   1.180   1.806   0.293
12015WAT     H248781   1.057   1.746   0.282
12015WAT    EPW48782   1.135   1.743   0.279
12016WAT      O48783   1.589   2.901   0.350
12016WAT     H148784   1.632   2.861   0.285
12016WAT     H248785   1.648   2.956   0.382
12016WAT    EPW48786   1.604   2.903   0.345
12017WAT      O48787   0.663   2.833   1.480
12017WAT     H148788   0.696   2.803   1.555
12017WAT     H248789   0.598   2.778   1.463
12017WAT    EPW48790   0.659   2.820   1.489
12018WAT      O48791   1.859   1.363   1.234
12018WAT     H148792   1.923   1.351   1.176
12018WAT     H248793   1.877   1.304   1.296
12018WAT    EPW48794   1.871   1.353   1.235
12019WAT      O48795   1.337   2.539   1.753
12019WAT     H148796   1.331   2.563   1.837
12019WAT     H248797   1.423   2.534   1.739
12019WAT    EPW48798   1.349   2.542   1.763
12020WAT      O48799   1.188   2.594   0.231
12020WAT     H148800   1.124   2.651   0.246
12020WAT     H248801   1.259   2.634   0.262
12020WAT    EPW48802   1.189   2.609   0.238
12021WAT      O48803   1.365   1.220   0.426
12021WAT     H148804   1.431   1.176   0.389
12021WAT     H248805   1.400   1.298   0.445
12021WAT    EPW48806   1.380   1.225   0.423
12022WAT      O48807   0.254   1.461   0.582
12022WAT     H148808   0.182   1.414   0.593
12022WAT     H248809   0.279   1.481   0.663
12022WAT    EPW48810   0.247   1.457   0.595
12023WAT      O48811   0.446   2.679   1.394
12023WAT     H148812   0.413   2.603   1.421
12023WAT     H248813   0.453   2.669   1.307
12023WAT    EPW48814   0.442   2.666   1.385
12024WAT      O48815   1.184   1.569   0.495
12024WAT     H148816   1.113   1.520   0.485
12024WAT     H248817   1.183   1.621   0.424
12024WAT    EPW48818   1.173   1.570   0.483
12025WAT      O48819   1.205   2.806   1.473
12025WAT     H148820   1.283   2.794   1.437
12025WAT     H248821   1.150   2.801   1.405
12025WAT    EPW48822   1.208   2.804   1.458
12026WAT      O48823   1.093   1.206   0.373
12026WAT     H148824   1.067   1.284   0.343
12026WAT     H248825   1.179   1.215   0.380
12026WAT    EPW48826   1.102   1.219   0.369
12027WAT      O48827   1.886   2.844   0.736
12027WAT     H148828   1.846   2.920   0.750
12027WAT     H248829   1.821   2.787   0.725
12027WAT    EPW48830   1.871   2.847   0.737
12028WAT      O48831   1.023   1.499   0.893
12028WAT     H148832   1.045   1.567   0.844
12028WAT     H248833   1.028   1.529   0.975
12028WAT    EPW48834   1.027   1.513   0.898
12029WAT      O48835   1.568   2.411   0.713
12029WAT     H148836   1.636   2.362   0.737
12029WAT     H248837   1.500   2.373   0.752
12029WAT    EPW48838   1.568   2.398   0.722
12030WAT      O48839   0.638   2.512   1.639
12030WAT     H148840   0.711   2.550   1.612
12030WAT     H248841   0.620   2.552   1.714
12030WAT    EPW48842   0.646   2.523   1.646
12031WAT      O48843   0.593   1.007   0.744
12031WAT     H148844   0.611   1.085   0.710
12031WAT     H248845   0.554   0.965   0.679
12031WAT    EPW48846   0.590   1.012   0.729
12032WAT      O48847   0.774   2.104   1.105
12032WAT     H148848   0.804   2.084   1.185
12032WAT     H248849   0.719   2.039   1.087
12032WAT    EPW48850   0.770   2.091   1.114
12033WAT      O48851   1.369   1.480   1.481
12033WAT     H148852   1.369   1.522   1.557
12033WAT     H248853   1.306   1.420   1.490
12033WAT    EPW48854   1.360   1.477   1.493
12034WAT      O48855   0.884   2.101   1.358
12034WAT     H148856   0.885   2.187   1.374
12034WAT     H248857   0.852   2.067   1.432
12034WAT    EPW48858   0.879   2.109   1.371
12035WAT      O48859   1.499   2.191   1.355
12035WAT     H148860   1.424   2.161   1.388
12035WAT     H248861   1.493   2.278   1.363
12035WAT    EPW48862   1.487   2.199   1.361
12036WAT      O48863   1.543   1.072   0.792
12036WAT     H148864   1.542   1.054   0.877
12036WAT     H248865   1.578   1.001   0.755
12036WAT    EPW48866   1.548   1.059   0.799
12037WAT      O48867   1.742   1.525   1.575
12037WAT     H148868   1.825   1.507   1.596
12037WAT     H248869   1.700   1.518   1.651
12037WAT    EPW48870   1.748   1.521   1.589
12038WAT      O48871   0.568   1.386   0.870
12038WAT     H148872   0.594   1.336   0.804
12038WAT     H248873   0.540   1.329   0.930
12038WAT    EPW48874   0.567   1.370   0.869
12039WAT      O48875   1.791   2.242   0.335
12039WAT     H148876   1.785   2.195   0.408
12039WAT     H248877   1.877   2.240   0.316
12039WAT    EPW48878   1.803   2.235   0.343
12040WAT      O48879   0.519   2.195   0.749
12040WAT     H148880   0.603   2.196   0.728
12040WAT     H248881   0.489   2.120   0.715
12040WAT    EPW48882   0.527   2.184   0.741
12041WAT      O48883   0.392   2.825   0.910
12041WAT     H148884   0.342   2.775   0.858
12041WAT     H248885   0.464   2.838   0.863
12041WAT    EPW48886   0.395   2.819   0.895
12042WAT      O48887   0.376   1.615   1.220
12042WAT     H148888   0.461   1.614   1.202
12042WAT     H248889   0.354   1.699   1.207
12042WAT    EPW48890   0.385   1.627   1.216
12043WAT      O48891   2.025   2.644   1.701
12043WAT     H148892   1.951   2.649   1.655
12043WAT     H248893   2.003   2.596   1.770
12043WAT    EPW48894   2.011   2.638   1.704
12044WAT      O48895   1.624   1.851   0.270
12044WAT     H148896   1.546   1.833   0.236
12044WAT     H248897   1.606   1.893   0.344
12044WAT    EPW48898   1.610   1.854   0.276
12045WAT      O48899   0.779   2.182   0.648
12045WAT     H148900   0.836   2.243   0.621
12045WAT     H248901   0.795   2.114   0.596
12045WAT    EPW48902   0.790   2.181   0.636
12046WAT      O48903   1.914   1.402   0.235
12046WAT     H148904   1.937   1.326   0.200
12046WAT     H248905   1.877   1.444   0.168
12046WAT    EPW48906   1.912   1.397   0.220
12047WAT      O48907   0.949   1.707   2.014
12047WAT     H148908   0.900   1.737   2.080
12047WAT     H248909   0.919   1.751   1.945
12047WAT    EPW48910   0.937   1.718   2.014
12048WAT      O48911   2.029   1.793   1.478
12048WAT     H148912   2.062   1.719   1.446
12048WAT     H248913   1.946   1.793   1.451
12048WAT    EPW48914   2.021   1.782   1.469
12049WAT      O48915   1.771   1.250   0.444
12049WAT     H148916   1.849   1.213   0.462
12049WAT     H248917   1.792   1.317   0.392
12049WAT    EPW48918   1.786   1.254   0.439
12050WAT      O48919   1.205   2.580   0.935
12050WAT     H148920   1.158   2.651   0.917
12050WAT     H248921   1.231   2.552   0.856
12050WAT    EPW48922   1.202   2.586   0.920
12051WAT      O48923   0.627   2.294   1.236
12051WAT     H148924   0.688   2.328   1.287
12051WAT     H248925   0.671   2.237   1.187
12051WAT    EPW48926   0.642   2.290   1.237
12052WAT      O48927   1.493   1.519   0.914
12052WAT     H148928   1.524   1.482   0.987
12052WAT     H248929   1.431   1.463   0.888
12052WAT    EPW48930   1.489   1.505   0.921
12053WAT      O48931   0.376   2.173   1.000
12053WAT     H148932   0.416   2.154   0.924
12053WAT     H248933   0.392   2.258   1.011
12053WAT    EPW48934   0.385   2.183   0.990
12054WAT      O48935   0.930   1.460   0.428
12054WAT     H148936   0.870   1.407   0.394
12054WAT     H248937   0.902   1.540   0.407
12054WAT    EPW48938   0.917   1.464   0.420
12055WAT      O48939   1.777   2.669   1.555
12055WAT     H148940   1.734   2.744   1.565
12055WAT     H248941   1.774   2.654   1.469
12055WAT    EPW48942   1.770   2.678   1.544
12056WAT      O48943   0.718   2.473   0.846
12056WAT     H148944   0.731   2.554   0.875
12056WAT     H248945   0.792   2.432   0.868
12056WAT    EPW48946   0.731   2.479   0.854
12057WAT      O48947   0.521   1.840   1.852
12057WAT     H148948   0.492   1.775   1.902
12057WAT     H248949   0.517   1.808   1.771
12057WAT    EPW48950   0.516   1.826   1.847
12058WAT      O48951   0.572   1.675   0.353
12058WAT     H148952   0.557   1.605   0.402
12058WAT     H248953   0.507   1.675   0.295
12058WAT    EPW48954   0.560   1.665   0.351
12059WAT      O48955   0.600   1.893   1.069
12059WAT     H148956   0.573   1.879   0.987
12059WAT     H248957   0.624   1.814   1.097
12059WAT    EPW48958   0.600   1.879   1.061
12060WAT      O48959   0.570   1.891   1.385
12060WAT     H148960   0.604   1.851   1.316
12060WAT     H248961   0.521   1.954   1.350
12060WAT    EPW48962   0.568   1.894   1.370
12061WAT      O48963   1.636   1.689   1.184
12061WAT     H148964   1.568   1.713   1.234
12061WAT     H248965   1.632   1.745   1.117
12061WAT    EPW48966   1.625   1.701   1.182
12062WAT      O48967   0.984   2.762   1.309
12062WAT     H148968   0.961   2.699   1.254
12062WAT     H248969   0.964   2.835   1.266
12062WAT    EPW48970   0.978   2.763   1.294
12063WAT      O48971   1.213   1.261   1.557
12063WAT     H148972   1.228   1.181   1.525
12063WAT     H248973   1.242   1.256   1.639
12063WAT    EPW48974   1.220   1.248   1.564
12064WAT      O48975   1.445   1.465   0.517
12064WAT     H148976   1.502   1.529   0.530
12064WAT     H248977   1.368   1.507   0.514
12064WAT    EPW48978   1.442   1.481   0.519
12065WAT      O48979   0.397   2.081   1.922
12065WAT     H148980   0.378   2.125   1.848
12065WAT     H248981   0.429   2.005   1.893
12065WAT    EPW48982   0.399   2.076   1.906
12066WAT      O48983   1.547   2.252   1.799
12066WAT     H148984   1.573   2.331   1.774
12066WAT     H248985   1.576   2.200   1.736
12066WAT    EPW48986   1.555   2.256   1.786
12067WAT      O48987   0.968   2.575   1.823
12067WAT     H148988   0.995   2.570   1.906
12067WAT     H248989   0.938   2.495   1.806
12067WAT    EPW48990   0.967   2.563   1.833
12068WAT      O48991   1.029   1.573   1.159
12068WAT     H148992   1.091   1.634   1.165
12068WAT     H248993   1.069   1.501   1.189
12068WAT    EPW48994   1.044   1.571   1.164
12069WAT      O48995   1.297   1.946   0.375
12069WAT     H148996   1.317   2.026   0.349
12069WAT     H248997   1.239   1.959   0.439
12069WAT    EPW48998   1.292   1.959   0.381
12070WAT      O48999   1.763   2.232   0.806
12070WAT     H149000   1.786   2.179   0.871
12070WAT     H249001   1.773   2.183   0.735
12070WAT    EPW49002   1.768   2.217   0.805
12071WAT      O49003   1.408   2.621   1.127
12071WAT     H149004   1.343   2.603   1.071
12071WAT     H249005   1.449   2.688   1.089
12071WAT    EPW49006   1.404   2.628   1.113
12072WAT      O49007   1.382   2.281   1.112
12072WAT     H149008   1.307   2.311   1.145
12072WAT     H249009   1.415   2.232   1.176
12072WAT    EPW49010   1.376   2.278   1.126
12073WAT      O49011   0.775   2.814   0.456
12073WAT     H149012   0.782   2.750   0.515
12073WAT     H249013   0.845   2.803   0.405
12073WAT    EPW49014   0.786   2.802   0.457
12074WAT      O49015   0.759   1.247   0.351
12074WAT     H149016   0.756   1.167   0.385
12074WAT     H249017   0.685   1.252   0.305
12074WAT    EPW49018   0.748   1.236   0.349
12075WAT      O49019   1.025   2.793   0.343
12075WAT     H149020   1.064   2.777   0.420
12075WAT     H249021   1.044   2.877   0.328
12075WAT    EPW49022   1.034   2.803   0.352
12076WAT      O49023   1.626   2.096   1.584
12076WAT     H149024   1.592   2.132   1.513
12076WAT     H249025   1.711   2.116   1.579
12076WAT    EPW49026   1.634   2.105   1.573
12077WAT      O49027   1.323   2.675   2.002
12077WAT     H149028   1.347   2.698   2.083
12077WAT     H249029   1.352   2.741   1.953
12077WAT    EPW49030   1.331   2.688   2.007
12078WAT      O49031   1.763   1.205   1.854
12078WAT     H149032   1.730   1.160   1.786
12078WAT     H249033   1.762   1.147   1.919
12078WAT    EPW49034   1.758   1.189   1.853
12079WAT      O49035   0.490   1.943   0.399
12079WAT     H149036   0.530   1.865   0.397
12079WAT     H249037   0.467   1.952   0.483
12079WAT    EPW49038   0.493   1.933   0.411
12080WAT      O49039   1.268   2.096   1.467
12080WAT     H149040   1.217   2.136   1.525
12080WAT     H249041   1.298   2.027   1.511
12080WAT    EPW49042   1.265   2.092   1.482
12081WAT      O49043   1.116   1.951   0.583
12081WAT     H149044   1.122   2.016   0.641
12081WAT     H249045   1.106   1.880   0.632
12081WAT    EPW49046   1.115   1.950   0.599
12082WAT      O49047   1.655   2.386   1.122
12082WAT     H149048   1.692   2.379   1.043
12082WAT     H249049   1.571   2.371   1.106
12082WAT    EPW49050   1.648   2.383   1.108
12083WAT      O49051   0.519   1.307   0.211
12083WAT     H149052   0.463   1.247   0.181
12083WAT     H249053   0.544   1.349   0.139
12083WAT    EPW49054   0.514   1.304   0.196
12084WAT      O49055   1.030   2.146   1.007
12084WAT     H149056   0.947   2.126   1.023
12084WAT     H249057   1.073   2.113   1.075
12084WAT    EPW49058   1.024   2.139   1.019
12085WAT      O49059   0.424   2.101   1.269
12085WAT     H149060   0.480   2.168   1.276
12085WAT     H249061   0.403   2.102   1.184
12085WAT    EPW49062   0.429   2.111   1.258
12086WAT      O49063   0.750   1.584   0.915
12086WAT     H149064   0.832   1.557   0.901
12086WAT     H249065   0.702   1.513   0.899
12086WAT    EPW49066   0.755   1.570   0.911
12087WAT      O49067   1.986   2.779   0.318
12087WAT     H149068   2.060   2.736   0.305
12087WAT     H249069   1.940   2.726   0.369
12087WAT    EPW49070   1.990   2.765   0.323
12088WAT      O49071   0.222   1.754   0.669
12088WAT     H149072   0.250   1.701   0.732
12088WAT     H249073   0.201   1.700   0.604
12088WAT    EPW49074   0.223   1.738   0.668
12089WAT      O49075   1.744   2.049   1.285
12089WAT     H149076   1.743   1.977   1.334
12089WAT     H249077   1.663   2.082   1.295
12089WAT    EPW49078   1.732   2.044   1.293
12090WAT      O49079   0.364   2.207   1.671
12090WAT     H149080   0.320   2.158   1.613
12090WAT     H249081   0.353   2.288   1.641
12090WAT    EPW49082   0.356   2.212   1.658
12091WAT      O49083   1.841   2.061   1.020
12091WAT     H149084   1.816   2.063   1.103
12091WAT     H249085   1.928   2.051   1.026
12091WAT    EPW49086   1.850   2.060   1.033
12092WAT      O49087   0.850   1.723   0.360
12092WAT     H149088   0.852   1.801   0.400
12092WAT     H249089   0.765   1.709   0.346
12092WAT    EPW49090   0.838   1.733   0.364
12093WAT      O49091   1.634   1.457   1.831
12093WAT     H149092   1.557   1.458   1.873
12093WAT     H249093   1.661   1.374   1.841
12093WAT    EPW49094   1.626   1.445   1.839
12094WAT      O49095   0.249   1.428   1.055
12094WAT     H149096   0.296   1.356   1.066
12094WAT     H249097   0.279   1.482   1.116
12094WAT    EPW49098   0.260   1.426   1.065
12095WAT      O49099   1.982   2.538   1.089
12095WAT     H149100   2.014   2.594   1.031
12095WAT     H249101   2.044   2.535   1.151
12095WAT    EPW49102   1.996   2.546   1.090
12096WAT      O49103   1.471   1.810   1.917
12096WAT     H149104   1.511   1.818   1.994
12096WAT     H249105   1.396   1.855   1.928
12096WAT    EPW49106   1.466   1.818   1.930
12097WAT      O49107   1.705   1.844   1.756
12097WAT     H149108   1.727   1.925   1.780
12097WAT     H249109   1.632   1.828   1.802
12097WAT    EPW49110   1.697   1.854   1.766
12098WAT      O49111   1.671   2.485   0.276
12098WAT     H149112   1.712   2.408   0.280
12098WAT     H249113   1.596   2.471   0.319
12098WAT    EPW49114   1.666   2.471   0.283
12099WAT      O49115   1.733   1.624   0.822
12099WAT     H149116   1.664   1.578   0.850
12099WAT     H249117   1.726   1.699   0.865
12099WAT    EPW49118   1.721   1.628   0.833
12100WAT      O49119   2.027   1.933   1.948
12100WAT     H149120   2.030   1.876   1.883
12100WAT     H249121   2.107   1.969   1.947
12100WAT    EPW49122   2.040   1.930   1.938
12101WAT      O49123   1.893   2.186   1.584
12101WAT     H149124   1.964   2.141   1.560
12101WAT     H249125   1.883   2.244   1.520
12101WAT    EPW49126   1.902   2.188   1.571
12102WAT      O49127   1.397   2.196   0.293
12102WAT     H149128   1.433   2.255   0.346
12102WAT     H249129   1.449   2.198   0.223
12102WAT    EPW49130   1.410   2.205   0.291
12103WAT      O49131   0.871   2.390   1.354
12103WAT     H149132   0.866   2.446   1.421
12103WAT     H249133   0.867   2.441   1.284
12103WAT    EPW49134   0.870   2.405   1.354
12104WAT      O49135   0.642   2.235   1.657
12104WAT     H149136   0.558   2.215   1.669
12104WAT     H249137   0.641   2.321   1.643
12104WAT    EPW49138   0.629   2.245   1.656
12105WAT      O49139   1.590   1.305   1.488
12105WAT     H149140   1.648   1.368   1.502
12105WAT     H249141   1.515   1.348   1.479
12105WAT    EPW49142   1.587   1.321   1.489
12106WAT      O49143   1.122   2.019   1.243
12106WAT     H149144   1.177   2.046   1.305
12106WAT     H249145   1.043   2.032   1.279
12106WAT    EPW49146   1.118   2.025   1.257
12107WAT      O49147   0.761   1.591   1.622
12107WAT     H149148   0.779   1.514   1.658
12107WAT     H249149   0.790   1.584   1.541
12107WAT    EPW49150   0.768   1.579   1.616
12108WAT      O49151   1.041   2.789   0.838
12108WAT     H149152   1.039   2.875   0.855
12108WAT     H249153   1.057   2.786   0.752
12108WAT    EPW49154   1.043   2.802   0.828
12109WAT      O49155   1.656   1.099   1.306
12109WAT     H149156   1.630   1.172   1.346
12109WAT     H249157   1.741   1.095   1.326
12109WAT    EPW49158   1.665   1.109   1.315
12110WAT      O49159   0.946   1.188   1.563
12110WAT     H149160   1.024   1.222   1.546
12110WAT     H249161   0.964   1.109   1.596
12110WAT    EPW49162   0.960   1.181   1.565
12111WAT      O49163   0.866   2.571   1.145
12111WAT     H149164   0.819   2.626   1.097
12111WAT     H249165   0.906   2.521   1.086
12111WAT    EPW49166   0.865   2.572   1.129
12112WAT      O49167   1.281   2.219   1.863
12112WAT     H149168   1.362   2.234   1.835
12112WAT     H249169   1.231   2.240   1.794
12112WAT    EPW49170   1.285   2.224   1.849
12113WAT      O49171   1.615   2.515   1.728
12113WAT     H149172   1.650   2.544   1.802
12113WAT     H249173   1.663   2.555   1.666
12113WAT    EPW49174   1.628   2.525   1.729
12114WAT      O49175   1.897   1.806   0.226
12114WAT     H149176   1.922   1.871   0.173
12114WAT     H249177   1.810   1.812   0.225
12114WAT    EPW49178   1.888   1.817   0.218
12115WAT      O49179   0.650   1.643   1.168
12115WAT     H149180   0.687   1.617   1.094
12115WAT     H249181   0.705   1.616   1.230
12115WAT    EPW49182   0.663   1.635   1.166
12116WAT      O49183   1.365   1.651   1.703
12116WAT     H149184   1.288   1.690   1.715
12116WAT     H249185   1.407   1.665   1.778
12116WAT    EPW49186   1.360   1.659   1.716
12117WAT      O49187   1.410   1.718   1.340
12117WAT     H149188   1.417   1.773   1.407
12117WAT     H249189   1.396   1.641   1.378
12117WAT    EPW49190   1.409   1.715   1.356
12118WAT      O49191   1.112   2.802   1.735
12118WAT     H149192   1.136   2.790   1.652
12118WAT     H249193   1.080   2.724   1.759
12118WAT    EPW49194   1.111   2.789   1.726
12119WAT      O49195   1.626   1.675   0.573
12119WAT     H149196   1.653   1.654   0.653
12119WAT     H249197   1.697   1.707   0.534
12119WAT    EPW49198   1.640   1.677   0.579
12120WAT      O49199   0.929   1.138   1.154
12120WAT     H149200   0.843   1.130   1.166
12120WAT     H249201   0.936   1.148   1.067
12120WAT    EPW49202   0.917   1.138   1.143
12121WAT      O49203   1.750   1.250   0.728
12121WAT     H149204   1.676   1.211   0.752
12121WAT     H249205   1.739   1.265   0.643
12121WAT    EPW49206   1.738   1.247   0.719
12122WAT      O49207   1.759   2.079   0.566
12122WAT     H149208   1.808   2.008   0.553
12122WAT     H249209   1.677   2.049   0.561
12122WAT    EPW49210   1.754   2.064   0.564
12123WAT      O49211   1.115   2.263   1.640
12123WAT     H149212   1.040   2.266   1.685
12123WAT     H249213   1.124   2.344   1.609
12123WAT    EPW49214   1.105   2.275   1.642
12124WAT      O49215   0.647   2.907   1.201
12124WAT     H149216   0.653   2.898   1.288
12124WAT     H249217   0.617   2.830   1.174
12124WAT    EPW49218   0.643   2.894   1.210
12125WAT      O49219   0.508   1.428   0.468
12125WAT     H149220   0.500   1.386   0.392
12125WAT     H249221   0.426   1.432   0.498
12125WAT    EPW49222   0.495   1.423   0.461
12126WAT      O49223   1.387   2.238   0.838
12126WAT     H149224   1.382   2.253   0.924
12126WAT     H249225   1.420   2.158   0.833
12126WAT    EPW49226   1.391   2.229   0.850
12127WAT      O49227   1.135   2.167   0.752
12127WAT     H149228   1.096   2.154   0.828
12127WAT     H249229   1.215   2.194   0.774
12127WAT    EPW49230   1.141   2.169   0.766
12128WAT      O49231   1.152   2.533   1.552
12128WAT     H149232   1.208   2.532   1.619
12128WAT     H249233   1.179   2.600   1.503
12128WAT    EPW49234   1.164   2.543   1.555
12129WAT      O49235   1.974   1.751   1.745
12129WAT     H149236   1.888   1.764   1.747
12129WAT     H249237   1.995   1.770   1.662
12129WAT    EPW49238   1.964   1.756   1.733
12130WAT      O49239   1.428   1.887   1.560
12130WAT     H149240   1.417   1.823   1.618
12130WAT     H249241   1.500   1.927   1.588
12130WAT    EPW49242   1.437   1.884   1.573
12131WAT      O49243   0.376   2.857   1.772
12131WAT     H149244   0.320   2.888   1.832
12131WAT     H249245   0.439   2.918   1.769
12131WAT    EPW49246   0.377   2.870   1.781
12132WAT      O49247   1.219   1.975   1.978
12132WAT     H149248   1.244   2.050   1.940
12132WAT     H249249   1.140   1.993   2.008
12132WAT    EPW49250   1.211   1.989   1.977
12133WAT      O49251   1.526   2.870   1.068
12133WAT     H149252   1.466   2.932   1.084
12133WAT     H249253   1.587   2.883   1.129
12133WAT    EPW49254   1.526   2.881   1.079
12134WAT      O49255   1.164   2.375   1.269
12134WAT     H149256   1.085   2.369   1.305
12134WAT     H249257   1.214   2.403   1.335
12134WAT    EPW49258   1.160   2.378   1.284
12135WAT      O49259   1.738   2.593   1.964
12135WAT     H149260   1.820   2.562   1.958
12135WAT     H249261   1.706   2.551   2.034
12135WAT    EPW49262   1.745   2.582   1.973
12136WAT      O49263   0.514   1.718   1.601
12136WAT     H149264   0.524   1.774   1.534
12136WAT     H249265   0.591   1.678   1.605
12136WAT    EPW49266   0.527   1.721   1.592
12137WAT      O49267   0.363   1.516   1.485
12137WAT     H149268   0.356   1.542   1.402
12137WAT     H249269   0.403   1.582   1.524
12137WAT    EPW49270   0.368   1.529   1.478
12138WAT      O49271   1.853   1.821   0.502
12138WAT     H149272   1.874   1.821   0.418
12138WAT     H249273   1.921   1.783   0.541
12138WAT    EPW49274   1.866   1.815   0.495
12139WAT      O49275   0.592   1.187   1.743
12139WAT     H149276   0.644   1.118   1.737
12139WAT     H249277   0.571   1.205   1.660
12139WAT    EPW49278   0.597   1.180   1.730
12140WAT      O49279   1.238   2.512   0.667
12140WAT     H149280   1.221   2.593   0.638
12140WAT     H249281   1.166   2.467   0.646
12140WAT    EPW49282   1.225   2.518   0.660
12141WAT      O49283   1.747   1.809   1.473
12141WAT     H149284   1.732   1.723   1.471
12141WAT     H249285   1.726   1.832   1.555
12141WAT    EPW49286   1.742   1.800   1.485
12142WAT      O49287   0.232   2.071   1.468
12142WAT     H149288   0.289   2.080   1.402
12142WAT     H249289   0.155   2.088   1.431
12142WAT    EPW49290   0.229   2.075   1.453
12143WAT      O49291   1.288   1.237   1.822
12143WAT     H149292   1.320   1.307   1.865
12143WAT     H249293   1.207   1.229   1.854
12143WAT    EPW49294   1.281   1.246   1.833
12144WAT      O49295   1.273   1.353   0.876
12144WAT     H149296   1.195   1.392   0.872
12144WAT     H249297   1.270   1.293   0.813
12144WAT    EPW49298   1.261   1.350   0.866
12145WAT      O49299   0.775   2.448   0.351
12145WAT     H149300   0.786   2.492   0.426
12145WAT     H249301   0.688   2.444   0.343
12145WAT    EPW49302   0.764   2.454   0.361
12146WAT      O49303   1.591   1.415   1.154
12146WAT     H149304   1.669   1.381   1.172
12146WAT     H249305   1.600   1.499   1.177
12146WAT    EPW49306   1.604   1.423   1.160
12147WAT      O49307   0.752   1.993   1.576
12147WAT     H149308   0.715   2.066   1.606
12147WAT     H249309   0.692   1.960   1.522
12147WAT    EPW49310   0.738   1.999   1.572
12148WAT      O49311   1.667   1.856   0.960
12148WAT     H149312   1.726   1.918   0.976
12148WAT     H249313   1.605   1.898   0.914
12148WAT    EPW49314   1.666   1.872   0.956
12149WAT      O49315   1.661   2.677   0.682
12149WAT     H149316   1.629   2.599   0.705
12149WAT     H249317   1.705   2.660   0.608
12149WAT    EPW49318   1.663   2.663   0.674
12150WAT      O49319   0.498   2.412   0.338
12150WAT     H149320   0.469   2.401   0.419
12150WAT     H249321   0.505   2.331   0.308
12150WAT    EPW49322   0.495   2.398   0.345
12151WAT      O49323   0.826   2.180   0.284
12151WAT     H149324   0.743   2.167   0.260
12151WAT     H249325   0.829   2.265   0.303
12151WAT    EPW49326   0.814   2.191   0.283
12152WAT      O49327   0.752   1.302   1.390
12152WAT     H149328   0.672   1.281   1.417
12152WAT     H249329   0.804   1.247   1.433
12152WAT    EPW49330   0.748   1.291   1.400
12153WAT      O49331   1.909   1.163   1.427
12153WAT     H149332   1.885   1.170   1.510
12153WAT     H249333   1.994   1.141   1.432
12153WAT    EPW49334   1.918   1.161   1.440
12154WAT      O49335   1.121   1.328   1.238
12154WAT     H149336   1.062   1.266   1.219
12154WAT     H249337   1.197   1.293   1.212
12154WAT    EPW49338   1.123   1.313   1.231
12155WAT      O49339   1.433   2.463   1.364
12155WAT     H149340   1.458   2.533   1.409
12155WAT     H249341   1.427   2.492   1.282
12155WAT    EPW49342   1.436   2.477   1.358
12156WAT      O49343   1.387   2.862   1.800
12156WAT     H149344   1.312   2.829   1.771
12156WAT     H249345   1.367   2.946   1.817
12156WAT    EPW49346   1.373   2.870   1.798
12157WAT      O49347   0.873   1.808   1.754
12157WAT     H149348   0.841   1.737   1.714
12157WAT     H249349   0.839   1.874   1.709
12157WAT    EPW49350   0.863   1.807   1.742
12158WAT      O49351   1.865   2.305   1.330
12158WAT     H149352   1.840   2.225   1.308
12158WAT     H249353   1.811   2.357   1.285
12158WAT    EPW49354   1.853   2.301   1.320
12159WAT      O49355   0.778   2.802   1.748
12159WAT     H149356   0.768   2.791   1.834
12159WAT     H249357   0.838   2.743   1.726
12159WAT    EPW49358   0.785   2.792   1.757
12160WAT      O49359   1.766   2.600   1.272
12160WAT     H149360   1.835   2.600   1.220
12160WAT     H249361   1.708   2.551   1.230
12160WAT    EPW49362   1.768   2.593   1.258
12161WAT      O49363   0.494   1.274   1.502
12161WAT     H149364   0.435   1.212   1.486
12161WAT     H249365   0.450   1.348   1.492
12161WAT    EPW49366   0.479   1.276   1.498
12162WAT      O49367   1.363   1.248   1.119
12162WAT     H149368   1.429   1.301   1.141
12162WAT     H249369   1.335   1.280   1.043
12162WAT    EPW49370   1.369   1.260   1.111
12163WAT      O49371   0.520   2.637   1.860
12163WAT     H149372   0.582   2.672   1.910
12163WAT     H249373   0.475   2.706   1.831
12163WAT    EPW49374   0.523   2.652   1.863
12164WAT      O49375   1.332   1.747   0.895
12164WAT     H149376   1.386   1.680   0.905
12164WAT     H249377   1.298   1.758   0.974
12164WAT    EPW49378   1.335   1.739   0.908
12165WAT      O49379   0.351   1.549   0.829
12165WAT     H149380   0.303   1.522   0.897
12165WAT     H249381   0.421   1.498   0.833
12165WAT    EPW49382   0.354   1.538   0.840
12166WAT      O49383   0.370   2.473   1.578
12166WAT     H149384   0.330   2.525   1.636
12166WAT     H249385   0.455   2.486   1.595
12166WAT    EPW49386   0.377   2.483   1.589
12167WAT      O49387   1.521   1.927   0.536
12167WAT     H149388   1.541   1.843   0.548
12167WAT     H249389   1.447   1.924   0.490
12167WAT    EPW49390   1.513   1.914   0.531
12168WAT      O49391   0.496   2.793   0.466
12168WAT     H149392   0.467   2.757   0.392
12168WAT     H249393   0.582   2.802   0.452
12168WAT    EPW49394   0.505   2.789   0.453
12169WAT      O49395   0.863   1.979   0.470
12169WAT     H149396   0.862   2.039   0.408
12169WAT     H249397   0.945   1.980   0.499
12169WAT    EPW49398   0.875   1.988   0.465
12170WAT      O49399   1.740   2.751   0.170
12170WAT     H149400   1.822   2.759   0.199
12170WAT     H249401   1.722   2.667   0.182
12170WAT    EPW49402   1.749   2.740   0.176
12171WAT      O49403   1.819   2.084   1.841
12171WAT     H149404   1.890   2.051   1.878
12171WAT     H249405   1.850   2.129   1.773
12171WAT    EPW49406   1.834   2.086   1.837
12172WAT      O49407   1.456   2.429   0.456
12172WAT     H149408   1.492   2.422   0.535
12172WAT     H249409   1.371   2.426   0.472
12172WAT    EPW49410   1.449   2.428   0.470
12173WAT      O49411   1.862   1.538   1.963
12173WAT     H149412   1.853   1.619   1.994
12173WAT     H249413   1.787   1.524   1.921
12173WAT    EPW49414   1.850   1.548   1.962
12174WAT      O49415   1.906   1.643   1.235
12174WAT     H149416   1.823   1.666   1.223
12174WAT     H249417   1.902   1.556   1.241
12174WAT    EPW49418   1.893   1.633   1.234
12175WAT      O49419   0.822   1.343   1.751
12175WAT     H149420   0.863   1.307   1.683
12175WAT     H249421   0.746   1.301   1.755
12175WAT    EPW49422   0.817   1.332   1.742
12176WAT      O49423   1.586   2.141   2.060
12176WAT     H149424   1.660   2.170   2.098
12176WAT     H249425   1.594   2.167   1.977
12176WAT    EPW49426   1.598   2.150   2.053
12177WAT      O49427   0.497   2.678   1.121
12177WAT     H149428   0.500   2.597   1.090
12177WAT     H249429   0.455   2.722   1.058
12177WAT    EPW49430   0.491   2.673   1.107
12178WAT      O49431   1.179   2.362   0.379
12178WAT     H149432   1.223   2.303   0.332
12178WAT     H249433   1.171   2.430   0.326
12178WAT    EPW49434   1.184   2.363   0.364
12179WAT      O49435   0.323   2.907   1.497
12179WAT     H149436   0.324   2.881   1.580
12179WAT     H249437   0.351   2.837   1.454
12179WAT    EPW49438   0.327   2.893   1.503
12180WAT      O49439   1.833   0.777   6.155
12180WAT     H149440   1.892   0.719   6.184
12180WAT     H249441   1.784   0.731   6.099
12180WAT    EPW49442   1.834   0.761   6.151
12181WAT      O49443   0.525   0.310   5.879
12181WAT     H149444   0.484   0.294   5.803
12181WAT     H249445   0.534   0.231   5.915
12181WAT    EPW49446   0.520   0.296   5.873
12182WAT      O49447   0.463   0.481   6.304
12182WAT     H149448   0.542   0.450   6.320
12182WAT     H249449   0.409   0.423   6.342
12182WAT    EPW49450   0.466   0.468   6.312
12183WAT      O49451   0.397   0.794   5.933
12183WAT     H149452   0.423   0.787   5.850
12183WAT     H249453   0.405   0.713   5.964
12183WAT    EPW49454   0.402   0.781   5.926
12184WAT      O49455   0.904   0.461   7.480
12184WAT     H149456   0.910   0.415   7.554
12184WAT     H249457   0.835   0.427   7.440
12184WAT    EPW49458   0.895   0.450   7.485
12185WAT      O49459   0.851   0.727   7.244
12185WAT     H149460   0.830   0.802   7.205
12185WAT     H249461   0.936   0.735   7.259
12185WAT    EPW49462   0.860   0.739   7.240
12186WAT      O49463   0.983   0.561   6.652
12186WAT     H149464   1.003   0.483   6.683
12186WAT     H249465   1.061   0.601   6.646
12186WAT    EPW49466   0.997   0.556   6.656
12187WAT      O49467   1.060   0.527   6.297
12187WAT     H149468   1.070   0.455   6.345
12187WAT     H249469   1.081   0.502   6.216
12187WAT    EPW49470   1.065   0.513   6.292
12188WAT      O49471   0.812   0.647   6.263
12188WAT     H149472   0.776   0.632   6.341
12188WAT     H249473   0.891   0.612   6.270
12188WAT    EPW49474   0.818   0.639   6.276
12189WAT      O49475   1.401   0.897   6.077
12189WAT     H149476   1.471   0.950   6.079
12189WAT     H249477   1.434   0.818   6.093
12189WAT    EPW49478   1.416   0.893   6.080
12190WAT      O49479   1.202   0.918   6.264
12190WAT     H149480   1.222   0.990   6.310
12190WAT     H249481   1.263   0.916   6.202
12190WAT    EPW49482   1.214   0.928   6.262
12191WAT      O49483   0.412   0.753   6.390
12191WAT     H149484   0.424   0.669   6.372
12191WAT     H249485   0.425   0.792   6.313
12191WAT    EPW49486   0.415   0.747   6.376
12192WAT      O49487   1.457   0.920   7.059
12192WAT     H149488   1.526   0.972   7.052
12192WAT     H249489   1.445   0.892   6.977
12192WAT    EPW49490   1.465   0.923   7.046
12193WAT      O49491   0.505   0.582   6.691
12193WAT     H149492   0.565   0.587   6.628
12193WAT     H249493   0.546   0.540   6.756
12193WAT    EPW49494   0.520   0.577   6.692
12194WAT      O49495   0.768   0.869   6.596
12194WAT     H149496   0.846   0.895   6.565
12194WAT     H249497   0.711   0.920   6.553
12194WAT    EPW49498   0.771   0.881   6.585
12195WAT      O49499   1.608   1.084   6.050
12195WAT     H149500   1.656   1.060   5.981
12195WAT     H249501   1.664   1.130   6.099
12195WAT    EPW49502   1.624   1.087   6.047
12196WAT      O49503   0.708   0.949   7.154
12196WAT     H149504   0.713   0.970   7.238
12196WAT     H249505   0.630   0.911   7.147
12196WAT    EPW49506   0.698   0.946   7.165
12197WAT      O49507   1.330   0.748   7.469
12197WAT     H149508   1.311   0.675   7.512
12197WAT     H249509   1.412   0.736   7.443
12197WAT    EPW49510   1.339   0.736   7.471
12198WAT      O49511   1.090   0.705   5.877
12198WAT     H149512   1.058   0.766   5.931
12198WAT     H249513   1.168   0.738   5.853
12198WAT    EPW49514   1.097   0.719   5.881
12199WAT      O49515   0.462   0.831   7.101
12199WAT     H149516   0.432   0.753   7.127
12199WAT     H249517   0.464   0.824   7.015
12199WAT    EPW49518   0.458   0.818   7.092
12200WAT      O49519   1.211   0.962   7.170
12200WAT     H149520   1.290   0.953   7.135
12200WAT     H249521   1.158   0.964   7.100
12200WAT    EPW49522   1.215   0.961   7.155
12201WAT      O49523   1.894   1.005   6.435
12201WAT     H149524   1.857   1.081   6.454
12201WAT     H249525   1.826   0.953   6.419
12201WAT    EPW49526   1.879   1.008   6.436
12202WAT      O49527   1.568   0.620   6.465
12202WAT     H149528   1.604   0.541   6.467
12202WAT     H249529   1.483   0.604   6.456
12202WAT    EPW49530   1.561   0.606   6.464
12203WAT      O49531   0.618   0.642   7.373
12203WAT     H149532   0.691   0.674   7.336
12203WAT     H249533   0.594   0.704   7.429
12203WAT    EPW49534   0.625   0.656   7.376
12204WAT      O49535   0.767   0.211   6.851
12204WAT     H149536   0.790   0.218   6.935
12204WAT     H249537   0.703   0.153   6.852
12204WAT    EPW49538   0.761   0.203   6.864
12205WAT      O49539   0.846   0.298   7.108
12205WAT     H149540   0.849   0.382   7.085
12205WAT     H249541   0.797   0.299   7.180
12205WAT    EPW49542   0.839   0.311   7.115
12206WAT      O49543   1.492   0.381   7.039
12206WAT     H149544   1.435   0.332   7.082
12206WAT     H249545   1.465   0.462   7.053
12206WAT    EPW49546   1.480   0.386   7.047
12207WAT      O49547   1.797   0.365   5.984
12207WAT     H149548   1.794   0.326   6.062
12207WAT     H249549   1.882   0.386   5.975
12207WAT    EPW49550   1.809   0.362   5.994
12208WAT      O49551   0.443   0.226   6.464
12208WAT     H149552   0.527   0.246   6.447
12208WAT     H249553   0.441   0.139   6.458
12208WAT    EPW49554   0.455   0.216   6.460
12209WAT      O49555   0.380   0.984   6.627
12209WAT     H149556   0.326   0.926   6.589
12209WAT     H249557   0.444   0.994   6.569
12209WAT    EPW49558   0.381   0.977   6.613
12210WAT      O49559   2.011   0.850   7.401
12210WAT     H149560   1.952   0.834   7.338
12210WAT     H249561   1.968   0.901   7.457
12210WAT    EPW49562   1.996   0.855   7.400
12211WAT      O49563   0.690   0.343   6.391
12211WAT     H149564   0.730   0.404   6.439
12211WAT     H249565   0.757   0.299   6.355
12211WAT    EPW49566   0.706   0.345   6.393
12212WAT      O49567   1.200   0.739   6.618
12212WAT     H149568   1.149   0.806   6.595
12212WAT     H249569   1.235   0.714   6.542
12212WAT    EPW49570   1.198   0.745   6.603
12213WAT      O49571   0.633   0.449   6.890
12213WAT     H149572   0.690   0.493   6.940
12213WAT     H249573   0.678   0.379   6.865
12213WAT    EPW49574   0.648   0.445   6.894
12214WAT      O49575   0.339   0.351   6.694
12214WAT     H149576   0.367   0.308   6.623
12214WAT     H249577   0.376   0.430   6.686
12214WAT    EPW49578   0.349   0.356   6.682
12215WAT      O49579   1.773   0.830   7.242
12215WAT     H149580   1.738   0.909   7.249
12215WAT     H249581   1.772   0.814   7.156
12215WAT    EPW49582   1.768   0.839   7.231
12216WAT      O49583   0.740   0.603   6.529
12216WAT     H149584   0.733   0.689   6.544
12216WAT     H249585   0.815   0.581   6.567
12216WAT    EPW49586   0.750   0.613   6.536
12217WAT      O49587   1.004   0.958   6.988
12217WAT     H149588   0.972   0.887   6.950
12217WAT     H249589   0.992   1.021   6.929
12217WAT    EPW49590   0.997   0.957   6.974
12218WAT      O49591   1.522   0.414   7.445
12218WAT     H149592   1.553   0.494   7.429
12218WAT     H249593   1.563   0.364   7.386
12218WAT    EPW49594   1.533   0.418   7.434
12219WAT      O49595   0.927   0.750   7.541
12219WAT     H149596   0.947   0.740   7.625
12219WAT     H249597   0.918   0.668   7.512
12219WAT    EPW49598   0.929   0.737   7.549
12220WAT      O49599   1.676   0.358   6.464
12220WAT     H149600   1.742   0.335   6.516
12220WAT     H249601   1.699   0.328   6.386
12220WAT    EPW49602   1.689   0.350   6.460
12221WAT      O49603   1.403   0.787   6.810
12221WAT     H149604   1.338   0.770   6.754
12221WAT     H249605   1.447   0.852   6.771
12221WAT    EPW49606   1.400   0.794   6.796
12222WAT      O49607   1.381   0.423   6.779
12222WAT     H149608   1.310   0.465   6.805
12222WAT     H249609   1.412   0.387   6.852
12222WAT    EPW49610   1.375   0.424   6.793
12223WAT      O49611   0.776   0.912   6.191
12223WAT     H149612   0.783   0.834   6.230
12223WAT     H249613   0.848   0.917   6.142
12223WAT    EPW49614   0.788   0.901   6.190
12224WAT      O49615   1.015   0.904   6.055
12224WAT     H149616   1.072   0.912   6.120
12224WAT     H249617   1.018   0.982   6.016
12224WAT    EPW49618   1.024   0.917   6.059
12225WAT      O49619   1.654   0.271   7.249
12225WAT     H149620   1.629   0.305   7.173
12225WAT     H249621   1.741   0.277   7.247
12225WAT    EPW49622   1.663   0.277   7.238
12226WAT      O49623   1.297   0.253   7.191
12226WAT     H149624   1.248   0.310   7.236
12226WAT     H249625   1.334   0.204   7.253
12226WAT    EPW49626   1.295   0.254   7.207
12227WAT      O49627   1.686   0.507   6.873
12227WAT     H149628   1.640   0.525   6.801
12227WAT     H249629   1.632   0.459   6.922
12227WAT    EPW49630   1.671   0.503   6.870
12228WAT      O49631   1.011   0.288   6.718
12228WAT     H149632   0.932   0.258   6.739
12228WAT     H249633   1.057   0.276   6.791
12228WAT    EPW49634   1.006   0.281   6.732
12229WAT      O49635   0.720   0.892   5.821
12229WAT     H149636   0.735   0.825   5.875
12229WAT     H249637   0.718   0.961   5.875
12229WAT    EPW49638   0.722   0.892   5.837
12230WAT      O49639   0.426   0.277   6.954
12230WAT     H149640   0.488   0.338   6.945
12230WAT     H249641   0.380   0.284   6.880
12230WAT    EPW49642   0.428   0.287   6.941
12231WAT      O49643   2.003   0.942   6.015
12231WAT     H149644   2.062   0.889   5.980
12231WAT     H249645   1.950   0.888   6.059
12231WAT    EPW49646   2.004   0.926   6.016
12232WAT      O49647   0.424   0.321   7.231
12232WAT     H149648   0.415   0.291   7.149
12232WAT     H249649   0.399   0.404   7.225
12232WAT    EPW49650   0.419   0.329   7.218
12233WAT      O49651   1.907   0.228   6.580
12233WAT     H149652   1.871   0.154   6.609
12233WAT     H249653   1.978   0.237   6.630
12233WAT    EPW49654   1.912   0.218   6.592
12234WAT      O49655   1.998   0.731   6.796
12234WAT     H149656   2.025   0.786   6.734
12234WAT     H249657   2.053   0.746   6.862
12234WAT    EPW49658   2.010   0.741   6.796
12235WAT      O49659   1.685   0.620   5.987
12235WAT     H149660   1.716   0.538   5.987
12235WAT     H249661   1.610   0.614   6.032
12235WAT    EPW49662   1.679   0.607   5.994
12236WAT      O49663   1.938   0.330   7.255
12236WAT     H149664   2.024   0.318   7.262
12236WAT     H249665   1.931   0.380   7.184
12236WAT    EPW49666   1.950   0.336   7.245
12237WAT      O49667   1.377   0.440   5.928
12237WAT     H149668   1.436   0.378   5.910
12237WAT     H249669   1.354   0.470   5.849
12237WAT    EPW49670   1.382   0.435   5.914
12238WAT      O49671   0.842   0.562   7.029
12238WAT     H149672   0.842   0.611   7.101
12238WAT     H249673   0.864   0.618   6.966
12238WAT    EPW49674   0.845   0.578   7.030
12239WAT      O49675   0.680   0.373   7.332
12239WAT     H149676   0.605   0.335   7.308
12239WAT     H249677   0.657   0.456   7.345
12239WAT    EPW49678   0.665   0.380   7.330
12240WAT      O49679   1.100   0.273   6.990
12240WAT     H149680   1.162   0.249   7.047
12240WAT     H249681   1.027   0.269   7.037
12240WAT    EPW49682   1.099   0.269   7.005
12241WAT      O49683   1.027   0.939   6.510
12241WAT     H149684   1.028   1.025   6.524
12241WAT     H249685   1.048   0.931   6.426
12241WAT    EPW49686   1.030   0.950   6.500
12242WAT      O49687   0.889   0.753   6.833
12242WAT     H149688   0.837   0.797   6.778
12242WAT     H249689   0.930   0.696   6.781
12242WAT    EPW49690   0.887   0.751   6.817
12243WAT      O49691   1.272   0.489   7.547
12243WAT     H149692   1.350   0.454   7.529
12243WAT     H249693   1.224   0.466   7.478
12243WAT    EPW49694   1.277   0.480   7.534
12244WAT      O49695   1.602   0.684   7.413
12244WAT     H149696   1.646   0.699   7.486
12244WAT     H249697   1.651   0.722   7.351
12244WAT    EPW49698   1.615   0.692   7.414
12245WAT      O49699   0.947   0.270   6.013
12245WAT     H149700   0.889   0.305   5.958
12245WAT     H249701   1.011   0.329   6.016
12245WAT    EPW49702   0.948   0.284   6.005
12246WAT      O49703   1.067   0.985   7.429
12246WAT     H149704   1.114   0.972   7.356
12246WAT     H249705   1.052   0.904   7.458
12246WAT    EPW49706   1.071   0.971   7.422
12247WAT      O49707   1.752   0.223   6.226
12247WAT     H149708   1.812   0.165   6.250
12247WAT     H249709   1.681   0.175   6.211
12247WAT    EPW49710   1.750   0.207   6.227
12248WAT      O49711   1.128   0.440   7.313
12248WAT     H149712   1.052   0.436   7.355
12248WAT     H249713   1.130   0.522   7.283
12248WAT    EPW49714   1.117   0.451   7.315
12249WAT      O49715   0.681   1.039   6.884
12249WAT     H149716   0.693   1.024   6.970
12249WAT     H249717   0.639   0.967   6.857
12249WAT    EPW49718   0.677   1.026   6.893
12250WAT      O49719   1.389   0.358   6.509
12250WAT     H149720   1.386   0.378   6.593
12250WAT     H249721   1.474   0.344   6.495
12250WAT    EPW49722   1.401   0.359   6.519
12251WAT      O49723   1.118   0.299   6.449
12251WAT     H149724   1.086   0.289   6.529
12251WAT     H249725   1.204   0.308   6.462
12251WAT    EPW49726   1.126   0.299   6.463
12252WAT      O49727   1.135   0.717   7.274
12252WAT     H149728   1.192   0.723   7.340
12252WAT     H249729   1.160   0.781   7.220
12252WAT    EPW49730   1.147   0.728   7.276
12253WAT      O49731   0.316   1.036   7.481
12253WAT     H149732   0.234   1.026   7.510
12253WAT     H249733   0.338   1.116   7.508
12253WAT    EPW49734   0.307   1.046   7.490
12254WAT      O49735   1.531   1.034   6.756
12254WAT     H149736   1.472   1.093   6.781
12254WAT     H249737   1.596   1.044   6.815
12254WAT    EPW49738   1.532   1.044   6.769
12255WAT      O49739   1.163   0.535   6.911
12255WAT     H149740   1.135   0.460   6.947
12255WAT     H249741   1.211   0.571   6.975
12255WAT    EPW49742   1.166   0.529   6.926
12256WAT      O49743   1.287   0.669   6.360
12256WAT     H149744   1.264   0.749   6.332
12256WAT     H249745   1.216   0.621   6.344
12256WAT    EPW49746   1.273   0.674   6.354
12257WAT      O49747   0.724   0.660   5.990
12257WAT     H149748   0.759   0.658   6.070
12257WAT     H249749   0.642   0.633   6.003
12257WAT    EPW49750   0.717   0.655   6.004
12258WAT      O49751   1.667   0.859   6.365
12258WAT     H149752   1.638   0.784   6.400
12258WAT     H249753   1.709   0.832   6.293
12258WAT    EPW49754   1.669   0.844   6.359
12259WAT      O49755   0.473   0.544   6.031
12259WAT     H149756   0.463   0.522   6.115
12259WAT     H249757   0.478   0.467   5.990
12259WAT    EPW49758   0.472   0.530   6.038
12260WAT      O49759   0.780   0.425   5.847
12260WAT     H149760   0.700   0.392   5.852
12260WAT     H249761   0.774   0.501   5.888
12260WAT    EPW49762   0.768   0.431   5.854
12261WAT      O49763   1.395   0.638   7.045
12261WAT     H149764   1.422   0.703   7.096
12261WAT     H249765   1.402   0.671   6.965
12261WAT    EPW49766   1.400   0.652   7.041
12262WAT      O49767   1.427   1.026   7.470
12262WAT     H149768   1.375   0.957   7.485
12262WAT     H249769   1.378   1.094   7.493
12262WAT    EPW49770   1.412   1.026   7.476
12263WAT      O49771   1.938   0.468   7.012
12263WAT     H149772   2.001   0.426   6.969
12263WAT     H249773   1.874   0.477   6.953
12263WAT    EPW49774   1.938   0.463   6.997
12264WAT      O49775   0.780   0.978   7.428
12264WAT     H149776   0.855   1.020   7.414
12264WAT     H249777   0.805   0.901   7.459
12264WAT    EPW49778   0.795   0.973   7.430
12265WAT      O49779   1.769   0.764   6.967
12265WAT     H149780   1.836   0.768   6.911
12265WAT     H249781   1.730   0.688   6.946
12265WAT    EPW49782   1.773   0.753   6.955
12266WAT      O49783   0.531   0.858   7.524
12266WAT     H149784   0.597   0.915   7.525
12266WAT     H249785   0.460   0.909   7.515
12266WAT    EPW49786   0.530   0.874   7.523
12267WAT      O49787   0.381   0.600   7.239
12267WAT     H149788   0.319   0.619   7.298
12267WAT     H249789   0.455   0.612   7.284
12267WAT    EPW49790   0.383   0.605   7.255
12268WAT      O49791   0.498   0.905   6.172
12268WAT     H149792   0.466   0.883   6.094
12268WAT     H249793   0.584   0.903   6.161
12268WAT    EPW49794   0.506   0.901   6.159
12269WAT      O49795   0.904   0.203   6.282
12269WAT     H149796   0.920   0.217   6.197
12269WAT     H249797   0.980   0.219   6.320
12269WAT    EPW49798   0.917   0.207   6.275
12270WAT      O49799   1.786   1.011   5.850
12270WAT     H149800   1.858   0.994   5.896
12270WAT     H249801   1.765   0.934   5.816
12270WAT    EPW49802   1.794   0.997   5.852
12271WAT      O49803   1.892   0.285   7.531
12271WAT     H149804   1.965   0.239   7.544
12271WAT     H249805   1.897   0.307   7.447
12271WAT    EPW49806   1.904   0.281   7.521
12272WAT      O49807   1.448   0.627   6.127
12272WAT     H149808   1.405   0.620   6.202
12272WAT     H249809   1.409   0.569   6.075
12272WAT    EPW49810   1.436   0.617   6.131
12273WAT      O49811   1.639   0.259   7.653
12273WAT     H149812   1.720   0.264   7.623
12273WAT     H249813   1.593   0.308   7.597
12273WAT    EPW49814   1.644   0.267   7.640
12274WAT      O49815   0.498   0.828   6.824
12274WAT     H149816   0.501   0.751   6.783
12274WAT     H249817   0.454   0.878   6.768
12274WAT    EPW49818   0.492   0.824   6.809
12275WAT      O49819   1.127   0.478   6.034
12275WAT     H149820   1.205   0.452   6.003
12275WAT     H249821   1.107   0.546   5.983
12275WAT    EPW49822   1.136   0.484   6.022
12276WAT      O49823   0.325   1.053   7.198
12276WAT     H149824   0.321   1.040   7.284
12276WAT     H249825   0.360   0.979   7.168
12276WAT    EPW49826   0.330   1.041   7.207
12277WAT      O49827   1.833   0.776   4.254
12277WAT     H149828   1.891   0.718   4.283
12277WAT     H249829   1.784   0.730   4.198
12277WAT    EPW49830   1.835   0.761   4.250
12278WAT      O49831   0.525   0.309   3.983
12278WAT     H149832   0.483   0.291   3.909
12278WAT     H249833   0.533   0.231   4.021
12278WAT    EPW49834   0.520   0.295   3.978
12279WAT      O49835   0.455   0.476   4.408
12279WAT     H149836   0.533   0.441   4.425
12279WAT     H249837   0.399   0.420   4.444
12279WAT    EPW49838   0.459   0.462   4.416
12280WAT      O49839   0.399   0.794   4.036
12280WAT     H149840   0.423   0.787   3.953
12280WAT     H249841   0.405   0.712   4.067
12280WAT    EPW49842   0.403   0.781   4.029
12281WAT      O49843   0.894   0.450   5.592
12281WAT     H149844   0.865   0.438   5.674
12281WAT     H249845   0.828   0.421   5.543
12281WAT    EPW49846   0.880   0.444   5.597
12282WAT      O49847   0.877   0.789   5.328
12282WAT     H149848   0.896   0.845   5.264
12282WAT     H249849   0.955   0.756   5.349
12282WAT    EPW49850   0.891   0.793   5.321
12283WAT      O49851   0.984   0.553   4.746
12283WAT     H149852   1.005   0.476   4.780
12283WAT     H249853   1.060   0.595   4.741
12283WAT    EPW49854   0.998   0.548   4.750
12284WAT      O49855   1.063   0.526   4.397
12284WAT     H149856   1.072   0.453   4.444
12284WAT     H249857   1.082   0.500   4.316
12284WAT    EPW49858   1.067   0.511   4.392
12285WAT      O49859   0.814   0.645   4.361
12285WAT     H149860   0.776   0.627   4.437
12285WAT     H249861   0.894   0.610   4.368
12285WAT    EPW49862   0.820   0.637   4.373
12286WAT      O49863   1.400   0.897   4.175
12286WAT     H149864   1.470   0.949   4.177
12286WAT     H249865   1.432   0.818   4.192
12286WAT    EPW49866   1.415   0.893   4.178
12287WAT      O49867   1.204   0.919   4.365
12287WAT     H149868   1.223   0.991   4.410
12287WAT     H249869   1.264   0.917   4.302
12287WAT    EPW49870   1.216   0.929   4.363
12288WAT      O49871   0.400   0.750   4.494
12288WAT     H149872   0.415   0.666   4.478
12288WAT     H249873   0.420   0.789   4.419
12288WAT    EPW49874   0.405   0.744   4.481
12289WAT      O49875   1.452   0.917   5.165
12289WAT     H149876   1.522   0.968   5.156
12289WAT     H249877   1.434   0.892   5.083
12289WAT    EPW49878   1.460   0.921   5.151
12290WAT      O49879   0.507   0.576   4.789
12290WAT     H149880   0.571   0.578   4.729
12290WAT     H249881   0.546   0.539   4.858
12290WAT    EPW49882   0.522   0.571   4.790
12291WAT      O49883   0.769   0.863   4.686
12291WAT     H149884   0.847   0.890   4.657
12291WAT     H249885   0.713   0.915   4.644
12291WAT    EPW49886   0.772   0.874   4.675
12292WAT      O49887   1.607   1.083   4.148
12292WAT     H149888   1.656   1.059   4.080
12292WAT     H249889   1.662   1.130   4.197
12292WAT    EPW49890   1.622   1.086   4.145
12293WAT      O49891   0.659   1.000   5.270
12293WAT     H149892   0.694   0.966   5.342
12293WAT     H249893   0.593   0.946   5.252
12293WAT    EPW49894   0.654   0.987   5.278
12294WAT      O49895   1.345   0.748   5.514
12294WAT     H149896   1.324   0.699   5.583
12294WAT     H249897   1.430   0.733   5.502
12294WAT    EPW49898   1.354   0.739   5.522
12295WAT      O49899   1.091   0.705   3.976
12295WAT     H149900   1.060   0.766   4.030
12295WAT     H249901   1.169   0.737   3.952
12295WAT    EPW49902   1.098   0.719   3.980
12296WAT      O49903   0.445   0.843   5.186
12296WAT     H149904   0.420   0.765   5.217
12296WAT     H249905   0.455   0.829   5.101
12296WAT    EPW49906   0.443   0.829   5.178
12297WAT      O49907   1.212   0.991   5.279
12297WAT     H149908   1.289   0.969   5.243
12297WAT     H249909   1.154   0.971   5.216
12297WAT    EPW49910   1.215   0.985   5.264
12298WAT      O49911   1.894   1.002   4.536
12298WAT     H149912   1.857   1.079   4.555
12298WAT     H249913   1.826   0.950   4.519
12298WAT    EPW49914   1.878   1.006   4.537
12299WAT      O49915   1.568   0.619   4.560
12299WAT     H149916   1.604   0.540   4.564
12299WAT     H249917   1.483   0.604   4.552
12299WAT    EPW49918   1.561   0.605   4.560
12300WAT      O49919   0.641   0.666   5.453
12300WAT     H149920   0.710   0.714   5.429
12300WAT     H249921   0.615   0.703   5.528
12300WAT    EPW49922   0.648   0.679   5.461
12301WAT      O49923   0.767   0.229   4.956
12301WAT     H149924   0.791   0.236   5.040
12301WAT     H249925   0.704   0.169   4.958
12301WAT    EPW49926   0.761   0.221   4.969
12302WAT      O49927   0.851   0.322   5.209
12302WAT     H149928   0.852   0.406   5.189
12302WAT     H249929   0.799   0.318   5.279
12302WAT    EPW49930   0.843   0.334   5.216
12303WAT      O49931   1.486   0.391   5.164
12303WAT     H149932   1.429   0.340   5.206
12303WAT     H249933   1.453   0.471   5.172
12303WAT    EPW49934   1.473   0.395   5.171
12304WAT      O49935   1.797   0.366   4.082
12304WAT     H149936   1.795   0.326   4.160
12304WAT     H249937   1.881   0.387   4.073
12304WAT    EPW49938   1.809   0.363   4.092
12305WAT      O49939   0.444   0.203   4.568
12305WAT     H149940   0.526   0.225   4.548
12305WAT     H249941   0.444   0.116   4.567
12305WAT    EPW49942   0.456   0.194   4.565
12306WAT      O49943   0.382   0.972   4.712
12306WAT     H149944   0.338   0.907   4.672
12306WAT     H249945   0.447   0.989   4.657
12306WAT    EPW49946   0.385   0.964   4.698
12307WAT      O49947   2.039   0.817   5.497
12307WAT     H149948   1.966   0.820   5.451
12307WAT     H249949   2.017   0.772   5.569
12307WAT    EPW49950   2.025   0.811   5.501
12308WAT      O49951   0.684   0.337   4.490
12308WAT     H149952   0.721   0.400   4.537
12308WAT     H249953   0.752   0.296   4.454
12308WAT    EPW49954   0.699   0.341   4.492
12309WAT      O49955   1.198   0.734   4.717
12309WAT     H149956   1.147   0.802   4.695
12309WAT     H249957   1.235   0.711   4.642
12309WAT    EPW49958   1.196   0.741   4.703
12310WAT      O49959   0.625   0.462   5.005
12310WAT     H149960   0.679   0.507   5.057
12310WAT     H249961   0.674   0.394   4.980
12310WAT    EPW49962   0.640   0.458   5.009
12311WAT      O49963   0.347   0.340   4.796
12311WAT     H149964   0.373   0.295   4.727
12311WAT     H249965   0.383   0.419   4.784
12311WAT    EPW49966   0.357   0.345   4.784
12312WAT      O49967   1.793   0.834   5.356
12312WAT     H149968   1.751   0.910   5.365
12312WAT     H249969   1.790   0.819   5.270
12312WAT    EPW49970   1.786   0.843   5.345
12313WAT      O49971   0.739   0.595   4.625
12313WAT     H149972   0.734   0.681   4.639
12313WAT     H249973   0.816   0.573   4.661
12313WAT    EPW49974   0.750   0.605   4.632
12314WAT      O49975   0.998   0.927   5.104
12314WAT     H149976   0.977   0.864   5.047
12314WAT     H249977   0.978   1.000   5.062
12314WAT    EPW49978   0.992   0.928   5.090
12315WAT      O49979   1.576   0.416   5.590
12315WAT     H149980   1.599   0.497   5.566
12315WAT     H249981   1.599   0.367   5.522
12315WAT    EPW49982   1.582   0.421   5.577
12316WAT      O49983   0.982   0.720   5.622
12316WAT     H149984   1.010   0.715   5.704
12316WAT     H249985   0.950   0.640   5.606
12316WAT    EPW49986   0.981   0.707   5.632
12317WAT      O49987   1.676   0.356   4.561
12317WAT     H149988   1.743   0.333   4.613
12317WAT     H249989   1.701   0.327   4.483
12317WAT    EPW49990   1.690   0.348   4.557
12318WAT      O49991   1.392   0.785   4.915
12318WAT     H149992   1.330   0.767   4.856
12318WAT     H249993   1.439   0.848   4.877
12318WAT    EPW49994   1.390   0.792   4.901
12319WAT      O49995   1.399   0.415   4.886
12319WAT     H149996   1.323   0.453   4.905
12319WAT     H249997   1.423   0.379   4.962
12319WAT    EPW49998   1.391   0.415   4.900
12320WAT      O49999   0.780   0.911   4.289
12320WAT     H150000   0.787   0.833   4.328
12320WAT     H250001   0.851   0.916   4.239
12320WAT    EPW50002   0.791   0.900   4.287
12321WAT      O50003   1.018   0.906   4.153
12321WAT     H150004   1.074   0.914   4.219
12321WAT     H250005   1.020   0.985   4.115
12321WAT    EPW50006   1.027   0.919   4.157
12322WAT      O50007   1.664   0.278   5.370
12322WAT     H150008   1.633   0.313   5.296
12322WAT     H250009   1.750   0.288   5.363
12322WAT    EPW50010   1.672   0.285   5.358
12323WAT      O50011   1.328   0.837   5.816
12323WAT     H150012   1.353   0.864   5.896
12323WAT     H250013   1.372   0.889   5.762
12323WAT    EPW50014   1.338   0.849   5.820
12324WAT      O50015   1.288   0.251   5.305
12324WAT     H150016   1.242   0.302   5.359
12324WAT     H250017   1.315   0.186   5.355
12324WAT    EPW50018   1.285   0.249   5.320
12325WAT      O50019   1.683   0.509   4.994
12325WAT     H150020   1.636   0.521   4.922
12325WAT     H250021   1.629   0.465   5.046
12325WAT    EPW50022   1.668   0.504   4.991
12326WAT      O50023   1.013   0.281   4.818
12326WAT     H150024   0.932   0.258   4.841
12326WAT     H250025   1.060   0.266   4.891
12326WAT    EPW50026   1.008   0.275   4.832
12327WAT      O50027   0.720   0.891   3.920
12327WAT     H150028   0.734   0.824   3.974
12327WAT     H250029   0.718   0.960   3.974
12327WAT    EPW50030   0.722   0.892   3.936
12328WAT      O50031   0.417   0.290   5.067
12328WAT     H150032   0.479   0.351   5.057
12328WAT     H250033   0.376   0.290   4.990
12328WAT    EPW50034   0.420   0.299   5.055
12329WAT      O50035   2.001   0.944   4.115
12329WAT     H150036   2.063   0.892   4.082
12329WAT     H250037   1.950   0.889   4.158
12329WAT    EPW50038   2.003   0.928   4.116
12330WAT      O50039   0.416   0.340   5.344
12330WAT     H150040   0.405   0.309   5.264
12330WAT     H250041   0.392   0.424   5.338
12330WAT    EPW50042   0.411   0.348   5.332
12331WAT      O50043   1.910   0.228   4.677
12331WAT     H150044   1.879   0.149   4.699
12331WAT     H250045   1.979   0.238   4.728
12331WAT    EPW50046   1.915   0.218   4.688
12332WAT      O50047   1.995   0.728   4.892
12332WAT     H150048   2.022   0.784   4.831
12332WAT     H250049   2.051   0.739   4.957
12332WAT    EPW50050   2.007   0.738   4.893
12333WAT      O50051   1.685   0.620   4.087
12333WAT     H150052   1.715   0.538   4.086
12333WAT     H250053   1.610   0.614   4.131
12333WAT    EPW50054   1.678   0.607   4.093
12334WAT      O50055   1.944   0.348   5.377
12334WAT     H150056   2.028   0.326   5.380
12334WAT     H250057   1.938   0.394   5.303
12334WAT    EPW50058   1.956   0.352   5.366
12335WAT      O50059   1.377   0.439   4.027
12335WAT     H150060   1.435   0.376   4.010
12335WAT     H250061   1.354   0.468   3.948
12335WAT    EPW50062   1.382   0.434   4.013
12336WAT      O50063   0.828   0.590   5.143
12336WAT     H150064   0.834   0.648   5.208
12336WAT     H250065   0.848   0.636   5.072
12336WAT    EPW50066   0.832   0.605   5.142
12337WAT      O50067   0.677   0.390   5.424
12337WAT     H150068   0.598   0.358   5.404
12337WAT     H250069   0.665   0.476   5.428
12337WAT    EPW50070   0.664   0.398   5.421
12338WAT      O50071   1.100   0.268   5.096
12338WAT     H150072   1.159   0.248   5.158
12338WAT     H250073   1.025   0.273   5.140
12338WAT    EPW50074   1.098   0.266   5.112
12339WAT      O50075   1.029   0.937   4.611
12339WAT     H150076   1.029   1.022   4.629
12339WAT     H250077   1.053   0.933   4.527
12339WAT    EPW50078   1.032   0.949   4.601
12340WAT      O50079   0.886   0.745   4.922
12340WAT     H150080   0.836   0.789   4.866
12340WAT     H250081   0.924   0.685   4.872
12340WAT    EPW50082   0.884   0.742   4.906
12341WAT      O50083   1.319   0.505   5.664
12341WAT     H150084   1.394   0.473   5.634
12341WAT     H250085   1.259   0.473   5.609
12341WAT    EPW50086   1.322   0.496   5.651
12342WAT      O50087   1.617   0.684   5.514
12342WAT     H150088   1.646   0.713   5.591
12342WAT     H250089   1.672   0.721   5.457
12342WAT    EPW50090   1.629   0.694   5.517
12343WAT      O50091   0.948   0.269   4.110
12343WAT     H150092   0.889   0.304   4.056
12343WAT     H250093   1.011   0.329   4.114
12343WAT    EPW50094   0.949   0.283   4.103
12344WAT      O50095   1.057   0.966   5.511
12344WAT     H150096   1.116   0.956   5.448
12344WAT     H250097   1.050   0.886   5.544
12344WAT    EPW50098   1.065   0.953   5.507
12345WAT      O50099   1.755   0.222   4.324
12345WAT     H150100   1.816   0.164   4.348
12345WAT     H250101   1.684   0.172   4.309
12345WAT    EPW50102   1.753   0.206   4.325
12346WAT      O50103   1.140   0.426   5.463
12346WAT     H150104   1.064   0.419   5.505
12346WAT     H250105   1.134   0.502   5.421
12346WAT    EPW50106   1.128   0.436   5.463
12347WAT      O50107   0.654   1.063   4.987
12347WAT     H150108   0.660   1.060   5.074
12347WAT     H250109   0.626   0.983   4.966
12347WAT    EPW50110   0.651   1.051   4.997
12348WAT      O50111   1.392   0.355   4.614
12348WAT     H150112   1.393   0.372   4.699
12348WAT     H250113   1.476   0.341   4.595
12348WAT    EPW50114   1.405   0.355   4.623
12349WAT      O50115   1.121   0.298   4.548
12349WAT     H150116   1.088   0.285   4.628
12349WAT     H250117   1.207   0.306   4.563
12349WAT    EPW50118   1.129   0.297   4.562
12350WAT      O50119   1.139   0.677   5.342
12350WAT     H150120   1.198   0.707   5.399
12350WAT     H250121   1.183   0.680   5.266
12350WAT    EPW50122   1.154   0.682   5.339
12351WAT      O50123   0.378   1.010   5.578
12351WAT     H150124   0.321   1.045   5.634
12351WAT     H250125   0.441   1.071   5.573
12351WAT    EPW50126   0.379   1.024   5.586
12352WAT      O50127   1.523   1.028   4.856
12352WAT     H150128   1.464   1.088   4.878
12352WAT     H250129   1.587   1.039   4.914
12352WAT    EPW50130   1.524   1.038   4.868
12353WAT      O50131   1.166   0.517   4.997
12353WAT     H150132   1.138   0.443   5.034
12353WAT     H250133   1.210   0.557   5.061
12353WAT    EPW50134   1.168   0.512   5.012
12354WAT      O50135   1.732   0.759   5.754
12354WAT     H150136   1.813   0.730   5.743
12354WAT     H250137   1.704   0.715   5.824
12354WAT    EPW50138   1.739   0.748   5.763
12355WAT      O50139   1.287   0.669   4.460
12355WAT     H150140   1.265   0.748   4.432
12355WAT     H250141   1.217   0.620   4.444
12355WAT    EPW50142   1.274   0.673   4.454
12356WAT      O50143   0.723   0.659   4.089
12356WAT     H150144   0.760   0.657   4.169
12356WAT     H250145   0.641   0.633   4.104
12356WAT    EPW50146   0.717   0.655   4.103
12357WAT      O50147   1.667   0.858   4.463
12357WAT     H150148   1.637   0.783   4.497
12357WAT     H250149   1.708   0.833   4.390
12357WAT    EPW50150   1.668   0.843   4.457
12358WAT      O50151   0.473   0.544   4.135
12358WAT     H150152   0.462   0.521   4.219
12358WAT     H250153   0.478   0.467   4.094
12358WAT    EPW50154   0.472   0.529   4.142
12359WAT      O50155   0.779   0.425   3.946
12359WAT     H150156   0.699   0.391   3.952
12359WAT     H250157   0.773   0.501   3.988
12359WAT    EPW50158   0.766   0.431   3.953
12360WAT      O50159   1.367   0.644   5.154
12360WAT     H150160   1.404   0.705   5.204
12360WAT     H250161   1.379   0.674   5.073
12360WAT    EPW50162   1.374   0.657   5.149
12361WAT      O50163   1.436   1.000   5.605
12361WAT     H150164   1.387   0.940   5.565
12361WAT     H250165   1.384   1.070   5.610
12361WAT    EPW50166   1.421   1.002   5.600
12362WAT      O50167   1.938   0.469   5.127
12362WAT     H150168   2.001   0.427   5.084
12362WAT     H250169   1.874   0.476   5.067
12362WAT    EPW50170   1.938   0.464   5.112
12363WAT      O50171   0.760   0.960   5.549
12363WAT     H150172   0.759   0.938   5.633
12363WAT     H250173   0.834   0.925   5.519
12363WAT    EPW50174   0.771   0.952   5.557
12364WAT      O50175   1.778   0.764   5.081
12364WAT     H150176   1.839   0.771   5.019
12364WAT     H250177   1.737   0.689   5.061
12364WAT    EPW50178   1.781   0.754   5.069
12365WAT      O50179   0.511   0.785   5.674
12365WAT     H150180   0.576   0.821   5.720
12365WAT     H250181   0.469   0.854   5.641
12365WAT    EPW50182   0.514   0.801   5.676
12366WAT      O50183   0.388   0.621   5.349
12366WAT     H150184   0.335   0.648   5.413
12366WAT     H250185   0.468   0.635   5.381
12366WAT    EPW50186   0.392   0.627   5.363
12367WAT      O50187   0.501   0.898   4.278
12367WAT     H150188   0.467   0.879   4.200
12367WAT     H250189   0.587   0.896   4.263
12367WAT    EPW50190   0.509   0.895   4.264
12368WAT      O50191   0.903   0.207   4.380
12368WAT     H150192   0.919   0.219   4.295
12368WAT     H250193   0.981   0.221   4.418
12368WAT    EPW50194   0.917   0.211   4.373
12369WAT      O50195   1.785   1.011   3.949
12369WAT     H150196   1.858   0.995   3.995
12369WAT     H250197   1.765   0.933   3.915
12369WAT    EPW50198   1.793   0.997   3.950
12370WAT      O50199   1.934   0.407   5.652
12370WAT     H150200   1.869   0.358   5.682
12370WAT     H250201   1.933   0.393   5.566
12370WAT    EPW50202   1.924   0.398   5.643
12371WAT      O50203   1.448   0.627   4.226
12371WAT     H150204   1.404   0.620   4.301
12371WAT     H250205   1.408   0.569   4.174
12371WAT    EPW50206   1.435   0.617   4.229
12372WAT      O50207   1.580   0.274   5.835
12372WAT     H150208   1.653   0.301   5.875
12372WAT     H250209   1.584   0.315   5.758
12372WAT    EPW50210   1.592   0.284   5.829
12373WAT      O50211   0.504   0.828   4.914
12373WAT     H150212   0.507   0.749   4.877
12373WAT     H250213   0.460   0.876   4.856
12373WAT    EPW50214   0.498   0.823   4.900
12374WAT      O50215   1.127   0.477   4.132
12374WAT     H150216   1.205   0.451   4.102
12374WAT     H250217   1.107   0.546   4.082
12374WAT    EPW50218   1.136   0.483   4.121
12375WAT      O50219   0.322   1.064   5.304
12375WAT     H150220   0.325   1.035   5.387
12375WAT     H250221   0.349   0.996   5.257
12375WAT    EPW50222   0.327   1.050   5.310
12376WAT      O50223   1.836   0.779   2.354
12376WAT     H150224   1.896   0.721   2.382
12376WAT     H250225   1.787   0.733   2.299
12376WAT    EPW50226   1.838   0.764   2.350
12377WAT      O50227   0.524   0.310   2.080
12377WAT     H150228   0.483   0.294   2.005
12377WAT     H250229   0.533   0.230   2.116
12377WAT    EPW50230   0.519   0.296   2.074
12378WAT      O50231   0.459   0.482   2.506
12378WAT     H150232   0.539   0.450   2.522
12378WAT     H250233   0.406   0.424   2.544
12378WAT    EPW50234   0.463   0.469   2.514
12379WAT      O50235   0.397   0.795   2.138
12379WAT     H150236   0.422   0.789   2.054
12379WAT     H250237   0.404   0.714   2.168
12379WAT    EPW50238   0.402   0.782   2.130
12380WAT      O50239   0.893   0.449   3.692
12380WAT     H150240   0.864   0.437   3.773
12380WAT     H250241   0.827   0.421   3.642
12380WAT    EPW50242   0.879   0.443   3.697
12381WAT      O50243   0.877   0.790   3.428
12381WAT     H150244   0.895   0.846   3.364
12381WAT     H250245   0.955   0.756   3.449
12381WAT    EPW50246   0.891   0.793   3.422
12382WAT      O50247   0.983   0.553   2.846
12382WAT     H150248   1.005   0.476   2.880
12382WAT     H250249   1.060   0.595   2.841
12382WAT    EPW50250   0.998   0.548   2.850
12383WAT      O50251   1.062   0.526   2.497
12383WAT     H150252   1.072   0.453   2.544
12383WAT     H250253   1.082   0.500   2.416
12383WAT    EPW50254   1.067   0.511   2.492
12384WAT      O50255   0.814   0.645   2.461
12384WAT     H150256   0.777   0.629   2.539
12384WAT     H250257   0.893   0.610   2.468
12384WAT    EPW50258   0.820   0.638   2.474
12385WAT      O50259   1.401   0.899   2.275
12385WAT     H150260   1.471   0.951   2.277
12385WAT     H250261   1.434   0.820   2.291
12385WAT    EPW50262   1.416   0.895   2.278
12386WAT      O50263   1.206   0.919   2.465
12386WAT     H150264   1.226   0.991   2.510
12386WAT     H250265   1.266   0.917   2.402
12386WAT    EPW50266   1.217   0.929   2.463
12387WAT      O50267   0.398   0.754   2.594
12387WAT     H150268   0.414   0.669   2.578
12387WAT     H250269   0.419   0.793   2.519
12387WAT    EPW50270   0.404   0.747   2.581
12388WAT      O50271   1.450   0.917   3.263
12388WAT     H150272   1.520   0.968   3.253
12388WAT     H250273   1.432   0.891   3.182
12388WAT    EPW50274   1.458   0.921   3.250
12389WAT      O50275   0.508   0.579   2.890
12389WAT     H150276   0.571   0.580   2.829
12389WAT     H250277   0.546   0.541   2.959
12389WAT    EPW50278   0.523   0.574   2.891
12390WAT      O50279   0.770   0.865   2.786
12390WAT     H150280   0.848   0.892   2.758
12390WAT     H250281   0.713   0.917   2.745
12390WAT    EPW50282   0.773   0.877   2.776
12391WAT      O50283   1.610   1.085   2.251
12391WAT     H150284   1.658   1.061   2.182
12391WAT     H250285   1.666   1.131   2.300
12391WAT    EPW50286   1.625   1.088   2.248
12392WAT      O50287   0.660   1.000   3.370
12392WAT     H150288   0.695   0.967   3.442
12392WAT     H250289   0.594   0.946   3.352
12392WAT    EPW50290   0.655   0.988   3.378
12393WAT      O50291   1.344   0.747   3.613
12393WAT     H150292   1.323   0.698   3.682
12393WAT     H250293   1.429   0.731   3.602
12393WAT    EPW50294   1.354   0.737   3.621
12394WAT      O50295   1.091   0.705   2.078
12394WAT     H150296   1.060   0.766   2.131
12394WAT     H250297   1.168   0.737   2.052
12394WAT    EPW50298   1.098   0.719   2.082
12395WAT      O50299   0.446   0.843   3.286
12395WAT     H150300   0.421   0.765   3.317
12395WAT     H250301   0.455   0.829   3.201
12395WAT    EPW50302   0.443   0.829   3.278
12396WAT      O50303   1.211   0.991   3.378
12396WAT     H150304   1.288   0.969   3.342
12396WAT     H250305   1.153   0.971   3.316
12396WAT    EPW50306   1.214   0.985   3.364
12397WAT      O50307   1.899   1.005   2.634
12397WAT     H150308   1.861   1.082   2.653
12397WAT     H250309   1.831   0.953   2.618
12397WAT    EPW50310   1.883   1.009   2.635
12398WAT      O50311   1.570   0.620   2.661
12398WAT     H150312   1.605   0.540   2.663
12398WAT     H250313   1.485   0.604   2.652
12398WAT    EPW50314   1.563   0.606   2.660
12399WAT      O50315   0.640   0.666   3.554
12399WAT     H150316   0.709   0.714   3.530
12399WAT     H250317   0.614   0.703   3.628
12399WAT    EPW50318   0.647   0.678   3.561
12400WAT      O50319   0.767   0.228   3.056
12400WAT     H150320   0.791   0.236   3.140
12400WAT     H250321   0.704   0.168   3.059
12400WAT    EPW50322   0.761   0.221   3.069
12401WAT      O50323   0.851   0.322   3.308
12401WAT     H150324   0.852   0.407   3.288
12401WAT     H250325   0.799   0.318   3.378
12401WAT    EPW50326   0.843   0.334   3.316
12402WAT      O50327   1.486   0.390   3.264
12402WAT     H150328   1.429   0.339   3.306
12402WAT     H250329   1.452   0.470   3.272
12402WAT    EPW50330   1.472   0.394   3.272
12403WAT      O50331   1.797   0.368   2.183
12403WAT     H150332   1.793   0.327   2.261
12403WAT     H250333   1.881   0.388   2.175
12403WAT    EPW50334   1.809   0.365   2.194
12404WAT      O50335   0.443   0.224   2.663
12404WAT     H150336   0.526   0.244   2.645
12404WAT     H250337   0.441   0.138   2.656
12404WAT    EPW50338   0.455   0.215   2.659
12405WAT      O50339   0.382   0.972   2.811
12405WAT     H150340   0.339   0.907   2.771
12405WAT     H250341   0.448   0.990   2.757
12405WAT    EPW50342   0.385   0.965   2.797
12406WAT      O50343   2.034   0.808   3.596
12406WAT     H150344   1.959   0.812   3.552
12406WAT     H250345   2.014   0.765   3.669
12406WAT    EPW50346   2.020   0.802   3.600
12407WAT      O50347   0.688   0.342   2.587
12407WAT     H150348   0.726   0.404   2.635
12407WAT     H250349   0.755   0.299   2.552
12407WAT    EPW50350   0.704   0.345   2.589
12408WAT      O50351   1.197   0.734   2.817
12408WAT     H150352   1.147   0.801   2.794
12408WAT     H250353   1.235   0.710   2.741
12408WAT    EPW50354   1.196   0.740   2.802
12409WAT      O50355   0.626   0.461   3.104
12409WAT     H150356   0.679   0.507   3.156
12409WAT     H250357   0.674   0.393   3.080
12409WAT    EPW50358   0.641   0.458   3.108
12410WAT      O50359   0.345   0.347   2.898
12410WAT     H150360   0.370   0.304   2.826
12410WAT     H250361   0.380   0.426   2.887
12410WAT    EPW50362   0.354   0.352   2.886
12411WAT      O50363   1.789   0.831   3.454
12411WAT     H150364   1.747   0.908   3.464
12411WAT     H250365   1.787   0.817   3.368
12411WAT    EPW50366   1.783   0.841   3.443
12412WAT      O50367   0.740   0.598   2.726
12412WAT     H150368   0.734   0.684   2.740
12412WAT     H250369   0.816   0.576   2.762
12412WAT    EPW50370   0.750   0.607   2.733
12413WAT      O50371   0.997   0.927   3.204
12413WAT     H150372   0.976   0.865   3.147
12413WAT     H250373   0.977   1.001   3.162
12413WAT    EPW50374   0.991   0.929   3.190
12414WAT      O50375   1.576   0.414   3.690
12414WAT     H150376   1.599   0.494   3.666
12414WAT     H250377   1.599   0.365   3.622
12414WAT    EPW50378   1.583   0.418   3.676
12415WAT      O50379   0.981   0.719   3.721
12415WAT     H150380   1.010   0.714   3.804
12415WAT     H250381   0.949   0.640   3.706
12415WAT    EPW50382   0.981   0.707   3.731
12416WAT      O50383   1.677   0.356   2.661
12416WAT     H150384   1.743   0.332   2.712
12416WAT     H250385   1.700   0.325   2.582
12416WAT    EPW50386   1.690   0.348   2.657
12417WAT      O50387   1.391   0.785   3.014
12417WAT     H150388   1.329   0.767   2.956
12417WAT     H250389   1.437   0.849   2.976
12417WAT    EPW50390   1.389   0.792   3.000
12418WAT      O50391   1.399   0.416   2.986
12418WAT     H150392   1.323   0.454   3.005
12418WAT     H250393   1.422   0.378   3.061
12418WAT    EPW50394   1.391   0.416   3.000
12419WAT      O50395   0.780   0.911   2.390
12419WAT     H150396   0.788   0.833   2.428
12419WAT     H250397   0.851   0.916   2.340
12419WAT    EPW50398   0.792   0.900   2.389
12420WAT      O50399   1.019   0.906   2.254
12420WAT     H150400   1.075   0.914   2.320
12420WAT     H250401   1.021   0.985   2.216
12420WAT    EPW50402   1.027   0.919   2.258
12421WAT      O50403   1.665   0.277   3.469
12421WAT     H150404   1.633   0.312   3.395
12421WAT     H250405   1.751   0.289   3.461
12421WAT    EPW50406   1.673   0.284   3.457
12422WAT      O50407   1.330   0.835   3.914
12422WAT     H150408   1.353   0.863   3.994
12422WAT     H250409   1.373   0.888   3.860
12422WAT    EPW50410   1.340   0.847   3.918
12423WAT      O50411   1.287   0.250   3.404
12423WAT     H150412   1.241   0.301   3.459
12423WAT     H250413   1.311   0.183   3.455
12423WAT    EPW50414   1.284   0.248   3.420
12424WAT      O50415   1.680   0.511   3.094
12424WAT     H150416   1.634   0.521   3.021
12424WAT     H250417   1.627   0.466   3.146
12424WAT    EPW50418   1.665   0.506   3.091
12425WAT      O50419   1.013   0.281   2.918
12425WAT     H150420   0.932   0.258   2.941
12425WAT     H250421   1.059   0.265   2.990
12425WAT    EPW50422   1.008   0.275   2.932
12426WAT      O50423   0.718   0.892   2.023
12426WAT     H150424   0.733   0.825   2.077
12426WAT     H250425   0.717   0.961   2.077
12426WAT    EPW50426   0.720   0.892   2.039
12427WAT      O50427   0.417   0.290   3.167
12427WAT     H150428   0.479   0.350   3.157
12427WAT     H250429   0.375   0.291   3.090
12427WAT    EPW50430   0.420   0.299   3.154
12428WAT      O50431   2.006   0.945   2.215
12428WAT     H150432   2.065   0.892   2.179
12428WAT     H250433   1.954   0.891   2.259
12428WAT    EPW50434   2.007   0.929   2.216
12429WAT      O50435   0.415   0.340   3.444
12429WAT     H150436   0.405   0.309   3.363
12429WAT     H250437   0.392   0.423   3.437
12429WAT    EPW50438   0.410   0.347   3.431
12430WAT      O50439   1.913   0.230   2.774
12430WAT     H150440   1.888   0.148   2.789
12430WAT     H250441   1.982   0.241   2.826
12430WAT    EPW50442   1.920   0.219   2.784
12431WAT      O50443   1.994   0.733   2.988
12431WAT     H150444   2.024   0.789   2.928
12431WAT     H250445   2.051   0.742   3.054
12431WAT    EPW50446   2.007   0.743   2.989
12432WAT      O50447   1.686   0.622   2.189
12432WAT     H150448   1.716   0.540   2.188
12432WAT     H250449   1.611   0.616   2.232
12432WAT    EPW50450   1.680   0.609   2.195
12433WAT      O50451   1.944   0.351   3.473
12433WAT     H150452   2.028   0.327   3.476
12433WAT     H250453   1.939   0.396   3.398
12433WAT    EPW50454   1.956   0.354   3.462
12434WAT      O50455   1.377   0.441   2.127
12434WAT     H150456   1.436   0.379   2.109
12434WAT     H250457   1.354   0.471   2.048
12434WAT    EPW50458   1.383   0.436   2.113
12435WAT      O50459   0.827   0.590   3.243
12435WAT     H150460   0.833   0.648   3.308
12435WAT     H250461   0.848   0.637   3.172
12435WAT    EPW50462   0.831   0.605   3.242
12436WAT      O50463   0.677   0.389   3.522
12436WAT     H150464   0.598   0.358   3.504
12436WAT     H250465   0.664   0.476   3.528
12436WAT    EPW50466   0.664   0.398   3.521
12437WAT      O50467   1.100   0.268   3.195
12437WAT     H150468   1.158   0.247   3.257
12437WAT     H250469   1.025   0.273   3.239
12437WAT    EPW50470   1.098   0.266   3.211
12438WAT      O50471   1.030   0.937   2.710
12438WAT     H150472   1.030   1.022   2.728
12438WAT     H250473   1.054   0.934   2.626
12438WAT    EPW50474   1.033   0.949   2.700
12439WAT      O50475   0.885   0.745   3.022
12439WAT     H150476   0.836   0.790   2.966
12439WAT     H250477   0.924   0.685   2.972
12439WAT    EPW50478   0.884   0.743   3.007
12440WAT      O50479   1.319   0.503   3.763
12440WAT     H150480   1.394   0.470   3.732
12440WAT     H250481   1.259   0.472   3.708
12440WAT    EPW50482   1.321   0.494   3.750
12441WAT      O50483   1.617   0.681   3.615
12441WAT     H150484   1.646   0.711   3.692
12441WAT     H250485   1.670   0.718   3.557
12441WAT    EPW50486   1.629   0.691   3.618
12442WAT      O50487   0.948   0.268   2.210
12442WAT     H150488   0.889   0.304   2.156
12442WAT     H250489   1.011   0.328   2.214
12442WAT    EPW50490   0.948   0.282   2.203
12443WAT      O50491   1.058   0.966   3.612
12443WAT     H150492   1.116   0.956   3.548
12443WAT     H250493   1.050   0.885   3.645
12443WAT    EPW50494   1.065   0.952   3.607
12444WAT      O50495   1.753   0.221   2.423
12444WAT     H150496   1.815   0.163   2.443
12444WAT     H250497   1.683   0.171   2.406
12444WAT    EPW50498   1.752   0.205   2.423
12445WAT      O50499   1.139   0.425   3.563
12445WAT     H150500   1.063   0.418   3.604
12445WAT     H250501   1.133   0.501   3.520
12445WAT    EPW50502   1.127   0.435   3.563
12446WAT      O50503   0.655   1.064   3.087
12446WAT     H150504   0.661   1.062   3.174
12446WAT     H250505   0.626   0.985   3.066
12446WAT    EPW50506   0.651   1.052   3.097
12447WAT      O50507   1.393   0.355   2.713
12447WAT     H150508   1.394   0.373   2.798
12447WAT     H250509   1.476   0.341   2.694
12447WAT    EPW50510   1.405   0.356   2.723
12448WAT      O50511   1.121   0.298   2.648
12448WAT     H150512   1.088   0.285   2.728
12448WAT     H250513   1.207   0.306   2.663
12448WAT    EPW50514   1.129   0.297   2.662
12449WAT      O50515   1.139   0.676   3.441
12449WAT     H150516   1.197   0.706   3.498
12449WAT     H250517   1.181   0.679   3.365
12449WAT    EPW50518   1.154   0.681   3.438
12450WAT      O50519   0.378   1.010   3.678
12450WAT     H150520   0.320   1.044   3.734
12450WAT     H250521   0.440   1.070   3.673
12450WAT    EPW50522   0.378   1.024   3.686
12451WAT      O50523   1.521   1.029   2.953
12451WAT     H150524   1.462   1.089   2.974
12451WAT     H250525   1.584   1.039   3.011
12451WAT    EPW50526   1.522   1.039   2.965
12452WAT      O50527   1.165   0.517   3.097
12452WAT     H150528   1.138   0.443   3.134
12452WAT     H250529   1.210   0.556   3.161
12452WAT    EPW50530   1.168   0.512   3.112
12453WAT      O50531   1.734   0.757   3.854
12453WAT     H150532   1.816   0.729   3.845
12453WAT     H250533   1.705   0.714   3.924
12453WAT    EPW50534   1.742   0.747   3.863
12454WAT      O50535   1.288   0.668   2.560
12454WAT     H150536   1.265   0.748   2.532
12454WAT     H250537   1.217   0.620   2.543
12454WAT    EPW50538   1.274   0.673   2.553
12455WAT      O50539   0.723   0.659   2.191
12455WAT     H150540   0.758   0.656   2.270
12455WAT     H250541   0.641   0.633   2.204
12455WAT    EPW50542   0.716   0.655   2.204
12456WAT      O50543   1.671   0.859   2.565
12456WAT     H150544   1.641   0.785   2.599
12456WAT     H250545   1.712   0.833   2.492
12456WAT    EPW50546   1.673   0.844   2.559
12457WAT      O50547   0.472   0.544   2.233
12457WAT     H150548   0.461   0.523   2.317
12457WAT     H250549   0.477   0.467   2.193
12457WAT    EPW50550   0.471   0.530   2.240
12458WAT      O50551   0.779   0.425   2.048
12458WAT     H150552   0.698   0.391   2.053
12458WAT     H250553   0.772   0.501   2.089
12458WAT    EPW50554   0.766   0.431   2.055
12459WAT      O50555   1.367   0.643   3.253
12459WAT     H150556   1.404   0.705   3.303
12459WAT     H250557   1.379   0.673   3.172
12459WAT    EPW50558   1.374   0.657   3.248
12460WAT      O50559   1.436   0.999   3.702
12460WAT     H150560   1.387   0.939   3.663
12460WAT     H250561   1.383   1.069   3.709
12460WAT    EPW50562   1.421   1.001   3.698
12461WAT      O50563   1.936   0.468   3.221
12461WAT     H150564   1.996   0.423   3.175
12461WAT     H250565   1.870   0.477   3.165
12461WAT    EPW50566   1.935   0.463   3.206
12462WAT      O50567   0.760   0.960   3.648
12462WAT     H150568   0.759   0.937   3.733
12462WAT     H250569   0.833   0.923   3.618
12462WAT    EPW50570   0.770   0.951   3.656
12463WAT      O50571   1.777   0.766   3.178
12463WAT     H150572   1.838   0.773   3.116
12463WAT     H250573   1.736   0.692   3.158
12463WAT    EPW50574   1.780   0.756   3.166
12464WAT      O50575   0.510   0.785   3.775
12464WAT     H150576   0.576   0.821   3.820
12464WAT     H250577   0.468   0.853   3.742
12464WAT    EPW50578   0.514   0.800   3.777
12465WAT      O50579   0.388   0.621   3.448
12465WAT     H150580   0.334   0.647   3.512
12465WAT     H250581   0.467   0.634   3.480
12465WAT    EPW50582   0.392   0.627   3.462
12466WAT      O50583   0.502   0.900   2.378
12466WAT     H150584   0.467   0.880   2.301
12466WAT     H250585   0.587   0.898   2.363
12466WAT    EPW50586   0.509   0.897   2.365
12467WAT      O50587   0.904   0.205   2.480
12467WAT     H150588   0.920   0.217   2.395
12467WAT     H250589   0.982   0.220   2.518
12467WAT    EPW50590   0.918   0.209   2.473
12468WAT      O50591   1.788   1.012   2.051
12468WAT     H150592   1.860   0.995   2.096
12468WAT     H250593   1.766   0.935   2.017
12468WAT    EPW50594   1.795   0.998   2.053
12469WAT      O50595   1.930   0.410   3.747
12469WAT     H150596   1.863   0.362   3.775
12469WAT     H250597   1.931   0.396   3.661
12469WAT    EPW50598   1.920   0.401   3.739
12470WAT      O50599   1.448   0.629   2.325
12470WAT     H150600   1.404   0.621   2.400
12470WAT     H250601   1.409   0.570   2.273
12470WAT    EPW50602   1.436   0.619   2.328
12471WAT      O50603   1.580   0.272   3.935
12471WAT     H150604   1.653   0.300   3.974
12471WAT     H250605   1.583   0.313   3.857
12471WAT    EPW50606   1.591   0.282   3.929
12472WAT      O50607   0.504   0.830   3.014
12472WAT     H150608   0.508   0.751   2.977
12472WAT     H250609   0.460   0.877   2.956
12472WAT    EPW50610   0.498   0.825   3.000
12473WAT      O50611   1.127   0.476   2.233
12473WAT     H150612   1.205   0.451   2.202
12473WAT     H250613   1.107   0.545   2.183
12473WAT    EPW50614   1.136   0.483   2.221
12474WAT      O50615   0.322   1.064   3.404
12474WAT     H150616   0.325   1.035   3.486
12474WAT     H250617   0.349   0.996   3.357
12474WAT    EPW50618   0.326   1.049   3.409
12475WAT      O50619   1.837   0.769   0.473
12475WAT     H150620   1.894   0.707   0.495
12475WAT     H250621   1.787   0.731   0.413
12475WAT    EPW50622   1.838   0.754   0.467
12476WAT      O50623   0.493   0.302   0.229
12476WAT     H150624   0.456   0.269   0.157
12476WAT     H250625   0.504   0.232   0.280
12476WAT    EPW50626   0.489   0.287   0.226
12477WAT      O50627   0.488   0.501   0.618
12477WAT     H150628   0.572   0.479   0.620
12477WAT     H250629   0.449   0.435   0.659
12477WAT    EPW50630   0.495   0.488   0.625
12478WAT      O50631   0.415   0.810   0.237
12478WAT     H150632   0.473   0.806   0.172
12478WAT     H250633   0.412   0.729   0.268
12478WAT    EPW50634   0.423   0.798   0.232
12479WAT      O50635   0.892   0.448   1.794
12479WAT     H150636   0.864   0.436   1.875
12479WAT     H250637   0.826   0.420   1.745
12479WAT    EPW50638   0.878   0.442   1.799
12480WAT      O50639   0.871   0.789   1.536
12480WAT     H150640   0.893   0.844   1.471
12480WAT     H250641   0.947   0.754   1.560
12480WAT    EPW50642   0.886   0.792   1.530
12481WAT      O50643   0.976   0.555   0.957
12481WAT     H150644   0.996   0.476   0.988
12481WAT     H250645   1.054   0.593   0.947
12481WAT    EPW50646   0.990   0.549   0.960
12482WAT      O50647   1.043   0.532   0.617
12482WAT     H150648   1.063   0.467   0.672
12482WAT     H250649   1.066   0.501   0.539
12482WAT    EPW50650   1.049   0.518   0.613
12483WAT      O50651   0.819   0.703   0.578
12483WAT     H150652   0.778   0.681   0.652
12483WAT     H250653   0.894   0.659   0.583
12483WAT    EPW50654   0.824   0.693   0.590
12484WAT      O50655   1.375   0.872   0.367
12484WAT     H150656   1.440   0.929   0.357
12484WAT     H250657   1.416   0.799   0.392
12484WAT    EPW50658   1.391   0.870   0.369
12485WAT      O50659   1.197   0.922   0.570
12485WAT     H150660   1.228   0.994   0.609
12485WAT     H250661   1.251   0.911   0.503
12485WAT    EPW50662   1.210   0.931   0.566
12486WAT      O50663   0.395   0.768   0.692
12486WAT     H150664   0.422   0.685   0.682
12486WAT     H250665   0.415   0.805   0.616
12486WAT    EPW50666   0.402   0.761   0.680
12487WAT      O50667   1.454   0.914   1.370
12487WAT     H150668   1.524   0.966   1.360
12487WAT     H250669   1.436   0.889   1.289
12487WAT    EPW50670   1.461   0.918   1.357
12488WAT      O50671   0.506   0.582   0.988
12488WAT     H150672   0.570   0.590   0.929
12488WAT     H250673   0.545   0.545   1.056
12488WAT    EPW50674   0.521   0.578   0.989
12489WAT      O50675   0.780   0.884   0.911
12489WAT     H150676   0.858   0.905   0.877
12489WAT     H250677   0.724   0.930   0.864
12489WAT    EPW50678   0.783   0.894   0.899
12490WAT      O50679   1.584   1.065   0.339
12490WAT     H150680   1.631   1.024   0.278
12490WAT     H250681   1.642   1.119   0.376
12490WAT    EPW50682   1.600   1.067   0.335
12491WAT      O50683   0.655   1.001   1.477
12491WAT     H150684   0.692   0.965   1.547
12491WAT     H250685   0.590   0.946   1.459
12491WAT    EPW50686   0.651   0.987   1.485
12492WAT      O50687   1.344   0.747   1.708
12492WAT     H150688   1.323   0.697   1.777
12492WAT     H250689   1.430   0.732   1.698
12492WAT    EPW50690   1.354   0.737   1.717
12493WAT      O50691   1.162   0.712   0.259
12493WAT     H150692   1.098   0.771   0.263
12493WAT     H250693   1.235   0.758   0.273
12493WAT    EPW50694   1.163   0.727   0.261
12494WAT      O50695   0.444   0.842   1.389
12494WAT     H150696   0.420   0.763   1.418
12494WAT     H250697   0.455   0.829   1.303
12494WAT    EPW50698   0.442   0.828   1.380
12495WAT      O50699   1.216   0.990   1.486
12495WAT     H150700   1.293   0.968   1.450
12495WAT     H250701   1.158   0.970   1.425
12495WAT    EPW50702   1.219   0.983   1.472
12496WAT      O50703   1.898   1.014   0.733
12496WAT     H150704   1.857   1.090   0.748
12496WAT     H250705   1.832   0.958   0.721
12496WAT    EPW50706   1.882   1.017   0.733
12497WAT      O50707   1.578   0.614   0.785
12497WAT     H150708   1.624   0.540   0.782
12497WAT     H250709   1.495   0.587   0.783
12497WAT    EPW50710   1.572   0.599   0.784
12498WAT      O50711   0.636   0.664   1.657
12498WAT     H150712   0.705   0.712   1.633
12498WAT     H250713   0.610   0.701   1.732
12498WAT    EPW50714   0.642   0.676   1.665
12499WAT      O50715   0.761   0.229   1.165
12499WAT     H150716   0.784   0.238   1.249
12499WAT     H250717   0.693   0.175   1.168
12499WAT    EPW50718   0.754   0.223   1.178
12500WAT      O50719   0.846   0.321   1.417
12500WAT     H150720   0.848   0.406   1.396
12500WAT     H250721   0.794   0.318   1.487
12500WAT    EPW50722   0.839   0.333   1.424
12501WAT      O50723   1.493   0.383   1.369
12501WAT     H150724   1.434   0.334   1.412
12501WAT     H250725   1.463   0.464   1.379
12501WAT    EPW50726   1.480   0.387   1.377
12502WAT      O50727   1.765   0.392   0.306
12502WAT     H150728   1.753   0.346   0.379
12502WAT     H250729   1.851   0.389   0.294
12502WAT    EPW50730   1.776   0.385   0.315
12503WAT      O50731   0.504   0.233   0.743
12503WAT     H150732   0.583   0.256   0.714
12503WAT     H250733   0.499   0.148   0.724
12503WAT    EPW50734   0.515   0.224   0.736
12504WAT      O50735   0.382   0.982   0.919
12504WAT     H150736   0.332   0.923   0.879
12504WAT     H250737   0.450   0.991   0.865
12504WAT    EPW50738   0.385   0.974   0.905
12505WAT      O50739   2.039   0.812   1.697
12505WAT     H150740   1.966   0.816   1.650
12505WAT     H250741   2.016   0.767   1.768
12505WAT    EPW50742   2.025   0.806   1.701
12506WAT      O50743   0.737   0.362   0.629
12506WAT     H150744   0.795   0.405   0.677
12506WAT     H250745   0.782   0.337   0.559
12506WAT    EPW50746   0.752   0.364   0.626
12507WAT      O50747   1.199   0.726   0.924
12507WAT     H150748   1.150   0.796   0.903
12507WAT     H250749   1.235   0.703   0.847
12507WAT    EPW50750   1.197   0.733   0.909
12508WAT      O50751   0.624   0.467   1.204
12508WAT     H150752   0.676   0.511   1.258
12508WAT     H250753   0.672   0.398   1.180
12508WAT    EPW50754   0.639   0.463   1.208
12509WAT      O50755   0.377   0.330   0.979
12509WAT     H150756   0.413   0.293   0.909
12509WAT     H250757   0.402   0.413   0.975
12509WAT    EPW50758   0.386   0.337   0.968
12510WAT      O50759   1.793   0.833   1.557
12510WAT     H150760   1.751   0.909   1.565
12510WAT     H250761   1.790   0.818   1.471
12510WAT    EPW50762   1.787   0.842   1.545
12511WAT      O50763   0.736   0.625   0.833
12511WAT     H150764   0.738   0.708   0.858
12511WAT     H250765   0.809   0.591   0.868
12511WAT    EPW50766   0.747   0.632   0.842
12512WAT      O50767   1.002   0.923   1.318
12512WAT     H150768   0.981   0.861   1.260
12512WAT     H250769   0.982   0.997   1.277
12512WAT    EPW50770   0.996   0.925   1.303
12513WAT      O50771   1.574   0.417   1.790
12513WAT     H150772   1.598   0.497   1.766
12513WAT     H250773   1.599   0.367   1.723
12513WAT    EPW50774   1.581   0.422   1.777
12514WAT      O50775   0.977   0.719   1.825
12514WAT     H150776   1.007   0.714   1.907
12514WAT     H250777   0.947   0.638   1.809
12514WAT    EPW50778   0.977   0.706   1.834
12515WAT      O50779   1.691   0.354   0.776
12515WAT     H150780   1.759   0.325   0.823
12515WAT     H250781   1.706   0.322   0.697
12515WAT    EPW50782   1.703   0.345   0.771
12516WAT      O50783   1.393   0.781   1.121
12516WAT     H150784   1.332   0.761   1.063
12516WAT     H250785   1.438   0.845   1.083
12516WAT    EPW50786   1.391   0.788   1.107
12517WAT      O50787   1.394   0.418   1.101
12517WAT     H150788   1.318   0.456   1.119
12517WAT     H250789   1.418   0.382   1.176
12517WAT    EPW50790   1.386   0.418   1.114
12518WAT      O50791   0.773   0.962   0.459
12518WAT     H150792   0.780   0.893   0.512
12518WAT     H250793   0.843   0.955   0.407
12518WAT    EPW50794   0.784   0.950   0.459
12519WAT      O50795   1.021   0.940   0.346
12519WAT     H150796   1.062   0.925   0.421
12519WAT     H250797   1.041   1.023   0.328
12519WAT    EPW50798   1.030   0.950   0.355
12520WAT      O50799   1.667   0.274   1.575
12520WAT     H150800   1.636   0.307   1.500
12520WAT     H250801   1.754   0.285   1.567
12520WAT    EPW50802   1.675   0.281   1.563
12521WAT      O50803   1.328   0.837   2.014
12521WAT     H150804   1.353   0.865   2.093
12521WAT     H250805   1.372   0.888   1.959
12521WAT    EPW50806   1.338   0.849   2.018
12522WAT      O50807   1.293   0.250   1.513
12522WAT     H150808   1.246   0.301   1.567
12522WAT     H250809   1.320   0.185   1.565
12522WAT    EPW50810   1.290   0.248   1.529
12523WAT      O50811   1.686   0.507   1.196
12523WAT     H150812   1.641   0.519   1.123
12523WAT     H250813   1.632   0.459   1.245
12523WAT    EPW50814   1.672   0.501   1.193
12524WAT      O50815   1.011   0.286   1.038
12524WAT     H150816   0.930   0.260   1.057
12524WAT     H250817   1.055   0.273   1.113
12524WAT    EPW50818   1.006   0.280   1.052
12525WAT      O50819   0.422   0.286   1.259
12525WAT     H150820   0.480   0.351   1.252
12525WAT     H250821   0.386   0.281   1.179
12525WAT    EPW50822   0.425   0.295   1.246
12526WAT      O50823   1.990   0.939   0.319
12526WAT     H150824   2.065   0.898   0.303
12526WAT     H250825   1.948   0.883   0.372
12526WAT    EPW50826   1.995   0.924   0.325
12527WAT      O50827   0.415   0.336   1.537
12527WAT     H150828   0.405   0.305   1.456
12527WAT     H250829   0.391   0.420   1.531
12527WAT    EPW50830   0.410   0.344   1.524
12528WAT      O50831   1.922   0.219   0.883
12528WAT     H150832   1.897   0.136   0.896
12528WAT     H250833   1.994   0.227   0.932
12528WAT    EPW50834   1.929   0.208   0.892
12529WAT      O50835   1.994   0.731   1.096
12529WAT     H150836   2.019   0.786   1.034
12529WAT     H250837   2.051   0.745   1.161
12529WAT    EPW50838   2.006   0.741   1.096
12530WAT      O50839   1.681   0.655   0.280
12530WAT     H150840   1.711   0.574   0.274
12530WAT     H250841   1.609   0.647   0.329
12530WAT    EPW50842   1.675   0.642   0.287
12531WAT      O50843   1.946   0.347   1.578
12531WAT     H150844   2.030   0.323   1.580
12531WAT     H250845   1.940   0.393   1.504
12531WAT    EPW50846   1.958   0.350   1.567
12532WAT      O50847   1.387   0.426   0.248
12532WAT     H150848   1.460   0.383   0.228
12532WAT     H250849   1.365   0.464   0.173
12532WAT    EPW50850   1.394   0.425   0.234
12533WAT      O50851   0.823   0.589   1.351
12533WAT     H150852   0.828   0.647   1.416
12533WAT     H250853   0.847   0.635   1.281
12533WAT    EPW50854   0.827   0.604   1.350
12534WAT      O50855   0.672   0.387   1.630
12534WAT     H150856   0.594   0.356   1.607
12534WAT     H250857   0.659   0.473   1.635
12534WAT    EPW50858   0.659   0.395   1.627
12535WAT      O50859   1.100   0.273   1.310
12535WAT     H150860   1.159   0.250   1.371
12535WAT     H250861   1.025   0.276   1.355
12535WAT    EPW50862   1.098   0.270   1.326
12536WAT      O50863   1.041   0.939   0.823
12536WAT     H150864   1.044   1.023   0.844
12536WAT     H250865   1.066   0.938   0.739
12536WAT    EPW50866   1.045   0.951   0.813
12537WAT      O50867   0.889   0.746   1.135
12537WAT     H150868   0.843   0.796   1.080
12537WAT     H250869   0.925   0.686   1.084
12537WAT    EPW50870   0.887   0.745   1.119
12538WAT      O50871   1.319   0.508   1.863
12538WAT     H150872   1.393   0.475   1.833
12538WAT     H250873   1.258   0.475   1.810
12538WAT    EPW50874   1.321   0.498   1.851
12539WAT      O50875   1.617   0.684   1.714
12539WAT     H150876   1.645   0.714   1.791
12539WAT     H250877   1.672   0.721   1.657
12539WAT    EPW50878   1.629   0.694   1.717
12540WAT      O50879   1.057   0.965   1.715
12540WAT     H150880   1.117   0.955   1.653
12540WAT     H250881   1.049   0.884   1.748
12540WAT    EPW50882   1.064   0.951   1.711
12541WAT      O50883   1.742   0.221   0.532
12541WAT     H150884   1.817   0.177   0.529
12541WAT     H250885   1.681   0.159   0.521
12541WAT    EPW50886   1.744   0.205   0.530
12542WAT      O50887   1.139   0.425   1.665
12542WAT     H150888   1.063   0.418   1.707
12542WAT     H250889   1.132   0.500   1.622
12542WAT    EPW50890   1.127   0.435   1.665
12543WAT      O50891   0.658   1.061   1.197
12543WAT     H150892   0.661   1.054   1.284
12543WAT     H250893   0.630   0.982   1.171
12543WAT    EPW50894   0.654   1.048   1.206
12544WAT      O50895   1.409   0.368   0.829
12544WAT     H150896   1.407   0.381   0.915
12544WAT     H250897   1.492   0.348   0.813
12544WAT    EPW50898   1.421   0.367   0.839
12545WAT      O50899   1.133   0.330   0.781
12545WAT     H150900   1.102   0.303   0.858
12545WAT     H250901   1.220   0.333   0.793
12545WAT    EPW50902   1.142   0.326   0.794
12546WAT      O50903   1.132   0.675   1.543
12546WAT     H150904   1.197   0.706   1.593
12546WAT     H250905   1.161   0.688   1.462
12546WAT    EPW50906   1.146   0.682   1.538
12547WAT      O50907   0.377   1.010   1.778
12547WAT     H150908   0.320   1.045   1.833
12547WAT     H250909   0.440   1.070   1.772
12547WAT    EPW50910   0.378   1.024   1.785
12548WAT      O50911   1.521   1.026   1.066
12548WAT     H150912   1.463   1.089   1.083
12548WAT     H250913   1.583   1.039   1.126
12548WAT    EPW50914   1.522   1.037   1.077
12549WAT      O50915   1.165   0.527   1.221
12549WAT     H150916   1.139   0.451   1.256
12549WAT     H250917   1.223   0.557   1.280
12549WAT    EPW50918   1.170   0.520   1.235
12550WAT      O50919   1.731   0.760   1.955
12550WAT     H150920   1.812   0.730   1.943
12550WAT     H250921   1.703   0.716   2.025
12550WAT    EPW50922   1.739   0.749   1.963
12551WAT      O50923   1.280   0.669   0.662
12551WAT     H150924   1.258   0.749   0.636
12551WAT     H250925   1.208   0.622   0.648
12551WAT    EPW50926   1.266   0.674   0.656
12552WAT      O50927   0.721   0.632   0.319
12552WAT     H150928   0.753   0.655   0.397
12552WAT     H250929   0.636   0.618   0.335
12552WAT    EPW50930   0.713   0.633   0.333
12553WAT      O50931   1.675   0.852   0.683
12553WAT     H150932   1.645   0.778   0.719
12553WAT     H250933   1.715   0.824   0.610
12553WAT    EPW50934   1.677   0.837   0.677
12554WAT      O50935   0.453   0.556   0.347
12554WAT     H150936   0.452   0.539   0.433
12554WAT     H250937   0.457   0.477   0.311
12554WAT    EPW50938   0.453   0.542   0.355
12555WAT      O50939   0.757   0.393   0.180
12555WAT     H150940   0.673   0.368   0.187
12555WAT     H250941   0.757   0.474   0.213
12555WAT    EPW50942   0.744   0.401   0.186
12556WAT      O50943   1.383   0.637   1.359
12556WAT     H150944   1.414   0.701   1.410
12556WAT     H250945   1.394   0.668   1.278
12556WAT    EPW50946   1.389   0.651   1.355
12557WAT      O50947   1.436   0.999   1.802
12557WAT     H150948   1.387   0.939   1.761
12557WAT     H250949   1.383   1.068   1.808
12557WAT    EPW50950   1.421   1.000   1.797
12558WAT      O50951   1.941   0.470   1.329
12558WAT     H150952   2.005   0.428   1.286
12558WAT     H250953   1.877   0.476   1.269
12558WAT    EPW50954   1.941   0.464   1.314
12559WAT      O50955   0.759   0.961   1.753
12559WAT     H150956   0.758   0.938   1.837
12559WAT     H250957   0.831   0.923   1.722
12559WAT    EPW50958   0.769   0.952   1.761
12560WAT      O50959   1.776   0.763   1.283
12560WAT     H150960   1.838   0.770   1.222
12560WAT     H250961   1.737   0.687   1.263
12560WAT    EPW50962   1.780   0.753   1.271
12561WAT      O50963   0.508   0.786   1.878
12561WAT     H150964   0.575   0.822   1.922
12561WAT     H250965   0.467   0.854   1.843
12561WAT    EPW50966   0.512   0.801   1.879
12562WAT      O50967   0.386   0.617   1.546
12562WAT     H150968   0.331   0.643   1.609
12562WAT     H250969   0.465   0.631   1.580
12562WAT    EPW50970   0.389   0.623   1.560
12563WAT      O50971   0.499   0.919   0.479
12563WAT     H150972   0.465   0.893   0.403
12563WAT     H250973   0.582   0.935   0.460
12563WAT    EPW50974   0.506   0.917   0.465
12564WAT      O50975   0.890   0.299   0.403
12564WAT     H150976   0.849   0.318   0.328
12564WAT     H250977   0.968   0.336   0.393
12564WAT    EPW50978   0.895   0.308   0.390
12565WAT      O50979   1.747   0.914   0.171
12565WAT     H150980   1.828   0.923   0.203
12565WAT     H250981   1.727   0.831   0.187
12565WAT    EPW50982   1.756   0.903   0.178
12566WAT      O50983   1.935   0.405   1.853
12566WAT     H150984   1.871   0.353   1.882
12566WAT     H250985   1.934   0.391   1.766
12566WAT    EPW50986   1.925   0.395   1.844
12567WAT      O50987   1.457   0.620   0.442
12567WAT     H150988   1.414   0.617   0.518
12567WAT     H250989   1.422   0.555   0.396
12567WAT    EPW50990   1.445   0.610   0.446
12568WAT      O50991   1.581   0.275   2.034
12568WAT     H150992   1.653   0.303   2.074
12568WAT     H250993   1.583   0.316   1.957
12568WAT    EPW50994   1.592   0.285   2.029
12569WAT      O50995   0.502   0.830   1.117
12569WAT     H150996   0.504   0.752   1.078
12569WAT     H250997   0.458   0.880   1.060
12569WAT    EPW50998   0.496   0.826   1.103
12570WAT      O50999   1.127   0.455   0.365
12570WAT     H151000   1.202   0.420   0.337
12570WAT     H251001   1.125   0.533   0.326
12570WAT    EPW51002   1.137   0.461   0.355
12571WAT      O51003   0.316   1.061   1.504
12571WAT     H151004   0.322   1.033   1.587
12571WAT     H251005   0.344   0.993   1.457
12571WAT    EPW51006   0.321   1.047   1.510
   7.75279   7.69708   7.86611
